DG-THF-PF6-Na    Amber RESP
15560
    1DG      C1    1   3.451   4.297   3.065 -0.6703 -0.1852  0.1806
    1DG      C2    2   3.891   4.468   2.560 -0.0401  0.4046  0.1925
    1DG      H3    3   3.390   4.207   3.061 -0.4013 -0.3428 -0.4771
    1DG      H4    4   3.394   4.372   3.010  0.8512  0.5438 -0.4800
    1DG      H5    5   3.459   4.322   3.171 -2.1116 -1.7460  0.6864
    1DG      H6    6   3.896   4.396   2.479  1.4987  2.0077 -1.2154
    1DG      H7    7   3.815   4.540   2.529 -0.6559 -0.0458  0.6197
    1DG      H8    8   3.994   4.503   2.554  0.7543 -1.9412 -1.2849
    1DG      O9    9   3.575   4.286   3.009  0.2134  0.7247  0.1059
    1DG     O10   10   3.870   4.409   2.691 -0.6421 -0.2943  0.2101
    1DG     C11   11   3.640   4.157   3.037  0.3853 -0.2933  0.4195
    1DG     C12   12   3.976   4.322   2.731 -0.2404  0.2151 -0.6787
    1DG     H13   13   3.616   4.074   2.971 -1.5914 -0.6221  1.4756
    1DG     H14   14   3.623   4.131   3.142 -0.3235  2.1343  0.9886
    1DG     H15   15   4.076   4.363   2.724  0.3098 -1.2393 -1.9665
    1DG     H16   16   3.965   4.227   2.678 -2.7480 -0.6746  1.2067
    1DG     C17   17   3.796   4.191   3.025  0.8363  0.3130 -0.1608
    1DG     C18   18   3.956   4.294   2.883  0.3611 -0.2120 -0.3680
    1DG     O19   19   3.822   4.251   2.901  0.3635 -0.1890 -0.4662
    1DG     H20   20   3.850   4.096   3.027 -1.5499 -1.1337 -0.3958
    1DG     H21   21   3.819   4.251   3.113  0.1428 -0.1890  0.3815
    1DG     H22   22   4.024   4.215   2.914 -1.1272 -1.6498 -0.6229
    1DG     H23   23   3.953   4.381   2.948  0.4621 -0.4665 -0.0178
    2DG      C1   24   2.123   1.738   0.393 -0.4163 -0.1699 -0.1194
    2DG      C2   25   2.063   2.580   0.280 -0.0815  0.1738 -0.2224
    2DG      H3   26   2.187   1.659   0.433  0.9131  0.1939 -1.4282
    2DG      H4   27   2.136   1.728   0.285  0.7371  1.7009 -0.1844
    2DG      H5   28   2.018   1.723   0.417 -0.3426 -0.5475 -0.0224
    2DG      H6   29   1.962   2.602   0.316  0.3669 -1.6932  2.5136
    2DG      H7   30   2.138   2.654   0.309  0.7915 -0.6351 -0.3650
    2DG      H8   31   2.067   2.576   0.171  1.2640  0.7380 -0.2044
    2DG      O9   32   2.179   1.856   0.448 -0.0696  0.0288 -0.5427
    2DG     O10   33   2.121   2.471   0.347  0.0975  0.4465  0.1193
    2DG     C11   34   2.138   1.971   0.376  0.0846  0.3244  0.9995
    2DG     C12   35   2.238   2.420   0.286  0.4822  1.0122 -0.2840
    2DG     H13   36   2.030   1.981   0.386  0.1504  2.2243  0.1759
    2DG     H14   37   2.166   1.959   0.271  1.1904 -1.4990  1.4546
    2DG     H15   38   2.330   2.478   0.276  0.0722  1.6323 -0.4716
    2DG     H16   39   2.215   2.404   0.181  0.2431 -2.1270  0.1425
    2DG     C17   40   2.206   2.093   0.428  0.4883 -0.2939 -0.7315
    2DG     C18   41   2.283   2.287   0.342 -0.9118 -0.5273  0.4817
    2DG     O19   42   2.175   2.197   0.345  0.0862  0.2397 -0.3747
    2DG     H20   43   2.311   2.068   0.438  1.1548  2.0150 -1.3257
    2DG     H21   44   2.156   2.126   0.519 -1.3015 -0.7017 -1.5208
    2DG     H22   45   2.359   2.249   0.274 -1.5803 -0.5852 -0.2565
    2DG     H23   46   2.334   2.300   0.437  0.6957  0.1177 -0.4367
    3DG      C1   47   2.916   5.429   2.314 -0.4129 -0.4699  0.2294
    3DG      C2   48   2.416   5.545   2.819 -0.2489 -0.8203 -0.0436
    3DG      H3   49   2.910   5.387   2.213  1.8839  0.1678 -0.2344
    3DG      H4   50   2.900   5.346   2.381  3.6512 -0.5595  1.3761
    3DG      H5   51   3.013   5.479   2.326 -0.7968  0.7272 -1.2575
    3DG      H6   52   2.374   5.586   2.911  1.4834 -1.5672  1.1359
    3DG      H7   53   2.346   5.559   2.737 -1.1353  0.7662  0.9253
    3DG      H8   54   2.421   5.438   2.839 -0.8641 -0.6079  1.4448
    3DG      O9   55   2.821   5.539   2.333 -0.6297  0.3335 -0.5146
    3DG     O10   56   2.544   5.592   2.798 -0.9450 -0.0203  0.9380
    3DG     C11   57   2.688   5.491   2.333  0.2812 -0.6498 -0.7517
    3DG     C12   58   2.545   5.721   2.734 -0.0184  0.0402 -0.1487
    3DG     H13   59   2.666   5.400   2.390  0.7297 -0.5438 -0.4009
    3DG     H14   60   2.661   5.467   2.230 -1.6635 -0.8833 -0.2337
    3DG     H15   61   2.645   5.762   2.742 -0.2502  0.5263  0.3678
    3DG     H16   62   2.482   5.791   2.791  0.0965  0.5058 -0.5906
    3DG     C17   63   2.590   5.601   2.392 -0.5106  0.4208  0.1488
    3DG     C18   64   2.513   5.707   2.585  0.2368  0.3343  0.6138
    3DG     O19   65   2.603   5.609   2.531 -0.7214  0.0573  0.2916
    3DG     H20   66   2.487   5.571   2.370  0.1268 -0.7518 -1.3797
    3DG     H21   67   2.597   5.698   2.344  1.0964  1.6252  2.6365
    3DG     H22   68   2.412   5.672   2.565  0.1339 -0.0832  1.7988
    3DG     H23   69   2.522   5.799   2.528 -2.8034  0.2010 -0.2267
    4DG      C1   70   3.721   4.593   2.222 -0.1749  0.4302  0.4634
    4DG      C2   71   3.898   5.014   1.783  0.2243  0.4093 -0.2756
    4DG      H3   72   3.688   4.531   2.138  0.3897  0.1566  0.4429
    4DG      H4   73   3.632   4.592   2.286  0.5027  2.4987  1.5373
    4DG      H5   74   3.797   4.533   2.271  0.2777  1.5127  1.1291
    4DG      H6   75   3.850   5.083   1.853  1.5267  1.9821 -0.8660
    4DG      H7   76   3.959   5.088   1.731  1.1793  0.6496  1.1324
    4DG      H8   77   3.820   4.981   1.714  1.0378 -0.8518 -0.6157
    4DG      O9   78   3.762   4.721   2.165 -0.2007 -0.3824 -0.1271
    4DG     O10   79   3.963   4.906   1.846 -0.4339  0.1499 -0.0039
    4DG     C11   80   3.765   4.831   2.257 -0.3369  0.0233  0.1157
    4DG     C12   81   4.077   4.942   1.928 -0.3783  0.0188  0.1420
    4DG     H13   82   3.805   4.799   2.353  0.0071 -0.2153 -0.1105
    4DG     H14   83   3.661   4.859   2.276 -0.2074  1.5294 -1.1251
    4DG     H15   84   4.132   5.022   1.878  2.4417 -0.3207  2.4253
    4DG     H16   85   4.138   4.852   1.933 -0.4510 -0.0408 -0.0635
    4DG     C17   86   3.843   4.950   2.195  0.9357 -0.3435 -0.4928
    4DG     C18   87   4.033   4.986   2.065  0.4565  0.6161  0.2179
    4DG     O19   88   3.937   4.893   2.108  0.6322  0.3856 -0.7893
    4DG     H20   89   3.881   5.005   2.281  3.7746  0.9148 -2.3906
    4DG     H21   90   3.771   5.013   2.142  0.7548 -0.9427 -0.9783
    4DG     H22   91   4.110   4.987   2.142  0.3994  0.3472  0.2762
    4DG     H23   92   3.998   5.090   2.061 -1.5359  0.0234  1.2243
    5DG      C1   93   3.871   3.263   2.255 -0.0410 -0.3679  0.1424
    5DG      C2   94   3.604   2.902   1.705 -0.0646  0.4798  0.2684
    5DG      H3   95   3.851   3.175   2.316  2.7319 -0.9894  0.3165
    5DG      H4   96   3.845   3.344   2.323 -2.2571 -1.2997  0.4679
    5DG      H5   97   3.979   3.255   2.237 -0.1774  0.1268 -0.9411
    5DG      H6   98   3.690   2.847   1.668 -2.1977 -0.7264 -3.4279
    5DG      H7   99   3.556   2.833   1.775 -0.8199 -1.2638 -1.8602
    5DG      H8  100   3.539   2.919   1.619 -1.0298 -1.3059  0.5845
    5DG      O9  101   3.789   3.264   2.141  0.1405  0.1429  0.0539
    5DG     O10  102   3.643   3.031   1.756 -0.6388  0.4972  0.0054
    5DG     C11  103   3.806   3.380   2.062  0.0310 -0.0008 -0.9664
    5DG     C12  104   3.689   3.123   1.654  0.2062 -0.8876  0.3197
    5DG     H13  105   3.913   3.391   2.048  0.1598  0.3014  0.1501
    5DG     H14  106   3.771   3.465   2.121  1.6061  1.0573 -1.5089
    5DG     H15  107   3.632   3.123   1.561 -0.5386 -0.9768  0.7670
    5DG     H16  108   3.788   3.102   1.614 -0.5319  0.3199 -2.3586
    5DG     C17  109   3.732   3.378   1.923 -0.6798  0.4412  0.6313
    5DG     C18  110   3.689   3.265   1.716  0.1676  0.1556 -0.5531
    5DG     O19  111   3.751   3.259   1.843  0.0688  0.0406  0.0220
    5DG     H20  112   3.766   3.469   1.875 -2.6911  1.3980  0.9102
    5DG     H21  113   3.627   3.394   1.948 -1.4475 -0.0648 -2.0011
    5DG     H22  114   3.731   3.338   1.647 -1.4215  1.4614 -0.1975
    5DG     H23  115   3.591   3.303   1.743 -1.3253 -2.9290 -1.1998
    6DG      C1  116   4.085   3.603   1.055  0.2447 -0.5010 -0.2296
    6DG      C2  117   3.317   3.592   0.887  0.2615  0.6503 -0.2458
    6DG      H3  118   4.109   3.707   1.036  4.4139 -1.1751  0.4669
    6DG      H4  119   4.178   3.548   1.039  1.4175  1.2443  0.3897
    6DG      H5  120   4.063   3.579   1.159  0.8547 -0.3731 -0.0669
    6DG      H6  121   3.270   3.672   0.829 -2.4228  0.4927  1.5028
    6DG      H7  122   3.252   3.505   0.890  0.1509  0.7623  1.8170
    6DG      H8  123   3.332   3.633   0.987 -2.4189  0.9259  0.1259
    6DG      O9  124   3.981   3.557   0.973 -0.1806  0.2383  0.0381
    6DG     O10  125   3.436   3.540   0.826  0.4592  0.3698  0.0032
    6DG     C11  126   4.004   3.604   0.840 -0.4382  0.0382 -0.6062
    6DG     C12  127   3.537   3.635   0.826 -0.1124  0.5105 -0.1189
    6DG     H13  128   4.093   3.553   0.804 -0.8597 -0.8820 -0.3848
    6DG     H14  129   4.023   3.710   0.827 -0.9326 -0.0164 -1.9837
    6DG     H15  130   3.566   3.654   0.930  1.7992 -0.3945 -0.4333
    6DG     H16  131   3.512   3.731   0.780  0.6155  0.1156 -1.3795
    6DG     C17  132   3.880   3.569   0.760  0.6203  0.4337 -0.3131
    6DG     C18  133   3.658   3.589   0.745  0.7164 -0.4381 -0.0525
    6DG     O19  134   3.766   3.632   0.810  0.2425 -0.4082 -0.3040
    6DG     H20  135   3.872   3.461   0.771  0.3313  0.2309 -2.1709
    6DG     H21  136   3.893   3.582   0.652 -0.0375  0.3388 -0.4050
    6DG     H22  137   3.654   3.480   0.732 -0.5228 -0.2946 -1.1038
    6DG     H23  138   3.661   3.635   0.646  0.0891  0.1917  0.2174
    7DG      C1  139   3.061   2.928   2.708 -0.2275 -0.1820  0.2826
    7DG      C2  140   3.432   2.354   2.787 -0.4655  0.1461 -0.3689
    7DG      H3  141   3.103   2.890   2.615 -2.5617 -1.2134 -0.4353
    7DG      H4  142   3.146   2.976   2.756  1.4006 -2.8221  0.2330
    7DG      H5  143   2.981   3.000   2.687  1.6570  2.5277  1.6993
    7DG      H6  144   3.443   2.307   2.689  2.3807 -0.5266  0.1870
    7DG      H7  145   3.510   2.430   2.785 -0.4777  0.3072  1.9342
    7DG      H8  146   3.460   2.273   2.855  0.4912  0.2845 -0.5777
    7DG      O9  147   3.009   2.819   2.784 -0.6606  0.5384 -0.0162
    7DG     O10  148   3.308   2.414   2.819 -0.0421 -0.0158  0.5004
    7DG     C11  149   2.952   2.719   2.702  0.1275 -0.1615  0.2777
    7DG     C12  150   3.199   2.326   2.783 -0.2085 -0.0387  0.3824
    7DG     H13  151   3.009   2.704   2.610  1.1062  0.4096  0.7735
    7DG     H14  152   2.862   2.774   2.677  0.0416 -0.5782 -0.3538
    7DG     H15  153   3.199   2.234   2.841  3.0568  0.0123  0.6497
    7DG     H16  154   3.200   2.311   2.676 -1.4933  1.0773  0.1879
    7DG     C17  155   2.937   2.586   2.785 -0.6282 -0.2324  0.7712
    7DG     C18  156   3.066   2.388   2.814 -0.4977 -1.4223  0.1985
    7DG     O19  157   3.062   2.519   2.766  0.0682 -0.6466  0.1655
    7DG     H20  158   2.852   2.533   2.742 -0.6316  2.7078 -3.3780
    7DG     H21  159   2.924   2.596   2.893  2.7916 -2.6216  1.5677
    7DG     H22  160   2.977   2.331   2.787 -0.1286 -1.7067 -0.4392
    7DG     H23  161   3.061   2.407   2.921  1.6806  1.2960 -0.0563
    8DG      C1  162   5.418   1.062   1.749  0.2210  0.5480 -0.3507
    8DG      C2  163   5.353   1.726   1.460 -0.6800  0.0144 -0.1191
    8DG      H3  164   5.472   0.985   1.804 -3.1019 -1.0773  0.9272
    8DG      H4  165   5.445   1.066   1.644  1.7848 -1.8713 -0.1120
    8DG      H5  166   5.310   1.055   1.765  0.0698 -1.0071 -1.8417
    8DG      H6  167   5.407   1.712   1.366 -0.4659 -0.7669  0.1107
    8DG      H7  168   5.254   1.694   1.429 -0.6879 -1.1540  1.0324
    8DG      H8  169   5.352   1.830   1.494  0.1858 -0.1234  0.3541
    8DG      O9  170   5.469   1.184   1.799  0.1241 -0.6599 -0.4335
    8DG     O10  171   5.403   1.637   1.558  0.3941  0.1507  0.0434
    8DG     C11  172   5.609   1.204   1.783  0.1441  0.1930 -0.0328
    8DG     C12  173   5.541   1.651   1.586  0.0035 -0.3805  0.7534
    8DG     H13  174   5.665   1.167   1.697 -0.0648  2.0811 -1.0324
    8DG     H14  175   5.661   1.152   1.863  0.3246  1.1431  0.4807
    8DG     H15  176   5.557   1.758   1.602  0.4129 -0.1574 -0.8852
    8DG     H16  177   5.580   1.635   1.486 -3.6694  0.0636 -0.9340
    8DG     C17  178   5.628   1.352   1.789 -0.1280 -0.3781  0.6901
    8DG     C18  179   5.598   1.564   1.702  0.2270 -0.0922  0.2978
    8DG     O19  180   5.566   1.428   1.683  0.1422  0.4623  0.2123
    8DG     H20  181   5.736   1.364   1.792 -0.3369  2.2718 -0.1883
    8DG     H21  182   5.596   1.397   1.883  0.1853  0.2120  0.5178
    8DG     H22  183   5.707   1.564   1.711  0.1963  0.8548  0.8883
    8DG     H23  184   5.559   1.600   1.797 -0.3318 -2.9769  1.2495
    9DG      C1  185   3.610   2.530   1.431  0.1215 -0.5282 -0.0882
    9DG      C2  186   4.169   1.943   1.230  0.3447 -0.5943  0.3913
    9DG      H3  187   3.685   2.606   1.409 -0.2340  0.3623  1.6514
    9DG      H4  188   3.577   2.543   1.533  0.7872  0.7496 -0.0122
    9DG      H5  189   3.524   2.559   1.370  1.7008  2.9765 -0.9004
    9DG      H6  190   4.182   1.856   1.165  2.9852 -0.4389  0.6104
    9DG      H7  191   4.234   2.018   1.184 -3.4387  2.5492 -0.3687
    9DG      H8  192   4.205   1.919   1.329  2.9858 -2.2369 -0.8595
    9DG      O9  193   3.654   2.400   1.396  0.2720  0.3708  0.2208
    9DG     O10  194   4.045   2.015   1.231 -0.0129 -0.0462 -0.2136
    9DG     C11  195   3.794   2.387   1.437  0.9285 -0.2293  0.0442
    9DG     C12  196   3.954   1.973   1.333 -0.2566 -0.1685  0.0580
    9DG     H13  197   3.803   2.424   1.539 -1.4909 -0.1286  0.2896
    9DG     H14  198   3.866   2.436   1.372 -0.3364  1.5631 -0.0727
    9DG     H15  199   3.979   1.975   1.440  0.0059  0.6112 -0.0071
    9DG     H16  200   3.945   1.866   1.314 -0.1045 -0.2547  0.4564
    9DG     C17  201   3.837   2.237   1.444  0.0743  0.2972  0.1275
    9DG     C18  202   3.815   2.045   1.315 -0.2998  0.0540  0.0473
    9DG     O19  203   3.834   2.185   1.315 -0.5037  0.0935  0.5216
    9DG     H20  204   3.770   2.184   1.512 -1.2641  1.4238 -0.2616
    9DG     H21  205   3.935   2.229   1.490  0.8773  0.4950 -1.5002
    9DG     H22  206   3.783   2.017   1.215 -2.9576 -1.9186  1.3273
    9DG     H23  207   3.742   2.008   1.387  0.1218 -0.9336 -0.0057
   10DG      C1  208   2.520   2.982   3.378  0.3933  0.4243 -0.4134
   10DG      C2  209   2.294   3.181   3.976  0.8642 -0.9672 -0.0766
   10DG      H3  210   2.624   2.973   3.408  1.1421  2.6035 -2.1453
   10DG      H4  211   2.512   2.996   3.270 -1.1618  0.9670 -0.2555
   10DG      H5  212   2.461   2.894   3.405  0.3255  0.8528  0.8996
   10DG      H6  213   2.192   3.145   3.988 -1.4224  4.1337 -1.3605
   10DG      H7  214   2.355   3.094   3.999 -0.5311 -2.0968 -0.5338
   10DG      H8  215   2.315   3.261   4.047  0.3619 -1.6998  0.9112
   10DG      O9  216   2.472   3.102   3.437 -0.1943  0.2903  0.3692
   10DG     O10  217   2.330   3.228   3.849 -0.2979  0.0138 -0.5258
   10DG     C11  218   2.344   3.138   3.382 -0.3177  0.2839 -0.1205
   10DG     C12  219   2.258   3.342   3.811 -0.5103 -0.5085  0.2335
   10DG     H13  220   2.264   3.069   3.411  1.9843 -2.2478  0.6544
   10DG     H14  221   2.340   3.152   3.274 -0.4849  1.5598  0.0428
   10DG     H15  222   2.297   3.424   3.872 -2.4320  0.2452  0.4914
   10DG     H16  223   2.154   3.320   3.834 -0.5467 -1.3445 -0.7024
   10DG     C17  224   2.309   3.275   3.443 -0.2919 -0.0388  0.2362
   10DG     C18  225   2.277   3.363   3.658 -0.6908 -0.1715 -0.4467
   10DG     O19  226   2.293   3.243   3.584  0.3896  0.1612 -0.0523
   10DG     H20  227   2.218   3.309   3.393  1.1558  2.0411 -1.1382
   10DG     H21  228   2.380   3.353   3.417 -1.7835  0.0945 -4.4086
   10DG     H22  229   2.199   3.423   3.613 -0.8243  0.3387  0.4471
   10DG     H23  230   2.363   3.429   3.655 -1.4795  0.9010  0.0012
   11DG      C1  231   2.293   1.167   4.365  1.2172 -0.0524  0.0684
   11DG      C2  232   2.749   0.606   4.206  0.5903 -0.1516  0.0221
   11DG      H3  233   2.285   1.194   4.470 -1.4897 -1.6163  0.3662
   11DG      H4  234   2.260   1.064   4.353 -0.4124  0.5967 -1.5095
   11DG      H5  235   2.232   1.229   4.299  1.5335 -0.1779 -0.3430
   11DG      H6  236   2.734   0.543   4.294 -0.6688 -0.0283 -0.0858
   11DG      H7  237   2.728   0.552   4.114  1.2554  1.7772 -1.3392
   11DG      H8  238   2.855   0.625   4.221  1.3705 -2.5357 -1.9300
   11DG      O9  239   2.415   1.164   4.299  0.9052  0.9624 -0.0337
   11DG     O10  240   2.664   0.721   4.224  0.1062  0.1384 -0.4478
   11DG     C11  241   2.516   1.143   4.397  0.3557  0.2736  0.7961
   11DG     C12  242   2.698   0.831   4.141 -0.3565  0.7294 -0.7240
   11DG     H13  243   2.497   1.050   4.450 -1.2416  0.2115  0.1686
   11DG     H14  244   2.521   1.234   4.457  3.7388  1.7567 -1.4302
   11DG     H15  245   2.659   0.806   4.042 -2.3428  2.4593 -0.4658
   11DG     H16  246   2.803   0.857   4.139 -0.6726  2.3332  0.8793
   11DG     C17  247   2.655   1.149   4.326  0.1140 -0.3198 -0.7539
   11DG     C18  248   2.616   0.959   4.184 -0.5092  0.0832  0.3402
   11DG     O19  249   2.688   1.020   4.291  0.0950  0.0739  0.0191
   11DG     H20  250   2.734   1.166   4.398 -1.4657 -3.1531  1.8947
   11DG     H21  251   2.652   1.217   4.241  0.6301 -0.1036 -0.6024
   11DG     H22  252   2.620   1.018   4.091  0.3785  0.1758  0.4309
   11DG     H23  253   2.519   0.935   4.227 -0.6602  0.9506  0.5034
   12DG      C1  254   4.883   0.772   3.502  0.2525  0.2405 -0.0787
   12DG      C2  255   5.568   0.884   3.816  0.0911 -0.5528  0.0742
   12DG      H3  256   4.781   0.775   3.540  0.5031  2.5090  0.6148
   12DG      H4  257   4.931   0.674   3.501  1.0565  0.6042  0.5875
   12DG      H5  258   4.884   0.818   3.404  0.5479 -0.2864 -0.3263
   12DG      H6  259   5.554   0.777   3.829 -2.2226 -0.3798 -0.6262
   12DG      H7  260   5.647   0.892   3.741 -0.5959 -0.9986 -0.7074
   12DG      H8  261   5.593   0.934   3.910  0.1163  0.7470 -0.6001
   12DG      O9  262   4.960   0.861   3.583 -0.3308 -0.0202  0.1302
   12DG     O10  263   5.446   0.945   3.769  0.1465  0.4739  0.9098
   12DG     C11  264   5.100   0.874   3.552  0.2532  0.5650 -0.1308
   12DG     C12  265   5.337   0.901   3.853 -0.0845 -0.0777 -0.0013
   12DG     H13  266   5.121   0.896   3.447 -0.0189  2.0726  0.0980
   12DG     H14  267   5.155   0.786   3.583  1.7805  1.5892  0.1485
   12DG     H15  268   5.363   0.895   3.959 -1.3535  0.2357  0.3443
   12DG     H16  269   5.298   0.806   3.817 -0.6769 -0.3413  1.2644
   12DG     C17  270   5.148   0.997   3.623 -0.2958  0.1325  0.1326
   12DG     C18  271   5.223   1.002   3.854  0.2919  0.2264 -0.1042
   12DG     O19  272   5.112   0.982   3.761 -0.3351 -0.0135  0.2215
   12DG     H20  273   5.100   1.091   3.595 -0.7691  1.1469  3.7968
   12DG     H21  274   5.256   0.997   3.612 -0.4731 -0.7714 -2.3465
   12DG     H22  275   5.179   1.013   3.953  1.5748  0.3443  0.4737
   12DG     H23  276   5.259   1.103   3.831  0.9985 -0.3025 -1.4571
   13DG      C1  277   4.888   5.095   1.666  0.9245  0.3095 -0.1614
   13DG      C2  278   4.491   5.583   1.441 -0.1503  0.0256 -0.4659
   13DG      H3  279   4.826   5.027   1.608 -0.1746  0.5235  0.7167
   13DG      H4  280   4.928   5.036   1.749 -0.2240  1.2665  1.1247
   13DG      H5  281   4.960   5.125   1.590  0.8240  0.3438 -0.2439
   13DG      H6  282   4.444   5.680   1.423  1.4283  1.1827  1.3568
   13DG      H7  283   4.569   5.547   1.373 -1.6041  0.3575 -2.4202
   13DG      H8  284   4.413   5.509   1.426 -1.5819  1.4518 -0.2961
   13DG      O9  285   4.803   5.194   1.723 -0.0974 -0.2120 -0.1389
   13DG     O10  286   4.544   5.559   1.567  0.3311 -0.5860 -0.3325
   13DG     C11  287   4.865   5.264   1.823 -0.1666  0.0046  0.2778
   13DG     C12  288   4.644   5.646   1.615  0.5327 -0.3280 -0.1282
   13DG     H13  289   4.965   5.289   1.788 -1.1982  1.7740 -1.6383
   13DG     H14  290   4.885   5.197   1.907 -0.7519 -3.8171 -2.4101
   13DG     H15  291   4.595   5.740   1.643  0.7981 -0.3041  0.2602
   13DG     H16  292   4.721   5.669   1.542  0.1017  1.1948 -0.1305
   13DG     C17  293   4.782   5.394   1.847 -0.3517  0.4520  0.1421
   13DG     C18  294   4.710   5.580   1.739 -0.1464 -0.0771 -0.0722
   13DG     O19  295   4.765   5.453   1.721 -0.6505  0.5625  0.1219
   13DG     H20  296   4.844   5.459   1.909 -1.3048  1.5890 -0.0731
   13DG     H21  297   4.685   5.380   1.895 -0.5480  1.0016 -0.0865
   13DG     H22  298   4.797   5.640   1.768  0.3423 -0.5234 -0.5835
   13DG     H23  299   4.647   5.585   1.827  2.0162  0.4618  1.5460
   14DG      C1  300   2.654   2.593   0.377  0.0990 -0.3052  0.1001
   14DG      C2  301   2.239   2.898   0.764 -0.2809  0.5043 -0.0630
   14DG      H3  302   2.668   2.533   0.287 -1.3158 -0.7193  0.1366
   14DG      H4  303   2.651   2.533   0.468  1.1820 -0.5137  0.0125
   14DG      H5  304   2.736   2.664   0.385 -0.0348 -0.0672 -0.5279
   14DG      H6  305   2.131   2.901   0.776 -0.4620 -1.1523 -0.9961
   14DG      H7  306   2.265   2.807   0.819 -0.8892 -0.9946 -2.1061
   14DG      H8  307   2.286   2.970   0.831 -2.0220  0.6217  1.0862
   14DG      O9  308   2.537   2.669   0.361  0.2445 -0.2440  0.0242
   14DG     O10  309   2.278   2.888   0.628  0.0471  0.2627  0.0457
   14DG     C11  310   2.536   2.758   0.252 -0.4618  0.0389  0.3378
   14DG     C12  311   2.246   3.003   0.555 -0.3838  0.0587  0.0648
   14DG     H13  312   2.550   2.706   0.157 -1.9229  4.1175 -2.3949
   14DG     H14  313   2.619   2.828   0.254 -0.0182 -0.4835  2.2972
   14DG     H15  314   2.305   3.083   0.602  1.1186 -0.9194 -0.1055
   14DG     H16  315   2.142   3.022   0.582 -0.8316 -1.7436 -0.3404
   14DG     C17  316   2.408   2.841   0.261 -0.2275 -0.8839  0.0842
   14DG     C18  317   2.274   2.975   0.408 -0.3002 -0.3485  0.0645
   14DG     O19  318   2.386   2.892   0.393 -0.1650  0.0824  0.3236
   14DG     H20  319   2.327   2.772   0.238 -0.0609 -1.2825  0.6701
   14DG     H21  320   2.422   2.917   0.184  1.4971 -2.1063 -0.8656
   14DG     H22  321   2.186   2.927   0.364  0.6527 -2.3373  0.2233
   14DG     H23  322   2.294   3.071   0.361  1.8959 -0.9290 -0.2805
   15DG      C1  323   4.436   3.998   3.980 -0.2809  0.2998 -0.3419
   15DG      C2  324   4.514   4.513   3.560  0.2277 -0.2854 -0.5824
   15DG      H3  325   4.510   3.952   3.915  0.7894  0.4286  0.7369
   15DG      H4  326   4.358   3.929   4.015 -2.3271  2.2142 -0.9187
   15DG      H5  327   4.490   4.041   4.065 -0.4109  3.4091 -1.7111
   15DG      H6  328   4.581   4.437   3.521  1.6505  0.3180  0.5851
   15DG      H7  329   4.483   4.586   3.486 -0.2828  0.2262  0.1229
   15DG      H8  330   4.562   4.568   3.642 -1.3420  2.1279 -1.1926
   15DG      O9  331   4.368   4.095   3.911  0.2468 -0.0032 -0.4255
   15DG     O10  332   4.405   4.436   3.610 -0.1321  0.4842  0.1601
   15DG     C11  333   4.269   4.151   3.991  0.5645 -0.0668  0.6595
   15DG     C12  334   4.302   4.514   3.664  0.0570 -0.2564  0.2373
   15DG     H13  335   4.303   4.212   4.075 -1.9142  0.7795  1.1438
   15DG     H14  336   4.190   4.079   4.014 -1.9122  2.3446  0.3017
   15DG     H15  337   4.239   4.558   3.587 -0.5871 -1.2221  0.1986
   15DG     H16  338   4.327   4.590   3.738 -0.0798 -0.3228  0.3523
   15DG     C17  339   4.182   4.243   3.892  0.5648 -0.5373 -0.0155
   15DG     C18  340   4.205   4.425   3.728  0.4381  0.1215  0.1663
   15DG     O19  341   4.267   4.347   3.834  0.3977  0.0704  0.4906
   15DG     H20  342   4.103   4.290   3.950 -0.4387 -1.7137 -0.3793
   15DG     H21  343   4.142   4.193   3.804 -1.4582  0.7973  0.0766
   15DG     H22  344   4.141   4.488   3.790  0.9549 -0.0600  0.9044
   15DG     H23  345   4.151   4.363   3.656  1.4689  0.0399 -0.5493
   16DG      C1  346   3.095   4.592   3.059  0.0877  0.9634 -0.3767
   16DG      C2  347   2.947   4.443   2.418  0.0627  0.0836  0.5303
   16DG      H3  348   3.156   4.561   3.144 -1.3240 -0.8662  0.0382
   16DG      H4  349   3.019   4.660   3.097 -1.4989  0.2979 -2.1551
   16DG      H5  350   3.159   4.655   2.997  3.2793  0.5983  2.2687
   16DG      H6  351   2.921   4.530   2.479 -1.2320 -1.7765  2.7760
   16DG      H7  352   3.039   4.400   2.456 -0.9977 -1.4783  1.4002
   16DG      H8  353   2.964   4.492   2.322 -1.4590  1.6723  1.0196
   16DG      O9  354   3.028   4.485   2.994  0.2240  0.1210  0.1547
   16DG     O10  355   2.848   4.336   2.427  0.8179  0.0394  0.3146
   16DG     C11  356   2.966   4.532   2.876 -0.3070 -0.3376 -0.1482
   16DG     C12  357   2.835   4.274   2.551 -0.4201  0.1120  0.1944
   16DG     H13  358   3.050   4.562   2.814  0.4375 -0.9918  0.5213
   16DG     H14  359   2.898   4.614   2.900  0.9809  0.1492  2.1983
   16DG     H15  360   2.931   4.256   2.599 -0.6392 -0.6775  0.3563
   16DG     H16  361   2.771   4.188   2.529 -1.6289  0.8779  0.6416
   16DG     C17  362   2.891   4.421   2.820  0.4865 -0.1883  0.1618
   16DG     C18  363   2.748   4.366   2.640  0.6181  0.0843  0.1029
   16DG     O19  364   2.828   4.465   2.699 -0.1817  0.3225 -0.3480
   16DG     H20  365   2.810   4.390   2.886 -0.2120 -2.3453 -1.5685
   16DG     H21  366   2.964   4.340   2.813 -0.7242 -1.5451  2.3217
   16DG     H22  367   2.660   4.396   2.582  0.4198 -1.6826 -0.5741
   16DG     H23  368   2.692   4.308   2.714  0.9072 -0.0389  0.2246
   17DG      C1  369   0.121   0.881   1.412 -0.1654  0.0922 -0.3861
   17DG      C2  370   0.420   0.733   1.344  0.3521 -0.3393 -0.5348
   17DG      H3  371   0.185   0.896   1.499 -0.6376 -1.4822  0.2703
   17DG      H4  372   0.141   0.777   1.388 -3.5653 -1.4034  2.3200
   17DG      H5  373   0.019   0.864   1.447 -0.4372 -1.1479 -1.6893
   17DG      H6  374   0.507   0.672   1.318 -0.9879 -1.5161 -2.5423
   17DG      H7  375   0.396   0.726   1.450 -1.6837 -1.3351 -1.0122
   17DG      H8  376   0.340   0.679   1.294 -0.8585  2.7082 -2.1515
   17DG      O9  377   0.132   0.967   1.304 -0.3579 -0.2354  0.5611
   17DG     O10  378   0.422   0.868   1.298 -1.2073 -0.1973 -0.2386
   17DG     C11  379   0.147   1.107   1.336 -0.2502 -0.1623 -0.2390
   17DG     C12  380   0.505   0.945   1.383 -0.4432  0.1234 -0.7242
   17DG     H13  381   0.071   1.139   1.407  0.1571  0.3616 -0.0397
   17DG     H14  382   0.130   1.167   1.247  0.4532  1.5583  0.7435
   17DG     H15  383   0.601   0.894   1.388 -1.3372 -1.7654  5.6000
   17DG     H16  384   0.477   0.933   1.488 -0.6122 -0.5848 -0.8417
   17DG     C17  385   0.287   1.144   1.398  0.7278  0.0310  0.0211
   17DG     C18  386   0.504   1.090   1.345 -0.1301  0.3252  0.4650
   17DG     O19  387   0.381   1.130   1.297  0.3220 -0.3546 -0.0684
   17DG     H20  388   0.311   1.083   1.486  0.3108 -1.8012 -1.0685
   17DG     H21  389   0.291   1.249   1.426  1.0188  0.0268 -0.0066
   17DG     H22  390   0.535   1.151   1.431  1.5623  1.3790 -0.8337
   17DG     H23  391   0.585   1.101   1.273  1.5154  2.3941  2.4541
   18DG      C1  392   4.552   5.315   5.307  0.3329  0.0699  0.1295
   18DG      C2  393   4.061   5.749   4.814 -0.1125 -0.1084 -0.8600
   18DG      H3  394   4.572   5.213   5.339 -1.8808 -0.1022  1.1555
   18DG      H4  395   4.569   5.372   5.398  1.5301 -0.3407  0.1857
   18DG      H5  396   4.634   5.334   5.237  0.0594  0.7098 -0.0232
   18DG      H6  397   4.071   5.789   4.915 -0.9693  2.4533 -1.7009
   18DG      H7  398   4.137   5.789   4.747 -0.7707  2.0572 -0.4186
   18DG      H8  399   3.961   5.776   4.780 -0.0985 -0.6329 -1.3249
   18DG      O9  400   4.429   5.334   5.239  0.4475 -0.6167 -0.1840
   18DG     O10  401   4.065   5.603   4.812 -0.6563 -0.6061  0.0100
   18DG     C11  402   4.397   5.246   5.139  0.3639 -0.6946  0.2760
   18DG     C12  403   4.195   5.551   4.856  0.0744 -0.0438  0.4790
   18DG     H13  404   4.396   5.142   5.174  0.7819 -1.3535 -1.5460
   18DG     H14  405   4.477   5.248   5.065  0.4843 -1.1858  0.3878
   18DG     H15  406   4.222   5.605   4.947 -3.6244  1.5035  0.8070
   18DG     H16  407   4.277   5.565   4.785  0.4009 -0.2200  0.8212
   18DG     C17  408   4.267   5.275   5.072  0.5794 -0.1903 -0.0363
   18DG     C18  409   4.181   5.406   4.905  0.1132 -0.1453  0.5419
   18DG     O19  410   4.294   5.387   4.989  0.2128  0.1042  0.0202
   18DG     H20  411   4.190   5.305   5.143  1.7378  2.6985  0.1438
   18DG     H21  412   4.229   5.197   5.006 -0.3340 -0.0709  0.3356
   18DG     H22  413   4.091   5.400   4.966 -0.4002 -0.5782 -0.2445
   18DG     H23  414   4.181   5.335   4.822 -0.8123 -0.7838  1.0734
   19DG      C1  415   4.495   4.525   2.219 -0.2004  0.2824 -0.2216
   19DG      C2  416   4.965   3.919   2.228 -0.6503  0.4484 -0.1437
   19DG      H3  417   4.542   4.501   2.315  1.1181 -0.6208 -1.0502
   19DG      H4  418   4.387   4.509   2.222 -0.0050 -1.1729  0.0642
   19DG      H5  419   4.509   4.632   2.204  1.2696  0.1373 -0.0219
   19DG      H6  420   4.914   3.825   2.205 -0.8864  0.5881 -0.1900
   19DG      H7  421   5.072   3.900   2.226 -0.1258  2.9369  0.7816
   19DG      H8  422   4.933   3.958   2.324 -1.5604 -1.2501  0.2782
   19DG      O9  423   4.572   4.447   2.130  0.3430  0.0349 -0.2828
   19DG     O10  424   4.924   4.018   2.138  0.0359 -0.4099  1.0262
   19DG     C11  425   4.703   4.498   2.123 -0.3415 -1.0763  0.0506
   19DG     C12  426   4.787   4.045   2.133 -0.4571 -0.6184 -0.1395
   19DG     H13  427   4.757   4.509   2.217  0.2673 -1.9666 -0.1730
   19DG     H14  428   4.701   4.599   2.083 -1.4178 -0.9117  0.4780
   19DG     H15  429   4.748   4.067   2.233 -0.1098 -1.9230  0.3115
   19DG     H16  430   4.742   3.952   2.098 -0.4092 -0.3030 -1.0554
   19DG     C17  431   4.809   4.413   2.042  0.2692 -0.4668  0.6730
   19DG     C18  432   4.756   4.180   2.063  0.4895  0.7681  0.7212
   19DG     O19  433   4.843   4.286   2.103  0.5454 -0.6813 -0.7160
   19DG     H20  434   4.903   4.466   2.023 -0.0360 -0.8925 -2.5285
   19DG     H21  435   4.773   4.392   1.941 -1.2874  0.3250  1.0337
   19DG     H22  436   4.765   4.180   1.954 -0.4896  0.6650  0.6299
   19DG     H23  437   4.652   4.207   2.082  0.5481  3.2083 -1.7304
   20DG      C1  438   1.505   5.456   5.212 -0.0576 -0.1929  0.6000
   20DG      C2  439   1.096   5.336   5.648 -0.8466 -0.1597 -0.0105
   20DG      H3  440   1.473   5.552   5.252  1.1912 -0.4496  2.3395
   20DG      H4  441   1.419   5.434   5.149  0.7717 -1.0867 -0.2454
   20DG      H5  442   1.588   5.474   5.144 -0.6843 -0.7484 -0.3370
   20DG      H6  443   1.054   5.424   5.599 -2.2116 -0.5471  0.4064
   20DG      H7  444   1.007   5.278   5.672  0.2935 -1.3063  1.7547
   20DG      H8  445   1.136   5.368   5.745 -1.1413 -2.8717  1.0983
   20DG      O9  446   1.525   5.373   5.321  0.8687 -0.6463  0.0076
   20DG     O10  447   1.192   5.279   5.555  0.7307  0.4518 -1.1187
   20DG     C11  448   1.540   5.237   5.283  0.0731  0.0954 -0.6573
   20DG     C12  449   1.224   5.143   5.594 -0.2346 -0.7244  0.1392
   20DG     H13  450   1.627   5.229   5.218 -0.1399 -0.6916 -0.8533
   20DG     H14  451   1.445   5.222   5.232 -0.1286  2.6228 -1.1477
   20DG     H15  452   1.132   5.087   5.587 -2.3028  2.1147  2.0734
   20DG     H16  453   1.253   5.161   5.698 -0.5382 -0.2224  0.1435
   20DG     C17  454   1.547   5.145   5.408  0.3693 -0.1818  0.5716
   20DG     C18  455   1.329   5.086   5.501  0.1132 -0.1758 -0.4326
   20DG     O19  456   1.441   5.170   5.499  0.0833 -0.3540  1.3416
   20DG     H20  457   1.642   5.160   5.460  1.1381 -0.9636 -0.5624
   20DG     H21  458   1.546   5.044   5.369 -1.3202 -0.0516  0.1963
   20DG     H22  459   1.360   4.987   5.533  1.5819  0.1688 -0.7082
   20DG     H23  460   1.275   5.081   5.406 -1.3936 -2.2634  0.4740
   21DG      C1  461   5.009   2.230   4.197  0.1816  0.2457  0.6808
   21DG      C2  462   4.405   2.003   4.110 -0.2307  0.1621  0.2474
   21DG      H3  463   5.087   2.173   4.146 -0.1068  0.2404  0.2418
   21DG      H4  464   5.001   2.205   4.303 -1.0126  0.4797  0.6605
   21DG      H5  465   5.025   2.338   4.202  1.6455  0.2395 -1.9104
   21DG      H6  466   4.366   1.954   4.021 -0.1181 -0.6241  0.6260
   21DG      H7  467   4.473   1.940   4.167 -2.7385 -3.0946 -0.0833
   21DG      H8  468   4.322   2.007   4.180 -0.5600 -2.7229  0.1291
   21DG      O9  469   4.880   2.218   4.139  0.2656  0.2665  0.0510
   21DG     O10  470   4.478   2.128   4.097  0.5324 -0.0520 -0.9832
   21DG     C11  471   4.862   2.289   4.021  0.2570 -0.0766  0.9079
   21DG     C12  472   4.428   2.221   4.007 -0.3772 -0.7909  0.4602
   21DG     H13  473   4.921   2.252   3.936 -2.2922 -0.9472 -0.6054
   21DG     H14  474   4.898   2.391   4.030 -1.1396  0.5753 -0.4174
   21DG     H15  475   4.321   2.234   4.018 -0.3032  0.6008 -0.2695
   21DG     H16  476   4.445   2.192   3.904 -1.4949  0.4135 -0.0939
   21DG     C17  477   4.717   2.278   3.983 -0.0583 -0.2351 -0.7244
   21DG     C18  478   4.498   2.348   4.060 -1.0781  0.1118 -1.0024
   21DG     O19  479   4.635   2.324   4.093 -0.1002  0.4288 -0.6710
   21DG     H20  480   4.700   2.173   3.959 -1.6828  0.0626 -0.9827
   21DG     H21  481   4.695   2.340   3.897  1.7878  0.4044 -0.7911
   21DG     H22  482   4.481   2.424   3.984  0.2530  2.4915  0.9218
   21DG     H23  483   4.465   2.384   4.157  1.0245 -1.7137  0.4911
   22DG      C1  484   1.516   5.228   0.324 -0.2668 -0.6137 -0.4890
   22DG      C2  485   1.195   5.537  -0.175  0.5517  0.0791 -0.5567
   22DG      H3  486   1.572   5.168   0.253 -1.1964 -4.1903  1.5708
   22DG      H4  487   1.421   5.179   0.341  0.9650 -2.6650  1.0107
   22DG      H5  488   1.572   5.205   0.416  0.7793 -2.2487 -1.4786
   22DG      H6  489   1.090   5.523  -0.149  0.7205 -1.3564 -0.5473
   22DG      H7  490   1.191   5.612  -0.253 -0.1201  0.6643  0.0254
   22DG      H8  491   1.228   5.447  -0.226  1.4824  0.6567 -1.0000
   22DG      O9  492   1.496   5.361   0.285 -0.0155 -0.2155  0.0420
   22DG     O10  493   1.271   5.573  -0.059 -0.2045  0.7035 -0.4808
   22DG     C11  494   1.407   5.426   0.381 -0.1926  0.3030  0.4230
   22DG     C12  495   1.226   5.682   0.019 -0.6945 -0.3798 -0.8227
   22DG     H13  496   1.467   5.444   0.470 -1.5654 -0.4686  1.5531
   22DG     H14  497   1.320   5.367   0.411 -0.5356 -0.0238 -1.1321
   22DG     H15  498   1.124   5.671   0.054 -0.1087  1.5837  1.8282
   22DG     H16  499   1.226   5.771  -0.044  1.7051 -0.1533 -0.6145
   22DG     C17  500   1.382   5.567   0.332  0.2190 -0.5931  0.1541
   22DG     C18  501   1.315   5.686   0.145 -0.3351  0.2355 -0.7793
   22DG     O19  502   1.320   5.558   0.203 -0.4692 -0.4356 -0.0983
   22DG     H20  503   1.480   5.613   0.320 -0.6827  2.0871  2.1341
   22DG     H21  504   1.335   5.634   0.403 -1.8389 -2.5149  0.7168
   22DG     H22  505   1.417   5.718   0.126  0.9084 -2.7528  0.2824
   22DG     H23  506   1.284   5.762   0.216  1.6999  0.3676  0.0322
   23DG      C1  507   3.800   3.572   3.240 -0.0841 -0.3564  0.4135
   23DG      C2  508   4.223   3.845   3.691  0.5304 -0.0148  0.0171
   23DG      H3  509   3.758   3.614   3.149  0.6026 -0.0429  0.2354
   23DG      H4  510   3.730   3.497   3.275 -0.5560 -0.1126 -0.0032
   23DG      H5  511   3.902   3.536   3.223 -0.1581 -0.5725  0.4308
   23DG      H6  512   4.269   3.758   3.643  0.1064 -0.2796  0.0834
   23DG      H7  513   4.260   3.929   3.632 -1.3949  0.2213 -0.9215
   23DG      H8  514   4.237   3.865   3.797 -0.4688  1.6005 -0.1353
   23DG      O9  515   3.809   3.676   3.338  0.8298  0.5740 -0.9985
   23DG     O10  516   4.087   3.820   3.664 -0.2337 -0.0397 -0.2852
   23DG     C11  517   3.688   3.697   3.402 -0.3651  0.5962 -0.1917
   23DG     C12  518   3.995   3.928   3.690  0.0415  0.2754  0.5777
   23DG     H13  519   3.675   3.613   3.470  1.3196  1.2648  1.0249
   23DG     H14  520   3.607   3.710   3.330  2.2842 -5.0462 -4.9981
   23DG     H15  521   4.002   4.002   3.610  0.8966  2.6672  2.6851
   23DG     H16  522   4.027   3.965   3.788 -0.8773 -0.9214  1.3622
   23DG     C17  523   3.709   3.815   3.500  0.4254  0.4415  0.2291
   23DG     C18  524   3.841   3.877   3.685 -0.2524  0.2614 -0.0636
   23DG     O19  525   3.826   3.784   3.575 -0.1193 -0.3452 -0.2206
   23DG     H20  526   3.621   3.816   3.564 -1.3095  1.6951 -2.0289
   23DG     H21  527   3.715   3.911   3.448 -1.7754  1.1049  1.1028
   23DG     H22  528   3.822   3.824   3.779 -0.0488 -0.0554 -0.1964
   23DG     H23  529   3.776   3.964   3.678 -0.4174  0.1881  0.4627
   24DG      C1  530   3.027   5.404   0.910 -0.4936 -0.1720 -0.3923
   24DG      C2  531   3.399   5.262   1.438  0.2053 -0.2250  0.6475
   24DG      H3  532   3.114   5.377   0.850  1.2287  0.6680  1.5784
   24DG      H4  533   3.049   5.502   0.953 -1.0305 -1.0084  1.9151
   24DG      H5  534   2.939   5.418   0.847 -0.7752  0.6137  0.1667
   24DG      H6  535   3.455   5.193   1.500  0.5068  0.9091  1.6759
   24DG      H7  536   3.472   5.320   1.381  0.8983  0.1094  1.8413
   24DG      H8  537   3.359   5.341   1.501  1.3979  3.2701 -2.5914
   24DG      O9  538   3.006   5.306   1.012  0.2820  0.1105 -0.5247
   24DG     O10  539   3.293   5.196   1.363  0.2314 -0.8567 -0.1153
   24DG     C11  540   2.905   5.339   1.103  0.2553  0.2647 -0.5037
   24DG     C12  541   3.185   5.144   1.439  0.5681  0.8389  0.1093
   24DG     H13  542   2.806   5.343   1.058  0.3927  3.0650 -0.7311
   24DG     H14  543   2.939   5.423   1.164  1.8487 -0.7035  0.0321
   24DG     H15  544   3.163   5.190   1.535 -0.6175 -1.3703  0.9571
   24DG     H16  545   3.232   5.052   1.474  0.4072  1.6156  2.5305
   24DG     C17  546   2.904   5.230   1.208  0.0536  0.0966 -0.5345
   24DG     C18  547   3.047   5.118   1.360 -0.4234  0.0924  0.0200
   24DG     O19  548   3.028   5.239   1.279 -0.5477  0.4437  0.3303
   24DG     H20  549   2.901   5.136   1.154 -0.0105  0.7826 -1.7663
   24DG     H21  550   2.831   5.253   1.286  1.4300  2.8939  0.0832
   24DG     H22  551   3.055   5.036   1.288  4.1298  0.2439  0.0782
   24DG     H23  552   2.963   5.101   1.428  0.1253  1.7604  1.1740
   25DG      C1  553   4.117   1.783   3.066  1.0716 -0.4702  0.1636
   25DG      C2  554   4.008   2.557   3.188 -0.3906  0.1479 -0.2231
   25DG      H3  555   4.023   1.730   3.053 -0.6009  1.6854  2.4686
   25DG      H4  556   4.125   1.793   3.174  1.5377 -1.5653  0.2406
   25DG      H5  557   4.197   1.718   3.032  0.0946 -0.6848 -1.8751
   25DG      H6  558   4.003   2.643   3.120 -0.4182 -0.3072 -0.8021
   25DG      H7  559   3.904   2.541   3.213  0.5951 -1.9129  3.1701
   25DG      H8  560   4.055   2.580   3.284 -0.6708 -1.0920  0.2199
   25DG      O9  561   4.095   1.903   2.990 -0.1131  0.2260  0.1473
   25DG     O10  562   4.063   2.443   3.120  0.0617 -0.2753 -0.3159
   25DG     C11  563   4.212   1.989   2.978 -0.3665  0.8285 -0.1025
   25DG     C12  564   4.031   2.431   2.979  0.0887  0.1626 -0.3568
   25DG     H13  565   4.290   1.924   2.939 -0.5523  0.0085  0.8548
   25DG     H14  566   4.250   2.017   3.076  0.2844 -1.9547  0.5075
   25DG     H15  567   4.031   2.525   2.924  2.1680  1.2042  1.2514
   25DG     H16  568   3.931   2.388   2.982  0.2332 -0.1087  1.6069
   25DG     C17  569   4.204   2.110   2.885  0.3453  0.0106  0.2672
   25DG     C18  570   4.141   2.340   2.909 -0.0175 -1.2146 -0.2394
   25DG     O19  571   4.142   2.210   2.966  0.4466  0.3245  0.3973
   25DG     H20  572   4.137   2.090   2.801  0.8666  0.9891 -0.4162
   25DG     H21  573   4.302   2.143   2.851  0.1236 -0.5424 -0.9537
   25DG     H22  574   4.118   2.328   2.803 -0.7373 -1.2398 -0.0891
   25DG     H23  575   4.240   2.380   2.931 -0.0523 -0.8622 -0.7214
   26DG      C1  576   1.604   3.906   2.789  0.0551  0.4915  0.5915
   26DG      C2  577   1.445   3.274   2.507  0.3181 -0.2069 -0.4122
   26DG      H3  578   1.704   3.864   2.807 -0.3775 -0.7646  0.1490
   26DG      H4  579   1.552   3.901   2.884  0.0172 -1.2080  0.5227
   26DG      H5  580   1.621   4.012   2.772 -0.6133  0.9673  2.5923
   26DG      H6  581   1.370   3.218   2.450  1.1317  1.0869 -2.9071
   26DG      H7  582   1.549   3.255   2.481  0.8566  2.9989 -1.0823
   26DG      H8  583   1.434   3.262   2.614 -2.0843  2.3391 -0.2452
   26DG      O9  584   1.541   3.846   2.671 -0.0006 -0.2633  1.0516
   26DG     O10  585   1.428   3.410   2.478  0.3647  0.1582  0.0224
   26DG     C11  586   1.620   3.858   2.549  0.1565 -0.5095  0.2690
   26DG     C12  587   1.458   3.447   2.339  0.2928  0.7309  0.4018
   26DG     H13  588   1.725   3.831   2.561  0.3487  0.3431  0.5227
   26DG     H14  589   1.633   3.963   2.523 -1.8227 -0.4938 -0.8854
   26DG     H15  590   1.380   3.409   2.273  1.4552 -1.0888  0.0081
   26DG     H16  591   1.555   3.410   2.307  0.9623  0.4338  2.5764
   26DG     C17  592   1.551   3.788   2.424  0.2205 -0.5400 -0.2996
   26DG     C18  593   1.457   3.595   2.324  0.0226 -0.0984 -0.5375
   26DG     O19  594   1.536   3.650   2.435 -0.2373  0.1214 -0.5382
   26DG     H20  595   1.610   3.805   2.334 -0.9931 -0.0271 -1.0124
   26DG     H21  596   1.449   3.824   2.418 -0.7523 -2.0834  3.6007
   26DG     H22  597   1.496   3.620   2.225 -1.9354 -1.5126 -1.7291
   26DG     H23  598   1.356   3.635   2.328  0.1942  0.2583  3.1685
   27DG      C1  599   1.437   2.426   2.526  0.1273 -0.5327 -0.1083
   27DG      C2  600   1.746   1.971   2.834 -0.8071  0.2094  0.0320
   27DG      H3  601   1.498   2.516   2.536 -1.4659  0.3793  2.8520
   27DG      H4  602   1.334   2.450   2.500 -0.7549 -1.4509  2.2311
   27DG      H5  603   1.473   2.355   2.452  1.1344  1.8279 -2.0406
   27DG      H6  604   1.741   1.909   2.744  1.9524  0.6319 -0.5327
   27DG      H7  605   1.841   2.022   2.815 -0.1553 -0.5476  1.1568
   27DG      H8  606   1.769   1.893   2.907 -0.4961 -1.1472 -1.4359
   27DG      O9  607   1.428   2.363   2.650 -0.3638 -0.5451  0.3304
   27DG     O10  608   1.627   2.052   2.857  0.1111  0.2931  0.2956
   27DG     C11  609   1.389   2.449   2.748  0.9396  0.2078 -0.0205
   27DG     C12  610   1.622   2.111   2.983 -0.3093  0.6279  0.9678
   27DG     H13  611   1.291   2.495   2.733  0.0701 -0.9407  1.7268
   27DG     H14  612   1.456   2.533   2.766 -0.5217  1.2263  0.8934
   27DG     H15  613   1.714   2.170   2.993 -0.6375  1.6855 -1.5619
   27DG     H16  614   1.625   2.030   3.056 -0.5836  1.2453  1.6726
   27DG     C17  615   1.387   2.369   2.880  0.5016 -0.1058 -0.7209
   27DG     C18  616   1.499   2.195   3.002  0.0352 -0.0097 -0.0776
   27DG     O19  617   1.498   2.280   2.894  0.6502 -0.2733  0.4864
   27DG     H20  618   1.299   2.304   2.878  0.1319  0.4023 -1.0640
   27DG     H21  619   1.380   2.435   2.966  1.4039  1.1924 -1.6169
   27DG     H22  620   1.408   2.135   3.000  0.3517 -0.5697 -3.2230
   27DG     H23  621   1.504   2.253   3.094  1.2247 -1.8984  1.1150
   28DG      C1  622   0.821   3.260   2.605  0.3703  0.6746 -0.1528
   28DG      C2  623   0.435   2.932   2.873  0.1120  0.9213 -0.4194
   28DG      H3  624   0.763   3.325   2.670  0.8451  0.6499  0.2988
   28DG      H4  625   0.768   3.257   2.509 -1.7362  1.0120  0.9435
   28DG      H5  626   0.920   3.299   2.582 -0.0133  1.6074 -0.2629
   28DG      H6  627   0.394   3.013   2.813  0.5339  2.3427  1.1523
   28DG      H7  628   0.361   2.902   2.947  0.0849  1.0172 -0.4078
   28DG      H8  629   0.521   2.982   2.918  0.0781  0.8687 -0.2936
   28DG      O9  630   0.827   3.127   2.653 -0.1800  0.0884  0.6245
   28DG     O10  631   0.474   2.816   2.801 -0.4059  0.3986 -0.1303
   28DG     C11  632   0.886   3.130   2.781 -0.2746  0.8944 -0.2544
   28DG     C12  633   0.570   2.845   2.699 -0.0160 -0.4300 -0.0631
   28DG     H13  634   0.829   3.201   2.841  0.4896  0.4167  1.0761
   28DG     H14  635   0.991   3.160   2.774  1.1305 -2.8184  2.0414
   28DG     H15  636   0.547   2.936   2.643  2.5817 -0.6837 -1.6790
   28DG     H16  637   0.532   2.763   2.639 -0.5252 -0.1144 -0.1864
   28DG     C17  638   0.888   2.984   2.833  0.5030  0.6658  0.0447
   28DG     C18  639   0.721   2.844   2.732  0.0367  1.1602  0.5151
   28DG     O19  640   0.754   2.938   2.829 -0.4296  0.2794 -0.1882
   28DG     H20  641   0.917   2.975   2.937 -1.9985  0.2968  0.7654
   28DG     H21  642   0.949   2.913   2.777 -0.1519 -0.1651  0.3496
   28DG     H22  643   0.742   2.739   2.752  0.3268  0.8348 -1.3064
   28DG     H23  644   0.776   2.874   2.642  1.3306 -0.3915  0.7413
   29DG      C1  645   1.462   0.722   3.157  0.1847  0.2778 -0.3345
   29DG      C2  646   1.966   0.281   3.006  0.5045  0.1519  0.0521
   29DG      H3  647   1.411   0.775   3.236 -0.5487  0.1843 -0.7334
   29DG      H4  648   1.383   0.699   3.085 -1.5362  1.8136  0.9774
   29DG      H5  649   1.530   0.791   3.106  0.4768 -0.8603 -1.5521
   29DG      H6  650   2.045   0.338   3.055  1.0885  0.0387 -0.7352
   29DG      H7  651   1.988   0.175   2.998 -1.3991 -0.1731 -1.6015
   29DG      H8  652   1.953   0.324   2.907  0.1046  0.1527  0.1032
   29DG      O9  653   1.533   0.609   3.195  0.0447  0.6947 -0.1724
   29DG     O10  654   1.849   0.312   3.077  0.3917  0.0543 -0.5304
   29DG     C11  655   1.445   0.505   3.216 -0.4905 -0.1134 -0.1567
   29DG     C12  656   1.844   0.251   3.201 -0.2572 -0.6246 -0.6901
   29DG     H13  657   1.387   0.472   3.130 -0.2771 -0.9339 -0.0002
   29DG     H14  658   1.375   0.536   3.294 -0.3429 -0.0146 -0.0645
   29DG     H15  659   1.938   0.249   3.255  0.0940 -1.8206 -1.3212
   29DG     H16  660   1.841   0.147   3.169 -0.6630 -0.6919 -0.4385
   29DG     C17  661   1.504   0.383   3.298 -0.1927  0.0632 -0.2028
   29DG     C18  662   1.731   0.306   3.291 -0.1050  0.2421 -0.8119
   29DG     O19  663   1.612   0.324   3.228 -0.6332  0.1296  0.3034
   29DG     H20  664   1.430   0.303   3.305  0.7297 -0.7987 -0.1463
   29DG     H21  665   1.534   0.414   3.399 -2.2574 -0.9915  0.8014
   29DG     H22  666   1.716   0.232   3.370  2.4058  1.3897  0.8648
   29DG     H23  667   1.758   0.401   3.336  0.8705 -0.7690  0.8264
   30DG      C1  668   0.953   0.067   0.374 -0.3812 -0.0610 -0.1161
   30DG      C2  669   0.580  -0.106   0.440  0.2329 -0.1546 -0.1340
   30DG      H3  670   1.020   0.108   0.298  0.2812 -0.2950  0.3332
   30DG      H4  671   0.866   0.020   0.328 -0.5576 -0.7780  0.9302
   30DG      H5  672   1.004  -0.008   0.434  1.2491  1.1473  0.0598
   30DG      H6  673   0.493  -0.158   0.479 -0.5821  0.9854 -0.3803
   30DG      H7  674   0.577  -0.083   0.334 -0.9288 -0.2192 -0.1185
   30DG      H8  675   0.666  -0.168   0.469  1.6031  2.4316  1.7152
   30DG      O9  676   0.917   0.177   0.458 -0.1939 -0.0235  0.0656
   30DG     O10  677   0.584   0.014   0.519 -0.3287 -0.4756  0.1639
   30DG     C11  678   0.878   0.299   0.392  0.4351 -0.2684  0.7661
   30DG     C12  679   0.484   0.114   0.484  0.1795  0.3483  0.2240
   30DG     H13  680   0.930   0.308   0.296  1.3465 -2.3266  0.9919
   30DG     H14  681   0.906   0.378   0.461 -1.7753 -0.1936  1.6569
   30DG     H15  682   0.401   0.104   0.553  0.9013  0.8437  1.1999
   30DG     H16  683   0.444   0.096   0.384  1.6722  0.0647 -0.3610
   30DG     C17  684   0.727   0.292   0.360 -0.0866  0.3017 -0.0467
   30DG     C18  685   0.524   0.266   0.489  0.0456 -0.3210  0.1839
   30DG     O19  686   0.667   0.276   0.490 -0.0592  0.3850 -0.2730
   30DG     H20  687   0.695   0.203   0.305 -1.8261  0.7532  0.1666
   30DG     H21  688   0.698   0.371   0.292  0.6401  1.1706  0.6330
   30DG     H22  689   0.484   0.325   0.406 -0.6753  0.9462  1.3889
   30DG     H23  690   0.488   0.308   0.583  1.6401  0.3898  0.4995
   31DG      C1  691   2.727   2.532   2.454 -0.0151  0.5787 -0.1367
   31DG      C2  692   2.650   1.862   2.646 -0.3949 -1.2082 -0.0994
   31DG      H3  693   2.784   2.625   2.459 -1.7361  1.7550 -1.4131
   31DG      H4  694   2.641   2.534   2.522 -0.8397 -0.7529 -1.0893
   31DG      H5  695   2.681   2.523   2.356 -0.6218 -2.6153  0.3362
   31DG      H6  696   2.590   1.828   2.562  0.6036 -1.2934 -0.7955
   31DG      H7  697   2.704   1.775   2.684  0.8324 -0.9389 -1.1687
   31DG      H8  698   2.586   1.889   2.730  0.8058  0.0488  0.4550
   31DG      O9  699   2.795   2.414   2.493  0.2465 -0.0994  0.3933
   31DG     O10  700   2.751   1.968   2.614 -0.2163 -0.3449 -0.2642
   31DG     C11  701   2.902   2.382   2.397  0.1950 -0.1052  0.0143
   31DG     C12  702   2.827   1.924   2.506 -0.0892  0.3690  0.0254
   31DG     H13  703   2.978   2.460   2.408 -1.5164  1.4528  1.4491
   31DG     H14  704   2.877   2.384   2.291  1.9784  0.8062 -0.4326
   31DG     H15  705   2.761   1.909   2.420  0.1684 -0.3421 -0.0532
   31DG     H16  706   2.874   1.829   2.530 -0.6338  0.4948  1.6999
   31DG     C17  707   2.970   2.251   2.431 -0.5302 -0.5851  0.3364
   31DG     C18  708   2.935   2.023   2.466 -0.1484  0.6125  0.3533
   31DG     O19  709   2.880   2.144   2.416  0.0146  0.4159  0.1849
   31DG     H20  710   3.001   2.262   2.535  0.3517 -2.1693  0.2808
   31DG     H21  711   3.052   2.221   2.366  0.2642 -1.2720  1.6156
   31DG     H22  712   3.007   2.028   2.548 -0.2486  2.2108  0.3631
   31DG     H23  713   2.996   1.980   2.387  2.1914 -0.0362  2.3646
   32DG      C1  714   4.162   0.638   1.261  0.0286 -0.5298  0.3767
   32DG      C2  715   3.757   1.278   1.155 -0.8389  0.3677 -0.3637
   32DG      H3  716   4.183   0.554   1.327 -1.2410 -0.1485  1.2938
   32DG      H4  717   4.253   0.670   1.210 -0.9522  1.3828 -0.2481
   32DG      H5  718   4.090   0.615   1.181  1.5400 -0.4994 -1.0534
   32DG      H6  719   3.745   1.375   1.203 -0.8480  0.3410 -0.3126
   32DG      H7  720   3.859   1.281   1.116 -0.9204  0.1211 -0.5974
   32DG      H8  721   3.686   1.265   1.073 -2.2953  0.8242  0.7760
   32DG      O9  722   4.108   0.748   1.326  0.3376 -0.4848  0.0326
   32DG     O10  723   3.749   1.168   1.241 -0.3000  0.2663  0.2584
   32DG     C11  724   3.990   0.716   1.403  0.4904 -0.3862  0.8950
   32DG     C12  725   3.857   1.176   1.334 -0.3695 -0.1927 -0.7782
   32DG     H13  726   4.001   0.643   1.483 -1.9727 -0.9032  0.8266
   32DG     H14  727   3.906   0.673   1.348  0.6637  2.1587 -1.5733
   32DG     H15  728   3.836   1.264   1.395 -1.6784 -2.4026  2.1273
   32DG     H16  729   3.950   1.186   1.277 -0.2224 -0.6794 -0.6229
   32DG     C17  730   3.929   0.840   1.464  0.1250 -0.0694 -0.5600
   32DG     C18  731   3.855   1.054   1.425  0.4904 -0.3415 -0.0023
   32DG     O19  732   3.896   0.944   1.359  0.0973  0.4933 -0.3486
   32DG     H20  733   4.001   0.876   1.538 -0.9837 -2.0943  1.6256
   32DG     H21  734   3.838   0.815   1.520  0.5156  1.6301  0.9429
   32DG     H22  735   3.923   1.072   1.508  2.8800 -0.7868 -1.7791
   32DG     H23  736   3.756   1.054   1.471  0.3496  0.1096 -0.2951
   33DG      C1  737   1.612   3.160   5.338  0.0680 -0.3830  0.0650
   33DG      C2  738   1.107   3.486   4.903 -0.1890  0.0079  0.0245
   33DG      H3  739   1.552   3.113   5.416  0.8235 -0.3963  0.6466
   33DG      H4  740   1.675   3.238   5.378 -0.8812 -0.9208  2.8115
   33DG      H5  741   1.676   3.082   5.296  0.3335 -0.1719  0.0795
   33DG      H6  742   1.052   3.407   4.852 -2.0743  1.9526 -1.1236
   33DG      H7  743   1.074   3.499   5.006  2.5679  0.7574  0.8973
   33DG      H8  744   1.091   3.580   4.850  0.7263  1.3459  1.9824
   33DG      O9  745   1.530   3.207   5.234  0.1711 -0.3295 -0.4262
   33DG     O10  746   1.247   3.473   4.912 -0.4110 -0.0114  0.2835
   33DG     C11  747   1.595   3.309   5.157  0.4340 -0.3375 -0.4812
   33DG     C12  748   1.314   3.405   4.798  0.2708  0.4574  0.0903
   33DG     H13  749   1.683   3.264   5.111  0.1962 -0.5811 -0.7029
   33DG     H14  750   1.632   3.383   5.228  1.7811 -0.0539 -1.4451
   33DG     H15  751   1.297   3.445   4.698  2.6228 -3.1415 -1.9967
   33DG     H16  752   1.279   3.302   4.800 -2.0317  1.1769 -0.4848
   33DG     C17  753   1.493   3.367   5.062  0.1699  0.1090 -0.9762
   33DG     C18  754   1.462   3.412   4.823  0.0230  0.1177 -0.4445
   33DG     O19  755   1.521   3.330   4.934 -0.2199 -0.8828 -0.3037
   33DG     H20  756   1.508   3.474   5.069  0.7518 -0.0415  0.3762
   33DG     H21  757   1.392   3.343   5.097  1.0501 -0.9191  1.0547
   33DG     H22  758   1.511   3.390   4.728 -3.2820  2.1556 -2.8165
   33DG     H23  759   1.484   3.518   4.840 -0.0170 -0.2008  1.8381
   34DG      C1  760   0.619   5.380   0.802 -0.2696 -0.4986 -0.2182
   34DG      C2  761   0.815   6.005   0.711  0.0892 -0.0771  0.1403
   34DG      H3  762   0.604   5.273   0.789  1.8308 -0.6186 -2.3762
   34DG      H4  763   0.540   5.417   0.736  1.2959  1.4220 -1.1272
   34DG      H5  764   0.617   5.400   0.909  1.7118 -2.5162  0.2620
   34DG      H6  765   0.746   6.023   0.629  0.4988  0.9790  0.0029
   34DG      H7  766   0.767   6.037   0.804 -1.9033  0.5613 -1.0521
   34DG      H8  767   0.896   6.078   0.703 -1.5331  1.8441  0.4447
   34DG      O9  768   0.754   5.409   0.763  0.2832  0.2176 -0.4251
   34DG     O10  769   0.866   5.873   0.711  0.5373  0.0583 -0.3239
   34DG     C11  770   0.846   5.383   0.861 -0.1204  0.1635 -0.3275
   34DG     C12  771   0.956   5.854   0.826 -0.2886  0.6204  0.3433
   34DG     H13  772   0.866   5.276   0.867 -1.7883 -0.1456  0.3609
   34DG     H14  773   0.809   5.395   0.963 -2.2589 -1.2846 -0.8623
   34DG     H15  774   0.895   5.876   0.913 -2.8773 -2.0914 -0.6181
   34DG     H16  775   1.040   5.923   0.829  1.1907 -1.0225 -0.8356
   34DG     C17  776   0.973   5.474   0.836  0.9974 -0.2826  0.2832
   34DG     C18  777   1.013   5.711   0.832 -0.0644  0.2416 -0.0760
   34DG     O19  778   0.919   5.604   0.837  0.3453 -0.3855  0.2614
   34DG     H20  779   1.016   5.447   0.739  0.5506 -1.8806  0.4983
   34DG     H21  780   1.043   5.457   0.918  1.7788  2.2156  0.2024
   34DG     H22  781   1.070   5.682   0.743  1.9973 -0.4961  1.3998
   34DG     H23  782   1.078   5.707   0.919  2.6535 -0.7652 -2.0027
   35DG      C1  783   0.256   1.991   2.353  0.1202  0.1062  0.4782
   35DG      C2  784   0.835   2.136   2.464 -0.1612 -0.3066  0.9240
   35DG      H3  785   0.243   2.027   2.251 -0.0302 -0.2226  0.3801
   35DG      H4  786   0.278   2.080   2.412  1.1302 -0.2520  0.6560
   35DG      H5  787   0.156   1.958   2.381  0.2616  0.3430  1.2855
   35DG      H6  788   0.810   2.225   2.407  2.0427  0.4536  1.0581
   35DG      H7  789   0.912   2.153   2.539 -0.0481  1.6136  0.4191
   35DG      H8  790   0.878   2.058   2.401  0.5013  0.0920  0.8797
   35DG      O9  791   0.356   1.891   2.370 -0.4995 -0.1178  0.5463
   35DG     O10  792   0.712   2.097   2.523 -0.1581  0.4671  0.3217
   35DG     C11  793   0.350   1.836   2.498 -0.6344  0.1886 -0.3641
   35DG     C12  794   0.740   2.022   2.642 -0.0532 -1.1293 -0.1180
   35DG     H13  795   0.262   1.773   2.509  1.6898 -2.9600  1.8304
   35DG     H14  796   0.337   1.913   2.574 -3.3169 -0.6927  0.1822
   35DG     H15  797   0.739   2.082   2.733  0.8884 -1.2185 -0.0332
   35DG     H16  798   0.839   1.977   2.651  0.9065  0.4905 -1.8662
   35DG     C17  799   0.477   1.763   2.540 -0.1121 -0.3656  0.1828
   35DG     C18  800   0.624   1.911   2.660 -0.1350  0.3329 -0.0851
   35DG     O19  801   0.594   1.846   2.529 -0.3530 -0.5161  0.1714
   35DG     H20  802   0.487   1.680   2.469 -2.3282  0.5481 -1.3110
   35DG     H21  803   0.465   1.703   2.630 -1.0672 -1.1004 -0.4032
   35DG     H22  804   0.657   1.842   2.737 -0.4057  1.8894  1.4760
   35DG     H23  805   0.535   1.964   2.692 -1.6386 -2.8422  1.3400
   36DG      C1  806   1.514   0.845   5.046  0.8219  0.0324 -0.1663
   36DG      C2  807   0.849   1.224   5.194  0.4191  0.0206 -0.5120
   36DG      H3  808   1.504   0.893   4.948 -0.4674  2.5192  1.0824
   36DG      H4  809   1.527   0.739   5.026  0.8293  0.2603 -1.5028
   36DG      H5  810   1.590   0.891   5.109  0.1719  0.5358  0.2611
   36DG      H6  811   0.918   1.296   5.150 -1.8624  1.7884 -1.3686
   36DG      H7  812   0.855   1.140   5.125 -0.2475 -0.6610  0.2343
   36DG      H8  813   0.751   1.272   5.192  0.1048 -0.6394 -1.3534
   36DG      O9  814   1.385   0.871   5.096  0.2042 -0.3733 -0.4216
   36DG     O10  815   0.885   1.196   5.326  0.0883 -0.3854  0.1820
   36DG     C11  816   1.359   0.822   5.231  0.4961  0.3220 -0.3898
   36DG     C12  817   1.031   1.163   5.343  0.0832 -0.5380 -0.1437
   36DG     H13  818   1.426   0.870   5.303  2.3486 -1.3693 -0.8825
   36DG     H14  819   1.391   0.718   5.237  0.8346  0.3439 -1.6696
   36DG     H15  820   1.049   1.163   5.451 -1.3330  1.4052  0.1466
   36DG     H16  821   1.101   1.236   5.303  1.2572 -1.4163  0.2543
   36DG     C17  822   1.213   0.850   5.270  0.3589 -0.2274  0.5444
   36DG     C18  823   1.061   1.019   5.286  0.6917 -0.0607 -0.0303
   36DG     O19  824   1.192   0.985   5.302 -0.1556 -0.0238 -0.4140
   36DG     H20  825   1.186   0.786   5.354 -0.9393 -1.1189 -0.4962
   36DG     H21  826   1.149   0.815   5.189  1.3617 -3.0270  0.8780
   36DG     H22  827   1.003   0.958   5.355 -1.1592  1.5438 -0.0530
   36DG     H23  828   1.030   1.008   5.182  1.7013  0.8772 -0.4473
   37DG      C1  829   4.291   0.819   2.028 -0.3727 -0.2476  0.2942
   37DG      C2  830   3.927   1.166   2.468 -0.4992  0.5990  0.4781
   37DG      H3  831   4.358   0.836   2.112  0.3184  0.7705 -0.4426
   37DG      H4  832   4.314   0.916   1.984  1.6422  0.2406  2.2481
   37DG      H5  833   4.321   0.733   1.967 -1.6567  0.7472 -1.8820
   37DG      H6  834   3.979   1.175   2.564  0.6528 -0.9180  0.0216
   37DG      H7  835   3.976   1.238   2.402 -0.7915  0.3111 -0.0547
   37DG      H8  836   3.823   1.190   2.491 -1.0538 -1.9980  0.9849
   37DG      O9  837   4.161   0.808   2.077  0.3126  0.1886 -0.1784
   37DG     O10  838   3.939   1.039   2.412 -0.2928  0.3559 -0.1431
   37DG     C11  839   4.129   0.680   2.143  0.6366 -0.1459  0.3807
   37DG     C12  840   3.885   0.934   2.483 -0.0170  0.9281 -0.0848
   37DG     H13  841   4.203   0.604   2.121  1.1377  0.4274  0.0490
   37DG     H14  842   4.034   0.641   2.105  1.6085 -1.0403 -1.2664
   37DG     H15  843   3.785   0.913   2.446  1.0939 -1.7136 -1.9058
   37DG     H16  844   3.884   0.955   2.591  2.5960  1.5454 -0.1106
   37DG     C17  845   4.110   0.710   2.294 -0.1347 -0.3934 -0.8430
   37DG     C18  846   3.968   0.814   2.458 -0.2578  0.1254  0.3097
   37DG     O19  847   4.002   0.805   2.318  0.3508 -0.1916  0.3651
   37DG     H20  848   4.210   0.736   2.327  0.1382 -0.4503 -1.5976
   37DG     H21  849   4.090   0.613   2.338 -0.3476  0.1878  0.3694
   37DG     H22  850   4.056   0.813   2.522 -1.8582  1.6061  2.6891
   37DG     H23  851   3.902   0.729   2.474  0.5562 -0.8032 -1.1399
   38DG      C1  852   4.220   2.815   4.682 -0.3431  0.6519  0.3213
   38DG      C2  853   3.602   2.759   4.430  0.3893 -0.1818  0.1901
   38DG      H3  854   4.289   2.865   4.750  0.5199  1.2226 -0.9370
   38DG      H4  855   4.277   2.792   4.592  2.7664  0.7309  2.1228
   38DG      H5  856   4.201   2.721   4.733  0.7017  0.7673  0.9605
   38DG      H6  857   3.532   2.800   4.358  1.0144 -0.7422 -0.7510
   38DG      H7  858   3.622   2.655   4.404  0.9634 -0.5612  1.9767
   38DG      H8  859   3.564   2.758   4.533 -1.4470 -2.2028 -0.4342
   38DG      O9  860   4.103   2.893   4.650 -0.4117  0.3824  0.6961
   38DG     O10  861   3.727   2.836   4.416  0.0777  0.2847  0.1839
   38DG     C11  862   4.131   3.013   4.578  0.1686 -0.1017  0.4982
   38DG     C12  863   3.776   2.842   4.280  0.3326 -0.1910  0.8124
   38DG     H13  864   4.222   2.999   4.521 -0.9046 -0.8247 -1.0997
   38DG     H14  865   4.134   3.101   4.643 -0.9499  0.8724 -0.6864
   38DG     H15  866   3.696   2.877   4.215  0.8727 -0.3937  0.0358
   38DG     H16  867   3.813   2.749   4.238 -3.0922 -0.3360 -2.3886
   38DG     C17  868   4.024   3.038   4.467  0.0142 -0.3179 -0.2719
   38DG     C18  869   3.890   2.946   4.288  0.1376  0.0691 -0.6896
   38DG     O19  870   3.975   2.922   4.399  0.2562 -0.1301  0.4571
   38DG     H20  871   4.041   3.124   4.403 -0.9310  1.6822  2.0208
   38DG     H21  872   3.938   3.063   4.528 -0.6613 -0.6533 -1.0618
   38DG     H22  873   3.956   2.962   4.202  0.5859 -0.2658 -0.4099
   38DG     H23  874   3.854   3.049   4.280  0.4413  0.2292 -0.0464
   39DG      C1  875   1.024   2.118   4.707  0.7178  0.3159  0.2013
   39DG      C2  876   1.666   2.354   4.844 -0.2582 -0.4483  1.0097
   39DG      H3  877   0.998   2.133   4.811 -1.3044  0.6576 -0.3077
   39DG      H4  878   0.957   2.044   4.662 -0.3415 -0.5303  2.9489
   39DG      H5  879   1.009   2.219   4.669  0.4515  0.3079  0.2815
   39DG      H6  880   1.669   2.456   4.807  3.0996 -0.6363  0.4680
   39DG      H7  881   1.638   2.353   4.949  2.9453  1.8083  2.0307
   39DG      H8  882   1.768   2.319   4.855  0.9235  3.1691  2.9816
   39DG      O9  883   1.155   2.063   4.699 -0.0518 -0.0015  0.2654
   39DG     O10  884   1.594   2.268   4.752  0.8186  0.4896  0.2098
   39DG     C11  885   1.206   2.037   4.563 -0.2179 -0.6517  0.3995
   39DG     C12  886   1.633   2.130   4.751  0.7583  0.1658 -0.0158
   39DG     H13  887   1.198   2.134   4.514  2.1384 -1.7565 -2.4590
   39DG     H14  888   1.148   1.962   4.509  1.0447 -2.2386  1.1638
   39DG     H15  889   1.614   2.083   4.848  1.6205  3.0749  1.6938
   39DG     H16  890   1.739   2.126   4.724  0.7093 -1.9764 -0.0639
   39DG     C17  891   1.355   1.996   4.552 -0.6873  0.8323 -0.3192
   39DG     C18  892   1.564   2.048   4.637 -0.6737 -0.4103 -0.5703
   39DG     O19  893   1.427   2.065   4.650  0.8367 -0.2600 -0.5558
   39DG     H20  894   1.396   2.027   4.456 -1.9867  1.7607 -0.5879
   39DG     H21  895   1.361   1.887   4.551 -0.7168  0.7990 -2.8805
   39DG     H22  896   1.592   2.081   4.537 -0.3457 -0.1960 -0.4114
   39DG     H23  897   1.591   1.943   4.651 -1.2120 -0.2536  1.9879
   40DG      C1  898   3.970   4.825   0.786 -0.2427  0.0479 -0.0337
   40DG      C2  899   4.102   4.958   0.120 -0.0357  0.5279 -0.3271
   40DG      H3  900   4.064   4.867   0.822 -1.1802  1.0501  1.3771
   40DG      H4  901   4.003   4.737   0.731  0.4846  1.0002 -1.1681
   40DG      H5  902   3.913   4.804   0.877 -0.1489  2.8048  0.7481
   40DG      H6  903   4.039   4.964   0.031 -1.3626  1.0101  0.6110
   40DG      H7  904   4.173   5.040   0.119  2.9011 -1.8288  0.2138
   40DG      H8  905   4.159   4.866   0.103  0.8893  0.8931  0.7380
   40DG      O9  906   3.903   4.911   0.702  0.2478 -0.2777  0.7831
   40DG     O10  907   4.029   4.945   0.245  0.5764  0.6770  0.1920
   40DG     C11  908   3.788   4.862   0.641 -0.2209  0.8804  0.3364
   40DG     C12  909   3.917   4.858   0.216 -0.3192 -0.0466 -0.0610
   40DG     H13  910   3.709   4.850   0.716 -1.6099 -1.1114 -1.2991
   40DG     H14  911   3.797   4.762   0.598  0.6191  0.4011  1.5892
   40DG     H15  912   3.957   4.765   0.176 -1.5890 -0.3096 -0.7798
   40DG     H16  913   3.858   4.910   0.141  0.6391 -0.3938 -1.0901
   40DG     C17  914   3.722   4.943   0.526  0.1504  0.3807  0.5459
   40DG     C18  915   3.829   4.825   0.338 -0.7736  0.4669 -0.0192
   40DG     O19  916   3.810   4.941   0.415  0.1359 -0.0489  0.1915
   40DG     H20  917   3.698   5.047   0.550 -0.1388  0.2934  0.6333
   40DG     H21  918   3.625   4.902   0.501 -0.0992  1.6602 -0.7149
   40DG     H22  919   3.735   4.784   0.304  0.9043 -2.1272 -1.8341
   40DG     H23  920   3.884   4.749   0.394 -1.4762  0.9771  1.4367
   41DG      C1  921   5.363   3.201   1.709 -0.1125 -0.1081  0.7228
   41DG      C2  922   5.355   2.715   2.333  0.0690  0.3940 -0.0171
   41DG      H3  923   5.430   3.137   1.651 -0.9896  1.0648 -1.6916
   41DG      H4  924   5.362   3.283   1.638  0.5731 -0.0956  0.7271
   41DG      H5  925   5.262   3.160   1.710 -0.4757  0.7257 -0.2561
   41DG      H6  926   5.446   2.661   2.307  0.0898 -0.5489  1.8583
   41DG      H7  927   5.375   2.762   2.429  2.7737 -0.7248  0.0531
   41DG      H8  928   5.267   2.651   2.348  0.0223  0.4207 -0.1837
   41DG      O9  929   5.411   3.258   1.828  0.2519  0.2903 -0.1631
   41DG     O10  930   5.327   2.803   2.225 -0.3016 -0.0588 -0.1742
   41DG     C11  931   5.424   3.157   1.927  0.4639 -0.1829  0.1633
   41DG     C12  932   5.214   2.883   2.250  0.2045  0.0459 -1.0043
   41DG     H13  933   5.469   3.202   2.016 -0.2664  0.1603  0.3717
   41DG     H14  934   5.503   3.087   1.903  1.0146  0.3583  0.3702
   41DG     H15  935   5.245   2.947   2.332 -0.4933 -1.8393  0.8244
   41DG     H16  936   5.135   2.812   2.278  2.2361 -1.8152  0.3070
   41DG     C17  937   5.292   3.094   1.960  0.4985  0.1031 -0.4358
   41DG     C18  938   5.186   2.958   2.119  0.6777  0.0460  0.0044
   41DG     O19  939   5.305   3.032   2.087 -0.2108 -0.0701  0.1303
   41DG     H20  940   5.270   3.024   1.879  2.7657  1.0875 -2.0073
   41DG     H21  941   5.214   3.171   1.962  0.8240  0.4272 -0.1077
   41DG     H22  942   5.163   2.883   2.043  3.0738  2.0118 -2.9012
   41DG     H23  943   5.100   3.024   2.128 -0.9646 -2.0011  0.0347
   42DG      C1  944   2.833   3.508   1.081 -0.2876 -0.7841  0.1209
   42DG      C2  945   2.566   2.954   1.265 -0.5872  1.2687  0.1781
   42DG      H3  946   2.750   3.556   1.131 -0.8173 -0.9128 -0.6264
   42DG      H4  947   2.824   3.525   0.974 -0.9269 -0.8475  0.1619
   42DG      H5  948   2.925   3.552   1.119 -0.1401 -0.5731 -0.4642
   42DG      H6  949   2.523   2.861   1.230  2.2824 -0.3797  0.7201
   42DG      H7  950   2.604   2.940   1.366  0.6782 -0.5382 -0.4987
   42DG      H8  951   2.485   3.027   1.256 -2.0212 -0.5189 -3.1128
   42DG      O9  952   2.858   3.368   1.120  0.0984 -0.0179  0.3697
   42DG     O10  953   2.669   3.003   1.178  0.2427 -0.5281  0.4132
   42DG     C11  954   2.962   3.309   1.047 -0.1614  0.5012  0.6130
   42DG     C12  955   2.765   2.916   1.125 -0.7872  0.6301 -0.5134
   42DG     H13  956   3.040   3.381   1.025  0.2354 -0.2190 -0.4141
   42DG     H14  957   2.919   3.276   0.953 -0.7455 -4.4297  2.2846
   42DG     H15  958   2.713   2.870   1.041  0.6983  0.1168 -1.1770
   42DG     H16  959   2.809   2.838   1.186 -1.3290 -0.3528 -1.3440
   42DG     C17  960   3.014   3.185   1.119  0.1301 -0.0681  0.0136
   42DG     C18  961   2.872   3.008   1.068  0.0941  0.5454  1.1738
   42DG     O19  962   2.914   3.097   1.159  0.1548  0.3857  0.3895
   42DG     H20  963   3.060   3.224   1.210 -1.3561  1.0641  0.3237
   42DG     H21  964   3.091   3.134   1.062  0.3341  0.1154  0.1231
   42DG     H22  965   2.957   2.946   1.038  0.8485  2.6623 -1.5882
   42DG     H23  966   2.836   3.053   0.975  0.0180 -0.2565  0.8132
   43DG      C1  967   3.798   2.563   0.416  0.2370  0.0598  0.2933
   43DG      C2  968   3.882   2.467   1.078 -0.5315  0.5772 -0.3172
   43DG      H3  969   3.691   2.545   0.428 -0.1543  1.0346 -1.3997
   43DG      H4  970   3.827   2.566   0.311  0.7594  0.6098  0.4505
   43DG      H5  971   3.808   2.664   0.456  0.5495 -0.0129  0.4080
   43DG      H6  972   3.928   2.555   1.123  2.3448 -0.4395 -1.0283
   43DG      H7  973   3.778   2.495   1.063 -0.6586  0.5714  0.5174
   43DG      H8  974   3.890   2.375   1.136  0.7462  0.0572 -1.2876
   43DG      O9  975   3.883   2.479   0.495 -0.3003  0.8014 -0.7698
   43DG     O10  976   3.936   2.443   0.950 -0.5208 -0.0677  0.2303
   43DG     C11  977   4.030   2.503   0.497  0.1320 -0.1304  0.0584
   43DG     C12  978   4.070   2.417   0.952  0.2415 -0.0406  0.3911
   43DG     H13  979   4.042   2.608   0.523 -2.8346 -0.2243  2.2708
   43DG     H14  980   4.062   2.495   0.393 -1.5528  1.4979 -0.6465
   43DG     H15  981   4.101   2.350   1.032  0.9286 -0.5932 -0.3306
   43DG     H16  982   4.133   2.503   0.972  0.4646 -0.1456  0.1448
   43DG     C17  983   4.109   2.406   0.587  0.1119 -0.5071 -0.1810
   43DG     C18  984   4.109   2.354   0.822  0.4339  0.1242  0.7666
   43DG     O19  985   4.043   2.421   0.717  0.0901  0.2067  0.2632
   43DG     H20  986   4.214   2.433   0.597 -0.4255  1.9688 -0.6014
   43DG     H21  987   4.099   2.305   0.545 -0.6957 -1.3799  1.9811
   43DG     H22  988   4.218   2.353   0.815  0.4154  0.3669  0.4546
   43DG     H23  989   4.080   2.251   0.843  1.0643  0.0863  1.5251
   44DG      C1  990   4.318   1.114   0.242 -0.8664 -0.1822 -0.1202
   44DG      C2  991   4.374   1.415   0.639 -0.0327 -0.0076 -0.1603
   44DG      H3  992   4.396   1.059   0.295 -1.1510 -1.3822 -0.8972
   44DG      H4  993   4.329   1.216   0.280  2.2158  0.0660 -1.3411
   44DG      H5  994   4.340   1.111   0.135 -1.5931  1.0612 -0.3238
   44DG      H6  995   4.381   1.344   0.722 -1.7047 -0.6326 -0.5012
   44DG      H7  996   4.477   1.429   0.607 -0.1457 -0.3498 -0.6988
   44DG      H8  997   4.339   1.510   0.680  0.7239 -0.4801  1.6706
   44DG      O9  998   4.200   1.040   0.269  0.2501  0.0296 -0.1585
   44DG     O10  999   4.301   1.353   0.542  0.6382  0.6963  0.0774
   44DG     C11 1000   4.084   1.097   0.218  0.1134 -0.3040 -0.2573
   44DG     C12 1001   4.169   1.309   0.580 -0.1752  0.6836 -0.2097
   44DG     H13 1002   4.011   1.027   0.175 -1.6878  1.5049 -0.2586
   44DG     H14 1003   4.107   1.147   0.124  0.8056  0.4495  0.3073
   44DG     H15 1004   4.142   1.350   0.678 -0.7029 -1.0651  0.4220
   44DG     H16 1005   4.171   1.200   0.590  1.4887  0.6446 -0.7135
   44DG     C17 1006   4.023   1.188   0.324  0.5680  0.7784  0.4756
   44DG     C18 1007   4.076   1.351   0.470 -0.7863 -0.4402 -0.1231
   44DG     O19 1008   4.104   1.299   0.347 -0.3924  0.0621 -0.1409
   44DG     H20 1009   3.998   1.126   0.410 -0.9859  0.9942  0.1970
   44DG     H21 1010   3.927   1.219   0.285  1.3631 -0.2908 -2.6295
   44DG     H22 1011   3.970   1.332   0.488 -1.0072  0.5740 -0.2887
   44DG     H23 1012   4.085   1.460   0.465 -1.0611 -0.3939  0.3775
   45DG      C1 1013   3.247   1.711   1.157  0.1539  0.0204 -0.0187
   45DG      C2 1014   3.060   1.381   1.693 -0.5668 -0.0145  0.8785
   45DG      H3 1015   3.307   1.775   1.092  0.8883 -1.7448 -1.1784
   45DG      H4 1016   3.150   1.760   1.163  1.1361  2.2183 -0.9436
   45DG      H5 1017   3.223   1.615   1.111  0.7253 -0.5903  0.9137
   45DG      H6 1018   2.988   1.421   1.621 -0.3016 -0.4774  0.3422
   45DG      H7 1019   3.070   1.273   1.680 -1.7923 -0.0667  0.2261
   45DG      H8 1020   3.022   1.406   1.792 -1.1098 -2.1736  1.2636
   45DG      O9 1021   3.280   1.673   1.290  0.3307  0.2189  0.1803
   45DG     O10 1022   3.200   1.414   1.662  0.0439  0.3234  0.2190
   45DG     C11 1023   3.299   1.791   1.369 -0.4159  0.8133  0.5305
   45DG     C12 1024   3.266   1.500   1.755 -0.1611 -0.3224  1.0646
   45DG     H13 1025   3.204   1.840   1.390 -0.6121  0.1557  1.2121
   45DG     H14 1026   3.356   1.863   1.309 -2.4316  0.3177 -2.1628
   45DG     H15 1027   3.347   1.452   1.811  0.8658 -0.2667 -0.3138
   45DG     H16 1028   3.193   1.546   1.821  2.5558  0.9746  3.3438
   45DG     C17 1029   3.364   1.748   1.504  0.7100  0.2985 -0.3528
   45DG     C18 1030   3.346   1.609   1.689 -0.1835  0.4351 -0.0773
   45DG     O19 1031   3.286   1.647   1.567 -0.4341 -0.3584 -0.4243
   45DG     H20 1032   3.389   1.834   1.565  0.9778  0.5150 -0.7676
   45DG     H21 1033   3.460   1.705   1.475  0.2279 -1.3828  0.4219
   45DG     H22 1034   3.370   1.681   1.768 -1.4963 -0.3908  1.1262
   45DG     H23 1035   3.444   1.570   1.663  0.5163  0.4178  2.2786
   46DG      C1 1036   1.261   4.416   0.128  0.5503  0.1332 -0.3025
   46DG      C2 1037   1.956   4.421   0.253 -0.5413 -0.0636  0.4227
   46DG      H3 1038   1.174   4.467   0.170 -0.7070 -2.0557 -0.0668
   46DG      H4 1039   1.298   4.334   0.190 -0.0524  1.1640  1.4847
   46DG      H5 1040   1.227   4.368   0.036  0.7885 -2.3214  0.7931
   46DG      H6 1041   1.961   4.345   0.175  2.3599  0.0734  0.3375
   46DG      H7 1042   2.050   4.476   0.266  0.5057 -1.3640 -1.2756
   46DG      H8 1043   1.921   4.368   0.341 -2.4063  1.9593  0.9866
   46DG      O9 1044   1.359   4.502   0.086 -0.4416 -0.2550  0.2286
   46DG     O10 1045   1.861   4.518   0.233  0.2113 -0.4478  0.5975
   46DG     C11 1046   1.406   4.597   0.193 -0.3522  1.1856  0.1525
   46DG     C12 1047   1.873   4.593   0.114 -0.6515 -0.1007 -0.4834
   46DG     H13 1048   1.430   4.543   0.285 -0.9360  1.6374  0.5806
   46DG     H14 1049   1.313   4.645   0.226 -1.3276 -1.1399  1.0367
   46DG     H15 1050   1.880   4.520   0.034  1.3260 -0.3982 -0.0903
   46DG     H16 1051   1.970   4.643   0.114 -0.5667 -0.2654 -0.1457
   46DG     C17 1052   1.518   4.691   0.153 -0.0846  0.0210  0.1867
   46DG     C18 1053   1.750   4.693   0.107 -0.3357 -0.2786 -0.4028
   46DG     O19 1054   1.636   4.618   0.149 -0.2073  0.5049 -0.0396
   46DG     H20 1055   1.535   4.763   0.233  0.3688 -0.7570  0.8135
   46DG     H21 1056   1.487   4.736   0.059 -2.5528  0.8642  1.3222
   46DG     H22 1057   1.766   4.775   0.177  1.6572  0.1329 -1.2644
   46DG     H23 1058   1.738   4.740   0.010  1.1888 -0.5118 -0.7313
   47DG      C1 1059   2.048   4.533   2.545 -0.4986 -0.9888 -0.2797
   47DG      C2 1060   1.392   4.126   2.374  0.2546  0.5419 -0.4814
   47DG      H3 1061   2.083   4.514   2.646  0.6816  1.9373 -0.0333
   47DG      H4 1062   1.974   4.613   2.544 -0.7115 -1.1764 -1.1301
   47DG      H5 1063   2.129   4.577   2.486 -0.4905  1.3008  1.3001
   47DG      H6 1064   1.387   4.134   2.482 -1.8277  2.4715 -0.6431
   47DG      H7 1065   1.362   4.227   2.345 -0.0384  0.2628 -1.1816
   47DG      H8 1066   1.317   4.056   2.339  0.2347 -0.4553  1.4528
   47DG      O9 1067   2.005   4.409   2.488 -0.0239  0.3236  0.1425
   47DG     O10 1068   1.517   4.093   2.328 -0.4226  0.0810  0.2762
   47DG     C11 1069   1.971   4.416   2.351 -0.1271 -0.0907  0.3588
   47DG     C12 1070   1.610   4.192   2.370  0.0057 -0.1861  0.2649
   47DG     H13 1071   2.061   4.440   2.294  0.1883 -0.5303  0.6619
   47DG     H14 1072   1.895   4.488   2.322 -0.0872 -0.6021 -1.1401
   47DG     H15 1073   1.622   4.211   2.477 -0.6136 -0.4383  0.3803
   47DG     H16 1074   1.595   4.291   2.326  0.1487 -0.0238  0.5724
   47DG     C17 1075   1.931   4.282   2.294  0.0845 -0.3772  0.2110
   47DG     C18 1076   1.737   4.156   2.318 -0.4875 -0.1088  0.5135
   47DG     O19 1077   1.822   4.252   2.376  0.6996 -0.4269 -0.2975
   47DG     H20 1078   2.009   4.206   2.293  1.2321  0.7618 -0.3790
   47DG     H21 1079   1.896   4.291   2.192  0.6024  0.3487  0.0819
   47DG     H22 1080   1.755   4.060   2.366  0.6265 -0.6427 -0.9176
   47DG     H23 1081   1.731   4.145   2.210 -1.7594 -1.0845  0.6509
   48DG      C1 1082   0.788   0.801   2.624  0.7179  0.3672 -0.4867
   48DG      C2 1083   0.606   0.391   2.436 -0.2692 -0.1674 -0.1719
   48DG      H3 1084   0.800   0.746   2.717 -0.3197 -0.2066 -0.6656
   48DG      H4 1085   0.870   0.871   2.616  0.5538  0.5895 -0.2244
   48DG      H5 1086   0.801   0.733   2.539  1.5856  0.4545 -0.4243
   48DG      H6 1087   0.612   0.329   2.347 -1.2314  1.0171 -1.0969
   48DG      H7 1088   0.697   0.450   2.448 -1.1795  1.0318  1.1482
   48DG      H8 1089   0.597   0.330   2.526  3.9567  0.6803  1.0070
   48DG      O9 1090   0.663   0.871   2.613  0.4356 -0.5425  0.0301
   48DG     O10 1091   0.498   0.478   2.439 -0.3841  0.1664  0.3189
   48DG     C11 1092   0.631   0.945   2.497 -0.2250 -0.0799  0.7732
   48DG     C12 1093   0.467   0.534   2.312  0.1952 -0.1065  0.6354
   48DG     H13 1094   0.695   1.033   2.486 -0.1130 -0.2414  0.1285
   48DG     H14 1095   0.531   0.983   2.518  0.1524  1.4412 -0.0318
   48DG     H15 1096   0.361   0.558   2.302  0.5503  0.7067 -1.7926
   48DG     H16 1097   0.487   0.455   2.240 -0.8882  0.2277 -0.0588
   48DG     C17 1098   0.629   0.863   2.372  0.7862  0.0910  0.2295
   48DG     C18 1099   0.550   0.659   2.285  0.1543 -0.5345 -0.2885
   48DG     O19 1100   0.536   0.757   2.392 -0.2093  0.1328 -0.2000
   48DG     H20 1101   0.731   0.829   2.356  0.4468 -0.0617 -1.8506
   48DG     H21 1102   0.606   0.925   2.286  1.3075 -0.0087  0.0124
   48DG     H22 1103   0.655   0.632   2.276  0.5134  0.9086 -0.8215
   48DG     H23 1104   0.519   0.711   2.194  2.6544 -1.3345 -1.6953
   49DG      C1 1105   3.453   3.657   5.303  0.3414  0.2341  0.3297
   49DG      C2 1106   2.873   3.414   5.692  0.4591  0.6728 -0.3587
   49DG      H3 1107   3.491   3.623   5.399 -0.1935 -0.2290  0.3786
   49DG      H4 1108   3.522   3.734   5.270  1.3897  0.2567  2.3864
   49DG      H5 1109   3.470   3.572   5.238  1.7029  1.5099 -1.0533
   49DG      H6 1110   2.882   3.321   5.635 -0.5501  1.3154 -1.6113
   49DG      H7 1111   2.874   3.388   5.798 -0.2470  0.4922 -0.3928
   49DG      H8 1112   2.781   3.465   5.663 -1.0226  0.3308  3.2256
   49DG      O9 1113   3.318   3.699   5.321 -0.7316  0.1355  0.0072
   49DG     O10 1114   2.975   3.502   5.639  0.0381 -0.1680  0.3930
   49DG     C11 1115   3.300   3.800   5.428 -0.3904  0.3877 -0.5295
   49DG     C12 1116   2.972   3.635   5.688 -0.1990  0.0216  0.9451
   49DG     H13 1117   3.199   3.836   5.405 -0.5504  0.9724  0.9787
   49DG     H14 1118   3.364   3.887   5.414  2.1696 -1.4317 -0.7644
   49DG     H15 1119   3.022   3.620   5.784  1.8803 -0.5592 -0.1772
   49DG     H16 1120   2.870   3.672   5.703 -0.0229  0.3235  1.4104
   49DG     C17 1121   3.296   3.745   5.573  0.1948 -0.1948  0.3900
   49DG     C18 1122   3.056   3.705   5.594 -0.7786 -0.2348  0.5271
   49DG     O19 1123   3.187   3.646   5.591 -0.1038 -0.4676  0.4640
   49DG     H20 1124   3.284   3.834   5.635  1.8225 -0.7820  1.6438
   49DG     H21 1125   3.394   3.701   5.591  0.6019  1.5712  3.0135
   49DG     H22 1126   3.006   3.723   5.498  1.7439 -0.1170 -0.8499
   49DG     H23 1127   3.058   3.812   5.614 -2.3997 -0.2055  0.6444
   50DG      C1 1128   2.608   2.539   4.574 -0.4487  0.2232  0.7043
   50DG      C2 1129   2.652   3.260   4.271  0.6255  0.9192 -0.0279
   50DG      H3 1130   2.630   2.526   4.680 -1.1163 -0.3192  0.7861
   50DG      H4 1131   2.706   2.568   4.538 -0.1418  0.6976  1.9016
   50DG      H5 1132   2.570   2.443   4.538  2.6467 -0.8447 -0.0559
   50DG      H6 1133   2.606   3.354   4.299 -1.9600 -1.1285  3.4255
   50DG      H7 1134   2.749   3.253   4.321  0.9991  0.5535 -0.7852
   50DG      H8 1135   2.678   3.254   4.165 -1.6644 -0.8530 -0.5794
   50DG      O9 1136   2.517   2.647   4.548 -0.0345  0.0624 -0.1507
   50DG     O10 1137   2.565   3.146   4.307 -0.3675 -0.1661 -0.1064
   50DG     C11 1138   2.503   2.673   4.413 -0.0959 -0.5812  0.4473
   50DG     C12 1139   2.545   3.141   4.451  0.5661  0.1593 -0.2350
   50DG     H13 1140   2.453   2.603   4.346 -0.7227  0.6366 -0.4105
   50DG     H14 1141   2.606   2.686   4.380  1.0150 -0.8297  3.4795
   50DG     H15 1142   2.499   3.233   4.487 -1.2607 -0.8102  0.0207
   50DG     H16 1143   2.641   3.135   4.501 -0.4545 -1.2694  1.7010
   50DG     C17 1144   2.420   2.802   4.409  0.0401 -0.0197  0.0501
   50DG     C18 1145   2.447   3.028   4.478 -0.4189 -0.1206 -1.3821
   50DG     O19 1146   2.514   2.908   4.443  0.3787 -0.0014 -0.5811
   50DG     H20 1147   2.344   2.794   4.486 -0.5037 -0.5895 -0.5306
   50DG     H21 1148   2.370   2.827   4.315 -1.3368  1.1239  1.0470
   50DG     H22 1149   2.419   3.022   4.584  2.7063 -1.3884 -0.5090
   50DG     H23 1150   2.357   3.046   4.419 -1.2250 -2.6778 -1.0789
   51DG      C1 1151   3.143   0.718   0.625  0.2826  0.2648  0.1253
   51DG      C2 1152   3.615   0.865   1.201 -0.5360  0.4593  0.2378
   51DG      H3 1153   3.107   0.706   0.523  0.5482  0.9117 -0.0452
   51DG      H4 1154   3.060   0.718   0.696  0.1849 -0.8390  0.0315
   51DG      H5 1155   3.214   0.642   0.657  0.9626  1.7267  2.3535
   51DG      H6 1156   3.662   0.909   1.113  1.4782  1.3778  1.7042
   51DG      H7 1157   3.655   0.908   1.292  0.6181  1.3557 -0.6697
   51DG      H8 1158   3.646   0.760   1.203 -1.1692  0.2798  1.0694
   51DG      O9 1159   3.217   0.843   0.642  0.0826  0.5922 -0.0066
   51DG     O10 1160   3.483   0.877   1.184 -0.2395 -0.2132  0.4917
   51DG     C11 1161   3.352   0.847   0.597 -0.2206 -0.2553  0.1019
   51DG     C12 1162   3.429   0.821   1.062  0.6692  0.4174 -1.0293
   51DG     H13 1163   3.360   0.883   0.495 -1.4312 -2.1184 -0.7107
   51DG     H14 1164   3.402   0.750   0.596  0.8116  0.2701  0.0791
   51DG     H15 1165   3.321   0.820   1.078  0.8987 -1.1684  0.8621
   51DG     H16 1166   3.468   0.721   1.038  2.0790  0.9824 -1.2209
   51DG     C17 1167   3.426   0.924   0.703  0.2659  0.0652 -0.5614
   51DG     C18 1168   3.456   0.907   0.939 -0.6627 -0.1745 -0.1524
   51DG     O19 1169   3.407   0.845   0.821  0.4742  0.0449 -0.2567
   51DG     H20 1170   3.370   1.017   0.708 -0.2684 -0.2684 -0.2723
   51DG     H21 1171   3.525   0.940   0.659 -0.5133 -0.9314 -2.8350
   51DG     H22 1172   3.436   1.014   0.938  2.2487  0.4895  1.2483
   51DG     H23 1173   3.563   0.906   0.920 -0.2991 -1.7758  1.7139
   52DG      C1 1174   4.127   3.670   0.472  0.0390 -0.0752 -0.0297
   52DG      C2 1175   3.766   4.034  -0.088 -0.0802  0.2873  0.7222
   52DG      H3 1176   4.159   3.566   0.476 -0.7457 -0.4211 -1.7442
   52DG      H4 1177   4.132   3.716   0.571  0.6726 -0.8541  0.3108
   52DG      H5 1178   4.185   3.723   0.396  0.4475 -0.9702 -0.3491
   52DG      H6 1179   3.671   4.024  -0.139  1.0063 -1.1578 -1.1208
   52DG      H7 1180   3.771   4.131  -0.039  1.6690  1.0691 -0.8789
   52DG      H8 1181   3.849   4.044  -0.157 -2.1960  1.1208 -1.8737
   52DG      O9 1182   3.995   3.669   0.425 -0.4859 -0.3955 -0.3920
   52DG     O10 1183   3.781   3.921  -0.001 -0.5937 -0.8121  0.3669
   52DG     C11 1184   3.977   3.591   0.314 -0.6314 -0.2264 -0.5554
   52DG     C12 1185   3.685   3.911   0.096  0.5540  0.0339  0.4853
   52DG     H13 1186   3.973   3.487   0.346 -1.1188  0.0339  0.2605
   52DG     H14 1187   4.055   3.612   0.241 -1.0968 -0.0304 -1.0037
   52DG     H15 1188   3.587   3.935   0.056  0.0539  0.1179  1.7234
   52DG     H16 1189   3.697   3.983   0.177 -1.3540 -0.8981  1.6774
   52DG     C17 1190   3.847   3.613   0.239  0.0213 -0.2391  0.4457
   52DG     C18 1191   3.699   3.764   0.148 -0.6183 -0.5391 -0.2408
   52DG     O19 1192   3.817   3.745   0.218 -0.0094 -0.2243 -0.4637
   52DG     H20 1193   3.768   3.564   0.296 -0.6863  0.2245 -0.1263
   52DG     H21 1194   3.851   3.558   0.145 -0.6439  1.0722 -0.3820
   52DG     H22 1195   3.616   3.741   0.214  0.8509  0.8944  2.2536
   52DG     H23 1196   3.695   3.708   0.055 -0.0170  1.7713 -1.7441
   53DG      C1 1197   3.576   2.730   3.464  0.3707  0.0116  0.7933
   53DG      C2 1198   3.825   2.753   2.879 -0.7861 -0.1843  0.1811
   53DG      H3 1199   3.675   2.717   3.506  0.7084 -0.4226 -0.0997
   53DG      H4 1200   3.549   2.641   3.407 -1.5267  1.2586 -0.3819
   53DG      H5 1201   3.507   2.737   3.549  0.4175  0.6959  0.7842
   53DG      H6 1202   3.924   2.765   2.835 -0.7071 -2.3138 -0.3460
   53DG      H7 1203   3.805   2.646   2.881  0.0402 -0.3588 -0.4064
   53DG      H8 1204   3.751   2.805   2.819  0.0584  0.8091 -0.0258
   53DG      O9 1205   3.570   2.836   3.371 -0.0411 -0.1056  0.4043
   53DG     O10 1206   3.809   2.814   3.012 -0.2982 -0.2867  0.6124
   53DG     C11 1207   3.609   2.960   3.418 -0.4942 -0.2883  0.4218
   53DG     C12 1208   3.819   2.953   3.025  0.8458 -0.2483  0.5236
   53DG     H13 1209   3.712   2.958   3.451  0.5716  1.2699 -2.4892
   53DG     H14 1210   3.538   3.003   3.489 -3.5683 -1.8726 -1.4565
   53DG     H15 1211   3.751   3.007   2.960  0.4559  0.8768  1.8042
   53DG     H16 1212   3.918   2.987   2.992 -0.6075  2.4699 -1.4144
   53DG     C17 1213   3.615   3.057   3.298  0.1370  0.2086  0.0186
   53DG     C18 1214   3.804   2.998   3.168  0.3121 -0.4052  0.8652
   53DG     O19 1215   3.666   2.999   3.178  0.0548 -0.0445 -0.5066
   53DG     H20 1216   3.669   3.145   3.331 -1.4791  1.1446  0.2957
   53DG     H21 1217   3.516   3.095   3.271  0.3749  0.6510 -0.2393
   53DG     H22 1218   3.848   2.934   3.245 -0.8654  0.4670  2.3321
   53DG     H23 1219   3.846   3.096   3.193  0.5048 -0.4454  0.6980
   54DG      C1 1220   2.397   4.313   1.642 -0.3980  0.0460 -0.3468
   54DG      C2 1221   2.707   4.723   1.052  0.5736  0.1538  0.5739
   54DG      H3 1222   2.412   4.207   1.619  3.4142  0.7231 -1.5313
   54DG      H4 1223   2.316   4.348   1.578 -0.9578 -0.6090 -0.0242
   54DG      H5 1224   2.352   4.328   1.741 -0.3927 -0.0661 -0.3267
   54DG      H6 1225   2.794   4.777   1.016  0.5474 -0.2672 -0.1437
   54DG      H7 1226   2.633   4.706   0.974  1.4555  1.6627 -0.6462
   54DG      H8 1227   2.654   4.777   1.131  0.7997  0.5265  0.4746
   54DG      O9 1228   2.518   4.378   1.623 -0.0888  0.3958  0.7882
   54DG     O10 1229   2.744   4.605   1.120  0.0786 -0.6524  0.9912
   54DG     C11 1230   2.564   4.370   1.485 -0.4214 -0.5101 -0.5119
   54DG     C12 1231   2.844   4.620   1.217  0.1152 -0.8776 -0.4111
   54DG     H13 1232   2.478   4.412   1.433 -1.0806 -0.6521  0.4434
   54DG     H14 1233   2.584   4.269   1.449  4.1159  0.5483 -1.5941
   54DG     H15 1234   2.820   4.703   1.285 -0.1998 -0.4482 -1.0351
   54DG     H16 1235   2.936   4.653   1.168 -0.2685  2.3948  0.7892
   54DG     C17 1236   2.688   4.462   1.472  0.0833  0.2870  0.1245
   54DG     C18 1237   2.854   4.496   1.307 -0.4638 -1.2733 -0.1635
   54DG     O19 1238   2.723   4.451   1.339  0.4049  0.5468 -0.4628
   54DG     H20 1239   2.768   4.416   1.532  0.7051 -0.8110 -1.4748
   54DG     H21 1240   2.678   4.566   1.502  0.6996  1.5462 -3.5851
   54DG     H22 1241   2.909   4.415   1.260  0.2935 -0.0146 -1.5205
   54DG     H23 1242   2.918   4.522   1.392 -0.7573  2.0720 -0.8212
   55DG      C1 1243   4.966   5.331   2.736  0.5773  0.1201  0.2180
   55DG      C2 1244   4.893   4.689   2.660  0.1273 -0.9576  0.0625
   55DG      H3 1245   4.972   5.376   2.835  1.2004 -1.3818  0.8932
   55DG      H4 1246   4.860   5.319   2.713  0.2868 -0.6814  1.8147
   55DG      H5 1247   5.022   5.406   2.680 -1.4686  0.3749 -1.5822
   55DG      H6 1248   4.786   4.711   2.656  0.0634 -1.3342 -0.3538
   55DG      H7 1249   4.916   4.594   2.612  0.2214 -0.7431 -0.3203
   55DG      H8 1250   4.905   4.667   2.766 -0.3265 -0.8816  0.1314
   55DG      O9 1251   5.037   5.208   2.710  0.1063 -0.1027 -0.6376
   55DG     O10 1252   4.985   4.794   2.612  0.4414  0.2681  0.5827
   55DG     C11 1253   5.177   5.214   2.733 -0.2902 -0.3093 -0.1699
   55DG     C12 1254   5.119   4.758   2.630 -0.4724 -0.0835 -0.2993
   55DG     H13 1255   5.186   5.214   2.842 -0.1496 -2.8716 -0.1350
   55DG     H14 1256   5.228   5.308   2.709  0.7199 -0.7054  0.3965
   55DG     H15 1257   5.144   4.669   2.572  0.0499  0.2134 -0.5333
   55DG     H16 1258   5.126   4.730   2.735 -0.3109  0.2778 -0.2141
   55DG     C17 1259   5.250   5.099   2.667  0.1444 -0.4705  0.0362
   55DG     C18 1260   5.206   4.873   2.589 -0.2117 -0.2137  0.6015
   55DG     O19 1261   5.174   4.977   2.685 -0.0517 -0.2702 -0.2981
   55DG     H20 1262   5.352   5.087   2.704  0.9799 -0.3302 -2.1244
   55DG     H21 1263   5.260   5.112   2.560 -1.1268 -2.2155 -0.3265
   55DG     H22 1264   5.307   4.841   2.612 -0.2766 -0.5324  0.4509
   55DG     H23 1265   5.193   4.908   2.487  2.4669  2.3401  1.0072
   56DG      C1 1266   0.516   1.861   2.086 -0.3177 -0.4927 -0.7909
   56DG      C2 1267   0.465   2.277   2.583 -0.1363  0.4533 -0.0500
   56DG      H3 1268   0.493   1.777   2.150  0.4519 -0.3093 -0.2545
   56DG      H4 1269   0.538   1.811   1.991  0.5263 -1.2238 -0.2251
   56DG      H5 1270   0.420   1.910   2.069 -1.2811 -1.2897  1.9760
   56DG      H6 1271   0.358   2.269   2.603  0.0185 -2.9269  0.0191
   56DG      H7 1272   0.497   2.204   2.657 -2.5595  0.0300  0.6782
   56DG      H8 1273   0.511   2.372   2.611 -1.6855  0.6616  2.0133
   56DG      O9 1274   0.622   1.944   2.135 -0.0806  0.9680 -0.1986
   56DG     O10 1275   0.482   2.235   2.443 -0.0496 -0.7648  0.5129
   56DG     C11 1276   0.681   2.040   2.045 -1.0707  0.1223  0.0108
   56DG     C12 1277   0.508   2.352   2.357 -0.4175  0.0812 -0.2497
   56DG     H13 1278   0.694   2.010   1.941 -0.6938 -3.7162  0.9985
   56DG     H14 1279   0.777   2.060   2.092 -0.7729 -1.0631 -0.0482
   56DG     H15 1280   0.610   2.386   2.375 -0.7773  0.3866  1.3781
   56DG     H16 1281   0.426   2.423   2.369 -0.7366 -0.2298 -0.5676
   56DG     C17 1282   0.610   2.173   2.052  0.6669 -1.3976  0.4592
   56DG     C18 1283   0.496   2.312   2.213  0.3074 -0.2109 -0.0245
   56DG     O19 1284   0.580   2.197   2.193  0.4226 -0.0359  0.8087
   56DG     H20 1285   0.521   2.165   1.990  1.5240  1.7246 -1.3910
   56DG     H21 1286   0.664   2.259   2.013 -2.5553  0.4202 -0.3268
   56DG     H22 1287   0.392   2.287   2.191 -0.1304  2.1527 -1.0491
   56DG     H23 1288   0.526   2.402   2.158  0.3175 -0.0639  0.2219
   57DG      C1 1289   4.574   4.715   1.240  0.6219  0.5614 -0.3582
   57DG      C2 1290   4.821   4.602   0.421  0.7876  0.3888 -0.0045
   57DG      H3 1291   4.666   4.660   1.262  0.9720  0.5434 -1.7801
   57DG      H4 1292   4.507   4.639   1.200 -0.8987  0.4947  2.1205
   57DG      H5 1293   4.554   4.751   1.341  2.3739 -0.4970  0.4240
   57DG      H6 1294   4.878   4.510   0.427 -1.2915 -0.8541  2.1946
   57DG      H7 1295   4.732   4.574   0.366  1.5273 -2.2930  0.0384
   57DG      H8 1296   4.863   4.675   0.351  1.1318 -1.4896 -1.8711
   57DG      O9 1297   4.616   4.815   1.146  0.4807 -0.4216 -0.4319
   57DG     O10 1298   4.781   4.652   0.552 -0.0786 -0.6101 -0.6511
   57DG     C11 1299   4.643   4.739   1.026 -0.2921  0.8159  0.1017
   57DG     C12 1300   4.898   4.688   0.620 -0.1371 -0.0532  0.8091
   57DG     H13 1301   4.551   4.698   0.985 -0.9606  1.0125  1.3407
   57DG     H14 1302   4.702   4.651   1.046  0.3508  1.6399  2.0356
   57DG     H15 1303   4.974   4.720   0.548 -1.6191  1.2026 -0.2647
   57DG     H16 1304   4.926   4.599   0.676 -2.3739  0.6874  3.2940
   57DG     C17 1305   4.733   4.814   0.924 -0.3299 -0.1105  0.8007
   57DG     C18 1306   4.858   4.793   0.725 -0.3244  0.4551  0.2954
   57DG     O19 1307   4.760   4.731   0.810 -0.1635  0.3050 -0.2743
   57DG     H20 1308   4.819   4.851   0.980 -0.5641 -0.1781  1.2135
   57DG     H21 1309   4.687   4.909   0.897  1.0950  0.6008  0.7298
   57DG     H22 1310   4.947   4.830   0.776  0.8111 -0.5795 -0.8623
   57DG     H23 1311   4.816   4.878   0.671  2.1520  1.4983 -0.1275
   58DG      C1 1312   4.592   1.549   4.055  0.1883 -0.1516 -0.9641
   58DG      C2 1313   5.058   1.390   4.309 -0.5070 -0.5159  0.4260
   58DG      H3 1314   4.503   1.571   3.996 -0.3245  2.2118  0.5480
   58DG      H4 1315   4.677   1.577   3.993  1.3527 -0.7530  0.3226
   58DG      H5 1316   4.590   1.617   4.141 -0.1749 -2.3299  0.8308
   58DG      H6 1317   5.079   1.284   4.298  0.1133 -0.4157  0.6041
   58DG      H7 1318   5.098   1.456   4.232  0.5359  2.4255  3.2470
   58DG      H8 1319   5.103   1.423   4.403 -1.3601  0.4340  0.5200
   58DG      O9 1320   4.602   1.405   4.081 -0.2450  0.0802 -0.0966
   58DG     O10 1321   4.922   1.409   4.307 -0.0538  0.2089  0.2396
   58DG     C11 1322   4.514   1.359   4.183  0.6329 -0.2370 -0.1446
   58DG     C12 1323   4.870   1.337   4.414 -0.2522  0.1244  0.2750
   58DG     H13 1324   4.525   1.252   4.199 -1.7589 -1.0003 -2.8613
   58DG     H14 1325   4.413   1.373   4.146  1.0611 -0.1863 -1.3511
   58DG     H15 1326   4.881   1.383   4.513 -0.4851  1.3813 -0.2584
   58DG     H16 1327   4.908   1.236   4.427 -0.6280 -0.0888 -0.2573
   58DG     C17 1328   4.528   1.431   4.325  0.1251 -0.3441  0.5208
   58DG     C18 1329   4.728   1.312   4.384 -0.3384 -0.5541 -0.3171
   58DG     O19 1330   4.661   1.436   4.368  0.1440  0.2148 -0.3526
   58DG     H20 1331   4.467   1.385   4.403  0.0051  1.9767  1.8849
   58DG     H21 1332   4.488   1.532   4.324 -0.8236 -0.6640 -2.0138
   58DG     H22 1333   4.723   1.253   4.292  2.3459  0.5098 -1.2427
   58DG     H23 1334   4.680   1.260   4.467  1.4788 -0.4863  0.8239
   59DG      C1 1335   0.572   5.082   1.040  0.1855 -0.5505  0.1422
   59DG      C2 1336   0.051   4.673   1.199 -0.3203  0.5741  0.0492
   59DG      H3 1337   0.613   5.023   1.122 -0.0799 -0.1104  0.5982
   59DG      H4 1338   0.616   5.182   1.037  0.1580 -0.5635 -0.9016
   59DG      H5 1339   0.575   5.016   0.954 -5.3582 -1.8398  0.5545
   59DG      H6 1340  -0.057   4.679   1.186 -0.3517 -0.8539 -0.5525
   59DG      H7 1341   0.105   4.636   1.111  1.2222 -0.6066  1.4263
   59DG      H8 1342   0.070   4.608   1.284  1.2095 -0.7533 -1.2259
   59DG      O9 1343   0.433   5.096   1.065 -0.0387 -0.1312  0.1659
   59DG     O10 1344   0.103   4.802   1.208  0.0762 -0.2635  0.1689
   59DG     C11 1345   0.403   5.174   1.182 -0.3319 -0.3387 -0.9744
   59DG     C12 1346   0.042   4.888   1.306 -1.1547 -0.2881 -0.2594
   59DG     H13 1347   0.452   5.271   1.183 -0.3892 -0.3142 -0.6296
   59DG     H14 1348   0.444   5.128   1.271 -1.3847  1.1407  0.3255
   59DG     H15 1349   0.089   4.859   1.400 -0.1384  0.4336 -0.5259
   59DG     H16 1350  -0.065   4.868   1.316 -0.6966 -2.5791  0.6945
   59DG     C17 1351   0.257   5.173   1.199 -0.1997  0.6671  0.5412
   59DG     C18 1352   0.069   5.033   1.269 -0.4063  1.6686 -0.0797
   59DG     O19 1353   0.212   5.044   1.235  0.0018 -0.3826 -0.0963
   59DG     H20 1354   0.209   5.208   1.108 -0.9709 -0.0737  0.6513
   59DG     H21 1355   0.234   5.246   1.278  0.0619  0.4861  0.7873
   59DG     H22 1356   0.008   5.064   1.184  0.0335  0.6739 -0.7775
   59DG     H23 1357   0.045   5.099   1.353  1.7914  2.3434  0.0863
   60DG      C1 1358   5.401   3.860   0.976  0.4823  0.0194 -0.1515
   60DG      C2 1359   4.965   3.907   0.501 -0.4930  0.4452 -0.2966
   60DG      H3 1360   5.445   3.799   1.056 -1.6409  1.0038  1.9016
   60DG      H4 1361   5.349   3.946   1.017 -0.3011  0.0631 -1.2172
   60DG      H5 1362   5.488   3.901   0.925  2.2012 -2.0131  0.9442
   60DG      H6 1363   5.041   3.978   0.466  0.3593 -0.1682  0.2565
   60DG      H7 1364   4.909   3.882   0.411  1.8277  0.8897 -1.9848
   60DG      H8 1365   4.913   3.968   0.574  0.8392  1.0582  0.1740
   60DG      O9 1366   5.326   3.779   0.888 -0.0314 -0.1348  0.1146
   60DG     O10 1367   5.039   3.797   0.556  0.2179  0.2624  0.0262
   60DG     C11 1368   5.404   3.662   0.845  0.3881  0.2585  0.9396
   60DG     C12 1369   5.127   3.735   0.461  0.3715  0.3527  0.2647
   60DG     H13 1370   5.435   3.601   0.930  1.2725  0.2389  0.6094
   60DG     H14 1371   5.498   3.704   0.811 -0.0626 -0.0360 -0.7390
   60DG     H15 1372   5.211   3.804   0.450  2.9073 -2.2232  1.8778
   60DG     H16 1373   5.092   3.708   0.362  1.4630 -3.1575  0.6960
   60DG     C17 1374   5.331   3.589   0.722 -0.0825 -0.3302 -0.5498
   60DG     C18 1375   5.191   3.614   0.535  0.2858  0.2947 -0.1042
   60DG     O19 1376   5.255   3.680   0.650  0.3094  0.4990  0.7119
   60DG     H20 1377   5.264   3.510   0.755 -0.1484  0.3804  1.1225
   60DG     H21 1378   5.409   3.546   0.658  0.0049 -0.3886 -0.4059
   60DG     H22 1379   5.118   3.536   0.552  0.5821 -0.2634 -1.2827
   60DG     H23 1380   5.261   3.574   0.462  0.7538  0.6661  0.1308
   61DG      C1 1381   4.055   4.346   1.335  0.3776  0.3149  0.2428
   61DG      C2 1382   4.334   4.118   1.941  0.0878  0.0556 -0.2917
   61DG      H3 1383   4.064   4.350   1.227 -1.5346 -1.8272 -0.0741
   61DG      H4 1384   4.002   4.436   1.368  1.5941  1.0746  0.2111
   61DG      H5 1385   3.986   4.264   1.356 -2.2907  1.5108 -3.0277
   61DG      H6 1386   4.238   4.068   1.956  0.5568 -0.6570  0.4736
   61DG      H7 1387   4.403   4.033   1.943 -1.8818 -1.7112 -2.0261
   61DG      H8 1388   4.355   4.189   2.021 -0.6698 -1.5824  1.4608
   61DG      O9 1389   4.175   4.327   1.412 -0.1904 -0.0775  0.1286
   61DG     O10 1390   4.337   4.178   1.816  0.9050  0.2655 -0.3489
   61DG     C11 1391   4.284   4.413   1.384 -0.3004 -0.0273  0.5131
   61DG     C12 1392   4.460   4.258   1.805 -0.3803  0.5372  0.1537
   61DG     H13 1393   4.258   4.513   1.421  0.8261  0.3174  0.4155
   61DG     H14 1394   4.306   4.410   1.278  0.6742  1.3021  0.6434
   61DG     H15 1395   4.545   4.195   1.834 -2.0820 -1.4188  1.1681
   61DG     H16 1396   4.449   4.345   1.869 -0.9946  1.8206 -1.6057
   61DG     C17 1397   4.406   4.359   1.450  0.2313  0.1584 -0.1509
   61DG     C18 1398   4.487   4.296   1.661 -0.3020  0.2527  0.3352
   61DG     O19 1399   4.373   4.331   1.588  0.0557  0.3505  0.9811
   61DG     H20 1400   4.484   4.436   1.442  0.9470 -0.4939  0.3649
   61DG     H21 1401   4.436   4.270   1.395 -1.4162  0.4510 -1.5988
   61DG     H22 1402   4.555   4.380   1.673  0.2680 -0.4774  2.8782
   61DG     H23 1403   4.541   4.208   1.625 -0.2703  0.3205  0.2190
   62DG      C1 1404   0.862   0.147   1.609  0.1021  0.1475  0.1613
   62DG      C2 1405   0.769   0.572   1.115 -0.1425  0.0325 -0.0741
   62DG      H3 1406   0.791   0.103   1.538  1.7751 -1.0310 -0.8633
   62DG      H4 1407   0.820   0.186   1.702  0.8405  1.5020 -0.0533
   62DG      H5 1408   0.921   0.060   1.639 -0.4831  0.4191  2.2165
   62DG      H6 1409   0.687   0.506   1.089 -0.9728  1.3323 -0.8705
   62DG      H7 1410   0.726   0.669   1.139 -2.9592 -1.2778  0.5246
   62DG      H8 1411   0.842   0.584   1.035  0.4795 -0.9082  0.3339
   62DG      O9 1412   0.941   0.245   1.555 -0.3931  0.8336  0.6075
   62DG     O10 1413   0.843   0.538   1.231  0.1128  0.5238  0.1395
   62DG     C11 1414   1.008   0.321   1.649 -0.3237 -0.2459 -0.0308
   62DG     C12 1415   0.941   0.629   1.289 -0.0328 -0.1441 -0.0025
   62DG     H13 1416   1.064   0.267   1.725  0.0848 -0.3301 -0.3912
   62DG     H14 1417   0.942   0.387   1.707  0.6676  0.8214 -0.0888
   62DG     H15 1418   0.886   0.697   1.354  0.3584 -0.9828  1.2547
   62DG     H16 1419   0.999   0.683   1.214 -0.0018 -0.3889 -0.1578
   62DG     C17 1420   1.103   0.405   1.559  0.5395  0.7305  0.3786
   62DG     C18 1421   1.053   0.547   1.362 -0.2494  0.2562  0.6885
   62DG     O19 1422   1.001   0.482   1.478  0.5429 -0.0070 -0.0627
   62DG     H20 1423   1.166   0.343   1.495 -0.2106 -0.7754  1.0341
   62DG     H21 1424   1.175   0.471   1.609 -0.3669  2.6576 -0.7594
   62DG     H22 1425   1.102   0.470   1.302 -1.0127 -0.7038  1.2729
   62DG     H23 1426   1.129   0.623   1.381  0.2873  0.6726 -2.5571
   63DG      C1 1427   1.222   3.338   0.279 -0.0102 -0.2621  0.6188
   63DG      C2 1428   1.797   3.542   0.649  0.6531 -0.4569 -0.7012
   63DG      H3 1429   1.167   3.348   0.373 -1.3891  2.1809 -0.3693
   63DG      H4 1430   1.184   3.264   0.209 -1.3213  1.4733 -0.5775
   63DG      H5 1431   1.208   3.428   0.221  1.9189 -0.9252 -0.9960
   63DG      H6 1432   1.897   3.582   0.634  1.9480 -2.1247  2.4662
   63DG      H7 1433   1.732   3.629   0.662  0.6396 -0.4384 -0.8925
   63DG      H8 1434   1.802   3.479   0.739  1.2473 -1.5290 -1.4605
   63DG      O9 1435   1.363   3.314   0.296  0.1137  0.2438 -0.7444
   63DG     O10 1436   1.735   3.472   0.547 -0.5125  0.6812  0.0159
   63DG     C11 1437   1.440   3.333   0.181  0.9382 -0.0176 -0.1689
   63DG     C12 1438   1.821   3.371   0.489 -0.2506  0.4797 -0.2260
   63DG     H13 1439   1.414   3.432   0.145 -1.9532 -0.9876 -1.0294
   63DG     H14 1440   1.410   3.260   0.106 -1.3348  0.5137  0.1441
   63DG     H15 1441   1.847   3.291   0.558  0.3896 -0.4290 -1.4973
   63DG     H16 1442   1.912   3.422   0.459 -1.7424  1.9582 -2.6092
   63DG     C17 1443   1.592   3.305   0.207 -0.4611  0.5724 -0.6338
   63DG     C18 1444   1.764   3.304   0.364 -0.0267 -0.5201  0.7396
   63DG     O19 1445   1.633   3.347   0.338 -0.9836  0.2989 -0.1553
   63DG     H20 1446   1.650   3.336   0.120 -1.6086 -0.7946 -1.9601
   63DG     H21 1447   1.611   3.198   0.212  0.9535  0.7295 -1.7493
   63DG     H22 1448   1.844   3.317   0.290  0.6506 -2.1218  1.1607
   63DG     H23 1449   1.756   3.196   0.373  0.5391 -0.6162  0.1532
   64DG      C1 1450   2.163   3.793   0.063 -0.0975 -0.7303 -0.3018
   64DG      C2 1451   1.771   3.582  -0.642  0.9456 -0.0289  0.1766
   64DG      H3 1452   2.092   3.788   0.145 -0.4607 -1.2535 -0.6350
   64DG      H4 1453   2.230   3.876   0.082  0.3575 -1.0917 -0.3199
   64DG      H5 1454   2.232   3.709   0.071  0.1777 -0.4542  0.2325
   64DG      H6 1455   1.728   3.655  -0.711  0.0128 -1.9675 -1.3629
   64DG      H7 1456   1.805   3.505  -0.710  0.5136 -1.0246  1.0563
   64DG      H8 1457   1.693   3.532  -0.585 -0.6246  0.8368 -1.1085
   64DG      O9 1458   2.108   3.802  -0.061 -0.7659  0.4777  0.1304
   64DG     O10 1459   1.864   3.630  -0.547  0.3315  0.3066  0.6898
   64DG     C11 1460   2.019   3.692  -0.094 -0.1095  0.0057  0.5777
   64DG     C12 1461   1.953   3.535  -0.487 -0.0022  0.3334 -0.1829
   64DG     H13 1462   1.950   3.673  -0.011 -2.3174  0.3434 -1.0716
   64DG     H14 1463   2.084   3.605  -0.098  1.4999  1.1523  0.8825
   64DG     H15 1464   2.000   3.470  -0.562  2.2714  0.6632  0.8971
   64DG     H16 1465   1.910   3.459  -0.422 -0.1605  0.6399  0.0732
   64DG     C17 1466   1.928   3.705  -0.219  0.7620  0.2402 -0.1129
   64DG     C18 1467   2.052   3.623  -0.405  0.4134  0.1073  0.6743
   64DG     O19 1468   1.991   3.735  -0.340 -0.0046  0.0605 -0.3094
   64DG     H20 1469   1.856   3.779  -0.186  1.3811 -1.0758  4.9998
   64DG     H21 1470   1.864   3.617  -0.221 -0.1704  0.9197 -0.4699
   64DG     H22 1471   2.110   3.558  -0.338  4.4258  0.9769 -1.6235
   64DG     H23 1472   2.124   3.659  -0.478  0.1406 -0.5112  0.0924
   65DG      C1 1473   2.838   4.012   2.224  0.0324 -0.0261 -0.4337
   65DG      C2 1474   3.289   3.937   1.788  0.2650  0.3720  0.0225
   65DG      H3 1475   2.767   3.998   2.142 -0.7093  0.0224  0.1859
   65DG      H4 1476   2.799   4.089   2.290  0.3417  0.9824 -1.3936
   65DG      H5 1477   2.843   3.919   2.280 -2.4726 -0.5612 -0.9421
   65DG      H6 1478   3.200   3.878   1.764 -0.5145  0.9381  1.4297
   65DG      H7 1479   3.335   3.965   1.693 -1.3054 -0.2953 -0.9894
   65DG      H8 1480   3.349   3.868   1.846 -0.2826  1.4975  2.0101
   65DG      O9 1481   2.967   4.034   2.176  0.0049  0.0717 -0.0096
   65DG     O10 1482   3.236   4.039   1.864 -0.4421  0.8199  0.1774
   65DG     C11 1483   3.031   4.138   2.254  0.6716 -0.3548 -0.7694
   65DG     C12 1484   3.322   4.122   1.937 -1.1630  0.5328  0.3143
   65DG     H13 1485   3.042   4.096   2.354 -1.0368 -2.0279 -1.2083
   65DG     H14 1486   2.966   4.225   2.262 -0.4735 -1.1537 -0.9407
   65DG     H15 1487   3.410   4.149   1.879  0.9432 -3.3430  1.3703
   65DG     H16 1488   3.373   4.053   2.005 -0.1761  0.4918 -0.4365
   65DG     C17 1489   3.164   4.167   2.192 -0.0687  1.1406  0.3842
   65DG     C18 1490   3.262   4.257   2.001 -0.3462  0.3339  0.2174
   65DG     O19 1491   3.140   4.236   2.069 -0.2785  0.4937 -0.0699
   65DG     H20 1492   3.206   4.069   2.168 -0.9116  0.6798  0.7318
   65DG     H21 1493   3.220   4.220   2.268 -0.5427 -1.0077  2.3671
   65DG     H22 1494   3.343   4.300   2.059  1.5709 -1.6959 -0.7949
   65DG     H23 1495   3.245   4.325   1.918 -0.1130 -1.1718 -1.1137
   66DG      C1 1496   1.839   2.287   5.190 -0.4981 -0.0570 -0.0109
   66DG      C2 1497   2.526   1.891   4.828  0.3542 -0.0346  0.9836
   66DG      H3 1498   1.799   2.327   5.096 -0.3795  2.4007  0.8929
   66DG      H4 1499   1.843   2.382   5.244  1.0272  0.0643 -0.2875
   66DG      H5 1500   1.776   2.215   5.242 -0.2851  0.8930  1.6342
   66DG      H6 1501   2.629   1.901   4.792 -0.3475 -0.0111 -1.1748
   66DG      H7 1502   2.522   1.792   4.873 -0.1107 -1.1835 -1.4545
   66DG      H8 1503   2.477   1.889   4.731  0.1385  0.5919  1.0737
   66DG      O9 1504   1.966   2.250   5.146 -0.4821 -0.1399  0.0356
   66DG     O10 1505   2.501   2.013   4.907 -0.2053  0.3742  0.2241
   66DG     C11 1506   2.062   2.264   5.250 -0.1111  0.6488 -0.2543
   66DG     C12 1507   2.374   2.007   4.974 -0.0489 -0.2712  0.2421
   66DG     H13 1508   2.037   2.194   5.330 -0.1314 -1.7178 -2.2011
   66DG     H14 1509   2.051   2.362   5.296 -0.2138 -0.6645  2.7610
   66DG     H15 1510   2.379   1.922   5.042  0.7108 -1.7255 -1.5398
   66DG     H16 1511   2.301   1.991   4.894  2.5073 -2.5020 -1.8590
   66DG     C17 1512   2.207   2.251   5.196 -0.2994  0.1059 -0.3350
   66DG     C18 1513   2.354   2.135   5.059  0.4412  0.3562  0.1282
   66DG     O19 1514   2.229   2.132   5.117 -0.5302  0.4249 -0.7066
   66DG     H20 1515   2.272   2.275   5.281 -0.2585  0.0629 -0.3544
   66DG     H21 1516   2.222   2.335   5.128  2.4470 -0.2588 -0.2692
   66DG     H22 1517   2.436   2.130   5.131  0.2322 -0.3496  0.3205
   66DG     H23 1518   2.370   2.220   4.992  2.7882 -2.1083 -2.6853
   67DG      C1 1519   4.242   5.033   4.762 -0.2762 -0.2729  0.6399
   67DG      C2 1520   4.244   5.476   4.274  0.0218 -0.4008  0.1364
   67DG      H3 1521   4.135   5.028   4.740 -0.0390 -0.2696 -0.5983
   67DG      H4 1522   4.254   5.121   4.825  1.8859 -1.5605  2.1600
   67DG      H5 1523   4.268   4.945   4.822  0.8549  0.5979  1.4744
   67DG      H6 1524   4.271   5.544   4.354  2.4364  2.6131 -2.9235
   67DG      H7 1525   4.267   5.518   4.176  0.0557 -1.6187 -0.3974
   67DG      H8 1526   4.136   5.466   4.283 -0.1564  1.8454  0.8896
   67DG      O9 1527   4.319   5.050   4.641  0.2035  0.1720  0.5506
   67DG     O10 1528   4.309   5.353   4.300 -0.0832 -0.2250  0.3015
   67DG     C11 1529   4.303   4.939   4.551 -0.1158 -0.8980 -0.2590
   67DG     C12 1530   4.256   5.246   4.216  0.5192 -0.1362  0.7760
   67DG     H13 1531   4.306   4.840   4.596 -0.1486 -1.2374 -0.9857
   67DG     H14 1532   4.391   4.945   4.487 -0.2736  1.4932 -0.3488
   67DG     H15 1533   4.318   5.247   4.125  0.2452 -2.0116  0.5316
   67DG     H16 1534   4.153   5.253   4.180 -0.1127 -2.4408  1.9731
   67DG     C17 1535   4.186   4.966   4.461 -0.2660  0.4500  0.1911
   67DG     C18 1536   4.277   5.104   4.275  0.3912 -0.2451 -0.5426
   67DG     O19 1537   4.194   5.095   4.391  0.4570  0.7913  0.3305
   67DG     H20 1538   4.102   4.991   4.526  1.1416 -0.3252  2.4141
   67DG     H21 1539   4.164   4.886   4.391 -1.5879  0.9964 -0.0634
   67DG     H22 1540   4.255   5.021   4.208  0.3091 -0.7787  0.1296
   67DG     H23 1541   4.379   5.083   4.308  0.7306  0.5286 -1.0956
   68DG      C1 1542   4.495   4.964   0.069  0.1339  0.0037 -0.0282
   68DG      C2 1543   4.755   5.505   0.358 -0.2844  0.1889  0.0191
   68DG      H3 1544   4.441   5.005   0.154 -0.7089 -0.7281 -0.2019
   68DG      H4 1545   4.543   4.868   0.085  1.6140  0.0882 -3.2667
   68DG      H5 1546   4.427   4.951  -0.015  1.1818  1.5959 -1.1733
   68DG      H6 1547   4.806   5.599   0.379 -0.3853 -0.2580  2.7088
   68DG      H7 1548   4.692   5.481   0.444 -0.8857 -1.1967 -0.7653
   68DG      H8 1549   4.823   5.420   0.360 -0.9704 -0.3798 -0.2065
   68DG      O9 1550   4.595   5.055   0.039  0.6335 -0.0655  0.5488
   68DG     O10 1551   4.676   5.496   0.242  0.1197  0.1617 -0.0383
   68DG     C11 1552   4.701   5.062   0.139  0.1787  0.4165  0.0690
   68DG     C12 1553   4.756   5.515   0.123  0.4240  0.8716 -0.3913
   68DG     H13 1554   4.741   4.961   0.150  1.9418  1.0087 -0.4263
   68DG     H14 1555   4.671   5.097   0.238  4.3653  0.2510  1.6011
   68DG     H15 1556   4.811   5.609   0.126  3.3496 -0.7501  1.1851
   68DG     H16 1557   4.691   5.539   0.039 -0.9317  2.0013  0.9237
   68DG     C17 1558   4.821   5.159   0.106  0.1589  0.1807  0.4438
   68DG     C18 1559   4.845   5.394   0.091  0.4984  0.8592 -0.4943
   68DG     O19 1560   4.759   5.282   0.084 -0.5417  0.4898 -0.4968
   68DG     H20 1561   4.878   5.140   0.015  0.6665  0.2069  0.7561
   68DG     H21 1562   4.886   5.156   0.193  0.4202  2.0090  0.3511
   68DG     H22 1563   4.895   5.425  -0.001 -1.9464  0.3249 -2.1073
   68DG     H23 1564   4.915   5.380   0.173  0.2332 -1.2089 -0.5841
   69DG      C1 1565   1.805   3.186   1.600  0.5715  0.0547 -0.4076
   69DG      C2 1566   1.921   3.022   0.975 -0.3109 -0.3340  0.5559
   69DG      H3 1567   1.867   3.276   1.593  0.1721  0.8483  3.6245
   69DG      H4 1568   1.869   3.103   1.629 -0.1552  0.2978  2.2199
   69DG      H5 1569   1.735   3.200   1.683 -0.5119  1.8786 -1.5693
   69DG      H6 1570   1.954   3.125   0.957  2.0581 -0.9372  1.1195
   69DG      H7 1571   2.003   2.970   1.025  1.7501  3.0167  0.9985
   69DG      H8 1572   1.897   2.992   0.873 -1.7144  1.3207  0.3525
   69DG      O9 1573   1.733   3.154   1.484  0.0139 -0.0404 -0.2432
   69DG     O10 1574   1.809   3.027   1.050 -0.0303  0.0193 -0.4241
   69DG     C11 1575   1.644   3.047   1.498  0.7317  0.0694 -0.3095
   69DG     C12 1576   1.745   2.900   1.054  0.1501 -0.8037 -0.1203
   69DG     H13 1577   1.560   3.069   1.565  1.5001  1.2589  0.3069
   69DG     H14 1578   1.683   2.950   1.527 -2.1861 -1.1904 -0.1933
   69DG     H15 1579   1.807   2.812   1.071 -2.0235 -2.7020 -1.3708
   69DG     H16 1580   1.690   2.880   0.962  0.2136  0.4266 -0.4399
   69DG     C17 1581   1.575   3.026   1.364  0.4462  0.6031  0.3764
   69DG     C18 1582   1.630   2.927   1.156  0.0192  0.0977 -0.3012
   69DG     O19 1583   1.675   2.976   1.282 -0.0029 -0.0420 -0.1298
   69DG     H20 1584   1.543   3.126   1.336  0.4656  2.2072  5.1167
   69DG     H21 1585   1.490   2.959   1.376  0.3691  0.2929 -1.5795
   69DG     H22 1586   1.571   3.009   1.117  1.2615  1.2808  0.2126
   69DG     H23 1587   1.558   2.846   1.167 -0.1155  0.2726  0.1200
   70DG      C1 1588   2.605   3.298   0.967 -0.0747  0.3305 -0.5361
   70DG      C2 1589   2.624   3.153   1.669 -0.1341  0.2492  0.0406
   70DG      H3 1590   2.687   3.228   0.955 -1.5913 -1.4907 -0.8047
   70DG      H4 1591   2.621   3.384   0.902 -0.6258  0.5473 -0.3933
   70DG      H5 1592   2.522   3.261   0.907  0.9492 -2.4524 -0.3826
   70DG      H6 1593   2.592   3.050   1.657  1.4513 -0.3690  0.7586
   70DG      H7 1594   2.733   3.153   1.669 -0.1279  0.1766  0.7662
   70DG      H8 1595   2.602   3.194   1.768  0.9639 -0.6136  0.6651
   70DG      O9 1596   2.573   3.314   1.105  0.0685  0.3711 -0.2528
   70DG     O10 1597   2.558   3.219   1.567 -0.1641  0.0821 -0.1388
   70DG     C11 1598   2.443   3.371   1.120  0.3293  0.2844 -0.2972
   70DG     C12 1599   2.552   3.361   1.590 -0.5781  0.9029 -0.1507
   70DG     H13 1600   2.370   3.290   1.123 -2.6616  2.8142  2.1454
   70DG     H14 1601   2.422   3.435   1.034 -0.6668 -2.7815 -2.5173
   70DG     H15 1602   2.656   3.394   1.596 -0.4236  0.3662  0.2936
   70DG     H16 1603   2.504   3.384   1.684  1.1238 -0.4149  1.1145
   70DG     C17 1604   2.429   3.451   1.245  0.2675 -0.6030  0.4738
   70DG     C18 1605   2.481   3.437   1.483 -0.6487  0.2265  0.0874
   70DG     O19 1606   2.512   3.400   1.347  0.0771  0.6954 -0.2197
   70DG     H20 1607   2.323   3.449   1.269 -0.0420 -1.1948 -0.8155
   70DG     H21 1608   2.443   3.556   1.219 -0.3480 -0.6021  0.1132
   70DG     H22 1609   2.379   3.398   1.493 -0.6182  0.4549  1.5261
   70DG     H23 1610   2.487   3.546   1.488 -0.5538  0.1617  2.3391
   71DG      C1 1611   3.066   3.205   5.442  0.2313  0.1210  0.1485
   71DG      C2 1612   3.402   3.610   5.953  0.1535  0.0848  0.5541
   71DG      H3 1613   3.006   3.296   5.433 -0.6430 -0.2662  1.7074
   71DG      H4 1614   3.012   3.138   5.509  1.5790 -0.3157  0.8265
   71DG      H5 1615   3.076   3.152   5.347  0.9360  1.4611 -0.5538
   71DG      H6 1616   3.485   3.678   5.973 -0.8059  1.3167  0.4338
   71DG      H7 1617   3.312   3.664   5.983 -1.2546 -2.1523  0.5681
   71DG      H8 1618   3.394   3.527   6.023 -1.0330  0.1239  0.4802
   71DG      O9 1619   3.196   3.229   5.480  0.1325 -0.3742 -0.9052
   71DG     O10 1620   3.388   3.565   5.821  0.1807 -0.1475  0.5374
   71DG     C11 1621   3.268   3.310   5.391  0.4055 -0.5546  0.2695
   71DG     C12 1622   3.472   3.455   5.796 -0.3229  0.7295 -0.0600
   71DG     H13 1623   3.218   3.406   5.378  1.6417  0.1793  0.8108
   71DG     H14 1624   3.266   3.259   5.294  0.7629 -0.7240  0.3482
   71DG     H15 1625   3.412   3.367   5.821 -1.0520  1.2318 -0.0093
   71DG     H16 1626   3.559   3.460   5.861 -0.9026 -0.1415  0.8032
   71DG     C17 1627   3.406   3.328   5.449  0.1040 -0.0746  0.1197
   71DG     C18 1628   3.506   3.430   5.641 -0.4838 -0.1042 -0.4096
   71DG     O19 1629   3.388   3.402   5.569  0.4230  0.1295  0.7992
   71DG     H20 1630   3.464   3.380   5.374  2.2523 -1.2934  0.8471
   71DG     H21 1631   3.460   3.234   5.461  0.3992 -0.0625 -0.9930
   71DG     H22 1632   3.554   3.520   5.603 -1.1177  0.7537  0.7760
   71DG     H23 1633   3.570   3.343   5.655 -0.3907  0.2583  1.7169
   72DG      C1 1634   4.616   2.576   1.154  0.0086  0.2535  0.2147
   72DG      C2 1635   5.298   2.484   1.333 -0.2944  0.2107  0.6772
   72DG      H3 1636   4.627   2.623   1.056 -0.7550 -1.5733 -0.8002
   72DG      H4 1637   4.515   2.566   1.195  0.1287 -1.3653  0.1832
   72DG      H5 1638   4.637   2.472   1.130 -1.5279 -0.0794  0.2209
   72DG      H6 1639   5.335   2.384   1.310 -0.0398  0.6952 -1.1666
   72DG      H7 1640   5.332   2.555   1.257 -0.3075  0.5003  0.9411
   72DG      H8 1641   5.350   2.525   1.420  0.0665  3.2277 -0.8450
   72DG      O9 1642   4.693   2.643   1.247  0.1217  0.0999 -0.1946
   72DG     O10 1643   5.160   2.489   1.335  0.0304  0.4107 -0.5333
   72DG     C11 1644   4.678   2.585   1.376 -0.2752  0.0165 -0.3250
   72DG     C12 1645   5.101   2.419   1.443 -0.0687 -0.6433 -0.3656
   72DG     H13 1646   4.688   2.479   1.353 -2.8612 -0.5792  0.9220
   72DG     H14 1647   4.583   2.596   1.428 -1.3641 -3.1374 -1.4158
   72DG     H15 1648   5.131   2.465   1.537 -0.7724  0.4311 -0.6505
   72DG     H16 1649   5.130   2.314   1.446  0.1042 -0.7193 -2.6580
   72DG     C17 1650   4.794   2.635   1.464  0.4642  0.0380 -0.3948
   72DG     C18 1651   4.948   2.444   1.438  0.1482 -0.6133 -0.4939
   72DG     O19 1652   4.921   2.578   1.430 -0.2450  0.1420  0.1393
   72DG     H20 1653   4.769   2.609   1.567 -0.7892 -0.9764 -0.9259
   72DG     H21 1654   4.802   2.744   1.465 -1.5647  0.3033  3.0114
   72DG     H22 1655   4.905   2.393   1.352  2.3169 -2.9621 -0.2933
   72DG     H23 1656   4.894   2.410   1.527 -2.1471 -0.6797 -1.8180
   73DG      C1 1657   4.661   0.129   1.020 -0.3214 -1.0132 -0.0783
   73DG      C2 1658   4.452  -0.216   0.449 -0.4568 -0.3227 -0.8180
   73DG      H3 1659   4.563   0.138   1.067 -0.0260  1.2939  0.2268
   73DG      H4 1660   4.657   0.200   0.937 -1.4691 -1.5172 -0.4731
   73DG      H5 1661   4.730   0.163   1.097 -0.7214 -0.3371 -0.0079
   73DG      H6 1662   4.388  -0.142   0.497  1.2976 -0.3954  1.9025
   73DG      H7 1663   4.492  -0.200   0.349  1.3352  3.4277  0.3277
   73DG      H8 1664   4.390  -0.306   0.450 -1.2798  0.2379 -0.6212
   73DG      O9 1665   4.672   0.002   0.969 -0.4118 -0.2913  0.7806
   73DG     O10 1666   4.555  -0.253   0.536 -0.4745 -0.6584 -0.2250
   73DG     C11 1667   4.802  -0.033   0.924 -0.0105 -0.6030  0.1915
   73DG     C12 1668   4.503  -0.298   0.665  0.2364  0.2355  0.0539
   73DG     H13 1669   4.876  -0.049   1.003  0.8036  0.1202 -0.4155
   73DG     H14 1670   4.847   0.043   0.862 -0.2661  0.8952  1.7712
   73DG     H15 1671   4.467  -0.401   0.661 -0.8089  0.5972 -0.2686
   73DG     H16 1672   4.425  -0.241   0.715 -0.3648 -1.2252  0.8598
   73DG     C17 1673   4.793  -0.168   0.857  0.0320  0.4854  1.2559
   73DG     C18 1674   4.624  -0.297   0.755 -0.2624 -0.2048  0.0487
   73DG     O19 1675   4.672  -0.169   0.780  0.5115  0.0504 -0.1681
   73DG     H20 1676   4.801  -0.252   0.925  1.4838  1.3357  2.1950
   73DG     H21 1677   4.880  -0.193   0.795  0.8577  1.2743  2.0533
   73DG     H22 1678   4.624  -0.358   0.845  3.1092  1.4453  1.3240
   73DG     H23 1679   4.693  -0.352   0.690 -1.3452 -1.5599 -0.0067
   74DG      C1 1680   2.238   1.627   5.425  0.0324  0.6519  0.3043
   74DG      C2 1681   2.342   1.008   5.203  1.1923 -0.5617  0.6079
   74DG      H3 1682   2.232   1.660   5.321 -2.7859 -0.4200  0.0361
   74DG      H4 1683   2.344   1.620   5.449 -0.5282  0.2077  2.9508
   74DG      H5 1684   2.191   1.705   5.486  0.5989 -0.0767  1.7042
   74DG      H6 1685   2.298   1.033   5.107 -0.8801 -0.2634  1.5844
   74DG      H7 1686   2.441   1.052   5.219 -0.2901  2.0845  3.7409
   74DG      H8 1687   2.357   0.901   5.214 -0.0667 -0.7456  0.6409
   74DG      O9 1688   2.184   1.495   5.440  0.3392  0.2717  0.1350
   74DG     O10 1689   2.256   1.049   5.304  0.0280 -0.1757 -0.8110
   74DG     C11 1690   2.050   1.490   5.395  0.0634  0.0031 -0.1190
   74DG     C12 1691   2.115   1.036   5.277  0.1604  0.3826 -0.3705
   74DG     H13 1692   2.040   1.523   5.292  2.0889  0.0428 -0.3396
   74DG     H14 1693   1.980   1.557   5.445 -0.2402  1.2437 -2.1082
   74DG     H15 1694   2.084   0.932   5.277 -0.3173  0.5171  0.3660
   74DG     H16 1695   2.093   1.074   5.178 -0.7103  3.4415  0.8576
   74DG     C17 1696   1.987   1.350   5.417 -0.0325  0.0312  0.0060
   74DG     C18 1697   2.035   1.110   5.377  0.1859  0.0825  0.3522
   74DG     O19 1698   2.084   1.252   5.380 -0.0320  0.0284 -0.1993
   74DG     H20 1699   1.890   1.343   5.369  0.4149  2.1419 -1.3437
   74DG     H21 1700   1.966   1.359   5.524 -0.4011  1.2265 -0.1598
   74DG     H22 1701   1.931   1.119   5.346  0.0803 -1.1992  0.2646
   74DG     H23 1702   2.034   1.077   5.481 -0.9390 -0.0407  0.3143
   75DG      C1 1703   0.336   4.201   5.009 -0.1545 -0.0440 -0.5073
   75DG      C2 1704   0.352   4.994   4.644 -0.3441  0.0646 -0.3520
   75DG      H3 1705   0.247   4.198   4.946 -0.8411 -0.9129  0.4568
   75DG      H4 1706   0.317   4.165   5.110 -0.6504  1.6127  0.0108
   75DG      H5 1707   0.428   4.157   4.970 -0.8137  0.3158 -2.6225
   75DG      H6 1708   0.441   4.961   4.590  0.0087  1.8584 -0.9599
   75DG      H7 1709   0.267   4.958   4.586  0.0178 -0.6531 -0.4482
   75DG      H8 1710   0.357   5.102   4.658 -0.3785  0.1256 -0.7957
   75DG      O9 1711   0.364   4.335   5.020  0.9191 -0.0622 -0.4121
   75DG     O10 1712   0.346   4.945   4.772 -0.5018  0.1654  0.1873
   75DG     C11 1713   0.260   4.411   5.076  0.2812 -0.9723  0.6093
   75DG     C12 1714   0.321   4.804   4.775  0.3835  0.1956 -0.2424
   75DG     H13 1715   0.253   4.382   5.180  2.2967 -0.5011  0.9157
   75DG     H14 1716   0.163   4.401   5.028 -0.0433 -0.0878  1.0610
   75DG     H15 1717   0.414   4.761   4.737 -0.1672 -1.3735  0.1261
   75DG     H16 1718   0.241   4.775   4.708 -1.2079  2.0792  0.7355
   75DG     C17 1719   0.292   4.561   5.066  0.3246 -0.9826  0.1645
   75DG     C18 1720   0.300   4.758   4.919  0.4570 -0.0890 -0.2935
   75DG     O19 1721   0.285   4.618   4.932  0.0357  0.6580  0.2181
   75DG     H20 1722   0.390   4.578   5.109 -1.9093  0.1977  5.5260
   75DG     H21 1723   0.230   4.626   5.128  1.5434  1.9869 -1.4843
   75DG     H22 1724   0.384   4.787   4.982 -0.5278  1.9505  0.1752
   75DG     H23 1725   0.216   4.811   4.965 -1.5358 -2.5931 -0.7693
   76DG      C1 1726   2.225   1.343   2.962 -0.7056 -0.0894  0.1973
   76DG      C2 1727   2.049   1.370   2.350 -0.0999 -0.4756 -0.5813
   76DG      H3 1728   2.330   1.356   2.987 -1.1392  2.3186  0.9250
   76DG      H4 1729   2.185   1.300   3.054 -0.5684 -0.2408  0.1872
   76DG      H5 1730   2.168   1.435   2.956  0.4211  0.5517 -2.6876
   76DG      H6 1731   2.052   1.332   2.248  0.4354 -2.2089  0.0420
   76DG      H7 1732   1.953   1.410   2.384  0.5443 -0.3481  1.1822
   76DG      H8 1733   2.119   1.453   2.353  0.7294 -1.1856  0.7392
   76DG      O9 1734   2.209   1.269   2.840  0.5361  0.6142  0.2674
   76DG     O10 1735   2.082   1.274   2.445 -0.3157  0.0580  0.1439
   76DG     C11 1736   2.246   1.138   2.854  0.0041 -0.0744 -0.2089
   76DG     C12 1737   1.993   1.169   2.457 -0.3020 -0.6224  0.1347
   76DG     H13 1738   2.204   1.076   2.933  1.9432 -1.1826  0.0019
   76DG     H14 1739   2.352   1.141   2.881  0.1742  0.0529 -0.8650
   76DG     H15 1740   1.965   1.126   2.360  2.3332  0.9821 -1.4468
   76DG     H16 1741   1.904   1.197   2.514 -1.3154 -0.4707 -1.4583
   76DG     C17 1742   2.224   1.077   2.717 -0.5308 -0.0988 -0.0981
   76DG     C18 1743   2.064   1.056   2.537  0.5366 -0.4190  0.2340
   76DG     O19 1744   2.101   1.125   2.658 -0.2873  0.1097  0.6041
   76DG     H20 1745   2.213   0.969   2.731  3.2682 -0.8683 -1.7855
   76DG     H21 1746   2.312   1.087   2.655 -0.3205  0.0097  0.2156
   76DG     H22 1747   2.013   0.966   2.570 -0.8517  0.3096  0.1307
   76DG     H23 1748   2.154   1.024   2.484  0.8507  0.7652  0.0112
   77DG      C1 1749   3.680   1.287   0.696 -0.3843 -0.8061  0.5121
   77DG      C2 1750   3.761   0.572   0.571  0.3960  0.4141 -0.2551
   77DG      H3 1751   3.742   1.315   0.610 -1.8392  0.3446 -0.2112
   77DG      H4 1752   3.698   1.367   0.767 -0.2920  1.4853 -1.9462
   77DG      H5 1753   3.577   1.277   0.662 -0.2411 -0.7687  0.0598
   77DG      H6 1754   3.743   0.471   0.609 -1.8579  1.0843  0.6824
   77DG      H7 1755   3.661   0.612   0.551 -0.7287 -1.2007  1.7302
   77DG      H8 1756   3.811   0.564   0.475  0.3132 -2.4162 -0.1485
   77DG      O9 1757   3.710   1.159   0.748 -0.3093 -0.0558 -0.2529
   77DG     O10 1758   3.826   0.663   0.661  0.1239  0.4386  0.0657
   77DG     C11 1759   3.843   1.144   0.796  0.1007  0.7967 -0.6276
   77DG     C12 1760   3.757   0.681   0.784 -0.2107  0.0860 -0.7521
   77DG     H13 1761   3.869   1.222   0.867  0.1016  0.2760 -0.0428
   77DG     H14 1762   3.904   1.150   0.706  1.1089 -0.7643 -0.1034
   77DG     H15 1763   3.766   0.593   0.847  0.5402  0.9415  0.3829
   77DG     H16 1764   3.656   0.720   0.770 -0.1974  0.5271  0.2541
   77DG     C17 1765   3.857   1.009   0.878  0.3783 -0.9447  0.5289
   77DG     C18 1766   3.837   0.780   0.859 -0.5054  0.5888  0.1084
   77DG     O19 1767   3.798   0.906   0.803  0.0278  0.4988  0.6466
   77DG     H20 1768   3.810   1.022   0.976 -1.3709 -1.5355 -0.1975
   77DG     H21 1769   3.959   0.983   0.904  0.3631 -1.2576  0.2811
   77DG     H22 1770   3.817   0.789   0.966  0.3040  1.1426  0.2196
   77DG     H23 1771   3.940   0.749   0.842 -0.7427 -1.1438  1.5206
   78DG      C1 1772   2.629   4.644   2.392  0.3840  0.1876 -0.4646
   78DG      C2 1773   3.124   5.094   2.247  0.6523  0.2602 -0.0775
   78DG      H3 1774   2.691   4.613   2.476  2.4334 -0.9417 -2.3187
   78DG      H4 1775   2.630   4.572   2.311  0.6756  0.9608 -1.1645
   78DG      H5 1776   2.527   4.647   2.430  0.3969  1.2057 -0.4800
   78DG      H6 1777   3.152   5.073   2.350  0.4675 -1.0840 -0.2820
   78DG      H7 1778   3.186   5.038   2.177 -1.1126 -0.0590 -1.4574
   78DG      H8 1779   3.153   5.198   2.237  0.1551  0.2897 -1.4632
   78DG      O9 1780   2.666   4.773   2.342 -0.0146 -0.6009  0.1490
   78DG     O10 1781   2.980   5.076   2.237  0.0317 -0.6010  0.7943
   78DG     C11 1782   2.585   4.814   2.221 -0.0915  0.6101 -0.8414
   78DG     C12 1783   2.940   5.089   2.102 -0.4345 -0.1430 -0.1501
   78DG     H13 1784   2.477   4.798   2.226 -0.3398  2.3744  0.7615
   78DG     H14 1785   2.614   4.737   2.150 -0.3223  0.2750 -0.5765
   78DG     H15 1786   2.976   5.003   2.046 -0.9403 -1.1106  0.9663
   78DG     H16 1787   2.972   5.181   2.054 -0.0794  0.3099  0.9178
   78DG     C17 1788   2.610   4.953   2.161  0.2321  0.7781 -0.4333
   78DG     C18 1789   2.788   5.078   2.080  0.8794  0.6289 -0.5772
   78DG     O19 1790   2.750   4.972   2.168 -0.0567 -0.1472 -0.4098
   78DG     H20 1791   2.553   5.029   2.214 -0.5937 -0.5560  0.6700
   78DG     H21 1792   2.555   4.960   2.067 -2.2305  0.8614  0.9129
   78DG     H22 1793   2.743   5.168   2.120 -1.6956 -1.1419  0.8116
   78DG     H23 1794   2.757   5.067   1.977 -1.2117 -2.3642  0.2433
   79DG      C1 1795   5.101   1.277   4.705  0.0247  0.0606 -0.0217
   79DG      C2 1796   5.340   0.589   4.354 -1.1421  0.2467  0.5929
   79DG      H3 1797   5.042   1.192   4.741 -0.6554  0.1937 -0.8151
   79DG      H4 1798   5.039   1.363   4.683 -0.4884  0.1635  1.6743
   79DG      H5 1799   5.182   1.292   4.777  1.8031  0.6302 -2.0200
   79DG      H6 1800   5.370   0.526   4.271 -1.2310  2.1437 -0.9367
   79DG      H7 1801   5.415   0.578   4.433  1.2180  0.9360 -1.4340
   79DG      H8 1802   5.251   0.557   4.409 -1.6231  2.7143  1.4053
   79DG      O9 1803   5.179   1.255   4.589  0.2685  0.3879 -0.1360
   79DG     O10 1804   5.332   0.721   4.315 -0.6994 -0.6284  0.0900
   79DG     C11 1805   5.251   1.129   4.592  0.6849 -0.1424  0.1139
   79DG     C12 1806   5.459   0.795   4.311  0.4549 -0.2858  0.0452
   79DG     H13 1807   5.191   1.052   4.641  0.4233 -0.2656 -0.3924
   79DG     H14 1808   5.339   1.154   4.652  0.4243  0.6813  0.1668
   79DG     H15 1809   5.518   0.776   4.222  0.0748  0.3932 -0.3573
   79DG     H16 1810   5.524   0.774   4.396 -1.0348  1.3919  1.7184
   79DG     C17 1811   5.296   1.090   4.452  0.1722  0.2298 -0.3447
   79DG     C18 1812   5.412   0.940   4.325 -0.5478 -0.2771 -0.0253
   79DG     O19 1813   5.367   0.964   4.448 -0.1301 -0.6820 -0.2713
   79DG     H20 1814   5.350   1.168   4.398 -2.7629  2.0963 -0.7965
   79DG     H21 1815   5.208   1.070   4.391  0.0763 -1.8882  0.4109
   79DG     H22 1816   5.488   1.014   4.301 -1.2196  0.4072 -0.0867
   79DG     H23 1817   5.335   0.959   4.250  0.5149  0.2168 -1.0262
   80DG      C1 1818   4.221   1.635   2.735 -0.5762  0.3139  0.0747
   80DG      C2 1819   4.788   1.376   2.770  0.4867 -0.4137  0.6240
   80DG      H3 1820   4.248   1.534   2.701  1.7646  1.0155 -0.3311
   80DG      H4 1821   4.125   1.669   2.696 -1.0813 -1.7368 -0.6343
   80DG      H5 1822   4.208   1.627   2.843 -0.9027  1.2962  0.1104
   80DG      H6 1823   4.819   1.446   2.848  0.9206  2.5746 -2.0025
   80DG      H7 1824   4.729   1.290   2.803  1.3672 -1.3407 -0.1610
   80DG      H8 1825   4.878   1.334   2.726 -0.3208 -0.6010 -0.9377
   80DG      O9 1826   4.328   1.717   2.707  0.0861 -0.1265  0.1455
   80DG     O10 1827   4.732   1.461   2.674  0.2145 -0.1312  0.1986
   80DG     C11 1828   4.344   1.759   2.573  0.0624  0.0455 -0.7744
   80DG     C12 1829   4.655   1.397   2.580  0.1701  0.2343  0.4796
   80DG     H13 1830   4.421   1.836   2.572 -0.4570  0.5925 -2.6901
   80DG     H14 1831   4.258   1.795   2.516  0.5349  1.0485 -0.8832
   80DG     H15 1832   4.589   1.323   2.624 -0.5348  0.5269 -0.0776
   80DG     H16 1833   4.721   1.335   2.519 -0.0597  0.1041  0.3644
   80DG     C17 1834   4.411   1.644   2.491 -0.1809 -0.1034 -0.3833
   80DG     C18 1835   4.588   1.492   2.490  0.2629 -0.3795  0.4551
   80DG     O19 1836   4.501   1.577   2.567  0.4108 -0.0048 -0.3795
   80DG     H20 1837   4.461   1.693   2.408  1.7564  2.5369  2.1552
   80DG     H21 1838   4.332   1.576   2.457  1.7281 -1.6707 -1.9768
   80DG     H22 1839   4.661   1.549   2.431 -0.1868 -0.5863 -0.3189
   80DG     H23 1840   4.530   1.438   2.415  0.4681  1.6793 -1.2745
   81DG      C1 1841   2.128   0.661   0.637  0.2279  0.4010  0.4511
   81DG      C2 1842   2.148   0.300   0.106 -0.4527  0.0954  0.3350
   81DG      H3 1843   2.108   0.741   0.709  0.2990 -1.4781  2.7065
   81DG      H4 1844   2.236   0.648   0.629  0.4748  0.4946  2.8820
   81DG      H5 1845   2.103   0.583   0.709 -0.1087 -0.1912 -0.3066
   81DG      H6 1846   2.235   0.366   0.108 -0.1625 -0.2918  1.9102
   81DG      H7 1847   2.179   0.205   0.150  1.3284  0.4326 -0.1311
   81DG      H8 1848   2.135   0.276   0.001  0.7825 -0.6674  0.3329
   81DG      O9 1849   2.057   0.651   0.518 -0.3014 -0.2434  0.1882
   81DG     O10 1850   2.041   0.356   0.180 -0.0083 -0.3395  0.3971
   81DG     C11 1851   1.930   0.700   0.514 -0.3699 -0.7669  0.1440
   81DG     C12 1852   1.978   0.457   0.106  0.7799 -0.2582  0.4258
   81DG     H13 1853   1.935   0.806   0.490  0.4605 -0.6719  0.7056
   81DG     H14 1854   1.873   0.686   0.606  1.8013  2.2692  2.1136
   81DG     H15 1855   1.931   0.419   0.016  0.3710  1.2614 -0.0280
   81DG     H16 1856   2.047   0.528   0.061  0.9296 -0.2627  0.6437
   81DG     C17 1857   1.847   0.629   0.399 -0.0257  0.0015 -0.7664
   81DG     C18 1858   1.866   0.518   0.190 -0.3805 -0.1245 -0.3874
   81DG     O19 1859   1.932   0.590   0.292  0.0558  0.0718 -0.6468
   81DG     H20 1860   1.772   0.701   0.368  0.3306  0.4873 -0.5071
   81DG     H21 1861   1.799   0.542   0.444 -1.4534  1.3814  0.4733
   81DG     H22 1862   1.789   0.572   0.134 -0.0729  0.8602  0.1133
   81DG     H23 1863   1.825   0.423   0.225  3.7244 -2.9387 -2.4888
   82DG      C1 1864   0.409   3.214   0.162 -0.3184  0.3788 -0.4627
   82DG      C2 1865   0.011   3.781   0.176  0.2691 -0.0396 -0.6036
   82DG      H3 1866   0.457   3.122   0.193 -0.1033  0.3669 -0.8277
   82DG      H4 1867   0.465   3.258   0.080  0.9812 -2.4010 -1.1783
   82DG      H5 1868   0.314   3.177   0.125  0.3796 -0.8027 -1.1147
   82DG      H6 1869  -0.003   3.878   0.223  0.9924 -0.0109 -0.4292
   82DG      H7 1870   0.033   3.805   0.072 -0.0338  1.1364 -0.4148
   82DG      H8 1871  -0.083   3.726   0.184  0.6844 -0.6261  0.4101
   82DG      O9 1872   0.400   3.316   0.257 -0.1680  0.2718 -0.1493
   82DG     O10 1873   0.116   3.714   0.236 -0.5019  0.3829  0.8359
   82DG     C11 1874   0.323   3.288   0.373 -0.4444 -0.3835  0.0660
   82DG     C12 1875   0.084   3.705   0.378  0.1373  0.1491 -0.3594
   82DG     H13 1876   0.377   3.210   0.426  2.1069  1.1642 -0.0869
   82DG     H14 1877   0.227   3.241   0.349 -1.7339  2.0760  0.0703
   82DG     H15 1878   0.001   3.634   0.381  0.2501 -0.0862 -2.1575
   82DG     H16 1879   0.038   3.789   0.431  0.2097 -0.0717  0.0574
   82DG     C17 1880   0.318   3.420   0.453  0.1859 -0.0852  0.5571
   82DG     C18 1881   0.187   3.622   0.457 -0.0179 -0.2173  0.5884
   82DG     O19 1882   0.237   3.511   0.376 -0.9272 -0.0186  0.3268
   82DG     H20 1883   0.417   3.463   0.465 -0.3211  1.7436 -1.2031
   82DG     H21 1884   0.272   3.392   0.548 -2.9831  0.5845 -0.6287
   82DG     H22 1885   0.273   3.681   0.487  0.5041 -0.7377  0.1541
   82DG     H23 1886   0.126   3.573   0.533 -0.6080  0.8129  0.7983
   83DG      C1 1887   1.112   1.164   0.342  0.3323  0.1268 -0.4609
   83DG      C2 1888   1.663   1.231  -0.262 -0.0902 -0.1151 -0.1454
   83DG      H3 1889   1.085   1.240   0.415  1.5159 -0.5204  0.7028
   83DG      H4 1890   1.107   1.063   0.385 -0.2444  0.2558 -0.2208
   83DG      H5 1891   1.025   1.170   0.277 -1.3738  0.0832  1.7088
   83DG      H6 1892   1.577   1.232  -0.330 -1.2842 -1.4739  1.2677
   83DG      H7 1893   1.735   1.293  -0.316 -0.8398  0.3577 -0.6395
   83DG      H8 1894   1.702   1.132  -0.241  0.3823  0.0478 -0.2336
   83DG      O9 1895   1.235   1.205   0.291  0.4506  0.4477  0.0839
   83DG     O10 1896   1.629   1.293  -0.140 -0.3755 -0.0682  0.2654
   83DG     C11 1897   1.351   1.175   0.372  0.5654  0.5417  0.2077
   83DG     C12 1898   1.529   1.235  -0.056 -0.4908 -0.2055  0.4797
   83DG     H13 1899   1.361   1.067   0.385 -1.5811  0.3455  0.4640
   83DG     H14 1900   1.349   1.210   0.475  0.7063  1.0892  0.0277
   83DG     H15 1901   1.556   1.130  -0.051  0.7003  0.0240 -0.7705
   83DG     H16 1902   1.427   1.236  -0.097 -0.4133 -1.3516  0.2129
   83DG     C17 1903   1.465   1.244   0.301 -0.5394  0.2781  0.1047
   83DG     C18 1904   1.534   1.299   0.081 -0.1935  1.0169 -0.4124
   83DG     O19 1905   1.443   1.223   0.164 -0.4321  0.5817  0.5502
   83DG     H20 1906   1.556   1.203   0.345 -2.1072 -0.9176  2.4561
   83DG     H21 1907   1.479   1.350   0.325 -0.1046  0.6497 -1.6255
   83DG     H22 1908   1.633   1.302   0.126  0.0842 -2.5459 -0.4665
   83DG     H23 1909   1.499   1.402   0.083 -0.8440  0.9729  5.1006
   84DG      C1 1910   5.081   0.766   4.593  0.2065  0.7534  0.1990
   84DG      C2 1911   4.460   0.959   4.917  0.4205  0.3319 -0.3574
   84DG      H3 1912   5.043   0.676   4.544 -0.6618  0.0856  2.0192
   84DG      H4 1913   5.103   0.748   4.698  0.2032  2.5047  0.5248
   84DG      H5 1914   5.171   0.801   4.542  0.9423 -0.4798  0.5938
   84DG      H6 1915   4.389   1.025   4.867 -1.1145 -0.5278  0.6178
   84DG      H7 1916   4.405   0.864   4.914 -1.2594  1.1406  2.0592
   84DG      H8 1917   4.465   0.978   5.024  1.7701  0.1541 -0.3726
   84DG      O9 1918   4.974   0.854   4.578  0.3849  0.4432 -0.1177
   84DG     O10 1919   4.584   0.969   4.852  0.1393 -0.4353  0.3900
   84DG     C11 1920   4.847   0.809   4.631 -0.1310  0.1917  0.0031
   84DG     C12 1921   4.646   1.093   4.871  0.1814 -1.2606  0.0306
   84DG     H13 1922   4.852   0.771   4.732 -1.3309  0.9729  0.3774
   84DG     H14 1923   4.804   0.734   4.565 -1.2542 -0.5930  1.5780
   84DG     H15 1924   4.714   1.091   4.957  0.6155  3.2939  0.0551
   84DG     H16 1925   4.588   1.180   4.903  1.2052 -0.2229 -0.8329
   84DG     C17 1926   4.763   0.932   4.622  0.4551 -0.2359  0.8981
   84DG     C18 1927   4.728   1.124   4.748  0.2406  0.0604 -0.1804
   84DG     O19 1928   4.812   1.014   4.722 -0.5447 -0.1706  0.0709
   84DG     H20 1929   4.661   0.904   4.647 -0.2763  2.1104  0.8465
   84DG     H21 1930   4.762   0.981   4.524  0.4752  0.0324  1.0316
   84DG     H22 1931   4.650   1.151   4.677  1.2252 -1.7024 -2.0297
   84DG     H23 1932   4.789   1.213   4.760  0.2612  0.0424 -0.1493
   85DG      C1 1933   1.602   4.511   3.866 -0.0109  0.5150 -0.0521
   85DG      C2 1934   1.456   5.290   3.761 -0.6397 -0.4103  0.1729
   85DG      H3 1935   1.575   4.463   3.772 -1.3428 -0.1418  0.6413
   85DG      H4 1936   1.547   4.459   3.943  2.1664 -1.3752  0.3306
   85DG      H5 1937   1.706   4.483   3.883 -0.2651 -0.5485 -0.1764
   85DG      H6 1938   1.461   5.246   3.860  2.2516  0.0813  0.3449
   85DG      H7 1939   1.561   5.293   3.732 -0.2032 -1.8358  1.4591
   85DG      H8 1940   1.405   5.386   3.761 -1.3786 -0.8011  0.7732
   85DG      O9 1941   1.595   4.655   3.881  0.2773  0.5289  0.1087
   85DG     O10 1942   1.382   5.199   3.677  0.2371  0.3370 -0.2375
   85DG     C11 1943   1.689   4.716   3.793 -0.9003  0.1688 -0.0976
   85DG     C12 1944   1.448   5.081   3.637  0.3500  0.8034 -0.0306
   85DG     H13 1945   1.694   4.660   3.700 -0.5940  1.5213 -0.9134
   85DG     H14 1946   1.789   4.722   3.836 -1.3441 -1.5109  1.2922
   85DG     H15 1947   1.553   5.106   3.628  1.2780 -2.9008 -1.3246
   85DG     H16 1948   1.428   5.056   3.533  3.5687  0.2973 -0.6186
   85DG     C17 1949   1.638   4.855   3.760  0.0942  0.2609 -0.1186
   85DG     C18 1950   1.422   4.966   3.736 -0.0889  0.2318 -0.6657
   85DG     O19 1951   1.498   4.843   3.721  0.1455 -0.5625 -0.7909
   85DG     H20 1952   1.698   4.892   3.678  0.9047 -1.3104 -0.2844
   85DG     H21 1953   1.653   4.922   3.845 -0.5117 -1.2451  1.2352
   85DG     H22 1954   1.433   5.002   3.839 -0.2659  0.4089 -0.7088
   85DG     H23 1955   1.320   4.930   3.722 -0.0353 -0.0618 -0.3276
   86DG      C1 1956   0.526   1.676   0.653 -0.6292  0.1747  0.8292
   86DG      C2 1957  -0.173   2.090   0.595 -0.0435  0.8789  0.2931
   86DG      H3 1958   0.521   1.695   0.546 -0.3697  0.4486  0.8630
   86DG      H4 1959   0.601   1.597   0.665 -0.5137  0.1052 -0.2821
   86DG      H5 1960   0.553   1.767   0.707 -1.0394 -0.0859  1.4878
   86DG      H6 1961  -0.265   2.039   0.566 -0.9970  0.8120  3.0704
   86DG      H7 1962  -0.189   2.131   0.695  0.6433 -2.9989  2.2009
   86DG      H8 1963  -0.121   2.160   0.530  1.5289 -0.0301  0.5321
   86DG      O9 1964   0.406   1.617   0.700 -0.1355 -0.6273 -0.2026
   86DG     O10 1965  -0.091   1.976   0.605 -0.4521  0.2323  0.0881
   86DG     C11 1966   0.303   1.716   0.708 -0.4117  0.2343  0.0045
   86DG     C12 1967  -0.144   1.883   0.700 -0.3578 -0.0166 -0.3380
   86DG     H13 1968   0.309   1.785   0.624  1.8040  1.1366  0.8390
   86DG     H14 1969   0.331   1.767   0.800  0.8397 -1.4737  0.6290
   86DG     H15 1970  -0.250   1.857   0.699 -0.0553 -1.3202 -1.0808
   86DG     H16 1971  -0.120   1.937   0.791  2.6391  1.2378 -1.7300
   86DG     C17 1972   0.156   1.666   0.718  0.5144 -0.1103 -0.4327
   86DG     C18 1973  -0.066   1.754   0.689 -0.0462  0.1991 -0.1494
   86DG     O19 1974   0.069   1.782   0.715 -0.3332  0.3128  0.0880
   86DG     H20 1975   0.133   1.616   0.812  2.2849  0.6930  0.4897
   86DG     H21 1976   0.137   1.607   0.629  3.0384 -1.1622 -0.3564
   86DG     H22 1977  -0.095   1.693   0.774 -1.1476  2.1090  0.9059
   86DG     H23 1978  -0.098   1.709   0.595 -0.0539  1.8385 -0.9782
   87DG      C1 1979   2.110   3.531   4.396 -0.5948  0.7016 -0.3464
   87DG      C2 1980   2.338   4.146   4.315 -0.0930 -0.0121  0.2671
   87DG      H3 1981   2.021   3.582   4.431  0.0378  0.9807  0.9160
   87DG      H4 1982   2.102   3.428   4.430  0.6327  0.5089 -0.5810
   87DG      H5 1983   2.117   3.537   4.287 -0.0977  1.0328 -0.3029
   87DG      H6 1984   2.305   4.225   4.383 -0.9417  0.3696 -0.5726
   87DG      H7 1985   2.399   4.195   4.239  0.7808 -0.6624  0.5278
   87DG      H8 1986   2.251   4.097   4.271  1.0985 -0.4751 -1.6772
   87DG      O9 1987   2.222   3.607   4.460  0.1724  0.2746  0.4175
   87DG     O10 1988   2.409   4.035   4.387 -0.1068  0.5415  0.5483
   87DG     C11 1989   2.341   3.533   4.428 -0.5526 -0.4114 -0.0005
   87DG     C12 1990   2.515   3.972   4.306  0.4583 -0.0177 -0.5654
   87DG     H13 1991   2.347   3.487   4.330 -1.5790 -0.9597  0.1717
   87DG     H14 1992   2.354   3.439   4.482  1.8820  0.6067  1.3323
   87DG     H15 1993   2.600   4.040   4.303  0.7334 -0.3182  0.2726
   87DG     H16 1994   2.482   3.950   4.205  0.4228  0.2369 -0.6087
   87DG     C17 1995   2.463   3.627   4.457  0.2372 -0.0113 -0.6218
   87DG     C18 1996   2.554   3.838   4.381  0.1499  0.4889  0.1530
   87DG     O19 1997   2.442   3.743   4.378 -0.1902 -0.7847 -0.2921
   87DG     H20 1998   2.559   3.578   4.437  0.5380  0.6090 -0.7317
   87DG     H21 1999   2.473   3.662   4.560 -0.8166 -0.3324 -0.4046
   87DG     H22 2000   2.630   3.779   4.328 -1.0998 -2.9401  1.8406
   87DG     H23 2001   2.595   3.863   4.479  1.0854 -1.2592  0.2592
   88DG      C1 2002   4.671   1.283   1.384 -0.0318 -0.2525  0.3933
   88DG      C2 2003   5.325   1.339   1.312  0.1150  0.0285 -0.3587
   88DG      H3 2004   4.675   1.312   1.279  1.4435  0.7588  0.6885
   88DG      H4 2005   4.635   1.373   1.432 -1.0365 -0.4093 -0.0545
   88DG      H5 2006   4.593   1.210   1.405 -0.4722  1.1516  4.2339
   88DG      H6 2007   5.333   1.442   1.346  0.3166  0.4007 -1.4669
   88DG      H7 2008   5.424   1.293   1.318  1.2010  2.0959 -1.2725
   88DG      H8 2009   5.290   1.347   1.209 -1.0655  3.8728  0.1956
   88DG      O9 2010   4.792   1.240   1.439  0.2179  1.0671  0.7026
   88DG     O10 2011   5.224   1.267   1.383 -0.6548 -0.1362 -0.1684
   88DG     C11 2012   4.777   1.208   1.579 -0.2312 -0.4641  0.0388
   88DG     C12 2013   5.246   1.267   1.522  0.0939 -0.7027  0.4377
   88DG     H13 2014   4.687   1.154   1.609 -1.1551 -0.2318 -2.1086
   88DG     H14 2015   4.770   1.309   1.618  1.2969 -0.5522  0.5884
   88DG     H15 2016   5.230   1.362   1.572 -2.7402 -1.3551  0.9209
   88DG     H16 2017   5.346   1.226   1.537 -0.2424 -2.4247 -1.4495
   88DG     C17 2018   4.910   1.138   1.625 -0.5640  0.4608 -0.6093
   88DG     C18 2019   5.142   1.172   1.581 -0.1901 -0.3586  0.3875
   88DG     O19 2020   5.010   1.209   1.554 -0.0922  0.7940  0.2584
   88DG     H20 2021   4.907   1.034   1.593  0.6031  0.2340 -0.0577
   88DG     H21 2022   4.929   1.144   1.732 -1.7467 -0.7026 -0.3125
   88DG     H22 2023   5.166   1.072   1.546  0.1217 -0.0421 -0.3256
   88DG     H23 2024   5.159   1.170   1.688  0.4962 -2.2215  0.2831
   89DG      C1 2025   0.661   5.188   4.831 -0.3909 -0.1696  0.3229
   89DG      C2 2026   0.695   4.369   5.018  0.8942  1.2021 -0.5466
   89DG      H3 2027   0.617   5.212   4.928 -0.3267 -0.7893  0.5053
   89DG      H4 2028   0.588   5.132   4.773 -0.3292 -2.2371  2.1488
   89DG      H5 2029   0.682   5.281   4.778 -0.0809  0.2312  1.1415
   89DG      H6 2030   0.761   4.287   5.044 -1.8824 -0.4313  1.9239
   89DG      H7 2031   0.610   4.358   5.085  0.8344 -2.0129 -1.0076
   89DG      H8 2032   0.644   4.348   4.923 -1.5080 -0.0408  0.9312
   89DG      O9 2033   0.770   5.095   4.851 -0.3537  0.0570 -0.9048
   89DG     O10 2034   0.762   4.492   5.006  0.3948  0.2011  0.1597
   89DG     C11 2035   0.723   4.960   4.872  0.4553  0.0569 -0.2750
   89DG     C12 2036   0.780   4.559   5.139  0.0306  1.0843 -0.3238
   89DG     H13 2037   0.721   4.899   4.782  1.6666  0.1188 -0.3547
   89DG     H14 2038   0.618   4.961   4.902  0.2231  1.0951 -1.0766
   89DG     H15 2039   0.827   4.488   5.208 -0.7366  0.5175 -0.3709
   89DG     H16 2040   0.681   4.583   5.177  0.1242  0.0025  0.6800
   89DG     C17 2041   0.812   4.888   4.972  0.0007 -0.3954 -0.2545
   89DG     C18 2042   0.839   4.703   5.110  0.2025  0.7273 -0.6330
   89DG     O19 2043   0.754   4.773   5.022 -0.2034  0.4791  0.0629
   89DG     H20 2044   0.835   4.950   5.058 -0.3508  0.8229 -1.0100
   89DG     H21 2045   0.902   4.865   4.914  2.0886 -0.6243  2.8806
   89DG     H22 2046   0.855   4.767   5.197 -1.2740  1.5456 -0.9299
   89DG     H23 2047   0.931   4.679   5.058 -0.8488 -0.8817 -1.8141
   90DG      C1 2048   1.061   2.143   4.066  1.3018 -0.3147  0.8872
   90DG      C2 2049   1.384   2.364   4.499  0.8657  0.0873 -0.4986
   90DG      H3 2050   1.149   2.083   4.090  1.6725  0.2920  1.0991
   90DG      H4 2051   1.058   2.181   3.963 -1.6764 -0.5826  0.8044
   90DG      H5 2052   0.979   2.073   4.075  1.8048 -1.2541 -1.1427
   90DG      H6 2053   1.336   2.296   4.570  3.7290  0.8520  2.4099
   90DG      H7 2054   1.452   2.298   4.445  3.1058 -0.4760  2.7310
   90DG      H8 2055   1.441   2.434   4.559 -0.6620 -0.0426  1.1855
   90DG      O9 2056   1.071   2.246   4.153 -0.1975 -0.3218 -0.2409
   90DG     O10 2057   1.302   2.433   4.405  0.1324 -0.2303 -0.2211
   90DG     C11 2058   0.967   2.346   4.145  0.4534 -0.0072  0.3040
   90DG     C12 2059   1.204   2.516   4.466  0.6343  0.5621  0.9998
   90DG     H13 2060   0.865   2.309   4.158  0.3767 -0.7019 -1.9022
   90DG     H14 2061   0.956   2.396   4.049  0.1359  0.6825  0.6954
   90DG     H15 2062   1.248   2.579   4.543  1.1461 -1.4020  2.3837
   90DG     H16 2063   1.139   2.449   4.522  0.4048 -0.5572 -0.5376
   90DG     C17 2064   0.986   2.447   4.258 -0.3136 -0.5684  0.1905
   90DG     C18 2065   1.127   2.595   4.360 -0.2129 -0.0103 -0.5821
   90DG     O19 2066   1.111   2.511   4.248  0.1989  0.5281  0.1972
   90DG     H20 2067   0.984   2.391   4.351  1.9948 -0.5770  0.3076
   90DG     H21 2068   0.910   2.525   4.249 -1.5704 -1.8633 -0.7635
   90DG     H22 2069   1.034   2.621   4.412 -1.1373 -2.4910 -0.8839
   90DG     H23 2070   1.183   2.681   4.321  1.6393 -1.0861 -0.3872
   91DG      C1 2071   0.598   3.468   4.068 -0.1164 -0.7074 -0.6258
   91DG      C2 2072   1.268   3.205   3.847 -0.0882  0.7885 -0.4220
   91DG      H3 2073   0.559   3.374   4.030 -0.5420 -0.4609 -0.8086
   91DG      H4 2074   0.526   3.547   4.043 -0.2213 -1.2202 -2.0754
   91DG      H5 2075   0.597   3.453   4.176 -0.6952  0.5192 -0.4376
   91DG      H6 2076   1.218   3.108   3.855  0.0604  0.8205  1.3932
   91DG      H7 2077   1.348   3.201   3.773  0.8961 -0.2758  0.6632
   91DG      H8 2078   1.307   3.235   3.944  1.0320 -1.2597 -0.1685
   91DG      O9 2079   0.725   3.486   3.999  0.0079  0.2521 -0.3709
   91DG     O10 2080   1.172   3.290   3.801  0.2829 -0.0626  0.1503
   91DG     C11 2081   0.707   3.486   3.852 -0.5100  0.2992 -0.9887
   91DG     C12 2082   1.197   3.426   3.818 -0.1291 -0.2078  0.1604
   91DG     H13 2083   0.614   3.541   3.838 -0.9015  0.4747  1.7194
   91DG     H14 2084   0.677   3.390   3.809 -0.1833 -1.2287  1.9568
   91DG     H15 2085   1.287   3.452   3.763  0.5196 -0.4915  1.0648
   91DG     H16 2086   1.213   3.442   3.924 -0.5564 -2.0394  0.5474
   91DG     C17 2087   0.832   3.541   3.784 -0.3279 -0.3787  0.4872
   91DG     C18 2088   1.074   3.506   3.760 -0.1923 -0.7976  0.0107
   91DG     O19 2089   0.954   3.466   3.815  0.4502 -0.3862  0.1058
   91DG     H20 2090   0.854   3.645   3.807 -1.4864  0.3406 -1.4203
   91DG     H21 2091   0.831   3.522   3.676  1.3688  0.5120  0.2748
   91DG     H22 2092   1.095   3.612   3.777 -0.3676 -1.2831  4.1311
   91DG     H23 2093   1.071   3.507   3.651  1.7922 -2.0330 -0.0989
   92DG      C1 2094   1.375   1.865   3.306  0.6642 -0.0258 -0.3835
   92DG      C2 2095   1.825   1.390   3.819  0.2449  0.3397 -0.1354
   92DG      H3 2096   1.396   1.897   3.204  2.1112  0.7845  0.1442
   92DG      H4 2097   1.426   1.936   3.371  1.2677  1.1072 -2.0177
   92DG      H5 2098   1.266   1.869   3.319  0.7148 -0.2245  0.1329
   92DG      H6 2099   1.852   1.300   3.875 -1.3150  1.0105  1.8276
   92DG      H7 2100   1.913   1.449   3.796  0.5241  0.1962  0.5397
   92DG      H8 2101   1.750   1.434   3.886 -0.7745 -0.8204 -0.4885
   92DG      O9 2102   1.420   1.736   3.333 -0.1511  0.4595  0.1705
   92DG     O10 2103   1.767   1.349   3.692 -0.4965 -0.0974 -0.1960
   92DG     C11 2104   1.527   1.695   3.246 -1.1204  0.6414 -0.3023
   92DG     C12 2105   1.741   1.475   3.621  0.2498 -0.2269  0.2083
   92DG     H13 2106   1.596   1.779   3.243  0.3949 -0.5514 -0.2789
   92DG     H14 2107   1.498   1.689   3.141  1.6344 -2.4037 -1.0558
   92DG     H15 2108   1.839   1.519   3.605 -0.0143  0.5415  0.6831
   92DG     H16 2109   1.673   1.538   3.678  1.0971  1.7166 -0.8335
   92DG     C17 2110   1.594   1.563   3.293 -0.5887  0.0077 -0.1185
   92DG     C18 2111   1.685   1.453   3.480  0.1580  0.3337 -0.4138
   92DG     O19 2112   1.646   1.577   3.426 -0.0101 -0.1467 -0.3102
   92DG     H20 2113   1.676   1.537   3.225  0.3176  2.2088  0.0189
   92DG     H21 2114   1.518   1.485   3.291 -0.9863  0.3503  0.9924
   92DG     H22 2115   1.753   1.393   3.420 -2.5196 -4.2723  0.6910
   92DG     H23 2116   1.590   1.399   3.478  0.9907 -1.1588 -2.0185
   93DG      C1 2117   0.262   2.599   1.074 -0.4909  0.1955 -0.2072
   93DG      C2 2118   0.452   2.009   0.936 -0.1426  0.1229  0.3270
   93DG      H3 2119   0.175   2.615   1.009  1.1483 -0.2179 -2.6463
   93DG      H4 2120   0.350   2.605   1.009  0.4498  0.9886  1.0952
   93DG      H5 2121   0.265   2.675   1.152  0.4955  0.1300 -0.1735
   93DG      H6 2122   0.455   1.900   0.924  1.1540  0.2840 -1.1747
   93DG      H7 2123   0.516   2.042   0.854 -0.8054 -0.0532 -0.2667
   93DG      H8 2124   0.483   2.028   1.038 -0.3289 -1.1018  0.6262
   93DG      O9 2125   0.275   2.468   1.120  0.0806 -0.4913  0.5462
   93DG     O10 2126   0.324   2.055   0.903 -0.3961 -0.2918  0.2516
   93DG     C11 2127   0.198   2.415   1.220  1.2885  0.3605  0.2813
   93DG     C12 2128   0.225   2.008   0.996 -0.2899 -0.3166  0.2302
   93DG     H13 2129   0.097   2.426   1.182  1.1220 -1.1709  0.2029
   93DG     H14 2130   0.191   2.477   1.309 -2.8970 -1.5252  1.5237
   93DG     H15 2131   0.234   1.900   1.003  0.1648 -0.3230 -0.3569
   93DG     H16 2132   0.128   2.024   0.948  1.2138  0.6615 -2.7617
   93DG     C17 2133   0.235   2.267   1.257  0.0641 -0.7670  0.0541
   93DG     C18 2134   0.235   2.072   1.138  0.0756  0.3389 -0.2374
   93DG     O19 2135   0.243   2.208   1.132 -0.3028 -0.3062 -0.5984
   93DG     H20 2136   0.158   2.225   1.322 -0.2424  1.7259  1.3838
   93DG     H21 2137   0.326   2.257   1.316  0.4913 -0.1056 -0.4781
   93DG     H22 2138   0.143   2.042   1.189  0.2396 -0.3984 -0.3600
   93DG     H23 2139   0.319   2.021   1.185  0.0880  0.3459 -0.2520
   94DG      C1 2140   0.874   4.694   1.076 -0.2637 -0.3856  0.6523
   94DG      C2 2141   1.166   5.158   1.474  0.0244  0.0534  0.0130
   94DG      H3 2142   0.810   4.693   1.165 -0.6416 -2.3015  0.4016
   94DG      H4 2143   0.925   4.598   1.075 -1.9652 -1.3172 -0.2741
   94DG      H5 2144   0.807   4.692   0.990 -0.3630 -3.2394  0.7195
   94DG      H6 2145   1.197   5.096   1.558 -0.8307  0.2002  0.4376
   94DG      H7 2146   1.229   5.246   1.461 -0.6203  0.8854  2.1203
   94DG      H8 2147   1.063   5.189   1.487  0.5784  1.1988  2.1977
   94DG      O9 2148   0.963   4.805   1.078  0.1856  0.1997 -0.4948
   94DG     O10 2149   1.180   5.082   1.352 -0.8770  0.0335  0.2072
   94DG     C11 2150   1.071   4.797   0.990 -0.9238  0.0582  0.2408
   94DG     C12 2151   1.309   5.020   1.340  0.8224 -0.2946 -0.0633
   94DG     H13 2152   1.036   4.790   0.887 -1.1963 -2.2661  0.4247
   94DG     H14 2153   1.118   4.698   0.997  0.9089  0.9540  1.2397
   94DG     H15 2154   1.321   4.931   1.402 -0.5609 -0.1275  0.4778
   94DG     H16 2155   1.386   5.093   1.362  0.6576 -0.4370  1.0141
   94DG     C17 2156   1.177   4.910   1.021  0.0108  1.1252  0.1207
   94DG     C18 2157   1.318   4.987   1.190  0.8055  0.4920  0.1428
   94DG     O19 2158   1.196   4.908   1.161  0.3325 -0.1271 -0.6204
   94DG     H20 2159   1.141   5.012   1.008 -0.5818  1.3822  3.1556
   94DG     H21 2160   1.266   4.894   0.960  0.0159  1.5075  0.0242
   94DG     H22 2161   1.326   5.081   1.136 -0.2871  0.8410  0.5528
   94DG     H23 2162   1.401   4.924   1.159  0.1469 -0.7512  0.7875
   95DG      C1 2163   5.318   5.028   3.034 -0.8075  0.3541 -0.5133
   95DG      C2 2164   5.630   4.389   3.020  0.5800 -0.1262  0.0202
   95DG      H3 2165   5.354   5.101   3.106  0.5042 -0.1824 -0.5889
   95DG      H4 2166   5.219   5.056   2.998 -0.6093  0.2603 -1.1399
   95DG      H5 2167   5.380   5.046   2.946  0.0509 -0.1773 -0.0294
   95DG      H6 2168   5.694   4.416   2.937  2.2467 -1.1388  0.9123
   95DG      H7 2169   5.677   4.318   3.088 -0.2244  0.3614  1.1221
   95DG      H8 2170   5.542   4.338   2.981  0.3812  0.3929 -0.2158
   95DG      O9 2171   5.333   4.887   3.075  0.5235 -0.0241  0.4392
   95DG     O10 2172   5.589   4.508   3.091  0.2163  0.0971 -0.3062
   95DG     C11 2173   5.279   4.859   3.204  0.1905 -0.4261 -0.8247
   95DG     C12 2174   5.540   4.473   3.218 -0.1233  0.1090  0.1418
   95DG     H13 2175   5.212   4.778   3.175  0.2062 -0.2732 -1.3036
   95DG     H14 2176   5.221   4.932   3.260 -1.1318 -3.2474  1.7755
   95DG     H15 2177   5.613   4.414   3.273 -0.5462  0.4953  1.1616
   95DG     H16 2178   5.447   4.417   3.209 -1.0319  1.1441  2.2980
   95DG     C17 2179   5.385   4.793   3.291 -0.0485 -0.3800  0.5790
   95DG     C18 2180   5.524   4.601   3.296 -0.3130  0.9591  0.1431
   95DG     O19 2181   5.417   4.668   3.235 -0.1697 -0.4582  0.2090
   95DG     H20 2182   5.342   4.782   3.391 -0.9066  0.1616  0.2790
   95DG     H21 2183   5.469   4.861   3.281  0.2674 -0.9307 -0.6186
   95DG     H22 2184   5.515   4.581   3.402  1.0390 -0.5639 -0.0056
   95DG     H23 2185   5.612   4.665   3.286  1.3176 -1.3432 -1.1605
   96DG      C1 2186   0.084   4.735   5.446  0.6114  0.2440  0.4577
   96DG      C2 2187   0.432   4.166   5.390 -0.8753 -0.0327  0.2134
   96DG      H3 2188   0.060   4.826   5.393  0.5814  0.5985  1.0705
   96DG      H4 2189   0.098   4.761   5.551  0.9024  1.1453  0.1981
   96DG      H5 2190  -0.010   4.680   5.438 -0.7927  2.4473  0.9635
   96DG      H6 2191   0.349   4.137   5.326  0.6746 -1.7428 -1.1509
   96DG      H7 2192   0.514   4.104   5.352 -0.6663  1.0245 -1.1275
   96DG      H8 2193   0.406   4.149   5.495 -1.2855  0.6676  0.2279
   96DG      O9 2194   0.198   4.685   5.383  0.2808  0.1067  0.0753
   96DG     O10 2195   0.462   4.305   5.364  0.3865  0.5212 -0.2769
   96DG     C11 2196   0.311   4.774   5.418 -0.0971 -0.3966  0.6139
   96DG     C12 2197   0.525   4.365   5.477 -0.1653 -0.2595  0.1586
   96DG     H13 2198   0.321   4.757   5.525  0.8624 -1.9845  0.3103
   96DG     H14 2199   0.287   4.879   5.399 -0.0290 -0.3954  0.5334
   96DG     H15 2200   0.617   4.319   5.513 -0.1845  0.8957  1.7897
   96DG     H16 2201   0.470   4.372   5.570  2.4815  0.6628  1.7652
   96DG     C17 2202   0.441   4.711   5.356  0.6946 -0.4299  0.0866
   96DG     C18 2203   0.557   4.512   5.440 -1.4347  0.1769  0.5479
   96DG     O19 2204   0.441   4.574   5.395 -0.3301  0.1647  0.1598
   96DG     H20 2205   0.527   4.764   5.398  0.9635  1.1029 -2.2077
   96DG     H21 2206   0.437   4.720   5.247  2.0926  0.6890  0.0957
   96DG     H22 2207   0.587   4.576   5.524  2.0647 -0.1730 -0.2580
   96DG     H23 2208   0.637   4.513   5.366 -3.1230  1.0308 -1.3578
   97DG      C1 2209   1.858   2.863   0.541  0.6244 -0.1414 -1.1564
   97DG      C2 2210   1.209   2.962   0.216 -0.2738  0.0928 -0.0533
   97DG      H3 2211   1.955   2.817   0.521  0.8330 -0.8566  1.1643
   97DG      H4 2212   1.808   2.806   0.619 -0.3358 -1.5106 -2.7123
   97DG      H5 2213   1.873   2.966   0.572  0.4442 -0.9741  2.0838
   97DG      H6 2214   1.147   2.957   0.127 -0.7524 -0.1272  0.2893
   97DG      H7 2215   1.186   2.884   0.288 -0.9986  1.2618  1.0285
   97DG      H8 2216   1.193   3.060   0.263 -0.4555 -0.5856  1.3578
   97DG      O9 2217   1.772   2.857   0.424  0.1989 -0.1979 -0.4760
   97DG     O10 2218   1.344   2.959   0.186  0.0420  0.1965  0.1614
   97DG     C11 2219   1.834   2.904   0.303  0.5539 -0.3848  0.7248
   97DG     C12 2220   1.394   2.832   0.143  0.2196  1.1463  0.4424
   97DG     H13 2221   1.932   2.858   0.298 -0.0520 -1.6470  0.0944
   97DG     H14 2222   1.849   3.012   0.305 -0.1953 -0.1086 -2.3745
   97DG     H15 2223   1.329   2.774   0.076  1.2522  0.2048  0.2079
   97DG     H16 2224   1.403   2.767   0.230 -1.5683  1.7946  1.1478
   97DG     C17 2225   1.753   2.869   0.175 -0.2313  0.3014 -0.2465
   97DG     C18 2226   1.525   2.858   0.080  0.1746 -0.3134  0.3063
   97DG     O19 2227   1.610   2.890   0.187  0.1439 -0.0477 -0.4705
   97DG     H20 2228   1.755   2.764   0.145 -0.9804  0.4958 -1.0179
   97DG     H21 2229   1.773   2.927   0.085  0.5380  1.5368  0.6949
   97DG     H22 2230   1.563   2.771   0.028 -0.4336  0.2472 -1.1176
   97DG     H23 2231   1.537   2.931  -0.000  3.4033  0.6748  1.5208
   98DG      C1 2232   0.183   0.527   4.015 -0.0610 -0.5367  0.0044
   98DG      C2 2233  -0.314   0.544   3.302  0.2658 -0.2621  0.3186
   98DG      H3 2234   0.154   0.615   4.071 -1.3153 -1.7686  1.3720
   98DG      H4 2235   0.284   0.547   3.977 -0.5014  2.5155  0.2373
   98DG      H5 2236   0.202   0.440   4.079  0.7454 -2.5686 -2.7886
   98DG      H6 2237  -0.365   0.448   3.310 -0.7406  0.2796  0.5450
   98DG      H7 2238  -0.386   0.619   3.270 -2.2299 -1.1736  3.2445
   98DG      H8 2239  -0.237   0.538   3.226 -1.1520 -2.2424 -1.0525
   98DG      O9 2240   0.082   0.495   3.924  0.0152  0.0408 -0.5161
   98DG     O10 2241  -0.260   0.594   3.425  0.3130  0.5828  0.8754
   98DG     C11 2242   0.108   0.392   3.837  0.3690 -0.4696  0.3546
   98DG     C12 2243  -0.168   0.504   3.489  0.5792 -0.6145 -0.8089
   98DG     H13 2244   0.098   0.300   3.894  0.8486 -0.6204  0.2027
   98DG     H14 2245   0.212   0.397   3.803  0.0775  1.6868 -0.4042
   98DG     H15 2246  -0.099   0.469   3.412 -0.7369 -0.2027 -2.2482
   98DG     H16 2247  -0.211   0.417   3.538  2.2263 -1.5056 -0.8798
   98DG     C17 2248   0.010   0.403   3.717  0.6456  0.3480  0.4802
   98DG     C18 2249  -0.097   0.586   3.604 -0.5893 -0.0935  0.0095
   98DG     O19 2250   0.022   0.531   3.650  0.3587  0.7865  0.3552
   98DG     H20 2251  -0.089   0.382   3.756  0.6948  0.4249  0.6467
   98DG     H21 2252   0.029   0.328   3.640  1.4433 -0.5197  1.4935
   98DG     H22 2253  -0.069   0.681   3.560  1.0279 -1.1170 -1.2787
   98DG     H23 2254  -0.161   0.613   3.688 -1.6673  0.2813 -0.9098
   99DG      C1 2255   3.555   4.231   1.437  0.7849 -0.3692 -0.1767
   99DG      C2 2256   4.105   3.876   1.273  0.0661 -0.4046 -0.3529
   99DG      H3 2257   3.547   4.226   1.328  0.1327  4.4467 -0.5861
   99DG      H4 2258   3.545   4.339   1.448 -0.1352 -0.3704 -0.8799
   99DG      H5 2259   3.469   4.183   1.482  2.7217 -1.5872  2.4544
   99DG      H6 2260   4.076   3.924   1.180  0.6243  0.6956  0.0205
   99DG      H7 2261   4.214   3.873   1.277  0.2134  2.3217 -0.7689
   99DG      H8 2262   4.059   3.778   1.281  0.1224 -0.6119 -2.1322
   99DG      O9 2263   3.680   4.193   1.491 -0.1150 -0.4885 -0.0814
   99DG     O10 2264   4.055   3.965   1.369 -0.0159  0.2319 -0.3068
   99DG     C11 2265   3.702   4.198   1.633 -0.3072 -0.4707  0.0612
   99DG     C12 2266   4.096   3.934   1.507  0.3074  0.3840 -0.0418
   99DG     H13 2267   3.642   4.131   1.695 -1.0886  0.6195  0.5045
   99DG     H14 2268   3.671   4.295   1.670 -0.7736 -0.1501 -1.1391
   99DG     H15 2269   4.203   3.917   1.514 -0.0061 -1.7657  0.1992
   99DG     H16 2270   4.050   3.837   1.525 -0.2690  0.7922  0.7867
   99DG     C17 2271   3.855   4.178   1.655  0.3014 -0.0361 -0.5747
   99DG     C18 2272   4.033   4.025   1.609  0.0575 -0.7202 -0.6376
   99DG     O19 2273   3.894   4.056   1.594  0.4123 -0.0622 -0.1962
   99DG     H20 2274   3.867   4.184   1.763  2.5398  0.3212 -0.7969
   99DG     H21 2275   3.917   4.257   1.613  2.3091 -0.9361  0.5388
   99DG     H22 2276   4.038   3.975   1.706 -0.3824  0.5232  0.0419
   99DG     H23 2277   4.094   4.114   1.629 -1.1058  0.4819 -2.2146
  100DG      C1 2278   4.661   3.838   2.424  0.1361 -0.0304  0.0163
  100DG      C2 2279   4.089   3.867   2.070  0.4337  0.1464  0.2705
  100DG      H3 2280   4.755   3.788   2.449  0.4573 -0.1962 -1.4591
  100DG      H4 2281   4.580   3.806   2.489  0.7363  0.5640  1.0905
  100DG      H5 2282   4.666   3.946   2.439 -1.1569  0.0346  0.1100
  100DG      H6 2283   4.039   3.785   2.121 -0.9108 -0.7507 -2.3034
  100DG      H7 2284   4.085   3.955   2.133  0.7328  1.9231 -2.0618
  100DG      H8 2285   4.038   3.885   1.976  0.1002  0.1127  0.4421
  100DG      O9 2286   4.617   3.812   2.290  0.2951  0.1884 -0.4248
  100DG     O10 2287   4.222   3.823   2.053 -0.0281 -0.0827 -0.1607
  100DG     C11 2288   4.617   3.670   2.263  1.3664  0.0263 -0.1187
  100DG     C12 2289   4.236   3.714   1.960  0.0886  0.3764  0.2705
  100DG     H13 2290   4.548   3.615   2.327 -1.0611  0.8779 -1.8218
  100DG     H14 2291   4.713   3.626   2.290  0.6382 -0.8462  1.2058
  100DG     H15 2292   4.207   3.740   1.858 -0.9260  0.8528  0.6623
  100DG     H16 2293   4.161   3.637   1.980  0.7596 -0.7046 -1.2258
  100DG     C17 2294   4.578   3.649   2.116  0.1624 -0.2944  0.5676
  100DG     C18 2295   4.391   3.680   1.968 -0.2274  0.4508 -0.3199
  100DG     O19 2296   4.440   3.690   2.100 -0.0826 -0.2146  0.2208
  100DG     H20 2297   4.587   3.545   2.084  0.4081  0.1559 -0.8971
  100DG     H21 2298   4.641   3.713   2.054 -0.9290 -0.3049 -0.6115
  100DG     H22 2299   4.416   3.582   1.929 -1.6028 -0.0031 -0.1136
  100DG     H23 2300   4.436   3.754   1.902  0.5651  0.7497  0.5176
  101DG      C1 2301   0.429   4.839   1.369  0.1273  1.0377  0.3261
  101DG      C2 2302   0.124   4.921   0.708 -0.0050  0.2393 -0.0616
  101DG      H3 2303   0.503   4.779   1.422  1.1311  1.4241 -0.5896
  101DG      H4 2304   0.327   4.814   1.397 -0.0485  2.9259  1.6094
  101DG      H5 2305   0.457   4.940   1.400 -0.5935  1.3883 -0.1320
  101DG      H6 2306   0.161   4.980   0.623 -2.9012  2.4992  0.0771
  101DG      H7 2307   0.044   4.853   0.680  1.5142 -1.4758 -0.4233
  101DG      H8 2308   0.076   4.992   0.776  1.3437  0.1852  0.9912
  101DG      O9 2309   0.442   4.817   1.228 -0.4959  0.5248  0.4558
  101DG     O10 2310   0.218   4.860   0.798 -0.1104 -0.1057 -0.6682
  101DG     C11 2311   0.425   4.687   1.181  0.0850  1.3002 -0.2474
  101DG     C12 2312   0.282   4.756   0.731 -0.0147 -0.2143  0.3588
  101DG     H13 2313   0.333   4.634   1.204  1.8155 -1.4632  0.8141
  101DG     H14 2314   0.488   4.622   1.242 -3.5803 -1.6585  0.7698
  101DG     H15 2315   0.316   4.797   0.635  0.0403 -0.7078  0.1656
  101DG     H16 2316   0.211   4.679   0.700  1.1333 -1.2363  0.2201
  101DG     C17 2317   0.455   4.649   1.038  0.5622 -0.5367  0.2113
  101DG     C18 2318   0.400   4.688   0.800 -0.3724 -0.1491 -1.2438
  101DG     O19 2319   0.366   4.704   0.943  0.2819 -0.6498  0.1899
  101DG     H20 2320   0.443   4.542   1.026 -0.8034 -0.2048 -2.2196
  101DG     H21 2321   0.557   4.682   1.022  0.0096  1.1582 -0.0865
  101DG     H22 2322   0.402   4.583   0.771  1.0069 -0.2519 -0.8527
  101DG     H23 2323   0.500   4.725   0.779 -0.6780 -0.2385 -2.9543
  102DG      C1 2324   0.454   0.677   0.479 -0.5175  0.1367  0.5395
  102DG      C2 2325  -0.194   0.475   0.374  0.6287  0.2574 -0.5023
  102DG      H3 2326   0.482   0.578   0.442 -1.2045  0.0420  0.2701
  102DG      H4 2327   0.515   0.693   0.567  0.4696  2.1739 -0.4541
  102DG      H5 2328   0.474   0.744   0.395  0.3292 -0.6042  0.1277
  102DG      H6 2329  -0.141   0.380   0.377 -1.5149 -1.0447  2.8421
  102DG      H7 2330  -0.296   0.440   0.393  0.3472  0.7391 -1.0856
  102DG      H8 2331  -0.187   0.523   0.277 -0.6937  1.5085 -0.0187
  102DG      O9 2332   0.315   0.682   0.515 -0.9314  0.0699 -0.0579
  102DG     O10 2333  -0.140   0.556   0.476  0.6598  0.2683  0.4860
  102DG     C11 2334   0.273   0.819   0.527  0.4681  0.0002 -0.3790
  102DG     C12 2335  -0.186   0.684   0.470  0.1508  0.3211  1.2912
  102DG     H13 2336   0.290   0.857   0.426  2.1670  0.1496 -0.0651
  102DG     H14 2337   0.345   0.869   0.591  1.1444 -1.2342 -0.1477
  102DG     H15 2338  -0.289   0.687   0.504 -0.4094  1.0875 -0.3571
  102DG     H16 2339  -0.195   0.724   0.369  0.7564  0.3394  1.2368
  102DG     C17 2340   0.136   0.832   0.583 -0.0195 -0.0693 -0.3267
  102DG     C18 2341  -0.092   0.776   0.551  0.0663  0.1756 -0.0031
  102DG     O19 2342   0.041   0.773   0.499 -0.5216  0.1741 -0.1323
  102DG     H20 2343   0.110   0.938   0.592  0.4458 -0.0039  0.3550
  102DG     H21 2344   0.131   0.789   0.683 -1.0634 -2.9402 -1.5087
  102DG     H22 2345  -0.127   0.879   0.543  2.3476  1.1019  1.0814
  102DG     H23 2346  -0.100   0.753   0.658  1.8043 -0.2789  0.0527
  103DG      C1 2347   5.460   2.094   5.121 -0.5342 -0.0423 -0.4020
  103DG      C2 2348   6.037   2.164   4.880  0.2248 -0.1278 -0.7799
  103DG      H3 2349   5.493   2.002   5.073  1.3709  1.5869 -2.4853
  103DG      H4 2350   5.357   2.100   5.086 -1.3315 -1.8410  1.4378
  103DG      H5 2351   5.458   2.073   5.228 -2.1700  0.2766 -0.3491
  103DG      H6 2352   5.986   2.069   4.860  0.2866 -0.5817  1.0499
  103DG      H7 2353   6.114   2.189   4.807  0.7978 -0.2999 -0.2434
  103DG      H8 2354   6.079   2.153   4.980  0.8401  0.3188 -0.9841
  103DG      O9 2355   5.544   2.201   5.079  0.2260 -0.0400  0.4087
  103DG     O10 2356   5.933   2.258   4.869 -0.9896 -0.0970  0.3104
  103DG     C11 2357   5.681   2.180   5.106  0.3230  0.4390  0.6388
  103DG     C12 2358   5.956   2.385   4.932 -1.2178 -1.3105 -0.9422
  103DG     H13 2359   5.737   2.130   5.028  1.2609  2.9447 -0.3984
  103DG     H14 2360   5.704   2.145   5.207 -0.7669 -0.5743  0.5667
  103DG     H15 2361   6.031   2.452   4.888 -0.1199 -0.1558  2.3440
  103DG     H16 2362   6.000   2.362   5.029 -2.5404  0.7955  0.2223
  103DG     C17 2363   5.738   2.322   5.117  0.3050  0.3208  0.0654
  103DG     C18 2364   5.831   2.464   4.951 -0.2132 -1.2654 -0.2534
  103DG     O19 2365   5.725   2.386   4.993  0.1043 -0.2074 -0.3807
  103DG     H20 2366   5.834   2.323   5.168 -0.1247  1.2067  0.8949
  103DG     H21 2367   5.691   2.390   5.187 -0.5065 -0.5773  0.4122
  103DG     H22 2368   5.841   2.547   5.021 -3.1621 -0.7296 -0.3517
  103DG     H23 2369   5.810   2.509   4.854  0.0172  1.6090  0.9497
  104DG      C1 2370   2.313   5.172   2.142  0.0947  0.1184 -0.3422
  104DG      C2 2371   2.117   5.888   2.555 -0.1573 -0.1373 -0.5706
  104DG      H3 2372   2.413   5.215   2.150  0.0134  0.2402  0.0869
  104DG      H4 2373   2.267   5.238   2.070 -2.4412 -0.0059  1.0546
  104DG      H5 2374   2.317   5.068   2.108 -0.6226  0.3984 -1.2945
  104DG      H6 2375   2.099   5.898   2.448  0.5881  0.2954 -0.6679
  104DG      H7 2376   2.049   5.942   2.621  1.9278  0.2328  1.4191
  104DG      H8 2377   2.204   5.951   2.574 -1.6389  1.5852  0.9008
  104DG      O9 2378   2.250   5.188   2.268  0.7521  0.4006  0.0485
  104DG     O10 2379   2.143   5.753   2.564 -0.7154 -0.0193 -0.1693
  104DG     C11 2380   2.220   5.327   2.293  0.0436 -0.1654 -0.4038
  104DG     C12 2381   2.032   5.675   2.570  0.9758  0.0225 -0.1468
  104DG     H13 2382   2.163   5.367   2.209  0.3632  0.8852 -0.1308
  104DG     H14 2383   2.315   5.380   2.299  0.7498 -1.5566  1.4855
  104DG     H15 2384   1.970   5.698   2.483  1.7112 -1.5059 -1.1242
  104DG     H16 2385   1.976   5.697   2.661 -0.7758  0.3200 -1.2503
  104DG     C17 2386   2.143   5.354   2.424  0.2217 -0.8501 -0.1899
  104DG     C18 2387   2.060   5.527   2.560  0.1175 -0.0711 -0.2445
  104DG     O19 2388   2.122   5.497   2.432  0.1503 -0.0814 -0.6195
  104DG     H20 2389   2.202   5.323   2.511 -0.3919 -2.0084 -0.1670
  104DG     H21 2390   2.044   5.309   2.421 -1.8368  3.2375 -2.6403
  104DG     H22 2391   2.136   5.516   2.638 -1.4399  1.3093  1.5619
  104DG     H23 2392   1.971   5.473   2.591  0.0952  0.1015 -0.0003
  105DG      C1 2393   4.460   1.160   5.275  0.0787  0.1896 -0.1238
  105DG      C2 2394   3.713   1.155   5.551  0.1826  0.0737  0.2479
  105DG      H3 2395   4.455   1.199   5.377 -0.5974  1.3265 -0.5727
  105DG      H4 2396   4.510   1.238   5.217  0.2913  1.2169  1.3495
  105DG      H5 2397   4.525   1.073   5.274  2.0531  1.5389  1.6107
  105DG      H6 2398   3.710   1.263   5.564 -3.5824  0.1646 -0.1442
  105DG      H7 2399   3.612   1.116   5.543 -0.4307  1.2774  1.6439
  105DG      H8 2400   3.760   1.116   5.642 -0.0258  0.6665  0.6156
  105DG      O9 2401   4.325   1.133   5.234 -0.2089 -0.5167  1.1411
  105DG     O10 2402   3.784   1.116   5.435  0.3591 -0.3245  0.1574
  105DG     C11 2403   4.242   1.075   5.329  0.0660  0.4068  0.4247
  105DG     C12 2404   3.795   0.972   5.439  0.2210  0.1496 -0.2496
  105DG     H13 2405   4.222   1.152   5.404 -1.7449  0.4242 -0.0342
  105DG     H14 2406   4.283   0.987   5.379 -1.6216 -0.6060  0.0779
  105DG     H15 2407   3.704   0.935   5.393  0.8006 -1.1559 -0.3994
  105DG     H16 2408   3.821   0.928   5.536 -0.0530 -0.0638 -0.2734
  105DG     C17 2409   4.114   1.022   5.268 -0.8157  0.2730 -0.0831
  105DG     C18 2410   3.898   0.936   5.327 -0.4544  0.0246  0.1162
  105DG     O19 2411   4.028   0.996   5.371 -0.4952 -0.3413 -0.4482
  105DG     H20 2412   4.137   0.930   5.215 -0.4694  0.5642 -0.4421
  105DG     H21 2413   4.077   1.096   5.196  0.7741  1.4834  0.2844
  105DG     H22 2414   3.908   0.829   5.311  1.9967  0.4166 -1.4300
  105DG     H23 2415   3.865   0.976   5.231 -0.7821 -1.5392 -0.4491
  106DG      C1 2416   0.947   1.427   4.813  0.1910 -0.0144  0.5822
  106DG      C2 2417   1.626   1.492   4.843  0.6035 -0.0364 -0.3338
  106DG      H3 2418   0.975   1.322   4.813  2.2865  0.5055  1.0536
  106DG      H4 2419   0.897   1.447   4.718  0.8257  2.5677  0.6994
  106DG      H5 2420   0.869   1.441   4.888 -1.7018 -3.9999 -0.3656
  106DG      H6 2421   1.672   1.483   4.745  1.5986 -1.4117  0.2225
  106DG      H7 2422   1.701   1.539   4.908  0.3979 -0.4241  0.1858
  106DG      H8 2423   1.626   1.391   4.882 -0.3966 -0.2285 -0.8064
  106DG      O9 2424   1.057   1.513   4.834 -0.6057  0.9214 -0.3295
  106DG     O10 2425   1.502   1.563   4.858  0.0406  0.1539  0.0034
  106DG     C11 2426   1.029   1.650   4.842  0.0849  0.0551 -0.1887
  106DG     C12 2427   1.503   1.705   4.834 -0.0750  0.1356  0.3404
  106DG     H13 2428   0.937   1.666   4.898 -0.8423 -2.5212 -0.8223
  106DG     H14 2429   1.006   1.685   4.742 -1.1383 -0.8632 -0.2537
  106DG     H15 2430   1.498   1.708   4.725 -2.6718  0.7954  0.3978
  106DG     H16 2431   1.591   1.753   4.876  0.1234 -0.6228  0.8142
  106DG     C17 2432   1.146   1.725   4.898 -0.5794  0.6641 -0.7537
  106DG     C18 2433   1.371   1.768   4.885 -0.0783 -0.1531  0.6870
  106DG     O19 2434   1.266   1.684   4.842 -0.3260 -0.1087  0.5296
  106DG     H20 2435   1.138   1.717   5.006 -0.0814  0.0951 -0.7482
  106DG     H21 2436   1.127   1.831   4.884 -1.6136  0.4128 -1.3032
  106DG     H22 2437   1.365   1.772   4.994 -0.1644  0.9998  0.6462
  106DG     H23 2438   1.359   1.870   4.849  0.8141  0.3768  1.8080
  107DG      C1 2439   2.926   2.315   0.173 -0.2902  0.6954 -0.2614
  107DG      C2 2440   2.780   2.108  -0.447  0.4841 -0.1632 -0.3909
  107DG      H3 2441   2.844   2.382   0.149  0.9332  2.1593 -0.5065
  107DG      H4 2442   2.999   2.355   0.244 -1.8504  0.1227  1.7449
  107DG      H5 2443   2.879   2.226   0.214  2.2794 -1.4802 -1.6862
  107DG      H6 2444   2.704   2.155  -0.509  0.8760 -0.1808 -0.8833
  107DG      H7 2445   2.832   2.039  -0.513 -1.9932 -1.8355 -0.7243
  107DG      H8 2446   2.723   2.041  -0.381 -0.3388  0.0052 -0.9254
  107DG      O9 2447   2.990   2.264   0.055 -0.0905  0.1820 -0.2568
  107DG     O10 2448   2.858   2.186  -0.354  0.1321 -0.2220 -0.1802
  107DG     C11 2449   3.093   2.357   0.030 -0.7518 -0.0285  0.2247
  107DG     C12 2450   2.956   2.274  -0.419  0.9864  0.9450 -0.1937
  107DG     H13 2451   3.184   2.347   0.090 -0.1686 -0.2547 -0.6804
  107DG     H14 2452   3.058   2.460   0.042  1.9596  0.7365  2.6903
  107DG     H15 2453   2.909   2.363  -0.462 -0.1037  0.8246  0.6913
  107DG     H16 2454   2.993   2.223  -0.508 -0.3714  1.1702 -0.9234
  107DG     C17 2455   3.155   2.330  -0.114 -0.1704  0.2601 -0.4651
  107DG     C18 2456   3.077   2.304  -0.329 -0.5200  0.3291  0.0955
  107DG     O19 2457   3.043   2.304  -0.200 -0.3419 -0.2203 -0.4052
  107DG     H20 2458   3.214   2.239  -0.098  0.1557  0.2062 -1.8598
  107DG     H21 2459   3.228   2.402  -0.149 -0.1940  0.6733  0.2988
  107DG     H22 2460   3.155   2.228  -0.336 -0.7715 -0.3367  3.0240
  107DG     H23 2461   3.126   2.396  -0.360  0.0635  0.0005  0.0279
  108DG      C1 2462   2.068   2.270   3.331  0.5989 -0.0099 -0.1422
  108DG      C2 2463   1.817   2.940   3.402 -0.0023  0.1884  0.0028
  108DG      H3 2464   1.979   2.256   3.270  1.7291  0.0339 -1.8552
  108DG      H4 2465   2.088   2.179   3.388  0.4653  0.1664  0.1919
  108DG      H5 2466   2.147   2.289   3.259  1.0459  3.2309  1.0050
  108DG      H6 2467   1.735   2.919   3.472 -0.4423  2.4497  0.2503
  108DG      H7 2468   1.857   3.038   3.426  0.8882 -0.3029  0.5720
  108DG      H8 2469   1.769   2.960   3.306  1.8863  1.1788 -0.7926
  108DG      O9 2470   2.032   2.389   3.406 -0.2800  0.5350 -0.1903
  108DG     O10 2471   1.910   2.838   3.401 -0.1646 -0.4337 -0.0908
  108DG     C11 2472   2.151   2.450   3.449  0.0699  0.6756 -0.1037
  108DG     C12 2473   2.000   2.858   3.292  0.3218 -1.0526 -0.4425
  108DG     H13 2474   2.230   2.380   3.477 -1.4639 -1.1638 -0.1684
  108DG     H14 2475   2.123   2.500   3.542  1.1477  2.2068 -0.5541
  108DG     H15 2476   2.027   2.964   3.287  1.5725 -1.4136 -2.3018
  108DG     H16 2477   1.947   2.829   3.201 -1.0618 -0.4372  0.1449
  108DG     C17 2478   2.201   2.542   3.336 -0.3387  0.1755  0.2947
  108DG     C18 2479   2.121   2.774   3.323 -0.2468  0.9114 -0.3722
  108DG     O19 2480   2.094   2.630   3.297 -0.5118 -0.2693 -0.6949
  108DG     H20 2481   2.233   2.476   3.255 -0.6078 -0.6892  0.8746
  108DG     H21 2482   2.283   2.594   3.385 -1.0200  0.8752  0.7139
  108DG     H22 2483   2.211   2.814   3.276  0.6575  1.6452  1.8622
  108DG     H23 2484   2.147   2.774   3.428 -0.8562 -0.1481 -0.2072
  109DG      C1 2485   3.789   2.436   4.443  0.1183  0.1571 -1.1175
  109DG      C2 2486   3.735   2.992   4.737  0.1058 -0.0020  0.3125
  109DG      H3 2487   3.794   2.484   4.345 -0.4813  2.0751 -0.2705
  109DG      H4 2488   3.686   2.401   4.450  0.5653 -0.8305  2.5888
  109DG      H5 2489   3.865   2.358   4.445 -0.4289 -0.4095  1.5395
  109DG      H6 2490   3.741   3.035   4.636 -0.2883  1.0336  0.7128
  109DG      H7 2491   3.640   2.950   4.770  0.9910 -0.0155  3.0425
  109DG      H8 2492   3.757   3.068   4.812  0.7813  0.1671 -0.0494
  109DG      O9 2493   3.816   2.526   4.551 -0.1878  0.0528  0.3435
  109DG     O10 2494   3.829   2.883   4.747 -0.5077  0.5064 -0.3026
  109DG     C11 2495   3.819   2.462   4.683 -0.2963 -0.6075  0.3128
  109DG     C12 2496   3.835   2.840   4.887 -0.4935  0.4225  0.1664
  109DG     H13 2497   3.905   2.395   4.689  1.2632  1.3133  0.4167
  109DG     H14 2498   3.740   2.387   4.689  0.0066 -0.8233  2.5172
  109DG     H15 2499   3.739   2.802   4.918 -0.1848 -0.7107 -0.2201
  109DG     H16 2500   3.858   2.921   4.957 -0.2641  0.8359 -0.3712
  109DG     C17 2501   3.808   2.562   4.803  0.3526  0.6650 -0.3548
  109DG     C18 2502   3.947   2.735   4.899 -0.2917 -0.4196  0.0792
  109DG     O19 2503   3.932   2.632   4.799  0.2085  0.2768  0.0793
  109DG     H20 2504   3.783   2.508   4.894  0.4916 -0.7811 -1.1503
  109DG     H21 2505   3.718   2.621   4.782 -0.1751  0.3864  1.0044
  109DG     H22 2506   4.043   2.787   4.891 -0.8469  0.6668  0.2333
  109DG     H23 2507   3.949   2.694   4.999  1.1280 -1.1831 -0.2376
  110DG      C1 2508   4.416   0.004   2.727  0.3100  0.0321 -0.2028
  110DG      C2 2509   3.754  -0.460   2.977 -0.1949  0.1458 -0.7458
  110DG      H3 2510   4.437   0.085   2.797  2.1400  1.3407 -2.1798
  110DG      H4 2511   4.362   0.061   2.652 -1.6480  0.0095  1.1197
  110DG      H5 2512   4.509  -0.040   2.692  0.1395 -0.6845  0.2063
  110DG      H6 2513   3.660  -0.432   2.929 -1.3515 -0.3798  1.0998
  110DG      H7 2514   3.746  -0.563   3.012 -0.3548  0.8997  1.5917
  110DG      H8 2515   3.765  -0.398   3.066 -0.2796 -1.4265  0.3924
  110DG      O9 2516   4.345  -0.110   2.782 -0.2057  0.0243 -0.5091
  110DG     O10 2517   3.861  -0.430   2.895  0.0909  0.0513 -0.1342
  110DG     C11 2518   4.216  -0.085   2.832 -0.1989 -0.4733  0.3200
  110DG     C12 2519   3.976  -0.461   2.971 -0.0032 -1.2095  0.0872
  110DG     H13 2520   4.163  -0.042   2.747  2.2916  2.7979  0.2410
  110DG     H14 2521   4.221  -0.007   2.908 -0.9532 -0.2902  0.1862
  110DG     H15 2522   3.985  -0.563   3.008 -1.5738 -0.6595  2.1540
  110DG     H16 2523   3.986  -0.383   3.046  1.7044  1.6089 -2.8164
  110DG     C17 2524   4.152  -0.210   2.898 -0.0431 -0.2677 -0.0169
  110DG     C18 2525   4.093  -0.448   2.872 -0.0375  0.3122 -0.2875
  110DG     O19 2526   4.105  -0.319   2.808  0.1756 -0.6117 -0.1804
  110DG     H20 2527   4.070  -0.168   2.956  0.9207  3.3684 -1.0331
  110DG     H21 2528   4.227  -0.249   2.967  0.4327 -0.0191 -0.3952
  110DG     H22 2529   4.186  -0.487   2.916 -0.1689  2.4911  2.1893
  110DG     H23 2530   4.091  -0.533   2.803 -1.7254 -0.3588  0.5349
  111DG      C1 2531   2.938   3.909   4.189  0.0126 -0.0798 -0.5628
  111DG      C2 2532   3.073   3.312   3.777  0.3978  0.0386 -0.7484
  111DG      H3 2533   2.830   3.918   4.193 -0.0664 -1.1566  1.4214
  111DG      H4 2534   2.989   4.001   4.220  2.0003 -1.1306 -0.5109
  111DG      H5 2535   2.964   3.826   4.255  1.2588 -0.6103 -1.6793
  111DG      H6 2536   3.045   3.279   3.677  1.8891  1.3877 -1.6636
  111DG      H7 2537   3.143   3.233   3.806 -1.9130 -0.8555  3.2546
  111DG      H8 2538   2.989   3.295   3.844 -1.2189 -0.4309 -2.7808
  111DG      O9 2539   2.988   3.878   4.057  0.3946  0.2403 -0.3052
  111DG     O10 2540   3.130   3.444   3.795  0.6128 -0.2864  0.1443
  111DG     C11 2541   3.119   3.905   4.018 -0.7985  0.1404  1.3406
  111DG     C12 2542   3.070   3.542   3.709 -0.5813 -0.5034 -0.0602
  111DG     H13 2543   3.192   3.849   4.078  0.1504  1.3338  1.3507
  111DG     H14 2544   3.147   4.010   4.029 -0.2757 -0.0446  1.8373
  111DG     H15 2545   2.964   3.549   3.736 -0.5584  0.4319 -0.1857
  111DG     H16 2546   3.074   3.515   3.604  0.0496  0.7250 -0.3742
  111DG     C17 2547   3.144   3.864   3.874 -0.6417 -0.3289 -0.8891
  111DG     C18 2548   3.138   3.675   3.738 -0.8651  0.1662  0.9702
  111DG     O19 2549   3.087   3.737   3.856 -0.1436  0.1705  0.2613
  111DG     H20 2550   3.250   3.875   3.854 -0.7670  2.6032 -0.3486
  111DG     H21 2551   3.090   3.942   3.820 -0.2576  0.0331 -0.7517
  111DG     H22 2552   3.244   3.653   3.741 -1.1156 -2.0457 -2.0176
  111DG     H23 2553   3.120   3.741   3.653 -2.0717  1.7903  2.3971
  112DG      C1 2554   1.465   3.705   0.495  0.5331  0.3418  0.0638
  112DG      C2 2555   1.471   3.023   0.504  0.2572  0.4729 -0.2489
  112DG      H3 2556   1.449   3.690   0.388 -1.8990  0.6352  0.3358
  112DG      H4 2557   1.572   3.702   0.518  0.2896  0.7638  1.3194
  112DG      H5 2558   1.425   3.804   0.519 -1.8641 -0.6721  0.5212
  112DG      H6 2559   1.473   2.956   0.590 -0.0725  0.3637 -0.3241
  112DG      H7 2560   1.417   2.984   0.417  0.8743  2.8885 -1.8094
  112DG      H8 2561   1.574   3.030   0.470  0.3178  1.8135  0.1761
  112DG      O9 2562   1.403   3.609   0.584  0.3147  0.1614 -0.2990
  112DG     O10 2563   1.409   3.137   0.551 -0.3751 -0.1537 -0.0002
  112DG     C11 2564   1.261   3.607   0.587 -0.0151 -0.5039  0.4767
  112DG     C12 2565   1.273   3.123   0.594 -0.2460  0.2515 -0.4537
  112DG     H13 2566   1.216   3.603   0.488 -0.7900 -3.7193  0.8550
  112DG     H14 2567   1.234   3.698   0.640 -0.7824 -0.8652  0.7152
  112DG     H15 2568   1.271   3.029   0.649  3.3724 -0.9522 -2.0478
  112DG     H16 2569   1.219   3.124   0.499 -1.0746  3.9651 -0.1042
  112DG     C17 2570   1.209   3.490   0.671  0.3447  0.0649  0.5046
  112DG     C18 2571   1.232   3.245   0.676  0.2158 -0.3653 -0.3521
  112DG     O19 2572   1.256   3.369   0.608 -0.4164 -0.6420 -0.1631
  112DG     H20 2573   1.102   3.495   0.692  0.3208 -0.4214  0.5090
  112DG     H21 2574   1.265   3.493   0.764  0.0359  0.3546  0.6816
  112DG     H22 2575   1.127   3.229   0.702  0.4977 -2.5286 -0.4080
  112DG     H23 2576   1.289   3.235   0.769  0.8113  0.0093 -0.6702
  113DG      C1 2577   2.225   0.224   1.010  0.0647  0.2113  0.6107
  113DG      C2 2578   1.866   0.623   1.353  0.0932 -0.5361  0.1432
  113DG      H3 2579   2.127   0.191   0.978 -0.1016  1.6502 -0.4914
  113DG      H4 2580   2.282   0.134   1.034 -3.1362 -2.4844 -1.2071
  113DG      H5 2581   2.278   0.268   0.925  0.8716 -0.9116  0.5066
  113DG      H6 2582   1.812   0.556   1.286  0.9989  0.2853 -1.4786
  113DG      H7 2583   1.806   0.648   1.440  1.6016  1.1130  0.7586
  113DG      H8 2584   1.893   0.712   1.297  2.1232 -1.5747 -0.6265
  113DG      O9 2585   2.210   0.316   1.118  0.0541  0.0801  0.0628
  113DG     O10 2586   1.978   0.550   1.402  0.2275  0.2727  0.4353
  113DG     C11 2587   2.336   0.371   1.147 -0.3460 -0.7090 -0.0365
  113DG     C12 2588   2.083   0.628   1.463  0.3396 -0.1999  0.4720
  113DG     H13 2589   2.362   0.451   1.078  1.1212 -0.7403  0.4496
  113DG     H14 2590   2.407   0.289   1.140 -0.1770 -0.5993  0.3305
  113DG     H15 2591   2.062   0.656   1.567 -0.9612 -0.5199  0.3153
  113DG     H16 2592   2.086   0.727   1.418  1.0362 -0.4892 -0.1278
  113DG     C17 2593   2.339   0.414   1.296  0.4275 -0.3495 -0.0939
  113DG     C18 2594   2.207   0.544   1.452  0.2890  0.9129 -0.0294
  113DG     O19 2595   2.227   0.501   1.315  0.2387 -0.0888  0.0128
  113DG     H20 2596   2.434   0.466   1.312  0.7007 -0.2631 -1.8080
  113DG     H21 2597   2.325   0.328   1.362 -1.8523 -1.2079 -1.6001
  113DG     H22 2598   2.297   0.590   1.495  1.0071  0.2566 -0.7946
  113DG     H23 2599   2.198   0.455   1.514 -0.1694  0.2854 -0.9915
  114DG      C1 2600   3.513   1.108   5.131  0.0218 -0.1494  0.3959
  114DG      C2 2601   3.442   0.776   4.363  0.5060  0.2574 -0.5438
  114DG      H3 2602   3.410   1.142   5.125  0.3344  1.1545  1.9197
  114DG      H4 2603   3.582   1.175   5.080 -0.2563 -0.0342  0.1691
  114DG      H5 2604   3.550   1.105   5.233  1.6553 -0.7138 -0.1812
  114DG      H6 2605   3.383   0.698   4.314  0.6624  0.4285 -1.0122
  114DG      H7 2606   3.413   0.866   4.308 -0.5955  0.0229 -0.3774
  114DG      H8 2607   3.550   0.760   4.358  0.6652 -0.1052  2.3618
  114DG      O9 2608   3.501   0.975   5.075  0.1539 -0.4281  0.4950
  114DG     O10 2609   3.410   0.794   4.497  0.1237  0.6122  0.5031
  114DG     C11 2610   3.477   0.969   4.933 -0.2373 -0.5919 -0.1089
  114DG     C12 2611   3.425   0.669   4.574  0.7629 -0.4097  0.4225
  114DG     H13 2612   3.525   1.046   4.873 -1.5609 -0.2520 -0.7652
  114DG     H14 2613   3.374   0.976   4.901  0.2873 -0.6682 -1.9310
  114DG     H15 2614   3.488   0.601   4.517  1.2015 -1.1471  1.7465
  114DG     H16 2615   3.323   0.633   4.587  0.3242 -0.2124 -2.0956
  114DG     C17 2616   3.504   0.825   4.885 -0.1833  1.5400 -0.0895
  114DG     C18 2617   3.510   0.688   4.697  0.4354 -0.2716  0.4450
  114DG     O19 2618   3.452   0.802   4.755 -0.1613 -0.6451 -0.3724
  114DG     H20 2619   3.471   0.743   4.949 -1.1914  1.4713 -0.6789
  114DG     H21 2620   3.610   0.802   4.876 -0.8772 -2.0095 -0.7347
  114DG     H22 2621   3.505   0.610   4.773  0.1973 -1.2534 -0.5578
  114DG     H23 2622   3.614   0.693   4.665 -0.2694  0.8393 -1.9220
  115DG      C1 2623   4.562   2.963   1.386 -0.0704  0.0637 -1.0084
  115DG      C2 2624   5.051   3.432   1.538  0.4173 -0.0870  0.1522
  115DG      H3 2625   4.509   2.891   1.324 -3.1106 -1.5629  3.0310
  115DG      H4 2626   4.641   2.916   1.444  1.4433  3.2946 -0.2219
  115DG      H5 2627   4.604   3.048   1.331 -0.2983  2.8348  2.7295
  115DG      H6 2628   5.101   3.365   1.468 -0.5891 -0.5718 -0.1089
  115DG      H7 2629   5.066   3.533   1.499  1.3250 -1.2400 -2.8028
  115DG      H8 2630   5.096   3.425   1.637 -1.6354 -1.0148  1.0772
  115DG      O9 2631   4.464   3.009   1.472 -0.2882  0.1029 -0.8799
  115DG     O10 2632   4.912   3.401   1.550 -0.8823  1.0487  0.2471
  115DG     C11 2633   4.516   3.084   1.580 -0.2760  0.1878 -0.2016
  115DG     C12 2634   4.833   3.404   1.431  0.1220 -0.2870  0.9338
  115DG     H13 2635   4.598   3.035   1.633 -1.5046 -1.5799  0.1680
  115DG     H14 2636   4.444   3.090   1.661  0.7742  2.5001  0.6503
  115DG     H15 2637   4.867   3.335   1.355  2.1072  0.1795  1.3361
  115DG     H16 2638   4.841   3.507   1.395 -0.0354 -0.5957  0.0119
  115DG     C17 2639   4.536   3.229   1.547  0.2762 -0.0361 -0.2088
  115DG     C18 2640   4.689   3.383   1.466 -0.2635  0.1136 -0.3467
  115DG     O19 2641   4.669   3.248   1.501  0.3320 -0.3655  0.1354
  115DG     H20 2642   4.534   3.281   1.643  0.2784 -0.7311  0.1735
  115DG     H21 2643   4.467   3.268   1.473  0.4668  1.7537  0.4886
  115DG     H22 2644   4.667   3.445   1.553  1.2867 -0.8206  0.7599
  115DG     H23 2645   4.616   3.410   1.390 -3.1141  1.4173  2.5969
  116DG      C1 2646   2.691   0.298   2.031  0.0127 -0.0708 -0.2780
  116DG      C2 2647   2.634  -0.188   1.498  0.3151  0.5239 -0.0469
  116DG      H3 2648   2.668   0.379   1.962  0.2700  1.3421  1.2280
  116DG      H4 2649   2.754   0.332   2.113  0.2064  2.3447 -1.3396
  116DG      H5 2650   2.593   0.281   2.077 -0.1916  0.2819 -0.5735
  116DG      H6 2651   2.610  -0.118   1.418  2.0794  2.5549  1.0773
  116DG      H7 2652   2.667  -0.274   1.439  0.5513  0.1864  0.5762
  116DG      H8 2653   2.543  -0.203   1.556  1.3926 -2.7199  1.0281
  116DG      O9 2654   2.727   0.182   1.972 -0.7419  0.0118  0.2698
  116DG     O10 2655   2.740  -0.134   1.572  0.3722 -0.1182 -0.3538
  116DG     C11 2656   2.865   0.176   1.935  0.0428 -0.2735 -0.5190
  116DG     C12 2657   2.788  -0.213   1.681  0.2860 -0.3133 -0.3432
  116DG     H13 2658   2.927   0.216   2.015 -2.4716 -2.1337  2.5944
  116DG     H14 2659   2.886   0.230   1.842 -1.5620 -1.0073 -1.3526
  116DG     H15 2660   2.835  -0.295   1.626 -0.4459 -0.5571 -0.6151
  116DG     H16 2661   2.702  -0.259   1.731  0.9147 -0.7687  0.3562
  116DG     C17 2662   2.913   0.028   1.923 -0.0965 -0.4159  0.7141
  116DG     C18 2663   2.898  -0.144   1.767 -0.1719  0.0905  0.0695
  116DG     O19 2664   2.833  -0.035   1.825  0.6826 -0.0357 -0.3837
  116DG     H20 2665   2.900  -0.008   2.025  0.3068 -1.3597  0.4504
  116DG     H21 2666   3.017   0.020   1.891 -0.9089  0.7132 -2.6645
  116DG     H22 2667   2.928  -0.194   1.859  2.1766  1.2066 -0.0117
  116DG     H23 2668   2.986  -0.117   1.708  0.2618  1.3506  1.2542
  117DG      C1 2669   0.003   1.528   1.030  0.3890  0.3470 -0.2366
  117DG      C2 2670   0.006   2.122   1.540  0.1148  0.3733 -0.4123
  117DG      H3 2671   0.106   1.496   1.009 -0.2506 -2.1036  0.0492
  117DG      H4 2672  -0.048   1.482   0.945  0.8446  2.4154 -1.7020
  117DG      H5 2673  -0.027   1.463   1.112 -1.8263 -0.5266 -1.6498
  117DG      H6 2674  -0.032   2.074   1.630  2.0749 -1.2387 -0.3725
  117DG      H7 2675   0.115   2.119   1.548  0.0635 -1.8480  0.0994
  117DG      H8 2676  -0.017   2.228   1.549  2.3741  0.8686  0.1989
  117DG      O9 2677  -0.013   1.669   1.053  0.2614  0.3735 -0.0855
  117DG     O10 2678  -0.020   2.074   1.407 -0.0678 -0.5181 -0.3777
  117DG     C11 2679  -0.152   1.700   1.071  0.1557  0.2392 -0.2789
  117DG     C12 2680  -0.155   2.088   1.374  0.3007  0.1125 -0.4699
  117DG     H13 2681  -0.191   1.653   1.162  2.6507 -4.1281 -1.1953
  117DG     H14 2682  -0.207   1.645   0.995  0.7985 -1.8590  0.6777
  117DG     H15 2683  -0.171   2.194   1.394 -1.7586 -0.5543  2.0190
  117DG     H16 2684  -0.218   2.031   1.443 -0.8239  0.4869 -1.1610
  117DG     C17 2685  -0.176   1.852   1.074  0.4624  0.2167  0.0584
  117DG     C18 2686  -0.184   2.036   1.234  0.4932 -0.1390  0.2850
  117DG     O19 2687  -0.133   1.907   1.200 -0.5123  0.1644  0.7167
  117DG     H20 2688  -0.280   1.866   1.042  0.1548  1.8776  1.6070
  117DG     H21 2689  -0.101   1.894   1.006 -0.1100  0.3879 -0.4827
  117DG     H22 2690  -0.288   2.045   1.204  0.4087 -0.3568  0.5159
  117DG     H23 2691  -0.131   2.103   1.166  1.2627 -0.5617  0.4491
  118DG      C1 2692   1.553   5.087   4.082  0.6517  0.3430 -0.4069
  118DG      C2 2693   1.403   5.377   4.612 -0.1358  0.0141 -0.2720
  118DG      H3 2694   1.560   4.979   4.090  0.8004  0.3048 -0.9806
  118DG      H4 2695   1.621   5.128   4.007 -0.4031  1.6709 -0.6702
  118DG      H5 2696   1.451   5.102   4.046  0.7033  2.1781  0.1066
  118DG      H6 2697   1.472   5.400   4.531  0.1302  0.4246  0.0663
  118DG      H7 2698   1.300   5.407   4.591 -0.5144 -0.6103  0.6057
  118DG      H8 2699   1.429   5.443   4.694 -0.8391 -0.0587  0.0202
  118DG      O9 2700   1.574   5.161   4.198  0.4144  0.1226 -0.0206
  118DG     O10 2701   1.394   5.248   4.678 -0.3617 -0.7529  0.0382
  118DG     C11 2702   1.700   5.140   4.268  0.6240 -0.0759  0.0613
  118DG     C12 2703   1.517   5.197   4.734 -0.2937  0.0468  0.0404
  118DG     H13 2704   1.772   5.192   4.203 -1.4668  2.1354 -0.6363
  118DG     H14 2705   1.729   5.035   4.269 -0.4167 -0.3999  3.1033
  118DG     H15 2706   1.500   5.093   4.761 -0.7702  0.3214  0.8275
  118DG     H16 2707   1.548   5.246   4.826 -2.7403  2.4072 -0.2884
  118DG     C17 2708   1.716   5.193   4.413 -0.2171 -0.2513 -0.0088
  118DG     C18 2709   1.640   5.215   4.631  0.5022  1.1269  1.3555
  118DG     O19 2710   1.613   5.160   4.503 -0.0053 -0.2635 -0.1174
  118DG     H20 2711   1.737   5.300   4.417 -1.1452 -0.0768  0.6079
  118DG     H21 2712   1.814   5.160   4.448 -0.9673 -0.0861  2.4261
  118DG     H22 2713   1.678   5.317   4.626  1.6792  0.6987  1.2051
  118DG     H23 2714   1.729   5.160   4.664  0.1293 -0.1145  0.3518
  119DG      C1 2715   0.420   0.085   2.484 -0.9352 -0.0786 -0.0405
  119DG      C2 2716  -0.011  -0.118   3.003 -0.0476 -0.0069 -0.1830
  119DG      H3 2717   0.427   0.161   2.407 -0.8859 -0.5096 -0.4698
  119DG      H4 2718   0.423  -0.014   2.438 -0.2545 -1.6593  3.0930
  119DG      H5 2719   0.515   0.079   2.539 -1.0985  0.7587  0.3417
  119DG      H6 2720  -0.108  -0.101   3.050  0.7999  0.0379  1.6149
  119DG      H7 2721   0.001  -0.223   2.977  0.0798 -0.7724  2.6741
  119DG      H8 2722   0.066  -0.094   3.076  1.9122 -1.7757 -1.5365
  119DG      O9 2723   0.315   0.121   2.571 -0.3180 -0.1407 -0.1259
  119DG     O10 2724   0.015  -0.057   2.885  0.1891 -0.1107 -0.8122
  119DG     C11 2725   0.195   0.158   2.511  0.0119 -0.3338 -0.1587
  119DG     C12 2726  -0.059   0.069   2.854  0.7773  0.6269 -0.8331
  119DG     H13 2727   0.135   0.069   2.491  2.6551 -2.7489  1.7818
  119DG     H14 2728   0.211   0.199   2.412  0.7249 -0.6800 -0.1919
  119DG     H15 2729  -0.053   0.142   2.935 -2.7618 -1.7937  1.9221
  119DG     H16 2730  -0.167   0.062   2.842  0.8571 -0.9057 -0.8916
  119DG     C17 2731   0.132   0.255   2.607 -0.4292  0.4490  0.0559
  119DG     C18 2732  -0.028   0.126   2.720 -0.6770  0.4091  0.0947
  119DG     O19 2733   0.096   0.204   2.733 -0.3730 -0.0029 -0.1734
  119DG     H20 2734   0.061   0.317   2.553  0.1380  0.6876 -0.4145
  119DG     H21 2735   0.211   0.329   2.620 -1.6902  1.7075  0.9220
  119DG     H22 2736  -0.015   0.051   2.642  2.3550 -0.3498  1.1769
  119DG     H23 2737  -0.104   0.198   2.688 -1.4241 -0.9317 -1.2533
  120DG      C1 2738   4.979   1.644   1.573 -0.1531  0.3765 -0.4944
  120DG      C2 2739   5.065   1.118   1.111 -0.1879 -0.2288  0.3726
  120DG      H3 2740   4.888   1.665   1.629 -0.5162  1.5523 -1.4835
  120DG      H4 2741   5.024   1.743   1.565 -0.4282  0.6321  0.8656
  120DG      H5 2742   5.046   1.579   1.628 -1.5302  0.2273  1.0956
  120DG      H6 2743   5.073   1.091   1.006 -1.5460 -0.7240  0.3771
  120DG      H7 2744   5.170   1.112   1.138  1.2551  2.4280 -3.8022
  120DG      H8 2745   5.005   1.047   1.169  2.7379 -2.0834  1.3280
  120DG      O9 2746   4.951   1.598   1.436 -0.2443  0.0603  0.1083
  120DG     O10 2747   5.027   1.255   1.135  0.2639 -0.0385  0.7778
  120DG     C11 2748   4.837   1.653   1.368  0.5959 -0.1074  0.2689
  120DG     C12 2749   4.927   1.302   1.042 -1.0343 -0.4707 -0.3847
  120DG     H13 2750   4.844   1.762   1.362  0.2481 -0.0952  0.1105
  120DG     H14 2751   4.748   1.619   1.420 -1.7010  1.0441 -2.6527
  120DG     H15 2752   4.831   1.251   1.045 -0.9073 -0.7653 -1.0586
  120DG     H16 2753   4.961   1.285   0.940 -0.9293 -2.4942 -0.0500
  120DG     C17 2754   4.842   1.615   1.217  0.1005 -0.9703 -0.6538
  120DG     C18 2755   4.888   1.452   1.059 -0.2132  0.6136  0.3326
  120DG     O19 2756   4.882   1.483   1.193 -0.1256 -0.2109 -0.5199
  120DG     H20 2757   4.902   1.689   1.164 -0.7099  0.7963  0.7647
  120DG     H21 2758   4.744   1.625   1.170 -0.4800 -1.8153  0.3302
  120DG     H22 2759   4.969   1.513   1.017 -0.0738  0.8100  0.8781
  120DG     H23 2760   4.808   1.491   0.996  1.3330  2.4648 -0.5986
  121DG      C1 2761   1.509   2.488   1.679  0.2146  0.2461 -0.4434
  121DG      C2 2762   2.027   2.285   1.635  0.1160 -0.5577  0.7115
  121DG      H3 2763   1.512   2.387   1.719 -2.8051  1.2785  2.9010
  121DG      H4 2764   1.434   2.553   1.724  2.2186  1.6155  1.1346
  121DG      H5 2765   1.605   2.537   1.696 -0.3355  1.2035 -0.0231
  121DG      H6 2766   2.125   2.331   1.616 -0.4835  0.2765 -0.4955
  121DG      H7 2767   2.017   2.256   1.739  1.4498  1.1494  1.3756
  121DG      H8 2768   2.015   2.191   1.583  3.8989 -1.4621  1.1937
  121DG      O9 2769   1.484   2.473   1.540 -0.5523 -0.3596 -0.5447
  121DG     O10 2770   1.919   2.372   1.596  0.9680 -0.0123 -0.3758
  121DG     C11 2771   1.498   2.591   1.467  0.4710  0.5888  0.0351
  121DG     C12 2772   1.945   2.436   1.469  0.3004  0.6043  0.1352
  121DG     H13 2773   1.428   2.666   1.503  0.4716  1.2759 -1.3277
  121DG     H14 2774   1.453   2.584   1.368 -1.1109  1.5970  0.6489
  121DG     H15 2775   1.949   2.370   1.382 -2.1240  1.3035 -0.5938
  121DG     H16 2776   2.048   2.473   1.472  1.4507 -1.4515 -4.3751
  121DG     C17 2777   1.644   2.629   1.449  0.1378  0.0131  0.0380
  121DG     C18 2778   1.859   2.556   1.440  0.4370 -0.6573 -0.8438
  121DG     O19 2779   1.723   2.513   1.449 -0.1212  0.2195  0.1134
  121DG     H20 2780   1.672   2.709   1.517  0.5112  0.3713 -0.5310
  121DG     H21 2781   1.649   2.674   1.350  2.4315 -2.7864 -1.2932
  121DG     H22 2782   1.888   2.636   1.508 -3.5806 -2.1402  3.0345
  121DG     H23 2783   1.884   2.586   1.338  2.2086  1.3027  0.0964
  122DG      C1 2784   0.167   1.778   3.883  0.7754  0.0437 -0.6408
  122DG      C2 2785   0.111   1.379   4.235 -0.1651 -0.2140  0.0034
  122DG      H3 2786   0.101   1.691   3.886  0.7289  0.0895  2.6203
  122DG      H4 2787   0.249   1.771   3.811  0.3883  1.6998 -1.2913
  122DG      H5 2788   0.114   1.871   3.861 -1.0991 -0.7154  0.4637
  122DG      H6 2789   0.089   1.468   4.176 -0.1058  0.3303  0.7904
  122DG      H7 2790   0.167   1.304   4.178  0.0820  1.4557 -2.0721
  122DG      H8 2791   0.018   1.325   4.255 -0.5201  1.2216  2.7309
  122DG      O9 2792   0.219   1.781   4.016  0.4699 -1.0913 -0.0648
  122DG     O10 2793   0.177   1.394   4.362 -0.1384  0.2503  0.4912
  122DG     C11 2794   0.144   1.831   4.123 -0.2190  0.6888  0.0125
  122DG     C12 2795   0.304   1.458   4.362 -0.1201  0.5367 -0.1177
  122DG     H13 2796   0.040   1.800   4.106  0.1912  0.4928 -2.6147
  122DG     H14 2797   0.143   1.940   4.112  0.3342  0.9264  1.9655
  122DG     H15 2798   0.360   1.440   4.271  1.3319  3.2608  0.1377
  122DG     H16 2799   0.365   1.423   4.445 -1.1517 -0.7157  0.1538
  122DG     C17 2800   0.215   1.791   4.252  0.2719  0.5530 -0.2102
  122DG     C18 2801   0.288   1.610   4.379  0.1890 -0.2599  0.1894
  122DG     O19 2802   0.212   1.651   4.264  0.4848  0.5577  0.0903
  122DG     H20 2803   0.170   1.845   4.336 -1.2031 -1.0272  0.0611
  122DG     H21 2804   0.317   1.829   4.249  0.3646  0.6780  2.2351
  122DG     H22 2805   0.240   1.629   4.475  1.0558  1.3135  0.3427
  122DG     H23 2806   0.386   1.658   4.378  1.0440 -1.8648  1.3573
  123DG      C1 2807   2.504   3.885   4.764 -0.0029  0.4913 -0.2192
  123DG      C2 2808   2.795   4.482   4.933 -0.4964 -1.2126 -0.4419
  123DG      H3 2809   2.521   3.782   4.734 -0.5913 -0.4253  2.3538
  123DG      H4 2810   2.454   3.938   4.683  0.1201  0.2627 -0.4450
  123DG      H5 2811   2.440   3.884   4.852  0.2784 -0.4580 -0.0201
  123DG      H6 2812   2.837   4.524   4.842 -1.6980 -1.0676 -0.9369
  123DG      H7 2813   2.691   4.512   4.942 -0.0792  0.7284 -1.6435
  123DG      H8 2814   2.851   4.506   5.024 -0.1084  3.9220 -1.7726
  123DG      O9 2815   2.627   3.949   4.792  0.3993  0.2588  0.3318
  123DG     O10 2816   2.796   4.343   4.935 -0.6249  0.7869 -0.6329
  123DG     C11 2817   2.709   3.866   4.875 -0.0058  0.1743 -0.0789
  123DG     C12 2818   2.922   4.283   4.926 -0.4503  0.7922 -0.5016
  123DG     H13 2819   2.723   3.764   4.839 -1.4611 -0.5848  1.3845
  123DG     H14 2820   2.656   3.855   4.969  2.9738  0.3092  1.7246
  123DG     H15 2821   3.002   4.344   4.968 -0.1865 -0.3537  0.7595
  123DG     H16 2822   2.938   4.262   4.820 -2.7125  2.3087 -1.2291
  123DG     C17 2823   2.830   3.950   4.912 -0.2125 -0.8117 -0.3255
  123DG     C18 2824   2.918   4.153   5.002  1.0254  0.1981  0.4628
  123DG     O19 2825   2.796   4.079   4.957 -0.6493  0.0843 -0.0390
  123DG     H20 2826   2.889   3.961   4.821 -0.9840 -0.6785 -0.8136
  123DG     H21 2827   2.886   3.905   4.995  1.9819 -0.9609 -1.8034
  123DG     H22 2828   3.011   4.098   4.994  0.2750 -0.8686 -1.7263
  123DG     H23 2829   2.907   4.170   5.110  1.6521 -1.6708  0.8647
  124DG      C1 2830   3.584   4.929   3.946  0.3899  0.0727  0.6991
  124DG      C2 2831   3.266   4.351   4.063  0.4819  0.0532  0.5737
  124DG      H3 2832   3.545   4.927   3.845 -0.7967 -2.0362  1.1438
  124DG      H4 2833   3.676   4.871   3.940  1.7369  2.2783 -2.7113
  124DG      H5 2834   3.606   5.034   3.968 -0.4966  0.4024  0.0507
  124DG      H6 2835   3.229   4.278   4.135 -0.1156  0.6395  0.8741
  124DG      H7 2836   3.193   4.359   3.982  0.8377 -2.2619 -0.0410
  124DG      H8 2837   3.356   4.312   4.017 -0.0960 -0.5118 -0.1051
  124DG      O9 2838   3.500   4.866   4.039 -0.1051  0.0996 -0.7743
  124DG     O10 2839   3.289   4.476   4.132 -0.5459  0.2953 -0.1724
  124DG     C11 2840   3.398   4.953   4.090 -0.2650 -1.0316  0.0734
  124DG     C12 2841   3.187   4.523   4.216  0.0838  0.0362  0.0175
  124DG     H13 2842   3.326   4.993   4.019 -0.2182 -2.4027 -0.7806
  124DG     H14 2843   3.437   5.048   4.128 -0.9474  1.7280 -5.1731
  124DG     H15 2844   3.198   4.466   4.308  1.7092 -2.3769 -1.5547
  124DG     H16 2845   3.088   4.506   4.172  0.2956 -0.0936 -0.4182
  124DG     C17 2846   3.319   4.875   4.200  0.3217 -0.3467 -0.7108
  124DG     C18 2847   3.213   4.673   4.254 -0.1118  0.7001  0.3181
  124DG     O19 2848   3.279   4.745   4.150  0.0099  0.4536 -0.1177
  124DG     H20 2849   3.230   4.932   4.224 -0.7342 -2.2892  0.2788
  124DG     H21 2850   3.380   4.871   4.291  0.0772 -0.9222 -0.5673
  124DG     H22 2851   3.125   4.712   4.305 -1.0500  0.1903 -0.8685
  124DG     H23 2852   3.287   4.665   4.334  0.1637 -0.6709 -0.0384
  125DG      C1 2853   4.762   1.109   3.627  0.1349 -0.6908 -0.5911
  125DG      C2 2854   4.832   0.704   4.240  0.0170  0.1042 -0.6908
  125DG      H3 2855   4.848   1.136   3.565 -1.0478 -0.1082 -2.0529
  125DG      H4 2856   4.687   1.187   3.613 -0.2141 -1.0865 -0.9860
  125DG      H5 2857   4.711   1.026   3.578 -0.1845 -1.4263  0.9533
  125DG      H6 2858   4.857   0.608   4.195  1.5316 -0.7852  1.7724
  125DG      H7 2859   4.890   0.701   4.333 -0.8272  0.5753 -0.1393
  125DG      H8 2860   4.725   0.707   4.261  0.3298 -0.9207  1.4458
  125DG      O9 2861   4.797   1.082   3.766  0.5452  0.6926 -0.1268
  125DG     O10 2862   4.874   0.807   4.166 -0.4616  0.0692 -0.5832
  125DG     C11 2863   4.805   1.203   3.844  0.0481  0.4806  0.0663
  125DG     C12 2864   4.857   0.929   4.235 -0.0413 -0.8630 -0.2085
  125DG     H13 2865   4.705   1.230   3.879 -0.4987  0.0234 -1.0667
  125DG     H14 2866   4.843   1.292   3.794  0.7467  0.1538  0.0003
  125DG     H15 2867   4.906   0.929   4.332  1.6417  0.5296 -1.0002
  125DG     H16 2868   4.751   0.947   4.254 -0.3021 -2.0517 -0.4774
  125DG     C17 2869   4.893   1.187   3.973 -0.1634 -0.4464  0.7783
  125DG     C18 2870   4.923   1.042   4.156  0.3196  0.4972 -0.5908
  125DG     O19 2871   4.874   1.058   4.027  0.7613  0.2381  0.5141
  125DG     H20 2872   4.859   1.259   4.046 -0.9992 -1.5866  1.5499
  125DG     H21 2873   4.997   1.211   3.948 -0.4057  0.4809  0.6206
  125DG     H22 2874   4.915   1.138   4.206 -1.3949  0.9276 -1.6378
  125DG     H23 2875   5.027   1.024   4.126 -0.1787 -0.4068 -1.8898
  126DG      C1 2876   5.046   2.636   1.074  0.0897  0.1563  0.6059
  126DG      C2 2877   5.072   2.827   1.705 -0.0616 -0.6436 -0.2483
  126DG      H3 2878   4.999   2.543   1.103 -0.5337 -0.1313 -1.1973
  126DG      H4 2879   5.151   2.629   1.104  0.4355  0.4488 -0.4694
  126DG      H5 2880   5.042   2.658   0.967  0.6570 -0.3772  0.4680
  126DG      H6 2881   5.138   2.892   1.762  0.9331 -0.3957 -1.6337
  126DG      H7 2882   4.979   2.816   1.760 -0.9739 -1.4468 -1.8950
  126DG      H8 2883   5.118   2.728   1.701 -1.6165 -1.4171  0.3958
  126DG      O9 2884   4.979   2.740   1.143  0.2015 -0.4046  0.5120
  126DG     O10 2885   5.046   2.867   1.567 -0.2556 -0.1124  0.3247
  126DG     C11 2886   5.020   2.877   1.102 -0.3531  0.8598 -0.2612
  126DG     C12 2887   4.954   2.975   1.558  0.5223  0.3124 -0.5169
  126DG     H13 2888   4.983   2.893   1.000 -2.1354  1.9215  0.5048
  126DG     H14 2889   5.128   2.888   1.093 -0.3297  0.1662 -0.9371
  126DG     H15 2890   4.988   3.054   1.626 -0.4140  0.1867  0.1093
  126DG     H16 2891   4.858   2.939   1.594  1.0992  0.0724  0.8560
  126DG     C17 2892   4.969   2.989   1.189  0.0420  0.6833 -0.6564
  126DG     C18 2893   4.948   3.050   1.427 -0.1909  0.6367 -0.3497
  126DG     O19 2894   4.949   2.952   1.322 -0.0685 -0.0876  0.3234
  126DG     H20 2895   4.867   3.008   1.154 -1.5153 -2.3353  1.8033
  126DG     H21 2896   5.035   3.074   1.176  1.1052 -0.3411 -2.3171
  126DG     H22 2897   4.860   3.115   1.426  0.0110  0.9713 -2.6646
  126DG     H23 2898   5.035   3.114   1.412 -0.0392  0.2627 -1.1542
  127DG      C1 2899   5.434   4.749   4.505 -0.3223  0.3171  0.0864
  127DG      C2 2900   5.261   4.142   4.396  0.2716  0.4208  0.3736
  127DG      H3 2901   5.533   4.752   4.550 -0.4297 -1.5257  0.5338
  127DG      H4 2902   5.360   4.730   4.583 -0.5885 -1.6386 -0.5637
  127DG      H5 2903   5.415   4.840   4.448  0.2886 -0.1983 -0.9664
  127DG      H6 2904   5.281   4.166   4.500  0.2848  2.8808 -0.1435
  127DG      H7 2905   5.153   4.154   4.388  0.3247 -0.0387 -1.7805
  127DG      H8 2906   5.282   4.041   4.360  1.6464  1.1886 -1.0956
  127DG      O9 2907   5.433   4.644   4.407 -0.6482  0.1325 -0.4782
  127DG     O10 2908   5.342   4.227   4.311  0.7177 -0.0834 -0.3602
  127DG     C11 2909   5.560   4.635   4.340  0.0572  0.1137 -0.8147
  127DG     C12 2910   5.483   4.188   4.290  0.3769  0.4737 -1.0040
  127DG     H13 2911   5.640   4.619   4.413 -1.8992  1.5384  1.8239
  127DG     H14 2912   5.584   4.728   4.287 -0.6535  1.1826  0.6757
  127DG     H15 2913   5.491   4.091   4.242 -0.3298 -0.1888  0.1582
  127DG     H16 2914   5.526   4.174   4.389 -0.7721 -1.8287 -0.7629
  127DG     C17 2915   5.558   4.534   4.238 -0.2704 -0.4161 -0.4163
  127DG     C18 2916   5.564   4.299   4.229 -0.0674 -0.7113  0.0863
  127DG     O19 2917   5.533   4.413   4.304  0.3631 -0.2139 -0.2057
  127DG     H20 2918   5.657   4.533   4.193  0.5178  0.5404  1.2305
  127DG     H21 2919   5.487   4.559   4.159 -1.0892 -1.0348  0.1033
  127DG     H22 2920   5.670   4.279   4.243 -0.3156 -4.2022 -1.9406
  127DG     H23 2921   5.532   4.302   4.125 -2.4522  1.2115  0.7896
  128DG      C1 2922   3.542   4.714   0.111  0.1203 -0.5001 -0.3417
  128DG      C2 2923   3.286   4.475  -0.510  0.5887 -0.2687  0.3671
  128DG      H3 2924   3.578   4.807   0.156 -0.9813 -0.0172 -0.4249
  128DG      H4 2925   3.624   4.643   0.104  0.7754 -0.0031  1.5021
  128DG      H5 2926   3.473   4.671   0.183  0.6922  1.7589  1.6835
  128DG      H6 2927   3.201   4.411  -0.486 -0.8352  0.2139 -2.8013
  128DG      H7 2928   3.270   4.571  -0.461  1.0765 -0.4829  0.9507
  128DG      H8 2929   3.282   4.480  -0.619  0.2398 -1.7651  0.2893
  128DG      O9 2930   3.463   4.724  -0.010  0.2068  0.4878 -0.6149
  128DG     O10 2931   3.410   4.418  -0.460  0.2783 -0.0936  0.6414
  128DG     C11 2932   3.527   4.806  -0.106  0.3993  0.2772  0.0005
  128DG     C12 2933   3.415   4.419  -0.319  0.6841 -0.4796 -0.0131
  128DG     H13 2934   3.632   4.777  -0.109 -0.3071 -2.5132 -0.0905
  128DG     H14 2935   3.521   4.913  -0.085 -0.6581  0.7060 -2.1010
  128DG     H15 2936   3.473   4.332  -0.287  1.7248  0.4840  0.7731
  128DG     H16 2937   3.315   4.406  -0.277  0.2798 -1.4136 -1.1829
  128DG     C17 2938   3.470   4.794  -0.250 -0.8660 -0.0681  0.4947
  128DG     C18 2939   3.491   4.551  -0.282 -0.0138 -0.3972 -0.5078
  128DG     O19 2940   3.407   4.664  -0.277 -0.2747 -0.1405  0.2967
  128DG     H20 2941   3.538   4.813  -0.332 -3.0772  3.4452 -0.7484
  128DG     H21 2942   3.393   4.869  -0.271 -0.7019 -0.2652 -0.9016
  128DG     H22 2943   3.543   4.522  -0.191  1.6512  0.1768 -1.2428
  128DG     H23 2944   3.570   4.572  -0.354 -0.6123  2.0762 -0.5415
  129DG      C1 2945   0.410   3.388   3.430  0.1187  0.5745  0.4166
  129DG      C2 2946   0.302   3.555   2.744 -0.4381 -0.4937  0.1146
  129DG      H3 2947   0.452   3.322   3.506  1.2691 -0.2728 -0.9241
  129DG      H4 2948   0.303   3.375   3.416 -0.2537  1.1594  2.3324
  129DG      H5 2949   0.431   3.490   3.464 -2.5949  1.4914 -0.3896
  129DG      H6 2950   0.313   3.652   2.695 -0.2223 -0.4953  0.1587
  129DG      H7 2951   0.278   3.487   2.662 -0.5958  0.2155 -0.4459
  129DG      H8 2952   0.219   3.573   2.813 -0.7350  0.5354 -0.4754
  129DG      O9 2953   0.473   3.343   3.318 -0.4793  0.0792 -0.0257
  129DG     O10 2954   0.418   3.510   2.818  0.9074  0.3159 -0.2637
  129DG     C11 2955   0.589   3.413   3.285  0.0512  0.0971  0.4898
  129DG     C12 2956   0.418   3.376   2.862  0.3475 -0.4551  0.0458
  129DG     H13 2957   0.670   3.386   3.353 -1.5037 -1.4718  1.8059
  129DG     H14 2958   0.575   3.521   3.286 -2.3518 -0.1413  2.0986
  129DG     H15 2959   0.401   3.303   2.784  1.1050 -0.4159 -0.1572
  129DG     H16 2960   0.334   3.368   2.932 -1.9282  0.4460 -2.3923
  129DG     C17 2961   0.639   3.363   3.154 -0.7033  0.5605  0.3016
  129DG     C18 2962   0.551   3.353   2.934 -0.0250  0.4874 -0.0026
  129DG     O19 2963   0.548   3.412   3.061  0.4067 -0.3577 -0.4925
  129DG     H20 2964   0.637   3.254   3.157 -0.0556  0.5101 -0.6413
  129DG     H21 2965   0.738   3.402   3.130 -0.5672  0.2335  0.3272
  129DG     H22 2966   0.542   3.245   2.940  1.1656  0.1445 -2.8548
  129DG     H23 2967   0.643   3.359   2.876 -0.2429 -0.3256 -0.4384
  130DG      C1 2968   4.291   0.260   2.112  0.5294  0.3524 -0.1564
  130DG      C2 2969   4.310   0.484   2.451 -0.3150 -0.0787 -0.0792
  130DG      H3 2970   4.210   0.208   2.060 -0.8207  1.7078  0.5269
  130DG      H4 2971   4.254   0.356   2.147 -2.2570 -1.1284  1.3853
  130DG      H5 2972   4.327   0.201   2.197  1.3307  1.1572  0.0661
  130DG      H6 2973   4.208   0.452   2.435 -0.0052 -0.6176 -1.0253
  130DG      H7 2974   4.346   0.412   2.525 -1.9891  0.4193  1.2948
  130DG      H8 2975   4.314   0.577   2.508  0.9456 -0.0961 -0.1145
  130DG      O9 2976   4.382   0.265   2.008 -0.1781 -0.0508 -0.7211
  130DG     O10 2977   4.371   0.490   2.329  0.1258 -0.4157  0.0675
  130DG     C11 2978   4.391   0.385   1.929  0.2648  0.6312 -0.6888
  130DG     C12 2979   4.482   0.584   2.316  0.2027 -0.2496  0.4339
  130DG     H13 2980   4.295   0.435   1.923 -1.0563 -1.9021 -1.9567
  130DG     H14 2981   4.394   0.341   1.829  0.1715 -0.0252 -0.4102
  130DG     H15 2982   4.560   0.582   2.392 -1.6362 -0.8289  2.3997
  130DG     H16 2983   4.441   0.685   2.323 -3.8819 -1.7136  0.2305
  130DG     C17 2984   4.514   0.473   1.956 -0.2825 -0.5705  0.1162
  130DG     C18 2985   4.562   0.544   2.187  0.0888 -0.0807  0.0217
  130DG     O19 2986   4.481   0.545   2.075  0.1101 -0.3413 -0.2801
  130DG     H20 2987   4.532   0.537   1.869  0.5217  0.3333  0.9352
  130DG     H21 2988   4.600   0.409   1.976 -1.6532 -2.0150  1.7169
  130DG     H22 2989   4.656   0.596   2.170  0.4731 -0.6035  0.5307
  130DG     H23 2990   4.600   0.442   2.188 -1.3267 -0.6380 -0.0868
  131DG      C1 2991   3.431   0.650   3.086 -0.3461 -0.5733  0.0742
  131DG      C2 2992   3.623   0.783   3.713 -0.2101 -0.3823  0.5332
  131DG      H3 2993   3.522   0.663   3.027  0.8757 -1.9975  1.5528
  131DG      H4 2994   3.370   0.579   3.029  1.1713 -1.7580 -0.1251
  131DG      H5 2995   3.473   0.585   3.162  0.9309  0.6756  0.4777
  131DG      H6 2996   3.658   0.680   3.722  1.4295  0.1053  0.1665
  131DG      H7 2997   3.706   0.839   3.669 -0.8634 -0.4279 -0.8068
  131DG      H8 2998   3.599   0.816   3.814  1.3394  0.8250  0.5564
  131DG      O9 2999   3.371   0.767   3.134 -0.1140  0.1768 -0.0672
  131DG     O10 3000   3.508   0.781   3.630  0.5755 -0.1334 -0.2537
  131DG     C11 3001   3.249   0.740   3.216 -0.1575  0.3100 -0.2465
  131DG     C12 3002   3.457   0.914   3.603  0.9224 -0.9166  0.2283
  131DG     H13 3003   3.253   0.645   3.269  0.9052  0.3452 -0.2483
  131DG     H14 3004   3.165   0.734   3.147 -0.7774 -2.5779  0.6374
  131DG     H15 3005   3.527   0.958   3.532  0.2529 -2.0242 -1.1807
  131DG     H16 3006   3.451   0.979   3.690 -0.3101  2.2519 -2.0275
  131DG     C17 3007   3.234   0.840   3.320  0.1212 -0.0719  0.4141
  131DG     C18 3008   3.325   0.910   3.527  0.2329 -0.5158  0.5646
  131DG     O19 3009   3.334   0.816   3.420 -0.3847 -0.1031 -0.3128
  131DG     H20 3010   3.129   0.836   3.347 -0.4586  2.3595 -1.1773
  131DG     H21 3011   3.250   0.936   3.271 -0.6405 -1.3476 -2.6200
  131DG     H22 3012   3.246   0.872   3.591 -0.2459  0.5897  0.6557
  131DG     H23 3013   3.287   1.000   3.478 -0.8233  0.0741  2.3793
  132DG      C1 3014   1.359   3.549   1.951  0.0778 -0.4626 -0.4733
  132DG      C2 3015   1.234   3.828   1.390  0.5199 -0.3699  0.3561
  132DG      H3 3016   1.324   3.499   2.041 -0.7316  0.1047 -0.4669
  132DG      H4 3017   1.449   3.609   1.966 -0.1102 -0.6373  1.5615
  132DG      H5 3018   1.392   3.473   1.879  0.2254 -2.3870  1.5007
  132DG      H6 3019   1.189   3.731   1.373  0.3173 -0.2951  0.4547
  132DG      H7 3020   1.203   3.899   1.312  0.7742 -0.3037  0.3163
  132DG      H8 3021   1.342   3.824   1.380  0.5189  0.5498 -0.1919
  132DG      O9 3022   1.253   3.629   1.891 -0.4494  0.1491 -0.4793
  132DG     O10 3023   1.199   3.883   1.520  0.4993 -0.0375  0.6741
  132DG     C11 3024   1.126   3.573   1.875 -0.1477  1.0959  0.0231
  132DG     C12 3025   1.057   3.897   1.531 -0.3754 -0.1032 -0.4633
  132DG     H13 3026   1.093   3.521   1.965  1.6558  3.9637  2.5408
  132DG     H14 3027   1.117   3.507   1.789 -0.5875 -0.2009  1.0364
  132DG     H15 3028   1.003   3.828   1.465 -2.2286 -1.2056  2.0251
  132DG     H16 3029   1.027   3.999   1.509  3.0106  0.9011 -0.9045
  132DG     C17 3030   1.036   3.688   1.837  0.3782  0.6757 -0.1404
  132DG     C18 3031   1.019   3.863   1.678  0.5883 -0.1206 -0.2680
  132DG     O19 3032   1.087   3.742   1.718 -0.5183  0.0089  0.0077
  132DG     H20 3033   1.021   3.763   1.916 -0.2513  0.1926  0.2097
  132DG     H21 3034   0.940   3.638   1.820 -0.3453  1.6537  0.8739
  132DG     H22 3035   1.046   3.942   1.748  0.8069 -0.6106  0.2068
  132DG     H23 3036   0.910   3.860   1.681  0.5260  1.2815 -0.1157
  133DG      C1 3037   2.341   2.546   0.649  0.0042  0.6667  0.6378
  133DG      C2 3038   2.722   3.034   0.446  0.0158 -0.3485 -0.6461
  133DG      H3 3039   2.323   2.564   0.543 -0.5669  0.1089  0.6370
  133DG      H4 3040   2.275   2.609   0.709 -0.0273 -1.3454  2.8274
  133DG      H5 3041   2.316   2.444   0.677  1.5628  0.8325  2.8974
  133DG      H6 3042   2.672   3.003   0.354 -2.1593 -0.0682  0.3646
  133DG      H7 3043   2.662   3.097   0.511  1.0796 -0.2860  0.3006
  133DG      H8 3044   2.820   3.070   0.417 -0.4271 -0.0268 -1.8105
  133DG      O9 3045   2.474   2.592   0.673 -0.3808  0.0953 -0.0504
  133DG     O10 3046   2.724   2.904   0.509  0.3199  0.0426  0.0005
  133DG     C11 3047   2.511   2.582   0.806 -0.3617 -0.2341  0.5789
  133DG     C12 3048   2.807   2.899   0.619 -0.0951  0.3299 -0.0581
  133DG     H13 3049   2.495   2.481   0.845 -0.5535 -0.5407 -0.2713
  133DG     H14 3050   2.446   2.651   0.860 -1.0582  0.6643 -1.3513
  133DG     H15 3051   2.768   2.970   0.692 -1.5852 -2.0283  1.5611
  133DG     H16 3052   2.913   2.919   0.604  0.2374 -0.6854  0.8707
  133DG     C17 3053   2.659   2.611   0.799  0.1305 -0.6452  0.1087
  133DG     C18 3054   2.805   2.766   0.687  0.4977 -0.7846 -0.2314
  133DG     O19 3055   2.674   2.741   0.734 -0.1228  0.2289  0.5217
  133DG     H20 3056   2.701   2.531   0.739  0.3581  0.0515 -0.6943
  133DG     H21 3057   2.706   2.613   0.897 -1.2979 -0.5245  0.8094
  133DG     H22 3058   2.829   2.678   0.628 -2.3831 -0.6204 -1.7777
  133DG     H23 3059   2.890   2.773   0.755  1.6247  0.0188 -1.6761
  134DG      C1 3060   4.024   1.323   3.891  0.0228  0.0435  0.2499
  134DG      C2 3061   4.257   1.460   3.360 -0.2241 -1.3783  0.2204
  134DG      H3 3062   3.993   1.262   3.975 -1.1890 -0.8905 -0.8318
  134DG      H4 3063   3.944   1.316   3.817 -0.5240 -3.7218  0.9994
  134DG      H5 3064   4.029   1.430   3.911 -2.6295  0.8627 -2.6195
  134DG      H6 3065   4.149   1.458   3.345 -0.5163  0.7145  1.5841
  134DG      H7 3066   4.281   1.566   3.368 -2.4339 -0.9400  2.5146
  134DG      H8 3067   4.306   1.411   3.276  0.1035 -0.3669 -0.1931
  134DG      O9 3068   4.145   1.287   3.820  0.9376 -0.5269  0.0611
  134DG     O10 3069   4.295   1.405   3.487  0.1968  0.4451  0.2934
  134DG     C11 3070   4.258   1.282   3.910  0.2874 -0.1520 -0.1307
  134DG     C12 3071   4.430   1.437   3.532  1.0977 -0.5337 -0.2718
  134DG     H13 3072   4.229   1.210   3.987  0.4104 -0.2245 -0.1512
  134DG     H14 3073   4.290   1.375   3.956 -2.2289  0.3956  0.6720
  134DG     H15 3074   4.456   1.541   3.514  2.0929 -0.7878 -0.3763
  134DG     H16 3075   4.508   1.382   3.478  0.2030 -0.3380 -1.8287
  134DG     C17 3076   4.387   1.226   3.841 -0.2471  0.0668  0.3127
  134DG     C18 3077   4.434   1.411   3.681 -0.2584  0.6327 -0.3531
  134DG     O19 3078   4.385   1.274   3.706  0.0555 -0.7018 -0.0144
  134DG     H20 3079   4.365   1.120   3.831  1.2241 -0.0940 -2.0604
  134DG     H21 3080   4.477   1.232   3.904 -0.1383  0.1866  0.1474
  134DG     H22 3081   4.540   1.402   3.706  0.1949  2.2726 -1.5824
  134DG     H23 3082   4.387   1.488   3.743 -0.7496  0.4315 -0.4671
  135DG      C1 3083   0.780   3.114   3.550 -0.2388  0.1367 -1.0712
  135DG      C2 3084   0.936   3.509   2.891  0.1023  0.0152 -0.6615
  135DG      H3 3085   0.705   3.053   3.498 -0.3869 -0.4147 -0.2395
  135DG      H4 3086   0.733   3.190   3.613  1.7916  0.1448  0.5271
  135DG      H5 3087   0.823   3.051   3.629 -1.0650  2.8812  1.7798
  135DG      H6 3088   0.964   3.603   2.939  1.6029 -0.8179  0.1749
  135DG      H7 3089   1.000   3.494   2.803 -1.2504  0.9375 -1.8415
  135DG      H8 3090   0.830   3.511   2.866 -0.2634 -0.3429  0.8035
  135DG      O9 3091   0.866   3.161   3.448  0.8458 -0.1141  0.4228
  135DG     O10 3092   0.967   3.413   2.991 -0.4663 -0.2961  0.2371
  135DG     C11 3093   0.942   3.273   3.497 -0.8089  0.2121 -0.2535
  135DG     C12 3094   1.093   3.434   3.060 -0.6972  0.0845 -0.3513
  135DG     H13 3095   0.974   3.241   3.596 -2.2977  1.3120  0.6286
  135DG     H14 3096   0.881   3.363   3.508  0.2550  0.8781  0.2469
  135DG     H15 3097   1.091   3.531   3.110  0.2776 -0.9479  1.8089
  135DG     H16 3098   1.173   3.445   2.987  0.5185 -2.9451  0.3660
  135DG     C17 3099   1.059   3.297   3.395  0.0488 -0.5035 -0.3084
  135DG     C18 3100   1.121   3.335   3.165  0.4363 -0.6095  0.0781
  135DG     O19 3101   1.018   3.336   3.266  0.5608 -0.7749  0.1594
  135DG     H20 3102   1.131   3.215   3.395  1.1961  0.4175  1.4905
  135DG     H21 3103   1.117   3.378   3.440  0.5857 -0.4577 -1.0761
  135DG     H22 3104   1.132   3.235   3.123  2.7923  0.3515 -1.7906
  135DG     H23 3105   1.219   3.357   3.207  0.3699 -1.1821  0.5569
  136DG      C1 3106   2.794   4.253   3.926 -0.3444 -0.3158  0.9708
  136DG      C2 3107   1.880   4.207   3.837 -0.1017  0.1889  0.4205
  136DG      H3 3108   2.813   4.153   3.966  1.1734 -0.0531  0.9381
  136DG      H4 3109   2.805   4.333   4.000  1.0667 -0.6573  1.1485
  136DG      H5 3110   2.872   4.271   3.853 -1.1609  0.3758  0.2473
  136DG      H6 3111   1.862   4.117   3.895  1.4271  0.9622  2.1901
  136DG      H7 3112   1.786   4.255   3.807  0.2897 -0.1219 -1.4703
  136DG      H8 3113   1.940   4.183   3.749 -0.9507 -2.5846  0.4945
  136DG      O9 3114   2.667   4.242   3.851 -0.3824  0.0521  0.7687
  136DG     O10 3115   1.957   4.288   3.914 -0.1270  0.6846  0.2233
  136DG     C11 3116   2.554   4.211   3.927 -0.4728 -0.0362 -0.2448
  136DG     C12 3117   2.083   4.239   3.952 -0.3049  0.1367  0.2106
  136DG     H13 3118   2.533   4.282   4.006 -1.0551 -0.9398  0.4353
  136DG     H14 3119   2.566   4.111   3.968 -0.4383  0.2444  0.4406
  136DG     H15 3120   2.079   4.136   3.986  1.1621  0.0570  0.2086
  136DG     H16 3121   2.113   4.296   4.040  0.1186  0.5311 -0.1787
  136DG     C17 3122   2.429   4.206   3.840  0.0127 -0.4237 -0.2507
  136DG     C18 3123   2.201   4.249   3.859 -0.1671 -0.2657 -0.3569
  136DG     O19 3124   2.315   4.187   3.919  0.0184 -0.6470  0.0300
  136DG     H20 3125   2.440   4.132   3.761 -0.8554 -0.7371 -0.0849
  136DG     H21 3126   2.427   4.302   3.788 -0.2316 -0.5019 -0.3867
  136DG     H22 3127   2.184   4.213   3.758  0.7675  0.9673 -0.9775
  136DG     H23 3128   2.223   4.356   3.850  4.6873 -0.9597  0.3971
  137DG      C1 3129   4.624   2.224   3.534  0.0405 -0.0910 -0.7772
  137DG      C2 3130   4.706   2.552   2.945  0.3013  0.2048  0.6508
  137DG      H3 3131   4.543   2.296   3.548 -0.5745 -1.1255  1.5960
  137DG      H4 3132   4.645   2.166   3.624  2.6373 -0.8032 -1.7727
  137DG      H5 3133   4.594   2.152   3.458 -0.5665  0.3268 -0.9399
  137DG      H6 3134   4.613   2.609   2.958 -0.4107 -0.5057 -0.9781
  137DG      H7 3135   4.785   2.622   2.920  0.8478 -1.3041 -2.3023
  137DG      H8 3136   4.682   2.502   2.851 -1.7875  1.3308  0.5199
  137DG      O9 3137   4.739   2.303   3.506 -0.2514  0.1502  0.0931
  137DG     O10 3138   4.722   2.463   3.059  0.1422  0.1127 -0.3872
  137DG     C11 3139   4.863   2.229   3.493 -0.3711  0.4003 -0.1863
  137DG     C12 3140   4.835   2.381   3.029 -0.0570  0.4618  0.2572
  137DG     H13 3141   4.873   2.158   3.575  0.5770  1.4792  0.6570
  137DG     H14 3142   4.944   2.298   3.515 -0.9208  1.1335 -0.4303
  137DG     H15 3143   4.913   2.454   3.050 -1.0457  2.0533 -1.3032
  137DG     H16 3144   4.833   2.353   2.924 -3.6568  0.8276  0.0756
  137DG     C17 3145   4.878   2.175   3.349  0.6688  0.5442 -0.2811
  137DG     C18 3146   4.841   2.249   3.117 -0.1914  0.0851  0.3367
  137DG     O19 3147   4.865   2.280   3.253  0.4591 -0.6585 -0.1144
  137DG     H20 3148   4.799   2.101   3.337  0.7942  0.5821 -1.4652
  137DG     H21 3149   4.976   2.127   3.343  0.2679 -0.6931  1.8899
  137DG     H22 3150   4.757   2.181   3.100 -0.4329  0.4099  0.2267
  137DG     H23 3151   4.933   2.196   3.091  1.3554  1.1485  3.1647
  138DG      C1 3152   1.166   5.437   2.170  0.1764 -0.5658  0.2470
  138DG      C2 3153   1.699   5.850   2.101 -0.0252  0.3143  0.2517
  138DG      H3 3154   1.080   5.503   2.180 -0.0106 -0.3394 -2.2760
  138DG      H4 3155   1.122   5.345   2.208 -2.9358  0.6099 -0.1516
  138DG      H5 3156   1.175   5.421   2.063 -1.7179 -1.0407  0.1114
  138DG      H6 3157   1.647   5.945   2.090  0.3427  0.3539 -1.4558
  138DG      H7 3158   1.800   5.881   2.130 -0.2930  1.2040  0.2806
  138DG      H8 3159   1.704   5.808   2.000 -1.4040 -0.5521  0.5263
  138DG      O9 3160   1.275   5.489   2.237  0.4227 -0.4534 -0.3645
  138DG     O10 3161   1.635   5.759   2.188  0.1827  0.4808  0.2971
  138DG     C11 3162   1.246   5.553   2.363 -0.1853  0.6690  0.2746
  138DG     C12 3163   1.619   5.811   2.323 -0.5022 -0.6622 -0.8283
  138DG     H13 3164   1.174   5.488   2.412  0.6103  0.4113  1.1272
  138DG     H14 3165   1.188   5.644   2.345 -1.0064  0.5247  2.0170
  138DG     H15 3166   1.557   5.901   2.332  0.1608 -0.1593 -1.1437
  138DG     H16 3167   1.722   5.842   2.341 -0.9995  0.3997  0.3093
  138DG     C17 3168   1.379   5.567   2.431  0.1869  0.1746 -0.1105
  138DG     C18 3169   1.561   5.708   2.421 -0.0754 -1.0650 -0.3367
  138DG     O19 3170   1.450   5.661   2.356  0.3378 -0.2905 -0.7130
  138DG     H20 3171   1.440   5.477   2.429  1.4318  0.9768  0.6641
  138DG     H21 3172   1.357   5.596   2.534  0.6399 -2.1562  0.6903
  138DG     H22 3173   1.633   5.627   2.439 -0.6525 -1.5860 -0.3310
  138DG     H23 3174   1.546   5.758   2.517  1.0845  0.1166 -0.7407
  139DG      C1 3175   3.783   4.072   1.105  0.7129  1.0400 -0.3290
  139DG      C2 3176   3.808   3.793   1.739  1.3766  0.5818  0.2957
  139DG      H3 3177   3.879   4.080   1.055 -0.0570 -0.6682 -2.2157
  139DG      H4 3178   3.780   4.155   1.176 -1.0135  0.8058 -0.0769
  139DG      H5 3179   3.700   4.082   1.035 -1.2952 -1.6552  1.4612
  139DG      H6 3180   3.811   3.894   1.779 -1.9717  1.0905 -0.4606
  139DG      H7 3181   3.729   3.742   1.794  1.3634 -0.9392 -1.0674
  139DG      H8 3182   3.905   3.745   1.750  2.7646  3.3337  0.8219
  139DG      O9 3183   3.779   3.959   1.186  0.0973 -0.2164 -0.5056
  139DG     O10 3184   3.774   3.793   1.599  0.4034 -0.0539 -0.3189
  139DG     C11 3185   3.793   3.845   1.109 -0.1501  0.4953  0.2370
  139DG     C12 3186   3.783   3.657   1.559  0.3396  0.4581 -0.1361
  139DG     H13 3187   3.890   3.843   1.061  0.5006  0.4075  1.5085
  139DG     H14 3188   3.717   3.833   1.032 -0.7866  2.1514  0.5491
  139DG     H15 3189   3.719   3.591   1.618 -0.3231  0.9877 -0.2390
  139DG     H16 3190   3.881   3.609   1.564  1.4471  2.4493 -1.4410
  139DG     C17 3191   3.789   3.717   1.187  0.4780  0.2554 -0.5665
  139DG     C18 3192   3.751   3.643   1.412 -0.0666 -0.4246 -0.1730
  139DG     O19 3193   3.826   3.729   1.322  0.4987  0.1970  0.0235
  139DG     H20 3194   3.833   3.626   1.147  0.0103  0.2804 -1.1527
  139DG     H21 3195   3.683   3.693   1.192  0.4785  0.4961  0.7598
  139DG     H22 3196   3.754   3.539   1.381 -2.6464 -0.5530 -0.2748
  139DG     H23 3197   3.647   3.671   1.391 -0.2922 -2.0229 -1.3132
  140DG      C1 3198   0.868   4.187   0.464  0.0902 -0.0465 -0.0039
  140DG      C2 3199   1.185   4.421  -0.267  0.0329 -0.2293 -0.2399
  140DG      H3 3200   0.951   4.242   0.509  0.7096  0.6087 -1.8438
  140DG      H4 3201   0.894   4.081   0.461 -2.7455 -0.7855 -1.3414
  140DG      H5 3202   0.785   4.191   0.533  0.3241  3.5291  0.2591
  140DG      H6 3203   1.176   4.414  -0.376  1.3722  1.2557 -0.4662
  140DG      H7 3204   1.206   4.523  -0.236 -2.1312 -0.2780  1.6598
  140DG      H8 3205   1.271   4.359  -0.245  0.3884  0.4030  0.1787
  140DG      O9 3206   0.825   4.235   0.341 -0.2891 -0.4907 -0.7604
  140DG     O10 3207   1.072   4.382  -0.191  0.0865  0.0081  0.6484
  140DG     C11 3208   0.930   4.224   0.250  0.1671 -0.3403  0.5506
  140DG     C12 3209   1.029   4.251  -0.226 -0.2755  0.8761  0.1187
  140DG     H13 3210   0.990   4.134   0.265  0.2356 -0.4612 -0.3405
  140DG     H14 3211   0.997   4.310   0.257 -1.2778  0.7022  2.6345
  140DG     H15 3212   1.111   4.180  -0.223 -0.6928  0.4206  1.0967
  140DG     H16 3213   0.984   4.249  -0.325 -0.2847  1.3683  0.1070
  140DG     C17 3214   0.869   4.217   0.110  0.2444  0.5831 -0.4877
  140DG     C18 3215   0.920   4.221  -0.123  0.3829 -0.3187  0.2053
  140DG     O19 3216   0.967   4.217   0.013 -0.0825 -0.5320  0.2052
  140DG     H20 3217   0.814   4.310   0.098  1.7614  1.6658  0.7106
  140DG     H21 3218   0.803   4.130   0.106  3.2764 -1.8641 -2.2777
  140DG     H22 3219   0.847   4.301  -0.142  0.3224 -0.3029  0.4975
  140DG     H23 3220   0.884   4.120  -0.139  0.6542 -0.4418  0.3712
  141DG      C1 3221   1.489   1.279   0.876  0.2126  0.6893 -0.7187
  141DG      C2 3222   1.248   1.856   1.116 -0.0821  0.0162  0.4084
  141DG      H3 3223   1.511   1.252   0.979  0.1559 -1.2637 -1.1828
  141DG      H4 3224   1.584   1.299   0.826 -0.7320 -0.4407 -3.1736
  141DG      H5 3225   1.441   1.186   0.847 -0.6571  0.1368  2.2206
  141DG      H6 3226   1.191   1.812   1.198 -0.2484  0.2600  0.4262
  141DG      H7 3227   1.355   1.859   1.134  0.7136 -0.1683 -3.3927
  141DG      H8 3228   1.221   1.962   1.107  0.5210  0.0026 -2.4647
  141DG      O9 3229   1.396   1.387   0.860 -0.0267  0.5368 -0.2609
  141DG     O10 3230   1.229   1.782   1.004  0.4579  0.3578 -0.1891
  141DG     C11 3231   1.360   1.406   0.725 -0.2298  0.1252 -0.4263
  141DG     C12 3232   1.282   1.844   0.886 -0.2798 -0.5283 -0.0798
  141DG     H13 3233   1.307   1.318   0.687 -0.7969  0.8672 -1.4095
  141DG     H14 3234   1.447   1.433   0.665 -0.1358  2.7904  0.7950
  141DG     H15 3235   1.391   1.847   0.894 -0.2470  2.0090 -0.5324
  141DG     H16 3236   1.249   1.948   0.879  0.1639 -0.4719 -1.7760
  141DG     C17 3237   1.262   1.521   0.710 -0.2778 -0.2438  0.1718
  141DG     C18 3238   1.247   1.753   0.770 -0.3065 -0.0916 -0.6805
  141DG     O19 3239   1.297   1.626   0.801  0.0406 -0.0969 -0.3083
  141DG     H20 3240   1.155   1.499   0.717 -0.6349  1.0777 -0.6669
  141DG     H21 3241   1.276   1.555   0.607  0.3682 -1.9482 -0.3287
  141DG     H22 3242   1.141   1.750   0.747 -0.2723 -1.0778 -0.7401
  141DG     H23 3243   1.301   1.790   0.683 -0.0477 -0.1676 -0.5532
  142DG      C1 3244   2.405   2.082   3.396 -1.3830  0.5617  0.1941
  142DG      C2 3245   2.886   2.530   3.703  1.0159 -0.7238  0.5489
  142DG      H3 3246   2.350   2.002   3.445  0.7877  0.5902  2.9701
  142DG      H4 3247   2.463   2.042   3.312  0.3576  1.6989  0.8106
  142DG      H5 3248   2.331   2.139   3.341 -2.1548  0.5149  1.1665
  142DG      H6 3249   2.914   2.541   3.598 -1.6103  3.0858  0.0304
  142DG      H7 3250   2.830   2.622   3.723  0.6422 -0.5602 -1.1011
  142DG      H8 3251   2.975   2.517   3.764  2.2475  2.2240 -0.4382
  142DG      O9 3252   2.475   2.161   3.491 -0.1107 -0.0560  0.3228
  142DG     O10 3253   2.789   2.420   3.722  0.1736 -0.2659 -0.1933
  142DG     C11 3254   2.397   2.179   3.608  1.0225 -0.0751  0.6427
  142DG     C12 3255   2.732   2.408   3.853  0.0624  0.4794  0.1233
  142DG     H13 3256   2.393   2.079   3.650 -2.5724 -0.7922 -1.0339
  142DG     H14 3257   2.290   2.188   3.585  0.6302 -2.9901  1.0173
  142DG     H15 3258   2.757   2.493   3.916 -2.0633  0.3361  1.2480
  142DG     H16 3259   2.773   2.325   3.909 -0.2597  0.1141 -0.1793
  142DG     C17 3260   2.438   2.298   3.692  0.3720 -0.0378 -0.5066
  142DG     C18 3261   2.584   2.379   3.848 -0.4001 -0.8879  0.6052
  142DG     O19 3262   2.564   2.279   3.748 -0.4553  0.6667  0.5387
  142DG     H20 3263   2.363   2.309   3.770  2.8670 -1.3151  2.2868
  142DG     H21 3264   2.425   2.389   3.634 -0.9229  1.8823  2.5502
  142DG     H22 3265   2.545   2.346   3.945  0.6673  1.3570  1.8815
  142DG     H23 3266   2.527   2.467   3.818  1.1330  0.2626  0.9381
  143DG      C1 3267   4.692   0.101   5.118 -0.5051 -0.5124  0.5305
  143DG      C2 3268   4.782   0.442   4.482  0.3056  0.8307  0.1776
  143DG      H3 3269   4.696   0.019   5.046 -1.5206 -0.5827  0.5407
  143DG      H4 3270   4.617   0.091   5.196 -0.9456  0.2225  0.2079
  143DG      H5 3271   4.788   0.118   5.168 -0.2711 -0.7058  0.1526
  143DG      H6 3272   4.798   0.362   4.409  3.4761 -0.0653  1.6915
  143DG      H7 3273   4.772   0.539   4.433  1.2539  0.5954 -0.5211
  143DG      H8 3274   4.865   0.449   4.552 -1.4986  0.9335  2.4256
  143DG      O9 3275   4.646   0.215   5.049  0.0293 -0.1639 -0.7937
  143DG     O10 3276   4.667   0.411   4.561  0.3860 -0.2269 -0.2715
  143DG     C11 3277   4.514   0.211   4.996 -0.0003  0.2239 -0.4539
  143DG     C12 3278   4.626   0.515   4.649  0.2628 -0.2213 -0.4977
  143DG     H13 3279   4.432   0.184   5.064 -0.5459 -2.1941 -1.9653
  143DG     H14 3280   4.517   0.132   4.922 -0.5299 -0.5566  0.3243
  143DG     H15 3281   4.613   0.603   4.586  1.0096  0.2603  0.0029
  143DG     H16 3282   4.711   0.548   4.709  0.6346 -1.6745 -0.1779
  143DG     C17 3283   4.482   0.339   4.933  0.4172 -0.9659 -0.0636
  143DG     C18 3284   4.516   0.471   4.741  0.6088  0.3913  0.3298
  143DG     O19 3285   4.566   0.364   4.824  0.2075  0.2839 -0.3745
  143DG     H20 3286   4.511   0.419   5.000 -0.5475  0.2641 -1.0767
  143DG     H21 3287   4.379   0.349   4.899 -0.3602  1.8847  2.6774
  143DG     H22 3288   4.461   0.547   4.795 -1.2671 -0.7943  0.1949
  143DG     H23 3289   4.438   0.427   4.678  1.3074 -2.2555  1.1910
  144DG      C1 3290   2.136   1.422   3.511  0.3534 -0.3310  1.3112
  144DG      C2 3291   2.350   0.791   4.014  0.0832  0.8490  0.2306
  144DG      H3 3292   2.045   1.479   3.528 -0.2877 -0.0563 -2.2693
  144DG      H4 3293   2.125   1.362   3.421  0.3517  1.7019 -0.0953
  144DG      H5 3294   2.210   1.497   3.483 -0.7465  0.9267  1.6958
  144DG      H6 3295   2.446   0.800   4.065 -0.1816  0.4313  0.8064
  144DG      H7 3296   2.279   0.757   4.089  0.0626 -1.5651 -0.7690
  144DG      H8 3297   2.369   0.703   3.952  3.0860  1.0946  0.6630
  144DG      O9 3298   2.177   1.349   3.630 -0.1735  0.3559  0.0638
  144DG     O10 3299   2.315   0.905   3.944  0.3548  0.6333  0.0373
  144DG     C11 3300   2.115   1.225   3.646 -0.2288  0.2497  0.1378
  144DG     C12 3301   2.290   1.021   4.020  0.4070 -0.1206  0.0547
  144DG     H13 3302   2.161   1.149   3.582 -1.2146  1.3699 -1.9952
  144DG     H14 3303   2.010   1.231   3.618  0.2619  1.3271 -1.6517
  144DG     H15 3304   2.347   1.020   4.113 -0.2712  1.7294  0.5341
  144DG     H16 3305   2.184   1.025   4.043  0.1440  0.3818 -1.1832
  144DG     C17 3306   2.148   1.193   3.792  0.3177  0.7349  0.3558
  144DG     C18 3307   2.340   1.149   3.947  0.1560 -0.1716 -0.4564
  144DG     O19 3308   2.288   1.149   3.808 -0.2662 -0.4183 -0.5652
  144DG     H20 3309   2.080   1.110   3.813  1.0744 -0.5055 -1.7669
  144DG     H21 3310   2.112   1.280   3.847  2.1494 -0.0972  3.0834
  144DG     H22 3311   2.326   1.237   4.009 -1.3533  1.2691 -2.6782
  144DG     H23 3312   2.447   1.132   3.937  0.0028 -1.3062 -0.2370
  145DG      C1 3313   1.106   4.666   1.368 -0.5907 -0.6333 -0.5090
  145DG      C2 3314   0.924   5.297   1.216 -0.2451  0.0433  0.3370
  145DG      H3 3315   1.084   4.561   1.385  0.3208 -1.2043 -2.5880
  145DG      H4 3316   1.196   4.690   1.424 -0.3160 -3.3063  0.2962
  145DG      H5 3317   1.138   4.666   1.264  0.5946 -1.0860 -0.1571
  145DG      H6 3318   0.871   5.390   1.239 -1.7277 -0.6045 -0.3506
  145DG      H7 3319   1.032   5.314   1.221 -0.2031 -0.2127  0.2857
  145DG      H8 3320   0.915   5.261   1.114  0.8255  1.1603 -0.1852
  145DG      O9 3321   1.009   4.766   1.390 -0.8202 -0.1989 -0.9330
  145DG     O10 3322   0.891   5.179   1.294 -0.5358  0.1505 -0.4822
  145DG     C11 3323   0.952   4.762   1.519  0.1580 -0.0477  0.1031
  145DG     C12 3324   0.767   5.184   1.360  0.3767  0.0323 -0.2152
  145DG     H13 3325   1.029   4.808   1.581 -0.7506  0.5170  0.8390
  145DG     H14 3326   0.930   4.661   1.554 -1.3615  0.2272  0.0163
  145DG     H15 3327   0.688   5.205   1.288 -0.7595  0.6941  1.1698
  145DG     H16 3328   0.781   5.266   1.431 -0.3066  0.6477 -0.7777
  145DG     C17 3329   0.832   4.859   1.534  0.4736  0.3119 -0.1102
  145DG     C18 3330   0.739   5.054   1.423  0.1473  0.7008 -0.6918
  145DG     O19 3331   0.854   4.982   1.464  0.3814  0.5733 -0.0957
  145DG     H20 3332   0.804   4.868   1.638 -1.1342 -0.3803 -0.4453
  145DG     H21 3333   0.751   4.799   1.491  1.1654 -2.0808  1.6995
  145DG     H22 3334   0.664   5.064   1.502 -0.3122 -2.7743 -0.5285
  145DG     H23 3335   0.686   4.993   1.351 -1.5917  1.6544 -0.2865
  146DG      C1 3336   0.785   2.673   3.576 -0.4338 -0.5399 -0.4709
  146DG      C2 3337   0.274   2.235   3.338 -0.2216  0.0804  0.2719
  146DG      H3 3338   0.713   2.755   3.576 -0.6092 -0.6893  0.3988
  146DG      H4 3339   0.860   2.686   3.497  0.8589  0.3657  0.8428
  146DG      H5 3340   0.836   2.678   3.672  0.4067 -3.2005 -0.7139
  146DG      H6 3341   0.257   2.167   3.254 -1.6866  1.0698 -0.2580
  146DG      H7 3342   0.248   2.187   3.433 -1.4058 -0.4380 -0.2898
  146DG      H8 3343   0.202   2.315   3.322 -1.0600 -0.9642 -1.5415
  146DG      O9 3344   0.715   2.553   3.566  0.1391  0.3267  0.2937
  146DG     O10 3345   0.417   2.276   3.350 -0.0635  0.1060  0.2817
  146DG     C11 3346   0.785   2.442   3.604 -0.3956 -0.2486 -0.4391
  146DG     C12 3347   0.505   2.164   3.369  0.1234  0.1166 -0.2964
  146DG     H13 3348   0.813   2.442   3.709  0.6453 -0.0182 -0.6976
  146DG     H14 3349   0.879   2.458   3.550 -0.4684 -0.1785 -0.5463
  146DG     H15 3350   0.483   2.091   3.292  0.9672 -1.5940  1.0159
  146DG     H16 3351   0.510   2.115   3.466  0.9613  1.4279  0.3521
  146DG     C17 3352   0.726   2.310   3.552  0.1365 -0.4685  0.2988
  146DG     C18 3353   0.649   2.195   3.348 -0.2181 -0.4736  0.2676
  146DG     O19 3354   0.685   2.317   3.415 -0.1857  0.0680  0.1205
  146DG     H20 3355   0.644   2.274   3.613  0.1450 -1.1602 -0.0871
  146DG     H21 3356   0.801   2.231   3.551 -1.3306 -1.9030 -0.6624
  146DG     H22 3357   0.713   2.114   3.383 -0.2342  0.7564  3.4469
  146DG     H23 3358   0.662   2.210   3.241 -1.2298 -1.7509 -0.0723
  147DG      C1 3359   4.592   1.958   2.322 -0.6742  0.1734 -0.2443
  147DG      C2 3360   4.619   2.235   1.566  0.0329 -0.3006  0.0879
  147DG      H3 3361   4.507   2.025   2.322 -0.0813  0.9569  0.4833
  147DG      H4 3362   4.624   1.965   2.426  0.2973  1.1631 -0.5839
  147DG      H5 3363   4.563   1.857   2.292 -1.9385  0.6829 -0.7871
  147DG      H6 3364   4.540   2.269   1.499 -1.1984 -1.3892  0.9373
  147DG      H7 3365   4.714   2.249   1.514 -1.2332  1.3945 -1.9437
  147DG      H8 3366   4.615   2.126   1.571 -0.0807 -0.3063 -0.1187
  147DG      O9 3367   4.699   1.995   2.236  0.1073 -0.1170  0.3731
  147DG     O10 3368   4.619   2.292   1.691 -0.1071  0.0189  0.6099
  147DG     C11 3369   4.651   2.013   2.099  0.6687 -0.8918 -0.8858
  147DG     C12 3370   4.488   2.294   1.751 -0.0812 -0.1886 -0.0867
  147DG     H13 3371   4.570   1.951   2.060 -0.7725  1.1578 -1.3598
  147DG     H14 3372   4.735   1.978   2.040  1.5088 -2.6999  1.2593
  147DG     H15 3373   4.434   2.201   1.734 -1.4577  0.1978  1.7720
  147DG     H16 3374   4.416   2.367   1.712 -1.4100 -1.0448  0.6642
  147DG     C17 3375   4.610   2.158   2.068 -0.2368  0.4219  0.2806
  147DG     C18 3376   4.511   2.297   1.900  0.4441 -0.2412 -0.6657
  147DG     O19 3377   4.555   2.168   1.938  0.1466 -0.3236  0.4457
  147DG     H20 3378   4.701   2.218   2.060 -1.1696  1.6465 -1.8397
  147DG     H21 3379   4.539   2.188   2.146  1.4837  0.3110  1.9807
  147DG     H22 3380   4.578   2.380   1.924 -1.1456  0.5241  1.4027
  147DG     H23 3381   4.417   2.320   1.948  0.7907  0.3368 -0.2499
  148DG      C1 3382   3.374   2.105   2.378  0.4119 -0.6102  0.4932
  148DG      C2 3383   3.432   2.216   1.680  0.3815 -0.0620  0.6287
  148DG      H3 3384   3.267   2.113   2.356  0.7929  1.7960 -0.9932
  148DG      H4 3385   3.403   2.200   2.423 -0.6104 -0.5469  1.0486
  148DG      H5 3386   3.373   2.029   2.456  3.3520  0.2527  1.5135
  148DG      H6 3387   3.333   2.262   1.677  0.6472  0.5179  0.7589
  148DG      H7 3388   3.501   2.296   1.657  1.0923 -1.0015 -0.6580
  148DG      H8 3389   3.446   2.147   1.596  0.1461 -0.1408  0.6524
  148DG      O9 3390   3.445   2.083   2.257 -0.3312  0.6613 -0.0802
  148DG     O10 3391   3.464   2.137   1.794  0.4676 -0.1823  0.5083
  148DG     C11 3392   3.583   2.114   2.268  0.2397 -0.1538 -0.6372
  148DG     C12 3393   3.600   2.119   1.790  0.1774 -0.3654 -0.1133
  148DG     H13 3394   3.620   2.071   2.361 -2.1538 -1.3295 -0.1437
  148DG     H14 3395   3.593   2.222   2.281 -2.7630  0.0782  0.6868
  148DG     H15 3396   3.652   2.214   1.771  0.9519 -1.1541 -2.1387
  148DG     H16 3397   3.615   2.063   1.698 -3.3029  1.1418 -1.7932
  148DG     C17 3398   3.663   2.063   2.147 -0.3093  0.1994 -0.1735
  148DG     C18 3399   3.648   2.045   1.915 -0.3511  0.4427 -0.3857
  148DG     O19 3400   3.623   2.122   2.029  1.0028 -0.6601  0.1009
  148DG     H20 3401   3.642   1.956   2.149 -0.8003  0.2663 -1.2575
  148DG     H21 3402   3.771   2.074   2.156 -0.2715 -0.0303 -0.3234
  148DG     H22 3403   3.597   1.949   1.923 -0.4085  0.3704 -1.4299
  148DG     H23 3404   3.754   2.025   1.906 -0.6563 -0.5400 -2.1180
  149DG      C1 3405   1.056   4.521   3.847 -0.2232 -0.2276  0.1605
  149DG      C2 3406   0.878   5.109   4.041 -0.0430 -0.6554  0.3365
  149DG      H3 3407   1.052   4.540   3.954 -0.8654 -1.2571  0.3327
  149DG      H4 3408   1.122   4.437   3.826 -0.4863 -0.1827 -0.9138
  149DG      H5 3409   0.964   4.481   3.805  0.8119 -2.0646 -0.4732
  149DG      H6 3410   0.874   5.133   4.148  0.8449 -0.2252  0.2876
  149DG      H7 3411   0.890   5.198   3.980 -0.1376  0.8856  2.4313
  149DG      H8 3412   0.791   5.047   4.018  1.2503 -1.7691 -1.9432
  149DG      O9 3413   1.092   4.638   3.775 -0.3951  0.8782 -0.1529
  149DG     O10 3414   0.979   5.012   4.010  0.1679  0.5192 -0.4274
  149DG     C11 3415   1.227   4.667   3.791 -0.4112 -0.1900 -0.7936
  149DG     C12 3416   1.108   5.056   4.058 -0.8521  0.0058 -0.8796
  149DG     H13 3417   1.239   4.748   3.720  3.2934  0.4572  0.3661
  149DG     H14 3418   1.287   4.586   3.750  1.1943  0.9605 -0.8090
  149DG     H15 3419   1.123   5.117   4.147 -0.3386 -0.2236 -0.8066
  149DG     H16 3420   1.155   5.122   3.985  0.3898 -0.4769 -0.5408
  149DG     C17 3421   1.262   4.737   3.930  0.7404  0.0138  0.6382
  149DG     C18 3422   1.204   4.929   4.073  0.1674  0.0003  0.5545
  149DG     O19 3423   1.186   4.851   3.948  0.1905 -0.3412  0.0573
  149DG     H20 3424   1.370   4.747   3.935  0.7556  0.5170 -0.4041
  149DG     H21 3425   1.230   4.658   3.998 -0.9010 -0.1558 -0.2724
  149DG     H22 3426   1.308   4.960   4.077  0.2772 -0.3339  0.3003
  149DG     H23 3427   1.191   4.867   4.161 -1.3266 -0.2294  0.1980
  150DG      C1 3428   4.735   0.495   2.960 -0.3084 -0.7412 -0.2445
  150DG      C2 3429   3.949   0.612   2.783 -0.2721 -0.1911 -0.0947
  150DG      H3 3430   4.738   0.496   3.069  0.6468  3.3234 -0.1545
  150DG      H4 3431   4.818   0.561   2.934  0.2615 -0.3241  2.3651
  150DG      H5 3432   4.754   0.396   2.920  1.4638 -0.4643 -0.1626
  150DG      H6 3433   3.939   0.540   2.703 -0.6802  1.7642 -1.8882
  150DG      H7 3434   3.920   0.564   2.877 -0.4299  0.7506  0.3522
  150DG      H8 3435   3.886   0.697   2.758  0.8371  0.2873 -1.4097
  150DG      O9 3436   4.613   0.561   2.920  0.5351 -0.0511 -0.4107
  150DG     O10 3437   4.087   0.635   2.775  0.3034 -0.6386 -0.0945
  150DG     C11 3438   4.597   0.569   2.779  0.0163  0.9603  0.4813
  150DG     C12 3439   4.132   0.754   2.843 -0.0785 -0.1622 -0.4418
  150DG     H13 3440   4.557   0.472   2.748  1.6509  0.8625 -1.5255
  150DG     H14 3441   4.695   0.590   2.737 -0.7607  1.1043 -1.3247
  150DG     H15 3442   4.128   0.737   2.950  0.9361  0.3611 -0.3111
  150DG     H16 3443   4.069   0.838   2.814  1.4726  0.8221 -1.1050
  150DG     C17 3444   4.494   0.679   2.747  0.8119  0.4374 -0.4652
  150DG     C18 3445   4.281   0.775   2.799 -0.1744  0.0232  0.1853
  150DG     O19 3446   4.361   0.652   2.803 -0.0132  0.4079 -0.1301
  150DG     H20 3447   4.497   0.673   2.639 -3.0329 -0.9344 -0.6570
  150DG     H21 3448   4.532   0.777   2.773 -0.3140  0.7994 -0.1299
  150DG     H22 3449   4.275   0.819   2.700 -2.4130  0.4730  0.4461
  150DG     H23 3450   4.326   0.848   2.865  1.6292 -0.4295 -0.5009
  151DG      C1 3451   5.213   2.488   3.461 -0.0613 -0.1300  0.4282
  151DG      C2 3452   4.790   2.935   3.775 -0.6351 -0.2473  0.4971
  151DG      H3 3453   5.177   2.549   3.378 -0.3678 -1.2973 -0.3104
  151DG      H4 3454   5.153   2.397   3.458  0.5751 -0.5986  1.5036
  151DG      H5 3455   5.315   2.454   3.440 -0.8901 -2.0142 -0.8499
  151DG      H6 3456   4.744   3.011   3.838 -1.0812 -1.2870  1.4772
  151DG      H7 3457   4.823   2.975   3.679  1.2049 -1.1404  0.7221
  151DG      H8 3458   4.705   2.869   3.757  0.3259 -1.3857 -0.0053
  151DG      O9 3459   5.198   2.550   3.583 -0.2333  0.0732 -0.8794
  151DG     O10 3460   4.905   2.860   3.821 -0.1352  0.1749 -0.0598
  151DG     C11 3461   5.209   2.468   3.697  0.7624 -0.0185  0.3206
  151DG     C12 3462   4.875   2.749   3.896  0.1304  0.2214 -0.5030
  151DG     H13 3463   5.310   2.427   3.701  0.3919 -0.9072  0.8346
  151DG     H14 3464   5.141   2.384   3.685 -0.1075  0.9882 -2.9107
  151DG     H15 3465   4.807   2.689   3.836  0.6182 -0.7536 -0.0874
  151DG     H16 3466   4.818   2.767   3.988 -1.2641 -0.5857 -1.1753
  151DG     C17 3467   5.171   2.542   3.830  0.0722 -0.0271  0.5022
  151DG     C18 3468   5.003   2.675   3.929  0.6241  0.9787  0.0008
  151DG     O19 3469   5.047   2.613   3.807 -0.2257  0.6183 -0.1368
  151DG     H20 3470   5.255   2.599   3.868  2.6243 -3.2108  0.0751
  151DG     H21 3471   5.158   2.466   3.907  0.8829 -0.4161  0.2594
  151DG     H22 3472   5.077   2.732   3.986  0.4177 -0.3890  1.7247
  151DG     H23 3473   4.982   2.599   4.004 -1.7231  0.7513 -0.7965
  152DG      C1 3474   5.117   0.989   4.962  0.2423  0.3519 -0.0847
  152DG      C2 3475   4.684   1.259   5.654 -0.1290 -0.0484  0.5731
  152DG      H3 3476   5.210   1.012   4.910 -0.0486  2.9509  0.4120
  152DG      H4 3477   5.033   0.973   4.895  2.4128 -0.9471 -2.7083
  152DG      H5 3478   5.117   0.895   5.019  0.3811 -0.1543 -0.9046
  152DG      H6 3479   4.588   1.221   5.618 -0.1926  1.4554 -0.9854
  152DG      H7 3480   4.705   1.196   5.740 -1.5880 -0.4092  0.7025
  152DG      H8 3481   4.657   1.358   5.690  0.5178  0.5409 -0.5077
  152DG      O9 3482   5.110   1.104   5.051  0.2433  0.4799  0.3466
  152DG     O10 3483   4.781   1.269   5.551 -0.0230  0.0176 -0.2804
  152DG     C11 3484   4.995   1.096   5.136 -0.4042  0.1950 -0.0870
  152DG     C12 3485   4.746   1.367   5.455  0.3671 -0.0706 -0.0875
  152DG     H13 3486   5.026   1.041   5.225  1.4850  0.1382 -0.7355
  152DG     H14 3487   4.908   1.049   5.090 -2.2189  2.1896  1.1078
  152DG     H15 3488   4.724   1.463   5.502 -0.1921  0.2736 -1.0273
  152DG     H16 3489   4.652   1.339   5.408  1.0784 -0.7864 -1.1026
  152DG     C17 3490   4.958   1.246   5.176 -0.2265 -0.2018  0.1398
  152DG     C18 3491   4.851   1.375   5.345 -0.5810 -0.1118  0.8758
  152DG     O19 3492   4.878   1.244   5.291 -0.1227  0.1687 -0.6357
  152DG     H20 3493   4.909   1.287   5.088 -0.2894 -0.7934 -0.1053
  152DG     H21 3494   5.044   1.312   5.189 -0.0816 -0.4514  0.4827
  152DG     H22 3495   4.831   1.445   5.264  0.6699  0.6424  1.1879
  152DG     H23 3496   4.945   1.409   5.389 -0.5832  2.8059 -1.0722
  153DG      C1 3497   4.055   5.365   1.908 -0.0353  0.2595 -0.5617
  153DG      C2 3498   4.173   4.957   2.478  1.1672  0.0801  0.3433
  153DG      H3 3499   4.043   5.467   1.874  0.7426  1.3919  2.2351
  153DG      H4 3500   4.020   5.303   1.825 -2.3163  0.5852  0.1112
  153DG      H5 3501   4.164   5.358   1.910  0.0024 -1.3570 -3.0440
  153DG      H6 3502   4.215   4.965   2.578  1.8203 -0.6452  0.1381
  153DG      H7 3503   4.066   4.937   2.483  0.8335  1.0473 -1.6445
  153DG      H8 3504   4.220   4.873   2.426  2.9333  1.4552 -0.4086
  153DG      O9 3505   3.968   5.359   2.021 -0.2357  0.3232  0.2874
  153DG     O10 3506   4.173   5.072   2.405 -0.2108  0.5693  0.4541
  153DG     C11 3507   3.957   5.466   2.113  0.7236 -0.7101  0.6999
  153DG     C12 3508   4.156   5.192   2.476  0.2496 -0.2382 -0.6000
  153DG     H13 3509   3.854   5.463   2.149  0.2521 -0.9691 -0.5938
  153DG     H14 3510   3.962   5.562   2.062 -0.7136 -0.6426  0.6462
  153DG     H15 3511   4.229   5.206   2.555 -1.9178 -0.0826  1.4811
  153DG     H16 3512   4.058   5.178   2.521  0.4444  1.5690  0.4694
  153DG     C17 3513   4.076   5.435   2.210  0.4455 -0.0964  0.1753
  153DG     C18 3514   4.159   5.321   2.386  0.4230 -0.2118  0.0815
  153DG     O19 3515   4.050   5.330   2.303  0.1022 -0.1893  0.0651
  153DG     H20 3516   4.095   5.527   2.265  0.4542 -0.7212  1.2449
  153DG     H21 3517   4.163   5.418   2.147 -0.7713 -0.2623 -1.5406
  153DG     H22 3518   4.164   5.405   2.456 -0.1187  0.3190 -0.5095
  153DG     H23 3519   4.253   5.328   2.332  0.9979 -1.5272  0.8410
  154DG      C1 3520   0.033   4.553   1.570  0.6593 -0.4643 -0.1938
  154DG      C2 3521   0.182   4.421   0.898  0.0857  0.4316  0.3313
  154DG      H3 3522   0.016   4.504   1.665  0.0012  0.3395  0.1164
  154DG      H4 3523   0.038   4.662   1.574  1.1477 -0.4208 -1.4128
  154DG      H5 3524   0.134   4.520   1.544  0.8657  0.5928 -0.8198
  154DG      H6 3525   0.162   4.521   0.859 -1.7795 -0.3679 -0.8957
  154DG      H7 3526   0.286   4.404   0.928  0.1640  0.8232  0.2989
  154DG      H8 3527   0.158   4.349   0.820  1.1346 -0.5726  0.9134
  154DG      O9 3528  -0.060   4.513   1.480  0.1790  0.3984  0.4631
  154DG     O10 3529   0.102   4.402   1.009  0.2702  0.0934 -0.3244
  154DG     C11 3530  -0.067   4.371   1.475 -0.0597  0.2748 -0.0066
  154DG     C12 3531  -0.044   4.419   1.000 -0.9062 -0.1666 -0.1423
  154DG     H13 3532  -0.127   4.342   1.561  0.3884 -0.6562  0.0037
  154DG     H14 3533   0.031   4.323   1.481 -0.5180 -0.7140 -0.1007
  154DG     H15 3534  -0.083   4.384   0.904 -0.6684  0.1283 -0.3486
  154DG     H16 3535  -0.062   4.527   1.002  1.8261  0.3350  0.8090
  154DG     C17 3536  -0.135   4.338   1.341 -0.1244 -0.0515 -0.6988
  154DG     C18 3537  -0.110   4.348   1.117 -0.3467  0.3495 -0.3989
  154DG     O19 3538  -0.054   4.384   1.238 -0.2075 -0.1492  0.2788
  154DG     H20 3539  -0.230   4.390   1.328 -0.4867 -0.6654 -0.5217
  154DG     H21 3540  -0.140   4.229   1.345 -0.5307 -0.0160  2.6150
  154DG     H22 3541  -0.216   4.371   1.123 -0.3639 -0.1050  2.4557
  154DG     H23 3542  -0.108   4.242   1.096 -2.3263 -0.2891  2.1235
  155DG      C1 3543   3.050   2.674   3.150  0.1617  0.2724  0.6354
  155DG      C2 3544   3.342   2.683   2.562  0.0093 -1.2703 -0.9569
  155DG      H3 3545   2.954   2.723   3.169 -1.3641 -1.9900 -0.7628
  155DG      H4 3546   3.090   2.628   3.240 -1.2284 -0.9669  0.6699
  155DG      H5 3547   3.016   2.582   3.102  0.8235 -1.1396  2.7282
  155DG      H6 3548   3.423   2.727   2.504  1.6184 -0.3994  1.7410
  155DG      H7 3549   3.371   2.583   2.594  0.4268 -0.2042  2.4762
  155DG      H8 3550   3.243   2.674   2.518  0.5945 -0.0967 -2.6135
  155DG      O9 3551   3.150   2.733   3.071  0.4114  0.4040  0.3930
  155DG     O10 3552   3.332   2.764   2.682 -0.2072  0.3875 -0.2140
  155DG     C11 3553   3.222   2.829   3.152 -0.1355  0.3802  0.3116
  155DG     C12 3554   3.453   2.796   2.746 -0.1291  0.2394 -0.3491
  155DG     H13 3555   3.278   2.769   3.223  0.2008  0.1212 -0.1696
  155DG     H14 3556   3.145   2.883   3.207 -2.7039 -0.9312 -1.7161
  155DG     H15 3557   3.526   2.845   2.682 -1.3253  1.6270 -0.6859
  155DG     H16 3558   3.499   2.707   2.791 -0.2275  1.0133  1.3903
  155DG     C17 3559   3.316   2.922   3.070  0.0807 -0.3859  0.0132
  155DG     C18 3560   3.419   2.907   2.851  0.0536  0.3383  0.5439
  155DG     O19 3561   3.341   2.846   2.952  0.4088 -0.0720  0.0086
  155DG     H20 3562   3.406   2.958   3.119  1.1761 -1.0314 -1.4520
  155DG     H21 3563   3.269   3.011   3.029 -0.6467 -0.2931  0.9891
  155DG     H22 3564   3.510   2.947   2.895  0.3029  1.5363 -1.0013
  155DG     H23 3565   3.354   2.987   2.815 -0.3875 -0.0786  0.3982
  156DG      C1 3566   4.799   0.967   1.962  0.6873 -0.4606  0.3852
  156DG      C2 3567   5.164   0.723   1.209  0.2518 -0.1409  0.4688
  156DG      H3 3568   4.694   0.982   1.940  0.1328 -0.5379  2.7650
  156DG      H4 3569   4.822   1.074   1.966 -1.2939 -0.0171  0.9418
  156DG      H5 3570   4.811   0.921   2.060  0.8226  2.1779  1.6913
  156DG      H6 3571   5.057   0.703   1.203 -0.3641  2.9007 -0.3096
  156DG      H7 3572   5.187   0.820   1.166  1.9500 -0.2296  1.0718
  156DG      H8 3573   5.218   0.648   1.151 -1.6656 -0.4486 -1.0037
  156DG      O9 3574   4.865   0.912   1.847 -0.2179 -0.7784 -0.3624
  156DG     O10 3575   5.207   0.717   1.340 -0.5801  0.6711 -0.2973
  156DG     C11 3576   4.999   0.877   1.877 -0.4991 -0.3421  0.7778
  156DG     C12 3577   5.132   0.810   1.420  0.1909  0.2874  0.0784
  156DG     H13 3578   5.013   0.832   1.976  3.4743 -1.8784 -0.2773
  156DG     H14 3579   5.063   0.965   1.877  0.6608 -1.1322 -0.6800
  156DG     H15 3580   5.027   0.825   1.395  0.3508  0.2317 -0.6496
  156DG     H16 3581   5.193   0.899   1.408  1.1847 -0.4805 -0.7920
  156DG     C17 3582   5.052   0.771   1.778 -0.4250 -0.6430  0.5023
  156DG     C18 3583   5.164   0.761   1.562 -0.3788  0.4341 -0.0412
  156DG     O19 3584   5.082   0.826   1.648 -0.2664 -0.0929 -0.1842
  156DG     H20 3585   4.973   0.698   1.760 -0.4484 -0.9444  1.7595
  156DG     H21 3586   5.133   0.712   1.820 -0.9408 -0.5519  1.6520
  156DG     H22 3587   5.161   0.653   1.578 -1.5014  0.4425 -0.1273
  156DG     H23 3588   5.267   0.791   1.582 -0.2697  0.9905 -1.3923
  157DG      C1 3589   4.277   1.057   2.445  0.5570 -0.2305  0.2619
  157DG      C2 3590   4.013   0.999   1.851  1.0232 -0.1984  0.5787
  157DG      H3 3591   4.265   1.085   2.550 -1.0130  1.4485 -0.2944
  157DG      H4 3592   4.383   1.040   2.428  1.2475 -0.3051  3.9458
  157DG      H5 3593   4.232   0.958   2.453 -0.7484  0.3356  0.2455
  157DG      H6 3594   3.955   0.916   1.892 -0.2477  2.2332  4.3312
  157DG      H7 3595   3.949   1.041   1.773 -0.4563 -4.0338 -0.4855
  157DG      H8 3596   4.106   0.952   1.820  0.8757  1.5230 -2.8813
  157DG      O9 3597   4.205   1.130   2.352  0.6683 -0.3966  0.0068
  157DG     O10 3598   4.044   1.084   1.955 -0.4754 -0.5676 -0.4838
  157DG     C11 3599   4.255   1.262   2.338 -0.0296 -0.3187 -0.2554
  157DG     C12 3600   4.081   1.212   1.919 -0.1808  0.0877 -0.1937
  157DG     H13 3601   4.353   1.249   2.292  1.6151  2.3603  2.1342
  157DG     H14 3602   4.258   1.314   2.434 -0.6692  0.9962 -0.9190
  157DG     H15 3603   3.998   1.281   1.904 -1.6726 -2.1482 -3.5041
  157DG     H16 3604   4.135   1.194   1.826 -0.7935 -0.2284 -0.4928
  157DG     C17 3605   4.160   1.354   2.252 -0.1428  0.9942 -0.0611
  157DG     C18 3606   4.173   1.257   2.031 -0.3361 -0.1667 -0.1831
  157DG     O19 3607   4.098   1.272   2.152 -0.0113  0.2807 -0.0716
  157DG     H20 3608   4.212   1.438   2.206  0.5482 -0.0796 -1.3225
  157DG     H21 3609   4.076   1.393   2.309 -2.3077 -0.0650 -2.3737
  157DG     H22 3610   4.248   1.181   2.053  0.0195  0.2918  0.1970
  157DG     H23 3611   4.218   1.351   1.998 -0.2896 -0.3758 -0.7328
  158DG      C1 3612   3.536   1.630   3.170  0.2707  0.5872  0.1104
  158DG      C2 3613   3.865   2.302   3.552  0.0081 -0.2620  0.5451
  158DG      H3 3614   3.522   1.551   3.097  0.4511  1.2527 -0.6549
  158DG      H4 3615   3.451   1.697   3.164 -0.4266 -0.0712  1.8925
  158DG      H5 3616   3.532   1.592   3.272  2.3027 -2.6095 -0.8336
  158DG      H6 3617   3.756   2.302   3.553 -0.0018  0.3154  1.4296
  158DG      H7 3618   3.906   2.289   3.652  2.7229  0.5819 -0.3714
  158DG      H8 3619   3.906   2.398   3.521 -3.4733  1.9348  1.9859
  158DG      O9 3620   3.669   1.691   3.151  0.3812  0.0901 -0.1547
  158DG     O10 3621   3.901   2.194   3.474  0.9809  0.2871 -0.3974
  158DG     C11 3622   3.673   1.808   3.231  0.5930 -0.5539 -0.1122
  158DG     C12 3623   3.891   2.218   3.333 -0.1906 -0.1967  0.4063
  158DG     H13 3624   3.680   1.786   3.337 -0.4610 -0.3539  0.0116
  158DG     H14 3625   3.595   1.882   3.215  0.0375 -1.3839 -1.3966
  158DG     H15 3626   3.968   2.292   3.314 -0.7436  0.2445 -0.1846
  158DG     H16 3627   3.794   2.264   3.310 -0.2352 -0.8626 -0.8205
  158DG     C17 3628   3.803   1.886   3.210  0.0359  0.2659 -0.2569
  158DG     C18 3629   3.911   2.086   3.253  0.7216 -0.6169  0.7737
  158DG     O19 3630   3.798   2.006   3.282  0.0425  0.3304  0.5419
  158DG     H20 3631   3.809   1.894   3.101 -0.3165  0.0597 -0.2933
  158DG     H21 3632   3.889   1.830   3.249 -1.2946 -1.8211 -0.1634
  158DG     H22 3633   3.920   2.104   3.145 -0.2192 -2.9086  0.2489
  158DG     H23 3634   3.999   2.028   3.284  0.2784  0.1016  3.6282
  159DG      C1 3635   0.253   0.276   3.022  0.6292 -0.6974  0.2389
  159DG      C2 3636   0.215  -0.289   2.609  0.2383 -0.2684  0.6022
  159DG      H3 3637   0.198   0.307   3.111  0.1616 -0.1264 -0.2449
  159DG      H4 3638   0.186   0.306   2.942 -1.2434  1.6777  2.5278
  159DG      H5 3639   0.337   0.345   3.025 -1.2059  1.7255 -0.9360
  159DG      H6 3640   0.233  -0.397   2.608  1.6989 -0.2035  4.4666
  159DG      H7 3641   0.113  -0.277   2.574  0.3941 -2.7081 -0.9559
  159DG      H8 3642   0.271  -0.241   2.528  1.8814 -1.7163  0.8098
  159DG      O9 3643   0.289   0.135   3.012 -0.1318 -0.1164 -0.7344
  159DG     O10 3644   0.238  -0.239   2.734  0.3825 -0.2269  0.5659
  159DG     C11 3645   0.404   0.088   3.078 -0.2150  0.4790  0.2783
  159DG     C12 3646   0.371  -0.273   2.769  1.3819  0.0754  0.5148
  159DG     H13 3647   0.388   0.103   3.185  0.4514 -1.3254  0.6794
  159DG     H14 3648   0.496   0.138   3.046  0.5373 -1.5373 -0.8705
  159DG     H15 3649   0.439  -0.220   2.703 -1.5928  0.7421 -2.2329
  159DG     H16 3650   0.388  -0.381   2.758 -0.7446 -0.2462  0.0570
  159DG     C17 3651   0.426  -0.059   3.051 -0.1626 -0.5090  0.7603
  159DG     C18 3652   0.402  -0.233   2.911  0.6163  0.3668 -0.3279
  159DG     O19 3653   0.385  -0.099   2.925 -0.1741 -0.4784 -0.3142
  159DG     H20 3654   0.365  -0.105   3.128 -0.2747 -0.6620  0.5809
  159DG     H21 3655   0.531  -0.082   3.069  0.4826  1.3695 -0.3238
  159DG     H22 3656   0.338  -0.285   2.983  1.5094  1.3380  1.2253
  159DG     H23 3657   0.506  -0.258   2.931  0.0269  0.3450  3.3436
  160DG      C1 3658   3.397   3.094   1.981 -0.1839  0.3308  0.3879
  160DG      C2 3659   4.006   2.992   1.905 -0.0119  0.4217  0.1538
  160DG      H3 3660   3.306   3.047   1.942  0.2071  0.1313 -0.2969
  160DG      H4 3661   3.448   3.151   1.904  0.2905 -2.6941 -1.6843
  160DG      H5 3662   3.358   3.151   2.066 -0.2574  0.4967  0.2431
  160DG      H6 3663   4.083   2.918   1.881 -1.1248 -1.5297  2.2160
  160DG      H7 3664   3.954   3.026   1.816 -0.3857 -1.9130 -0.5822
  160DG      H8 3665   4.055   3.070   1.964 -0.3559  2.2822 -1.8935
  160DG      O9 3666   3.489   2.990   2.003 -0.5757  0.3746  0.5305
  160DG     O10 3667   3.906   2.910   1.968  0.1511  0.3205  0.4699
  160DG     C11 3668   3.459   2.909   2.120 -0.0365  0.0198  0.7499
  160DG     C12 3669   3.933   2.877   2.104 -0.6700  0.1694  0.0876
  160DG     H13 3670   3.378   2.837   2.102 -1.2449  0.5604  3.5423
  160DG     H14 3671   3.438   2.971   2.207 -1.1839 -0.0712  0.5636
  160DG     H15 3672   3.966   2.967   2.155  1.4182  0.5419 -1.7475
  160DG     H16 3673   4.018   2.809   2.114 -1.0623 -0.8037 -2.3068
  160DG     C17 3674   3.579   2.814   2.147  0.0547 -0.4960  0.5738
  160DG     C18 3675   3.811   2.820   2.180 -0.1351 -0.2292  0.2275
  160DG     O19 3676   3.695   2.899   2.155 -0.0682  0.5277 -0.3907
  160DG     H20 3677   3.568   2.735   2.072 -2.0602 -2.2546  2.5852
  160DG     H21 3678   3.565   2.761   2.241  0.0010  0.9601  1.4099
  160DG     H22 3679   3.800   2.720   2.139  0.5723 -0.2442  0.0750
  160DG     H23 3680   3.836   2.799   2.284 -1.9531 -0.6420  0.6090
  161DG      C1 3681   0.820   0.350   4.261 -0.2827 -0.4285  0.0178
  161DG      C2 3682   1.371   0.738   4.691 -0.3221  0.2042  0.0931
  161DG      H3 3683   0.830   0.300   4.165 -1.7970 -0.8045  0.0403
  161DG      H4 3684   0.812   0.458   4.254  0.3819 -0.3465  0.3953
  161DG      H5 3685   0.728   0.313   4.307 -0.7757  0.0818 -0.5414
  161DG      H6 3686   1.292   0.810   4.716  0.6669  0.9939  1.0365
  161DG      H7 3687   1.406   0.692   4.783  0.2358 -0.7872 -0.6048
  161DG      H8 3688   1.456   0.796   4.656 -0.6716  0.5537 -0.1944
  161DG      O9 3689   0.932   0.318   4.341 -0.4609  0.7562 -0.1692
  161DG     O10 3690   1.329   0.634   4.607  0.2424  0.5189 -0.6396
  161DG     C11 3691   1.057   0.347   4.283 -0.1504  0.5178 -0.0730
  161DG     C12 3692   1.191   0.591   4.618 -0.5009  0.5834 -0.1217
  161DG     H13 3693   1.068   0.452   4.256  1.6905  0.1241 -1.0292
  161DG     H14 3694   1.050   0.287   4.193  1.8795  1.9233 -1.2818
  161DG     H15 3695   1.117   0.652   4.567  1.8252  1.3156 -2.8933
  161DG     H16 3696   1.175   0.579   4.725  2.2525 -1.1437  0.1962
  161DG     C17 3697   1.180   0.303   4.372 -0.0012 -0.2754  0.2591
  161DG     C18 3698   1.186   0.448   4.566  0.5919 -0.1974  0.1530
  161DG     O19 3699   1.230   0.428   4.434 -0.0867  0.7219  0.1871
  161DG     H20 3700   1.246   0.259   4.298 -1.7205  1.0529 -2.2194
  161DG     H21 3701   1.166   0.230   4.452 -0.3312 -1.3170 -0.7131
  161DG     H22 3702   1.231   0.378   4.636  1.5157  2.1285  1.9783
  161DG     H23 3703   1.080   0.423   4.558  0.3259  1.2653 -1.6137
  162DG      C1 3704   5.465   0.685   2.014 -0.1611 -0.2244 -0.2083
  162DG      C2 3705   5.240   0.056   2.450 -0.5274  0.3601 -0.4160
  162DG      H3 3706   5.367   0.707   1.972  0.5078  1.1769 -1.0981
  162DG      H4 3707   5.522   0.633   1.937 -0.6749  1.3902 -1.7371
  162DG      H5 3708   5.525   0.772   2.041  2.1555 -1.9132  0.3918
  162DG      H6 3709   5.239   0.064   2.559  0.1437 -1.3592 -0.2558
  162DG      H7 3710   5.139   0.082   2.417 -1.1497 -1.0929  0.2855
  162DG      H8 3711   5.242  -0.051   2.433  0.5313 -0.0213  1.8416
  162DG      O9 3712   5.436   0.611   2.132 -0.1811 -0.0927 -0.0604
  162DG     O10 3713   5.343   0.149   2.403  0.2736 -0.1240  0.2813
  162DG     C11 3714   5.552   0.576   2.201  0.0604  0.5894 -0.1067
  162DG     C12 3715   5.341   0.189   2.270 -0.3552 -0.4911  0.4909
  162DG     H13 3716   5.629   0.654   2.208  0.8461 -0.1147 -0.6822
  162DG     H14 3717   5.598   0.498   2.140 -0.0069 -1.3830  2.2102
  162DG     H15 3718   5.242   0.229   2.245 -0.7774 -0.2895  2.3523
  162DG     H16 3719   5.362   0.109   2.200 -2.2326  1.1150 -2.1204
  162DG     C17 3720   5.517   0.509   2.340 -0.0085 -0.0863 -0.0915
  162DG     C18 3721   5.446   0.298   2.245  0.0195 -0.6972  0.3292
  162DG     O19 3722   5.415   0.411   2.328 -0.2972  0.3802 -0.4948
  162DG     H20 3723   5.484   0.580   2.416 -2.4124 -0.9322 -0.2430
  162DG     H21 3724   5.606   0.470   2.390  0.9908  0.0301 -1.7344
  162DG     H22 3725   5.545   0.255   2.262  0.9315 -0.3869 -3.3879
  162DG     H23 3726   5.459   0.321   2.140  1.2302 -2.0374  0.1539
  163DG      C1 3727   4.879   2.603   3.531 -0.1455  0.4535 -0.2150
  163DG      C2 3728   4.477   2.228   3.192  0.1388  0.8766  0.7670
  163DG      H3 3729   4.932   2.694   3.558 -0.0153  0.6901 -1.2240
  163DG      H4 3730   4.948   2.546   3.469  0.6089  0.3743  0.6862
  163DG      H5 3731   4.851   2.545   3.619  1.9718  2.2361  1.7320
  163DG      H6 3732   4.391   2.181   3.241 -0.4740 -1.1140 -1.9999
  163DG      H7 3733   4.449   2.223   3.087  3.2992 -2.3136 -0.1360
  163DG      H8 3734   4.546   2.145   3.209 -1.9493 -0.9889  0.7457
  163DG      O9 3735   4.765   2.630   3.449  0.1471  0.2766 -0.2976
  163DG     O10 3736   4.508   2.353   3.242  0.7101  0.3991 -0.3798
  163DG     C11 3737   4.665   2.720   3.498  0.8875 -0.1590 -0.3669
  163DG     C12 3738   4.388   2.439   3.241 -0.4229 -0.0056 -0.2334
  163DG     H13 3739   4.703   2.820   3.519  0.5362  0.4702 -2.4571
  163DG     H14 3740   4.620   2.675   3.587 -0.8282 -0.6947 -1.4390
  163DG     H15 3741   4.325   2.422   3.328 -0.6354  2.2222  0.1080
  163DG     H16 3742   4.329   2.435   3.149 -0.0943  2.3884 -0.6022
  163DG     C17 3743   4.552   2.733   3.396 -0.4287  0.0679  0.1658
  163DG     C18 3744   4.426   2.586   3.245 -0.6366  0.4925 -0.5943
  163DG     O19 3745   4.520   2.600   3.357  0.3228 -0.2686  0.0613
  163DG     H20 3746   4.591   2.797   3.317  0.5300  0.1941  0.7197
  163DG     H21 3747   4.464   2.775   3.445 -2.2030 -0.8032 -2.1138
  163DG     H22 3748   4.475   2.629   3.158  0.9123  1.0824  0.5352
  163DG     H23 3749   4.331   2.636   3.265 -1.6208 -1.3488 -0.4176
  164DG      C1 3750   4.076   0.311   0.260 -0.1086 -0.2018  0.4555
  164DG      C2 3751   3.997  -0.326   0.596 -0.3289 -0.4637  0.6654
  164DG      H3 3752   4.149   0.389   0.239  0.7524 -1.1034 -0.0032
  164DG      H4 3753   3.978   0.351   0.285  0.0153  1.2185 -1.1374
  164DG      H5 3754   4.043   0.257   0.171 -0.1366 -2.1071  1.5593
  164DG      H6 3755   3.980  -0.366   0.497 -1.2106  1.4604 -0.0106
  164DG      H7 3756   4.059  -0.402   0.644 -0.9682 -2.8383 -2.0156
  164DG      H8 3757   3.897  -0.330   0.638 -0.6652 -1.7264 -0.2167
  164DG      O9 3758   4.121   0.225   0.363  0.0459 -0.0653 -0.0635
  164DG     O10 3759   4.065  -0.192   0.593 -0.2206  0.3515 -0.1397
  164DG     C11 3760   4.177   0.286   0.489  0.2400 -0.3639  0.3736
  164DG     C12 3761   4.047  -0.100   0.696 -0.0425 -0.2595  0.0870
  164DG     H13 3762   4.100   0.341   0.543 -0.7424 -0.7922 -0.5363
  164DG     H14 3763   4.242   0.368   0.461 -0.9342  0.1490 -0.9719
  164DG     H15 3764   4.052  -0.150   0.793  0.2102 -1.5762 -0.5788
  164DG     H16 3765   3.951  -0.050   0.699 -0.0618 -0.2969  0.0996
  164DG     C17 3766   4.244   0.182   0.578  0.6161  0.0318  0.2057
  164DG     C18 3767   4.144   0.013   0.712 -0.1052 -0.1021  0.5620
  164DG     O19 3768   4.142   0.082   0.591  0.5360  0.2385 -0.0557
  164DG     H20 3769   4.270   0.220   0.677 -0.7122  1.1018  0.1674
  164DG     H21 3770   4.329   0.126   0.539  0.4275  0.6581 -1.1573
  164DG     H22 3771   4.126   0.071   0.802  1.3043  0.7824  0.3125
  164DG     H23 3772   4.240  -0.034   0.734  1.1679  2.7256  1.5245
  165DG      C1 3773   5.289   1.245   2.810  0.1361  0.4314  0.1342
  165DG      C2 3774   5.649   1.087   2.121 -0.4311 -0.5772 -0.7127
  165DG      H3 3775   5.256   1.285   2.714  3.3992 -0.0455 -1.3241
  165DG      H4 3776   5.303   1.314   2.893 -3.1146 -1.1583  2.2182
  165DG      H5 3777   5.218   1.169   2.843  0.2933 -0.6877 -1.9296
  165DG      H6 3778   5.564   1.150   2.093  0.0954  0.3333 -0.3083
  165DG      H7 3779   5.740   1.140   2.092 -0.3928  0.0427  0.4931
  165DG      H8 3780   5.644   0.993   2.066 -0.4696  0.1102 -1.9127
  165DG      O9 3781   5.420   1.189   2.792 -0.1687 -0.1796 -0.0488
  165DG     O10 3782   5.648   1.078   2.265 -0.0238  0.0111  0.5837
  165DG     C11 3783   5.439   1.123   2.673  0.6180 -0.0003 -0.4054
  165DG     C12 3784   5.746   0.998   2.327 -0.0744 -0.2362  0.6150
  165DG     H13 3785   5.386   1.170   2.590 -0.8371 -2.1382 -0.7782
  165DG     H14 3786   5.399   1.022   2.684  1.2713 -0.4752 -2.0981
  165DG     H15 3787   5.845   1.024   2.291  0.2059  0.8291  2.0539
  165DG     H16 3788   5.718   0.894   2.308 -0.8477  0.2856 -1.3343
  165DG     C17 3789   5.588   1.107   2.642 -0.3170 -0.6901  0.9647
  165DG     C18 3790   5.743   1.039   2.475  0.1232 -0.2532  0.7920
  165DG     O19 3791   5.606   1.029   2.525  0.1998 -0.0077 -0.0257
  165DG     H20 3792   5.647   1.060   2.721  0.4511  0.2496  0.9691
  165DG     H21 3793   5.636   1.204   2.626 -2.6431  0.1526 -1.7188
  165DG     H22 3794   5.807   0.966   2.523  2.4694  0.6253 -0.8290
  165DG     H23 3795   5.779   1.141   2.482 -1.7950  0.7070 -1.8350
  166DG      C1 3796   2.437   4.492   4.153 -0.0565 -0.1336  0.2110
  166DG      C2 3797   3.063   4.585   3.862 -0.4818  0.0202 -0.2776
  166DG      H3 3798   2.492   4.403   4.182  0.1076 -0.0797  0.0591
  166DG      H4 3799   2.393   4.466   4.057 -0.4875 -0.6715  0.5397
  166DG      H5 3800   2.356   4.513   4.223 -0.5771  1.9389 -0.9484
  166DG      H6 3801   3.014   4.532   3.944 -0.7902  1.0576  0.2247
  166DG      H7 3802   2.999   4.618   3.780 -1.2816 -2.4985 -0.7660
  166DG      H8 3803   3.135   4.520   3.810  2.7532  1.4780  2.0154
  166DG      O9 3804   2.522   4.604   4.141 -0.1361 -0.3551 -0.0385
  166DG     O10 3805   3.128   4.694   3.925  0.0829  0.8375 -0.0939
  166DG     C11 3806   2.646   4.578   4.076 -0.0035  0.0381  0.6453
  166DG     C12 3807   3.043   4.808   3.934 -0.2523 -0.4831  0.1065
  166DG     H13 3808   2.628   4.552   3.972  1.4382 -2.6380  0.9618
  166DG     H14 3809   2.695   4.492   4.123 -0.2160 -1.3365 -1.5278
  166DG     H15 3810   2.980   4.823   3.846 -1.6057 -1.1947  0.9108
  166DG     H16 3811   3.103   4.898   3.948 -0.4838 -0.0885 -1.3279
  166DG     C17 3812   2.723   4.706   4.090 -0.8227  0.2642 -0.0877
  166DG     C18 3813   2.927   4.805   4.040 -0.0314  0.7126  0.3919
  166DG     O19 3814   2.849   4.693   4.040  0.4181 -0.0942  0.0687
  166DG     H20 3815   2.737   4.733   4.195  0.8908  0.8169 -0.4300
  166DG     H21 3816   2.668   4.785   4.039 -0.4796 -0.8855 -2.3988
  166DG     H22 3817   2.973   4.805   4.139  0.6679 -0.1535  0.0823
  166DG     H23 3818   2.872   4.899   4.043 -0.8043  0.2469  1.5029
  167DG      C1 3819   2.613   5.163   4.180  0.4318 -0.7120  0.5030
  167DG      C2 3820   2.234   5.506   3.644 -0.5714 -0.7791 -0.3171
  167DG      H3 3821   2.608   5.182   4.287  1.9684 -1.3892  0.7237
  167DG      H4 3822   2.663   5.240   4.122 -0.1754 -1.8257 -1.5910
  167DG      H5 3823   2.659   5.065   4.165 -1.4389 -1.4881 -0.5761
  167DG      H6 3824   2.251   5.588   3.575 -0.2996  1.2504  2.0028
  167DG      H7 3825   2.148   5.445   3.618 -2.5491  1.3536  0.8833
  167DG      H8 3826   2.209   5.551   3.740 -0.3524 -0.1205 -0.5623
  167DG      O9 3827   2.487   5.159   4.128  0.3874  0.1292  0.2471
  167DG     O10 3828   2.330   5.410   3.653 -0.4320  0.4900  0.0629
  167DG     C11 3829   2.475   5.082   4.009 -0.2755  0.6385 -0.2032
  167DG     C12 3830   2.447   5.456   3.717 -0.2445 -0.5665  0.5510
  167DG     H13 3831   2.371   5.079   3.977 -0.1545 -0.5357 -0.5507
  167DG     H14 3832   2.512   4.980   4.025  3.4161  1.7575 -0.6080
  167DG     H15 3833   2.418   5.517   3.803  1.0898  1.2330 -0.2368
  167DG     H16 3834   2.495   5.533   3.658  0.0859 -0.7649  0.5606
  167DG     C17 3835   2.532   5.146   3.884 -0.1747  0.6727  0.1678
  167DG     C18 3836   2.541   5.348   3.771  0.4947 -0.1891 -0.2992
  167DG     O19 3837   2.464   5.269   3.858  0.6045  0.5091  0.3418
  167DG     H20 3838   2.511   5.071   3.808  0.3928  2.4008 -1.7614
  167DG     H21 3839   2.640   5.152   3.884 -0.0395 -1.0488 -0.6625
  167DG     H22 3840   2.582   5.288   3.690  0.9774  0.1196 -0.2843
  167DG     H23 3841   2.624   5.389   3.829 -0.0459  0.7231 -0.1510
  168DG      C1 3842   2.689   2.286   3.000  0.5563  1.0778 -0.8812
  168DG      C2 3843   3.208   1.693   3.318 -0.7049 -0.2692  0.6221
  168DG      H3 3844   2.726   2.336   2.910  0.5426 -0.2024 -1.6176
  168DG      H4 3845   2.699   2.357   3.082  0.7528 -0.4923  0.5248
  168DG      H5 3846   2.584   2.266   2.983 -0.0245  0.8582  2.2878
  168DG      H6 3847   3.106   1.684   3.353 -0.0999  0.6586  2.7611
  168DG      H7 3848   3.258   1.595   3.313  0.6123  0.3355  1.4401
  168DG      H8 3849   3.258   1.770   3.375 -0.1058  2.3582 -3.0588
  168DG      O9 3850   2.750   2.165   3.037  0.2497  0.1353 -0.0875
  168DG     O10 3851   3.200   1.738   3.181 -0.1469  0.1042 -0.3505
  168DG     C11 3852   2.755   2.051   2.948  0.5675  0.4083 -0.2035
  168DG     C12 3853   3.131   1.862   3.166 -0.1275 -0.6583 -0.1664
  168DG     H13 3854   2.806   2.078   2.856  0.5296  0.0083 -0.3445
  168DG     H14 3855   2.654   2.019   2.924  0.4672  0.4185  0.1953
  168DG     H15 3856   3.184   1.898   3.077  0.3919  0.9932  0.7782
  168DG     H16 3857   3.147   1.935   3.244 -0.1846  0.4015 -1.1215
  168DG     C17 3858   2.812   1.923   3.011 -0.4533 -0.8771  0.5187
  168DG     C18 3859   2.990   1.828   3.127  0.1708 -0.4253 -0.2351
  168DG     O19 3860   2.935   1.949   3.062  0.4859 -0.1630 -0.0361
  168DG     H20 3861   2.824   1.848   2.932 -1.9679 -0.7005  0.0867
  168DG     H21 3862   2.753   1.885   3.094 -0.4493 -1.2878  0.3355
  168DG     H22 3863   3.006   1.746   3.057 -0.1739 -2.2777  1.7495
  168DG     H23 3864   2.951   1.791   3.222  0.9706  0.1215  0.3204
  169DG      C1 3865   5.225   3.727   4.226 -0.0349 -0.2329  0.2318
  169DG      C2 3866   4.905   3.174   4.147  0.1962 -0.0599 -0.3944
  169DG      H3 3867   5.233   3.829   4.265 -2.1626  0.3789 -0.7895
  169DG      H4 3868   5.291   3.709   4.141  0.4958 -1.3015  0.8408
  169DG      H5 3869   5.254   3.660   4.306 -2.2140  1.3911  2.5588
  169DG      H6 3870   4.924   3.091   4.214 -0.5890  0.0941  0.0300
  169DG      H7 3871   4.805   3.159   4.107  0.0345 -0.2680  0.0844
  169DG      H8 3872   4.968   3.155   4.060  0.3890 -1.4515  0.0281
  169DG      O9 3873   5.091   3.706   4.181 -0.0688 -0.2497 -0.6488
  169DG     O10 3874   4.933   3.294   4.204 -0.0649  0.1824  0.0109
  169DG     C11 3875   4.994   3.755   4.269 -0.4477 -0.0329  0.1836
  169DG     C12 3876   4.817   3.343   4.275  0.4387  0.5664  0.7464
  169DG     H13 3877   5.002   3.863   4.280  2.1710 -0.2479  1.1502
  169DG     H14 3878   5.008   3.703   4.364  1.3088 -0.2554 -0.1657
  169DG     H15 3879   4.785   3.276   4.355 -0.1416  2.7246  2.4310
  169DG     H16 3880   4.730   3.348   4.210  0.7526  1.9686  0.3985
  169DG     C17 3881   4.853   3.711   4.214  0.0096 -0.3295  0.2334
  169DG     C18 3882   4.846   3.487   4.320 -0.8297  0.5712  0.0407
  169DG     O19 3883   4.856   3.568   4.203 -0.3494  0.4826 -0.4566
  169DG     H20 3884   4.846   3.749   4.112 -0.3783 -2.9556 -0.8065
  169DG     H21 3885   4.770   3.743   4.277 -0.5053 -2.6672  0.8393
  169DG     H22 3886   4.756   3.520   4.372 -1.4605 -0.6787 -0.2093
  169DG     H23 3887   4.929   3.497   4.389  0.6775  2.1001 -1.8569
  170DG      C1 3888   0.991   0.816   2.957 -0.5322  0.6746  0.2913
  170DG      C2 3889   1.101   0.672   2.393  0.1770 -0.2131  0.6612
  170DG      H3 3890   0.896   0.869   2.957 -1.5083 -0.9432  2.4232
  170DG      H4 3891   1.061   0.879   2.902 -0.7766  0.2009 -0.5643
  170DG      H5 3892   1.020   0.826   3.062 -0.2665  3.5977  0.0381
  170DG      H6 3893   1.022   0.688   2.321  1.5137 -0.5080 -0.9309
  170DG      H7 3894   1.065   0.697   2.493 -1.2253  2.9266 -0.5244
  170DG      H8 3895   1.187   0.736   2.374 -1.2032  1.5460  0.1191
  170DG      O9 3896   0.993   0.682   2.904  0.7023  0.3087 -0.1002
  170DG     O10 3897   1.144   0.539   2.393  0.0715 -0.2797 -0.3100
  170DG     C11 3898   1.120   0.625   2.895  0.2542 -0.1677 -0.1601
  170DG     C12 3899   1.046   0.449   2.450 -0.1329  0.4922  0.0665
  170DG     H13 3900   1.156   0.602   2.995  1.4685  1.3126 -0.2276
  170DG     H14 3901   1.190   0.692   2.845  0.2013 -0.0134 -0.0301
  170DG     H15 3902   1.052   0.357   2.392 -3.1182  1.6856 -2.4326
  170DG     H16 3903   0.946   0.486   2.427 -0.2537  0.8533  1.1289
  170DG     C17 3904   1.115   0.489   2.814  0.5694 -0.4010 -0.3881
  170DG     C18 3905   1.070   0.409   2.592 -0.0965  0.3446 -0.3109
  170DG     O19 3906   1.066   0.524   2.686  0.1055 -0.5396  0.1137
  170DG     H20 3907   1.036   0.432   2.862 -1.0244  0.8980 -1.3755
  170DG     H21 3908   1.211   0.437   2.808 -0.0099 -1.3984 -1.1087
  170DG     H22 3909   0.996   0.335   2.623 -0.8351  0.4290 -1.7767
  170DG     H23 3910   1.158   0.345   2.598 -0.0351  0.5323  1.5210
  171DG      C1 3911   2.689   0.463   1.179 -0.4237  0.2617  0.1324
  171DG      C2 3912   2.691   0.927   0.464 -0.6084 -0.3194  0.3258
  171DG      H3 3913   2.795   0.479   1.160 -0.6442  0.3978 -1.0834
  171DG      H4 3914   2.662   0.357   1.183  0.2953  0.0004 -1.3992
  171DG      H5 3915   2.655   0.506   1.273 -1.9374 -0.9130  0.1596
  171DG      H6 3916   2.708   1.011   0.531 -1.2056 -0.8661  1.1866
  171DG      H7 3917   2.783   0.912   0.407 -1.6136 -1.3413 -1.0891
  171DG      H8 3918   2.608   0.950   0.398  0.1371  0.9659 -0.2040
  171DG      O9 3919   2.613   0.529   1.071  0.6149 -0.1889  0.5513
  171DG     O10 3920   2.657   0.813   0.538  0.3615  0.6734  0.3615
  171DG     C11 3921   2.646   0.469   0.948  0.1002  0.2465  0.7961
  171DG     C12 3922   2.557   0.834   0.639  0.3229 -0.5188  0.1623
  171DG     H13 3923   2.647   0.360   0.948  1.5456  0.1492 -2.1315
  171DG     H14 3924   2.748   0.502   0.928  0.6437 -1.5221  0.4829
  171DG     H15 3925   2.482   0.898   0.590  1.3604  0.9492  0.4088
  171DG     H16 3926   2.608   0.899   0.711  0.1612 -1.7381  1.4112
  171DG     C17 3927   2.558   0.517   0.833  0.8049 -0.2194 -0.1663
  171DG     C18 3928   2.505   0.706   0.695  0.3093  0.0343 -0.5807
  171DG     O19 3929   2.595   0.644   0.790  0.6973 -0.0814  0.2651
  171DG     H20 3930   2.455   0.517   0.869 -0.2704 -3.5505 -2.7201
  171DG     H21 3931   2.552   0.449   0.748 -0.8432 -1.0335  0.5364
  171DG     H22 3932   2.409   0.734   0.739  0.4848  1.0873 -0.8334
  171DG     H23 3933   2.472   0.639   0.616  0.4538 -0.4177 -0.2590
  172DG      C1 3934   4.631   2.160   1.220 -0.1255 -0.2273  0.2275
  172DG      C2 3935   4.483   1.465   0.992 -0.8618 -0.0090 -0.3558
  172DG      H3 3936   4.594   2.261   1.241 -1.0323 -0.5932  0.4238
  172DG      H4 3937   4.669   2.144   1.119 -0.9509 -0.7817  0.0050
  172DG      H5 3938   4.714   2.144   1.290 -1.4882  0.0202  1.9760
  172DG      H6 3939   4.393   1.405   0.979  0.5166 -2.4218  0.5668
  172DG      H7 3940   4.462   1.572   0.985 -2.8260 -0.1880  1.5398
  172DG      H8 3941   4.569   1.439   0.931 -0.1608  0.3228  0.4593
  172DG      O9 3942   4.526   2.071   1.251 -0.1000 -0.5882 -0.0483
  172DG     O10 3943   4.525   1.459   1.123 -0.1725 -0.0451  0.1334
  172DG     C11 3944   4.537   1.941   1.197  0.1192  0.4155  0.2192
  172DG     C12 3945   4.424   1.496   1.218 -0.4603  0.2524 -0.2482
  172DG     H13 3946   4.636   1.934   1.151 -0.3203 -0.4988 -0.6186
  172DG     H14 3947   4.458   1.919   1.125 -0.9059  0.4854  1.2880
  172DG     H15 3948   4.457   1.462   1.316 -0.1260  0.1659 -0.3918
  172DG     H16 3949   4.326   1.453   1.194 -1.8245  2.4308  1.0907
  172DG     C17 3950   4.531   1.841   1.306  0.5772 -0.0830 -0.4025
  172DG     C18 3951   4.415   1.650   1.234  0.7581  0.4287  1.0647
  172DG     O19 3952   4.545   1.705   1.267 -0.1867 -0.0647  0.0101
  172DG     H20 3953   4.443   1.852   1.370  2.1355 -1.5703  2.1777
  172DG     H21 3954   4.609   1.850   1.382 -1.9812 -1.5178  2.6233
  172DG     H22 3955   4.381   1.701   1.143 -1.0668 -3.1702 -0.4828
  172DG     H23 3956   4.338   1.682   1.303  0.3875  1.4705  0.2072
  173DG      C1 3957   4.170   4.432   0.698 -0.3133 -0.5595 -0.6651
  173DG      C2 3958   4.753   3.948   0.820 -0.8042 -0.3297 -0.0289
  173DG      H3 3959   4.116   4.405   0.789 -0.3434 -1.2317 -0.8768
  173DG      H4 3960   4.127   4.371   0.619 -1.4335 -1.4321  0.5805
  173DG      H5 3961   4.150   4.536   0.671 -0.5875 -1.1796 -3.0096
  173DG      H6 3962   4.745   3.852   0.770  1.6538 -0.5256 -0.1333
  173DG      H7 3963   4.858   3.948   0.847  0.8358 -2.0668 -5.2712
  173DG      H8 3964   4.669   3.952   0.890 -0.3531  0.3871  0.4827
  173DG      O9 3965   4.310   4.419   0.713  0.1098 -0.2136  0.2209
  173DG     O10 3966   4.738   4.050   0.728 -0.0908 -0.0749 -0.9209
  173DG     C11 3967   4.385   4.453   0.604  0.5262 -0.2100  0.0760
  173DG     C12 3968   4.755   4.174   0.791 -0.3311 -0.5297  0.0936
  173DG     H13 3969   4.362   4.553   0.569  0.2038 -0.5838 -0.8024
  173DG     H14 3970   4.368   4.382   0.523  1.6059 -0.4197  0.0167
  173DG     H15 3971   4.856   4.185   0.831 -0.0999 -0.8509 -0.3969
  173DG     H16 3972   4.687   4.186   0.875 -0.1563 -0.4101  0.2199
  173DG     C17 3973   4.541   4.446   0.639  0.6585 -0.1588 -0.0519
  173DG     C18 3974   4.718   4.294   0.701 -0.6903  0.1230  0.0906
  173DG     O19 3975   4.577   4.312   0.676 -0.6117  0.0507  0.3591
  173DG     H20 3976   4.564   4.519   0.717 -1.8284 -0.2218  0.8149
  173DG     H21 3977   4.601   4.475   0.553  0.6274  2.4731  0.7428
  173DG     H22 3978   4.763   4.384   0.743  0.0829 -0.8028  1.3416
  173DG     H23 3979   4.769   4.278   0.606  0.9723 -1.8500  1.2255
  174DG      C1 3980   5.330   0.461   2.834 -0.5353  0.3154  0.0024
  174DG      C2 3981   6.035   0.597   2.917 -0.1074 -0.6465  0.2520
  174DG      H3 3982   5.235   0.508   2.808 -0.3657  0.8893  0.4209
  174DG      H4 3983   5.339   0.452   2.942 -1.5684  2.5982  0.3316
  174DG      H5 3984   5.339   0.368   2.777 -0.5042 -0.5335  1.3425
  174DG      H6 3985   6.082   0.507   2.878 -0.7074 -0.8314 -0.0551
  174DG      H7 3986   6.090   0.689   2.900 -1.2018 -0.2808 -1.6196
  174DG      H8 3987   6.032   0.568   3.022  1.1461 -0.4585  0.3469
  174DG      O9 3988   5.431   0.543   2.775  0.4953 -0.0530 -0.3726
  174DG     O10 3989   5.897   0.603   2.869  0.0640  0.1408 -0.1853
  174DG     C11 3990   5.446   0.666   2.846 -0.3768 -0.6235  0.7887
  174DG     C12 3991   5.891   0.644   2.733 -0.3517 -0.1641 -0.0249
  174DG     H13 3992   5.487   0.639   2.943 -0.0309 -1.6406  0.3761
  174DG     H14 3993   5.350   0.717   2.851  0.1172  1.1377 -3.5377
  174DG     H15 3994   5.927   0.566   2.666  2.0606  0.9968 -0.2058
  174DG     H16 3995   5.954   0.732   2.716  0.3994 -0.6769  0.0480
  174DG     C17 3996   5.543   0.770   2.766  0.5005  0.0683 -0.4935
  174DG     C18 3997   5.755   0.674   2.682 -0.1431  0.2005 -1.2682
  174DG     O19 3998   5.682   0.752   2.782  0.3547 -0.1478 -0.3712
  174DG     H20 3999   5.516   0.864   2.814 -0.4933 -0.0850 -0.7376
  174DG     H21 4000   5.501   0.803   2.672 -1.6022 -0.7014  0.1324
  174DG     H22 4001   5.750   0.722   2.584 -2.3692  0.1425 -1.2288
  174DG     H23 4002   5.699   0.582   2.663 -3.4744  2.3004 -2.4573
  175DG      C1 4003   2.916   3.787   1.823 -0.5919 -0.3980 -0.1551
  175DG      C2 4004   2.843   4.465   1.863 -0.1692 -0.3152  0.5000
  175DG      H3 4005   2.865   3.695   1.794 -1.0400 -0.3806  0.5713
  175DG      H4 4006   2.990   3.755   1.896  0.7780 -2.6974 -2.4110
  175DG      H5 4007   2.964   3.823   1.731 -2.7108 -0.8592 -1.5106
  175DG      H6 4008   2.773   4.428   1.788  1.2589  2.2208 -2.2880
  175DG      H7 4009   2.825   4.570   1.882  0.0090 -0.4094  1.2140
  175DG      H8 4010   2.926   4.458   1.793 -1.7905  1.7689 -1.7800
  175DG      O9 4011   2.834   3.899   1.874  0.3007  0.6032  0.3582
  175DG     O10 4012   2.865   4.382   1.980  0.0666 -0.6297  0.6816
  175DG     C11 4013   2.768   3.974   1.776  0.1074  0.3566  0.1358
  175DG     C12 4014   2.756   4.343   2.057  0.1552  0.5249 -0.3392
  175DG     H13 4015   2.717   3.911   1.703  0.4690  0.1239  0.0846
  175DG     H14 4016   2.855   4.016   1.726  0.3206 -1.2068 -0.8872
  175DG     H15 4017   2.713   4.439   2.089  0.9424  0.6100  0.5229
  175DG     H16 4018   2.794   4.296   2.147 -0.1986  0.4249 -0.2424
  175DG     C17 4019   2.666   4.071   1.834 -0.0535  0.3334  0.0069
  175DG     C18 4020   2.670   4.241   1.980 -0.4704 -0.0738  0.6286
  175DG     O19 4021   2.749   4.139   1.923  0.0031  0.2320 -0.0591
  175DG     H20 4022   2.579   4.034   1.888 -0.1194  2.0043  1.1329
  175DG     H21 4023   2.647   4.141   1.752 -2.5997 -0.3201 -0.0286
  175DG     H22 4024   2.589   4.201   2.041 -0.2280 -1.9213 -0.1997
  175DG     H23 4025   2.623   4.293   1.897 -1.1526 -1.4424  0.1377
  176DG      C1 4026   2.656   0.891   3.224 -0.1528  0.0734 -0.0052
  176DG      C2 4027   2.804   1.508   3.392 -0.5586  0.8429 -0.7071
  176DG      H3 4028   2.705   0.795   3.237 -0.9699 -0.1480  1.8311
  176DG      H4 4029   2.582   0.878   3.145 -0.9918 -1.1026  0.9383
  176DG      H5 4030   2.582   0.903   3.303  0.7949 -0.2914  0.9573
  176DG      H6 4031   2.852   1.605   3.409  1.0403 -0.2271  1.2745
  176DG      H7 4032   2.703   1.538   3.365 -1.7606 -0.3089  2.2109
  176DG      H8 4033   2.795   1.467   3.492 -0.1227  0.1527 -0.9434
  176DG      O9 4034   2.748   1.001   3.199  0.4115 -0.5244  0.1736
  176DG     O10 4035   2.845   1.401   3.311 -0.0669  0.4345  0.3920
  176DG     C11 4036   2.869   0.956   3.135 -0.5837 -0.1780 -0.3871
  176DG     C12 4037   2.984   1.386   3.312  0.1624 -0.6164 -0.2375
  176DG     H13 4038   2.837   0.909   3.042 -0.1531  1.3023 -1.3129
  176DG     H14 4039   2.904   0.882   3.207  0.7431 -0.1013 -0.9399
  176DG     H15 4040   3.028   1.363   3.409  1.8265  0.0459 -0.7885
  176DG     H16 4041   3.034   1.474   3.271 -0.9389  0.8006  1.3363
  176DG     C17 4042   2.976   1.068   3.120 -0.1671  0.3991  0.8694
  176DG     C18 4043   3.031   1.279   3.213  0.2527 -0.4771 -0.9117
  176DG     O19 4044   2.948   1.168   3.221 -0.5961  0.4029  0.0123
  176DG     H20 4045   2.999   1.114   3.024  1.0815  2.4549  2.0766
  176DG     H21 4046   3.071   1.019   3.141  0.4087 -0.2160 -2.5000
  176DG     H22 4047   3.026   1.322   3.113  1.5473 -0.8519 -1.1512
  176DG     H23 4048   3.134   1.248   3.231  0.4425  0.6965  0.1284
  177DG      C1 4049   5.203   2.716   4.364  0.3592 -0.5129  0.8646
  177DG      C2 4050   5.424   3.243   4.594 -0.2205 -0.6839 -0.9757
  177DG      H3 4051   5.243   2.661   4.449  0.5856 -1.8836 -0.0975
  177DG      H4 4052   5.252   2.664   4.281 -0.9258 -1.7994  0.8697
  177DG      H5 4053   5.096   2.698   4.363  0.2495 -0.0967  2.4171
  177DG      H6 4054   5.436   3.350   4.579 -0.1448 -0.2114  1.9801
  177DG      H7 4055   5.455   3.226   4.697 -0.3441  2.1637 -0.4060
  177DG      H8 4056   5.491   3.183   4.533  1.4440  0.5559 -0.4154
  177DG      O9 4057   5.233   2.855   4.359 -0.1116 -0.8473 -0.1858
  177DG     O10 4058   5.281   3.231   4.596 -0.0359 -0.0271  0.3733
  177DG     C11 4059   5.192   2.914   4.239  0.3508  0.0225  0.5544
  177DG     C12 4060   5.203   3.288   4.490 -0.6685 -0.0625  0.0591
  177DG     H13 4061   5.083   2.916   4.242  0.3059  0.4074 -0.6359
  177DG     H14 4062   5.224   2.856   4.152  1.3696  2.5019 -0.8306
  177DG     H15 4063   5.209   3.397   4.500 -3.0006  0.0187  1.1816
  177DG     H16 4064   5.099   3.274   4.521 -0.1157 -1.9530  1.2039
  177DG     C17 4065   5.253   3.051   4.220  0.0089 -0.9230 -0.1475
  177DG     C18 4066   5.246   3.243   4.354 -0.2672 -0.4416 -0.1655
  177DG     O19 4067   5.243   3.106   4.343 -0.0725 -0.2173 -0.2034
  177DG     H20 4068   5.202   3.104   4.140  1.9492  0.3829 -0.5846
  177DG     H21 4069   5.356   3.059   4.188 -0.0452  0.0151 -0.1038
  177DG     H22 4070   5.178   3.273   4.274  3.2844  1.1945 -2.8489
  177DG     H23 4071   5.347   3.277   4.331 -0.2499  0.9735  1.7439
  178DG      C1 4072   4.996   2.106   0.381  0.4364  0.0671  0.3903
  178DG      C2 4073   4.540   2.523   0.777 -0.1729 -0.0640  0.6074
  178DG      H3 4074   4.968   2.044   0.295  1.8283 -0.1013  0.0174
  178DG      H4 4075   5.065   2.045   0.440  0.5092 -1.0924 -0.8449
  178DG      H5 4076   5.046   2.192   0.336 -0.8946  0.8490  0.3627
  178DG      H6 4077   4.537   2.552   0.882  0.4323  1.4139  0.2392
  178DG      H7 4078   4.586   2.609   0.729  1.8870  0.4863  3.2841
  178DG      H8 4079   4.444   2.521   0.726  0.3591 -3.5833 -0.5104
  178DG      O9 4080   4.874   2.149   0.447 -0.2306 -0.0852  0.2234
  178DG     O10 4081   4.603   2.398   0.752 -0.2451  0.0918 -0.5209
  178DG     C11 4082   4.813   2.037   0.503 -0.4163 -0.0128  0.0065
  178DG     C12 4083   4.542   2.287   0.816  0.5191  0.1282  0.3093
  178DG     H13 4084   4.866   1.999   0.590  1.8767  3.0842  0.1409
  178DG     H14 4085   4.813   1.958   0.428  3.2090  1.8916 -2.2849
  178DG     H15 4086   4.441   2.297   0.858  0.4025 -0.9940  0.3182
  178DG     H16 4087   4.612   2.257   0.894  1.4927  1.6873  0.0918
  178DG     C17 4088   4.668   2.071   0.542 -0.7064 -0.1232  0.0030
  178DG     C18 4089   4.542   2.163   0.718  0.5502  0.1804 -0.1218
  178DG     O19 4090   4.670   2.152   0.652 -0.1414  0.0333  0.1574
  178DG     H20 4091   4.616   1.976   0.552 -1.2907  0.3452  1.6565
  178DG     H21 4092   4.618   2.127   0.463 -1.2304  1.4504  1.4021
  178DG     H22 4093   4.529   2.070   0.774 -0.4972  0.5521  0.2643
  178DG     H23 4094   4.466   2.181   0.643 -0.4014  0.1399  0.8092
  179DG      C1 4095   4.459   1.040   3.460 -0.4142 -0.3845  0.6167
  179DG      C2 4096   3.946   1.478   3.548  0.6322 -0.7950 -0.3007
  179DG      H3 4097   4.507   1.137   3.447  1.0366 -0.9398  1.5714
  179DG      H4 4098   4.504   0.959   3.404  4.2295  3.3609 -1.8280
  179DG      H5 4099   4.473   1.020   3.566 -2.0696  1.8631  1.3495
  179DG      H6 4100   4.009   1.546   3.606 -1.6523  1.0200  0.1972
  179DG      H7 4101   3.967   1.491   3.442 -1.4586 -2.1786 -0.9403
  179DG      H8 4102   3.840   1.502   3.556  0.6803 -0.4971 -0.5169
  179DG      O9 4103   4.325   1.061   3.432 -0.2512 -0.5483  0.1614
  179DG     O10 4104   3.962   1.345   3.577 -0.2673  0.4700  0.6939
  179DG     C11 4105   4.283   1.088   3.299  0.1442  0.5003  0.5027
  179DG     C12 4106   3.877   1.245   3.509 -0.1934  0.1216 -0.1064
  179DG     H13 4107   4.316   1.009   3.232  0.5511  0.3589  0.8670
  179DG     H14 4108   4.327   1.184   3.272  1.5838  0.4766  2.5261
  179DG     H15 4109   3.776   1.284   3.492 -0.4965  0.3236  1.9447
  179DG     H16 4110   3.862   1.161   3.576  0.2245  0.4763  0.4416
  179DG     C17 4111   4.129   1.096   3.286  0.2192 -0.6558  0.5999
  179DG     C18 4112   3.944   1.207   3.371 -0.0406 -0.2169 -0.6423
  179DG     O19 4113   4.082   1.183   3.385 -0.2563  0.1824 -0.3948
  179DG     H20 4114   4.074   1.005   3.310 -1.8868  0.6967  1.0790
  179DG     H21 4115   4.110   1.132   3.185  0.6485 -1.2794  0.2855
  179DG     H22 4116   3.882   1.123   3.338  0.5841 -2.2176  2.7334
  179DG     H23 4117   3.933   1.292   3.305  1.8955 -0.3018 -1.1362
  180DG      C1 4118   2.390   1.414   0.238  0.1597 -0.8173  0.6319
  180DG      C2 4119   2.324   1.503  -0.423 -0.0809 -0.3644  0.1736
  180DG      H3 4120   2.293   1.374   0.208  0.0347  0.4688 -0.8079
  180DG      H4 4121   2.370   1.519   0.262  0.3147 -0.6338 -0.0245
  180DG      H5 4122   2.439   1.359   0.318  2.6950 -0.7221 -0.7621
  180DG      H6 4123   2.346   1.609  -0.429 -0.0479 -0.3115  1.0887
  180DG      H7 4124   2.351   1.451  -0.515 -0.7063 -1.9358  0.8314
  180DG      H8 4125   2.223   1.482  -0.386 -0.1980  0.2467  0.2094
  180DG      O9 4126   2.474   1.399   0.121 -0.1140 -0.5548  0.0796
  180DG     O10 4127   2.401   1.442  -0.321  0.3069 -0.1172  0.2125
  180DG     C11 4128   2.600   1.466   0.137 -0.6549 -0.2796  0.7907
  180DG     C12 4129   2.544   1.452  -0.343 -0.2423 -0.2870  0.1996
  180DG     H13 4130   2.641   1.420   0.227 -2.6879  1.7826  2.9098
  180DG     H14 4131   2.584   1.573   0.151  0.3219 -0.0885  0.5369
  180DG     H15 4132   2.567   1.555  -0.373 -1.4397 -0.7629 -2.6909
  180DG     H16 4133   2.559   1.389  -0.431 -0.7980  0.4649 -0.4581
  180DG     C17 4134   2.685   1.449   0.004  0.2131  0.5891 -0.9182
  180DG     C18 4135   2.636   1.407  -0.226 -0.5465  0.0532 -0.5439
  180DG     O19 4136   2.593   1.466  -0.107 -0.1719 -0.5463 -0.3591
  180DG     H20 4137   2.735   1.352   0.001  1.0407  0.9037  1.0532
  180DG     H21 4138   2.760   1.527   0.015  1.1912 -0.4102 -0.3027
  180DG     H22 4139   2.620   1.300  -0.223  0.6618 -0.1492 -0.8173
  180DG     H23 4140   2.740   1.428  -0.251  0.3451 -2.6727  0.5208
  181DG      C1 4141   4.187   2.520   5.485  0.4715  0.5705  0.1177
  181DG      C2 4142   4.052   3.243   5.048 -0.0357  0.0192 -0.9411
  181DG      H3 4143   4.200   2.527   5.592  0.8502  2.3010 -0.0008
  181DG      H4 4144   4.270   2.455   5.460  1.1579  0.6270  2.1129
  181DG      H5 4145   4.087   2.478   5.471  1.6014 -2.0418 -0.7746
  181DG      H6 4146   4.073   3.349   5.032  2.6956 -0.0195  1.5962
  181DG      H7 4147   4.116   3.192   4.976  1.0167 -0.1950  0.1282
  181DG      H8 4148   3.949   3.210   5.030 -1.0193  0.1446  3.3858
  181DG      O9 4149   4.218   2.639   5.414  0.3286  0.1971  0.1648
  181DG     O10 4150   4.084   3.203   5.184 -0.1721 -0.0065  0.5818
  181DG     C11 4151   4.208   2.623   5.275  0.1033 -0.4984 -0.5509
  181DG     C12 4152   4.051   3.077   5.217 -0.3009  0.4311 -0.1693
  181DG     H13 4153   4.108   2.589   5.249 -0.3338  2.5991 -3.8376
  181DG     H14 4154   4.273   2.544   5.237 -0.5992 -0.2094 -2.4889
  181DG     H15 4155   3.959   3.036   5.176 -0.5480 -0.3937  1.1534
  181DG     H16 4156   4.039   3.077   5.325 -0.5065  3.5752 -0.1176
  181DG     C17 4157   4.241   2.756   5.211 -0.5511  0.2938 -0.4409
  181DG     C18 4158   4.164   2.977   5.197 -0.9936  0.1482  0.2612
  181DG     O19 4159   4.138   2.844   5.246  0.1459  0.1509  0.2581
  181DG     H20 4160   4.257   2.749   5.103 -2.5978 -0.6813 -0.7266
  181DG     H21 4161   4.334   2.784   5.261  1.0661 -3.0086 -1.3599
  181DG     H22 4162   4.198   2.971   5.093  0.1266  1.9003  0.4756
  181DG     H23 4163   4.255   3.004   5.249  0.1022 -3.1762  0.2559
  182DG      C1 4164   3.095   0.102   0.072 -1.0937 -0.3747 -0.6956
  182DG      C2 4165   3.304  -0.371  -0.441 -0.0969 -0.5091  0.3385
  182DG      H3 4166   3.099   0.169   0.159 -1.8261  1.5542 -2.0781
  182DG      H4 4167   3.024   0.020   0.077 -2.5718  0.8079 -1.4165
  182DG      H5 4168   3.057   0.168  -0.006  0.5229  1.0076 -0.3885
  182DG      H6 4169   3.213  -0.407  -0.394 -1.5285 -2.5397 -3.5576
  182DG      H7 4170   3.275  -0.342  -0.542  1.0921  0.2102  0.1860
  182DG      H8 4171   3.365  -0.461  -0.441  0.8396  0.0281 -2.3354
  182DG      O9 4172   3.220   0.051   0.020  0.9613  0.6356 -0.1429
  182DG     O10 4173   3.366  -0.266  -0.370  0.3988 -0.2823  0.3716
  182DG     C11 4174   3.287  -0.047   0.095  0.0902  0.1403  0.5392
  182DG     C12 4175   3.440  -0.311  -0.258 -0.2436  0.6653  0.9707
  182DG     H13 4176   3.228  -0.138   0.105 -0.5002  0.4330 -0.1175
  182DG     H14 4177   3.306  -0.014   0.197 -0.4065  0.1646  0.6274
  182DG     H15 4178   3.532  -0.356  -0.295  0.7677  3.0365  0.3932
  182DG     H16 4179   3.401  -0.393  -0.198  0.4972 -2.8122 -2.8378
  182DG     C17 4180   3.415  -0.088   0.025  0.9381 -0.0182  0.1973
  182DG     C18 4181   3.490  -0.189  -0.176 -0.0791 -0.3867 -0.1977
  182DG     O19 4182   3.380  -0.127  -0.104  0.1844  0.3224 -0.0090
  182DG     H20 4183   3.452  -0.171   0.084 -1.0566 -1.6437 -0.6799
  182DG     H21 4184   3.484  -0.003   0.029  0.9414 -0.0779  1.7579
  182DG     H22 4185   3.570  -0.219  -0.109  0.0634  0.2215 -0.0863
  182DG     H23 4186   3.537  -0.115  -0.241  0.1756 -0.6756 -0.3433
  183DG      C1 4187   4.154   1.806   4.888  0.1140  0.3355 -0.0788
  183DG      C2 4188   3.937   2.329   5.150  0.2896  0.3693 -0.5553
  183DG      H3 4189   4.060   1.754   4.904  0.4596 -0.1749  0.3426
  183DG      H4 4190   4.222   1.731   4.848  1.0098  1.2602 -0.3258
  183DG      H5 4191   4.142   1.884   4.813  1.3365  0.8636  0.2638
  183DG      H6 4192   3.845   2.271   5.158  1.1663 -1.0432 -0.2441
  183DG      H7 4193   3.981   2.322   5.249 -3.5046  0.8148  1.3182
  183DG      H8 4194   3.911   2.431   5.124  0.0013  0.8129  1.3922
  183DG      O9 4195   4.209   1.862   5.009  0.0661  0.6025 -0.0168
  183DG     O10 4196   4.020   2.268   5.058  0.2794  0.0370  0.3996
  183DG     C11 4197   4.332   1.921   4.997  0.0761  0.0766 -0.0241
  183DG     C12 4198   4.141   2.344   5.039  0.3309  0.3908 -0.3646
  183DG     H13 4199   4.403   1.862   4.940 -1.1791 -0.7545 -0.7728
  183DG     H14 4200   4.375   1.917   5.097  4.0501  1.0651 -1.5054
  183DG     H15 4201   4.194   2.365   5.132 -1.3497  0.2620  0.6686
  183DG     H16 4202   4.117   2.436   4.987 -0.5650  0.9459  0.9586
  183DG     C17 4203   4.331   2.064   4.939 -0.8592  0.1676  0.1626
  183DG     C18 4204   4.233   2.275   4.940  0.0997 -0.1468 -0.1672
  183DG     O19 4205   4.238   2.146   5.001  0.1384  0.3534  0.4851
  183DG     H20 4206   4.311   2.062   4.832 -1.4542 -2.5030  0.2516
  183DG     H21 4207   4.437   2.087   4.946 -1.0813  1.3343 -0.1719
  183DG     H22 4208   4.189   2.265   4.841  0.9714 -0.9472 -0.4897
  183DG     H23 4209   4.331   2.322   4.943  0.3195 -0.5177 -1.0718
  184DG      C1 4210   4.863   4.351   3.324 -0.0950 -0.1560  0.1817
  184DG      C2 4211   4.590   3.709   3.575 -0.0706 -0.2380  0.4829
  184DG      H3 4212   4.901   4.391   3.418  0.3135 -0.1677  0.0230
  184DG      H4 4213   4.775   4.411   3.302 -1.0333 -2.2771 -2.4535
  184DG      H5 4214   4.949   4.382   3.265  1.1008 -0.2289  1.8231
  184DG      H6 4215   4.668   3.751   3.639  1.0843 -2.7828  0.8575
  184DG      H7 4216   4.497   3.734   3.625  1.2011  2.2549  1.8662
  184DG      H8 4217   4.595   3.603   3.598 -2.5622 -0.0109  2.5663
  184DG      O9 4218   4.846   4.207   3.321  0.2512  0.5126 -0.1611
  184DG     O10 4219   4.609   3.745   3.439  0.4280 -0.1941  0.7638
  184DG     C11 4220   4.780   4.167   3.211 -0.3542  0.5775  0.2599
  184DG     C12 4221   4.744   3.726   3.400  0.1365 -0.0448  0.0315
  184DG     H13 4222   4.832   4.217   3.129  0.3935 -0.8343 -0.1634
  184DG     H14 4223   4.675   4.194   3.211 -0.5425 -0.0863 -0.9508
  184DG     H15 4224   4.754   3.618   3.388 -0.6461 -0.1933  0.6062
  184DG     H16 4225   4.821   3.759   3.469  1.2304 -1.3716 -0.4975
  184DG     C17 4226   4.803   4.016   3.183 -0.5089  0.1618 -0.3821
  184DG     C18 4227   4.776   3.799   3.266 -0.1075 -0.0624 -1.1053
  184DG     O19 4228   4.759   3.936   3.293 -0.3005  0.1151  0.0158
  184DG     H20 4229   4.909   3.994   3.169 -0.3892  0.0789  0.5804
  184DG     H21 4230   4.755   3.991   3.088 -0.0665  0.1136 -0.5935
  184DG     H22 4231   4.883   3.789   3.248  0.5214  1.8918  1.0203
  184DG     H23 4232   4.721   3.752   3.184 -1.5091 -0.9797  0.3089
  185DG      C1 4233   4.053   3.881   2.854  0.0344  0.5799 -0.1415
  185DG      C2 4234   3.512   3.364   3.062  0.8109  0.2498  0.5201
  185DG      H3 4235   4.091   3.925   2.761  0.0176 -0.5621 -0.7099
  185DG      H4 4236   4.122   3.808   2.898 -1.0184 -2.0959 -2.6013
  185DG      H5 4237   4.036   3.963   2.923 -1.1516  1.8476 -1.8679
  185DG      H6 4238   3.569   3.336   3.151  1.7501  2.2220  0.5925
  185DG      H7 4239   3.414   3.406   3.085 -0.6337 -1.1276 -2.4903
  185DG      H8 4240   3.499   3.269   3.010  1.1106 -0.4474  1.6721
  185DG      O9 4241   3.939   3.806   2.824  0.1555  0.8825 -0.0010
  185DG     O10 4242   3.594   3.460   2.996 -0.2673  0.3705 -0.0843
  185DG     C11 4243   3.828   3.885   2.788 -0.0126 -0.3311  0.5360
  185DG     C12 4244   3.526   3.518   2.883  0.1169  0.1319  0.4045
  185DG     H13 4245   3.867   3.963   2.721 -0.7380 -1.1725 -0.9157
  185DG     H14 4246   3.790   3.952   2.865  0.7942  1.3730 -0.4697
  185DG     H15 4247   3.455   3.591   2.923  1.0855  1.0198  0.5396
  185DG     H16 4248   3.475   3.442   2.824  2.0771  0.0158 -1.2142
  185DG     C17 4249   3.716   3.796   2.735  0.1393  0.4936  0.3883
  185DG     C18 4250   3.624   3.582   2.784 -0.1504  0.5144  0.6733
  185DG     O19 4251   3.676   3.702   2.836  0.0847 -0.4151  0.1215
  185DG     H20 4252   3.751   3.744   2.646  0.5897  0.6832  0.4559
  185DG     H21 4253   3.633   3.861   2.708 -0.3068  0.7595  2.2404
  185DG     H22 4254   3.703   3.516   2.747  1.1781  1.9476  0.8351
  185DG     H23 4255   3.559   3.601   2.699  0.2523 -0.6587  0.0732
  186DG      C1 4256   2.904   3.269   2.530  0.0378  0.1451 -0.7496
  186DG      C2 4257   2.673   3.682   2.119  0.1681  0.0310 -0.3956
  186DG      H3 4258   2.980   3.269   2.452  0.3975  0.8483 -0.4090
  186DG      H4 4259   2.864   3.168   2.522 -1.4250  0.7655 -1.8126
  186DG      H5 4260   2.952   3.291   2.625 -0.6786 -0.3096 -0.2783
  186DG      H6 4261   2.609   3.758   2.164 -1.0842 -1.8713  1.2040
  186DG      H7 4262   2.778   3.706   2.103 -0.0486 -1.3009 -6.2148
  186DG      H8 4263   2.635   3.673   2.017 -1.2388  1.9531 -0.0957
  186DG      O9 4264   2.795   3.362   2.508 -0.2089  0.7862 -0.0137
  186DG     O10 4265   2.658   3.555   2.185 -0.1222  0.0812  0.3604
  186DG     C11 4266   2.674   3.317   2.576  0.8347 -0.4438  0.7490
  186DG     C12 4267   2.529   3.497   2.208 -0.5604 -0.1157 -0.3577
  186DG     H13 4268   2.689   3.293   2.681 -0.5529 -0.4685  0.9616
  186DG     H14 4269   2.643   3.223   2.530  1.1241 -0.5292  0.7227
  186DG     H15 4270   2.501   3.430   2.126  0.2869  1.4096 -1.9739
  186DG     H16 4271   2.449   3.571   2.210  0.4263  1.0243 -1.3673
  186DG     C17 4272   2.572   3.426   2.556 -0.5294 -0.0791 -0.3647
  186DG     C18 4273   2.528   3.408   2.333 -0.8636 -0.1917 -0.1396
  186DG     O19 4274   2.578   3.490   2.434  0.2434 -0.1615  0.1826
  186DG     H20 4275   2.605   3.504   2.625 -0.3294 -0.0871 -0.4521
  186DG     H21 4276   2.469   3.412   2.587 -0.8651 -1.2985 -1.8764
  186DG     H22 4277   2.424   3.380   2.355 -0.6770  0.8871  2.3033
  186DG     H23 4278   2.582   3.314   2.319 -0.0807  0.2834 -0.3269
  187DG      C1 4279   4.698   4.829   2.374 -0.4956  0.3945  0.4292
  187DG      C2 4280   4.950   4.953   2.987 -0.9768 -0.2879 -0.0362
  187DG      H3 4281   4.681   4.736   2.428 -3.9250  1.5127  1.4923
  187DG      H4 4282   4.799   4.834   2.333 -0.8663  0.7206 -0.4744
  187DG      H5 4283   4.615   4.837   2.303 -0.6558 -1.5907  0.3357
  187DG      H6 4284   4.983   5.053   3.012 -1.5079 -0.6560  2.4637
  187DG      H7 4285   4.928   4.896   3.078  0.7828 -2.9223 -1.1452
  187DG      H8 4286   5.037   4.902   2.945  0.7079 -0.1438  3.0070
  187DG      O9 4287   4.696   4.944   2.464  0.5319  0.0799  0.3898
  187DG     O10 4288   4.842   4.963   2.898  0.4693  0.0884  0.0944
  187DG     C11 4289   4.565   4.956   2.527  0.4765  0.0953  0.2019
  187DG     C12 4290   4.719   4.994   2.951  0.8547 -0.3427 -0.0065
  187DG     H13 4291   4.545   4.866   2.585 -1.3314  0.9856  1.0503
  187DG     H14 4292   4.490   4.968   2.449  0.8662  2.2181  0.0975
  187DG     H15 4293   4.715   5.090   3.002  0.4676  0.0179 -0.7070
  187DG     H16 4294   4.696   4.923   3.031  3.1407 -0.9710  0.1640
  187DG     C17 4295   4.562   5.076   2.622 -0.2269  0.0327 -0.6981
  187DG     C18 4296   4.609   4.983   2.844 -0.3079 -0.4098 -0.2876
  187DG     O19 4297   4.653   5.064   2.740 -0.5587  0.0231 -0.2061
  187DG     H20 4298   4.462   5.089   2.664  1.0864  0.1272  2.7085
  187DG     H21 4299   4.596   5.167   2.573 -0.2845  1.3261  1.5493
  187DG     H22 4300   4.608   4.880   2.809  1.8096 -1.0595  1.3290
  187DG     H23 4301   4.506   5.010   2.869  0.0178 -0.2248  0.9496
  188DG      C1 4302   5.218   3.515   2.200  0.4001 -0.9206 -0.2850
  188DG      C2 4303   5.432   3.189   2.688 -0.1056  0.2876 -0.1828
  188DG      H3 4304   5.155   3.583   2.143  0.9406 -2.2365 -2.5643
  188DG      H4 4305   5.261   3.441   2.132 -2.4691 -1.8432 -1.2302
  188DG      H5 4306   5.303   3.570   2.240  0.1365  0.0362 -1.0009
  188DG      H6 4307   5.492   3.110   2.641  0.3364 -0.2913  1.3187
  188DG      H7 4308   5.484   3.284   2.697  0.5832  0.0483 -1.3721
  188DG      H8 4309   5.411   3.155   2.789  0.0208 -0.0398 -0.2660
  188DG      O9 4310   5.145   3.455   2.307 -0.1953 -0.3664 -0.0529
  188DG     O10 4311   5.311   3.213   2.622 -0.0199  0.1974 -0.4495
  188DG     C11 4312   5.044   3.364   2.255 -0.0527  0.1269 -0.2893
  188DG     C12 4313   5.232   3.100   2.609  0.4854  0.1909 -0.1870
  188DG     H13 4314   5.081   3.308   2.169  1.1024 -1.1452  0.9701
  188DG     H14 4315   4.960   3.430   2.235  0.3072  1.0960  1.2033
  188DG     H15 4316   5.204   3.052   2.703 -0.7873  1.9183  0.3579
  188DG     H16 4317   5.277   3.024   2.545 -1.2454 -0.3162 -0.8844
  188DG     C17 4318   5.014   3.277   2.382 -0.3904  1.1225 -0.0337
  188DG     C18 4319   5.105   3.141   2.541  0.2071  0.3139 -0.4052
  188DG     O19 4320   5.138   3.226   2.434  0.5230 -0.3858  0.1127
  188DG     H20 4321   4.947   3.195   2.353  2.7611 -0.7799 -2.7454
  188DG     H21 4322   4.969   3.344   2.454 -0.3225  2.9433 -1.6147
  188DG     H22 4323   5.036   3.059   2.519 -1.8399  1.4318  1.5172
  188DG     H23 4324   5.059   3.208   2.613  0.8724 -0.4079  0.7138
  189DG      C1 4325   4.588   0.107   4.471  0.4661  0.1715 -0.4013
  189DG      C2 4326   4.949  -0.373   4.836  0.2837 -0.1515 -0.0073
  189DG      H3 4327   4.578   0.171   4.559 -0.9501 -0.0403 -0.3777
  189DG      H4 4328   4.498   0.119   4.411 -0.3261 -0.7327  0.5620
  189DG      H5 4329   4.668   0.145   4.408 -1.4450  2.8374 -1.4218
  189DG      H6 4330   4.937  -0.472   4.880  2.4232 -0.6495 -0.4307
  189DG      H7 4331   5.041  -0.372   4.776  0.5195 -0.6194  0.3392
  189DG      H8 4332   4.979  -0.304   4.914  0.2680 -0.1973  0.0393
  189DG      O9 4333   4.590  -0.025   4.519  0.5642 -0.4004 -0.0476
  189DG     O10 4334   4.831  -0.330   4.771 -0.1692  0.7211 -0.4482
  189DG     C11 4335   4.472  -0.054   4.594 -0.3142 -0.0207  0.1621
  189DG     C12 4336   4.726  -0.333   4.863 -0.2258 -0.0158 -0.0233
  189DG     H13 4337   4.381  -0.042   4.536  0.4944  2.4080 -0.7182
  189DG     H14 4338   4.469   0.013   4.680  0.9416  0.4288 -0.1187
  189DG     H15 4339   4.732  -0.237   4.914  1.4290  0.1880 -0.5430
  189DG     H16 4340   4.719  -0.411   4.939 -2.7289 -0.5288 -0.6937
  189DG     C17 4341   4.473  -0.197   4.645 -0.2349 -1.0857  0.5426
  189DG     C18 4342   4.595  -0.327   4.792  0.8288  0.4057  0.1423
  189DG     O19 4343   4.585  -0.201   4.734  0.4841 -1.1021 -0.1349
  189DG     H20 4344   4.468  -0.271   4.564  2.0986 -1.6167  0.8237
  189DG     H21 4345   4.388  -0.215   4.711 -0.7873  0.2854  0.2435
  189DG     H22 4346   4.590  -0.410   4.721  0.3169  0.2440  0.3618
  189DG     H23 4347   4.508  -0.332   4.857  0.3544  1.2275 -0.4081
  190DG      C1 4348   0.740   4.682   3.027 -0.0699 -0.2036  0.2542
  190DG      C2 4349   0.299   4.217   3.404  0.2500 -0.0140 -0.2174
  190DG      H3 4350   0.686   4.725   2.942  0.2156 -0.1716  0.0862
  190DG      H4 4351   0.820   4.626   2.977 -2.5806 -0.4648 -3.9378
  190DG      H5 4352   0.776   4.773   3.076 -1.3045  1.2074 -1.3501
  190DG      H6 4353   0.225   4.187   3.330 -1.5892  0.3743  1.3535
  190DG      H7 4354   0.388   4.153   3.408 -0.4663 -0.9986  0.7958
  190DG      H8 4355   0.243   4.196   3.496 -0.2801  0.2109 -0.4899
  190DG      O9 4356   0.657   4.595   3.101 -0.0577 -0.0564  0.1587
  190DG     O10 4357   0.341   4.358   3.389 -0.0359  0.4917 -0.3281
  190DG     C11 4358   0.555   4.674   3.159  0.3720 -0.1050  0.4394
  190DG     C12 4359   0.418   4.404   3.493 -0.3236 -0.2909 -0.3233
  190DG     H13 4360   0.494   4.723   3.083  1.8228 -0.5158 -1.0739
  190DG     H14 4361   0.600   4.747   3.226  1.3398 -0.4734  0.2154
  190DG     H15 4362   0.516   4.362   3.512 -0.0627  1.2493  2.4482
  190DG     H16 4363   0.358   4.394   3.584 -0.1661  0.8572 -0.0705
  190DG     C17 4364   0.462   4.587   3.245 -0.3789 -0.3794 -0.3748
  190DG     C18 4365   0.446   4.554   3.476 -0.2371 -0.1213  0.8393
  190DG     O19 4366   0.531   4.579   3.366  0.4099  0.6611 -0.4135
  190DG     H20 4367   0.437   4.495   3.192 -0.2180 -0.1236 -0.9002
  190DG     H21 4368   0.368   4.641   3.257 -2.0804 -2.1099 -4.1411
  190DG     H22 4369   0.356   4.615   3.475  0.8986  1.6224  0.7626
  190DG     H23 4370   0.508   4.598   3.553  1.2488 -0.2063 -0.2617
  191DG      C1 4371   0.989   5.184   3.688  0.4318 -0.4349  0.0174
  191DG      C2 4372   0.851   4.736   4.054 -0.3687  0.3344 -0.3291
  191DG      H3 4373   1.077   5.126   3.664  1.4631  0.0460  2.3626
  191DG      H4 4374   1.018   5.243   3.775 -2.3851  1.2895 -0.0822
  191DG      H5 4375   0.965   5.259   3.613 -1.6655 -0.6645  0.3969
  191DG      H6 4376   0.953   4.753   4.090 -0.1540 -0.3834 -0.5686
  191DG      H7 4377   0.785   4.819   4.080 -1.1274 -0.2326 -0.4200
  191DG      H8 4378   0.799   4.663   4.116 -0.4155  0.0793 -0.6663
  191DG      O9 4379   0.875   5.108   3.726  0.5260  0.3196 -0.3852
  191DG     O10 4380   0.846   4.703   3.916 -0.7310 -0.1027 -0.3240
  191DG     C11 4381   0.779   5.087   3.627 -0.4166 -0.0145 -0.3552
  191DG     C12 4382   0.723   4.682   3.855  0.6969 -0.3439  0.5338
  191DG     H13 4383   0.806   5.022   3.544  1.7622 -1.1777  1.1874
  191DG     H14 4384   0.740   5.184   3.595  0.4675  0.3453 -0.3532
  191DG     H15 4385   0.657   4.621   3.916  2.3387 -0.5131  2.2428
  191DG     H16 4386   0.725   4.626   3.761  0.3525  0.1320  0.2389
  191DG     C17 4387   0.667   5.001   3.689  0.1915  0.0259  0.0317
  191DG     C18 4388   0.656   4.811   3.825 -0.7581 -0.4530 -0.1554
  191DG     O19 4389   0.740   4.885   3.741 -0.1103 -0.1961 -0.0218
  191DG     H20 4390   0.601   4.976   3.606  2.0227  0.1210 -1.5255
  191DG     H21 4391   0.609   5.064   3.756 -0.9266  2.1681 -2.7016
  191DG     H22 4392   0.566   4.781   3.771 -0.1372 -0.0833 -1.4494
  191DG     H23 4393   0.617   4.859   3.915  1.0491  1.4337 -0.3175
  192DG      C1 4394   0.707   1.181   0.558  0.0031  0.0508 -0.0691
  192DG      C2 4395  -0.048   1.190   0.181 -0.3595  0.0544 -0.1314
  192DG      H3 4396   0.755   1.272   0.593  0.5060 -0.1805 -0.1399
  192DG      H4 4397   0.733   1.170   0.453  0.8914 -1.3279  0.2540
  192DG      H5 4398   0.733   1.083   0.598  0.6789  0.4110  0.3982
  192DG      H6 4399  -0.054   1.274   0.251  0.4761 -0.8026  1.0005
  192DG      H7 4400  -0.025   1.248   0.092 -1.2517 -0.6029 -0.8007
  192DG      H8 4401  -0.148   1.147   0.174 -0.4953  0.3645 -0.1303
  192DG      O9 4402   0.567   1.204   0.568 -0.2703  0.1016  0.2596
  192DG     O10 4403   0.057   1.102   0.215 -0.8001  0.1777 -0.0407
  192DG     C11 4404   0.524   1.331   0.530  0.3706 -0.9499  0.2590
  192DG     C12 4405   0.194   1.146   0.237  0.3872  0.0350  0.2772
  192DG     H13 4406   0.583   1.344   0.439 -0.6257 -3.2388 -0.7792
  192DG     H14 4407   0.540   1.399   0.613  0.9935 -1.0400  0.2187
  192DG     H15 4408   0.223   1.197   0.145  0.7306 -0.2071  0.2513
  192DG     H16 4409   0.255   1.056   0.233 -0.6782 -0.6335 -2.2174
  192DG     C17 4410   0.375   1.320   0.501 -0.1815 -0.8666  0.4280
  192DG     C18 4411   0.219   1.222   0.364  1.6769 -0.6360 -0.1602
  192DG     O19 4412   0.361   1.238   0.390 -0.3624 -0.5581 -0.2554
  192DG     H20 4413   0.324   1.415   0.481 -0.8723 -0.8781  1.9872
  192DG     H21 4414   0.320   1.269   0.580  0.1818 -2.4390 -0.2915
  192DG     H22 4415   0.175   1.320   0.345 -0.3770 -1.1921  1.4183
  192DG     H23 4416   0.160   1.175   0.442  1.5998  1.2464  0.9905
  193DG      C1 4417   0.402   3.693   1.427 -0.0005  0.3499 -0.1601
  193DG      C2 4418   0.528   4.249   1.307 -0.3168  0.3825  0.3987
  193DG      H3 4419   0.501   3.648   1.417  0.8077  2.3236 -1.5703
  193DG      H4 4420   0.337   3.606   1.414 -1.3762  1.5159 -1.4508
  193DG      H5 4421   0.401   3.724   1.531  3.1393 -0.8991  0.3609
  193DG      H6 4422   0.632   4.279   1.294  0.0151 -0.4379  1.0294
  193DG      H7 4423   0.510   4.240   1.414  1.2369  0.9945  0.7534
  193DG      H8 4424   0.518   4.149   1.264 -4.2167  1.4911 -1.6835
  193DG      O9 4425   0.378   3.803   1.332  0.1482 -0.0972 -0.4309
  193DG     O10 4426   0.445   4.328   1.230  0.2833 -0.0916 -0.3046
  193DG     C11 4427   0.254   3.860   1.370 -0.4586 -0.3564 -0.2767
  193DG     C12 4428   0.307   4.322   1.263 -0.4938 -0.3984 -0.8443
  193DG     H13 4429   0.256   3.907   1.469 -0.9438 -0.4488 -0.2218
  193DG     H14 4430   0.178   3.783   1.365 -1.9967  1.1747 -1.3290
  193DG     H15 4431   0.251   4.397   1.207  0.7728  0.1101 -1.4686
  193DG     H16 4432   0.286   4.333   1.370 -0.1941 -1.5085 -0.6509
  193DG     C17 4433   0.220   3.972   1.270  0.5596  0.5642 -0.1675
  193DG     C18 4434   0.239   4.198   1.220 -0.2347 -0.1047 -0.3222
  193DG     O19 4435   0.293   4.085   1.297 -0.5331 -0.1392  0.2694
  193DG     H20 4436   0.114   3.993   1.286  0.3171  0.8991 -1.9868
  193DG     H21 4437   0.226   3.939   1.166  2.0151 -0.9384  0.3360
  193DG     H22 4438   0.135   4.207   1.251 -0.0696  1.5988 -0.1667
  193DG     H23 4439   0.220   4.188   1.114  0.7313 -0.8044 -0.4349
  194DG      C1 4440   2.266   2.196   4.703  0.6199  0.3199  0.4372
  194DG      C2 4441   2.246   1.957   4.049 -0.4328 -0.3593 -0.1975
  194DG      H3 4442   2.206   2.117   4.749 -1.0873 -0.9358 -3.4791
  194DG      H4 4443   2.257   2.285   4.765 -0.1274 -0.8135  2.0376
  194DG      H5 4444   2.370   2.164   4.708  0.5327 -0.0976 -0.2723
  194DG      H6 4445   2.250   1.849   4.060 -1.0268 -0.3747 -0.1039
  194DG      H7 4446   2.185   1.981   3.962 -1.5562 -0.2830  0.5923
  194DG      H8 4447   2.353   1.974   4.037  0.0372 -1.2578  2.1754
  194DG      O9 4448   2.213   2.215   4.568  0.7043  0.2552  0.0644
  194DG     O10 4449   2.188   2.015   4.166 -0.0863 -0.0045  0.1951
  194DG     C11 4450   2.069   2.220   4.556  0.6023  0.0697  0.0030
  194DG     C12 4451   2.053   1.974   4.181  0.0485  0.4136  0.0403
  194DG     H13 4452   2.055   2.283   4.468 -1.2847 -0.2736  0.0217
  194DG     H14 4453   2.017   2.268   4.639  1.0227  0.8379 -0.1668
  194DG     H15 4454   2.058   1.871   4.217  0.1401 -0.3690 -2.0593
  194DG     H16 4455   1.992   1.978   4.092  0.3141 -0.3252 -0.1873
  194DG     C17 4456   2.006   2.085   4.533  0.0093  0.4986 -0.6014
  194DG     C18 4457   1.999   2.059   4.294  0.3684 -0.5231 -0.0465
  194DG     O19 4458   2.064   2.019   4.413  0.0346  0.2195  0.2671
  194DG     H20 4459   1.898   2.092   4.526 -0.1101  1.0405  1.2134
  194DG     H21 4460   2.019   2.029   4.626 -0.0950  1.7824  0.2149
  194DG     H22 4461   2.024   2.160   4.264 -1.2004  0.8082  2.7531
  194DG     H23 4462   1.890   2.060   4.299  0.3356  2.5910  0.4421
  195DG      C1 4463   3.277   0.162   3.719 -0.5451 -0.0140 -0.4171
  195DG      C2 4464   3.060   0.151   3.127  0.2275 -0.1209 -0.5685
  195DG      H3 4465   3.239   0.258   3.755  2.7219  1.0398  0.5536
  195DG      H4 4466   3.353   0.166   3.642  0.7438 -1.5602  0.7103
  195DG      H5 4467   3.322   0.130   3.813 -0.4644  1.1582 -0.0383
  195DG      H6 4468   3.164   0.186   3.131  0.5515 -1.1033  2.5695
  195DG      H7 4469   3.037   0.109   3.029 -0.7187 -0.6358 -0.1362
  195DG      H8 4470   2.996   0.238   3.137 -2.8346 -2.2165 -0.5778
  195DG      O9 4471   3.173   0.085   3.664 -0.7460 -0.1240 -0.4003
  195DG     O10 4472   3.035   0.064   3.237 -0.2524  0.3798 -0.0893
  195DG     C11 4473   3.196  -0.056   3.679  1.3738 -0.0748  0.6333
  195DG     C12 4474   3.090  -0.064   3.213  0.1640 -0.0607  0.4508
  195DG     H13 4475   3.171  -0.082   3.781 -1.1131 -3.7322 -0.6878
  195DG     H14 4476   3.300  -0.075   3.651  1.6255  1.2979  0.5644
  195DG     H15 4477   3.194  -0.061   3.178 -0.3765 -2.6991 -1.7034
  195DG     H16 4478   3.033  -0.114   3.135  0.4138  1.3489 -0.6798
  195DG     C17 4479   3.108  -0.128   3.580 -0.4744 -0.0010  0.1569
  195DG     C18 4480   3.088  -0.138   3.348  0.3042 -0.0667 -0.0269
  195DG     O19 4481   3.120  -0.058   3.454  0.1855 -0.2548  0.0207
  195DG     H20 4482   3.002  -0.137   3.601 -0.5406 -1.3790 -0.6456
  195DG     H21 4483   3.148  -0.230   3.574 -0.1376  0.1462 -0.1740
  195DG     H22 4484   2.989  -0.183   3.353  0.9511 -1.4725  0.5329
  195DG     H23 4485   3.164  -0.215   3.332  0.0494 -0.1866 -0.6908
  196DG      C1 4486   2.359   3.856   3.780 -0.8195 -0.0980  0.0419
  196DG      C2 4487   1.968   3.347   4.067 -0.2409 -0.5423 -0.4513
  196DG      H3 4488   2.433   3.777   3.771  0.0722  0.9481 -3.7899
  196DG      H4 4489   2.368   3.905   3.876 -2.7733 -0.1611  0.2965
  196DG      H5 4490   2.394   3.929   3.707  0.4995 -0.0672  0.6856
  196DG      H6 4491   1.876   3.372   4.121  0.3571  0.7910 -0.0100
  196DG      H7 4492   1.930   3.261   4.011 -0.8135  0.3261 -1.4349
  196DG      H8 4493   2.034   3.296   4.136 -0.5039 -1.2498 -0.7069
  196DG      O9 4494   2.229   3.807   3.755 -0.2936 -0.0645  0.1107
  196DG     O10 4495   2.008   3.463   3.993  0.4352 -0.4944  0.2860
  196DG     C11 4496   2.135   3.913   3.761 -0.0317 -0.3718  0.0050
  196DG     C12 4497   1.904   3.511   3.907  0.3296  0.0911  0.0930
  196DG     H13 4498   2.150   3.977   3.674 -1.0674  1.1040  0.8668
  196DG     H14 4499   2.140   3.966   3.856  1.5192  1.7866 -1.2099
  196DG     H15 4500   1.826   3.563   3.962  0.0652  1.6130 -1.6354
  196DG     H16 4501   1.863   3.424   3.855  1.8166  0.8088 -2.4435
  196DG     C17 4502   2.004   3.832   3.749 -0.4549 -0.3698 -0.0055
  196DG     C18 4503   1.960   3.603   3.807 -0.4075 -1.0520 -0.3067
  196DG     O19 4504   2.001   3.731   3.852  0.4517  0.0240 -0.5500
  196DG     H20 4505   1.983   3.796   3.648  0.8062  0.8032 -0.7237
  196DG     H21 4506   1.929   3.908   3.772 -1.5157 -1.5008  0.3304
  196DG     H22 4507   2.045   3.553   3.761  0.6524 -0.8494  1.3383
  196DG     H23 4508   1.889   3.616   3.726  1.1768  1.4310 -1.3939
  197DG      C1 4509   3.394   2.497   4.304 -0.3397 -0.1532 -0.1616
  197DG      C2 4510   3.231   3.036   4.481  0.9047 -0.4405 -0.0654
  197DG      H3 4511   3.308   2.441   4.269 -1.0560  1.5727 -1.2385
  197DG      H4 4512   3.479   2.429   4.310 -0.3817 -0.1879  0.0561
  197DG      H5 4513   3.432   2.578   4.242  0.0917 -0.3580 -0.1701
  197DG      H6 4514   3.221   3.037   4.373  0.9260 -0.6391 -0.0699
  197DG      H7 4515   3.138   3.072   4.524  1.5659  3.0712 -1.2228
  197DG      H8 4516   3.295   3.121   4.505  0.4147 -0.1977  0.4029
  197DG      O9 4517   3.357   2.552   4.430  0.3479 -0.1642 -0.7221
  197DG     O10 4518   3.276   2.913   4.544 -0.5509 -0.0669 -0.2170
  197DG     C11 4519   3.350   2.464   4.536  0.2443  0.1477  0.3053
  197DG     C12 4520   3.270   2.910   4.684  0.4137  0.1083 -0.3080
  197DG     H13 4521   3.431   2.391   4.536 -0.7504 -1.0635  2.7364
  197DG     H14 4522   3.270   2.396   4.505  0.9351  0.3814 -2.1799
  197DG     H15 4523   3.164   2.906   4.713  0.7217 -2.3781  0.7377
  197DG     H16 4524   3.298   2.998   4.741  0.8609 -0.9357  1.1504
  197DG     C17 4525   3.352   2.548   4.664 -0.7135  0.2905  0.2894
  197DG     C18 4526   3.335   2.777   4.734  0.1400  0.1594 -0.4910
  197DG     O19 4527   3.288   2.674   4.645 -0.2501 -0.1972  0.5077
  197DG     H20 4528   3.457   2.565   4.686 -0.8952 -0.2265  1.6317
  197DG     H21 4529   3.310   2.487   4.743  0.6753 -0.0189  0.8076
  197DG     H22 4530   3.444   2.781   4.737  0.1789 -1.2050  1.0977
  197DG     H23 4531   3.317   2.749   4.838  3.2481 -0.1659  0.0623
  198DG      C1 4532   3.482   3.706   3.849 -0.4332  0.1820  0.1698
  198DG      C2 4533   3.470   3.171   4.188  0.0878 -0.5253 -0.5484
  198DG      H3 4534   3.444   3.731   3.751  0.8890  0.0477 -0.3947
  198DG      H4 4535   3.577   3.760   3.852 -0.6359  0.6412 -1.0955
  198DG      H5 4536   3.411   3.748   3.920 -0.4336 -0.0036  0.2824
  198DG      H6 4537   3.577   3.180   4.208 -0.0575  1.1685 -0.3823
  198DG      H7 4538   3.407   3.232   4.253 -0.4594 -0.7045 -0.9125
  198DG      H8 4539   3.436   3.075   4.227  3.8256 -2.6337 -1.9315
  198DG      O9 4540   3.489   3.565   3.870 -0.2629  0.6121  0.2338
  198DG     O10 4541   3.432   3.203   4.055 -0.1356 -0.8551  0.0353
  198DG     C11 4542   3.545   3.490   3.761  0.4291  0.0387 -0.2432
  198DG     C12 4543   3.466   3.107   3.960  0.8396 -0.3154 -0.2943
  198DG     H13 4544   3.646   3.527   3.743  1.0586 -0.8374  1.2897
  198DG     H14 4545   3.482   3.503   3.673 -0.7245 -3.1937 -0.0453
  198DG     H15 4546   3.428   3.009   3.991  1.3564  0.3904  2.9071
  198DG     H16 4547   3.574   3.093   3.949  1.1815  0.7563  1.3193
  198DG     C17 4548   3.550   3.335   3.786 -0.0330 -0.4439 -0.3543
  198DG     C18 4549   3.414   3.148   3.831 -0.7347  0.1821  0.4623
  198DG     O19 4550   3.420   3.281   3.803 -0.0729  0.4597  0.1332
  198DG     H20 4551   3.616   3.324   3.872 -0.9879  0.8865  0.5920
  198DG     H21 4552   3.608   3.298   3.701  2.8820  0.2787  1.1775
  198DG     H22 4553   3.462   3.088   3.754 -1.3624  1.0487 -0.6377
  198DG     H23 4554   3.312   3.117   3.808 -0.8031  0.5379  0.2694
  199DG      C1 4555   3.354   5.265   0.409  0.2639 -0.2610  0.3153
  199DG      C2 4556   3.307   5.940   0.852  0.3078  0.1443  0.3064
  199DG      H3 4557   3.415   5.224   0.328  0.0640 -0.8234  0.4461
  199DG      H4 4558   3.250   5.274   0.377  0.6810  2.1606 -0.5581
  199DG      H5 4559   3.337   5.187   0.483 -2.1010  1.6022  1.8922
  199DG      H6 4560   3.414   5.953   0.843  0.5450 -1.4254  0.5782
  199DG      H7 4561   3.260   6.037   0.836  2.4499  1.0737 -0.6005
  199DG      H8 4562   3.284   5.903   0.952  0.1036 -0.7729 -0.0653
  199DG      O9 4563   3.408   5.380   0.468  0.3810  0.1687  0.0446
  199DG     O10 4564   3.272   5.847   0.752  0.6748  0.2819  0.4625
  199DG     C11 4565   3.333   5.415   0.582  0.4892 -0.3841  0.1553
  199DG     C12 4566   3.136   5.807   0.760  0.0847 -0.1811 -0.0925
  199DG     H13 4567   3.408   5.461   0.647 -0.1393 -0.8101  1.2055
  199DG     H14 4568   3.297   5.342   0.654  1.3813 -0.8707  0.1218
  199DG     H15 4569   3.068   5.887   0.731  1.8705  1.3816 -0.1687
  199DG     H16 4570   3.124   5.765   0.860  0.3592  0.5372  0.2505
  199DG     C17 4571   3.226   5.526   0.557 -0.0667 -0.1167  0.2293
  199DG     C18 4572   3.109   5.697   0.658  0.2529  0.5229  0.4586
  199DG     O19 4573   3.201   5.591   0.676 -0.0110  0.2254  0.3535
  199DG     H20 4574   3.134   5.480   0.524  1.2564 -2.2174 -0.7288
  199DG     H21 4575   3.267   5.591   0.479 -2.6154  0.7167 -0.5050
  199DG     H22 4576   3.004   5.672   0.672 -0.5400 -1.2143 -5.7664
  199DG     H23 4577   3.114   5.746   0.561 -2.1878  3.9036  1.8281
  200DG      C1 4578   1.685   3.399   1.287  0.5192 -0.8108  0.1668
  200DG      C2 4579   2.025   2.896   1.500 -0.0859 -0.2541 -0.1905
  200DG      H3 4580   1.657   3.485   1.226 -0.4813 -0.8117  0.6069
  200DG      H4 4581   1.729   3.441   1.378  1.2396 -1.5990  0.1962
  200DG      H5 4582   1.592   3.351   1.317  0.0643 -0.3202 -0.4298
  200DG      H6 4583   2.107   2.846   1.448  0.6599  0.1665  0.5554
  200DG      H7 4584   2.031   2.886   1.608  2.3024  1.7544 -0.0519
  200DG      H8 4585   1.931   2.851   1.467  0.0401 -0.7861  0.1561
  200DG      O9 4586   1.775   3.312   1.216 -0.4548  0.0641 -0.4456
  200DG     O10 4587   2.027   3.037   1.468  0.1314 -0.0445  0.2342
  200DG     C11 4588   1.885   3.384   1.166  0.3961 -0.2267  0.0002
  200DG     C12 4589   2.151   3.093   1.444  0.2555 -0.3174  0.3730
  200DG     H13 4590   1.867   3.482   1.124 -0.4148 -0.3342  0.0712
  200DG     H14 4591   1.926   3.335   1.077  0.7129  2.3303 -1.3416
  200DG     H15 4592   2.203   3.051   1.358  2.9352  0.6115  1.4088
  200DG     H16 4593   2.216   3.072   1.530  0.7019 -2.3402 -0.4080
  200DG     C17 4594   1.995   3.386   1.277 -0.0546  0.1132 -0.2612
  200DG     C18 4595   2.125   3.244   1.426  0.1573  0.4814  0.3454
  200DG     O19 4596   2.044   3.256   1.304  0.0480 -0.1532 -0.4692
  200DG     H20 4597   1.941   3.432   1.360  1.1332  2.8605 -0.9282
  200DG     H21 4598   2.073   3.456   1.248 -0.2777  0.2887 -0.4386
  200DG     H22 4599   2.065   3.284   1.508 -0.5854  0.6511 -0.2696
  200DG     H23 4600   2.221   3.294   1.409  0.5483 -0.4910 -0.4115
  201DG      C1 4601   2.087   3.743   0.447  0.3571 -0.0016 -0.2616
  201DG      C2 4602   2.535   3.511  -0.098  0.1466 -0.1727 -0.2622
  201DG      H3 4603   2.066   3.774   0.549 -1.6137 -0.6189 -0.4495
  201DG      H4 4604   2.092   3.635   0.439 -1.5017 -0.2746  1.5068
  201DG      H5 4605   2.010   3.791   0.386 -0.4345  0.2604  0.9055
  201DG      H6 4606   2.628   3.536  -0.150  0.1683 -0.8846 -0.5887
  201DG      H7 4607   2.516   3.408  -0.129  0.7568 -0.2342 -0.4615
  201DG      H8 4608   2.462   3.555  -0.165 -1.1298 -3.2568 -1.1018
  201DG      O9 4609   2.214   3.798   0.396  0.1240  0.1482 -0.2532
  201DG     O10 4610   2.527   3.546   0.040  0.4170 -0.1548 -0.0478
  201DG     C11 4611   2.326   3.772   0.479 -1.0110 -0.8602  0.6843
  201DG     C12 4612   2.570   3.680   0.063  0.0396  0.2219 -0.2856
  201DG     H13 4613   2.327   3.670   0.516  1.0568 -1.6665 -1.3139
  201DG     H14 4614   2.336   3.831   0.570 -1.8995 -1.1103  0.9526
  201DG     H15 4615   2.510   3.756   0.013 -2.5496 -1.6471 -0.1939
  201DG     H16 4616   2.667   3.688   0.013 -0.0430 -0.8031 -0.6368
  201DG     C17 4617   2.452   3.783   0.397 -0.3383 -0.1785 -0.8611
  201DG     C18 4618   2.576   3.726   0.210 -0.4179  0.3327 -0.3767
  201DG     O19 4619   2.457   3.711   0.278 -0.0778 -0.3801  0.1070
  201DG     H20 4620   2.536   3.767   0.464 -1.5901 -2.9987  0.2206
  201DG     H21 4621   2.453   3.887   0.366  0.8191 -0.0799 -0.5085
  201DG     H22 4622   2.652   3.670   0.265  0.1913 -0.2708 -1.8016
  201DG     H23 4623   2.624   3.823   0.220 -0.3367  0.3848 -1.2007
  202DG      C1 4624   0.490   3.155   2.456 -0.3984 -0.1950 -0.0686
  202DG      C2 4625   0.160   3.920   2.280 -0.2247  0.6664 -0.1841
  202DG      H3 4626   0.547   3.161   2.549  1.8582  0.6754 -1.4095
  202DG      H4 4627   0.517   3.067   2.398  1.3012  0.1183  0.2024
  202DG      H5 4628   0.385   3.151   2.486 -1.4931  1.7524 -3.1612
  202DG      H6 4629   0.200   4.009   2.232 -1.5590  0.9453 -0.8035
  202DG      H7 4630   0.071   3.891   2.224 -0.8488  0.2766  0.9785
  202DG      H8 4631   0.128   3.936   2.383  0.3647 -4.4616  1.0917
  202DG      O9 4632   0.533   3.273   2.395  0.0267 -0.0820  0.2906
  202DG     O10 4633   0.257   3.822   2.286 -0.0068 -0.0891 -0.2580
  202DG     C11 4634   0.491   3.393   2.456  0.2295 -0.0249  0.3068
  202DG     C12 4635   0.371   3.849   2.369 -0.1415 -0.0700  0.0968
  202DG     H13 4636   0.546   3.405   2.549 -0.2501  0.7408  0.5000
  202DG     H14 4637   0.386   3.402   2.484  0.8483  3.0480  2.0665
  202DG     H15 4638   0.346   3.842   2.475 -1.5035  0.1202 -0.1866
  202DG     H16 4639   0.414   3.949   2.367 -1.9795  0.7527 -0.0715
  202DG     C17 4640   0.513   3.509   2.362  0.1358 -0.2026 -0.3678
  202DG     C18 4641   0.476   3.741   2.358  0.2488  0.7117  0.1887
  202DG     O19 4642   0.426   3.617   2.407  0.7066 -0.4917 -0.4826
  202DG     H20 4643   0.486   3.474   2.263 -3.4370 -0.4236  0.5394
  202DG     H21 4644   0.617   3.544   2.360  0.9901 -2.5908 -0.8288
  202DG     H22 4645   0.514   3.739   2.255  2.1864  0.1512  0.8707
  202DG     H23 4646   0.560   3.769   2.422  0.6543 -1.2821  0.5842
  203DG      C1 4647   3.550   1.339   1.524 -0.1644 -0.3879 -0.0955
  203DG      C2 4648   2.890   1.542   1.357 -0.6546  0.2649  0.1546
  203DG      H3 4649   3.515   1.345   1.627 -0.2350  1.2175 -0.1984
  203DG      H4 4650   3.597   1.435   1.503  1.0105 -0.0787  3.3382
  203DG      H5 4651   3.622   1.257   1.513  0.5373  0.3194 -0.9707
  203DG      H6 4652   2.792   1.495   1.362  0.1372 -1.5121  0.1569
  203DG      H7 4653   2.893   1.592   1.454  1.2268  3.3848 -1.3530
  203DG      H8 4654   2.905   1.606   1.271 -0.5465 -0.4798 -0.3904
  203DG      O9 4655   3.433   1.305   1.451 -0.0565  1.1729 -0.1034
  203DG     O10 4656   2.993   1.437   1.347  0.0538 -0.2627 -0.0768
  203DG     C11 4657   3.456   1.259   1.322 -0.0282  0.0904  0.2546
  203DG     C12 4658   2.996   1.369   1.222  0.8549 -0.3081  0.0970
  203DG     H13 4659   3.517   1.169   1.326 -0.2885 -0.0592  0.9077
  203DG     H14 4660   3.503   1.333   1.256 -1.8803  0.3055 -0.8877
  203DG     H15 4661   3.006   1.447   1.147 -0.3427 -0.4144 -0.1976
  203DG     H16 4662   2.896   1.331   1.198  0.9589 -0.4513 -0.1142
  203DG     C17 4663   3.323   1.211   1.261 -0.5540 -0.3789 -0.3908
  203DG     C18 4664   3.098   1.254   1.207  0.1722  0.3520 -0.2097
  203DG     O19 4665   3.220   1.304   1.263 -0.1707 -0.3571  0.0996
  203DG     H20 4666   3.274   1.134   1.322 -0.2989  0.1834  0.5422
  203DG     H21 4667   3.350   1.176   1.161 -0.9183 -1.0042 -0.2813
  203DG     H22 4668   3.056   1.180   1.276 -1.2887  1.4511  0.1268
  203DG     H23 4669   3.117   1.216   1.106 -2.4469 -0.8020 -0.3400
  204DG      C1 4670   5.061   1.934   5.465 -0.2992 -0.0651 -0.1625
  204DG      C2 4671   4.333   1.509   5.489 -0.0512 -0.3280 -0.1962
  204DG      H3 4672   5.136   1.996   5.416  0.4073  0.2935  1.2924
  204DG      H4 4673   5.112   1.852   5.516 -3.0572 -0.7970  1.6307
  204DG      H5 4674   5.006   1.980   5.547 -0.1481 -0.5288  0.2071
  204DG      H6 4675   4.342   1.474   5.592  0.9078  1.5055  0.3843
  204DG      H7 4676   4.272   1.599   5.495  0.1098  0.0795 -3.1714
  204DG      H8 4677   4.280   1.433   5.431  1.1355 -0.5568 -1.0300
  204DG      O9 4678   4.973   1.889   5.359  0.0202 -0.4214  0.5179
  204DG     O10 4679   4.465   1.531   5.431 -0.1980 -0.4505  0.0337
  204DG     C11 4680   4.876   1.794   5.400 -0.0468  0.0437 -0.4756
  204DG     C12 4681   4.455   1.585   5.303 -0.3273 -0.3369 -0.4765
  204DG     H13 4682   4.822   1.856   5.472  1.2051  1.3287 -0.6035
  204DG     H14 4683   4.915   1.708   5.455 -0.6954 -0.2110 -0.4024
  204DG     H15 4684   4.383   1.667   5.297 -0.4484 -0.3041  1.1710
  204DG     H16 4685   4.413   1.514   5.232 -0.6764  1.5422 -2.2659
  204DG     C17 4686   4.780   1.766   5.287  0.1070 -0.6042  0.1334
  204DG     C18 4687   4.595   1.630   5.248  0.0807 -0.0616 -0.4914
  204DG     O19 4688   4.668   1.701   5.342  0.4486 -0.1191  0.2309
  204DG     H20 4689   4.821   1.707   5.205 -0.5557 -1.1343  0.1749
  204DG     H21 4690   4.734   1.852   5.241 -0.3310 -0.9047  0.0055
  204DG     H22 4691   4.647   1.538   5.220  0.4912  0.5400 -1.7816
  204DG     H23 4692   4.584   1.689   5.157 -0.0349 -3.8795 -3.1786
  205DG      C1 4693   4.379   5.387   3.868  0.0847 -0.2263  0.6099
  205DG      C2 4694   4.070   5.828   4.079 -0.0891 -0.5165  0.7900
  205DG      H3 4695   4.320   5.353   3.953  2.2709 -0.0991  2.2697
  205DG      H4 4696   4.487   5.373   3.880  0.4396 -0.7954 -2.4017
  205DG      H5 4697   4.344   5.329   3.783  0.4686 -0.7354  0.7926
  205DG      H6 4698   4.152   5.802   4.147  0.1240 -0.6925  0.4667
  205DG      H7 4699   4.037   5.924   4.119  0.4987  0.4866 -1.0309
  205DG      H8 4700   3.988   5.758   4.095  0.1033 -0.9718 -0.1427
  205DG      O9 4701   4.344   5.520   3.835 -0.3698 -0.9247 -0.5133
  205DG     O10 4702   4.110   5.846   3.941 -0.4760  0.1659 -0.1102
  205DG     C11 4703   4.434   5.582   3.741 -0.1287 -0.4909 -0.4339
  205DG     C12 4704   4.226   5.926   3.903 -0.0249 -0.2669 -0.0487
  205DG     H13 4705   4.412   5.539   3.643 -0.8766  0.6264 -0.7759
  205DG     H14 4706   4.540   5.559   3.751 -0.5699 -2.7258 -0.5034
  205DG     H15 4707   4.307   5.902   3.972  0.9178 -0.1301 -1.0830
  205DG     H16 4708   4.193   6.029   3.916 -1.4329 -0.5991 -0.8279
  205DG     C17 4709   4.431   5.736   3.752 -0.2327  1.2179  0.4622
  205DG     C18 4710   4.271   5.906   3.756 -0.3865 -0.0258 -0.5049
  205DG     O19 4711   4.296   5.771   3.732 -0.3796 -0.0229  0.3581
  205DG     H20 4712   4.494   5.783   3.677 -0.0616 -0.6939 -0.6426
  205DG     H21 4713   4.460   5.768   3.852  1.7996  0.8850  0.0039
  205DG     H22 4714   4.185   5.931   3.694 -0.4278 -0.2656 -0.5448
  205DG     H23 4715   4.349   5.970   3.715 -0.5519  0.6421  0.2039
  206DG      C1 4716   0.083   4.408   2.218  0.1125 -0.1245  0.1534
  206DG      C2 4717   0.460   4.847   1.754  0.3381 -0.0561  1.2053
  206DG      H3 4718  -0.023   4.397   2.196  0.0235 -0.6755  0.8303
  206DG      H4 4719   0.101   4.490   2.288 -0.6877  0.3493 -0.1758
  206DG      H5 4720   0.122   4.326   2.277  0.1619 -0.7892 -0.7841
  206DG      H6 4721   0.421   4.946   1.780 -1.5313 -0.2082 -0.7667
  206DG      H7 4722   0.565   4.847   1.782  0.6697 -0.4356  0.0030
  206DG      H8 4723   0.464   4.831   1.647 -0.3323  0.6944  1.0556
  206DG      O9 4724   0.143   4.447   2.097  0.3768  0.1770  0.0198
  206DG     O10 4725   0.384   4.744   1.813 -0.2572 -0.6510 -0.5087
  206DG     C11 4726   0.221   4.350   2.031  0.1796 -0.2984 -0.3365
  206DG     C12 4727   0.243   4.747   1.796 -0.0054  0.0971  0.1704
  206DG     H13 4728   0.145   4.289   1.982  1.8165 -0.7822 -2.4009
  206DG     H14 4729   0.272   4.278   2.094  0.3013 -1.1560 -1.3883
  206DG     H15 4730   0.221   4.720   1.692  0.0727 -1.3884  0.5258
  206DG     H16 4731   0.202   4.846   1.816 -2.0381 -0.4152 -1.0520
  206DG     C17 4732   0.311   4.426   1.931 -0.1519 -0.2281 -0.3047
  206DG     C18 4733   0.185   4.632   1.880 -0.6608 -0.0734  0.4368
  206DG     O19 4734   0.235   4.501   1.839 -0.0683  0.8672  0.7747
  206DG     H20 4735   0.377   4.349   1.890  2.7604  2.0605 -0.3188
  206DG     H21 4736   0.375   4.497   1.984 -0.5061 -0.9806  1.1698
  206DG     H22 4737   0.201   4.646   1.987 -0.6432  0.7465  0.3372
  206DG     H23 4738   0.077   4.644   1.870 -0.3658  3.0057 -0.2283
  207DG      C1 4739   1.197   1.781   4.038  0.0569  0.6880 -0.3869
  207DG      C2 4740   1.452   0.960   4.006 -0.1875  0.7891  0.0881
  207DG      H3 4741   1.158   1.770   4.139  1.4839 -0.9032  0.0456
  207DG      H4 4742   1.115   1.789   3.966 -4.2312 -2.8197  3.4396
  207DG      H5 4743   1.244   1.879   4.030 -1.1612  1.3093 -0.1924
  207DG      H6 4744   1.383   0.967   3.921  0.7567  0.0723 -0.7566
  207DG      H7 4745   1.514   0.876   3.978 -1.3337  0.3916 -1.3810
  207DG      H8 4746   1.393   0.929   4.092  0.2268  0.1136  0.1325
  207DG      O9 4747   1.276   1.672   3.993 -0.0690  0.1235  0.3920
  207DG     O10 4748   1.518   1.079   4.023  0.3671  0.2211 -0.2245
  207DG     C11 4749   1.398   1.661   4.067 -0.5203  0.1779 -0.5510
  207DG     C12 4750   1.435   1.191   4.049  0.3630 -0.1370 -0.0002
  207DG     H13 4751   1.387   1.662   4.176  0.7004 -1.8710 -0.3611
  207DG     H14 4752   1.463   1.747   4.052  2.1547 -1.3228  1.3530
  207DG     H15 4753   1.370   1.173   4.135 -1.9537 -0.7360 -1.7894
  207DG     H16 4754   1.379   1.217   3.960  2.0826  3.6273 -0.1441
  207DG     C17 4755   1.467   1.538   4.026 -0.6555  0.4149  0.5075
  207DG     C18 4756   1.524   1.315   4.068 -0.6286 -0.2875  0.2215
  207DG     O19 4757   1.432   1.417   4.096 -0.3942 -0.4012  0.4389
  207DG     H20 4758   1.572   1.565   4.031 -0.7434  0.5815  1.5331
  207DG     H21 4759   1.455   1.524   3.918 -0.8108  1.4027  0.3875
  207DG     H22 4760   1.602   1.303   4.143  0.7253 -0.9060 -1.2394
  207DG     H23 4761   1.568   1.325   3.969  1.2592  0.1462  1.0555
  208DG      C1 4762   2.091   2.559   4.988  0.0224 -0.1510  0.0475
  208DG      C2 4763   2.135   3.231   4.692  0.3106  0.3626 -0.0733
  208DG      H3 4764   2.015   2.635   5.008  0.5918  0.4403  0.0086
  208DG      H4 4765   2.169   2.568   5.064  1.6477  1.2505 -1.6681
  208DG      H5 4766   2.041   2.463   4.988  0.7578 -0.5429 -0.2892
  208DG      H6 4767   2.029   3.242   4.713  0.2355  1.7585 -1.0597
  208DG      H7 4768   2.195   3.284   4.767  1.0187 -1.0419  0.3860
  208DG      H8 4769   2.142   3.292   4.602 -2.8346  1.3473  0.2594
  208DG      O9 4770   2.153   2.592   4.863 -0.0890 -1.4900  0.4680
  208DG     O10 4771   2.182   3.095   4.656 -0.0514 -0.0444 -0.0136
  208DG     C11 4772   2.062   2.601   4.755 -0.3816 -0.0150 -0.0388
  208DG     C12 4773   2.158   3.018   4.775 -0.1497 -0.0187  0.0187
  208DG     H13 4774   1.965   2.639   4.786 -1.0080 -0.0161 -1.8407
  208DG     H14 4775   2.048   2.503   4.709 -4.0012  1.7755 -3.4130
  208DG     H15 4776   2.056   3.035   4.810  0.0809 -0.4473  0.9601
  208DG     H16 4777   2.227   3.061   4.848  2.4801  1.1026 -2.9155
  208DG     C17 4778   2.130   2.673   4.638  0.6789 -0.3837  0.6611
  208DG     C18 4779   2.191   2.872   4.764  0.4884  0.4267 -0.1327
  208DG     O19 4780   2.114   2.814   4.659 -0.1477 -0.0990  0.7670
  208DG     H20 4781   2.073   2.653   4.547  0.3416  1.7777  0.3406
  208DG     H21 4782   2.234   2.644   4.618  0.3710 -0.9853 -0.1136
  208DG     H22 4783   2.297   2.849   4.753  1.3608  2.6435  2.4359
  208DG     H23 4784   2.154   2.830   4.858 -1.8876  0.9626 -0.7652
  209DG      C1 4785   0.616   4.275   3.032 -0.5080  0.0045 -0.3119
  209DG      C2 4786   0.283   4.272   2.519 -0.2024  0.0029  0.1454
  209DG      H3 4787   0.675   4.238   3.116 -1.9122 -0.9842  0.2745
  209DG      H4 4788   0.545   4.350   3.068 -1.2562 -0.2652 -1.1975
  209DG      H5 4789   0.687   4.326   2.967  0.4429 -2.5657 -1.3835
  209DG      H6 4790   0.288   4.239   2.415  0.2213 -1.1188  0.5096
  209DG      H7 4791   0.186   4.322   2.514 -0.4378 -0.3314  1.1145
  209DG      H8 4792   0.346   4.360   2.528 -2.5113  1.8115 -0.4933
  209DG      O9 4793   0.542   4.178   2.958  0.5140  0.0720 -0.3448
  209DG     O10 4794   0.317   4.174   2.612  0.0222 -0.1125 -0.2459
  209DG     C11 4795   0.451   4.111   3.045  0.2576 -0.9880  0.7004
  209DG     C12 4796   0.210   4.097   2.651 -0.1576  0.1304 -0.1477
  209DG     H13 4797   0.384   4.184   3.091  0.8047  0.2875 -0.4610
  209DG     H14 4798   0.513   4.069   3.124  1.9372 -1.1567 -0.6515
  209DG     H15 4799   0.172   4.043   2.565 -0.4359  1.4568 -0.8848
  209DG     H16 4800   0.121   4.155   2.676 -1.4826 -0.3226 -3.3099
  209DG     C17 4801   0.367   4.006   2.962 -0.7062 -0.5702  1.0929
  209DG     C18 4802   0.248   4.008   2.761 -0.3506 -0.4908  0.8383
  209DG     O19 4803   0.318   4.084   2.856 -0.0812 -0.8608  0.3252
  209DG     H20 4804   0.293   3.959   3.026 -0.0961 -2.8460  0.2455
  209DG     H21 4805   0.433   3.925   2.930 -1.6257 -0.0932 -2.4977
  209DG     H22 4806   0.153   3.978   2.807 -2.3532  0.9424 -2.0572
  209DG     H23 4807   0.315   3.928   2.728 -0.1335 -0.3430  0.9206
  210DG      C1 4808   4.749   5.222   4.317 -0.4851 -0.0553  0.9480
  210DG      C2 4809   4.820   5.605   4.773  0.2252  0.0369 -0.3557
  210DG      H3 4810   4.706   5.306   4.263  0.5503 -1.4964 -2.4145
  210DG      H4 4811   4.671   5.184   4.383 -0.1890 -1.4265  0.5464
  210DG      H5 4812   4.772   5.146   4.242 -0.1995  1.2951 -0.3675
  210DG      H6 4813   4.789   5.647   4.678 -2.5544 -0.2257  0.3613
  210DG      H7 4814   4.725   5.566   4.809  0.6628 -2.3207 -1.6278
  210DG      H8 4815   4.856   5.687   4.836 -2.1362  2.5411 -2.0201
  210DG      O9 4816   4.849   5.244   4.416  0.1276 -0.3118  0.5616
  210DG     O10 4817   4.911   5.499   4.768  0.7320  0.2819  0.2856
  210DG     C11 4818   4.981   5.262   4.358 -0.7544  0.1732  0.8427
  210DG     C12 4819   5.051   5.529   4.745  0.0207  0.1909 -0.0678
  210DG     H13 4820   4.984   5.347   4.290  2.3148  0.0443  0.6747
  210DG     H14 4821   5.004   5.183   4.287 -1.1202  0.9276 -0.1395
  210DG     H15 4822   5.103   5.536   4.840 -1.4517 -1.4474  0.9040
  210DG     H16 4823   5.061   5.627   4.696  0.7445  1.3916  2.3430
  210DG     C17 4824   5.081   5.273   4.478 -0.2481 -0.1585  0.4863
  210DG     C18 4825   5.120   5.418   4.659 -0.1607  0.2906 -0.2382
  210DG     O19 4826   5.033   5.379   4.555  0.2739 -0.1977 -0.2237
  210DG     H20 4827   5.182   5.300   4.449 -0.7628  1.7866  0.3504
  210DG     H21 4828   5.079   5.185   4.543 -0.5772 -0.8409 -0.4283
  210DG     H22 4829   5.211   5.455   4.612  1.3734 -3.4744 -0.5727
  210DG     H23 4830   5.148   5.338   4.727  2.6458  1.0837 -0.3482
  211DG      C1 4831   0.722   3.902   4.113 -0.4874  0.4612 -0.0266
  211DG      C2 4832   0.613   3.885   4.861  0.0412  0.3057 -0.0326
  211DG      H3 4833   0.807   3.835   4.126 -1.1625 -0.2966  0.5965
  211DG      H4 4834   0.753   3.992   4.060  2.9559 -0.0776  0.8632
  211DG      H5 4835   0.645   3.854   4.053  0.5607 -1.4220  0.0679
  211DG      H6 4836   0.684   3.802   4.868  0.0828  0.1552 -1.8861
  211DG      H7 4837   0.614   3.931   4.960  0.7066  0.7412 -0.2361
  211DG      H8 4838   0.516   3.848   4.830 -0.7055  0.9470  1.4476
  211DG      O9 4839   0.667   3.938   4.236  0.0560 -0.1101  0.1822
  211DG     O10 4840   0.670   3.979   4.776 -1.3762  0.0329 -0.1555
  211DG     C11 4841   0.752   4.028   4.312 -0.0326 -0.2626 -0.7134
  211DG     C12 4842   0.588   4.083   4.728  0.5704  0.3416  0.3545
  211DG     H13 4843   0.786   4.120   4.265 -0.2130  0.1588 -0.0362
  211DG     H14 4844   0.845   3.985   4.349 -0.3332 -1.6601 -1.5070
  211DG     H15 4845   0.559   4.141   4.816  1.5007  1.3724 -0.0098
  211DG     H16 4846   0.496   4.040   4.687 -0.3386  0.1469  2.4333
  211DG     C17 4847   0.660   4.066   4.427  0.0712  0.4015  0.6192
  211DG     C18 4848   0.651   4.185   4.636  0.4635 -0.6738 -0.0154
  211DG     O19 4849   0.731   4.124   4.535  0.3945  0.1945 -0.5707
  211DG     H20 4850   0.615   3.974   4.465 -0.8015  0.6900  0.3183
  211DG     H21 4851   0.582   4.135   4.396  1.0569  0.9188 -0.8223
  211DG     H22 4852   0.566   4.243   4.601  1.7681  0.2790 -1.7606
  211DG     H23 4853   0.720   4.248   4.693  1.4245 -1.6214 -0.0850
  212DG      C1 4854   3.702   4.991   1.327  0.4525  0.0285  0.5253
  212DG      C2 4855   4.411   5.059   1.600 -0.1451 -0.6350 -0.5856
  212DG      H3 4856   3.615   5.050   1.298  0.8432  0.3591 -0.0076
  212DG      H4 4857   3.674   4.895   1.371  0.6383  0.0289  0.6469
  212DG      H5 4858   3.755   4.958   1.238  1.3212  0.5935  0.8228
  212DG      H6 4859   4.389   4.976   1.667  1.0153  0.7434  1.6428
  212DG      H7 4860   4.457   5.009   1.515 -0.1052 -1.2314 -0.2215
  212DG      H8 4861   4.487   5.120   1.648  0.1775 -1.2320 -0.3308
  212DG      O9 4862   3.796   5.055   1.416 -0.2312 -0.2629  0.1931
  212DG     O10 4863   4.285   5.112   1.586 -0.0787 -0.7772  0.2067
  212DG     C11 4864   3.843   5.179   1.360 -0.1028  0.0539 -0.4962
  212DG     C12 4865   4.292   5.239   1.524  0.4039 -0.6429  0.9033
  212DG     H13 4866   3.755   5.237   1.333 -0.4490 -1.3069 -2.6018
  212DG     H14 4867   3.902   5.154   1.272 -1.8691 -2.8183 -0.9927
  212DG     H15 4868   4.322   5.235   1.420 -1.0896 -0.2167  0.4328
  212DG     H16 4869   4.368   5.306   1.563 -0.7751  2.2917 -1.4587
  212DG     C17 4870   3.929   5.259   1.454 -0.7833 -0.8729 -0.2137
  212DG     C18 4871   4.149   5.293   1.525 -0.0317  0.2849 -0.5012
  212DG     O19 4872   4.057   5.209   1.458 -0.7315 -0.1386 -0.0856
  212DG     H20 4873   3.882   5.251   1.552  0.8151  0.4374  0.7056
  212DG     H21 4874   3.928   5.360   1.414  1.3496 -1.0737 -0.8838
  212DG     H22 4875   4.112   5.300   1.628  0.4013  0.0813 -0.3301
  212DG     H23 4876   4.142   5.396   1.490  2.2963  0.4942 -0.4867
  213DG      C1 4877   5.188   2.213   2.840 -0.0463  0.4619  0.5849
  213DG      C2 4878   5.289   2.388   2.217 -0.2597 -0.3312 -0.0301
  213DG      H3 4879   5.204   2.274   2.929  0.4863  0.8631  0.2147
  213DG      H4 4880   5.193   2.106   2.862  0.6918  0.5474  0.8475
  213DG      H5 4881   5.089   2.241   2.802  0.8223 -0.6755 -2.8242
  213DG      H6 4882   5.321   2.305   2.155  1.9199  1.3017 -1.2626
  213DG      H7 4883   5.182   2.374   2.233 -0.5565 -2.9040 -3.1926
  213DG      H8 4884   5.315   2.484   2.172  0.2100 -0.4384  0.0080
  213DG      O9 4885   5.279   2.264   2.742  0.2809 -0.0095  0.1252
  213DG     O10 4886   5.346   2.385   2.347 -0.0093 -0.0101 -0.1892
  213DG     C11 4887   5.414   2.243   2.786  0.1669  0.3416  0.0310
  213DG     C12 4888   5.482   2.352   2.333 -0.4058  0.2016 -0.3377
  213DG     H13 4889   5.439   2.138   2.774  1.5525  0.8402 -2.0190
  213DG     H14 4890   5.434   2.261   2.891  1.1831 -2.6508  0.4521
  213DG     H15 4891   5.534   2.419   2.264 -0.8320 -1.3734 -2.2733
  213DG     H16 4892   5.497   2.252   2.291  0.5216 -0.8988  2.3735
  213DG     C17 4893   5.496   2.330   2.693 -0.3811  0.1698 -0.2059
  213DG     C18 4894   5.541   2.374   2.477  0.0114  0.2336  0.1201
  213DG     O19 4895   5.448   2.311   2.564  0.2285 -0.2180  0.5775
  213DG     H20 4896   5.594   2.301   2.730 -0.9536  1.4395  2.5591
  213DG     H21 4897   5.486   2.437   2.711  0.4204  0.5023 -1.6124
  213DG     H22 4898   5.644   2.336   2.472 -0.7568 -1.8704 -1.2873
  213DG     H23 4899   5.539   2.480   2.502 -3.7313  0.0954  0.9892
  214DG      C1 4900   4.338   3.119   2.204  0.1525  0.0697  0.0472
  214DG      C2 4901   3.665   3.156   2.663 -0.0896 -0.1318  0.6548
  214DG      H3 4902   4.313   3.128   2.098  0.8152  0.8158 -0.0584
  214DG      H4 4903   4.413   3.041   2.199  1.9822  1.8014 -3.0392
  214DG      H5 4904   4.393   3.203   2.247  0.4544  0.6836 -1.4553
  214DG      H6 4905   3.591   3.080   2.685 -0.0802 -1.0489 -2.1112
  214DG      H7 4906   3.674   3.232   2.740 -0.2531  0.3921  0.1679
  214DG      H8 4907   3.639   3.211   2.573  2.4119  1.4302  0.7706
  214DG      O9 4908   4.223   3.078   2.280 -0.2066  0.0255  0.4961
  214DG     O10 4909   3.793   3.089   2.649  0.0781 -0.1816 -0.6418
  214DG     C11 4910   4.245   3.106   2.422 -0.2087 -0.6235 -0.1131
  214DG     C12 4911   3.807   2.970   2.574 -0.0862 -0.4275  0.2186
  214DG     H13 4912   4.212   3.205   2.454 -3.5305 -1.9913  1.2553
  214DG     H14 4913   4.351   3.093   2.438  0.2354 -0.0773 -2.2662
  214DG     H15 4914   3.778   2.991   2.471 -0.7167  0.3014  0.5368
  214DG     H16 4915   3.727   2.904   2.608 -2.5899  1.6640 -1.2671
  214DG     C17 4916   4.166   3.010   2.510 -0.6584 -0.5445  0.3975
  214DG     C18 4917   3.948   2.915   2.581 -0.2838  0.1879  0.6409
  214DG     O19 4918   4.024   3.009   2.497  0.3603  0.2543  0.1434
  214DG     H20 4919   4.183   3.050   2.610 -0.7169 -0.2106  0.2748
  214DG     H21 4920   4.205   2.909   2.499  1.4134  0.1693  0.7946
  214DG     H22 4921   3.986   2.921   2.683  1.9522  0.5355 -0.1537
  214DG     H23 4922   3.957   2.812   2.547  0.2940 -0.4075  2.4410
  215DG      C1 4923   0.725   4.318   2.139  0.2296 -0.1695 -0.4875
  215DG      C2 4924   0.504   4.829   2.705 -0.0913 -0.3110  0.6014
  215DG      H3 4925   0.771   4.370   2.054  0.1052 -1.0000 -1.0771
  215DG      H4 4926   0.735   4.214   2.108  0.4979 -0.0221 -0.9033
  215DG      H5 4927   0.792   4.319   2.224  1.1950 -0.4421 -1.2295
  215DG      H6 4928   0.476   4.932   2.683 -0.0709 -0.6718 -1.2848
  215DG      H7 4929   0.476   4.791   2.803 -2.2055  1.7216  0.8899
  215DG      H8 4930   0.607   4.807   2.678 -0.2391  0.2162 -0.4771
  215DG      O9 4931   0.594   4.352   2.175  0.4939 -0.1058 -0.2115
  215DG     O10 4932   0.424   4.744   2.619 -0.3618 -0.0516 -0.0365
  215DG     C11 4933   0.582   4.487   2.209 -0.5116  0.0306 -0.4712
  215DG     C12 4934   0.380   4.811   2.500 -0.0793  0.4156 -0.1963
  215DG     H13 4935   0.597   4.546   2.119 -0.9468  0.0601 -0.5275
  215DG     H14 4936   0.660   4.520   2.277 -1.2635  1.9852 -0.5001
  215DG     H15 4937   0.462   4.870   2.458  1.8489 -0.1316  2.5284
  215DG     H16 4938   0.295   4.875   2.523 -0.1658 -0.0018  0.7177
  215DG     C17 4939   0.438   4.529   2.270 -0.6202 -0.4376 -0.4862
  215DG     C18 4940   0.333   4.705   2.395 -0.3938  0.0429  0.1353
  215DG     O19 4941   0.456   4.639   2.363  0.2415  0.4337  0.0452
  215DG     H20 4942   0.388   4.446   2.320 -1.1481  0.1161 -0.0727
  215DG     H21 4943   0.382   4.569   2.186  0.1444 -0.4938 -1.0289
  215DG     H22 4944   0.271   4.626   2.437 -0.5568 -0.0810 -0.3312
  215DG     H23 4945   0.278   4.762   2.321 -0.5427  2.5409  2.0483
  216DG      C1 4946   1.221   1.220   1.288  0.0369  0.4601  0.4773
  216DG      C2 4947   1.600   1.642   0.959 -0.5139  0.1879  0.2409
  216DG      H3 4948   1.313   1.212   1.346  0.2215 -2.6698 -0.0389
  216DG      H4 4949   1.234   1.144   1.211 -0.2352  0.1038  0.7777
  216DG      H5 4950   1.136   1.196   1.352  1.1550  1.6477  2.5279
  216DG      H6 4951   1.634   1.546   0.920  0.3189  0.1077  1.1452
  216DG      H7 4952   1.543   1.691   0.879 -1.3485 -0.0070  0.6982
  216DG      H8 4953   1.682   1.710   0.982  0.2917 -0.1678 -1.3968
  216DG      O9 4954   1.187   1.350   1.233 -0.4180  0.0467  0.6268
  216DG     O10 4955   1.515   1.620   1.074  0.4690 -0.0910 -0.3935
  216DG     C11 4956   1.153   1.450   1.328 -0.2264 -0.9834 -1.2222
  216DG     C12 4957   1.582   1.588   1.193 -0.5272 -0.6895  0.4939
  216DG     H13 4958   1.089   1.420   1.411  3.0063  0.1383  1.9501
  216DG     H14 4959   1.098   1.522   1.267  1.6840 -1.6288 -3.8837
  216DG     H15 4960   1.662   1.662   1.201 -1.7265  0.7540 -0.3896
  216DG     H16 4961   1.625   1.488   1.191 -0.6861 -0.7663  0.9406
  216DG     C17 4962   1.276   1.516   1.379  0.6942 -1.0788 -0.1048
  216DG     C18 4963   1.495   1.588   1.314  0.5982 -0.0058  0.0102
  216DG     O19 4964   1.369   1.535   1.273  0.4576 -0.2518  0.3495
  216DG     H20 4965   1.316   1.455   1.460 -1.5688 -2.5519 -0.0237
  216DG     H21 4966   1.253   1.612   1.426  0.4895 -1.2577  0.1610
  216DG     H22 4967   1.544   1.544   1.401 -2.7131  0.6886  2.4389
  216DG     H23 4968   1.482   1.690   1.350  3.4546  0.0983  0.9490
  217DG      C1 4969   1.717   3.644   0.165  0.1811  0.1430  0.0126
  217DG      C2 4970   1.181   3.268  -0.109  0.7804  0.3141  0.5606
  217DG      H3 4971   1.777   3.734   0.153 -0.7170  0.8112  0.4369
  217DG      H4 4972   1.780   3.556   0.177 -0.8337 -0.5340  0.4828
  217DG      H5 4973   1.657   3.658   0.256  0.3176  0.2884  0.0805
  217DG      H6 4974   1.107   3.229  -0.178  0.1637  0.0002  1.3799
  217DG      H7 4975   1.261   3.300  -0.176 -0.3770  1.1663 -0.4399
  217DG      H8 4976   1.226   3.182  -0.057 -0.1328 -0.3121  0.3353
  217DG      O9 4977   1.618   3.598   0.071 -0.0517 -0.1527  0.5220
  217DG     O10 4978   1.149   3.373  -0.015  0.0564 -0.3743  0.4839
  217DG     C11 4979   1.532   3.707   0.030 -0.7568 -0.2986 -0.4487
  217DG     C12 4980   1.107   3.494  -0.088 -0.3013  0.2705 -0.1333
  217DG     H13 4981   1.595   3.792   0.004 -1.3376  0.4694  0.5592
  217DG     H14 4982   1.491   3.752   0.121  0.9063 -0.2019  0.2847
  217DG     H15 4983   1.081   3.558  -0.003  0.3746 -2.4350  2.2684
  217DG     H16 4984   1.020   3.486  -0.152 -1.0229  2.8288  0.3957
  217DG     C17 4985   1.433   3.680  -0.086 -0.6393 -0.3845 -0.1593
  217DG     C18 4986   1.228   3.561  -0.148  0.8536 -0.6263 -0.3408
  217DG     O19 4987   1.334   3.581  -0.049 -0.1786  0.1917 -0.0408
  217DG     H20 4988   1.484   3.630  -0.169 -1.3619  0.6739 -1.2731
  217DG     H21 4989   1.380   3.771  -0.114  1.6106  0.8831 -0.6028
  217DG     H22 4990   1.268   3.506  -0.233  0.5939 -2.6894  0.7852
  217DG     H23 4991   1.199   3.656  -0.192 -0.3420 -1.0058 -0.4310
  218DG      C1 4992   4.583   4.186   0.375 -0.2394 -0.1832  0.1898
  218DG      C2 4993   4.293   3.870  -0.188  0.4717 -0.3155  0.3100
  218DG      H3 4994   4.598   4.152   0.478 -0.7107 -0.4113  0.1835
  218DG      H4 4995   4.557   4.291   0.370  1.5105  0.2871  0.2309
  218DG      H5 4996   4.684   4.172   0.336 -0.8054 -0.1583 -1.3250
  218DG      H6 4997   4.259   3.768  -0.205 -1.0055  0.1696  0.1699
  218DG      H7 4998   4.236   3.939  -0.249  1.8851  0.5077 -0.1250
  218DG      H8 4999   4.395   3.874  -0.227  0.7782 -0.6326  1.0596
  218DG      O9 5000   4.488   4.103   0.314  0.5579 -0.7040  0.2130
  218DG     O10 5001   4.270   3.899  -0.052 -0.7658  0.8320 -0.0040
  218DG     C11 5002   4.358   4.136   0.380  0.4706  0.2262 -0.1662
  218DG     C12 5003   4.143   3.949  -0.012  0.3627  0.3582  0.1022
  218DG     H13 5004   4.327   4.228   0.331 -1.5605 -1.5508 -2.5085
  218DG     H14 5005   4.370   4.142   0.488  0.6215 -2.1053  0.0082
  218DG     H15 5006   4.064   3.890  -0.060 -0.1441  2.7978 -2.3405
  218DG     H16 5007   4.139   4.049  -0.056  2.4640 -0.2967 -1.7987
  218DG     C17 5008   4.254   4.033   0.340 -0.3313 -0.3268 -1.0206
  218DG     C18 5009   4.139   3.948   0.148 -0.6626 -0.0689  0.5310
  218DG     O19 5010   4.250   4.027   0.200 -0.2422 -0.1223  0.2894
  218DG     H20 5011   4.156   4.057   0.380 -0.0597  2.2075 -1.7447
  218DG     H21 5012   4.281   3.936   0.383  1.1871  1.7005  3.1217
  218DG     H22 5013   4.047   4.000   0.171  0.2522  2.2054 -0.6039
  218DG     H23 5014   4.153   3.850   0.192  1.2111  1.0150  2.5934
  219DG      C1 5015   2.567   4.884   0.131 -0.4740  0.2911  0.2845
  219DG      C2 5016   3.254   5.010   0.050 -0.3720  0.2885 -0.5087
  219DG      H3 5017   2.605   4.828   0.217  1.1372  1.8244  0.6238
  219DG      H4 5018   2.527   4.808   0.063 -0.1818 -0.3272  0.7914
  219DG      H5 5019   2.477   4.938   0.161 -0.4496  1.2622 -1.2857
  219DG      H6 5020   3.323   5.093   0.063 -2.7936  2.6100 -1.6110
  219DG      H7 5021   3.256   4.954   0.144  1.0250  0.9310 -0.1380
  219DG      H8 5022   3.290   4.948  -0.032  0.0202  0.1982 -0.2690
  219DG      O9 5023   2.672   4.961   0.087  0.2068 -0.2276 -0.3296
  219DG     O10 5024   3.122   5.064   0.038 -0.0165  0.4014  0.3635
  219DG     C11 5025   2.628   5.056  -0.014  0.4075 -0.0114 -0.1958
  219DG     C12 5026   3.095   5.098  -0.096  0.2053  0.6374 -0.1359
  219DG     H13 5027   2.533   5.099   0.018  0.0865  0.3449 -1.5765
  219DG     H14 5028   2.607   5.008  -0.110 -1.3848  0.7347 -0.2301
  219DG     H15 5029   3.093   5.008  -0.157  0.8051 -0.8524  1.9302
  219DG     H16 5030   3.182   5.156  -0.125  0.6181  0.5803  0.9526
  219DG     C17 5031   2.738   5.151  -0.042 -0.1284 -0.4974  0.1086
  219DG     C18 5032   2.960   5.177  -0.094  0.3430 -0.1207  0.0199
  219DG     O19 5033   2.864   5.089  -0.050 -0.0926  0.8360 -0.1515
  219DG     H20 5034   2.751   5.244   0.014  1.4140  0.7888 -2.2454
  219DG     H21 5035   2.711   5.193  -0.139  0.3058 -0.3022  0.0663
  219DG     H22 5036   2.970   5.262  -0.026 -1.2254 -0.3344  0.5689
  219DG     H23 5037   2.941   5.212  -0.195 -0.1182 -0.4292 -0.0042
  220DG      C1 5038   3.208   1.306   2.032 -0.4766  0.0652  0.2552
  220DG      C2 5039   2.779   1.163   1.456 -0.1129 -0.5306 -0.1501
  220DG      H3 5040   3.314   1.309   2.007 -0.5542  1.3237  0.0352
  220DG      H4 5041   3.190   1.257   2.128 -0.2887 -1.3498 -0.4034
  220DG      H5 5042   3.173   1.408   2.024  2.8042  1.4247  1.4420
  220DG      H6 5043   2.738   1.088   1.388 -0.2932 -0.4908 -0.0847
  220DG      H7 5044   2.696   1.225   1.489 -0.0262 -0.6828  0.3581
  220DG      H8 5045   2.865   1.209   1.406  0.4331  0.7572  1.8529
  220DG      O9 5046   3.136   1.227   1.940 -0.0648 -0.2179 -0.3513
  220DG     O10 5047   2.834   1.096   1.563  0.4536 -0.5424  0.5655
  220DG     C11 5048   3.190   1.091   1.931 -0.3654 -0.1484 -0.1850
  220DG     C12 5049   2.932   0.993   1.534 -0.3672  0.7589  0.4461
  220DG     H13 5050   3.222   1.048   2.026 -1.0373  1.4061  0.7743
  220DG     H14 5051   3.275   1.097   1.863 -1.0527  0.3529 -1.0137
  220DG     H15 5052   3.014   1.039   1.480  3.4943 -3.1357  2.3818
  220DG     H16 5053   2.893   0.919   1.464  0.7420  0.5502  0.0327
  220DG     C17 5054   3.086   0.987   1.870 -0.2005  0.2887 -0.2237
  220DG     C18 5055   2.988   0.925   1.661 -0.0310 -0.4756  0.2408
  220DG     O19 5056   3.058   1.020   1.736 -0.3152 -0.0949  0.5613
  220DG     H20 5057   3.000   0.990   1.937 -0.0464  1.1132 -0.0514
  220DG     H21 5058   3.130   0.887   1.870  0.2112  0.4623  0.5008
  220DG     H22 5059   2.900   0.901   1.722 -0.3804  0.1778  0.0067
  220DG     H23 5060   3.056   0.843   1.640 -2.4508 -2.4149 -0.5901
  221DG      C1 5061   5.077   3.702   2.469 -0.4929  0.4035 -0.7179
  221DG      C2 5062   5.481   3.217   2.331  0.0717 -0.2523 -0.2651
  221DG      H3 5063   5.119   3.701   2.368  0.6955  0.0966 -0.2403
  221DG      H4 5064   5.031   3.796   2.499 -2.7923 -1.1273  0.9359
  221DG      H5 5065   4.998   3.629   2.484  1.8214 -2.4251 -1.3490
  221DG      H6 5066   5.547   3.179   2.253  0.4063  1.4940 -0.8806
  221DG      H7 5067   5.515   3.179   2.427 -1.7897 -2.3858 -0.3583
  221DG      H8 5068   5.384   3.167   2.323 -0.3899  0.4177  0.9368
  221DG      O9 5069   5.182   3.659   2.559 -0.5218 -0.1199  0.6833
  221DG     O10 5070   5.469   3.357   2.343  0.3463  0.2104  0.4952
  221DG     C11 5071   5.290   3.746   2.578  0.0686  0.3328 -0.5701
  221DG     C12 5072   5.591   3.411   2.378 -0.0702 -0.3769 -0.2222
  221DG     H13 5073   5.327   3.730   2.679 -1.9629  1.8339  0.4731
  221DG     H14 5074   5.238   3.841   2.579 -0.8017 -0.1309 -0.5980
  221DG     H15 5075   5.662   3.388   2.299  0.1086 -0.1814 -0.1187
  221DG     H16 5076   5.633   3.380   2.474  2.5421 -0.2004 -1.2382
  221DG     C17 5077   5.394   3.719   2.475  0.2352  0.2522 -0.0201
  221DG     C18 5078   5.553   3.561   2.392 -0.1568  0.1269  0.7284
  221DG     O19 5079   5.441   3.579   2.479  0.7040  0.0008  0.2838
  221DG     H20 5080   5.484   3.779   2.476  0.2805  0.2137 -0.9503
  221DG     H21 5081   5.336   3.739   2.385 -0.9305 -0.8847  0.4409
  221DG     H22 5082   5.638   3.611   2.438  1.6736 -1.8127 -0.3748
  221DG     H23 5083   5.538   3.606   2.294  0.6466 -1.2297 -0.0411
  222DG      C1 5084   0.196   1.499   3.246 -0.0272 -0.5765  0.0286
  222DG      C2 5085  -0.097   0.907   3.334 -0.3039  0.3618 -0.1125
  222DG      H3 5086   0.263   1.476   3.329 -0.3739  0.0659  0.4906
  222DG      H4 5087   0.214   1.604   3.224  0.5679 -0.4820  0.9403
  222DG      H5 5088   0.205   1.448   3.149 -0.0554  0.5390 -0.5711
  222DG      H6 5089  -0.028   0.882   3.253  0.2149  1.9552 -0.2056
  222DG      H7 5090  -0.044   0.894   3.428 -2.8077  1.5745  1.5839
  222DG      H8 5091  -0.180   0.837   3.345 -0.9381  0.9579 -0.9366
  222DG      O9 5092   0.064   1.470   3.284 -0.5014  0.1854  0.2047
  222DG     O10 5093  -0.131   1.042   3.317  0.0458  0.3253 -0.3639
  222DG     C11 5094  -0.029   1.518   3.193  0.2323 -0.5095 -0.0614
  222DG     C12 5095  -0.210   1.064   3.200 -0.3661  0.7162 -0.0368
  222DG     H13 5096  -0.013   1.516   3.085  0.9663  3.9325 -0.2398
  222DG     H14 5097  -0.047   1.624   3.215  2.4093 -0.3474  1.1826
  222DG     H15 5098  -0.302   1.009   3.217  0.2025 -0.9018 -1.8483
  222DG     H16 5099  -0.173   1.033   3.102 -0.3686 -0.1915  0.2425
  222DG     C17 5100  -0.156   1.433   3.219 -0.0097 -0.6202  0.2754
  222DG     C18 5101  -0.241   1.211   3.196  0.1602 -0.7461  0.1497
  222DG     O19 5102  -0.134   1.301   3.173  0.2946 -0.1333  0.1127
  222DG     H20 5103  -0.241   1.478   3.169 -0.1016 -0.9575  0.1262
  222DG     H21 5104  -0.182   1.429   3.325 -1.3768  0.5551  0.0072
  222DG     H22 5105  -0.318   1.225   3.120 -1.2010 -0.9302  1.4461
  222DG     H23 5106  -0.296   1.243   3.285 -0.6332  0.9640 -0.9172
  223DG      C1 5107   0.645   3.802   2.757 -1.1454 -0.0307  0.0377
  223DG      C2 5108   0.477   4.444   2.784  0.6126 -0.2873  0.3863
  223DG      H3 5109   0.695   3.812   2.854  1.1805 -1.6015 -0.9174
  223DG      H4 5110   0.688   3.721   2.698 -2.3247  1.0803 -2.4837
  223DG      H5 5111   0.539   3.779   2.758 -1.2733  0.5364 -0.5180
  223DG      H6 5112   0.418   4.511   2.722  0.5277  0.3898  1.1738
  223DG      H7 5113   0.413   4.393   2.856  1.2718 -0.4789  0.8526
  223DG      H8 5114   0.546   4.502   2.846  0.1041 -0.0348  0.7168
  223DG      O9 5115   0.655   3.928   2.690  0.0460  0.3041  0.0997
  223DG     O10 5116   0.541   4.347   2.705  0.1821 -0.4060 -0.5547
  223DG     C11 5117   0.794   3.961   2.646  0.0536  0.3469  0.2188
  223DG     C12 5118   0.633   4.402   2.605  0.7353 -0.4356  0.4934
  223DG     H13 5119   0.845   3.880   2.594 -0.4182 -0.2286  0.6441
  223DG     H14 5120   0.857   3.982   2.732 -0.6086  1.3703  0.4794
  223DG     H15 5121   0.700   4.476   2.647 -0.5798  1.8632 -1.2192
  223DG     H16 5122   0.581   4.464   2.531 -1.8719 -1.0716  1.6711
  223DG     C17 5123   0.791   4.081   2.559  0.1804  0.5217 -0.2991
  223DG     C18 5124   0.700   4.288   2.530 -0.1671  0.1768  0.0591
  223DG     O19 5125   0.717   4.186   2.621 -0.2858 -0.4834 -0.2224
  223DG     H20 5126   0.748   4.045   2.465 -0.2311 -0.5581  0.2828
  223DG     H21 5127   0.892   4.116   2.541  0.5141 -0.3071 -0.0751
  223DG     H22 5128   0.634   4.258   2.449  1.2726  0.8741 -1.4342
  223DG     H23 5129   0.785   4.332   2.478  1.0768  0.3969  2.1620
  224DG      C1 5130   4.369   5.379   0.948 -0.1265  0.1820 -0.4437
  224DG      C2 5131   3.834   5.225   1.020 -0.1437  0.3676 -0.9856
  224DG      H3 5132   4.435   5.415   0.869  1.7318 -2.4138 -0.2221
  224DG      H4 5133   4.312   5.294   0.910 -1.6732  0.6563  0.7278
  224DG      H5 5134   4.437   5.330   1.019  1.8752  1.2075 -1.5467
  224DG      H6 5135   3.827   5.241   0.912  0.7743  0.0131 -1.1057
  224DG      H7 5136   3.940   5.225   1.044 -0.5918 -1.3307  1.3563
  224DG      H8 5137   3.799   5.124   1.041  0.7047  0.0142 -1.2214
  224DG      O9 5138   4.305   5.480   1.030  0.1260  0.2047  0.2527
  224DG     O10 5139   3.757   5.325   1.089 -0.0154  0.8257 -0.5674
  224DG     C11 5140   4.252   5.428   1.149  0.3508 -0.2047 -0.4123
  224DG     C12 5141   3.785   5.453   1.051 -0.2313  0.1560 -0.2973
  224DG     H13 5142   4.327   5.448   1.226 -0.7201  1.6794  0.2130
  224DG     H14 5143   4.247   5.319   1.155  0.5288 -0.1530  1.3008
  224DG     H15 5144   3.688   5.501   1.067 -0.0161  0.3188  0.5646
  224DG     H16 5145   3.802   5.468   0.944 -1.5199  0.5187 -0.4779
  224DG     C17 5146   4.124   5.494   1.199  0.9434  0.0195  0.0434
  224DG     C18 5147   3.890   5.521   1.140 -0.3155 -0.2902  0.1188
  224DG     O19 5148   4.017   5.471   1.098 -0.3175  0.0600 -0.1904
  224DG     H20 5149   4.136   5.602   1.203  3.9621 -0.1411 -1.6452
  224DG     H21 5150   4.096   5.457   1.298 -0.4974 -0.5563 -0.5392
  224DG     H22 5151   3.891   5.629   1.127  2.5716 -0.4305 -1.6808
  224DG     H23 5152   3.882   5.490   1.244  1.4323 -1.3077 -0.0195
  225DG      C1 5153   2.626   3.817   1.409 -0.1527 -0.1167  1.1519
  225DG      C2 5154   2.378   4.213   0.977 -0.1069 -0.2786 -0.3380
  225DG      H3 5155   2.544   3.749   1.387  0.4073 -1.1785  2.2103
  225DG      H4 5156   2.584   3.891   1.477  0.5617 -0.3854  1.9023
  225DG      H5 5157   2.699   3.755   1.461 -0.0942 -1.4974 -0.5090
  225DG      H6 5158   2.376   4.298   0.908 -2.7255 -1.0979 -1.4113
  225DG      H7 5159   2.311   4.135   0.940 -0.3224 -0.4834  0.4587
  225DG      H8 5160   2.339   4.251   1.071 -2.5638  3.2690 -2.5337
  225DG      O9 5161   2.678   3.893   1.298  0.6697 -0.2767 -0.5645
  225DG     O10 5162   2.506   4.157   0.977 -0.0714 -0.0824 -0.0504
  225DG     C11 5163   2.780   3.983   1.330 -0.7344  0.5708  0.6083
  225DG     C12 5164   2.614   4.243   0.986  0.1847 -0.0475 -0.3846
  225DG     H13 5165   2.864   3.932   1.378 -0.5166  1.4523  1.1746
  225DG     H14 5166   2.745   4.058   1.401  0.6354  0.4892  1.4018
  225DG     H15 5167   2.592   4.311   1.068  3.0908  1.7191 -0.9079
  225DG     H16 5168   2.615   4.313   0.902  0.9311  0.0531 -0.2962
  225DG     C17 5169   2.832   4.048   1.198 -1.0536  1.0737 -0.2603
  225DG     C18 5170   2.741   4.166   1.017 -0.2953 -0.6841 -0.0241
  225DG     O19 5171   2.714   4.105   1.138  0.1873  0.0277  0.4818
  225DG     H20 5172   2.881   3.973   1.135 -0.5964  0.7428  0.4845
  225DG     H21 5173   2.912   4.117   1.225  1.5647 -2.1600  0.9414
  225DG     H22 5174   2.776   4.101   0.936  2.3292  2.7491 -1.8808
  225DG     H23 5175   2.826   4.231   1.034  0.9209 -2.5159  1.2380
  226DG      C1 5176   0.692   0.574   1.620 -0.5856  1.0552  0.1431
  226DG      C2 5177   0.847   0.147   1.182  0.3800 -0.3535  0.4064
  226DG      H3 5178   0.778   0.619   1.570 -0.3404 -0.5943 -0.9838
  226DG      H4 5179   0.724   0.509   1.702 -2.0408  1.4190  1.0470
  226DG      H5 5180   0.634   0.658   1.659  1.4469  2.2074  0.8879
  226DG      H6 5181   0.841   0.090   1.090 -1.9988  2.1960 -1.1822
  226DG      H7 5182   0.916   0.223   1.145  0.3779 -0.3044  0.5023
  226DG      H8 5183   0.911   0.096   1.254 -0.8231 -0.8496  1.1536
  226DG      O9 5184   0.616   0.492   1.534 -0.5553  0.6959  0.0180
  226DG     O10 5185   0.720   0.194   1.231 -0.2596 -1.1739 -0.1678
  226DG     C11 5186   0.511   0.423   1.597  0.7257  0.4495 -0.7686
  226DG     C12 5187   0.641   0.091   1.277  0.8998  0.0231 -0.9998
  226DG     H13 5188   0.432   0.497   1.612 -0.8780 -1.0348 -1.5767
  226DG     H14 5189   0.527   0.381   1.696 -1.0496 -0.3956 -0.8171
  226DG     H15 5190   0.692   0.023   1.345 -1.4239 -1.0174 -0.1617
  226DG     H16 5191   0.608   0.022   1.200 -0.4885 -1.3115  0.6974
  226DG     C17 5192   0.456   0.321   1.499 -0.2299  0.2371 -0.0474
  226DG     C18 5193   0.519   0.145   1.356 -0.5864 -0.5427  0.3325
  226DG     O19 5194   0.566   0.249   1.444 -0.0297  0.0931 -1.0127
  226DG     H20 5195   0.402   0.368   1.416 -3.1032 -0.7500  1.1343
  226DG     H21 5196   0.394   0.253   1.556  1.4296 -0.4322  1.0313
  226DG     H22 5197   0.441   0.184   1.290 -0.3477 -0.7193 -0.0595
  226DG     H23 5198   0.484   0.067   1.423  0.7713 -2.3546 -0.9887
  227DG      C1 5199   5.147   4.352   0.016 -0.0493  0.0444  0.0750
  227DG      C2 5200   5.281   3.633  -0.178 -1.0810  0.2326  0.2973
  227DG      H3 5201   5.143   4.431   0.092 -2.5138 -0.3140  0.4134
  227DG      H4 5202   5.063   4.362  -0.053 -0.9535 -0.2150  1.1052
  227DG      H5 5203   5.236   4.368  -0.044  0.2482  2.2481  1.0004
  227DG      H6 5204   5.211   3.551  -0.196  0.3601 -1.0211  0.1130
  227DG      H7 5205   5.320   3.659  -0.277 -0.0949 -0.0662  0.5954
  227DG      H8 5206   5.364   3.600  -0.115 -1.2360  2.2508  1.6359
  227DG      O9 5207   5.127   4.221   0.072  0.2734 -0.1132 -0.1311
  227DG     O10 5208   5.208   3.744  -0.110  0.0315 -0.2872  0.3645
  227DG     C11 5209   5.217   4.171   0.169 -0.2273 -0.0936 -0.0429
  227DG     C12 5210   5.263   3.872  -0.139 -0.2199 -0.4405 -0.2829
  227DG     H13 5211   5.207   4.239   0.254  0.6135 -0.3186  0.2399
  227DG     H14 5212   5.321   4.191   0.142 -0.4952  1.9381  0.2394
  227DG     H15 5213   5.232   3.912  -0.236  0.6688 -0.6603 -0.6717
  227DG     H16 5214   5.371   3.869  -0.129 -0.2721 -1.0845  0.1572
  227DG     C17 5215   5.197   4.024   0.198 -0.1760  0.5276  0.5016
  227DG     C18 5216   5.209   3.966  -0.033 -0.2155  0.2252  0.3548
  227DG     O19 5217   5.263   3.933   0.098 -0.8468 -0.2143  0.1871
  227DG     H20 5218   5.092   3.998   0.186  0.1879 -1.2865  0.8929
  227DG     H21 5219   5.223   3.995   0.300 -1.7265 -2.1929  0.2236
  227DG     H22 5220   5.246   4.064  -0.062  0.3507 -0.4527 -1.3462
  227DG     H23 5221   5.101   3.974  -0.038 -0.1336  0.6603 -1.6690
  228DG      C1 5222   3.451   5.265   0.929 -0.1043  0.2034  0.0800
  228DG      C2 5223   2.970   5.716   1.332  0.3114 -0.3862 -0.0055
  228DG      H3 5224   3.530   5.298   0.863  0.6928 -0.1826  0.8161
  228DG      H4 5225   3.364   5.248   0.866  1.4793 -1.6933 -1.7312
  228DG      H5 5226   3.487   5.175   0.979  0.1883  0.1944 -0.1475
  228DG      H6 5227   3.048   5.787   1.303  1.7675 -0.8670  2.4935
  228DG      H7 5228   2.883   5.718   1.267  1.0079 -0.5820 -0.9777
  228DG      H8 5229   2.951   5.729   1.438  2.3241 -0.6230  0.4306
  228DG      O9 5230   3.423   5.357   1.035  0.3429 -0.1871  0.1261
  228DG     O10 5231   3.014   5.585   1.312 -0.4412 -0.7927  0.6825
  228DG     C11 5232   3.400   5.493   0.996 -0.3405 -0.2974 -0.6840
  228DG     C12 5233   3.127   5.544   1.389  0.9742  0.5121  0.1206
  228DG     H13 5234   3.316   5.508   0.927 -0.8783 -0.9109 -0.1750
  228DG     H14 5235   3.489   5.528   0.944  0.4081 -2.3450 -0.8491
  228DG     H15 5236   3.132   5.435   1.386  0.8498  0.4941  0.4401
  228DG     H16 5237   3.111   5.582   1.490 -3.1905  2.0222 -0.9047
  228DG     C17 5238   3.382   5.581   1.124 -0.1419  0.0368 -0.5334
  228DG     C18 5239   3.257   5.585   1.325 -0.4052 -0.4923  0.1885
  228DG     O19 5240   3.267   5.539   1.189  0.0908  0.0948  0.4477
  228DG     H20 5241   3.365   5.687   1.101  1.4196  0.8020  1.5130
  228DG     H21 5242   3.465   5.559   1.192 -0.4794 -2.2551 -0.7804
  228DG     H22 5243   3.268   5.693   1.324 -0.8005 -0.4443  0.5270
  228DG     H23 5244   3.341   5.547   1.382  0.9434  1.0313 -0.7150
  229DG      C1 5245   2.341   2.185   0.820  0.5405  0.3024 -0.5219
  229DG      C2 5246   2.592   1.821   1.278  0.2042 -0.3733 -0.5134
  229DG      H3 5247   2.445   2.180   0.853  0.7708 -2.5777 -1.3960
  229DG      H4 5248   2.285   2.258   0.878  1.4573 -0.4663  1.4266
  229DG      H5 5249   2.340   2.212   0.714 -1.6940 -2.4579 -1.3193
  229DG      H6 5250   2.668   1.744   1.267 -1.5401 -2.3623  0.5720
  229DG      H7 5251   2.655   1.906   1.302  1.0992 -1.7644  2.5548
  229DG      H8 5252   2.520   1.807   1.359  0.6158  3.3302  0.6812
  229DG      O9 5253   2.273   2.058   0.847 -0.1942 -0.1673  0.0445
  229DG     O10 5254   2.524   1.830   1.153 -0.9639  0.0908 -0.7540
  229DG     C11 5255   2.292   1.949   0.762  0.3490  0.0316  0.1410
  229DG     C12 5256   2.541   1.716   1.083 -0.6294 -0.0650  0.2541
  229DG     H13 5257   2.378   1.958   0.696  0.2071 -1.4198 -0.2843
  229DG     H14 5258   2.199   1.929   0.709  0.4620  0.0959 -0.0831
  229DG     H15 5259   2.539   1.632   1.152 -1.3273 -0.2003  0.0693
  229DG     H16 5260   2.625   1.706   1.014 -0.7497 -0.7415  0.2030
  229DG     C17 5261   2.313   1.817   0.828  0.1023 -0.1123  0.9976
  229DG     C18 5262   2.416   1.712   1.001 -0.1038  0.0275 -0.6611
  229DG     O19 5263   2.422   1.821   0.915 -0.7579  0.7505 -0.7883
  229DG     H20 5264   2.326   1.739   0.753 -1.3471  1.1378 -0.6255
  229DG     H21 5265   2.220   1.803   0.883  0.3437  1.3895  1.8574
  229DG     H22 5266   2.414   1.618   0.947 -0.8202 -0.4881  0.2287
  229DG     H23 5267   2.331   1.717   1.069 -0.1958 -1.9035 -0.5841
  230DG      C1 5268   0.829   0.024   2.403  0.6276 -0.2478  0.0230
  230DG      C2 5269   0.813  -0.283   1.759  0.0520  0.4227  0.1572
  230DG      H3 5270   0.885  -0.004   2.493  1.7771  0.7988 -0.3438
  230DG      H4 5271   0.835   0.132   2.386  2.0161  0.1023  2.2068
  230DG      H5 5272   0.893   0.002   2.318  0.3462  1.0464 -0.5519
  230DG      H6 5273   0.774  -0.246   1.665 -0.3771 -0.4154 -0.0005
  230DG      H7 5274   0.906  -0.337   1.742  0.1022  0.5788 -0.0565
  230DG      H8 5275   0.729  -0.343   1.795  1.0744 -0.0572  1.8477
  230DG      O9 5276   0.697  -0.019   2.392  0.1370  0.1030 -0.4556
  230DG     O10 5277   0.846  -0.157   1.821  0.0625  0.0165 -0.0685
  230DG     C11 5278   0.683  -0.161   2.394  0.3060 -0.1711 -0.7628
  230DG     C12 5279   0.893  -0.184   1.952 -0.7804 -0.1236  0.0199
  230DG     H13 5280   0.589  -0.183   2.445  0.1926 -1.0130 -1.3135
  230DG     H14 5281   0.764  -0.206   2.452  1.6211  1.5289 -1.2192
  230DG     H15 5282   0.925  -0.085   1.985 -0.9168 -0.9715  3.0104
  230DG     H16 5283   0.986  -0.239   1.939 -0.0341  1.1684 -0.2754
  230DG     C17 5284   0.674  -0.223   2.254 -0.2823  0.4126  0.7187
  230DG     C18 5285   0.782  -0.244   2.046 -0.5166 -0.9134 -0.3661
  230DG     O19 5286   0.790  -0.187   2.176 -0.5406 -0.1631 -0.2301
  230DG     H20 5287   0.592  -0.177   2.200  0.1263  0.8056  0.4313
  230DG     H21 5288   0.666  -0.332   2.258 -0.3503  0.2553 -2.1189
  230DG     H22 5289   0.686  -0.213   2.004 -0.0405  0.3506 -0.5720
  230DG     H23 5290   0.781  -0.353   2.043 -2.2971 -0.9078 -1.2096
  231DG      C1 5291   4.021   3.958   3.261 -0.0944 -0.2238 -0.7097
  231DG      C2 5292   3.957   3.317   3.432 -0.4594 -0.0831 -0.8854
  231DG      H3 5293   4.070   4.054   3.272  1.6190 -1.0821 -0.4301
  231DG      H4 5294   3.929   3.953   3.319  0.0370 -2.0834 -0.5732
  231DG      H5 5295   4.006   3.922   3.159 -1.2883 -0.4625 -0.4651
  231DG      H6 5296   3.895   3.302   3.344 -0.4101  1.0409 -1.1263
  231DG      H7 5297   4.003   3.225   3.468 -1.5908 -0.4072 -0.2585
  231DG      H8 5298   3.877   3.349   3.498 -0.6434 -0.7296 -0.7859
  231DG      O9 5299   4.098   3.871   3.332 -0.2279  0.1850 -0.1049
  231DG     O10 5300   4.048   3.419   3.408 -0.1574  0.3921 -0.5668
  231DG     C11 5301   4.221   3.829   3.266  0.5202 -0.3741 -0.2394
  231DG     C12 5302   4.144   3.389   3.318 -0.2219 -0.2553  0.4371
  231DG     H13 5303   4.280   3.913   3.229 -1.1009  0.5895 -0.7442
  231DG     H14 5304   4.187   3.791   3.169  1.5158  0.1691 -0.8171
  231DG     H15 5305   4.093   3.338   3.236  2.3147 -1.0611 -0.7397
  231DG     H16 5306   4.217   3.319   3.358 -2.1110 -3.4305 -1.2550
  231DG     C17 5307   4.311   3.723   3.338 -0.4640 -0.1767 -0.4920
  231DG     C18 5308   4.207   3.521   3.257 -0.1322  0.1225 -0.0577
  231DG     O19 5309   4.241   3.606   3.368  0.3892  0.1831  0.3515
  231DG     H20 5310   4.352   3.762   3.431  0.5468 -0.2114 -0.9014
  231DG     H21 5311   4.402   3.702   3.282 -0.3328 -0.3001 -0.2351
  231DG     H22 5312   4.300   3.508   3.202 -1.2040  1.6351 -2.3741
  231DG     H23 5313   4.136   3.570   3.191 -0.7245  1.8835  1.7706
  232DG      C1 5314   3.524   4.292   2.548 -0.0335 -0.0897 -0.5478
  232DG      C2 5315   3.803   4.565   3.111  0.0620 -0.0450  0.0797
  232DG      H3 5316   3.473   4.288   2.452 -0.3188 -1.4107 -0.3526
  232DG      H4 5317   3.490   4.216   2.618  1.5763  1.8692  2.6231
  232DG      H5 5318   3.630   4.273   2.529  0.8911  3.3366  0.3426
  232DG      H6 5319   3.783   4.472   3.163 -0.1453  0.3519  0.7237
  232DG      H7 5320   3.905   4.564   3.072  1.6154  2.1751  3.6324
  232DG      H8 5321   3.797   4.643   3.186  1.9649 -0.7778  1.0545
  232DG      O9 5322   3.509   4.412   2.623 -0.3393  0.1961  0.0149
  232DG     O10 5323   3.705   4.593   3.010  0.4157  0.4367 -0.2851
  232DG     C11 5324   3.382   4.426   2.680 -0.1558  0.5822  0.3293
  232DG     C12 5325   3.587   4.663   3.059  0.6201 -0.0561 -0.3621
  232DG     H13 5326   3.349   4.338   2.737  0.0218  1.3907  1.7183
  232DG     H14 5327   3.303   4.443   2.607 -0.3535 -1.5234 -0.0359
  232DG     H15 5328   3.613   4.760   3.103 -1.2301 -0.2379  1.2706
  232DG     H16 5329   3.543   4.601   3.137 -0.3667 -1.2591 -1.8134
  232DG     C17 5330   3.364   4.546   2.771 -0.3812  0.4312 -0.0477
  232DG     C18 5331   3.490   4.667   2.939 -0.7367  0.4885 -0.6227
  232DG     O19 5332   3.473   4.551   2.858  0.3805  0.1074  0.2249
  232DG     H20 5333   3.274   4.532   2.832 -0.6516  2.7169  0.1593
  232DG     H21 5334   3.340   4.637   2.716 -4.1718  0.6877  1.6500
  232DG     H22 5335   3.391   4.681   2.983 -0.8682 -0.8656 -0.4428
  232DG     H23 5336   3.513   4.747   2.869  3.4972 -0.0435 -0.0945
  233DG      C1 5337   2.728   1.114   4.714 -0.4966  0.1175 -0.4227
  233DG      C2 5338   3.147   0.687   4.928  0.3671 -0.0003  0.1926
  233DG      H3 5339   2.775   1.188   4.779 -3.1503  0.9480  0.6848
  233DG      H4 5340   2.625   1.145   4.699 -0.5044  1.6297  2.2559
  233DG      H5 5341   2.783   1.113   4.619  0.9462  1.8865  0.3243
  233DG      H6 5342   3.195   0.626   5.005  0.5150  1.0520  0.9628
  233DG      H7 5343   3.084   0.619   4.872 -1.3516  2.9632 -1.7543
  233DG      H8 5344   3.226   0.734   4.870  0.3239  1.8892  1.5696
  233DG      O9 5345   2.728   0.995   4.792  0.0514 -0.4226  0.2334
  233DG     O10 5346   3.053   0.787   4.973 -0.5960 -0.4603  0.2916
  233DG     C11 5347   2.626   1.005   4.904 -0.8230  0.0471 -0.0740
  233DG     C12 5348   2.991   0.767   5.097  0.5072  0.1965  0.1060
  233DG     H13 5349   2.530   1.008   4.851 -0.2226  0.5141 -1.1749
  233DG     H14 5350   2.640   1.090   4.971 -3.1948 -0.2820  0.9436
  233DG     H15 5351   3.056   0.811   5.172  0.3521  0.3469  0.1508
  233DG     H16 5352   2.967   0.661   5.107  0.9544 -0.0321 -1.0562
  233DG     C17 5353   2.647   0.870   4.978 -0.6179 -0.6422 -0.9837
  233DG     C18 5354   2.853   0.843   5.102 -0.2492 -0.3379 -0.3969
  233DG     O19 5355   2.779   0.822   4.974 -0.0695  0.6196  0.2322
  233DG     H20 5356   2.595   0.789   4.929 -1.1738 -0.1288 -1.2567
  233DG     H21 5357   2.596   0.879   5.074  0.1831 -0.9778 -0.5102
  233DG     H22 5358   2.799   0.806   5.189  1.5709 -2.5042 -0.1152
  233DG     H23 5359   2.871   0.950   5.107 -1.0293 -0.1381 -1.3825
  234DG      C1 5360   0.806   2.502   4.596  0.2324 -0.5475  0.2698
  234DG      C2 5361   0.651   2.483   4.013 -0.5985 -0.0354 -0.3344
  234DG      H3 5362   0.893   2.440   4.618 -0.1601 -0.8881  0.8861
  234DG      H4 5363   0.755   2.527   4.689 -1.4773  0.9909 -1.0179
  234DG      H5 5364   0.842   2.600   4.564  0.1295 -0.8543 -0.7944
  234DG      H6 5365   0.611   2.488   3.912 -1.6626 -1.2531 -0.0049
  234DG      H7 5366   0.641   2.576   4.069 -1.6169 -0.9425  1.0748
  234DG      H8 5367   0.755   2.454   4.000  0.0958  1.4443  1.3834
  234DG      O9 5368   0.729   2.450   4.487  0.4458  0.5535  0.1497
  234DG     O10 5369   0.608   2.376   4.093  0.2292 -0.0697 -0.2540
  234DG     C11 5370   0.674   2.323   4.523 -0.0351  0.8759  0.4923
  234DG     C12 5371   0.475   2.399   4.142 -1.1375 -0.2131  0.2921
  234DG     H13 5372   0.611   2.325   4.612  1.0676  0.3201  1.3077
  234DG     H14 5373   0.756   2.252   4.532 -0.2784  0.4016 -0.7337
  234DG     H15 5374   0.404   2.403   4.060  0.0224  0.3873 -0.7028
  234DG     H16 5375   0.473   2.495   4.193  0.7530 -0.2221  0.4539
  234DG     C17 5376   0.615   2.265   4.398 -0.2486 -0.1979 -0.1558
  234DG     C18 5377   0.441   2.293   4.243  0.0371  0.0165 -0.5557
  234DG     O19 5378   0.494   2.334   4.369 -0.4101 -0.1179 -0.2626
  234DG     H20 5379   0.582   2.165   4.428 -0.6447 -0.4979 -1.5039
  234DG     H21 5380   0.686   2.257   4.315 -0.1541 -0.3680 -0.0605
  234DG     H22 5381   0.333   2.280   4.251  0.1760  0.0454  2.4234
  234DG     H23 5382   0.472   2.194   4.210 -2.0468 -0.7612 -0.3163
  235DG      C1 5383   2.670   5.221   3.438 -0.5719 -0.5167 -0.2936
  235DG      C2 5384   2.632   4.535   3.098  0.1891  0.2459 -0.0047
  235DG      H3 5385   2.662   5.233   3.330  2.0511  0.7463 -0.4427
  235DG      H4 5386   2.736   5.300   3.476 -0.4689 -1.3659  1.3691
  235DG      H5 5387   2.572   5.252   3.474 -0.9258 -2.3081  0.3864
  235DG      H6 5388   2.639   4.442   3.155 -1.0577  0.3757  0.3806
  235DG      H7 5389   2.526   4.556   3.108 -0.0189 -0.5219 -0.4912
  235DG      H8 5390   2.653   4.523   2.992  1.1562  1.0514  0.0779
  235DG      O9 5391   2.704   5.088   3.475 -0.5459 -0.1648  0.2844
  235DG     O10 5392   2.713   4.645   3.151 -0.1280  0.6150  0.2108
  235DG     C11 5393   2.841   5.054   3.443 -1.0538  0.0095  0.0370
  235DG     C12 5394   2.681   4.765   3.080  0.4423  0.0912 -0.5277
  235DG     H13 5395   2.863   4.964   3.500 -1.0482  1.0235  1.7347
  235DG     H14 5396   2.914   5.119   3.493 -0.1939 -0.2949 -0.7863
  235DG     H15 5397   2.577   4.794   3.099  0.6307  0.8345 -0.6031
  235DG     H16 5398   2.689   4.747   2.973 -0.6415 -0.7811 -0.4806
  235DG     C17 5399   2.862   5.020   3.296  0.4287 -0.4508 -0.0004
  235DG     C18 5400   2.787   4.876   3.120  0.2389  0.2994 -0.4405
  235DG     O19 5401   2.772   4.914   3.255 -0.1778  0.4211  0.2425
  235DG     H20 5402   2.963   4.986   3.273  0.5005 -1.9061  2.1404
  235DG     H21 5403   2.845   5.104   3.228  0.0964 -3.0699 -3.3931
  235DG     H22 5404   2.888   4.835   3.109 -0.4848 -1.3205 -1.4058
  235DG     H23 5405   2.789   4.962   3.053 -0.0121  1.1060  0.5612
  236DG      C1 5406   0.593   1.396   3.291 -0.8224 -0.0213 -0.2104
  236DG      C2 5407  -0.002   1.694   3.556  0.8626 -0.2965 -0.2461
  236DG      H3 5408   0.647   1.372   3.384 -1.3302  1.5584  0.5172
  236DG      H4 5409   0.659   1.403   3.205  2.8438 -0.9921  2.2424
  236DG      H5 5410   0.532   1.312   3.256  1.1870 -1.2333 -1.0132
  236DG      H6 5411  -0.068   1.614   3.522 -0.1480  0.3847  0.0610
  236DG      H7 5412   0.057   1.657   3.640  1.8741  0.4068 -0.6340
  236DG      H8 5413  -0.066   1.777   3.588 -2.6647 -2.3062 -1.5445
  236DG      O9 5414   0.519   1.512   3.302 -0.2612  0.5645  0.0060
  236DG     O10 5415   0.091   1.725   3.450  0.4131  0.2004 -0.0941
  236DG     C11 5416   0.599   1.631   3.317  0.1710  0.1586  0.1244
  236DG     C12 5417   0.181   1.822   3.486 -0.1194 -0.0942 -0.0192
  236DG     H13 5418   0.676   1.640   3.240  1.1136 -1.0671  0.8841
  236DG     H14 5419   0.650   1.638   3.413  1.2318 -1.5776 -0.2688
  236DG     H15 5420   0.227   1.804   3.583 -0.7971  1.0543  0.5322
  236DG     H16 5421   0.132   1.919   3.492  0.3716  0.2719 -1.6564
  236DG     C17 5422   0.503   1.754   3.299 -0.3679  0.3916 -0.3223
  236DG     C18 5423   0.286   1.834   3.379  0.5867  0.0638  0.2226
  236DG     O19 5424   0.396   1.743   3.397 -0.1562 -0.0025  0.0001
  236DG     H20 5425   0.468   1.752   3.196 -0.2326  2.4083 -0.4444
  236DG     H21 5426   0.560   1.846   3.316  0.5047 -0.3968  1.2121
  236DG     H22 5427   0.241   1.825   3.280 -1.9357 -1.6487  1.4096
  236DG     H23 5428   0.327   1.933   3.397 -2.4687  1.9207 -1.9770
  237DG      C1 5429   0.022   3.946   3.817 -0.3061  0.6020  1.0810
  237DG      C2 5430  -0.270   4.552   3.715  0.5264 -0.4564  0.1304
  237DG      H3 5431   0.042   3.931   3.711  1.2759  0.4884  1.3796
  237DG      H4 5432   0.009   3.850   3.866  1.0317  0.0817  0.4543
  237DG      H5 5433   0.111   3.993   3.858  0.0422  2.3716 -1.4556
  237DG      H6 5434  -0.177   4.606   3.729  1.2543 -0.7954 -2.7778
  237DG      H7 5435  -0.266   4.524   3.610  2.3393  1.1631 -0.2792
  237DG      H8 5436  -0.358   4.612   3.736  0.4637  0.4608 -2.3931
  237DG      O9 5437  -0.094   4.020   3.826  0.3629  0.3383  0.5426
  237DG     O10 5438  -0.278   4.442   3.800 -0.0700 -0.1418 -0.2691
  237DG     C11 5439  -0.158   4.014   3.956  0.1977  0.0515  0.0504
  237DG     C12 5440  -0.252   4.476   3.938 -0.0311 -0.0668  0.2699
  237DG     H13 5441  -0.086   4.019   4.038  1.8443 -1.3733 -1.2522
  237DG     H14 5442  -0.204   3.917   3.972 -0.2903  0.1868 -0.5136
  237DG     H15 5443  -0.309   4.563   3.971  0.2113  0.7070 -1.2369
  237DG     H16 5444  -0.150   4.510   3.956  0.3541  0.8935 -3.0385
  237DG     C17 5445  -0.258   4.122   3.985  0.5301  0.3193  0.4471
  237DG     C18 5446  -0.298   4.354   4.005 -0.4943  0.6930 -0.1485
  237DG     O19 5447  -0.209   4.250   3.959  0.0686  0.4334 -0.6494
  237DG     H20 5448  -0.293   4.114   4.088 -0.7792 -0.0400 -0.0085
  237DG     H21 5449  -0.347   4.103   3.925 -0.6449 -1.1068  2.4757
  237DG     H22 5450  -0.300   4.363   4.114  2.3362  0.0546  0.0222
  237DG     H23 5451  -0.400   4.330   3.977 -0.3909  0.5482 -0.4030
  238DG      C1 5452   3.592   3.085   0.671 -0.1531 -0.1327 -0.0605
  238DG      C2 5453   3.755   3.361  -0.119 -0.0947 -0.9553 -0.0283
  238DG      H3 5454   3.580   3.012   0.752  1.5127 -1.7621 -1.1806
  238DG      H4 5455   3.490   3.123   0.666 -0.2381 -0.3679 -0.0955
  238DG      H5 5456   3.665   3.159   0.706 -1.2944  0.6830  0.6485
  238DG      H6 5457   3.670   3.342  -0.184  0.0501 -3.1339  0.3484
  238DG      H7 5458   3.761   3.468  -0.098  0.4206 -0.4625 -2.3557
  238DG      H8 5459   3.848   3.357  -0.176  0.2785  1.6842  0.2480
  238DG      O9 5460   3.636   3.016   0.553  0.0800 -0.2653  0.5503
  238DG     O10 5461   3.753   3.290   0.004  0.3389  0.2046  0.1253
  238DG     C11 5462   3.602   3.081   0.438 -0.0395  0.3131 -0.2198
  238DG     C12 5463   3.766   3.153  -0.018 -0.1112  0.0558 -0.3431
  238DG     H13 5464   3.627   3.186   0.446  2.1389 -0.1723 -0.1351
  238DG     H14 5465   3.499   3.049   0.424 -0.4526  0.2776  2.4652
  238DG     H15 5466   3.846   3.117  -0.082 -0.7666 -1.7280 -0.2412
  238DG     H16 5467   3.678   3.103  -0.060 -0.3188 -0.8966  1.1259
  238DG     C17 5468   3.686   3.017   0.326  0.1285 -0.6037  0.1365
  238DG     C18 5469   3.792   3.080   0.117 -0.2073 -0.3833  1.0910
  238DG     O19 5470   3.684   3.109   0.209 -0.2057 -0.5521 -0.1965
  238DG     H20 5471   3.650   2.918   0.299  4.0830 -2.2024  0.0551
  238DG     H21 5472   3.789   3.007   0.360  0.3778 -1.3671 -0.8199
  238DG     H22 5473   3.796   2.973   0.099 -0.7118 -0.4249  1.2001
  238DG     H23 5474   3.890   3.106   0.156  1.2188 -1.2390 -1.6112
  239DG      C1 5475   4.093   4.662   2.234 -0.4763  0.3996 -0.4312
  239DG      C2 5476   3.831   4.688   1.559 -0.2258  0.0476  0.2669
  239DG      H3 5477   4.111   4.591   2.315  1.2610 -0.6561 -1.6822
  239DG      H4 5478   4.009   4.725   2.263  1.3980  2.3223  1.1495
  239DG      H5 5479   4.182   4.723   2.223 -0.2607  0.4982  1.5231
  239DG      H6 5480   3.817   4.767   1.632  1.2945  0.9898 -0.4123
  239DG      H7 5481   3.885   4.733   1.476  0.6002 -1.2103  0.0934
  239DG      H8 5482   3.735   4.642   1.533  0.2982 -0.2178 -1.3532
  239DG      O9 5483   4.055   4.591   2.110  0.8028  0.2511  0.0006
  239DG     O10 5484   3.909   4.587   1.614  0.1644 -0.4492 -0.0894
  239DG     C11 5485   4.151   4.502   2.060  0.0211  0.9346  0.2522
  239DG     C12 5486   4.046   4.626   1.613 -0.0503  0.0875  0.2007
  239DG     H13 5487   4.177   4.416   2.121  0.4394 -0.3597 -1.6766
  239DG     H14 5488   4.251   4.546   2.060 -0.2119  1.4814 -0.2852
  239DG     H15 5489   4.052   4.731   1.642 -0.5208 -0.2948  1.7593
  239DG     H16 5490   4.088   4.616   1.513  0.1350 -1.3056  0.4009
  239DG     C17 5491   4.109   4.457   1.927 -0.0454 -0.7066 -0.1900
  239DG     C18 5492   4.127   4.531   1.694  0.2303 -0.0212  0.4313
  239DG     O19 5493   4.099   4.562   1.829 -0.3725  0.5601 -0.2407
  239DG     H20 5494   4.013   4.405   1.932  0.0976 -0.9014  0.7022
  239DG     H21 5495   4.175   4.380   1.888 -0.4515 -1.0301 -0.2481
  239DG     H22 5496   4.108   4.428   1.665 -2.4631  0.3742  0.5463
  239DG     H23 5497   4.235   4.545   1.683 -0.0954  0.9500 -2.4138
  240DG      C1 5498   3.631   1.905   0.071  0.0964 -0.0448 -0.0842
  240DG      C2 5499   3.691   2.704  -0.010 -0.4081  0.0349 -0.6444
  240DG      H3 5500   3.595   1.845   0.155  0.0766 -0.8668 -0.6637
  240DG      H4 5501   3.733   1.873   0.053  0.5541  1.5502 -0.4477
  240DG      H5 5502   3.570   1.903  -0.020 -1.8349  2.6584  1.0383
  240DG      H6 5503   3.676   2.671  -0.113  0.3219  2.2486 -1.5093
  240DG      H7 5504   3.652   2.805  -0.003  2.0930  1.2826 -2.8115
  240DG      H8 5505   3.800   2.701  -0.010 -0.4103 -0.0797 -0.8573
  240DG      O9 5506   3.617   2.042   0.108 -0.0545 -0.2472  0.4407
  240DG     O10 5507   3.655   2.608   0.087 -0.3989  0.4574 -0.2096
  240DG     C11 5508   3.487   2.100   0.104 -0.0847 -0.8083  0.2421
  240DG     C12 5509   3.514   2.594   0.096  0.3371  0.3414  0.0460
  240DG     H13 5510   3.414   2.027   0.139 -0.6428 -0.7914 -0.8198
  240DG     H14 5511   3.452   2.121   0.002  1.0120  0.1139  0.0340
  240DG     H15 5512   3.480   2.577  -0.006 -0.0964  1.2586  0.0331
  240DG     H16 5513   3.485   2.692   0.135 -1.3489  0.1732 -0.7124
  240DG     C17 5514   3.481   2.232   0.189  0.5916  0.0220  0.1281
  240DG     C18 5515   3.491   2.472   0.187 -0.0867 -0.1568 -0.4105
  240DG     O19 5516   3.520   2.348   0.112 -0.3084 -0.0186  0.1166
  240DG     H20 5517   3.537   2.237   0.282 -1.1062  1.7805  1.1496
  240DG     H21 5518   3.377   2.256   0.213  1.0192 -0.0497  2.2066
  240DG     H22 5519   3.547   2.483   0.280  0.9314 -0.2555 -1.0005
  240DG     H23 5520   3.388   2.464   0.221 -0.0691 -1.6485 -0.6518
  241DG      C1 5521   5.090   2.459   0.454 -0.0527 -0.2072 -0.4722
  241DG      C2 5522   4.487   2.892   0.542 -0.6508  0.4417 -0.1925
  241DG      H3 5523   5.134   2.430   0.359  2.1912  1.0602  0.1245
  241DG      H4 5524   5.155   2.427   0.535 -0.0733  3.0122  0.9476
  241DG      H5 5525   5.100   2.567   0.461  0.4309 -0.0065 -3.2880
  241DG      H6 5526   4.488   2.921   0.437  1.5020  0.9854 -0.0694
  241DG      H7 5527   4.395   2.834   0.556 -0.1512 -0.6329 -1.2796
  241DG      H8 5528   4.491   2.978   0.609  0.7911 -0.3697  0.8120
  241DG      O9 5529   4.954   2.419   0.487  0.1370 -0.0886 -0.2736
  241DG     O10 5530   4.596   2.805   0.562  0.4080 -0.3895 -0.9692
  241DG     C11 5531   4.859   2.473   0.394  0.0720 -0.3000 -0.5843
  241DG     C12 5532   4.714   2.867   0.522 -0.3788 -0.2071  0.1284
  241DG     H13 5533   4.769   2.415   0.412  1.5253 -2.0760  1.3593
  241DG     H14 5534   4.889   2.463   0.289 -1.4438  0.1190 -1.0777
  241DG     H15 5535   4.717   2.967   0.563 -0.7768  0.7650 -2.0580
  241DG     H16 5536   4.724   2.858   0.413  0.2210 -0.3143  0.1918
  241DG     C17 5537   4.826   2.621   0.414  0.0024 -0.2689  0.0205
  241DG     C18 5538   4.830   2.793   0.583  0.6253  0.5457  1.1625
  241DG     O19 5539   4.824   2.656   0.554  0.1356  0.1897  0.5149
  241DG     H20 5540   4.746   2.656   0.350  1.1538 -0.7927 -1.7662
  241DG     H21 5541   4.916   2.670   0.376 -1.8582  3.9826  0.5132
  241DG     H22 5542   4.923   2.840   0.552 -0.2393  1.1527 -0.6379
  241DG     H23 5543   4.833   2.807   0.691  2.9541 -0.3818  1.2664
  242DG      C1 5544   4.639   0.696   5.117  0.5257 -0.3285  0.4826
  242DG      C2 5545   4.518   0.621   5.784 -0.4876 -0.2062 -0.5612
  242DG      H3 5546   4.736   0.651   5.139  0.9455  0.3923  0.1509
  242DG      H4 5547   4.652   0.804   5.118  0.0400 -0.2747  0.8462
  242DG      H5 5548   4.627   0.668   5.012  1.3717  0.2947  0.2094
  242DG      H6 5549   4.456   0.562   5.853  2.3682 -0.5104  1.9406
  242DG      H7 5550   4.618   0.577   5.786  0.1174  1.1205 -0.5034
  242DG      H8 5551   4.543   0.709   5.843 -3.2804 -0.5982  1.4296
  242DG      O9 5552   4.543   0.644   5.206  0.0961 -0.3708  0.2545
  242DG     O10 5553   4.470   0.639   5.655  0.5007  0.4739  0.3935
  242DG     C11 5554   4.409   0.667   5.167  0.3974 -0.5027 -0.5041
  242DG     C12 5555   4.344   0.704   5.653 -0.5084 -0.3279 -0.5792
  242DG     H13 5556   4.381   0.615   5.075 -0.4888 -2.4254  0.8060
  242DG     H14 5557   4.389   0.774   5.158 -1.8812 -0.9200 -1.2774
  242DG     H15 5558   4.350   0.813   5.652 -2.5869 -0.1586  0.0615
  242DG     H16 5559   4.276   0.672   5.732  0.5735  1.6195  1.2668
  242DG     C17 5560   4.322   0.617   5.286  0.3364  0.0689 -0.0123
  242DG     C18 5561   4.277   0.660   5.517 -0.2801 -0.0572 -0.3804
  242DG     O19 5562   4.366   0.674   5.411  0.0851 -0.3557  0.4908
  242DG     H20 5563   4.346   0.510   5.289 -0.8421 -0.3661 -2.8962
  242DG     H21 5564   4.215   0.626   5.266  0.2967 -0.0011  0.1576
  242DG     H22 5565   4.246   0.556   5.532 -0.3009  0.0485  0.3407
  242DG     H23 5566   4.185   0.709   5.488 -0.1570 -0.3651 -1.3245
  243DG      C1 5567   0.264   2.014   5.438 -0.3140 -0.3209 -0.6374
  243DG      C2 5568   0.626   2.403   5.881  0.1254  0.0673  0.1082
  243DG      H3 5569   0.162   2.050   5.444 -0.7118 -1.6338  0.7998
  243DG      H4 5570   0.288   1.973   5.536  2.6484  0.7430 -0.8152
  243DG      H5 5571   0.269   1.936   5.362 -1.3339 -0.2374 -0.7952
  243DG      H6 5572   0.561   2.485   5.853 -0.2873  0.4539  2.0596
  243DG      H7 5573   0.585   2.334   5.956  0.8638 -0.9212 -0.3715
  243DG      H8 5574   0.718   2.451   5.914 -0.2481  1.8735 -1.3252
  243DG      O9 5575   0.359   2.113   5.419  0.1834  0.1914 -0.2876
  243DG     O10 5576   0.648   2.330   5.759 -0.0940  0.6349  0.0132
  243DG     C11 5577   0.470   2.081   5.337  0.0911 -0.4364  0.0044
  243DG     C12 5578   0.679   2.405   5.635  0.2277  0.4904 -0.5584
  243DG     H13 5579   0.449   2.063   5.232  0.2992 -0.4381 -0.0363
  243DG     H14 5580   0.509   1.986   5.375 -2.7553 -1.2717  1.1046
  243DG     H15 5581   0.763   2.473   5.652  1.7428 -0.9641 -1.8395
  243DG     H16 5582   0.592   2.469   5.622  0.0851  0.4903  0.3242
  243DG     C17 5583   0.578   2.190   5.346  0.2091  0.4743 -0.8491
  243DG     C18 5584   0.704   2.309   5.511  1.0149  0.5386  0.4017
  243DG     O19 5585   0.583   2.244   5.476 -0.2795 -0.5350  0.2736
  243DG     H20 5586   0.557   2.275   5.281  1.1468  0.8993 -0.6246
  243DG     H21 5587   0.679   2.157   5.322  0.8309  1.2831  0.4908
  243DG     H22 5588   0.725   2.377   5.429 -3.3551  1.1456 -0.4562
  243DG     H23 5589   0.777   2.229   5.528  0.6006  0.2540  0.8731
  244DG      C1 5590   5.118   4.511   2.891  0.3410  0.2151 -0.3321
  244DG      C2 5591   5.673   4.835   3.024  0.2674 -0.3824 -0.0020
  244DG      H3 5592   5.039   4.500   2.816 -0.9347  0.9738  0.8550
  244DG      H4 5593   5.087   4.596   2.952  1.0158  0.4901 -0.3641
  244DG      H5 5594   5.120   4.413   2.939 -2.8091  0.2259  0.0648
  244DG      H6 5595   5.761   4.898   3.007  1.0885 -1.3303  0.5637
  244DG      H7 5596   5.598   4.893   3.078 -0.4330  0.7995 -2.1191
  244DG      H8 5597   5.704   4.746   3.079 -0.8557 -0.5744  0.3440
  244DG      O9 5598   5.247   4.554   2.848  0.0457  0.6193  0.2245
  244DG     O10 5599   5.611   4.795   2.906 -0.1298  0.9597  0.0345
  244DG     C11 5600   5.302   4.465   2.756 -0.4546 -0.5860 -0.0576
  244DG     C12 5601   5.694   4.739   2.800 -0.5488  0.8846 -0.0246
  244DG     H13 5602   5.233   4.420   2.684 -1.1235  2.0090 -1.1497
  244DG     H14 5603   5.327   4.379   2.817  1.2613  0.3394  0.6073
  244DG     H15 5604   5.760   4.667   2.849 -0.1238  1.2701 -0.0289
  244DG     H16 5605   5.750   4.817   2.748 -1.1379  0.8009 -0.8112
  244DG     C17 5606   5.424   4.513   2.684  0.2682  0.4117 -0.3415
  244DG     C18 5607   5.607   4.659   2.699 -0.0711 -0.5455 -0.7853
  244DG     O19 5608   5.502   4.592   2.768 -0.1342  0.0080  0.2941
  244DG     H20 5609   5.391   4.560   2.591  1.3364  0.8499 -0.5150
  244DG     H21 5610   5.485   4.428   2.656  0.8914  0.2308  1.4828
  244DG     H22 5611   5.578   4.724   2.617  3.2029  0.0209 -1.6341
  244DG     H23 5612   5.660   4.584   2.640 -0.8685 -2.4819  0.8530
  245DG      C1 5613   5.306   5.005   4.762  0.1477  0.5201 -0.0724
  245DG      C2 5614   5.397   5.801   4.815  0.1440  0.4754 -0.0722
  245DG      H3 5615   5.401   4.952   4.775 -0.2086  0.1002  0.9803
  245DG      H4 5616   5.248   4.969   4.678  2.9189 -0.9048 -1.5352
  245DG      H5 5617   5.263   4.992   4.862  1.4391  0.8799  0.5532
  245DG      H6 5618   5.390   5.792   4.924  0.9079 -0.5114 -0.0844
  245DG      H7 5619   5.428   5.902   4.788  0.7765  1.0038  2.3332
  245DG      H8 5620   5.300   5.768   4.778 -0.0092  1.2844 -0.4148
  245DG      O9 5621   5.343   5.139   4.742 -0.4080 -0.2920  0.4338
  245DG     O10 5622   5.504   5.709   4.788  0.1080 -0.7557 -0.5337
  245DG     C11 5623   5.451   5.153   4.646  0.2486 -0.0233 -0.1916
  245DG     C12 5624   5.467   5.572   4.787  0.3711  0.1345 -0.0394
  245DG     H13 5625   5.414   5.112   4.552 -1.2954  3.1067 -1.1028
  245DG     H14 5626   5.537   5.090   4.667  0.8247 -0.3272 -3.0792
  245DG     H15 5627   5.397   5.567   4.704 -1.6570  0.7522  1.5360
  245DG     H16 5628   5.404   5.553   4.874 -1.8039  2.7013 -0.8926
  245DG     C17 5629   5.495   5.295   4.634 -0.9166 -0.1629  0.0148
  245DG     C18 5630   5.578   5.480   4.756 -0.2902 -0.2161  0.1781
  245DG     O19 5631   5.548   5.340   4.754  0.0011 -0.2372  0.4881
  245DG     H20 5632   5.412   5.362   4.610 -0.7232 -0.1492 -0.6342
  245DG     H21 5633   5.560   5.285   4.547  0.2823  0.5437  0.7944
  245DG     H22 5634   5.638   5.521   4.674  0.7145 -0.4803  0.7594
  245DG     H23 5635   5.631   5.495   4.851  0.2735 -0.1070 -0.1489
  246DG      C1 5636   4.803   4.600   3.031 -0.2115 -0.0377  0.4445
  246DG      C2 5637   4.901   3.801   2.918  0.2083 -0.0250  0.3895
  246DG      H3 5638   4.754   4.582   3.127 -1.3366  1.1162  0.1169
  246DG      H4 5639   4.737   4.670   2.980  1.0842  1.4157  0.6691
  246DG      H5 5640   4.894   4.659   3.046 -1.3699  1.7442  0.8340
  246DG      H6 5641   4.962   3.743   2.849  1.4308 -0.0393  1.4504
  246DG      H7 5642   4.954   3.827   3.009 -0.2828  0.0145  0.6688
  246DG      H8 5643   4.823   3.728   2.942  1.0903 -1.3163 -0.5002
  246DG      O9 5644   4.833   4.487   2.951 -0.7896 -0.3694  1.1613
  246DG     O10 5645   4.835   3.905   2.846  0.3937  0.2871  0.0839
  246DG     C11 5646   4.716   4.424   2.909 -0.2084 -0.1059  0.5164
  246DG     C12 5647   4.915   4.003   2.789  0.2419  0.9933 -0.2163
  246DG     H13 5648   4.644   4.497   2.872 -0.9667  0.3543  2.7870
  246DG     H14 5649   4.665   4.375   2.992 -1.2541 -1.1860 -0.7143
  246DG     H15 5650   4.969   3.951   2.710  1.0001  1.1731  0.1696
  246DG     H16 5651   4.987   4.047   2.858  1.9283  1.2391 -2.0266
  246DG     C17 5652   4.739   4.323   2.796  0.4081 -0.9878 -0.1046
  246DG     C18 5653   4.819   4.111   2.739  0.0566  0.6834 -0.4815
  246DG     O19 5654   4.797   4.204   2.845 -0.7790  0.3723  0.0553
  246DG     H20 5655   4.793   4.377   2.718 -1.4353  1.8891  0.4480
  246DG     H21 5656   4.644   4.297   2.751 -0.6907  1.3784  0.6481
  246DG     H22 5657   4.871   4.152   2.653  1.5740 -0.3323 -0.0931
  246DG     H23 5658   4.724   4.065   2.711  0.3677  0.2334 -0.8237
  247DG      C1 5659   1.273   2.086   2.405 -0.0536  0.3608 -0.0001
  247DG      C2 5660   1.797   2.298   2.685  0.2867 -0.3035 -0.2289
  247DG      H3 5661   1.210   2.051   2.322 -1.6083  1.4051  0.6947
  247DG      H4 5662   1.286   2.194   2.400 -2.5226  0.9324  2.9304
  247DG      H5 5663   1.215   2.065   2.495 -1.9576 -0.8189 -1.4186
  247DG      H6 5664   1.731   2.370   2.733  3.5466  2.9364 -0.1688
  247DG      H7 5665   1.865   2.246   2.753  0.0735  0.6706  0.7654
  247DG      H8 5666   1.844   2.365   2.613  0.7232 -0.0446  0.2916
  247DG      O9 5667   1.399   2.015   2.404  0.2145  0.0406 -0.3130
  247DG     O10 5668   1.717   2.200   2.615 -0.0711  0.4127  0.5689
  247DG     C11 5669   1.399   1.884   2.458 -0.1251  0.2056  0.1196
  247DG     C12 5670   1.798   2.117   2.531  0.0763  0.2474  0.1531
  247DG     H13 5671   1.360   1.818   2.381 -1.0163  1.0997 -0.2283
  247DG     H14 5672   1.347   1.868   2.552  1.0086 -1.9578  0.4276
  247DG     H15 5673   1.863   2.046   2.582  0.6744 -0.5166 -1.5976
  247DG     H16 5674   1.868   2.164   2.463  0.4570 -0.4307  0.0693
  247DG     C17 5675   1.547   1.848   2.481  0.2481  0.5908  0.4472
  247DG     C18 5676   1.698   2.028   2.459  0.1141  0.3639 -0.5570
  247DG     O19 5677   1.620   1.952   2.549  0.3564  0.0999 -0.1673
  247DG     H20 5678   1.599   1.820   2.389  1.4376 -0.5163  1.4292
  247DG     H21 5679   1.545   1.760   2.544  2.3211 -0.2493 -0.5718
  247DG     H22 5680   1.643   2.089   2.388 -0.8115 -2.0127 -1.9939
  247DG     H23 5681   1.759   1.972   2.388 -0.2944  2.7013 -2.9080
  248DG      C1 5682   3.677   2.440   2.010 -0.0704 -0.1514 -0.0410
  248DG      C2 5683   4.198   2.084   1.613 -0.3553  0.0532  0.3602
  248DG      H3 5684   3.675   2.521   2.084  3.3945 -2.4625  2.9659
  248DG      H4 5685   3.745   2.385   2.075  0.8207  1.3282  0.3337
  248DG      H5 5686   3.575   2.404   2.004 -0.4518  0.9326 -0.2998
  248DG      H6 5687   4.138   2.091   1.522  0.4109 -0.0353 -0.1626
  248DG      H7 5688   4.302   2.079   1.580 -0.4118  0.0125  0.1829
  248DG      H8 5689   4.174   1.988   1.659 -0.7377  1.0717  2.4073
  248DG      O9 5690   3.742   2.459   1.890  0.1834 -0.4446  0.1025
  248DG     O10 5691   4.157   2.197   1.693 -0.2407  0.5310  0.4932
  248DG     C11 5692   3.856   2.542   1.912  0.1633  0.2231 -0.6780
  248DG     C12 5693   4.036   2.174   1.759 -0.2008  0.8751  0.0561
  248DG     H13 5694   3.906   2.507   2.002 -0.1505  1.7013  0.0890
  248DG     H14 5695   3.830   2.645   1.935  0.0378  0.0216  0.1169
  248DG     H15 5696   4.049   2.101   1.840  0.8713 -0.0320 -0.8981
  248DG     H16 5697   3.959   2.135   1.693 -0.6543 -0.9885  1.5592
  248DG     C17 5698   3.939   2.533   1.784 -0.6138 -0.2284 -0.3940
  248DG     C18 5699   3.981   2.297   1.823 -0.4026  0.5018  0.0481
  248DG     O19 5700   3.965   2.405   1.729 -0.0722  0.1500 -0.2526
  248DG     H20 5701   4.040   2.561   1.815 -0.7088 -1.4449  1.1878
  248DG     H21 5702   3.901   2.597   1.705 -2.0933  2.6907  2.4454
  248DG     H22 5703   3.888   2.277   1.876 -0.6226  1.7575  0.1692
  248DG     H23 5704   4.047   2.323   1.906  0.7989 -1.8239 -0.0952
  249DG      C1 5705   0.720   1.336   4.366 -0.0429 -0.2661  0.5968
  249DG      C2 5706   0.623   0.581   4.472  0.1875  0.2460 -0.0913
  249DG      H3 5707   0.709   1.293   4.266 -0.5572 -2.5214  1.5701
  249DG      H4 5708   0.822   1.307   4.389 -0.1510 -0.3735  0.9436
  249DG      H5 5709   0.717   1.445   4.374 -2.3426 -0.2935  0.7149
  249DG      H6 5710   0.725   0.543   4.468 -0.2175 -0.8822 -0.1636
  249DG      H7 5711   0.563   0.499   4.512  1.7258 -0.3504  1.0973
  249DG      H8 5712   0.583   0.611   4.375 -1.0699  0.7658  0.5594
  249DG      O9 5713   0.619   1.276   4.449  0.1028 -0.0235 -0.3138
  249DG     O10 5714   0.613   0.697   4.557 -0.1930  0.3700  0.3125
  249DG     C11 5715   0.640   1.141   4.466  0.3594 -0.0072  0.5144
  249DG     C12 5716   0.474   0.728   4.588 -0.4592 -0.9176 -0.2559
  249DG     H13 5717   0.723   1.121   4.534 -1.7298 -1.0113  2.9031
  249DG     H14 5718   0.660   1.097   4.368  0.3829 -0.7763  0.8643
  249DG     H15 5719   0.435   0.667   4.670 -0.5731  1.2894  1.4075
  249DG     H16 5720   0.415   0.721   4.497  0.4201 -0.3870 -0.8906
  249DG     C17 5721   0.514   1.087   4.532 -0.2200 -0.4055  0.3758
  249DG     C18 5722   0.435   0.878   4.609 -0.5205  0.7796 -0.3944
  249DG     O19 5723   0.535   0.947   4.536  0.8101 -0.5052 -0.2573
  249DG     H20 5724   0.424   1.090   4.470 -1.8189 -2.8040  2.3868
  249DG     H21 5725   0.500   1.123   4.634 -0.2854 -2.1089  1.0054
  249DG     H22 5726   0.338   0.906   4.567 -0.5548  1.3989  0.0919
  249DG     H23 5727   0.440   0.908   4.714 -0.0232  0.1848 -0.2413
  250DG      C1 5728   3.123   4.670   0.069 -0.9623 -0.4116  0.3688
  250DG      C2 5729   2.946   5.319   0.300 -0.4421 -0.4679  0.2339
  250DG      H3 5730   3.156   4.720  -0.022 -1.8057 -0.4558  0.0309
  250DG      H4 5731   3.038   4.610   0.037 -1.8103  1.8171 -1.8875
  250DG      H5 5732   3.217   4.619   0.091  0.8358  1.9383 -1.3296
  250DG      H6 5733   3.016   5.380   0.358 -1.0790 -0.8345  1.4232
  250DG      H7 5734   2.956   5.360   0.200 -0.2872  0.3164  0.5607
  250DG      H8 5735   2.845   5.344   0.331 -0.3731  0.4216 -0.2322
  250DG      O9 5736   3.076   4.760   0.167 -0.0704  0.0534 -0.0629
  250DG     O10 5737   2.980   5.184   0.312 -0.3245 -0.1046 -0.0893
  250DG     C11 5738   3.105   4.721   0.304  0.5621 -0.3665 -0.1802
  250DG     C12 5739   2.964   5.143   0.448 -0.6412  0.8226  0.2758
  250DG     H13 5740   3.182   4.646   0.322 -2.1218 -3.1622  0.5119
  250DG     H14 5741   3.016   4.675   0.347  1.0863 -0.5252  0.7653
  250DG     H15 5742   2.865   5.102   0.467  0.5253 -1.0379  2.9712
  250DG     H16 5743   2.977   5.226   0.517 -0.0663  0.7040  0.3160
  250DG     C17 5744   3.148   4.837   0.394  0.7359  0.4002  0.1165
  250DG     C18 5745   3.063   5.035   0.488  0.7318  0.0944  0.5949
  250DG     O19 5746   3.048   4.927   0.389 -0.2889  0.4379  0.4190
  250DG     H20 5747   3.237   4.887   0.356  0.8113 -0.8284 -1.4332
  250DG     H21 5748   3.161   4.804   0.497  2.0017 -2.6408 -0.8709
  250DG     H22 5749   3.159   5.085   0.482  1.0661 -0.4988  0.8783
  250DG     H23 5750   3.042   4.995   0.587  0.4762 -0.6946  0.2288
  251DG      C1 5751   0.621   3.972   1.507  0.3089  0.1010 -0.4200
  251DG      C2 5752   0.471   4.526   1.569 -0.1611  0.3721 -0.5644
  251DG      H3 5753   0.512   3.977   1.509  0.2251 -0.5075 -2.0252
  251DG      H4 5754   0.634   3.878   1.560  1.4536 -0.4326 -1.5868
  251DG      H5 5755   0.647   3.956   1.402  0.6539 -1.2962 -0.1417
  251DG      H6 5756   0.441   4.541   1.466 -1.9459  1.2027  0.0238
  251DG      H7 5757   0.472   4.418   1.585 -1.9580  0.0910 -2.0991
  251DG      H8 5758   0.387   4.567   1.626 -0.9559 -1.4196 -0.3948
  251DG      O9 5759   0.696   4.077   1.556 -0.3458  0.2589 -0.0852
  251DG     O10 5760   0.598   4.588   1.590  0.3948  0.3010 -0.0305
  251DG     C11 5761   0.694   4.096   1.698 -1.5648 -0.3132 -0.1066
  251DG     C12 5762   0.638   4.574   1.723  0.5561 -0.3883  0.2740
  251DG     H13 5763   0.748   4.012   1.740 -2.2022 -1.6295 -1.7752
  251DG     H14 5764   0.595   4.092   1.744 -0.8082 -0.2229  1.5912
  251DG     H15 5765   0.554   4.565   1.792  0.3406 -1.2911 -0.0982
  251DG     H16 5766   0.687   4.666   1.756 -0.8909  0.0199  1.3984
  251DG     C17 5767   0.772   4.222   1.735  0.6808 -0.2518  0.3290
  251DG     C18 5768   0.748   4.460   1.735  0.1438 -0.6744 -0.0924
  251DG     O19 5769   0.687   4.336   1.706 -0.3353 -0.5432  0.1592
  251DG     H20 5770   0.867   4.235   1.684  1.2398  0.7764  1.5810
  251DG     H21 5771   0.786   4.216   1.843 -2.4094  1.0142  0.9122
  251DG     H22 5772   0.832   4.484   1.670  1.7642 -1.6309  1.5522
  251DG     H23 5773   0.785   4.471   1.837 -0.0486 -0.8954  0.0008
  252DG      C1 5774   1.172   0.951   2.584  0.1523 -0.2860 -0.6789
  252DG      C2 5775   1.659   1.428   2.423 -0.1796 -0.2226 -0.1747
  252DG      H3 5776   1.229   0.866   2.546  0.2206 -0.2432 -0.6728
  252DG      H4 5777   1.067   0.923   2.584 -0.6345  2.3678 -1.3527
  252DG      H5 5778   1.198   0.963   2.689  0.9293 -1.7911 -0.6727
  252DG      H6 5779   1.694   1.415   2.320 -0.4610  1.6459 -0.5456
  252DG      H7 5780   1.660   1.535   2.445 -0.8887 -0.5167  1.3747
  252DG      H8 5781   1.731   1.384   2.492  2.0430  0.1443 -2.1261
  252DG      O9 5782   1.200   1.071   2.512  0.4328 -0.0204  0.0739
  252DG     O10 5783   1.536   1.363   2.428  0.2443 -0.1093  0.2515
  252DG     C11 5784   1.115   1.177   2.562 -0.0776 -0.2249  0.6717
  252DG     C12 5785   1.445   1.431   2.344 -0.6273 -0.7509 -0.3947
  252DG     H13 5786   1.134   1.201   2.666  1.6856 -0.7363  0.5060
  252DG     H14 5787   1.017   1.130   2.561  1.3145 -3.3657  1.3034
  252DG     H15 5788   1.495   1.456   2.251  0.2354 -2.8361 -0.5359
  252DG     H16 5789   1.425   1.521   2.402  2.3048 -0.9544  1.1553
  252DG     C17 5790   1.125   1.298   2.472 -0.7101 -0.4232 -0.0374
  252DG     C18 5791   1.315   1.352   2.318  0.0860 -0.4281 -0.1444
  252DG     O19 5792   1.263   1.323   2.453  0.2952 -0.0962  0.5036
  252DG     H20 5793   1.083   1.387   2.518  3.0668  1.6863 -0.3264
  252DG     H21 5794   1.076   1.268   2.380 -0.3231 -1.9009  0.2060
  252DG     H22 5795   1.246   1.408   2.254 -0.1039 -2.4480 -1.8303
  252DG     H23 5796   1.327   1.266   2.252 -0.7901  0.4939 -1.5538
  253DG      C1 5797   1.293   1.386   5.091 -0.0884 -0.1842  1.1612
  253DG      C2 5798   1.151   1.481   4.497 -0.1945  0.0002  0.4203
  253DG      H3 5799   1.248   1.340   5.179 -0.6638 -2.3717 -0.1942
  253DG      H4 5800   1.272   1.493   5.084  0.1427 -0.1118  1.5498
  253DG      H5 5801   1.401   1.378   5.101  0.2073 -0.3326 -1.3711
  253DG      H6 5802   1.044   1.499   4.486  0.0350  3.6597  2.3459
  253DG      H7 5803   1.197   1.575   4.529 -0.6040  0.9785 -1.6440
  253DG      H8 5804   1.202   1.454   4.405 -0.0825  3.2283 -0.5872
  253DG      O9 5805   1.268   1.307   4.972 -0.1009 -0.0806  0.1643
  253DG     O10 5806   1.158   1.372   4.589 -0.0817 -0.8263 -0.3192
  253DG     C11 5807   1.270   1.165   4.980 -0.5387 -0.4463 -0.3633
  253DG     C12 5808   1.178   1.244   4.533  0.2740  0.4593  0.2752
  253DG     H13 5809   1.223   1.136   5.074 -0.3300 -0.1170 -0.1543
  253DG     H14 5810   1.370   1.122   4.987  0.2636  1.5285  2.8038
  253DG     H15 5811   1.279   1.228   4.498 -0.0476 -1.9173  0.3049
  253DG     H16 5812   1.118   1.215   4.447  2.5007  1.5935 -1.7705
  253DG     C17 5813   1.197   1.103   4.854  0.8290  0.5192 -0.1931
  253DG     C18 5814   1.151   1.139   4.636 -0.0636  0.5720  0.6890
  253DG     O19 5815   1.224   1.184   4.746 -0.3103 -0.4902  0.2713
  253DG     H20 5816   1.092   1.095   4.881  0.8037 -3.2567 -0.8432
  253DG     H21 5817   1.223   0.998   4.836 -1.0593  0.0126 -0.1453
  253DG     H22 5818   1.045   1.142   4.661 -0.2619 -0.3206 -0.0157
  253DG     H23 5819   1.178   1.037   4.607  0.1831  0.1367  2.3434
  254DG      C1 5820   3.381   1.309   3.511 -0.1588  0.5398 -0.0402
  254DG      C2 5821   3.604   0.992   2.818  0.3598 -0.1054  0.1285
  254DG      H3 5822   3.290   1.346   3.465  0.5171 -0.5823 -2.4684
  254DG      H4 5823   3.446   1.395   3.526  0.5689  0.1376 -0.7428
  254DG      H5 5824   3.350   1.275   3.610 -0.9884 -1.6299 -0.9712
  254DG      H6 5825   3.510   1.019   2.867 -0.9007  2.3419 -3.2642
  254DG      H7 5826   3.588   1.022   2.715  0.4861  0.9351  0.3972
  254DG      H8 5827   3.628   0.887   2.827 -1.5210 -0.5833  0.0743
  254DG      O9 5828   3.443   1.201   3.435  0.3083 -0.0210 -0.6743
  254DG     O10 5829   3.716   1.070   2.863  0.0621 -0.2189 -0.0777
  254DG     C11 5830   3.493   1.232   3.308 -0.0472 -0.0606  0.2558
  254DG     C12 5831   3.787   1.028   2.973 -0.0524 -0.1079  0.6526
  254DG     H13 5832   3.576   1.302   3.308 -0.1129  0.0228 -0.1151
  254DG     H14 5833   3.410   1.252   3.240  0.8096 -1.3997 -1.2772
  254DG     H15 5834   3.869   1.098   2.986 -1.3187  1.6501 -0.2766
  254DG     H16 5835   3.831   0.930   2.954 -0.2598 -0.6732  2.8972
  254DG     C17 5836   3.548   1.101   3.252 -0.3119  0.3470  0.2483
  254DG     C18 5837   3.695   1.017   3.090 -0.3036 -0.0596 -0.8399
  254DG     O19 5838   3.619   1.126   3.129 -0.2185  0.2197  0.3055
  254DG     H20 5839   3.462   1.035   3.240  0.4391 -0.2607 -2.7750
  254DG     H21 5840   3.621   1.060   3.322 -0.5169  0.9236  0.7971
  254DG     H22 5841   3.624   0.934   3.080 -0.3235 -0.5573  2.4674
  254DG     H23 5842   3.759   0.993   3.175 -1.9782 -0.7792  0.2653
  255DG      C1 5843   4.253   2.319   1.296  0.4520 -0.1445  0.0692
  255DG      C2 5844   3.771   2.854   1.265 -0.3347  0.8284 -0.3598
  255DG      H3 5845   4.288   2.284   1.198 -3.5621 -0.7829 -1.3253
  255DG      H4 5846   4.145   2.306   1.303  0.4177  0.8877  1.9280
  255DG      H5 5847   4.307   2.253   1.363 -0.7409 -0.0978  1.1119
  255DG      H6 5848   3.685   2.798   1.303  1.2676 -0.7831  1.0357
  255DG      H7 5849   3.757   2.961   1.278  0.0645  0.9601 -0.9604
  255DG      H8 5850   3.773   2.838   1.157 -0.0412 -1.4032 -0.0613
  255DG      O9 5851   4.284   2.457   1.311  0.1129  0.0359  0.1538
  255DG     O10 5852   3.900   2.815   1.305  0.4680 -0.4250 -0.0698
  255DG     C11 5853   4.251   2.501   1.439  0.0117  1.0186 -0.5410
  255DG     C12 5854   3.933   2.836   1.443 -0.3363 -0.3330  1.0507
  255DG     H13 5855   4.328   2.477   1.513 -0.8560  1.2280  0.4471
  255DG     H14 5856   4.158   2.455   1.472  1.1159 -0.9234  0.0303
  255DG     H15 5857   3.880   2.765   1.506 -1.9481  0.4482  0.6542
  255DG     H16 5858   3.906   2.940   1.464  0.6640  0.6592 -2.0156
  255DG     C17 5859   4.246   2.655   1.429  0.0264  0.2232 -0.1650
  255DG     C18 5860   4.083   2.825   1.439 -0.4889 -0.1951 -0.2543
  255DG     O19 5861   4.108   2.690   1.419 -1.1106  0.4033 -0.8024
  255DG     H20 5862   4.300   2.690   1.341  0.2644 -2.3112 -1.1059
  255DG     H21 5863   4.301   2.688   1.517 -0.6878  1.0542 -0.0123
  255DG     H22 5864   4.127   2.891   1.364 -2.3530  0.9328 -0.4041
  255DG     H23 5865   4.131   2.845   1.535  1.2268 -0.4503 -1.0178
  256DG      C1 5866   5.358   1.404   2.324  0.0064  0.0166  0.2843
  256DG      C2 5867   4.870   1.714   2.109 -0.1241 -0.0220  0.1467
  256DG      H3 5868   5.408   1.494   2.290  0.2126  0.2060  1.0621
  256DG      H4 5869   5.330   1.349   2.234 -1.2666  1.6834 -0.4031
  256DG      H5 5870   5.424   1.346   2.389  0.6485 -1.2526 -1.4376
  256DG      H6 5871   4.764   1.723   2.088 -0.2033 -2.3998 -0.8046
  256DG      H7 5872   4.915   1.813   2.113 -1.9857  0.8442  0.3110
  256DG      H8 5873   4.911   1.670   2.018  0.6137  1.2546 -0.1602
  256DG      O9 5874   5.239   1.437   2.379  0.0995  0.5462  0.1258
  256DG     O10 5875   4.902   1.634   2.226  0.5705  0.3522 -0.0848
  256DG     C11 5876   5.261   1.501   2.509  0.3599  0.4159  0.3513
  256DG     C12 5877   4.860   1.705   2.340 -0.0325  0.2886  0.6276
  256DG     H13 5878   5.317   1.595   2.516  2.2447 -0.6258  0.0829
  256DG     H14 5879   5.311   1.431   2.575 -0.2606 -1.5579 -1.1640
  256DG     H15 5880   4.751   1.703   2.349 -0.0331 -1.8370  0.6070
  256DG     H16 5881   4.892   1.810   2.341 -1.1858  0.6980 -0.8895
  256DG     C17 5882   5.112   1.530   2.548  0.2038  0.3105 -0.2319
  256DG     C18 5883   4.915   1.635   2.461  0.8100  0.2158 -0.1703
  256DG     O19 5884   5.052   1.612   2.447  0.4687 -0.3166  0.0350
  256DG     H20 5885   5.112   1.583   2.643  1.5133 -1.5632  0.8561
  256DG     H21 5886   5.056   1.439   2.567  0.3207  0.2436 -0.2069
  256DG     H22 5887   4.902   1.694   2.551 -0.3394 -0.6781  0.2718
  256DG     H23 5888   4.871   1.536   2.469  0.8654  0.1768 -0.3288
  257DG      C1 5889   3.495   1.078   0.301  0.2308  0.0334 -0.1234
  257DG      C2 5890   3.956   0.467  -0.045 -0.2772 -0.0705 -0.2646
  257DG      H3 5891   3.411   1.009   0.307 -0.2310  0.4051 -1.7951
  257DG      H4 5892   3.470   1.150   0.223  0.7944  1.4764  0.9745
  257DG      H5 5893   3.502   1.126   0.398 -0.5026 -1.2929  0.6125
  257DG      H6 5894   3.884   0.395  -0.007  0.4680 -1.6203 -1.7045
  257DG      H7 5895   3.911   0.511  -0.134 -3.5244  0.4982  1.4908
  257DG      H8 5896   4.041   0.405  -0.072 -2.0868 -2.9126  0.1735
  257DG      O9 5897   3.614   0.997   0.276 -0.5355 -0.3603  0.4466
  257DG     O10 5898   4.002   0.564   0.050  0.2021  0.1040 -0.0737
  257DG     C11 5899   3.664   0.928   0.386  0.2725  0.8922  0.3067
  257DG     C12 5900   3.898   0.630   0.120  0.1196  0.0443 -0.1022
  257DG     H13 5901   3.608   0.836   0.400  1.0441  0.7192  2.6010
  257DG     H14 5902   3.655   0.982   0.480  1.2890 -0.2197  1.0826
  257DG     H15 5903   3.861   0.547   0.179 -2.9026  0.4305 -1.2799
  257DG     H16 5904   3.817   0.673   0.061 -1.3491 -0.3264  1.5610
  257DG     C17 5905   3.808   0.879   0.371 -0.3115 -0.1239 -1.0308
  257DG     C18 5906   3.941   0.727   0.231 -0.3313  0.6425 -0.1631
  257DG     O19 5907   3.815   0.764   0.287  0.0245 -0.5222  0.1103
  257DG     H20 5908   3.862   0.848   0.460  0.6399 -1.9087 -2.1812
  257DG     H21 5909   3.858   0.968   0.335  0.9047 -0.1515  0.4985
  257DG     H22 5910   3.995   0.667   0.305  1.6457  3.4418  0.8413
  257DG     H23 5911   3.999   0.812   0.196 -0.7844  1.9993  2.1416
  258DG      C1 5912   5.426   2.871   1.145 -0.5727  0.3209 -0.2810
  258DG      C2 5913   5.463   2.470   1.704  0.4101  0.1924  0.9990
  258DG      H3 5914   5.404   2.801   1.065 -3.0343  2.3255 -1.5127
  258DG      H4 5915   5.529   2.852   1.174 -0.9754 -0.1687  0.8861
  258DG      H5 5916   5.413   2.978   1.125  0.7956  0.5877  0.1699
  258DG      H6 5917   5.549   2.406   1.724  0.4026  0.5017  2.0546
  258DG      H7 5918   5.390   2.461   1.784 -0.7161  2.7341  0.3585
  258DG      H8 5919   5.410   2.434   1.615  1.0600  0.1654  0.6115
  258DG      O9 5920   5.358   2.829   1.265 -0.0982 -0.2941  0.3598
  258DG     O10 5921   5.502   2.602   1.679 -0.2926 -0.5053  0.6359
  258DG     C11 5922   5.372   2.928   1.365 -0.3388 -0.1912  0.2511
  258DG     C12 5923   5.613   2.602   1.591 -0.6300  0.3011 -0.3067
  258DG     H13 5924   5.289   2.904   1.431  0.2614 -2.2199  0.3300
  258DG     H14 5925   5.349   3.028   1.329 -0.1376 -0.6546 -1.2184
  258DG     H15 5926   5.613   2.526   1.513 -1.5762 -2.5685  2.2754
  258DG     H16 5927   5.698   2.565   1.648 -2.2219 -1.2292  1.2015
  258DG     C17 5928   5.513   2.915   1.433  0.0891 -0.3372 -0.3749
  258DG     C18 5929   5.645   2.743   1.538  0.1341  0.4755 -0.1314
  258DG     O19 5930   5.530   2.780   1.463 -0.2576 -0.4505  0.2073
  258DG     H20 5931   5.514   2.991   1.511  2.2792 -1.0276  0.3488
  258DG     H21 5932   5.593   2.941   1.363 -0.8757  1.6118 -0.8144
  258DG     H22 5933   5.662   2.807   1.625 -0.6578 -1.2922  1.3917
  258DG     H23 5934   5.730   2.747   1.470 -0.8212  0.2765 -1.3711
  259DG      C1 5935   0.881   1.421   0.086  0.1721 -0.3992 -0.6880
  259DG      C2 5936   0.917   2.068   0.343 -0.1627  0.3186 -0.2781
  259DG      H3 5937   0.974   1.424   0.142  1.0986 -0.0153 -2.1921
  259DG      H4 5938   0.905   1.354   0.004  0.2831 -0.5966 -0.4930
  259DG      H5 5939   0.816   1.367   0.155  1.0168 -0.3396  0.1717
  259DG      H6 5940   0.852   2.156   0.344  0.0497  0.5746 -2.8419
  259DG      H7 5941   0.903   2.019   0.439 -1.1667 -0.4041 -0.7789
  259DG      H8 5942   1.021   2.096   0.326  0.3740 -0.5803  1.3273
  259DG      O9 5943   0.835   1.552   0.067  0.0647 -0.7756 -0.0300
  259DG     O10 5944   0.879   1.992   0.231  0.0279  0.0908  0.1034
  259DG     C11 5945   0.699   1.567   0.032 -0.1885  0.3417 -0.4776
  259DG     C12 5946   0.738   1.991   0.224 -0.0181 -0.6739  0.0318
  259DG     H13 5947   0.635   1.546   0.118  1.0117 -3.3994 -0.3318
  259DG     H14 5948   0.680   1.492  -0.044 -0.0133  0.4468 -0.6261
  259DG     H15 5949   0.697   2.092   0.230  0.8196 -0.3942  1.7531
  259DG     H16 5950   0.686   1.937   0.303 -0.8467 -0.5991 -0.4548
  259DG     C17 5951   0.680   1.716  -0.010  0.3517 -0.1118  0.1276
  259DG     C18 5952   0.681   1.918   0.104 -0.5459 -0.4956 -0.0582
  259DG     O19 5953   0.728   1.785   0.104 -0.2916 -0.6650  0.1294
  259DG     H20 5954   0.575   1.735  -0.033  0.0664 -0.1398  1.3368
  259DG     H21 5955   0.741   1.740  -0.098 -0.0334  0.0180 -0.1060
  259DG     H22 5956   0.575   1.899   0.117 -0.1110 -3.3080 -0.0433
  259DG     H23 5957   0.700   1.973   0.012  1.0027  0.2929  0.6810
  260DG      C1 5958   4.449   3.254   5.343 -0.4518  0.2949 -0.1004
  260DG      C2 5959   4.188   3.930   4.857 -0.3048  0.3364 -0.5609
  260DG      H3 5960   4.497   3.247   5.440 -0.6079  3.1887  0.2652
  260DG      H4 5961   4.483   3.169   5.283  0.0120  0.5069 -0.1483
  260DG      H5 5962   4.341   3.244   5.344 -0.6954  2.5868  0.6424
  260DG      H6 5963   4.117   3.991   4.913  1.2918  0.6766  1.1840
  260DG      H7 5964   4.226   3.984   4.771  2.2905 -0.6955 -0.1418
  260DG      H8 5965   4.133   3.847   4.813 -0.0256  1.0662 -2.3812
  260DG      O9 5966   4.483   3.377   5.290 -0.2473 -0.2983 -0.0759
  260DG     O10 5967   4.286   3.865   4.936 -0.0348 -0.0717 -0.2628
  260DG     C11 5968   4.408   3.408   5.171  0.0605 -0.8375 -0.3764
  260DG     C12 5969   4.378   3.791   4.859 -1.0608 -0.0198 -0.5101
  260DG     H13 5970   4.301   3.399   5.187  0.1939  0.6136  1.7906
  260DG     H14 5971   4.415   3.336   5.089  0.4618 -0.0168 -1.0769
  260DG     H15 5972   4.435   3.871   4.811  0.9620 -1.1350 -0.0962
  260DG     H16 5973   4.329   3.726   4.787  0.1816 -0.8277 -0.6515
  260DG     C17 5974   4.445   3.554   5.133 -0.1193  0.2464 -0.6217
  260DG     C18 5975   4.475   3.713   4.951  0.3195  0.1061 -0.4886
  260DG     O19 5976   4.402   3.599   5.004  0.5945 -0.2645  0.4640
  260DG     H20 5977   4.553   3.563   5.145 -0.4451  1.3160  2.2195
  260DG     H21 5978   4.409   3.629   5.203  1.9327  0.3177  0.4515
  260DG     H22 5979   4.560   3.668   4.900  0.4537 -1.0440  0.7198
  260DG     H23 5980   4.526   3.770   5.029  0.0854 -1.8475  1.1735
  261DG      C1 5981   2.515   4.660   2.757  1.0410  0.8872 -0.2658
  261DG      C2 5982   2.112   4.168   3.135 -0.0381 -0.1043 -0.6387
  261DG      H3 5983   2.430   4.706   2.806 -0.5751 -2.0967 -0.0554
  261DG      H4 5984   2.523   4.686   2.652  1.2608  1.5929 -0.0850
  261DG      H5 5985   2.610   4.694   2.800  0.9662  0.0435  0.6035
  261DG      H6 5986   2.043   4.197   3.056 -0.7832  0.4321  0.1948
  261DG      H7 5987   2.102   4.061   3.153 -1.1547  0.4512  2.7722
  261DG      H8 5988   2.093   4.219   3.230  2.0250 -1.0034  0.3464
  261DG      O9 5989   2.502   4.518   2.765 -0.9539 -0.2872 -0.2032
  261DG     O10 5990   2.252   4.192   3.118  0.2264 -0.6541 -0.2948
  261DG     C11 5991   2.406   4.462   2.683  0.3517 -0.2280  1.0060
  261DG     C12 5992   2.317   4.120   3.024  0.7052  0.6546  0.1138
  261DG     H13 5993   2.426   4.464   2.575 -3.6749  3.1716  0.0754
  261DG     H14 5994   2.315   4.519   2.702 -1.4320 -2.5477 -0.0667
  261DG     H15 5995   2.286   4.016   3.026 -1.1798  1.0512 -2.6673
  261DG     H16 5996   2.423   4.112   3.048  0.6416  2.4127  1.2127
  261DG     C17 5997   2.386   4.314   2.715  0.4192 -0.2376 -0.0086
  261DG     C18 5998   2.279   4.178   2.882 -0.3011 -0.1875  0.0625
  261DG     O19 5999   2.356   4.291   2.856 -0.3463  0.4863  0.2178
  261DG     H20 6000   2.473   4.254   2.687  0.1673  0.0419 -1.4381
  261DG     H21 6001   2.311   4.270   2.649  0.5617 -1.0066  0.3266
  261DG     H22 6002   2.312   4.094   2.821  0.9625  0.5704 -0.3488
  261DG     H23 6003   2.175   4.202   2.863 -0.3629 -0.3319  0.2246
  262DG      C1 6004   5.329   1.845   2.162  0.2651 -0.3062  0.5221
  262DG      C2 6005   5.000   1.237   2.210  0.2408  0.4665 -0.0178
  262DG      H3 6006   5.350   1.848   2.269  1.8274  1.5887  0.2266
  262DG      H4 6007   5.239   1.897   2.129  0.3839 -0.4035  0.0360
  262DG      H5 6008   5.411   1.904   2.120  0.8029  0.4503  2.5331
  262DG      H6 6009   4.942   1.292   2.284 -0.3278 -1.4171  0.9873
  262DG      H7 6010   4.930   1.167   2.165 -0.9104  1.1098  0.7428
  262DG      H8 6011   5.080   1.185   2.263  0.1610  1.6083  1.2643
  262DG      O9 6012   5.320   1.717   2.112 -0.0636 -0.0664 -0.1340
  262DG     O10 6013   5.084   1.330   2.134 -0.2067 -0.2710 -0.0855
  262DG     C11 6014   5.297   1.713   1.972  0.3033  0.1845 -0.0379
  262DG     C12 6015   5.096   1.283   1.999  0.0733 -0.4140 -0.1197
  262DG     H13 6016   5.375   1.768   1.919  1.3148  1.2152  2.3881
  262DG     H14 6017   5.201   1.756   1.943  0.2368 -0.0140 -0.1152
  262DG     H15 6018   5.011   1.313   1.938  0.7751 -0.5011 -1.1656
  262DG     H16 6019   5.107   1.175   1.988  0.6958 -0.8674  3.5092
  262DG     C17 6020   5.309   1.568   1.924  0.3914 -0.1686  0.7755
  262DG     C18 6021   5.220   1.356   1.955  0.0715  0.5424  0.2234
  262DG     O19 6022   5.201   1.494   1.983  0.1072 -0.3595  0.2495
  262DG     H20 6023   5.408   1.524   1.937  0.5080 -0.8930 -1.9963
  262DG     H21 6024   5.296   1.565   1.816  1.1146  0.6509  0.6608
  262DG     H22 6025   5.314   1.323   1.999  0.2328  2.0656  1.0960
  262DG     H23 6026   5.230   1.344   1.847 -0.8717 -0.7028  0.2499
  263DG      C1 6027   3.022   0.943   2.380  1.3163  0.3105  0.2502
  263DG      C2 6028   2.803   1.523   2.807 -0.5920  0.2383  0.5417
  263DG      H3 6029   3.029   1.009   2.293 -0.6776  0.8195  0.4246
  263DG      H4 6030   3.024   0.840   2.343  3.0864 -0.3066  1.8895
  263DG      H5 6031   3.113   0.949   2.440  1.5299  1.0593 -0.1431
  263DG      H6 6032   2.836   1.585   2.723 -0.8776  0.2484  0.4351
  263DG      H7 6033   2.714   1.578   2.841 -0.4205  1.9659 -1.5857
  263DG      H8 6034   2.891   1.525   2.871  0.3748 -0.3629 -0.7251
  263DG      O9 6035   2.912   0.967   2.463  0.0080 -0.6272 -0.3487
  263DG     O10 6036   2.771   1.399   2.756 -0.4561 -1.1285 -1.0088
  263DG     C11 6037   2.925   0.924   2.599  0.2539 -0.2350  0.4198
  263DG     C12 6038   2.770   1.300   2.865  0.7837 -0.0546 -0.2828
  263DG     H13 6039   3.023   0.958   2.633 -0.1543  1.8308 -0.3173
  263DG     H14 6040   2.930   0.815   2.594  0.0329 -0.1994 -1.2454
  263DG     H15 6041   2.697   1.340   2.934 -2.8036 -1.7035 -2.8269
  263DG     H16 6042   2.858   1.312   2.929 -0.7924 -0.7673  2.1352
  263DG     C17 6043   2.824   0.960   2.706  0.7196  0.1181  0.1897
  263DG     C18 6044   2.744   1.154   2.827  0.8252  0.7388 -0.6042
  263DG     O19 6045   2.848   1.096   2.745 -0.0878  0.7977 -0.3861
  263DG     H20 6046   2.836   0.899   2.795 -2.5788 -0.7350  0.1850
  263DG     H21 6047   2.722   0.940   2.672  0.9399  0.3222 -0.6275
  263DG     H22 6048   2.730   1.108   2.924  2.6278  2.1110  0.3862
  263DG     H23 6049   2.648   1.141   2.777 -1.1029  2.1993  2.4375
  264DG      C1 6050   2.852   2.588   1.424 -0.3816  0.1405  0.0521
  264DG      C2 6051   2.890   3.435   1.423  0.7334  0.3510 -0.4738
  264DG      H3 6052   2.894   2.487   1.430 -2.5074 -0.8753 -0.9223
  264DG      H4 6053   2.893   2.647   1.342 -0.8291  0.2785 -0.0728
  264DG      H5 6054   2.746   2.574   1.401 -0.6755 -0.1093  1.5045
  264DG      H6 6055   2.802   3.455   1.362 -1.5198 -2.3732  1.6165
  264DG      H7 6056   2.884   3.480   1.522  0.3362 -2.2748  0.7791
  264DG      H8 6057   2.983   3.454   1.369  0.9848 -2.3203 -1.1228
  264DG      O9 6058   2.872   2.667   1.540  0.0149 -0.6548 -0.1549
  264DG     O10 6059   2.898   3.291   1.439  0.1114  0.4212  0.0368
  264DG     C11 6060   2.831   2.800   1.525 -0.0747  0.6833 -0.2163
  264DG     C12 6061   2.994   3.259   1.540  0.5835 -0.1062  0.2263
  264DG     H13 6062   2.757   2.827   1.600 -2.4186  0.2107 -2.2603
  264DG     H14 6063   2.790   2.824   1.428  0.4692  1.2869 -0.3068
  264DG     H15 6064   2.951   3.293   1.634  0.0781  1.9323 -0.6847
  264DG     H16 6065   3.089   3.310   1.525  0.1045  1.0090  0.8605
  264DG     C17 6066   2.948   2.890   1.543 -0.0457  0.2786 -0.4325
  264DG     C18 6067   3.033   3.113   1.536  0.6648 -0.3585 -0.2602
  264DG     O19 6068   2.918   3.028   1.518  0.0704  0.3665 -0.0743
  264DG     H20 6069   3.027   2.868   1.471  0.7242 -0.5270  0.6213
  264DG     H21 6070   2.985   2.873   1.644 -2.6268 -1.0396  0.3732
  264DG     H22 6071   3.102   3.101   1.453  0.1268  0.7960 -0.9009
  264DG     H23 6072   3.091   3.096   1.627  3.1938  1.6359 -1.3918
  265DG      C1 6073   0.414   2.877   0.440 -0.4901 -0.2425  1.2193
  265DG      C2 6074   0.946   2.523   0.871 -0.4758  1.0763  0.2487
  265DG      H3 6075   0.376   2.803   0.369 -1.2592 -1.2203  2.6175
  265DG      H4 6076   0.469   2.946   0.376 -0.1295 -2.7898 -1.4983
  265DG      H5 6077   0.335   2.915   0.505 -1.0977 -1.8830  1.5046
  265DG      H6 6078   0.897   2.431   0.842  1.4483 -0.2071  0.8943
  265DG      H7 6079   1.049   2.522   0.836 -0.5975  0.3474 -0.0991
  265DG      H8 6080   0.956   2.524   0.979  0.5441 -3.3605  0.3826
  265DG      O9 6081   0.501   2.815   0.532  0.2222 -0.3579 -0.4131
  265DG     O10 6082   0.873   2.642   0.831  0.3202 -0.2768 -0.1952
  265DG     C11 6083   0.580   2.901   0.620  0.0260  0.5412  0.4777
  265DG     C12 6084   0.933   2.764   0.857  0.1427  0.1268 -1.0224
  265DG     H13 6085   0.512   2.946   0.693  0.3725  0.4485  0.8617
  265DG     H14 6086   0.628   2.979   0.560 -0.7039  1.4796  1.0805
  265DG     H15 6087   1.041   2.767   0.845  0.0878 -0.3150 -1.6714
  265DG     H16 6088   0.909   2.789   0.960  3.4408 -0.1677 -0.0818
  265DG     C17 6089   0.676   2.809   0.699  0.5689  0.0031  0.4789
  265DG     C18 6090   0.900   2.871   0.756 -0.5961  0.1242  0.0959
  265DG     O19 6091   0.761   2.902   0.762 -0.1510 -0.2598 -0.6971
  265DG     H20 6092   0.737   2.745   0.635  2.3009  1.6897  0.3603
  265DG     H21 6093   0.625   2.745   0.771 -0.5563 -0.2389 -0.5027
  265DG     H22 6094   0.958   2.963   0.769  2.7034 -1.9108  1.0826
  265DG     H23 6095   0.917   2.848   0.651 -0.4168  0.3060  0.0838
  266DG      C1 6096   2.217   3.757   4.118 -0.1987 -0.2047 -0.1999
  266DG      C2 6097   2.099   3.777   4.778 -1.0108 -1.0249 -0.2268
  266DG      H3 6098   2.189   3.766   4.013  0.7710  0.6165 -0.4100
  266DG      H4 6099   2.203   3.650   4.132  0.7016 -0.2549  0.3929
  266DG      H5 6100   2.323   3.783   4.117 -0.2834  0.2185  0.6523
  266DG      H6 6101   2.040   3.688   4.800  0.9325 -2.1727  0.6163
  266DG      H7 6102   2.202   3.741   4.771 -1.1322 -1.8092  1.5953
  266DG      H8 6103   2.089   3.850   4.859 -1.8293  0.0721 -1.2720
  266DG      O9 6104   2.142   3.839   4.202 -0.0480  0.1105 -0.3004
  266DG     O10 6105   2.082   3.847   4.658 -0.5306 -0.2883  0.0198
  266DG     C11 6106   2.004   3.813   4.182 -0.0524 -0.4509 -0.3442
  266DG     C12 6107   1.946   3.890   4.645 -0.3007 -0.0694  0.3014
  266DG     H13 6108   1.989   3.705   4.187 -1.3083 -0.2755 -0.1129
  266DG     H14 6109   1.981   3.837   4.078  0.6710  0.9181 -0.2141
  266DG     H15 6110   1.928   3.959   4.727  0.4903  0.9025 -0.3137
  266DG     H16 6111   1.884   3.803   4.667 -0.4303 -0.0041  0.1936
  266DG     C17 6112   1.915   3.882   4.289  0.2789 -0.0920  0.6881
  266DG     C18 6113   1.930   3.956   4.511 -0.4863  0.1940 -0.0801
  266DG     O19 6114   1.973   3.863   4.412 -0.2534 -0.9388 -0.1307
  266DG     H20 6115   1.811   3.853   4.280  0.7038 -1.1331 -1.8022
  266DG     H21 6116   1.919   3.990   4.274 -1.5432 -0.2316 -1.1239
  266DG     H22 6117   1.830   3.997   4.495 -0.0492  0.8573 -1.2382
  266DG     H23 6118   1.994   4.044   4.511 -0.4994  0.2102 -1.0178
  267DG      C1 6119   1.551   0.806   4.292 -0.3455  0.4438 -0.3557
  267DG      C2 6120   2.423   0.733   4.537  0.6081 -0.2155  0.4217
  267DG      H3 6121   1.560   0.814   4.184  2.5090  0.1440 -0.2282
  267DG      H4 6122   1.469   0.872   4.317 -0.2411 -0.8116  4.1080
  267DG      H5 6123   1.524   0.700   4.291 -3.8245  1.2156 -1.0743
  267DG      H6 6124   2.443   0.738   4.644  1.1592  3.3722  0.2797
  267DG      H7 6125   2.439   0.630   4.507  0.2175 -1.0154  2.8016
  267DG      H8 6126   2.499   0.806   4.507  0.2015  1.0009  2.1634
  267DG      O9 6127   1.664   0.828   4.377  0.1174 -1.0635  0.1528
  267DG     O10 6128   2.296   0.787   4.520  0.0669 -0.1210  0.1600
  267DG     C11 6129   1.785   0.764   4.347 -0.7000 -0.2738  0.3800
  267DG     C12 6130   2.250   0.785   4.391 -0.1672 -0.3907 -0.7172
  267DG     H13 6131   1.829   0.803   4.255 -1.7723  0.3252  0.1111
  267DG     H14 6132   1.773   0.656   4.343  0.5261 -0.4319 -3.4332
  267DG     H15 6133   2.255   0.681   4.362 -0.8736 -1.0028  1.1888
  267DG     H16 6134   2.312   0.847   4.326  0.7437  0.3169  0.7553
  267DG     C17 6135   1.884   0.787   4.462 -0.0323  0.1167  0.1866
  267DG     C18 6136   2.106   0.830   4.376  0.1054 -0.3792 -0.8724
  267DG     O19 6137   2.018   0.737   4.436 -0.2471 -0.3813  0.1043
  267DG     H20 6138   1.851   0.740   4.554 -0.1422  1.5269  0.9008
  267DG     H21 6139   1.878   0.892   4.493  0.1490  0.8668 -2.1124
  267DG     H22 6140   2.092   0.927   4.423 -0.9459 -0.6779 -0.5498
  267DG     H23 6141   2.087   0.862   4.273  1.3554 -0.2609 -1.0916
  268DG      C1 6142   1.076   3.304   2.320  0.0403 -0.1232  0.4252
  268DG      C2 6143   0.786   2.853   1.696  0.0879  0.3547 -0.1624
  268DG      H3 6144   1.133   3.231   2.378 -0.2214  1.4341  2.7416
  268DG      H4 6145   1.045   3.383   2.388 -1.8767  0.2033 -0.7379
  268DG      H5 6146   1.136   3.351   2.242 -2.7033  2.7546 -0.1525
  268DG      H6 6147   0.844   2.913   1.627  0.5750  2.2484  1.7975
  268DG      H7 6148   0.866   2.796   1.743 -1.2666 -1.3804  0.1622
  268DG      H8 6149   0.724   2.784   1.639 -1.4047 -0.3795  2.2057
  268DG      O9 6150   0.959   3.247   2.268  0.1827 -0.0207 -0.3402
  268DG     O10 6151   0.720   2.927   1.800 -0.1615  0.4156 -0.1122
  268DG     C11 6152   0.860   3.343   2.223  1.0936 -0.0762 -0.2392
  268DG     C12 6153   0.805   3.004   1.889  0.3410  0.0053  0.4903
  268DG     H13 6154   0.901   3.430   2.171  0.1018  0.3832 -0.2716
  268DG     H14 6155   0.812   3.390   2.309 -1.1144 -1.2726 -0.7552
  268DG     H15 6156   0.888   3.042   1.829 -1.0076 -0.5387 -1.8305
  268DG     H16 6157   0.850   2.939   1.964 -0.3261  0.4596  1.3056
  268DG     C17 6158   0.760   3.271   2.135  0.0415  0.7896  0.2289
  268DG     C18 6159   0.724   3.121   1.956  0.3877  0.3590  0.4820
  268DG     O19 6160   0.812   3.216   2.020 -0.3712  0.2847  0.5471
  268DG     H20 6161   0.675   3.337   2.115  1.7633  2.6330 -1.4748
  268DG     H21 6162   0.714   3.192   2.195  0.4192  0.6332  0.3120
  268DG     H22 6163   0.667   3.158   1.871 -0.9939 -1.0668  0.7359
  268DG     H23 6164   0.653   3.067   2.019  1.4218 -3.0866 -1.0327
  269DG      C1 6165   3.878   1.152   4.875 -0.1200 -0.4146 -0.1751
  269DG      C2 6166   3.928   1.384   4.238 -0.2665 -0.1325  0.0331
  269DG      H3 6167   3.818   1.103   4.951 -3.0864 -0.6880 -2.5141
  269DG      H4 6168   3.886   1.260   4.885  1.7451 -0.1903 -2.9434
  269DG      H5 6169   3.975   1.103   4.866  0.7416  1.1555  0.2959
  269DG      H6 6170   3.868   1.472   4.263  2.2824  1.8322 -0.2785
  269DG      H7 6171   4.015   1.414   4.179  0.6069  1.4875  2.0191
  269DG      H8 6172   3.877   1.323   4.163 -0.3377 -1.6552  1.2652
  269DG      O9 6173   3.813   1.147   4.755 -0.1545  0.0184 -0.1230
  269DG     O10 6174   3.970   1.302   4.347 -0.6040 -0.2976  0.4354
  269DG     C11 6175   3.791   1.014   4.708  0.7706 -0.1864 -0.5623
  269DG     C12 6176   4.011   1.176   4.314  0.7212 -0.3777  0.0164
  269DG     H13 6177   3.695   1.015   4.656  1.6593 -1.7693 -2.4040
  269DG     H14 6178   3.771   0.935   4.781 -0.3373 -0.0877 -0.7416
  269DG     H15 6179   4.095   1.170   4.244  0.7097 -1.7712  0.0942
  269DG     H16 6180   3.929   1.130   4.260  1.1126  0.0611 -0.9677
  269DG     C17 6181   3.902   0.981   4.607 -0.3293  0.0581 -0.3076
  269DG     C18 6182   4.038   1.091   4.436 -0.4307 -0.0980  0.5648
  269DG     O19 6183   3.912   1.084   4.503  0.7043  0.0426  0.1516
  269DG     H20 6184   3.885   0.885   4.560 -0.7428  0.1112 -0.2705
  269DG     H21 6185   3.999   0.977   4.656 -1.0350 -3.0326  1.0531
  269DG     H22 6186   4.071   0.988   4.423  0.1471 -0.2807  2.9705
  269DG     H23 6187   4.112   1.138   4.501  1.0418  1.3395 -2.0010
  270DG      C1 6188   2.905   3.674   2.581  0.2578 -0.6416 -0.0260
  270DG      C2 6189   2.847   3.249   2.077 -0.6579 -0.1095 -0.1422
  270DG      H3 6190   2.800   3.652   2.599 -0.5986  3.7099  1.5472
  270DG      H4 6191   2.914   3.782   2.590 -0.3986 -0.7211  2.0147
  270DG      H5 6192   2.968   3.621   2.652 -1.0071 -1.6665  0.3651
  270DG      H6 6193   2.899   3.196   1.997 -0.3477  0.0628 -0.0577
  270DG      H7 6194   2.839   3.185   2.165 -0.2320 -1.1442 -0.8300
  270DG      H8 6195   2.750   3.268   2.031  0.0094 -0.0724 -1.6001
  270DG      O9 6196   2.939   3.640   2.450  0.2511 -0.3194  0.1654
  270DG     O10 6197   2.911   3.369   2.105 -0.3712  0.1186  0.4103
  270DG     C11 6198   3.054   3.714   2.401 -0.5372 -0.5292 -0.0639
  270DG     C12 6199   3.057   3.366   2.109  0.4888  0.6604  0.2371
  270DG     H13 6200   3.147   3.681   2.449  0.8101  0.8637 -1.6161
  270DG     H14 6201   3.041   3.819   2.426 -1.9926 -1.2341  2.4769
  270DG     H15 6202   3.094   3.311   2.023 -1.2592  1.1636 -0.8916
  270DG     H16 6203   3.077   3.307   2.199 -1.0238 -0.0073  0.1753
  270DG     C17 6204   3.077   3.702   2.255  0.1458 -0.5075 -0.5400
  270DG     C18 6205   3.111   3.507   2.119  0.0679  0.3452  0.2874
  270DG     O19 6206   3.055   3.558   2.237  0.2121  0.1836 -0.6853
  270DG     H20 6207   3.177   3.739   2.232  0.5464 -0.9040  0.4886
  270DG     H21 6208   3.000   3.757   2.201 -1.6166 -4.3404 -2.4114
  270DG     H22 6209   3.217   3.485   2.131  0.3778  1.3601 -0.4597
  270DG     H23 6210   3.081   3.560   2.028  2.7806  0.7151 -0.4703
  271DG      C1 6211   3.694   0.370   4.715 -1.0389  0.4652 -0.3432
  271DG      C2 6212   3.772  -0.322   4.778 -0.1611 -0.3808  0.1298
  271DG      H3 6213   3.736   0.370   4.615 -1.9815  3.8159 -0.8819
  271DG      H4 6214   3.763   0.436   4.769  0.4186 -0.0105 -1.5564
  271DG      H5 6215   3.592   0.406   4.722 -1.1971  0.4420 -2.2416
  271DG      H6 6216   3.811  -0.348   4.679  0.2578 -1.1471  0.4829
  271DG      H7 6217   3.832  -0.243   4.823 -0.3540  0.3296 -0.8326
  271DG      H8 6218   3.769  -0.412   4.841 -2.9928 -0.9908 -0.7332
  271DG      O9 6219   3.697   0.235   4.762 -0.2288  0.1016 -0.3932
  271DG     O10 6220   3.644  -0.275   4.756  0.3864  0.4545  0.0918
  271DG     C11 6221   3.641   0.223   4.896  0.2150 -0.9816  0.3213
  271DG     C12 6222   3.567  -0.265   4.873  0.1298  0.4192  0.8831
  271DG     H13 6223   3.538   0.256   4.887  1.1438  1.7282 -2.1759
  271DG     H14 6224   3.693   0.302   4.950 -2.1529  0.9414 -0.0549
  271DG     H15 6225   3.568  -0.358   4.931 -0.9978  0.1076  0.4236
  271DG     H16 6226   3.468  -0.240   4.835  0.3951  0.1712  0.0154
  271DG     C17 6227   3.667   0.077   4.952  0.0519  0.2927  0.5380
  271DG     C18 6228   3.606  -0.145   4.956 -0.3098  0.3487  0.6329
  271DG     O19 6229   3.612  -0.027   4.876 -0.3512 -0.2632 -0.0106
  271DG     H20 6230   3.632   0.074   5.056  1.7096  0.7536  1.1468
  271DG     H21 6231   3.775   0.065   4.947  0.1530  0.0509  2.5048
  271DG     H22 6232   3.534  -0.136   5.038 -2.0490 -0.3733 -0.7449
  271DG     H23 6233   3.706  -0.166   4.995 -0.8055 -0.5681  1.4705
  272DG      C1 6234   2.072   3.241   2.147  0.0059  0.1349  0.3604
  272DG      C2 6235   2.599   2.909   2.536  0.3739 -0.5370 -0.1925
  272DG      H3 6236   2.001   3.206   2.221  1.3191  2.0281  2.6508
  272DG      H4 6237   2.026   3.219   2.051 -2.1766  1.2283  1.1042
  272DG      H5 6238   2.086   3.347   2.166  0.7517  0.0499  0.3298
  272DG      H6 6239   2.658   2.988   2.582 -0.3234 -0.2424  0.2197
  272DG      H7 6240   2.518   2.897   2.608  0.0531 -0.0612 -0.4570
  272DG      H8 6241   2.654   2.818   2.517 -0.0683 -1.0174  0.7880
  272DG      O9 6242   2.200   3.175   2.159  0.2204 -0.0469  0.2267
  272DG     O10 6243   2.539   2.949   2.414  0.3693 -0.0534 -0.1259
  272DG     C11 6244   2.287   3.199   2.045 -0.5699 -0.2818 -0.2243
  272DG     C12 6245   2.630   2.956   2.309 -0.0493  0.9397  0.1386
  272DG     H13 6246   2.341   3.293   2.059  1.5513 -1.6221  1.2650
  272DG     H14 6247   2.244   3.200   1.945 -0.0840  0.7024 -0.4356
  272DG     H15 6248   2.692   2.867   2.302 -0.4218  0.7300 -0.6069
  272DG     H16 6249   2.696   3.041   2.326 -0.1209  1.6606 -2.6697
  272DG     C17 6250   2.398   3.097   2.049  0.4692 -0.3399  0.1594
  272DG     C18 6251   2.565   2.988   2.168  0.2489 -0.6868  0.3797
  272DG     O19 6252   2.471   3.100   2.173 -0.1759  0.1853 -0.2134
  272DG     H20 6253   2.461   3.120   1.963 -1.7698  0.7903 -1.2623
  272DG     H21 6254   2.349   3.004   2.019  0.7675 -0.4468 -0.0004
  272DG     H22 6255   2.648   2.999   2.100  0.3824  0.8597  0.7714
  272DG     H23 6256   2.510   2.896   2.145 -2.0126  0.5710  0.5156
  273DG      C1 6257   4.275   1.206   1.567  0.1625 -0.1001 -0.5788
  273DG      C2 6258   3.957   1.528   0.918 -0.1572 -0.3978  0.8344
  273DG      H3 6259   4.351   1.200   1.490  1.4236 -1.5314  0.7109
  273DG      H4 6260   4.248   1.105   1.596  1.6497 -0.1677  0.7492
  273DG      H5 6261   4.317   1.249   1.659  1.5783  0.2402 -1.3557
  273DG      H6 6262   3.876   1.466   0.877 -0.4810  0.9636 -0.7005
  273DG      H7 6263   3.972   1.624   0.870 -0.1678  0.6227  2.7875
  273DG      H8 6264   4.049   1.477   0.891  1.0137  1.0886  1.8820
  273DG      O9 6265   4.155   1.279   1.524  0.1512 -0.1644  0.3027
  273DG     O10 6266   3.944   1.524   1.061 -0.5328  0.2314 -0.0582
  273DG     C11 6267   4.182   1.416   1.525 -0.3426  0.0123 -0.3441
  273DG     C12 6268   4.031   1.619   1.117 -0.6382  0.0813 -0.2570
  273DG     H13 6269   4.277   1.437   1.477 -0.9448  2.4756 -0.6018
  273DG     H14 6270   4.193   1.432   1.632  2.6134 -4.9615  0.4123
  273DG     H15 6271   3.999   1.720   1.091  3.0240  1.1955 -1.0211
  273DG     H16 6272   4.136   1.604   1.090 -0.4588  0.6583  0.1161
  273DG     C17 6273   4.086   1.511   1.468 -0.0040 -0.2246  0.0894
  273DG     C18 6274   4.013   1.611   1.268 -0.2216  0.5676 -0.0902
  273DG     O19 6275   4.076   1.499   1.326  0.1195 -0.3563  0.1978
  273DG     H20 6276   4.115   1.612   1.498  0.2327  0.0229 -0.9161
  273DG     H21 6277   3.984   1.501   1.506  0.3334 -0.8396  0.8678
  273DG     H22 6278   4.059   1.700   1.312 -0.2911 -0.6559  2.6947
  273DG     H23 6279   3.905   1.614   1.280 -0.3583  0.7667 -1.2550
  274DG      C1 6280   1.254   3.039   4.991  0.7388 -0.4332  0.0899
  274DG      C2 6281   0.989   2.272   5.253 -0.9911  0.0113 -0.1897
  274DG      H3 6282   1.357   3.067   5.014  0.3874  1.5567 -0.5383
  274DG      H4 6283   1.195   3.128   5.013  1.4940 -0.1510  1.0460
  274DG      H5 6284   1.269   3.010   4.887  2.2508  1.9017 -0.4271
  274DG      H6 6285   0.917   2.198   5.288 -1.0763 -0.4825 -1.3320
  274DG      H7 6286   0.972   2.283   5.145  2.3335  1.8721 -0.6569
  274DG      H8 6287   1.086   2.222   5.263 -0.8983  0.0201 -0.9234
  274DG      O9 6288   1.209   2.931   5.068  0.3447 -0.1516 -0.1156
  274DG     O10 6289   1.005   2.394   5.318  0.9386 -0.2191 -1.0934
  274DG     C11 6290   1.173   2.948   5.206  0.5130  0.0260 -0.2933
  274DG     C12 6291   1.088   2.500   5.257 -0.2478  0.5442  0.0575
  274DG     H13 6292   1.103   3.032   5.209 -0.7525 -0.9682 -1.0265
  274DG     H14 6293   1.268   2.977   5.253  1.1989 -2.8964  0.2841
  274DG     H15 6294   1.044   2.552   5.172 -2.9622 -1.1386  0.3347
  274DG     H16 6295   1.169   2.446   5.208 -0.7828 -0.8855  0.7166
  274DG     C17 6296   1.113   2.823   5.270  0.2682  0.0562 -0.1992
  274DG     C18 6297   1.140   2.594   5.358  0.1893 -0.5256  0.3476
  274DG     O19 6298   1.203   2.716   5.305 -0.3908  0.2210  0.7819
  274DG     H20 6299   1.040   2.796   5.194  1.2229 -1.6350 -0.5854
  274DG     H21 6300   1.067   2.835   5.368  0.7363 -0.6809  0.1216
  274DG     H22 6301   1.065   2.619   5.433  0.5671 -2.7192  1.5457
  274DG     H23 6302   1.218   2.546   5.416 -0.5580  1.8950  3.6232
  275DG      C1 6303   2.577   0.054   1.169 -0.0009 -0.0741  0.5452
  275DG      C2 6304   2.278  -0.464   1.652 -0.2571 -0.5010 -0.4986
  275DG      H3 6305   2.553   0.100   1.073  0.8778  0.5182  0.5959
  275DG      H4 6306   2.677   0.011   1.164 -0.1419 -0.7524  2.5786
  275DG      H5 6307   2.585   0.137   1.239 -2.2515  0.1133  0.6691
  275DG      H6 6308   2.345  -0.548   1.671 -2.2172 -2.2199 -0.7593
  275DG      H7 6309   2.296  -0.381   1.719 -1.1845 -2.2880  2.1075
  275DG      H8 6310   2.176  -0.494   1.674 -0.7004  1.5039  0.3601
  275DG      O9 6311   2.484  -0.041   1.207 -0.3517  0.2036 -0.0890
  275DG     O10 6312   2.299  -0.426   1.512  0.1514  0.6156  0.0925
  275DG     C11 6313   2.480  -0.156   1.117 -0.4811  0.6770 -0.2165
  275DG     C12 6314   2.191  -0.361   1.458 -0.3652 -0.2945  0.3837
  275DG     H13 6315   2.568  -0.217   1.137 -0.7593 -0.4915 -2.3033
  275DG     H14 6316   2.489  -0.131   1.011 -0.1134 -0.0708 -0.3689
  275DG     H15 6317   2.191  -0.261   1.502  1.8447 -0.3814  0.7061
  275DG     H16 6318   2.095  -0.411   1.467 -0.6263 -0.3942 -2.2029
  275DG     C17 6319   2.345  -0.231   1.143 -0.0091  0.6487  0.2537
  275DG     C18 6320   2.216  -0.354   1.306  0.3615 -0.1204  0.3632
  275DG     O19 6321   2.333  -0.280   1.274 -0.2401  0.1772  0.4534
  275DG     H20 6322   2.336  -0.315   1.075 -1.0346  2.4030 -1.9052
  275DG     H21 6323   2.257  -0.172   1.117 -1.3818 -0.6966  1.6437
  275DG     H22 6324   2.216  -0.452   1.259  2.4627  0.9874 -2.2229
  275DG     H23 6325   2.128  -0.309   1.258 -0.7500 -1.4928  1.0433
  276DG      C1 6326   4.650   3.536   3.968  0.0629  0.9027  0.0057
  276DG      C2 6327   5.337   3.433   4.001 -0.3338 -0.1521  0.0496
  276DG      H3 6328   4.680   3.624   4.024  0.7306  0.1476  0.8579
  276DG      H4 6329   4.624   3.459   4.041  3.1272  1.6258  2.0687
  276DG      H5 6330   4.570   3.561   3.898 -1.0345  0.9809  1.2256
  276DG      H6 6331   5.422   3.450   3.935 -0.3675 -0.2378 -0.0156
  276DG      H7 6332   5.326   3.517   4.071 -0.6918  0.6714 -0.9721
  276DG      H8 6333   5.362   3.346   4.062  1.3077  1.5030  1.9140
  276DG      O9 6334   4.768   3.484   3.906 -0.3139 -0.7910  0.0028
  276DG     O10 6335   5.225   3.417   3.926 -0.2120  0.1980  0.0289
  276DG     C11 6336   4.760   3.376   3.819 -0.9004 -0.4794  0.2450
  276DG     C12 6337   5.235   3.302   3.839 -0.1426 -0.6933  0.4694
  276DG     H13 6338   4.676   3.406   3.756  0.0099 -0.6657 -1.0987
  276DG     H14 6339   4.738   3.283   3.871 -0.5376 -0.6742  0.0583
  276DG     H15 6340   5.261   3.219   3.904  3.0191  0.0998  0.3647
  276DG     H16 6341   5.311   3.322   3.764 -1.8515  3.3565 -0.4683
  276DG     C17 6342   4.894   3.361   3.744  0.6414 -0.2071 -0.8199
  276DG     C18 6343   5.104   3.281   3.754 -0.9980  0.6849  0.3588
  276DG     O19 6344   4.995   3.328   3.830  0.5178  0.2451  0.3486
  276DG     H20 6345   4.920   3.444   3.679 -2.0756  0.4714 -1.1900
  276DG     H21 6346   4.881   3.280   3.672  2.8889 -0.2900 -1.2032
  276DG     H22 6347   5.119   3.345   3.667  0.4222  2.5570  1.9129
  276DG     H23 6348   5.097   3.178   3.718  1.2832  1.2488 -1.9169
  277DG      C1 6349   4.995   4.514   2.327 -0.7660 -0.3772 -0.0486
  277DG      C2 6350   5.309   4.017   1.954 -0.3590  0.0838  0.0591
  277DG      H3 6351   5.066   4.509   2.409 -0.1905  0.0220 -0.5178
  277DG      H4 6352   4.918   4.436   2.334  1.2661 -2.3557  2.1231
  277DG      H5 6353   4.946   4.611   2.331  0.7691  0.4353 -0.1968
  277DG      H6 6354   5.411   4.010   1.991  0.1217  0.0341 -1.2179
  277DG      H7 6355   5.241   3.946   1.999 -2.0557  1.4106 -0.3012
  277DG      H8 6356   5.334   3.966   1.861 -0.2999 -0.2318  0.2489
  277DG      O9 6357   5.053   4.495   2.198 -0.5051 -0.3167  0.6675
  277DG     O10 6358   5.249   4.145   1.933 -0.2332  0.6977 -0.0130
  277DG     C11 6359   5.180   4.558   2.183  0.6139 -0.0237  0.0956
  277DG     C12 6360   5.346   4.239   1.884 -0.0394 -0.1043 -0.0115
  277DG     H13 6361   5.253   4.513   2.250  0.9116 -2.9114 -1.9608
  277DG     H14 6362   5.163   4.666   2.186 -0.4009  0.1754 -4.7614
  277DG     H15 6363   5.382   4.230   1.782  0.5341  1.4509  0.0271
  277DG     H16 6364   5.427   4.238   1.956  0.1783 -0.4616 -0.2566
  277DG     C17 6365   5.236   4.544   2.046 -0.3787 -0.0254 -0.1876
  277DG     C18 6366   5.291   4.387   1.885  0.7360  0.9503 -0.4784
  277DG     O19 6367   5.253   4.407   2.017  0.6044 -0.3116  0.7536
  277DG     H20 6368   5.335   4.590   2.050 -0.8781  1.2872 -1.6759
  277DG     H21 6369   5.174   4.602   1.977  1.3628  0.7888 -1.1298
  277DG     H22 6370   5.359   4.464   1.849 -0.5285  2.0133 -0.6835
  277DG     H23 6371   5.201   4.380   1.824 -1.2702 -0.4170  2.3792
  278DG      C1 6372   1.844   4.380   1.179  0.3052 -0.3223  0.2998
  278DG      C2 6373   2.333   4.459   0.472  0.1911 -0.1762  0.0002
  278DG      H3 6374   1.775   4.303   1.215 -0.1438 -0.1618 -0.2001
  278DG      H4 6375   1.794   4.476   1.169 -2.4112 -1.6567 -0.0265
  278DG      H5 6376   1.925   4.402   1.248 -0.6401 -0.0974  1.3707
  278DG      H6 6377   2.410   4.513   0.528 -1.4399 -0.8765  3.0760
  278DG      H7 6378   2.371   4.423   0.376 -1.9077 -0.6930 -0.6860
  278DG      H8 6379   2.259   4.534   0.442  0.8785  0.2457 -0.7013
  278DG      O9 6380   1.904   4.354   1.054 -0.2521  0.2373 -0.1537
  278DG     O10 6381   2.274   4.347   0.544  0.3200 -0.1106 -0.3695
  278DG     C11 6382   1.983   4.234   1.059  0.4068 -0.6579  0.0168
  278DG     C12 6383   2.216   4.384   0.677 -0.2278  0.1205  0.5896
  278DG     H13 6384   1.933   4.157   1.117 -1.5717 -0.6027 -1.4643
  278DG     H14 6385   2.077   4.249   1.111  0.3014 -1.4885  0.4524
  278DG     H15 6386   2.152   4.471   0.665 -0.4831 -0.2323 -0.7924
  278DG     H16 6387   2.291   4.410   0.752 -1.2360 -0.0351  1.6696
  278DG     C17 6388   2.019   4.191   0.919 -0.0385 -0.2108 -0.2989
  278DG     C18 6389   2.129   4.269   0.723  0.5836 -0.2174  0.0650
  278DG     O19 6390   2.087   4.299   0.861 -0.2786  0.1731 -0.1312
  278DG     H20 6391   1.941   4.148   0.856  0.2238 -0.9450 -0.1358
  278DG     H21 6392   2.092   4.117   0.951 -0.5983  0.5947  3.2045
  278DG     H22 6393   2.045   4.246   0.658  0.3554 -0.6655  0.5095
  278DG     H23 6394   2.195   4.183   0.715  1.2163  0.1652  0.9359
  279DG      C1 6395   3.479   5.109   2.280  0.9014 -0.3936 -0.1022
  279DG      C2 6396   3.921   4.698   2.799 -1.0239  0.7766  0.5890
  279DG      H3 6397   3.451   5.064   2.184 -0.2296  0.2529 -0.0996
  279DG      H4 6398   3.584   5.137   2.277  0.7855  0.0744  0.1985
  279DG      H5 6399   3.407   5.190   2.294 -1.4300 -2.2821 -0.4994
  279DG      H6 6400   3.937   4.786   2.861  1.9426  1.7769 -1.4366
  279DG      H7 6401   3.936   4.601   2.846  1.1766  0.3394 -0.8954
  279DG      H8 6402   3.989   4.699   2.714 -2.1735  0.6605 -0.3643
  279DG      O9 6403   3.432   5.027   2.387  0.1182 -0.0168 -0.3807
  279DG     O10 6404   3.789   4.691   2.750 -0.7619 -0.3235  0.2198
  279DG     C11 6405   3.437   5.076   2.514 -0.6534 -0.6843  0.1412
  279DG     C12 6406   3.741   4.809   2.690  0.0432 -0.1437  0.6379
  279DG     H13 6407   3.340   5.115   2.544  0.1260  1.8896 -0.4721
  279DG     H14 6408   3.501   5.164   2.513  0.3004 -1.3616 -0.5981
  279DG     H15 6409   3.825   4.842   2.629 -0.2582 -0.3152  0.1226
  279DG     H16 6410   3.732   4.884   2.769  2.4907 -0.0903  0.9238
  279DG     C17 6411   3.477   4.967   2.609 -0.2339  0.5030 -0.0602
  279DG     C18 6412   3.619   4.772   2.604  0.1781 -0.2795 -0.5401
  279DG     O19 6413   3.572   4.887   2.540  0.3096  0.0229 -0.0968
  279DG     H20 6414   3.393   4.910   2.648 -1.6009  3.4479  1.6949
  279DG     H21 6415   3.520   5.009   2.700 -0.0662 -1.1401  0.6482
  279DG     H22 6416   3.652   4.705   2.525 -2.3114  0.0911 -1.9966
  279DG     H23 6417   3.540   4.722   2.660  1.7646 -0.2004  1.9360
  280DG      C1 6418   1.088   4.101   4.544 -0.1109  0.2494  0.2126
  280DG      C2 6419   1.545   3.865   4.983  0.5530 -0.3412 -0.5216
  280DG      H3 6420   1.139   4.197   4.534  1.1369  0.0006  2.9911
  280DG      H4 6421   0.984   4.110   4.514 -1.1122 -2.8096  2.2516
  280DG      H5 6422   1.118   4.016   4.483 -1.9826 -1.7937  1.9308
  280DG      H6 6423   1.619   3.941   5.008  3.9375 -2.9514 -1.8322
  280DG      H7 6424   1.564   3.775   5.041 -2.0986 -0.7775 -0.2218
  280DG      H8 6425   1.555   3.854   4.875  2.6417  1.8546 -0.6390
  280DG      O9 6426   1.102   4.057   4.678  0.4030  0.5756  0.4624
  280DG     O10 6427   1.412   3.905   5.026 -0.3293  0.5642 -0.1793
  280DG     C11 6428   0.999   3.962   4.714 -0.4386 -0.2299  0.7532
  280DG     C12 6429   1.315   3.797   5.021  0.0433 -0.0228  0.3476
  280DG     H13 6430   1.011   3.866   4.663  0.8700  0.6553 -0.7165
  280DG     H14 6431   0.896   3.994   4.700  0.0053  1.3290  0.8198
  280DG     H15 6432   1.322   3.730   5.107 -2.4365 -0.3746  0.3670
  280DG     H16 6433   1.331   3.737   4.931  0.4006 -0.0407  0.4210
  280DG     C17 6434   1.011   3.931   4.864  0.3344  0.2631  0.6644
  280DG     C18 6435   1.173   3.849   5.026 -0.2667 -0.3028  0.4406
  280DG     O19 6436   1.148   3.894   4.890 -0.6626  0.2000  0.2434
  280DG     H20 6437   0.930   3.861   4.881  0.4737 -0.1272 -0.2207
  280DG     H21 6438   0.985   4.015   4.928  0.1326 -1.0191  2.3380
  280DG     H22 6439   1.103   3.769   5.054 -0.3190 -0.1510  0.7528
  280DG     H23 6440   1.171   3.931   5.097  1.2805 -0.7384  1.0284
  281DG      C1 6441   0.040   2.250   4.278 -0.1833 -0.3932 -0.4244
  281DG      C2 6442  -0.281   2.072   3.615  0.3708  0.3301 -0.3505
  281DG      H3 6443   0.098   2.190   4.348  0.8319  0.1773 -0.7725
  281DG      H4 6444  -0.047   2.301   4.319 -0.2051 -0.5242 -0.3063
  281DG      H5 6445   0.116   2.315   4.235  1.3068 -0.1684  2.3281
  281DG      H6 6446  -0.183   2.027   3.629  0.3129 -0.0673 -1.1369
  281DG      H7 6447  -0.343   2.012   3.548  0.4908 -0.4617  0.2354
  281DG      H8 6448  -0.254   2.167   3.568 -0.0342 -0.0136 -1.3125
  281DG      O9 6449  -0.005   2.158   4.180 -0.4967  0.1398 -0.2902
  281DG     O10 6450  -0.346   2.090   3.737  0.4585 -0.0194  0.0202
  281DG     C11 6451  -0.063   2.213   4.068  0.5540 -0.4472  0.3052
  281DG     C12 6452  -0.383   1.979   3.816 -0.2843  0.1905  0.5665
  281DG     H13 6453   0.010   2.281   4.024 -1.7661  2.1207  0.1921
  281DG     H14 6454  -0.142   2.285   4.090  0.3984 -0.0678 -1.3877
  281DG     H15 6455  -0.437   1.908   3.754 -1.9167  1.9383 -0.0972
  281DG     H16 6456  -0.464   2.005   3.884  1.1508  1.5170  1.8454
  281DG     C17 6457  -0.096   2.109   3.959 -0.1661  0.0870  0.7365
  281DG     C18 6458  -0.265   1.935   3.903 -0.6142  0.3554  0.6147
  281DG     O19 6459  -0.223   2.041   3.992 -0.5641 -0.1686 -0.3753
  281DG     H20 6460  -0.017   2.038   3.934 -1.3572 -1.0735  0.1562
  281DG     H21 6461  -0.118   2.176   3.876  0.8131 -0.5821 -0.0932
  281DG     H22 6462  -0.278   1.856   3.977 -0.1266 -1.3094 -0.9989
  281DG     H23 6463  -0.183   1.889   3.848 -1.7002 -1.5935  0.5374
  282DG      C1 6464   0.680   1.408   2.553  0.0572  0.3222 -0.0335
  282DG      C2 6465   0.488   1.467   1.872 -0.2814 -0.0970  0.6300
  282DG      H3 6466   0.600   1.470   2.592  1.6344  1.8185  0.9667
  282DG      H4 6467   0.763   1.471   2.519 -0.1461 -0.4966 -2.2634
  282DG      H5 6468   0.709   1.344   2.636 -2.2928 -1.7454 -0.6761
  282DG      H6 6469   0.568   1.501   1.807  0.4776 -2.5120  0.1968
  282DG      H7 6470   0.400   1.531   1.862 -0.0909 -0.0113 -0.6557
  282DG      H8 6471   0.523   1.472   1.975  0.7108  1.4915  0.2470
  282DG      O9 6472   0.640   1.326   2.454  0.3495 -0.4042 -0.4009
  282DG     O10 6473   0.455   1.339   1.835 -0.4514  0.2640 -0.6104
  282DG     C11 6474   0.629   1.363   2.317 -0.6472  0.1462 -0.4406
  282DG     C12 6475   0.552   1.242   1.855  0.1992  0.5725  0.4305
  282DG     H13 6476   0.728   1.397   2.286  0.1652 -0.8072  0.9909
  282DG     H14 6477   0.563   1.449   2.305  0.2000  0.9384  0.4100
  282DG     H15 6478   0.654   1.274   1.833  0.3098 -0.4073 -0.5965
  282DG     H16 6479   0.523   1.164   1.784 -1.3106 -0.0933  1.7129
  282DG     C17 6480   0.594   1.247   2.231  0.2592 -0.2578  0.3711
  282DG     C18 6481   0.545   1.192   2.001 -0.3055  0.5387  0.6388
  282DG     O19 6482   0.600   1.288   2.092 -0.0241 -0.1945  0.2427
  282DG     H20 6483   0.491   1.215   2.248  0.2356  0.5457  1.9432
  282DG     H21 6484   0.659   1.161   2.241  1.8546  0.9766  1.0053
  282DG     H22 6485   0.444   1.156   2.025 -0.5332  1.8346  1.7297
  282DG     H23 6486   0.608   1.103   2.007 -0.3011  0.5747  1.1312
  283DG      C1 6487   1.351   3.132   2.856  0.0521  0.3798  0.2174
  283DG      C2 6488   1.201   2.848   3.529  0.1516 -0.5247  0.5649
  283DG      H3 6489   1.402   3.107   2.763 -0.9628 -0.8838 -0.0250
  283DG      H4 6490   1.421   3.176   2.926 -1.1570  0.1164  1.6596
  283DG      H5 6491   1.273   3.204   2.832 -0.7805 -0.2705  0.8909
  283DG      H6 6492   1.284   2.805   3.585  1.3322 -0.2066 -0.8852
  283DG      H7 6493   1.173   2.945   3.571  0.5551 -1.2091  2.5506
  283DG      H8 6494   1.116   2.779   3.529  0.2711 -0.6775 -0.2475
  283DG      O9 6495   1.286   3.022   2.916 -0.2998  0.4671 -0.5572
  283DG     O10 6496   1.240   2.851   3.395 -0.1802 -0.1564  0.2485
  283DG     C11 6497   1.372   2.922   2.949 -0.2130  1.1903 -0.0818
  283DG     C12 6498   1.135   2.859   3.306 -0.0920 -0.3468 -0.0704
  283DG     H13 6499   1.446   2.936   3.028  0.6424 -2.5522 -0.0094
  283DG     H14 6500   1.424   2.909   2.855  1.3351  0.2978  0.8471
  283DG     H15 6501   1.072   2.946   3.327 -0.3018 -0.9681  2.0856
  283DG     H16 6502   1.075   2.768   3.307  0.1964 -0.8399 -4.4871
  283DG     C17 6503   1.285   2.803   2.978  0.7553  0.4700  0.2055
  283DG     C18 6504   1.167   2.895   3.162 -0.4282  0.2497 -0.1955
  283DG     O19 6505   1.254   2.791   3.116  0.1869  0.2798  0.2102
  283DG     H20 6506   1.331   2.707   2.954  0.6257  0.9334 -2.1278
  283DG     H21 6507   1.189   2.795   2.927  0.0787  1.7007  1.2458
  283DG     H22 6508   1.073   2.908   3.109 -0.9482 -0.1080  0.6099
  283DG     H23 6509   1.220   2.991   3.168  0.8041 -0.4688  1.1813
  284DG      C1 6510   3.019   1.255   0.009  0.3712 -0.0083  0.0529
  284DG      C2 6511   3.116   1.597  -0.839 -0.7456  0.2840  0.1127
  284DG      H3 6512   3.082   1.178   0.054 -0.0740 -0.1228  0.4881
  284DG      H4 6513   2.941   1.199  -0.043  0.6307  1.5824 -2.1704
  284DG      H5 6514   2.985   1.323   0.087  2.1506  0.8999  0.0864
  284DG      H6 6515   3.105   1.491  -0.864  0.5981 -0.2016  1.4552
  284DG      H7 6516   3.023   1.650  -0.859 -0.2914  1.1281  0.2221
  284DG      H8 6517   3.200   1.637  -0.896 -1.1160 -0.9026 -1.3585
  284DG      O9 6518   3.100   1.338  -0.058 -0.4674  0.1025  0.4166
  284DG     O10 6519   3.175   1.620  -0.712 -0.0032  0.5340  0.2171
  284DG     C11 6520   3.059   1.350  -0.196  0.1623  0.1302  0.0325
  284DG     C12 6521   3.093   1.563  -0.611  0.0236  0.4963 -0.1659
  284DG     H13 6522   2.959   1.391  -0.179 -0.7456 -1.7633 -0.4680
  284DG     H14 6523   3.042   1.250  -0.235 -0.8257 -0.0496  0.8741
  284DG     H15 6524   3.034   1.476  -0.642  2.7879 -1.8633  0.7098
  284DG     H16 6525   3.021   1.643  -0.593 -1.3410  0.3711 -4.1082
  284DG     C17 6526   3.148   1.452  -0.264  0.3525 -0.3704  0.2116
  284DG     C18 6527   3.187   1.524  -0.488  0.1312 -0.4058  0.2753
  284DG     O19 6528   3.097   1.464  -0.394  0.2010 -0.5737 -0.1709
  284DG     H20 6529   3.251   1.417  -0.255  0.1955 -0.3785  2.6665
  284DG     H21 6530   3.150   1.552  -0.221  0.4688  0.1376 -0.9444
  284DG     H22 6531   3.263   1.448  -0.509  0.1698 -0.2769 -0.0586
  284DG     H23 6532   3.233   1.611  -0.441 -0.8146  0.2222  0.0566
  285DG      C1 6533   1.840   2.403   1.084  0.8108 -0.4883 -0.0380
  285DG      C2 6534   1.496   2.580   0.538  0.4409  0.3297  0.3951
  285DG      H3 6535   1.856   2.320   1.153  2.9411 -0.1184 -0.0126
  285DG      H4 6536   1.857   2.495   1.139  1.5333  0.2741 -1.4522
  285DG      H5 6537   1.910   2.399   1.000 -0.6844  2.1452 -1.5395
  285DG      H6 6538   1.581   2.647   0.533  1.6075 -1.1033  0.4686
  285DG      H7 6539   1.491   2.489   0.478 -1.3228  1.2682 -0.9994
  285DG      H8 6540   1.424   2.634   0.476  1.0510  1.3672  0.5829
  285DG      O9 6541   1.707   2.407   1.031  0.2611 -0.1625  0.0017
  285DG     O10 6542   1.454   2.544   0.671  0.5109 -0.1021  0.3226
  285DG     C11 6543   1.610   2.427   1.125  1.0471  0.9525  0.4904
  285DG     C12 6544   1.440   2.664   0.752  0.6771  0.5860 -0.3440
  285DG     H13 6545   1.638   2.516   1.182 -1.3674  2.5680 -0.6950
  285DG     H14 6546   1.610   2.344   1.196  1.4270  0.0137 -0.5843
  285DG     H15 6547   1.366   2.734   0.713  2.5805  2.0997 -1.3890
  285DG     H16 6548   1.535   2.715   0.763  1.0519  0.1124 -1.2348
  285DG     C17 6549   1.474   2.458   1.058  0.1301 -0.1946  0.4689
  285DG     C18 6550   1.396   2.616   0.891 -0.0321 -0.0094 -0.9729
  285DG     O19 6551   1.499   2.524   0.933 -0.1683  0.0618  0.5043
  285DG     H20 6552   1.422   2.520   1.130  2.1765 -1.0677  2.8288
  285DG     H21 6553   1.420   2.364   1.045 -0.6370  0.3064 -0.1453
  285DG     H22 6554   1.401   2.702   0.959  1.5593 -1.7911  1.3491
  285DG     H23 6555   1.294   2.579   0.895  0.0379 -0.1719 -0.6940
  286DG      C1 6556   3.104   3.205   4.113 -0.1609 -0.2782  0.0562
  286DG      C2 6557   3.732   3.519   4.103 -0.6197 -0.0186  0.0352
  286DG      H3 6558   3.195   3.153   4.146  0.1992 -0.9997 -1.9651
  286DG      H4 6559   3.080   3.164   4.016  2.2592  0.1049 -0.7895
  286DG      H5 6560   3.030   3.181   4.190  2.7289 -1.5161  2.7218
  286DG      H6 6561   3.748   3.609   4.043 -2.4951  1.4511  1.6189
  286DG      H7 6562   3.793   3.521   4.193 -0.1498 -1.6586 -0.2210
  286DG      H8 6563   3.752   3.434   4.039 -2.8984 -0.6856  0.1086
  286DG      O9 6564   3.121   3.348   4.106  0.8840  0.0471 -0.0428
  286DG     O10 6565   3.593   3.521   4.136  0.2648  0.1349  0.1404
  286DG     C11 6566   3.105   3.410   4.236 -0.2805  0.0681  0.0412
  286DG     C12 6567   3.554   3.594   4.247 -0.1435  0.8080 -0.3605
  286DG     H13 6568   3.124   3.342   4.319  0.5420 -0.3516 -0.4818
  286DG     H14 6569   3.000   3.441   4.243  0.0960  1.2494  0.6490
  286DG     H15 6570   3.600   3.693   4.243 -0.4650  0.9522 -0.5941
  286DG     H16 6571   3.577   3.547   4.342 -0.2881  0.8989 -0.2802
  286DG     C17 6572   3.196   3.541   4.243  0.5950  0.2768 -0.8389
  286DG     C18 6573   3.406   3.621   4.243  0.0815 -0.3092 -0.4493
  286DG     O19 6574   3.329   3.500   4.224  0.0805  0.6041 -0.3753
  286DG     H20 6575   3.166   3.570   4.343 -1.2611 -0.1349 -1.2338
  286DG     H21 6576   3.168   3.620   4.173  1.1566  2.5554  1.3906
  286DG     H22 6577   3.393   3.662   4.344  0.0533 -0.4585 -0.3932
  286DG     H23 6578   3.372   3.700   4.176  2.0844 -0.4696 -1.7345
  287DG      C1 6579   0.214   1.924   4.815 -0.2589  0.2578 -0.4527
  287DG      C2 6580  -0.069   2.547   4.759  0.5113  0.2708 -0.1314
  287DG      H3 6581   0.183   1.934   4.919 -0.2256 -1.6446 -0.2228
  287DG      H4 6582   0.308   1.870   4.813 -0.9069 -1.6064  4.7260
  287DG      H5 6583   0.151   1.860   4.753  1.5978 -0.3929 -1.7696
  287DG      H6 6584  -0.156   2.515   4.701  0.6256  1.5151 -1.0221
  287DG      H7 6585  -0.086   2.531   4.866  0.7541 -1.4835 -0.3292
  287DG      H8 6586  -0.043   2.648   4.728 -1.3598  1.1900  1.1144
  287DG      O9 6587   0.220   2.055   4.755  0.4263  0.7746 -1.1135
  287DG     O10 6588   0.045   2.468   4.725  0.1763  0.0406 -0.5166
  287DG     C11 6589   0.259   2.042   4.621  0.1772 -0.4762  0.6611
  287DG     C12 6590   0.082   2.485   4.589  0.2668 -0.2573  0.8282
  287DG     H13 6591   0.176   1.987   4.575  0.4345 -0.5584  0.2890
  287DG     H14 6592   0.345   1.976   4.611  0.7012 -0.1783  2.8353
  287DG     H15 6593   0.100   2.588   4.560 -1.0053 -0.7697 -2.1874
  287DG     H16 6594   0.011   2.441   4.519 -1.6545  0.1328  2.4319
  287DG     C17 6595   0.284   2.176   4.550  0.3049  0.6437 -0.2345
  287DG     C18 6596   0.215   2.411   4.563 -0.3573  0.1007  0.2904
  287DG     O19 6597   0.183   2.270   4.588 -0.5018  0.3828  0.9246
  287DG     H20 6598   0.288   2.172   4.441 -2.6321 -2.2084 -0.3940
  287DG     H21 6599   0.376   2.217   4.590  2.1385 -1.7210 -1.7813
  287DG     H22 6600   0.236   2.413   4.456  0.2008  0.2687  0.3992
  287DG     H23 6601   0.301   2.444   4.621  0.3940 -0.2162 -0.6282
  288DG      C1 6602   2.383   2.326   4.207  0.2615  0.6058  0.5113
  288DG      C2 6603   2.230   1.763   4.512 -0.2046 -0.1553 -0.0986
  288DG      H3 6604   2.444   2.414   4.185 -0.4369  1.4846  1.9395
  288DG      H4 6605   2.294   2.362   4.258 -1.9524 -2.0282 -1.2540
  288DG      H5 6606   2.338   2.284   4.117 -2.0843  0.1248  1.8347
  288DG      H6 6607   2.168   1.807   4.590 -1.0958  0.3565 -1.0702
  288DG      H7 6608   2.180   1.772   4.415 -0.0400  1.3794 -0.0604
  288DG      H8 6609   2.248   1.656   4.525  1.9059 -0.0597 -1.5900
  288DG      O9 6610   2.459   2.232   4.287 -0.0692  0.2921  0.0864
  288DG     O10 6611   2.352   1.837   4.496  0.2480 -0.2838 -0.0270
  288DG     C11 6612   2.563   2.169   4.221  0.2379 -1.2069 -0.0360
  288DG     C12 6613   2.453   1.769   4.419 -0.4233 -0.5609 -0.0262
  288DG     H13 6614   2.641   2.241   4.194 -1.4521  0.4686 -0.6606
  288DG     H14 6615   2.512   2.123   4.137 -0.4219 -1.6746  0.6122
  288DG     H15 6616   2.416   1.737   4.322  2.4344 -0.4220 -1.2782
  288DG     H16 6617   2.488   1.678   4.467  0.0933 -1.0063 -1.2112
  288DG     C17 6618   2.630   2.076   4.318 -0.2540 -0.1647  0.6645
  288DG     C18 6619   2.573   1.866   4.402  0.9870 -0.1705 -0.2569
  288DG     O19 6620   2.523   1.981   4.341 -0.1409 -0.0063  0.0130
  288DG     H20 6621   2.659   2.126   4.410 -0.1470  2.7808 -0.8707
  288DG     H21 6622   2.717   2.047   4.259  0.6102 -0.8978  2.2376
  288DG     H22 6623   2.623   1.899   4.493 -1.0902 -0.8227  1.1706
  288DG     H23 6624   2.647   1.829   4.330  0.8997  0.0541 -0.4649
  289DG      C1 6625   5.482   4.115   4.804 -0.3506  0.3934  0.4171
  289DG      C2 6626   5.265   4.750   5.043 -0.1582  0.7950 -0.2198
  289DG      H3 6627   5.504   4.008   4.803 -1.8720  0.0588 -0.0714
  289DG      H4 6628   5.577   4.165   4.783 -0.4810  1.5622  2.3796
  289DG      H5 6629   5.415   4.135   4.721 -0.8997  0.8269  0.9562
  289DG      H6 6630   5.311   4.820   5.113  0.0586  0.9819 -0.5428
  289DG      H7 6631   5.318   4.755   4.948 -0.4725 -0.4204 -0.4763
  289DG      H8 6632   5.168   4.801   5.041 -0.3046  0.5838  1.0042
  289DG      O9 6633   5.434   4.150   4.932 -0.3977  0.2877  0.3434
  289DG     O10 6634   5.237   4.616   5.082 -0.4009  0.0327  0.5324
  289DG     C11 6635   5.299   4.118   4.974  0.2778 -0.6761 -0.6069
  289DG     C12 6636   5.342   4.560   5.158 -0.8017 -0.3182 -0.5037
  289DG     H13 6637   5.264   4.015   4.983 -0.1522 -0.3835  1.4373
  289DG     H14 6638   5.220   4.159   4.910  0.6957  0.4401 -0.4332
  289DG     H15 6639   5.349   4.618   5.250 -1.0279  3.3657 -2.6323
  289DG     H16 6640   5.434   4.565   5.100 -1.0085  1.5166 -0.7378
  289DG     C17 6641   5.285   4.197   5.111 -0.2451 -0.6053  0.2169
  289DG     C18 6642   5.301   4.422   5.200 -0.7781 -0.1942  0.1626
  289DG     O19 6643   5.297   4.338   5.083 -1.0099  1.0521 -0.0880
  289DG     H20 6644   5.358   4.161   5.185  0.1350 -1.1799 -0.4245
  289DG     H21 6645   5.194   4.165   5.162  1.5866 -1.3668  3.2853
  289DG     H22 6646   5.364   4.401   5.287  1.0191  1.6857 -0.5966
  289DG     H23 6647   5.200   4.425   5.240 -0.9948 -2.4252 -0.1203
  290DG      C1 6648   2.499   5.233   4.608  0.0587 -0.6248  0.5287
  290DG      C2 6649   2.218   4.697   4.752 -0.5799  0.1300  0.5650
  290DG      H3 6650   2.530   5.187   4.702 -2.5978 -2.4948  0.6179
  290DG      H4 6651   2.492   5.341   4.622 -2.8443 -0.4123 -1.5544
  290DG      H5 6652   2.574   5.223   4.530 -0.4547  1.7216 -0.3654
  290DG      H6 6653   2.304   4.650   4.704 -1.4926 -0.0010 -1.0158
  290DG      H7 6654   2.231   4.717   4.858 -1.5493  0.8997  0.5547
  290DG      H8 6655   2.138   4.624   4.760  0.6005 -1.1955  0.7082
  290DG      O9 6656   2.371   5.180   4.586  0.6956  0.2034 -0.5567
  290DG     O10 6657   2.183   4.814   4.684 -0.0532  0.4895 -0.2198
  290DG     C11 6658   2.301   5.228   4.471  0.2809 -0.5549  0.1222
  290DG     C12 6659   2.139   4.795   4.548 -0.5615 -0.7931 -0.9111
  290DG     H13 6660   2.354   5.211   4.378  2.5522  1.0255  1.0321
  290DG     H14 6661   2.282   5.335   4.487  1.1763 -0.4412  0.4863
  290DG     H15 6662   2.058   4.723   4.552  0.7629 -2.2886  0.3281
  290DG     H16 6663   2.219   4.763   4.481 -0.7735 -0.8264 -1.1472
  290DG     C17 6664   2.164   5.158   4.472  0.6270  0.4423 -0.1858
  290DG     C18 6665   2.084   4.929   4.502  0.3961 -0.6079 -0.4667
  290DG     O19 6666   2.196   5.013   4.489  0.5125 -0.5821  0.1671
  290DG     H20 6667   2.106   5.168   4.380 -2.0253 -0.6948  1.2546
  290DG     H21 6668   2.093   5.204   4.541 -0.4073  1.0763 -1.5985
  290DG     H22 6669   2.033   4.930   4.406 -0.6972  0.7230  0.0900
  290DG     H23 6670   2.006   4.966   4.569 -0.2617 -1.0458 -0.9823
  291DG      C1 6671   3.623   1.702   1.130 -0.0774  0.1099 -0.2064
  291DG      C2 6672   3.011   1.808   0.873  0.7875  0.2498  0.3104
  291DG      H3 6673   3.598   1.661   1.228 -1.2099  0.5456 -0.2981
  291DG      H4 6674   3.625   1.811   1.136 -1.6500  0.1931 -0.6341
  291DG      H5 6675   3.717   1.654   1.104 -0.2747 -0.4019  0.0137
  291DG      H6 6676   2.990   1.832   0.769 -0.3274  2.4075  0.9560
  291DG      H7 6677   2.917   1.767   0.909  1.0840 -0.4495  0.3041
  291DG      H8 6678   3.043   1.900   0.924 -0.6127  0.6182  0.5705
  291DG      O9 6679   3.533   1.666   1.022  0.5398 -0.3081 -0.2487
  291DG     O10 6680   3.113   1.715   0.872  0.4845  0.4456  0.7953
  291DG     C11 6681   3.530   1.527   0.996 -0.3348 -0.0281  0.5323
  291DG     C12 6682   3.077   1.572   0.844 -0.4145 -0.3694 -0.3149
  291DG     H13 6683   3.486   1.485   1.086  0.9134  0.1465  1.2369
  291DG     H14 6684   3.634   1.500   0.983  0.0715  2.0773 -1.3056
  291DG     H15 6685   3.002   1.549   0.768  0.2797 -0.8406 -0.8711
  291DG     H16 6686   3.032   1.536   0.937  1.5913  0.6528  1.1215
  291DG     C17 6687   3.432   1.483   0.880  0.6864 -0.4459 -0.2765
  291DG     C18 6688   3.202   1.485   0.821 -0.1853  0.0243  0.6696
  291DG     O19 6689   3.308   1.528   0.908  0.1626 -0.0455 -0.1172
  291DG     H20 6690   3.431   1.375   0.873 -0.3855 -0.5514  1.1641
  291DG     H21 6691   3.456   1.531   0.785  1.4740  0.7478  0.4961
  291DG     H22 6692   3.175   1.380   0.832  1.2399 -0.4096  0.2208
  291DG     H23 6693   3.238   1.507   0.721 -0.7606  1.8293  0.8028
  292DG      C1 6694   0.217   4.341   4.556 -0.1431  0.0612  0.2918
  292DG      C2 6695  -0.426   4.454   4.423 -0.4167  0.0478  0.6320
  292DG      H3 6696   0.211   4.253   4.491 -2.9136  0.0795  0.3691
  292DG      H4 6697   0.302   4.330   4.623  2.0202  0.6369 -2.2354
  292DG      H5 6698   0.231   4.437   4.506  0.0749 -0.3080 -0.3607
  292DG      H6 6699  -0.444   4.348   4.402 -1.1381  0.6168 -2.0306
  292DG      H7 6700  -0.531   4.483   4.430 -1.2149 -2.8948  2.9042
  292DG      H8 6701  -0.381   4.505   4.337  2.0955 -1.9934  0.6090
  292DG      O9 6702   0.095   4.350   4.621  0.2374  0.2016 -1.3904
  292DG     O10 6703  -0.347   4.497   4.538  0.0179  0.2414 -0.2943
  292DG     C11 6704   0.091   4.460   4.710 -0.5233 -0.4872 -0.1394
  292DG     C12 6705  -0.379   4.426   4.656  0.3067  0.2382  0.1812
  292DG     H13 6706   0.090   4.551   4.649 -2.5860 -0.7876 -0.6360
  292DG     H14 6707   0.184   4.481   4.763  0.2045  2.4541 -2.2840
  292DG     H15 6708  -0.371   4.318   4.638 -0.0789  0.3419 -0.6734
  292DG     H16 6709  -0.480   4.442   4.694  0.5829 -1.5058  1.7761
  292DG     C17 6710  -0.038   4.465   4.792 -0.6529  0.1554 -0.6155
  292DG     C18 6711  -0.280   4.463   4.765  0.2772  0.5690  0.3218
  292DG     O19 6712  -0.150   4.444   4.707 -0.0598 -0.1478  0.2876
  292DG     H20 6713  -0.047   4.559   4.846  0.8997  0.2882 -0.5282
  292DG     H21 6714  -0.038   4.383   4.865 -0.1960 -0.5221 -1.3657
  292DG     H22 6715  -0.289   4.565   4.801  0.6745  0.7208 -0.0012
  292DG     H23 6716  -0.292   4.404   4.856  1.4788 -0.4933 -0.1782
  293DG      C1 6717   2.466   0.560   3.402 -0.6991 -0.5698  0.4699
  293DG      C2 6718   2.081   0.540   4.123 -0.2426 -0.0499 -0.4281
  293DG      H3 6719   2.399   0.615   3.335  1.7818  2.1411  0.0407
  293DG      H4 6720   2.519   0.482   3.348  2.0148  0.9204  0.7855
  293DG      H5 6721   2.536   0.636   3.438 -0.2628 -1.3863  1.3744
  293DG      H6 6722   2.143   0.568   4.208  0.1848 -0.9056 -0.4531
  293DG      H7 6723   2.020   0.623   4.086  0.9170  1.3220  0.6530
  293DG      H8 6724   2.003   0.466   4.143  0.3150 -0.7124 -0.6709
  293DG      O9 6725   2.389   0.522   3.516  0.2919  0.7741  0.4605
  293DG     O10 6726   2.160   0.483   4.014 -0.0252 -0.3327 -0.0670
  293DG     C11 6727   2.460   0.474   3.627  0.4475 -0.6445 -0.8889
  293DG     C12 6728   2.226   0.352   4.039 -0.3696 -0.3182  0.3771
  293DG     H13 6729   2.474   0.558   3.694  3.0922 -0.5994 -1.4033
  293DG     H14 6730   2.554   0.423   3.605  0.5450 -1.3950  1.0924
  293DG     H15 6731   2.165   0.277   4.089 -0.5611 -1.3528 -1.3458
  293DG     H16 6732   2.316   0.370   4.099  0.3108 -0.3115 -0.6166
  293DG     C17 6733   2.369   0.369   3.704 -0.0957 -0.1320 -0.1050
  293DG     C18 6734   2.279   0.305   3.903  0.1266  0.2615 -0.3968
  293DG     O19 6735   2.347   0.409   3.836  0.2322  0.4273 -0.1977
  293DG     H20 6736   2.421   0.274   3.698  0.6479  0.2889 -0.5930
  293DG     H21 6737   2.274   0.355   3.652  0.2184 -1.1165 -0.4227
  293DG     H22 6738   2.337   0.214   3.917  1.4429  0.9032 -1.5460
  293DG     H23 6739   2.197   0.266   3.842 -0.2769  1.0208 -0.3432
  294DG      C1 6740   4.222   3.539   2.355 -0.6221 -0.1261 -0.4629
  294DG      C2 6741   4.463   4.187   2.346 -0.2337  0.2063  0.5000
  294DG      H3 6742   4.138   3.470   2.362  1.0616 -2.0925  2.9004
  294DG      H4 6743   4.302   3.523   2.427  0.3194  2.9457 -0.6763
  294DG      H5 6744   4.260   3.523   2.254  0.3670 -0.7714 -0.0056
  294DG      H6 6745   4.529   4.138   2.274 -0.3903  1.3389 -0.4424
  294DG      H7 6746   4.432   4.277   2.292  1.9263  1.4529  1.2096
  294DG      H8 6747   4.534   4.214   2.424  0.8941  1.3065 -0.8484
  294DG      O9 6748   4.186   3.682   2.366  0.0359  0.0829 -0.7133
  294DG     O10 6749   4.364   4.099   2.382 -0.3316 -0.2973 -0.2188
  294DG     C11 6750   4.114   3.700   2.488  0.1894  0.2247 -1.0555
  294DG     C12 6751   4.254   4.158   2.445  0.1122  0.2501  0.1979
  294DG     H13 6752   4.180   3.694   2.575 -1.8342  0.1146  0.5342
  294DG     H14 6753   4.038   3.624   2.499  1.6899 -1.1429  0.4907
  294DG     H15 6754   4.240   4.264   2.422  1.2360  0.6517  1.2408
  294DG     H16 6755   4.288   4.157   2.549 -1.5999  0.7108  0.7817
  294DG     C17 6756   4.065   3.845   2.480  0.2761 -0.0830 -0.2980
  294DG     C18 6757   4.133   4.066   2.422 -0.0649 -0.3911  0.2824
  294DG     O19 6758   4.171   3.937   2.464  0.3940  0.1502 -0.3027
  294DG     H20 6759   4.006   3.872   2.569  1.7942 -2.5290  1.5704
  294DG     H21 6760   3.989   3.855   2.403  0.1971  3.0102  0.0444
  294DG     H22 6761   4.038   4.087   2.471  0.6387  0.3716  1.3965
  294DG     H23 6762   4.118   4.070   2.314 -1.2126 -1.3440  0.3892
  295DG      C1 6763   1.775   0.553   5.198  0.1884  0.7134  0.5166
  295DG      C2 6764   1.268   0.893   5.618  0.1535  0.2253  0.3737
  295DG      H3 6765   1.711   0.571   5.111  0.8957 -0.7792 -0.3549
  295DG      H4 6766   1.834   0.463   5.179  0.3031  1.0619 -0.8405
  295DG      H5 6767   1.853   0.629   5.192 -0.3150  1.1135 -2.3886
  295DG      H6 6768   1.346   0.959   5.581 -1.8222  2.0214 -0.8386
  295DG      H7 6769   1.182   0.917   5.556 -0.4064 -0.0810  1.0112
  295DG      H8 6770   1.251   0.927   5.721  1.3757 -0.4203  0.8127
  295DG      O9 6771   1.699   0.552   5.314  0.1063 -0.5925 -0.4465
  295DG     O10 6772   1.311   0.759   5.612  0.5906 -0.0480  0.5617
  295DG     C11 6773   1.589   0.466   5.303  0.5106  0.0332 -0.0990
  295DG     C12 6774   1.417   0.721   5.692  0.1795  0.7468  0.0495
  295DG     H13 6775   1.609   0.363   5.274 -0.8303  0.1108 -1.5038
  295DG     H14 6776   1.510   0.509   5.240  1.1594  0.4029 -0.6762
  295DG     H15 6777   1.397   0.720   5.800 -0.8102 -1.2544 -0.1131
  295DG     H16 6778   1.495   0.797   5.689  0.6252  0.3505  1.0431
  295DG     C17 6779   1.523   0.450   5.440 -0.5423  0.7733  0.0689
  295DG     C18 6780   1.465   0.586   5.639 -0.4503 -0.3544  0.7847
  295DG     O19 6781   1.499   0.582   5.500  0.6952  0.4048 -0.0732
  295DG     H20 6782   1.578   0.391   5.513  0.7966  2.1571  0.2364
  295DG     H21 6783   1.424   0.406   5.430 -0.5423  0.9156 -0.6376
  295DG     H22 6784   1.558   0.564   5.692  0.2894  0.3052 -0.1939
  295DG     H23 6785   1.394   0.507   5.664 -2.5952  1.9582  2.4607
  296DG      C1 6786   2.208   5.308   0.737  0.0643 -0.2572  0.0725
  296DG      C2 6787   1.753   4.898   0.486  0.0272  0.1304  0.5422
  296DG      H3 6788   2.274   5.253   0.670  1.4051  1.4707 -0.0991
  296DG      H4 6789   2.237   5.275   0.837 -0.5360  0.5781  0.5311
  296DG      H5 6790   2.250   5.409   0.734  0.2373 -0.3128  0.4895
  296DG      H6 6791   1.658   4.881   0.436  0.7740  0.4831 -1.0762
  296DG      H7 6792   1.832   4.877   0.414 -1.6778  1.2415 -1.7529
  296DG      H8 6793   1.758   4.833   0.573 -1.0433 -0.1824  0.3776
  296DG      O9 6794   2.073   5.295   0.704 -0.1710  0.4390  0.5391
  296DG     O10 6795   1.747   5.035   0.521 -0.0661 -0.0733 -0.4961
  296DG     C11 6796   1.990   5.346   0.808 -0.0180  0.4782 -0.3000
  296DG     C12 6797   1.660   5.056   0.628  0.1776 -0.1766  0.5497
  296DG     H13 6798   2.026   5.447   0.829 -1.3030  0.6091  1.5138
  296DG     H14 6799   1.984   5.294   0.903 -1.5330  1.6330  0.2763
  296DG     H15 6800   1.686   4.993   0.713 -1.2983  0.6106  1.6298
  296DG     H16 6801   1.562   5.023   0.594 -0.1407 -0.6419  1.8533
  296DG     C17 6802   1.851   5.348   0.743 -0.3105  0.2231 -0.1073
  296DG     C18 6803   1.670   5.199   0.683 -0.2294  0.6624  0.0215
  296DG     O19 6804   1.809   5.212   0.719 -0.2557 -0.6407  0.2329
  296DG     H20 6805   1.849   5.389   0.642 -0.3890  0.2420 -0.0981
  296DG     H21 6806   1.784   5.402   0.810  1.4704  1.1839  0.9918
  296DG     H22 6807   1.641   5.268   0.604  2.2097  2.3310  0.4680
  296DG     H23 6808   1.604   5.223   0.767  1.1495  1.8079  0.8167
  297DG      C1 6809   1.616   4.165   5.365 -0.4713  0.7761  0.3479
  297DG      C2 6810   1.816   4.901   5.188 -0.7326 -0.2680  0.1220
  297DG      H3 6811   1.514   4.203   5.353 -0.4474  0.3546 -1.6427
  297DG      H4 6812   1.621   4.157   5.473  0.3482 -0.0332  0.2639
  297DG      H5 6813   1.616   4.065   5.322  1.6266  0.1455  1.6976
  297DG      H6 6814   1.839   4.947   5.285 -2.3482 -1.3654  1.0812
  297DG      H7 6815   1.863   4.958   5.108 -3.0770 -0.2255 -1.3118
  297DG      H8 6816   1.711   4.899   5.161 -0.9754  2.4727  0.5038
  297DG      O9 6817   1.717   4.248   5.311  0.1522  0.7394 -0.0233
  297DG     O10 6818   1.857   4.763   5.192 -0.0287  0.3661  0.3578
  297DG     C11 6819   1.718   4.383   5.353  0.1964  0.5452  0.6830
  297DG     C12 6820   1.852   4.687   5.070  0.0209  0.7937 -0.5884
  297DG     H13 6821   1.724   4.388   5.461 -1.0515  0.9404  0.7534
  297DG     H14 6822   1.624   4.421   5.314  0.3151 -0.2539 -0.4583
  297DG     H15 6823   1.898   4.734   4.983  2.0357 -0.3877 -0.2191
  297DG     H16 6824   1.751   4.667   5.033  0.1641 -1.6289  0.1016
  297DG     C17 6825   1.826   4.471   5.289  0.1032 -0.0568 -0.8277
  297DG     C18 6826   1.921   4.547   5.080 -0.7807  0.0054 -0.0827
  297DG     O19 6827   1.823   4.466   5.147  0.4937  0.2729  0.2365
  297DG     H20 6828   1.929   4.450   5.317  0.3974  1.4515 -0.6904
  297DG     H21 6829   1.805   4.571   5.326 -2.1758 -0.2110 -1.5412
  297DG     H22 6830   1.941   4.503   4.982 -0.0503 -2.1186  0.9450
  297DG     H23 6831   2.019   4.548   5.127 -0.3405  1.0454 -0.9821
  298DG      C1 6832   1.976   4.161   5.087 -0.0894  0.3009 -0.1617
  298DG      C2 6833   2.132   4.136   5.821  0.1717 -0.1429  1.1641
  298DG      H3 6834   1.983   4.052   5.076 -3.7159 -0.3423  1.8982
  298DG      H4 6835   1.999   4.209   4.993  1.0889  0.5243  0.2233
  298DG      H5 6836   1.872   4.175   5.118 -0.0131 -0.3878  0.4424
  298DG      H6 6837   2.211   4.110   5.891 -0.6883  0.3186  2.3204
  298DG      H7 6838   2.048   4.180   5.875  0.7336 -0.8871  2.6886
  298DG      H8 6839   2.113   4.044   5.765  1.3652  1.2333 -1.7037
  298DG      O9 6840   2.061   4.226   5.185  0.4875 -0.4262  0.2047
  298DG     O10 6841   2.185   4.230   5.723 -0.0281 -0.2739  0.3282
  298DG     C11 6842   2.037   4.169   5.313  0.0137 -0.1918  0.7413
  298DG     C12 6843   2.310   4.191   5.670 -0.4927 -0.5261  0.9525
  298DG     H13 6844   2.080   4.069   5.318  0.4433 -0.0332  0.1956
  298DG     H14 6845   1.929   4.170   5.333  0.0166  2.7758  1.0193
  298DG     H15 6846   2.317   4.085   5.644  0.1345 -0.2635  0.0069
  298DG     H16 6847   2.383   4.219   5.746  2.2702 -0.3978 -1.5899
  298DG     C17 6848   2.107   4.244   5.429  0.2325 -0.2794 -0.8918
  298DG     C18 6849   2.329   4.262   5.539 -0.0093 -0.0876  0.5902
  298DG     O19 6850   2.248   4.214   5.427 -0.0603  0.0916 -0.4273
  298DG     H20 6851   2.049   4.205   5.512 -1.7185  0.9912 -1.5821
  298DG     H21 6852   2.087   4.351   5.429  0.1774 -0.2182  2.1705
  298DG     H22 6853   2.312   4.369   5.556 -0.9552 -0.2735  0.8614
  298DG     H23 6854   2.431   4.246   5.505  0.0181  1.1889 -0.0086
  299DG      C1 6855   2.840   0.217   3.659  0.4275 -0.2291  0.0653
  299DG      C2 6856   3.432   0.142   3.305  0.1034 -0.0706  0.5356
  299DG      H3 6857   2.788   0.178   3.572  2.2553 -0.1630 -1.0941
  299DG      H4 6858   2.775   0.279   3.721 -0.8930 -0.3062 -1.1872
  299DG      H5 6859   2.866   0.125   3.711  1.2733 -1.8842 -3.0554
  299DG      H6 6860   3.408   0.036   3.305 -0.2206 -0.0032  1.5816
  299DG      H7 6861   3.425   0.184   3.205  0.5514 -0.4145  0.3540
  299DG      H8 6862   3.538   0.150   3.327  0.0857  1.4989  0.1821
  299DG      O9 6863   2.955   0.280   3.619 -0.3468  0.5867  0.1521
  299DG     O10 6864   3.351   0.223   3.393 -0.3537 -0.5182  0.3775
  299DG     C11 6865   2.936   0.413   3.576 -0.8845  0.4848 -0.0467
  299DG     C12 6866   3.379   0.365   3.393 -0.1986  0.4991  0.6969
  299DG     H13 6867   2.884   0.463   3.658  0.9261  1.3880  0.5996
  299DG     H14 6868   2.880   0.444   3.488  2.5853  0.1784 -2.5201
  299DG     H15 6869   3.365   0.413   3.296  2.5107 -1.2346 -0.6631
  299DG     H16 6870   3.482   0.391   3.418  0.7838  0.0005 -2.4031
  299DG     C17 6871   3.072   0.482   3.563  0.1379 -0.4723 -0.5809
  299DG     C18 6872   3.300   0.436   3.497 -0.0752 -0.4955  0.2200
  299DG     O19 6873   3.161   0.395   3.482 -1.0548  0.0100  0.4990
  299DG     H20 6874   3.114   0.482   3.663  1.3891  1.1625 -1.0629
  299DG     H21 6875   3.053   0.577   3.514  0.2145  0.8766  1.8649
  299DG     H22 6876   3.329   0.416   3.600  0.7257 -0.1535  0.0669
  299DG     H23 6877   3.312   0.541   3.470  1.6754 -1.0581 -1.3797
  300DG      C1 6878   1.617   0.057   4.038  0.0541 -0.5444 -0.4383
  300DG      C2 6879   1.722   0.573   4.011 -0.3562  0.0534 -0.0638
  300DG      H3 6880   1.722   0.035   4.019 -0.2198 -1.1494 -1.3140
  300DG      H4 6881   1.559  -0.034   4.028 -1.6833  0.6240 -1.4918
  300DG      H5 6882   1.614   0.097   4.140  0.3497  0.7894 -0.9382
  300DG      H6 6883   1.754   0.529   4.106 -1.1953 -0.5596 -0.0421
  300DG      H7 6884   1.794   0.573   3.930  0.7608 -0.7081  0.8963
  300DG      H8 6885   1.709   0.678   4.035 -1.3540  0.0952 -0.7046
  300DG      O9 6886   1.552   0.155   3.956  0.3338 -0.3129  0.0312
  300DG     O10 6887   1.601   0.508   3.970 -0.0362  0.2621  0.0030
  300DG     C11 6888   1.413   0.162   3.987  0.1048 -0.6275 -0.5288
  300DG     C12 6889   1.552   0.551   3.840 -0.6468 -0.1367 -0.4350
  300DG     H13 6890   1.394   0.142   4.092  3.1095 -1.5940 -0.0837
  300DG     H14 6891   1.362   0.091   3.922  1.9389 -2.5015  0.0036
  300DG     H15 6892   1.610   0.515   3.755 -1.5954 -1.0297 -0.7269
  300DG     H16 6893   1.551   0.660   3.833 -0.1635 -0.0912  0.1342
  300DG     C17 6894   1.355   0.304   3.965  0.0138 -0.4666 -0.1687
  300DG     C18 6895   1.413   0.498   3.831  0.1514  0.6735 -0.9695
  300DG     O19 6896   1.413   0.360   3.849  0.2735  0.7157 -0.3536
  300DG     H20 6897   1.388   0.362   4.051  0.6462  0.5278 -1.0514
  300DG     H21 6898   1.248   0.309   3.987  0.4907 -2.5894  3.2610
  300DG     H22 6899   1.347   0.552   3.899  0.8167  1.0785 -0.6331
  300DG     H23 6900   1.367   0.518   3.734 -2.5407 -1.1310 -0.1669
  301DG      C1 6901   3.305   2.910   1.251  0.3137  0.4940 -0.7651
  301DG      C2 6902   3.105   2.598   0.496  0.4162  0.4466  0.4890
  301DG      H3 6903   3.345   2.991   1.313 -0.5739  0.5468 -0.2300
  301DG      H4 6904   3.349   2.812   1.264  0.8215  0.2885 -3.6083
  301DG      H5 6905   3.207   2.894   1.298  1.3943  0.0835  1.5001
  301DG      H6 6906   3.035   2.518   0.520  1.8137 -1.6721 -1.9800
  301DG      H7 6907   3.075   2.658   0.411 -0.9982 -0.6078  0.2166
  301DG      H8 6908   3.192   2.538   0.466  1.1186  0.4947  2.2642
  301DG      O9 6909   3.290   2.954   1.118 -0.3750  0.4108 -0.2505
  301DG     O10 6910   3.140   2.681   0.600  0.0505 -0.3086  0.1636
  301DG     C11 6911   3.245   2.858   1.029 -0.4130  0.1343 -0.4982
  301DG     C12 6912   3.260   2.752   0.562 -0.3197  0.3422 -0.1822
  301DG     H13 6913   3.144   2.825   1.053 -1.3414  2.3142 -1.1187
  301DG     H14 6914   3.306   2.769   1.041  0.4159  0.8981  1.3945
  301DG     H15 6915   3.248   2.785   0.458 -2.8592  0.9295  0.2194
  301DG     H16 6916   3.345   2.685   0.567 -0.0072  0.7873  0.6180
  301DG     C17 6917   3.251   2.925   0.891 -0.3395  0.0373  0.2307
  301DG     C18 6918   3.275   2.869   0.658 -0.2059  0.7250 -0.1097
  301DG     O19 6919   3.272   2.818   0.793 -0.3477 -0.3346  0.5889
  301DG     H20 6920   3.333   2.995   0.878 -0.8072  0.4527 -0.5803
  301DG     H21 6921   3.158   2.980   0.872  0.6621  1.6654 -0.1310
  301DG     H22 6922   3.369   2.924   0.645  0.4914  0.0850  1.8475
  301DG     H23 6923   3.189   2.933   0.639 -0.8576 -0.2086 -0.3384
  302DG      C1 6924   0.417   1.242   0.951  0.0785  0.3447  0.1109
  302DG      C2 6925   0.096   0.765   1.014 -0.2287  0.2756  0.3239
  302DG      H3 6926   0.483   1.326   0.971  0.6604 -0.3086  0.9633
  302DG      H4 6927   0.326   1.267   1.006  0.3891  0.7768  0.4378
  302DG      H5 6928   0.389   1.254   0.846 -0.7141  1.0582  0.3826
  302DG      H6 6929   0.072   0.795   0.912 -2.3914  2.0512  1.2568
  302DG      H7 6930   0.056   0.665   1.029 -1.2665  0.4469 -1.0913
  302DG      H8 6931   0.038   0.834   1.075 -1.1134  0.1605 -0.3667
  302DG      O9 6932   0.466   1.122   0.999 -0.1963 -0.0331  0.4770
  302DG     O10 6933   0.230   0.760   1.042 -0.2517 -0.2082  0.6486
  302DG     C11 6934   0.578   1.080   0.924 -0.7670  0.2838  0.1065
  302DG     C12 6935   0.302   0.679   0.953 -0.3001  0.2810  0.4676
  302DG     H13 6936   0.665   1.135   0.961 -0.3921  0.6652 -1.2962
  302DG     H14 6937   0.564   1.090   0.817 -0.0358  2.0077  0.1351
  302DG     H15 6938   0.270   0.688   0.849  2.3649  1.0310 -0.3636
  302DG     H16 6939   0.285   0.576   0.981  3.0011 -0.4255  0.2782
  302DG     C17 6940   0.584   0.922   0.951  0.6271  0.6231  0.6321
  302DG     C18 6941   0.448   0.725   0.954  0.3814 -0.9616 -0.1177
  302DG     O19 6942   0.458   0.864   0.925  0.1814  0.0949  0.1378
  302DG     H20 6943   0.605   0.900   1.056 -3.6664 -1.7254  1.2247
  302DG     H21 6944   0.666   0.886   0.888 -0.2108  1.0398 -0.7235
  302DG     H22 6945   0.475   0.706   1.058 -0.1007 -2.2213 -0.2070
  302DG     H23 6946   0.502   0.658   0.887  1.9153  1.3853 -1.3566
  303DG      C1 6947   1.810   4.048   0.258  0.0198 -0.3697  0.3741
  303DG      C2 6948   1.831   4.521   0.780 -0.0064  0.2276  0.6994
  303DG      H3 6949   1.804   3.955   0.315  1.5774 -0.9690 -0.3726
  303DG      H4 6950   1.819   4.126   0.333  2.3880 -0.8470  0.6564
  303DG      H5 6951   1.898   4.055   0.195 -1.1266  3.3582 -1.0862
  303DG      H6 6952   1.891   4.440   0.821 -1.3791 -1.4621 -0.4824
  303DG      H7 6953   1.903   4.603   0.783  0.8790 -0.4407 -1.0158
  303DG      H8 6954   1.752   4.542   0.851  1.2698  1.2978  1.8769
  303DG      O9 6955   1.691   4.047   0.179  0.0603 -0.2756 -0.6493
  303DG     O10 6956   1.781   4.498   0.646 -0.1568  0.0773  0.2540
  303DG     C11 6957   1.575   4.083   0.254  0.6939 -0.3163 -0.1186
  303DG     C12 6958   1.731   4.368   0.620 -0.1582  0.5890 -0.0191
  303DG     H13 6959   1.556   4.006   0.328  1.3884 -0.9658 -0.6002
  303DG     H14 6960   1.495   4.070   0.181  0.3123 -2.3605  0.5965
  303DG     H15 6961   1.697   4.316   0.709  0.7388 -1.6314 -0.9061
  303DG     H16 6962   1.818   4.312   0.586  1.4403  2.7906  0.1806
  303DG     C17 6963   1.564   4.230   0.316  0.8718 -0.3013 -0.6532
  303DG     C18 6964   1.641   4.365   0.502 -0.3824  0.1311  0.5913
  303DG     O19 6965   1.616   4.237   0.448  0.2715  0.3340 -0.2302
  303DG     H20 6966   1.461   4.258   0.336  1.5542  0.9301  1.3522
  303DG     H21 6967   1.602   4.298   0.240  0.6500 -0.3334 -0.7940
  303DG     H22 6968   1.544   4.411   0.522 -1.1605 -1.3575  0.3560
  303DG     H23 6969   1.685   4.436   0.432 -1.8453  2.0734  1.5315
  304DG      C1 6970   5.394   2.322   0.962  0.1846  0.5560  0.0747
  304DG      C2 6971   6.064   2.420   0.852 -0.7579  0.0560 -0.4601
  304DG      H3 6972   5.311   2.390   0.977  0.8419  1.0800  1.5568
  304DG      H4 6973   5.419   2.280   1.060  0.5860 -0.2512 -0.3595
  304DG      H5 6974   5.370   2.231   0.906  0.7826  0.3404  0.1592
  304DG      H6 6975   6.138   2.496   0.827 -0.2112  0.2008  1.4339
  304DG      H7 6976   6.058   2.430   0.961  1.5354  2.5550 -0.4498
  304DG      H8 6977   6.093   2.321   0.816  0.1524  0.4451 -0.8306
  304DG      O9 6978   5.503   2.398   0.901 -0.6139  0.3774 -0.0329
  304DG     O10 6979   5.938   2.460   0.812 -0.2435  0.1220  0.5701
  304DG     C11 6980   5.458   2.470   0.785 -0.2299 -0.1446  0.2585
  304DG     C12 6981   5.925   2.484   0.673 -0.4652  0.2273 -0.4633
  304DG     H13 6982   5.367   2.526   0.805  0.4344  1.0166  0.1123
  304DG     H14 6983   5.430   2.404   0.702  0.0922  0.4367 -0.3213
  304DG     H15 6984   5.928   2.389   0.620  3.1285 -0.0066 -0.1236
  304DG     H16 6985   5.991   2.548   0.615 -0.8614 -0.4829 -1.7326
  304DG     C17 6986   5.571   2.567   0.738 -0.1065  0.0970 -0.0685
  304DG     C18 6987   5.794   2.554   0.651 -0.3402  0.5794 -0.5051
  304DG     O19 6988   5.690   2.482   0.720  0.4842 -0.2405 -0.6998
  304DG     H20 6989   5.579   2.639   0.819 -0.9171 -0.0616  0.1564
  304DG     H21 6990   5.548   2.616   0.643  4.0460  0.3427 -1.1821
  304DG     H22 6991   5.812   2.646   0.707 -0.2125 -0.9877  2.2512
  304DG     H23 6992   5.783   2.563   0.543 -0.8941 -0.2416 -0.5258
  305DG      C1 6993   1.097   4.302   1.871  0.1287 -0.1937 -0.5684
  305DG      C2 6994   0.939   4.661   2.551  0.0383 -0.4605 -0.5329
  305DG      H3 6995   1.047   4.369   1.801  0.5359  0.1192 -0.5614
  305DG      H4 6996   1.013   4.254   1.922  0.6239 -0.0053  0.4484
  305DG      H5 6997   1.155   4.231   1.812 -1.7401 -2.2465 -0.1077
  305DG      H6 6998   0.881   4.598   2.619 -1.2359  1.0346 -0.1699
  305DG      H7 6999   0.983   4.743   2.609 -0.0093  0.1185 -1.3009
  305DG      H8 7000   0.876   4.715   2.481 -1.4270 -0.9555  0.3587
  305DG      O9 7001   1.164   4.406   1.952 -0.0772  0.3866  0.4413
  305DG     O10 7002   1.048   4.593   2.492  0.0652  0.8738 -0.4061
  305DG     C11 7003   1.253   4.356   2.043  0.1014 -0.4059  0.1010
  305DG     C12 7004   1.011   4.501   2.388 -0.2107 -0.0568  0.4360
  305DG     H13 7005   1.338   4.307   1.994  0.9735 -1.9961  2.9561
  305DG     H14 7006   1.203   4.285   2.109 -0.7078  0.4396  0.4116
  305DG     H15 7007   0.931   4.536   2.321  1.0223 -0.4724 -1.3329
  305DG     H16 7008   0.952   4.423   2.436  0.1187 -1.3157 -1.1101
  305DG     C17 7009   1.292   4.465   2.146 -0.0737 -0.1763  0.1054
  305DG     C18 7010   1.136   4.439   2.330  0.5872  0.1523  0.2922
  305DG     O19 7011   1.176   4.521   2.213  0.0098  0.8270  0.0432
  305DG     H20 7012   1.343   4.544   2.091 -2.5930 -0.8947 -3.6633
  305DG     H21 7013   1.355   4.421   2.223  0.8902  1.6289  0.3827
  305DG     H22 7014   1.207   4.415   2.410 -0.2676  2.6425  1.9060
  305DG     H23 7015   1.101   4.342   2.294 -1.1289  0.9434 -0.2467
  306DG      C1 7016   3.492   1.703   4.059 -0.3016 -1.0950  0.2722
  306DG      C2 7017   3.246   2.090   3.509 -0.3048 -0.0898  0.3046
  306DG      H3 7018   3.402   1.717   4.119 -1.2139 -2.4630 -0.7282
  306DG      H4 7019   3.562   1.741   4.134  1.2919  0.0130 -1.6972
  306DG      H5 7020   3.498   1.595   4.055  0.5815 -1.1468  1.9491
  306DG      H6 7021   3.249   2.027   3.420  3.2335 -0.7750  0.7904
  306DG      H7 7022   3.146   2.079   3.552 -0.5620  0.8943 -0.0121
  306DG      H8 7023   3.264   2.196   3.492  3.0020 -0.5930  0.0198
  306DG      O9 7024   3.509   1.777   3.936 -0.0404  0.4362  0.1677
  306DG     O10 7025   3.352   2.045   3.599  0.8992  1.0180 -0.3850
  306DG     C11 7026   3.634   1.739   3.872  0.2134 -0.1106 -0.1070
  306DG     C12 7027   3.469   2.031   3.528  0.5245 -0.1284  0.6370
  306DG     H13 7028   3.617   1.650   3.811  3.2478 -3.6670  3.6410
  306DG     H14 7029   3.705   1.712   3.950 -0.2076 -0.6680  0.0886
  306DG     H15 7030   3.487   2.117   3.464 -0.2811 -0.0571  0.4924
  306DG     H16 7031   3.450   1.956   3.451 -0.4799  1.6927 -0.9766
  306DG     C17 7032   3.678   1.849   3.772  0.1745  0.9161  0.1666
  306DG     C18 7033   3.588   2.007   3.618  0.3083  0.1999  0.0024
  306DG     O19 7034   3.567   1.891   3.695  0.1534 -0.1454 -0.1228
  306DG     H20 7035   3.754   1.798   3.713 -0.8547 -0.2086 -0.2288
  306DG     H21 7036   3.717   1.937   3.824 -1.2519  2.3628 -1.1160
  306DG     H22 7037   3.676   1.986   3.557  0.1312  1.0521 -0.5593
  306DG     H23 7038   3.600   2.095   3.681  0.7781 -0.8280  1.4077
  307DG      C1 7039   4.459   3.710   0.101 -0.2508  0.3925  0.2642
  307DG      C2 7040   4.613   4.427   0.076  0.7387 -0.7826  0.2041
  307DG      H3 7041   4.484   3.608   0.128 -0.1838  0.4407  0.3814
  307DG      H4 7042   4.411   3.708   0.003 -1.7996 -2.0639  0.9815
  307DG      H5 7043   4.383   3.740   0.174 -0.3453  0.5241  0.1140
  307DG      H6 7044   4.623   4.466  -0.025  1.5092 -0.2951  0.4619
  307DG      H7 7045   4.506   4.438   0.094  0.7648  2.1246 -0.8459
  307DG      H8 7046   4.662   4.495   0.146 -1.8311  2.1261 -0.5926
  307DG      O9 7047   4.561   3.805   0.100 -0.1635  0.4115 -0.4032
  307DG     O10 7048   4.647   4.286   0.074  0.1671 -0.2883 -0.2725
  307DG     C11 7049   4.658   3.781   0.000  0.1414  0.8785  0.5329
  307DG     C12 7050   4.778   4.261   0.015  0.7894  0.6210 -0.8783
  307DG     H13 7051   4.612   3.783  -0.098 -0.8368 -1.1779  0.8904
  307DG     H14 7052   4.689   3.676  -0.001 -2.4826 -0.0014  2.0788
  307DG     H15 7053   4.846   4.337   0.053 -0.0895  0.1604  1.8093
  307DG     H16 7054   4.759   4.281  -0.091 -2.1626 -1.8521 -0.9682
  307DG     C17 7055   4.771   3.883   0.017  0.2533 -0.0535  0.2919
  307DG     C18 7056   4.824   4.119   0.044  0.7779  0.1218  0.1977
  307DG     O19 7057   4.718   4.018   0.011 -0.6478 -0.2604  0.6317
  307DG     H20 7058   4.853   3.880  -0.055  0.2693  1.3120  0.2266
  307DG     H21 7059   4.807   3.882   0.120  0.1332  1.0596  0.3567
  307DG     H22 7060   4.909   4.101  -0.022  1.1496 -1.7356  1.1119
  307DG     H23 7061   4.864   4.130   0.145  2.4182 -3.2771  0.0575
  308DG      C1 7062   1.019   0.569   5.308 -0.4396  0.0791  0.1808
  308DG      C2 7063   1.728   0.161   4.820 -0.2103  0.1951 -0.2994
  308DG      H3 7064   0.964   0.476   5.319 -1.2195  0.6142  0.8921
  308DG      H4 7065   0.951   0.654   5.307  0.5569  0.9488  1.9444
  308DG      H5 7066   1.077   0.572   5.400 -0.2352 -2.9942  0.2627
  308DG      H6 7067   1.757   0.114   4.914 -1.3049  1.7163  0.8366
  308DG      H7 7068   1.655   0.093   4.777 -1.4464  0.5509  1.1825
  308DG      H8 7069   1.809   0.164   4.747 -0.2587 -0.1701 -0.3703
  308DG      O9 7070   1.105   0.557   5.191  0.3184  0.0409 -0.7992
  308DG     O10 7071   1.673   0.290   4.841  0.3880 -0.1827  0.5819
  308DG     C11 7072   1.202   0.456   5.196  0.7496  0.3236 -1.0776
  308DG     C12 7073   1.581   0.282   4.952  0.6626  0.0204 -0.2130
  308DG     H13 7074   1.171   0.352   5.197  1.2608  0.1720 -0.3200
  308DG     H14 7075   1.264   0.470   5.284  0.9040 -0.7691 -1.0002
  308DG     H15 7076   1.644   0.271   5.041  2.1680  0.5706 -1.1631
  308DG     H16 7077   1.516   0.196   4.942  1.8155 -0.8516 -0.5050
  308DG     C17 7078   1.283   0.473   5.072  0.1033 -0.1336  0.5728
  308DG     C18 7079   1.478   0.396   4.968 -0.6886 -0.3721  0.5437
  308DG     O19 7080   1.381   0.366   5.065  0.6290  0.0916 -0.2461
  308DG     H20 7081   1.338   0.567   5.077  2.1873 -1.3043  0.6866
  308DG     H21 7082   1.223   0.480   4.981 -0.1958 -0.5509  0.7340
  308DG     H22 7083   1.529   0.486   5.002  0.5291 -0.9483  0.3006
  308DG     H23 7084   1.431   0.421   4.873  2.4246  2.2485 -0.4802
  309DG      C1 7085   2.892   3.832   4.565  0.5002  0.3764  0.0356
  309DG      C2 7086   3.479   4.054   4.005  0.1810 -0.1720  0.0372
  309DG      H3 7087   2.802   3.893   4.577 -1.2642 -1.7353 -1.4899
  309DG      H4 7088   2.905   3.784   4.662  2.0641 -1.2089 -0.8956
  309DG      H5 7089   2.869   3.757   4.490 -1.6001 -0.8624  1.7819
  309DG      H6 7090   3.519   3.953   3.991 -0.0192 -0.2989  0.3853
  309DG      H7 7091   3.415   4.072   3.919  0.3981  0.3408 -0.0209
  309DG      H8 7092   3.558   4.129   4.000  2.1479 -1.7141  3.7496
  309DG      O9 7093   3.003   3.903   4.527 -0.1764 -0.1182  0.0388
  309DG     O10 7094   3.393   4.056   4.117 -0.1342 -0.0472  0.3216
  309DG     C11 7095   3.128   3.832   4.520  0.2146  0.0716  0.2722
  309DG     C12 7096   3.462   4.039   4.242 -0.0631 -0.2975 -0.1546
  309DG     H13 7097   3.146   3.771   4.432 -1.1821  3.8951 -2.9716
  309DG     H14 7098   3.152   3.769   4.606  1.7144 -0.3608 -0.4269
  309DG     H15 7099   3.546   4.108   4.245 -1.2882  1.4187 -2.5071
  309DG     H16 7100   3.514   3.943   4.242  1.0910  0.2831  1.0778
  309DG     C17 7101   3.234   3.942   4.518 -0.0861  0.7964  0.6330
  309DG     C18 7102   3.370   4.054   4.366 -0.3892 -0.7808  0.5270
  309DG     O19 7103   3.282   3.947   4.386  0.0597 -0.3732 -0.4097
  309DG     H20 7104   3.316   3.900   4.577 -0.0841 -0.5534 -0.2847
  309DG     H21 7105   3.203   4.032   4.571 -0.2261 -0.6295  3.1798
  309DG     H22 7106   3.434   4.077   4.450 -2.5214 -1.3234  2.3848
  309DG     H23 7107   3.311   4.146   4.358 -0.4179 -0.9549 -2.4222
  310DG      C1 7108   1.472   5.247   2.151 -0.3969  0.7685  0.6331
  310DG      C2 7109   1.363   5.906   2.047  0.0476  0.6263 -0.8464
  310DG      H3 7110   1.522   5.153   2.129 -1.2076  0.6704 -0.9567
  310DG      H4 7111   1.366   5.234   2.172 -0.3468  1.8889  1.7345
  310DG      H5 7112   1.498   5.268   2.255  0.1658 -0.7509  0.8251
  310DG      H6 7113   1.416   5.993   2.007 -1.3282  1.2519 -1.3515
  310DG      H7 7114   1.258   5.924   2.026 -0.0540  1.1693  0.0922
  310DG      H8 7115   1.372   5.890   2.154 -3.0281  1.1430 -0.4252
  310DG      O9 7116   1.494   5.352   2.056  0.1127 -0.4774 -0.3147
  310DG     O10 7117   1.413   5.785   1.987  0.1020  0.1611  0.0754
  310DG     C11 7118   1.453   5.316   1.923 -0.3078  0.4473  0.5152
  310DG     C12 7119   1.392   5.788   1.850  0.4853  0.3491  0.1836
  310DG     H13 7120   1.348   5.285   1.918 -0.4961  0.4942  2.9115
  310DG     H14 7121   1.504   5.224   1.898 -1.6442 -0.0206 -0.6157
  310DG     H15 7122   1.444   5.871   1.802  1.6357 -0.4764 -0.0216
  310DG     H16 7123   1.290   5.810   1.817  0.8589  2.4911  0.2871
  310DG     C17 7124   1.473   5.429   1.817  0.5204  0.2340 -0.3568
  310DG     C18 7125   1.440   5.658   1.796 -0.3713 -0.1605  0.5253
  310DG     O19 7126   1.434   5.548   1.884  0.0987  0.3501 -0.1512
  310DG     H20 7127   1.408   5.410   1.732 -0.6921 -0.0575  0.6186
  310DG     H21 7128   1.580   5.426   1.795  1.0961  0.6867  2.1204
  310DG     H22 7129   1.389   5.632   1.703  1.9160 -2.7962 -0.1245
  310DG     H23 7130   1.544   5.674   1.765 -0.2404 -0.6520  0.7150
  311DG      C1 7131   2.554   1.557   2.113 -0.1573  0.2308  1.2103
  311DG      C2 7132   2.336   1.706   1.699  0.5640  0.2621 -0.1636
  311DG      H3 7133   2.460   1.526   2.069 -1.0087  1.5350  2.0392
  311DG      H4 7134   2.562   1.489   2.198 -3.0897 -2.3053 -0.3619
  311DG      H5 7135   2.625   1.527   2.036  0.1470 -0.6388  1.8107
  311DG      H6 7136   2.258   1.751   1.636 -1.5226 -3.0841 -0.1897
  311DG      H7 7137   2.431   1.711   1.647 -0.9033 -1.6210 -3.2968
  311DG      H8 7138   2.316   1.601   1.681  0.3422  0.4130 -0.8279
  311DG      O9 7139   2.559   1.695   2.136  0.7728  0.3327 -1.0430
  311DG     O10 7140   2.332   1.731   1.837  0.4388 -0.2140 -1.0235
  311DG     C11 7141   2.463   1.729   2.241 -0.2789 -0.3927 -0.6681
  311DG     C12 7142   2.213   1.788   1.888 -0.0556  0.3976 -0.0584
  311DG     H13 7143   2.510   1.730   2.340  0.4293  1.0988 -0.9875
  311DG     H14 7144   2.378   1.664   2.260 -1.3192  1.1943  0.3911
  311DG     H15 7145   2.128   1.728   1.858  0.5329 -0.6247  0.2882
  311DG     H16 7146   2.202   1.886   1.842 -0.6011  0.8299  0.9655
  311DG     C17 7147   2.397   1.867   2.208  0.5556  0.1636 -0.5504
  311DG     C18 7148   2.226   1.792   2.047 -0.4784 -0.7650 -0.0515
  311DG     O19 7149   2.355   1.853   2.075  0.0577  0.1128 -0.3320
  311DG     H20 7150   2.451   1.960   2.225 -1.2160  1.1790 -0.1619
  311DG     H21 7151   2.311   1.878   2.274  0.2759 -0.9279 -0.7081
  311DG     H22 7152   2.140   1.835   2.099  0.7655 -0.5421  1.9011
  311DG     H23 7153   2.234   1.690   2.083 -2.8393 -0.7721  0.6076
  312DG      C1 7154   3.995   3.221   0.547 -0.3333 -0.4590  0.4059
  312DG      C2 7155   4.472   3.791   0.523 -0.0460 -0.7550  0.4450
  312DG      H3 7156   3.975   3.201   0.442  0.6756 -1.2960  0.3527
  312DG      H4 7157   3.934   3.305   0.580  1.8322  0.8366  1.2633
  312DG      H5 7158   3.960   3.138   0.609 -1.6609 -1.0219 -1.0073
  312DG      H6 7159   4.472   3.766   0.417 -0.3682  1.1491 -0.0418
  312DG      H7 7160   4.391   3.859   0.547  1.9638  2.2762 -0.8195
  312DG      H8 7161   4.555   3.851   0.560  0.9956 -0.3642 -2.3154
  312DG      O9 7162   4.133   3.262   0.572  0.1231  0.2754  0.1738
  312DG     O10 7163   4.453   3.668   0.578  0.2823 -0.2187 -0.0144
  312DG     C11 7164   4.158   3.260   0.714 -0.4023  0.1496 -0.4623
  312DG     C12 7165   4.436   3.660   0.721 -0.0069 -0.2624  0.2464
  312DG     H13 7166   4.141   3.162   0.759 -0.9021 -0.0482 -1.0641
  312DG     H14 7167   4.092   3.324   0.771 -1.4179 -1.5913  0.3854
  312DG     H15 7168   4.335   3.698   0.735 -0.4972 -1.6548  0.6156
  312DG     H16 7169   4.495   3.735   0.773 -2.1950  0.2585  2.1334
  312DG     C17 7170   4.301   3.319   0.742 -0.2449  0.3746  0.0550
  312DG     C18 7171   4.445   3.516   0.756  0.3546 -0.8520 -0.7048
  312DG     O19 7172   4.323   3.458   0.707 -0.0119 -0.0955 -0.4525
  312DG     H20 7173   4.369   3.252   0.689 -0.2277  0.5267 -0.1167
  312DG     H21 7174   4.327   3.317   0.848 -1.3816  1.4888  0.3727
  312DG     H22 7175   4.531   3.464   0.713  0.6818 -2.2580  1.4549
  312DG     H23 7176   4.443   3.507   0.865 -0.7526  1.6332 -0.4466
  313DG      C1 7177   4.346   4.439   4.751  0.0581 -0.0528 -0.1037
  313DG      C2 7178   3.501   4.794   4.877 -0.0954 -0.4197  0.5019
  313DG      H3 7179   4.325   4.338   4.784 -0.7090  0.4016  0.8408
  313DG      H4 7180   4.451   4.466   4.742 -0.2881  1.3629 -0.1459
  313DG      H5 7181   4.303   4.448   4.651  0.5600 -0.5298 -0.3653
  313DG      H6 7182   3.448   4.889   4.889  0.2321  0.1771 -2.1500
  313DG      H7 7183   3.476   4.749   4.781 -0.5028 -1.0802  0.9176
  313DG      H8 7184   3.476   4.714   4.947 -0.6964  0.1786  0.9845
  313DG      O9 7185   4.272   4.518   4.844 -0.1557  0.3278  0.0891
  313DG     O10 7186   3.640   4.825   4.868  0.8981 -0.2952  0.0916
  313DG     C11 7187   4.133   4.504   4.845  0.2733  0.1013 -0.2137
  313DG     C12 7188   3.721   4.710   4.848  0.1213  0.5262  0.2730
  313DG     H13 7189   4.096   4.441   4.925  0.2302  1.0103  0.4936
  313DG     H14 7190   4.102   4.438   4.763  2.2731 -0.1566 -0.8115
  313DG     H15 7191   3.682   4.665   4.757 -3.6465  3.3684  0.2082
  313DG     H16 7192   3.716   4.645   4.935 -0.2797 -0.0180 -0.1535
  313DG     C17 7193   4.073   4.647   4.845 -0.1551 -0.0026 -0.3779
  313DG     C18 7194   3.860   4.754   4.824  0.3824 -0.4073  0.4033
  313DG     O19 7195   3.929   4.634   4.842 -0.6545 -0.1787 -0.1333
  313DG     H20 7196   4.115   4.704   4.762 -0.3498 -0.0877 -0.5344
  313DG     H21 7197   4.101   4.700   4.936  0.1266  0.3387 -0.6586
  313DG     H22 7198   3.872   4.789   4.722  0.3861 -2.0899 -0.2040
  313DG     H23 7199   3.884   4.827   4.901  0.4701 -2.1599  2.1228
  314DG      C1 7200   0.587   1.022   2.880 -0.6348  0.1506  0.1287
  314DG      C2 7201   0.612   1.622   2.926  0.5993 -0.4924 -0.2102
  314DG      H3 7202   0.504   1.007   2.948 -2.9000  3.3581 -1.6460
  314DG      H4 7203   0.656   0.941   2.906  0.2675  1.3901  1.7775
  314DG      H5 7204   0.553   1.010   2.776  2.8547  1.9258 -1.3771
  314DG      H6 7205   0.619   1.541   2.998 -1.1761 -1.2589 -0.8484
  314DG      H7 7206   0.649   1.717   2.965 -0.7691  0.9048 -2.0765
  314DG      H8 7207   0.505   1.635   2.905  0.7779 -0.4217 -1.1212
  314DG      O9 7208   0.655   1.145   2.904  0.4733  0.4934 -0.0155
  314DG     O10 7209   0.677   1.606   2.805  0.2559 -0.2449  0.2406
  314DG     C11 7210   0.792   1.144   2.871 -0.0400  0.6549  0.4307
  314DG     C12 7211   0.819   1.610   2.810 -0.0336  0.0542  0.7293
  314DG     H13 7212   0.799   1.125   2.763  1.3168  1.2352  0.3973
  314DG     H14 7213   0.840   1.065   2.928  0.2498  2.0856  2.2269
  314DG     H15 7214   0.859   1.709   2.830  0.9689 -0.1963  0.0423
  314DG     H16 7215   0.865   1.603   2.711 -3.6432 -1.2719 -1.0306
  314DG     C17 7216   0.857   1.270   2.918  0.0466 -0.0448  0.1169
  314DG     C18 7217   0.880   1.497   2.888 -0.2965  0.1196 -0.7660
  314DG     O19 7218   0.808   1.386   2.856  0.4559 -0.3416  0.1880
  314DG     H20 7219   0.962   1.248   2.900  0.2345 -0.7111  1.8764
  314DG     H21 7220   0.843   1.286   3.025 -0.2591 -0.1730  0.0975
  314DG     H22 7221   0.982   1.482   2.851 -0.3116 -1.0031 -0.3636
  314DG     H23 7222   0.861   1.506   2.995 -0.5363  1.6975 -0.9146
  315DG      C1 7223   3.783   0.696   1.788 -0.2666  0.7220 -0.5612
  315DG      C2 7224   3.944   0.335   2.289 -0.0772  0.0170  0.1317
  315DG      H3 7225   3.890   0.676   1.801 -0.6375 -0.9132  0.2095
  315DG      H4 7226   3.771   0.803   1.775  0.6684  0.7961 -0.9414
  315DG      H5 7227   3.761   0.644   1.695  1.5791  1.8233 -1.6941
  315DG      H6 7228   4.040   0.291   2.319  0.0599  0.9064  1.0225
  315DG      H7 7229   3.971   0.434   2.252  0.7964 -0.5233 -0.7464
  315DG      H8 7230   3.876   0.331   2.373 -0.4946  0.6073 -0.1768
  315DG      O9 7231   3.699   0.653   1.895 -0.2888  0.0357 -0.4295
  315DG     O10 7232   3.901   0.254   2.172 -0.6623 -0.1526 -0.2545
  315DG     C11 7233   3.742   0.699   2.026 -0.1803  0.1145 -0.1056
  315DG     C12 7234   3.765   0.264   2.145 -0.5894  0.0004 -0.4541
  315DG     H13 7235   3.711   0.803   2.013  3.0972  1.2414  0.3327
  315DG     H14 7236   3.850   0.709   2.039 -0.1394 -0.9721  0.5231
  315DG     H15 7237   3.714   0.251   2.241  3.6511  0.6021  2.1627
  315DG     H16 7238   3.746   0.182   2.075  2.8531 -0.8099 -0.5874
  315DG     C17 7239   3.677   0.629   2.148 -0.3538  0.0748  0.1670
  315DG     C18 7240   3.725   0.397   2.082 -0.6037 -0.5411 -0.3032
  315DG     O19 7241   3.740   0.508   2.181  0.5589  0.1628 -0.3937
  315DG     H20 7242   3.572   0.608   2.128 -0.8162 -0.4625  2.8312
  315DG     H21 7243   3.683   0.699   2.231  1.1126  0.7382 -0.4520
  315DG     H22 7244   3.788   0.413   1.995  1.3836 -1.7917  0.8279
  315DG     H23 7245   3.623   0.391   2.044 -0.7287  0.1250 -0.0756
  316DG      C1 7246   5.203   4.655   0.986 -0.1754  0.2254  0.2555
  316DG      C2 7247   4.470   4.375   1.022  0.5461 -0.2787  0.3859
  316DG      H3 7248   5.252   4.601   0.905  0.3749  0.7713  0.2132
  316DG      H4 7249   5.209   4.603   1.081  0.3600 -2.5247 -1.1730
  316DG      H5 7250   5.229   4.761   0.992 -2.9869  1.0840 -0.7002
  316DG      H6 7251   4.456   4.466   0.965  0.4965 -1.2959 -1.2771
  316DG      H7 7252   4.466   4.296   0.948 -1.7560 -0.7193  0.8866
  316DG      H8 7253   4.387   4.364   1.093  1.5830  0.2155  1.7195
  316DG      O9 7254   5.071   4.645   0.955 -0.0069 -0.1393 -0.1847
  316DG     O10 7255   4.595   4.398   1.084  0.4491  0.4505 -0.2139
  316DG     C11 7256   5.010   4.514   0.955  0.0374  0.1054 -0.3414
  316DG     C12 7257   4.651   4.284   1.151 -0.4160  0.3439 -0.8818
  316DG     H13 7258   5.085   4.447   0.912  1.0371  1.6112 -1.0610
  316DG     H14 7259   4.926   4.510   0.886  0.1367 -1.1276 -0.4047
  316DG     H15 7260   4.660   4.193   1.092 -0.6956 -0.5380  0.3940
  316DG     H16 7261   4.602   4.265   1.246 -0.2252  1.3800 -0.5637
  316DG     C17 7262   4.967   4.470   1.098 -0.0418  0.3875  0.1519
  316DG     C18 7263   4.790   4.332   1.195 -0.1252 -0.0448  0.3791
  316DG     O19 7264   4.861   4.383   1.080  0.2992  0.1067 -0.2455
  316DG     H20 7265   4.942   4.559   1.155 -1.5268 -0.2783  0.6049
  316DG     H21 7266   5.047   4.421   1.153  0.6080  1.4560  0.1828
  316DG     H22 7267   4.782   4.410   1.270  1.0053  0.9699 -0.5065
  316DG     H23 7268   4.841   4.252   1.247  2.4937  0.6106 -0.9985
  317DG      C1 7269   0.706   3.639   1.212  0.4349  0.2451  0.3795
  317DG      C2 7270   1.366   4.016   0.821  0.0694  0.3158  0.2238
  317DG      H3 7271   0.629   3.645   1.135 -0.0233 -0.3334  0.7878
  317DG      H4 7272   0.689   3.724   1.279 -1.2323 -0.6657  1.1763
  317DG      H5 7273   0.701   3.547   1.271 -0.5396 -2.3829 -3.4242
  317DG      H6 7274   1.387   4.074   0.910 -0.9137  1.3062 -0.1651
  317DG      H7 7275   1.457   4.022   0.761 -0.7372  0.6049 -1.0245
  317DG      H8 7276   1.281   4.057   0.766 -0.4741  2.3554  2.4641
  317DG      O9 7277   0.827   3.657   1.144 -0.2502  0.0934 -0.0343
  317DG     O10 7278   1.328   3.883   0.859  0.0912 -0.2393 -0.1817
  317DG     C11 7279   0.940   3.589   1.206 -0.0168 -0.6319  0.6351
  317DG     C12 7280   1.218   3.887   0.948  0.1553 -0.1251 -0.8374
  317DG     H13 7281   0.901   3.490   1.228 -1.7797 -0.4951 -1.4813
  317DG     H14 7282   0.973   3.646   1.293 -0.8752  0.7738  0.0923
  317DG     H15 7283   1.133   3.943   0.909 -0.2568 -2.3573 -3.4190
  317DG     H16 7284   1.243   3.924   1.047 -1.7836 -0.4066 -0.2115
  317DG     C17 7285   1.057   3.595   1.112  0.7070 -0.6379  0.3206
  317DG     C18 7286   1.192   3.737   0.986  0.2563 -0.0545  0.2405
  317DG     O19 7287   1.075   3.732   1.072 -0.1373  0.0708 -0.5404
  317DG     H20 7288   1.039   3.541   1.019 -2.8565 -1.1198  1.1498
  317DG     H21 7289   1.146   3.551   1.157 -1.7585 -2.1933  4.1721
  317DG     H22 7290   1.169   3.676   0.899  1.4636  0.1755 -0.2524
  317DG     H23 7291   1.285   3.696   1.025  1.5468 -1.9085 -4.2227
  318DG      C1 7292   1.998   1.687   2.497  0.5529 -0.1268 -0.3928
  318DG      C2 7293   2.454   1.159   2.393  0.6429 -0.3557 -0.2894
  318DG      H3 7294   1.902   1.638   2.515 -0.2118  1.2031 -0.6906
  318DG      H4 7295   2.008   1.696   2.389  1.6339 -1.9730 -0.5069
  318DG      H5 7296   1.982   1.785   2.543  3.3608 -0.4855  1.6456
  318DG      H6 7297   2.491   1.193   2.296 -1.5443  1.0683 -0.7140
  318DG      H7 7298   2.515   1.080   2.435  0.9024 -0.3027 -0.5673
  318DG      H8 7299   2.366   1.098   2.371  1.4755 -1.6581 -0.1213
  318DG      O9 7300   2.109   1.619   2.556  0.3528 -0.5968  0.1105
  318DG     O10 7301   2.409   1.261   2.485 -0.3034 -0.1112  0.6348
  318DG     C11 7302   2.217   1.709   2.579  0.3481  0.6142 -0.1639
  318DG     C12 7303   2.518   1.345   2.516 -0.0750 -0.4181 -0.3314
  318DG     H13 7304   2.203   1.784   2.657  1.5632 -1.0800  1.7843
  318DG     H14 7305   2.264   1.753   2.490  1.1198  1.8035  0.7977
  318DG     H15 7306   2.564   1.393   2.429 -0.1362 -1.2060 -0.8062
  318DG     H16 7307   2.602   1.296   2.564  0.6994  2.4929  1.5865
  318DG     C17 7308   2.326   1.629   2.651  0.2860 -0.2107  0.0083
  318DG     C18 7309   2.473   1.460   2.615 -0.1086  0.0584  0.8058
  318DG     O19 7310   2.357   1.524   2.566  0.1142 -0.4078 -0.1887
  318DG     H20 7311   2.299   1.587   2.748 -0.3463 -4.7699 -1.9008
  318DG     H21 7312   2.413   1.694   2.664  0.5938 -0.8307  1.1582
  318DG     H22 7313   2.444   1.402   2.702  0.0263 -1.0633  0.1160
  318DG     H23 7314   2.559   1.523   2.639 -0.1761  0.3003  0.4197
  319DG      C1 7315   2.087   2.976   3.708 -1.3448  0.0722  0.7080
  319DG      C2 7316   2.652   3.201   3.846  0.2925  0.0396 -0.0438
  319DG      H3 7317   2.003   2.918   3.670 -1.1954  1.3083 -1.6519
  319DG      H4 7318   2.076   3.079   3.674 -1.7702 -1.0085 -2.8129
  319DG      H5 7319   2.078   2.977   3.817  0.6995 -1.8375  0.9679
  319DG      H6 7320   2.593   3.209   3.937  0.0177 -1.7521 -0.0315
  319DG      H7 7321   2.755   3.206   3.880 -0.0809  1.0997  0.9903
  319DG      H8 7322   2.626   3.285   3.782  2.9516  0.3701 -0.8019
  319DG      O9 7323   2.216   2.927   3.666 -0.1194 -0.1221 -0.2997
  319DG     O10 7324   2.634   3.076   3.784 -0.3729  0.6203 -0.3558
  319DG     C11 7325   2.242   2.808   3.738  0.5264  0.3539  0.2110
  319DG     C12 7326   2.650   2.969   3.878 -0.5770 -0.0050 -0.1629
  319DG     H13 7327   2.178   2.728   3.701  0.1550  0.3704  0.8136
  319DG     H14 7328   2.216   2.814   3.843  1.8491 -0.1090  0.5813
  319DG     H15 7329   2.592   2.983   3.969  0.6353 -1.5552  0.8983
  319DG     H16 7330   2.757   2.956   3.892 -0.7692 -0.6057  0.8082
  319DG     C17 7331   2.390   2.767   3.730  0.1877  0.6482  0.0496
  319DG     C18 7332   2.587   2.845   3.819  0.1204 -0.1467  0.1740
  319DG     O19 7333   2.450   2.873   3.790 -0.0950  0.2445 -0.0730
  319DG     H20 7334   2.423   2.751   3.627  1.7935  3.4793  0.0378
  319DG     H21 7335   2.408   2.674   3.784 -0.1129  0.3038 -0.4322
  319DG     H22 7336   2.646   2.826   3.730 -2.7337 -1.4966 -1.5929
  319DG     H23 7337   2.588   2.769   3.898 -0.8332 -0.5851 -0.2143
  320DG      C1 7338   3.022   3.843   0.924  0.0242  0.4168  0.2680
  320DG      C2 7339   2.525   3.387   0.430  0.4194  0.0492 -0.5637
  320DG      H3 7340   3.021   3.823   1.031 -0.6837 -2.5898 -0.2007
  320DG      H4 7341   2.946   3.920   0.915 -1.9671 -1.5340 -0.4515
  320DG      H5 7342   3.115   3.893   0.895  0.7526 -1.0711 -0.0690
  320DG      H6 7343   2.512   3.278   0.430 -0.1668  0.0998  1.1403
  320DG      H7 7344   2.453   3.437   0.494 -0.9636 -1.8106 -0.5956
  320DG      H8 7345   2.518   3.425   0.328  0.7751  0.3014 -0.4947
  320DG      O9 7346   2.990   3.735   0.837 -0.0899  0.0246  0.2825
  320DG     O10 7347   2.658   3.422   0.461  0.4706 -0.5139 -0.4775
  320DG     C11 7348   2.989   3.768   0.704 -0.1587  0.1253  0.0344
  320DG     C12 7349   2.679   3.406   0.604  0.0073 -0.3581 -0.0919
  320DG     H13 7350   3.081   3.824   0.684  0.0718  0.4397  1.8376
  320DG     H14 7351   2.904   3.832   0.681  0.0567  1.2392  2.1194
  320DG     H15 7352   2.653   3.303   0.628 -0.0676 -0.3946 -0.3225
  320DG     H16 7353   2.623   3.481   0.660 -0.5077  0.0456 -1.1208
  320DG     C17 7354   2.977   3.635   0.621  0.0626  0.4840  0.0581
  320DG     C18 7355   2.827   3.430   0.632 -0.4029  0.1686 -0.1990
  320DG     O19 7356   2.847   3.577   0.654  0.1621 -0.3650  0.4503
  320DG     H20 7357   3.051   3.557   0.639 -0.7017  0.1045  1.8236
  320DG     H21 7358   2.983   3.668   0.517  2.3626  2.6422  0.7775
  320DG     H22 7359   2.871   3.375   0.715 -0.2332  1.3277  0.5011
  320DG     H23 7360   2.888   3.394   0.550 -0.7180 -2.6276  0.6873
  321DG      C1 7361   1.664   3.299   2.795  0.8510 -0.4388  0.2194
  321DG      C2 7362   1.156   3.628   2.588  0.0743 -0.0612  0.0091
  321DG      H3 7363   1.646   3.260   2.695  1.9352 -0.1324 -0.1166
  321DG      H4 7364   1.646   3.227   2.875  0.4667  0.5954  1.1068
  321DG      H5 7365   1.767   3.335   2.804  0.1647  1.8091 -0.2528
  321DG      H6 7366   1.113   3.536   2.548 -1.1653  0.6030 -0.2302
  321DG      H7 7367   1.075   3.701   2.588 -0.3065 -0.4192  2.3824
  321DG      H8 7368   1.240   3.660   2.526  0.8576  0.0293  1.0839
  321DG      O9 7369   1.571   3.396   2.839 -0.2335  0.5846  0.8213
  321DG     O10 7370   1.212   3.605   2.717  0.0067  0.1407  0.6246
  321DG     C11 7371   1.598   3.457   2.957  0.2061  0.1636 -0.5492
  321DG     C12 7372   1.229   3.728   2.793 -0.1062 -0.0314 -0.0812
  321DG     H13 7373   1.693   3.509   2.940  0.2851  0.4629  0.7034
  321DG     H14 7374   1.626   3.390   3.038  2.2657  1.6436  0.0458
  321DG     H15 7375   1.132   3.776   2.809 -1.4072 -2.9109  1.4815
  321DG     H16 7376   1.283   3.794   2.725 -0.9956 -0.6003 -1.3725
  321DG     C17 7377   1.478   3.542   3.002  0.1133  0.5467  0.1701
  321DG     C18 7378   1.308   3.693   2.921  0.4717  0.0070 -0.2375
  321DG     O19 7379   1.412   3.606   2.892 -0.1116  0.1203 -0.0292
  321DG     H20 7380   1.507   3.607   3.085 -2.8417 -0.3891  2.0959
  321DG     H21 7381   1.417   3.465   3.050  0.2069 -0.2551 -0.9523
  321DG     H22 7382   1.339   3.792   2.953  0.5346 -0.5963  1.7138
  321DG     H23 7383   1.234   3.648   2.988 -0.3426 -0.4107 -1.3978
  322DG      C1 7384   1.997   5.160   0.266 -0.3385 -0.1394  0.0712
  322DG      C2 7385   1.924   4.899   0.887 -0.2209  0.4125 -0.5963
  322DG      H3 7386   1.895   5.190   0.290 -0.5465  0.1888 -1.1638
  322DG      H4 7387   2.006   5.136   0.160  1.0224  3.0756 -0.6586
  322DG      H5 7388   2.047   5.257   0.274 -1.9556  0.7363 -0.0196
  322DG      H6 7389   1.997   4.952   0.948 -0.3962 -0.2664  0.2295
  322DG      H7 7390   1.833   4.959   0.885  0.3592  1.4833  1.7511
  322DG      H8 7391   1.907   4.802   0.935  1.5324 -0.1199 -0.9505
  322DG      O9 7392   2.038   5.047   0.341  0.1156  0.2050  0.1781
  322DG     O10 7393   1.980   4.885   0.760  0.2403  0.9090  0.2452
  322DG     C11 7394   2.172   5.006   0.315 -0.3058 -0.0412 -0.0177
  322DG     C12 7395   2.097   4.813   0.759 -0.4739  0.0498 -0.5214
  322DG     H13 7396   2.231   5.084   0.362 -4.2587  1.9290  2.1586
  322DG     H14 7397   2.194   4.989   0.209 -1.9328  1.1391 -0.5807
  322DG     H15 7398   2.113   4.722   0.817 -1.9597  0.5550  0.7650
  322DG     H16 7399   2.173   4.885   0.792 -1.7686  0.2764  2.2459
  322DG     C17 7400   2.166   4.883   0.393  0.1664  0.3099 -1.0845
  322DG     C18 7401   2.123   4.779   0.612  0.8325 -0.5997 -0.2385
  322DG     O19 7402   2.131   4.903   0.534  0.0811  0.7077 -0.3024
  322DG     H20 7403   2.268   4.845   0.391 -0.8107 -2.5536 -2.0434
  322DG     H21 7404   2.099   4.812   0.345 -1.1172  1.6363 -1.3042
  322DG     H22 7405   2.216   4.723   0.610  1.0113 -0.2986 -0.7423
  322DG     H23 7406   2.049   4.710   0.571  0.8155 -0.6082 -0.1944
  323DG      C1 7407   4.955   3.072   4.623  1.1125 -0.1687  0.6692
  323DG      C2 7408   5.625   2.921   4.559 -0.0993 -0.1403  0.1502
  323DG      H3 7409   4.881   2.996   4.647  1.3223 -0.4595  0.4118
  323DG      H4 7410   4.961   3.058   4.515 -3.6673 -0.6159  0.2486
  323DG      H5 7411   4.936   3.176   4.649 -0.4380 -0.0507 -0.7945
  323DG      H6 7412   5.600   2.964   4.462 -2.4176  0.1190  0.8076
  323DG      H7 7413   5.707   2.984   4.593 -0.6174  1.0053 -0.6307
  323DG      H8 7414   5.661   2.819   4.557 -1.0982 -0.5022  0.3748
  323DG      O9 7415   5.069   3.037   4.683  0.0247 -0.0146  0.4790
  323DG     O10 7416   5.518   2.929   4.649  0.2146 -0.4289  0.8425
  323DG     C11 7417   5.080   3.072   4.821 -0.6535 -0.0706 -0.2602
  323DG     C12 7418   5.543   2.920   4.787 -0.4092  0.1680  0.3364
  323DG     H13 7419   4.988   3.058   4.878  0.5927  0.6470  2.0424
  323DG     H14 7420   5.111   3.176   4.831  2.2578 -0.5413 -2.8775
  323DG     H15 7421   5.599   3.010   4.814  1.1859 -0.0185 -2.0305
  323DG     H16 7422   5.606   2.835   4.812  0.0400  0.6351  0.8279
  323DG     C17 7423   5.192   2.996   4.891  0.0030  0.3617 -0.3739
  323DG     C18 7424   5.414   2.916   4.869 -0.0179 -0.8425  0.3366
  323DG     O19 7425   5.315   3.005   4.812  0.2023 -0.0768 -0.3628
  323DG     H20 7426   5.163   2.892   4.900 -1.1342  0.6353 -0.6545
  323DG     H21 7427   5.214   3.026   4.993 -0.5444 -1.7424  0.4161
  323DG     H22 7428   5.374   2.815   4.874  1.7916 -1.5502  2.3634
  323DG     H23 7429   5.427   2.936   4.976  0.0041  0.1970  0.1509
  324DG      C1 7430   1.658   4.227   4.213 -0.0819 -0.0837 -0.0679
  324DG      C2 7431   0.983   4.353   4.207  0.0807 -0.5400  0.5170
  324DG      H3 7432   1.736   4.283   4.161  0.2702  1.3423  1.8646
  324DG      H4 7433   1.624   4.154   4.140  1.0335 -1.4566  0.7196
  324DG      H5 7434   1.700   4.182   4.303  2.2437 -0.3466 -1.1895
  324DG      H6 7435   0.893   4.410   4.230  0.8382  0.8570  0.1207
  324DG      H7 7436   0.976   4.317   4.104  1.3162  2.0039 -0.5515
  324DG      H8 7437   0.987   4.260   4.264  1.8556 -0.1596  1.0866
  324DG      O9 7438   1.555   4.321   4.227  0.3095 -0.2021  0.4855
  324DG     O10 7439   1.105   4.416   4.222 -0.2743 -0.7772 -0.6228
  324DG     C11 7440   1.599   4.429   4.307 -0.1774 -0.5787  0.7142
  324DG     C12 7441   1.131   4.476   4.346  0.1230  0.6088 -0.2062
  324DG     H13 7442   1.689   4.465   4.257 -1.2475 -0.4936 -1.2606
  324DG     H14 7443   1.631   4.393   4.405  1.1570 -1.1688  0.0808
  324DG     H15 7444   1.124   4.413   4.435  2.2768  1.6629  0.7883
  324DG     H16 7445   1.051   4.548   4.359 -1.5515 -1.0770 -0.7907
  324DG     C17 7446   1.491   4.529   4.317 -1.1027 -0.8656  0.4069
  324DG     C18 7447   1.260   4.553   4.355  0.8524  0.1696 -0.3661
  324DG     O19 7448   1.370   4.465   4.352  0.1397 -0.9335 -0.2676
  324DG     H20 7449   1.474   4.595   4.232 -1.9342 -0.5838  0.7702
  324DG     H21 7450   1.520   4.593   4.400  0.4104 -0.7205 -0.2030
  324DG     H22 7451   1.272   4.630   4.278  1.7603 -0.8584 -1.2730
  324DG     H23 7452   1.259   4.603   4.452  2.0957  2.1262 -1.2832
  325DG      C1 7453   5.333   4.833   4.071 -0.7731  0.9051 -0.9225
  325DG      C2 7454   4.894   4.750   4.794  0.2002 -0.3664 -0.5479
  325DG      H3 7455   5.437   4.804   4.090 -0.7280 -1.1199 -3.6368
  325DG      H4 7456   5.323   4.939   4.091  0.5872  0.6277  1.5795
  325DG      H5 7457   5.318   4.814   3.965  0.6321  2.3564 -1.4198
  325DG      H6 7458   4.989   4.733   4.844  0.1054 -0.1373 -0.2861
  325DG      H7 7459   4.825   4.796   4.865 -0.3464  0.1598 -1.4034
  325DG      H8 7460   4.849   4.652   4.775  1.1713 -0.8161 -0.5596
  325DG      O9 7461   5.242   4.759   4.154  0.1942 -0.1154  0.3832
  325DG     O10 7462   4.916   4.832   4.685 -0.4776  0.1376  0.2140
  325DG     C11 7463   5.107   4.803   4.135 -0.6785 -0.6854  0.8031
  325DG     C12 7464   5.002   4.777   4.589  0.0323 -0.2646 -0.3718
  325DG     H13 7465   5.038   4.720   4.125 -0.5843 -0.6933  0.1736
  325DG     H14 7466   5.098   4.867   4.047  1.0634 -0.4842  0.7237
  325DG     H15 7467   4.965   4.680   4.556  2.1209 -0.6344 -1.8530
  325DG     H16 7468   5.100   4.757   4.631  0.0373 -0.1976 -0.3536
  325DG     C17 7469   5.059   4.888   4.252  0.0679  0.0003 -0.1229
  325DG     C18 7470   5.014   4.885   4.479  0.6873 -0.2565  0.8553
  325DG     O19 7471   5.064   4.817   4.366  0.0970 -0.4354 -0.8908
  325DG     H20 7472   4.959   4.926   4.233  0.1612 -0.1304 -0.9233
  325DG     H21 7473   5.118   4.979   4.256 -1.4309  1.1450 -2.1536
  325DG     H22 7474   4.919   4.935   4.463  0.8066 -0.1229  0.5573
  325DG     H23 7475   5.079   4.970   4.503  0.5286  0.0410  0.2373
  326DG      C1 7476   5.068   2.876   0.198  0.1173  0.3615  0.3647
  326DG      C2 7477   5.144   2.402  -0.319 -0.5906 -0.2734 -0.7736
  326DG      H3 7478   4.997   2.936   0.140 -0.0685 -3.1733 -3.6018
  326DG      H4 7479   5.166   2.920   0.181  0.7475 -0.4514  1.7651
  326DG      H5 7480   5.053   2.867   0.305  2.2481 -1.1019  0.5995
  326DG      H6 7481   5.044   2.438  -0.343 -0.2550  2.3003  1.3229
  326DG      H7 7482   5.221   2.467  -0.360 -0.6756 -0.1181 -0.6848
  326DG      H8 7483   5.167   2.308  -0.371  2.3081 -1.4126  2.2028
  326DG      O9 7484   5.061   2.760   0.123  0.4425  0.7585 -0.5574
  326DG     O10 7485   5.136   2.388  -0.178 -0.9386  0.1615  0.1019
  326DG     C11 7486   5.171   2.675   0.142  0.1034 -0.5025 -0.9295
  326DG     C12 7487   5.013   2.348  -0.122  0.1588 -0.0806 -0.2611
  326DG     H13 7488   5.172   2.646   0.247  1.5778 -0.9501 -1.0489
  326DG     H14 7489   5.262   2.725   0.108  0.8561 -2.7185 -2.3844
  326DG     H15 7490   5.004   2.242  -0.144 -1.6915  0.0387 -0.2644
  326DG     H16 7491   4.930   2.411  -0.158  0.5047 -0.0324 -1.0039
  326DG     C17 7492   5.146   2.562   0.044 -0.4574 -0.2457 -1.1313
  326DG     C18 7493   5.032   2.357   0.028  0.2205 -0.3612 -0.7859
  326DG     O19 7494   5.027   2.493   0.080  0.7720  0.5989  0.2737
  326DG     H20 7495   5.230   2.494   0.059 -1.5839 -1.4993 -0.2328
  326DG     H21 7496   5.141   2.602  -0.057 -3.9460  1.0034 -0.6010
  326DG     H22 7497   4.950   2.310   0.082  1.1111 -2.0202 -0.8303
  326DG     H23 7498   5.120   2.301   0.061  0.6988  0.4644 -0.6274
  327DG      C1 7499   3.756   1.835   0.731 -0.4068 -0.1255 -0.0353
  327DG      C2 7500   3.148   2.203   0.419 -0.7532  0.2264 -0.5367
  327DG      H3 7501   3.721   1.839   0.834 -2.1778 -1.5764 -0.5214
  327DG      H4 7502   3.835   1.906   0.709 -0.9872  0.2246 -1.0572
  327DG      H5 7503   3.795   1.733   0.731  0.4295  0.1818  1.0907
  327DG      H6 7504   3.177   2.111   0.368  0.1682  0.2960 -0.1635
  327DG      H7 7505   3.043   2.200   0.447 -0.8478  0.5393 -0.8586
  327DG      H8 7506   3.177   2.295   0.368  0.0698  0.2065 -0.1219
  327DG      O9 7507   3.643   1.845   0.640 -0.0724 -0.1377  0.1122
  327DG     O10 7508   3.237   2.192   0.530 -0.0840  0.1824 -0.0720
  327DG     C11 7509   3.544   1.745   0.656 -0.6887  0.0462 -0.5046
  327DG     C12 7510   3.209   2.082   0.619  0.2451  0.0022  0.2685
  327DG     H13 7511   3.528   1.740   0.764 -0.3327  1.5229 -0.3549
  327DG     H14 7512   3.580   1.644   0.636 -1.0560 -0.3571  0.7610
  327DG     H15 7513   3.102   2.084   0.640 -0.3051  0.5179 -2.2825
  327DG     H16 7514   3.253   2.107   0.716 -2.3995 -0.6362  1.7290
  327DG     C17 7515   3.420   1.772   0.574  0.4955  0.0616  0.0681
  327DG     C18 7516   3.250   1.938   0.570 -0.0427  0.0142  0.2921
  327DG     O19 7517   3.390   1.910   0.587  0.6400  0.2191  0.0297
  327DG     H20 7518   3.338   1.712   0.615  0.1550  1.4548  1.4928
  327DG     H21 7519   3.418   1.755   0.466 -0.5965 -1.5517  0.3050
  327DG     H22 7520   3.194   1.873   0.637 -1.1672  0.9525  0.2813
  327DG     H23 7521   3.209   1.912   0.472 -2.5919 -1.0273  1.5395
  328DG      C1 7522   4.309   3.548   1.395 -0.3242  0.1581 -0.4112
  328DG      C2 7523   5.028   3.780   1.818  0.2439 -0.5632  0.4677
  328DG      H3 7524   4.299   3.545   1.287  0.9777 -1.2445 -0.5154
  328DG      H4 7525   4.211   3.527   1.439 -0.5178  1.3002 -0.2470
  328DG      H5 7526   4.374   3.462   1.407 -2.6827 -1.3536  4.1960
  328DG      H6 7527   5.104   3.731   1.757  0.9723  1.3890 -0.2812
  328DG      H7 7528   5.064   3.883   1.824  0.2822 -0.3197 -2.5155
  328DG      H8 7529   5.025   3.746   1.921  0.8527 -1.3843  0.2248
  328DG      O9 7530   4.365   3.676   1.425  0.0525  0.7512 -0.3008
  328DG     O10 7531   4.904   3.784   1.747 -0.1974  0.0387  0.0134
  328DG     C11 7532   4.419   3.678   1.558 -0.5462  0.5809 -0.0337
  328DG     C12 7533   4.801   3.864   1.810  0.0282  0.0087  0.6320
  328DG     H13 7534   4.482   3.589   1.566 -0.0511  0.9748  0.5479
  328DG     H14 7535   4.344   3.664   1.636 -1.1716  1.1104 -0.5239
  328DG     H15 7536   4.843   3.963   1.829 -1.6947  1.3224 -1.8992
  328DG     H16 7537   4.757   3.824   1.901 -2.5337  1.4008  0.0851
  328DG     C17 7538   4.499   3.806   1.589  0.0276 -0.0020  0.0146
  328DG     C18 7539   4.679   3.891   1.715 -0.0651 -0.0641 -0.4170
  328DG     O19 7540   4.608   3.775   1.679  0.2606  0.1208  0.4783
  328DG     H20 7541   4.434   3.877   1.640  0.3905  0.3837 -0.0546
  328DG     H21 7542   4.550   3.849   1.503  2.6742 -0.0828  1.4481
  328DG     H22 7543   4.611   3.964   1.760 -0.4506 -0.3814 -0.4813
  328DG     H23 7544   4.721   3.933   1.623 -3.2052  0.6954 -1.6235
  329DG      C1 7545   3.049   2.181   3.808  0.2686  0.2219 -0.2416
  329DG      C2 7546   3.016   1.842   4.096 -0.7013  0.1790 -0.0632
  329DG      H3 7547   3.047   2.267   3.742 -1.6890 -0.6623 -1.4278
  329DG      H4 7548   2.984   2.190   3.895 -0.9646 -1.0814 -0.9875
  329DG      H5 7549   3.017   2.093   3.753  1.2931 -0.6995  0.5883
  329DG      H6 7550   2.986   1.785   4.008 -1.5410  0.7486 -0.1636
  329DG      H7 7551   2.998   1.776   4.180 -0.4913 -1.2787 -1.1274
  329DG      H8 7552   2.960   1.936   4.102  0.5733  1.1980 -2.5547
  329DG      O9 7553   3.187   2.158   3.842 -0.1811 -0.1122  0.1633
  329DG     O10 7554   3.155   1.871   4.098 -0.3326  0.1421 -0.1358
  329DG     C11 7555   3.261   2.265   3.907 -0.5119  0.2352 -0.2992
  329DG     C12 7556   3.195   1.961   4.205 -0.1747  0.9355 -0.7727
  329DG     H13 7557   3.212   2.363   3.909 -0.2770  0.3482  0.1890
  329DG     H14 7558   3.356   2.290   3.860 -0.6480 -0.9392 -1.2168
  329DG     H15 7559   3.200   1.916   4.304  1.6044  0.0607 -1.2142
  329DG     H16 7560   3.123   2.040   4.230 -0.4118  0.8902 -1.2992
  329DG     C17 7561   3.285   2.213   4.049 -0.0642 -0.8628  0.3678
  329DG     C18 7562   3.332   2.027   4.173 -0.3746 -0.3477 -0.3283
  329DG     O19 7563   3.338   2.082   4.048 -0.6242 -0.2079  0.0345
  329DG     H20 7564   3.192   2.210   4.106  0.6774 -2.1285  1.5434
  329DG     H21 7565   3.352   2.281   4.101 -1.6295 -1.4874  3.4006
  329DG     H22 7566   3.353   2.104   4.248 -1.4819 -0.5239  0.1688
  329DG     H23 7567   3.409   1.950   4.173  0.3513  0.3163 -1.7043
  330DG      C1 7568   1.909   2.527   0.657  0.3359  0.1268  0.2569
  330DG      C2 7569   1.296   2.243   0.766 -0.4187 -0.1470  0.2576
  330DG      H3 7570   1.881   2.572   0.752 -3.1699 -1.1182 -0.0494
  330DG      H4 7571   1.910   2.593   0.570 -0.3877 -1.3067 -0.8555
  330DG      H5 7572   2.009   2.486   0.670  0.0671 -0.2026  1.3891
  330DG      H6 7573   1.239   2.150   0.755 -2.4310  1.2253 -2.0175
  330DG      H7 7574   1.308   2.261   0.872  0.6910  0.0938  0.1013
  330DG      H8 7575   1.247   2.326   0.716  2.3838  0.2191 -2.1931
  330DG      O9 7576   1.814   2.425   0.630 -0.6607  0.1276  0.0900
  330DG     O10 7577   1.421   2.239   0.698  0.5915  0.2483  0.1146
  330DG     C11 7578   1.839   2.360   0.510 -0.3001  0.2346  0.5267
  330DG     C12 7579   1.413   2.179   0.568  0.6978  0.8073 -0.3865
  330DG     H13 7580   1.940   2.320   0.497 -0.3809 -0.1678  1.0778
  330DG     H14 7581   1.817   2.431   0.431 -2.4531 -0.8815  0.0360
  330DG     H15 7582   1.375   2.250   0.494 -1.7474  0.2949  0.2843
  330DG     H16 7583   1.349   2.091   0.570  3.0061 -0.9673  2.3109
  330DG     C17 7584   1.759   2.232   0.509  0.2850 -0.4546  0.1532
  330DG     C18 7585   1.555   2.136   0.531  0.7889 -0.0909  0.0993
  330DG     O19 7586   1.628   2.249   0.559  0.2668  0.7427  0.0207
  330DG     H20 7587   1.812   2.152   0.559  0.1498 -0.0125  1.0282
  330DG     H21 7588   1.760   2.199   0.405 -0.6996 -1.2800  0.3922
  330DG     H22 7589   1.596   2.049   0.581 -0.3875 -1.2061 -0.8069
  330DG     H23 7590   1.559   2.116   0.424 -1.6474  1.0240 -0.2711
  331DG      C1 7591   3.351   5.491   4.686 -0.2877 -0.1318 -0.2549
  331DG      C2 7592   4.027   5.330   4.527 -0.2309 -0.3783 -0.3955
  331DG      H3 7593   3.247   5.461   4.699 -1.2169  1.2898 -3.4424
  331DG      H4 7594   3.357   5.599   4.676 -0.2389 -0.2095 -1.1703
  331DG      H5 7595   3.417   5.473   4.771 -1.2092 -2.7932  0.0051
  331DG      H6 7596   4.031   5.256   4.607 -1.2767  1.2222  1.2443
  331DG      H7 7597   4.104   5.305   4.455 -1.7785  1.4365 -2.8527
  331DG      H8 7598   4.053   5.423   4.579 -0.9399  0.1879 -1.0220
  331DG      O9 7599   3.415   5.450   4.567  0.0193 -0.7170  0.5108
  331DG     O10 7600   3.894   5.343   4.480  0.5321 -0.1066  0.3892
  331DG     C11 7601   3.394   5.312   4.530 -0.3917 -0.1936 -1.0021
  331DG     C12 7602   3.844   5.241   4.390 -0.0298 -0.2902 -0.2268
  331DG     H13 7603   3.293   5.277   4.506 -0.6066 -1.6937  1.7065
  331DG     H14 7604   3.433   5.263   4.619 -1.4541 -0.1363 -0.4909
  331DG     H15 7605   3.858   5.146   4.441 -0.9858 -1.1568 -1.5099
  331DG     H16 7606   3.910   5.235   4.303 -1.9152 -3.0856 -1.6475
  331DG     C17 7607   3.490   5.274   4.417 -0.0741 -0.2571  0.4831
  331DG     C18 7608   3.713   5.275   4.333  0.4080  0.2201 -0.6027
  331DG     O19 7609   3.631   5.304   4.443  0.6179  0.7408  0.4774
  331DG     H20 7610   3.467   5.345   4.338 -1.3662 -0.0834  0.9927
  331DG     H21 7611   3.471   5.174   4.377  0.9338 -0.3012  0.0923
  331DG     H22 7612   3.716   5.364   4.270 -2.1795  0.3207 -0.7191
  331DG     H23 7613   3.682   5.191   4.272 -1.1201  1.8821 -2.2343
  332DG      C1 7614   3.247   0.291   4.143 -0.0989 -0.3604  0.1026
  332DG      C2 7615   2.520  -0.004   4.281 -0.0931 -0.0344  0.0549
  332DG      H3 7616   3.335   0.233   4.113 -0.2016 -0.6130  0.2783
  332DG      H4 7617   3.245   0.309   4.251 -1.3691  0.7545 -0.0868
  332DG      H5 7618   3.258   0.385   4.089  0.1170 -0.3243  0.2071
  332DG      H6 7619   2.477   0.062   4.356 -0.7890 -2.2719  1.7506
  332DG      H7 7620   2.443  -0.058   4.226 -0.1695  2.0202 -1.9803
  332DG      H8 7621   2.559  -0.086   4.343 -1.1057 -0.0973  0.6368
  332DG      O9 7622   3.136   0.225   4.091  0.0815 -0.7361  0.0837
  332DG     O10 7623   2.627   0.048   4.210  0.7157  0.2046 -0.2659
  332DG     C11 7624   3.073   0.130   4.168  0.4010  0.0534 -0.1854
  332DG     C12 7625   2.615   0.190   4.179 -0.2336  0.1041  0.0497
  332DG     H13 7626   3.057   0.158   4.272 -1.8471 -0.4673 -0.3389
  332DG     H14 7627   3.120   0.032   4.163 -0.7146 -0.4785 -0.3963
  332DG     H15 7628   2.627   0.245   4.272  0.3769  2.2770 -1.2645
  332DG     H16 7629   2.519   0.217   4.137  0.8292  0.4027 -2.3064
  332DG     C17 7630   2.931   0.106   4.107 -0.5308 -0.1310 -0.0887
  332DG     C18 7631   2.729   0.228   4.076  0.2852  0.0472  0.7359
  332DG     O19 7632   2.858   0.233   4.130  0.2629  0.2445  0.0227
  332DG     H20 7633   2.892   0.022   4.164  0.0630  0.3664  1.1042
  332DG     H21 7634   2.934   0.077   4.002 -2.7662 -1.3708  0.1297
  332DG     H22 7635   2.723   0.152   3.999  0.4249 -0.5241  1.2829
  332DG     H23 7636   2.702   0.322   4.028  1.3189 -0.6420 -1.3018
  333DG      C1 7637   3.025   1.193   3.641  0.2599 -0.5623  0.3523
  333DG      C2 7638   2.547   1.268   3.182  0.0711  0.4874 -0.2345
  333DG      H3 7639   3.086   1.277   3.674  2.4727 -1.6389 -0.8021
  333DG      H4 7640   3.075   1.154   3.552 -0.0433  3.2299 -1.7097
  333DG      H5 7641   3.034   1.116   3.716 -1.1697 -0.1911  0.9379
  333DG      H6 7642   2.587   1.369   3.170 -1.1019  1.0281  0.2276
  333DG      H7 7643   2.613   1.195   3.135  1.8042 -0.6082  3.4682
  333DG      H8 7644   2.445   1.248   3.150 -1.7633 -0.5625  5.2406
  333DG      O9 7645   2.891   1.219   3.608  0.5910  0.0095  0.9349
  333DG     O10 7646   2.555   1.236   3.318  0.0058  0.0066  0.2052
  333DG     C11 7647   2.815   1.250   3.724 -0.7412 -0.4133  0.0837
  333DG     C12 7648   2.468   1.302   3.402 -0.7310 -0.2694 -0.4291
  333DG     H13 7649   2.826   1.359   3.729  4.8707 -0.6272 -0.6329
  333DG     H14 7650   2.852   1.224   3.823 -1.4229 -0.5117  0.3190
  333DG     H15 7651   2.366   1.287   3.368 -1.5268  1.6497  0.9283
  333DG     H16 7652   2.469   1.411   3.401 -3.5088 -0.1360  0.8185
  333DG     C17 7653   2.666   1.215   3.708  1.1055 -0.0801  0.6820
  333DG     C18 7654   2.490   1.266   3.545  0.0563  0.8897 -0.5706
  333DG     O19 7655   2.627   1.283   3.587  0.1285  0.1040  0.3032
  333DG     H20 7656   2.596   1.252   3.782 -0.6682 -0.0768 -0.9103
  333DG     H21 7657   2.657   1.106   3.708  1.4043 -0.1073  1.1002
  333DG     H22 7658   2.417   1.322   3.603 -0.8769 -1.2044  0.3803
  333DG     H23 7659   2.467   1.162   3.569  1.3003  0.6048 -0.5499
  334DG      C1 7660   2.350   5.317   0.146 -0.0668 -0.6590  0.1195
  334DG      C2 7661   2.686   5.144   0.848 -0.4174 -0.2997 -0.1126
  334DG      H3 7662   2.354   5.425   0.133  0.9532 -0.7987 -0.9486
  334DG      H4 7663   2.261   5.283   0.199 -0.5094  2.2219  1.3502
  334DG      H5 7664   2.360   5.285   0.042 -0.7799  0.4507 -0.3004
  334DG      H6 7665   2.762   5.085   0.900 -1.1334 -1.6009 -0.4758
  334DG      H7 7666   2.705   5.251   0.842 -3.5367  0.3227 -0.5679
  334DG      H8 7667   2.589   5.130   0.896 -0.3857  1.5262  0.5500
  334DG      O9 7668   2.457   5.265   0.216 -0.5468 -0.1651  0.0494
  334DG     O10 7669   2.678   5.113   0.712  0.1079 -0.0912 -0.3117
  334DG     C11 7670   2.452   5.303   0.347  0.1474 -0.1846 -0.3373
  334DG     C12 7671   2.574   5.026   0.672  0.2524 -0.0599 -0.2523
  334DG     H13 7672   2.355   5.311   0.395  0.2602  1.4597 -0.3349
  334DG     H14 7673   2.472   5.410   0.343 -1.3335  0.1984  1.3571
  334DG     H15 7674   2.474   5.064   0.696  0.6228  1.2438 -0.6620
  334DG     H16 7675   2.595   4.934   0.726 -1.2268 -0.0837  0.3484
  334DG     C17 7676   2.554   5.220   0.428 -0.9630 -0.5633  0.0129
  334DG     C18 7677   2.578   4.995   0.516 -0.3560 -0.2468  0.1123
  334DG     O19 7678   2.497   5.090   0.440 -0.5060 -0.5691 -0.3240
  334DG     H20 7679   2.583   5.266   0.523  1.6054  1.6247 -1.6977
  334DG     H21 7680   2.645   5.214   0.369 -1.4580  2.7441 -1.2899
  334DG     H22 7681   2.678   4.991   0.472 -0.8573 -0.5931 -1.0231
  334DG     H23 7682   2.532   4.898   0.496  0.9603 -0.9655  0.4536
  335DG      C1 7683   1.975   5.235   2.957  0.4873 -0.3341 -0.3802
  335DG      C2 7684   2.731   5.560   3.248  0.1059  0.0424 -0.3410
  335DG      H3 7685   1.902   5.166   3.000  0.8548  0.4751  1.6904
  335DG      H4 7686   2.054   5.171   2.918  1.7191  1.2280 -0.5414
  335DG      H5 7687   1.933   5.291   2.874  0.1814  1.4450  0.9135
  335DG      H6 7688   2.764   5.610   3.157  0.9557  1.5627  0.7573
  335DG      H7 7689   2.769   5.617   3.333 -1.4203  1.3492 -0.4848
  335DG      H8 7690   2.774   5.460   3.259  1.2697  0.3346 -1.9597
  335DG      O9 7691   2.035   5.325   3.050  0.5669  0.0057  0.0355
  335DG     O10 7692   2.590   5.587   3.260 -0.0140 -0.0463  0.2739
  335DG     C11 7693   2.104   5.248   3.144 -0.4336 -0.2286 -0.1486
  335DG     C12 7694   2.511   5.494   3.181 -0.2927  0.1317 -0.4918
  335DG     H13 7695   2.180   5.187   3.096  0.0674 -0.4889  0.9439
  335DG     H14 7696   2.034   5.183   3.196 -0.9167 -1.1070 -1.8567
  335DG     H15 7697   2.548   5.394   3.203  0.7976  0.6810  0.2721
  335DG     H16 7698   2.535   5.501   3.075 -3.3832 -0.3309 -1.3003
  335DG     C17 7699   2.185   5.344   3.238  0.3292 -0.1956  0.2846
  335DG     C18 7700   2.371   5.491   3.235 -0.4157 -0.0592 -0.6126
  335DG     O19 7701   2.313   5.379   3.175 -0.2654 -0.3283 -0.2176
  335DG     H20 7702   2.197   5.307   3.339  0.4176 -1.9494 -0.3463
  335DG     H21 7703   2.126   5.436   3.236  1.7686  0.7523  0.1281
  335DG     H22 7704   2.378   5.483   3.344 -1.1123 -0.3803 -0.5850
  335DG     H23 7705   2.312   5.579   3.209 -2.1179  0.0208  2.8822
  336DG      C1 7706   2.445   2.148   1.978 -0.1316 -0.0282 -0.3703
  336DG      C2 7707   2.765   1.659   1.704 -0.2991  0.1871 -0.6445
  336DG      H3 7708   2.356   2.096   1.942  0.2544 -1.6393  0.8915
  336DG      H4 7709   2.482   2.220   1.904  1.2689 -3.2144 -3.0278
  336DG      H5 7710   2.405   2.202   2.063 -1.2634  1.1364 -1.5847
  336DG      H6 7711   2.814   1.562   1.713 -1.4687 -0.2848  1.1126
  336DG      H7 7712   2.674   1.662   1.644 -1.0530  1.2657  0.5149
  336DG      H8 7713   2.829   1.717   1.638 -1.0131  0.2757 -1.2744
  336DG      O9 7714   2.544   2.055   2.018  0.1165  0.2162 -0.2840
  336DG     O10 7715   2.744   1.719   1.832 -0.0321  0.0041 -0.3265
  336DG     C11 7716   2.661   2.119   2.078  0.1533 -0.5440 -0.5807
  336DG     C12 7717   2.865   1.740   1.900  0.0107 -0.4258 -0.1770
  336DG     H13 7718   2.633   2.168   2.171  1.8596 -0.4169 -0.0885
  336DG     H14 7719   2.708   2.188   2.008 -0.8711  2.3686  1.4088
  336DG     H15 7720   2.938   1.790   1.836  0.3257 -0.9761 -0.2486
  336DG     H16 7721   2.907   1.645   1.932  1.3364 -0.2835 -1.3927
  336DG     C17 7722   2.763   2.009   2.120  0.0285  0.7241  0.0965
  336DG     C18 7723   2.849   1.827   2.027  0.4143  0.4188 -0.2846
  336DG     O19 7724   2.777   1.935   1.999  0.0292 -0.5185  0.6217
  336DG     H20 7725   2.706   1.942   2.184 -0.8563  0.0893 -1.3053
  336DG     H21 7726   2.854   2.047   2.166 -0.6761  2.5178  0.0508
  336DG     H22 7727   2.804   1.757   2.097 -0.7070  0.5906 -0.8110
  336DG     H23 7728   2.952   1.850   2.053  0.3632  0.4323 -0.0934
  337DG      C1 7729   3.723   0.130   0.223  0.1094  0.4419  0.0255
  337DG      C2 7730   4.314  -0.017   0.188 -0.2833 -0.3792  0.2641
  337DG      H3 7731   3.686   0.114   0.122  0.9632 -0.8164 -0.1095
  337DG      H4 7732   3.792   0.214   0.223  1.1936 -0.4085 -1.7717
  337DG      H5 7733   3.643   0.138   0.297 -1.3361  0.1887 -1.4578
  337DG      H6 7734   4.347   0.003   0.085  0.9159 -0.3025  0.6478
  337DG      H7 7735   4.351   0.076   0.233  4.8872 -0.1465 -3.4673
  337DG      H8 7736   4.372  -0.098   0.232  0.7199  0.8691  1.3541
  337DG      O9 7737   3.799   0.018   0.261  0.2645 -0.0882 -0.5196
  337DG     O10 7738   4.177  -0.041   0.200 -0.0096  0.0222  1.1898
  337DG     C11 7739   3.733  -0.102   0.246 -0.5705  0.9356  0.3293
  337DG     C12 7740   4.136  -0.167   0.152 -0.3871  0.3619 -0.3344
  337DG     H13 7741   3.720  -0.132   0.142  2.1347 -1.6464  0.6058
  337DG     H14 7742   3.637  -0.097   0.295 -0.0789 -1.2466  1.6515
  337DG     H15 7743   4.206  -0.242   0.189  1.3011  1.4055 -1.2848
  337DG     H16 7744   4.149  -0.171   0.044  0.9356  2.3878 -0.3155
  337DG     C17 7745   3.804  -0.215   0.310  0.3149 -0.4885  0.8756
  337DG     C18 7746   3.995  -0.201   0.164 -0.0000 -0.1496 -0.1645
  337DG     O19 7747   3.941  -0.191   0.294 -0.3589  0.7647  0.6460
  337DG     H20 7748   3.777  -0.315   0.276 -0.5598  0.9445 -3.3403
  337DG     H21 7749   3.796  -0.205   0.418 -0.4962  1.9998  0.6541
  337DG     H22 7750   3.945  -0.139   0.089  0.2993  0.7145  0.3317
  337DG     H23 7751   3.987  -0.302   0.123 -0.2330 -0.0518 -0.3690
  338DG      C1 7752   2.283   3.167   2.467  0.8721 -0.4927  0.0412
  338DG      C2 7753   2.510   3.747   2.869 -0.0246  0.1791  0.0257
  338DG      H3 7754   2.226   3.075   2.461  0.1843 -0.1304  0.7307
  338DG      H4 7755   2.388   3.149   2.445  0.2698 -1.8281 -1.9716
  338DG      H5 7756   2.252   3.230   2.384  2.5775 -2.1747 -1.9839
  338DG      H6 7757   2.489   3.820   2.791 -0.6698  0.5083  0.5006
  338DG      H7 7758   2.493   3.793   2.966  0.3797 -1.5857  0.9645
  338DG      H8 7759   2.617   3.727   2.861 -0.4935 -2.0711 -1.7473
  338DG      O9 7760   2.247   3.227   2.590 -0.0120  0.1743  0.0701
  338DG     O10 7761   2.423   3.637   2.850  0.2513  0.3012 -0.0096
  338DG     C11 7762   2.275   3.143   2.702 -0.0193  0.0760  0.1333
  338DG     C12 7763   2.448   3.530   2.938  0.0730 -0.3937  0.4564
  338DG     H13 7764   2.382   3.122   2.695 -0.1703 -0.6064 -0.1664
  338DG     H14 7765   2.222   3.048   2.704  0.3704 -0.1342  0.4858
  338DG     H15 7766   2.457   3.571   3.038  1.4022  0.8225 -0.1209
  338DG     H16 7767   2.537   3.472   2.913  0.9953  0.0655  2.5255
  338DG     C17 7768   2.254   3.238   2.820  0.4546  0.0257  0.0856
  338DG     C18 7769   2.341   3.423   2.937 -0.1855  0.1581  0.5245
  338DG     O19 7770   2.346   3.350   2.816 -0.3616 -0.5073 -0.0752
  338DG     H20 7771   2.277   3.175   2.906 -0.9225  0.6288  0.9338
  338DG     H21 7772   2.153   3.278   2.827 -0.1731 -1.5930  0.8678
  338DG     H22 7773   2.350   3.365   3.029 -0.9278  0.1176  0.5739
  338DG     H23 7774   2.247   3.478   2.938 -0.2027  0.1317  0.4103
  339DG      C1 7775   4.697   4.535   3.918  0.1729  0.0934 -0.0484
  339DG      C2 7776   4.304   4.149   3.468  0.3633 -0.1718  0.4673
  339DG      H3 7777   4.791   4.520   3.971 -0.9651 -2.4044  1.4648
  339DG      H4 7778   4.626   4.559   3.997 -1.1204  0.6244 -1.3389
  339DG      H5 7779   4.699   4.617   3.847 -1.5455 -0.2423 -0.5337
  339DG      H6 7780   4.229   4.196   3.530  1.5938  0.3626  1.6050
  339DG      H7 7781   4.329   4.212   3.382 -0.9706  0.8164  0.7878
  339DG      H8 7782   4.276   4.054   3.421  3.3847 -0.0305 -1.9986
  339DG      O9 7783   4.679   4.401   3.864 -0.4727  0.8234 -0.6701
  339DG     O10 7784   4.419   4.137   3.552  0.2415 -0.0538  0.2633
  339DG     C11 7785   4.794   4.356   3.790  0.1639 -0.3865 -0.3532
  339DG     C12 7786   4.541   4.097   3.484  0.7522  0.2428 -0.5034
  339DG     H13 7787   4.881   4.346   3.855  1.5635  0.3249 -2.0229
  339DG     H14 7788   4.827   4.424   3.711  1.0627  0.0520  0.3878
  339DG     H15 7789   4.553   4.164   3.400  0.5297  1.2215  0.2254
  339DG     H16 7790   4.515   4.002   3.437 -3.8328  1.0687 -0.1971
  339DG     C17 7791   4.773   4.218   3.726  0.4602 -0.5206  0.5677
  339DG     C18 7792   4.671   4.099   3.563  0.3127 -0.2545 -0.2555
  339DG     O19 7793   4.664   4.217   3.632 -0.1239 -0.3747 -0.1849
  339DG     H20 7794   4.756   4.151   3.810  0.6427 -1.5782 -0.2037
  339DG     H21 7795   4.866   4.193   3.673 -1.5934 -2.0103 -2.6696
  339DG     H22 7796   4.657   4.017   3.634 -2.1898  1.8918  1.9426
  339DG     H23 7797   4.765   4.076   3.512  0.7104  1.8975 -0.5630
  340DG      C1 7798   1.320   4.062   3.105  0.0981  0.4836 -0.5893
  340DG      C2 7799   1.742   3.643   3.321  0.0414  0.7738  0.4220
  340DG      H3 7800   1.245   3.983   3.097  1.6856 -0.9920 -1.3775
  340DG      H4 7801   1.281   4.135   3.034 -2.8157  0.3973  0.7762
  340DG      H5 7802   1.308   4.112   3.201  1.9207 -1.8594  0.9679
  340DG      H6 7803   1.663   3.570   3.341 -0.9875  2.0183  1.0416
  340DG      H7 7804   1.731   3.684   3.220  2.2642  1.8378  0.5456
  340DG      H8 7805   1.837   3.593   3.336  0.1112  1.6116  3.5174
  340DG      O9 7806   1.447   3.994   3.099 -0.4702 -0.2762 -1.1068
  340DG     O10 7807   1.731   3.744   3.418 -0.1880 -0.0375  0.2034
  340DG     C11 7808   1.550   4.091   3.102  0.3330 -0.2522  0.0923
  340DG     C12 7809   1.836   3.850   3.419 -0.0035 -0.2333 -0.3598
  340DG     H13 7810   1.534   4.170   3.175 -1.8290  0.7101 -1.3276
  340DG     H14 7811   1.547   4.143   3.006 -3.4720  1.6141  1.0270
  340DG     H15 7812   1.934   3.803   3.414  2.3132  3.9901  1.2378
  340DG     H16 7813   1.828   3.910   3.509  0.4413 -0.9911  0.2013
  340DG     C17 7814   1.681   4.021   3.117 -0.0351  0.4616 -0.8445
  340DG     C18 7815   1.826   3.941   3.290 -0.0432 -0.7100  0.1900
  340DG     O19 7816   1.694   3.979   3.257  0.1419 -0.5956  0.3663
  340DG     H20 7817   1.757   4.099   3.109 -0.2224  0.6798 -0.4967
  340DG     H21 7818   1.712   3.941   3.050 -0.5955 -1.9953  1.6327
  340DG     H22 7819   1.876   4.036   3.303 -0.8522 -0.3680  0.8966
  340DG     H23 7820   1.882   3.888   3.213  0.4095 -0.2625  0.2082
  341DG      C1 7821   2.463   0.306   1.686 -0.6016  0.2113 -0.5487
  341DG      C2 7822   3.096   0.602   1.270  0.4424  0.7203 -0.1360
  341DG      H3 7823   2.537   0.265   1.755  2.0460  2.2454 -1.9754
  341DG      H4 7824   2.365   0.261   1.705 -0.3687  0.5113  1.5486
  341DG      H5 7825   2.460   0.411   1.715 -0.1594  0.3975 -1.1430
  341DG      H6 7826   3.121   0.708   1.273 -0.5091  1.0956 -2.7530
  341DG      H7 7827   3.180   0.533   1.279  0.2463  0.5812  0.7568
  341DG      H8 7828   3.049   0.580   1.174 -0.7476 -2.3706  1.0330
  341DG      O9 7829   2.521   0.294   1.556 -0.7005 -0.0202  0.5229
  341DG     O10 7830   2.995   0.573   1.357  0.3563 -0.3074 -0.3952
  341DG     C11 7831   2.662   0.306   1.545 -0.4237 -0.8238  1.0776
  341DG     C12 7832   3.030   0.571   1.493  0.3261 -0.2908  0.5260
  341DG     H13 7833   2.698   0.265   1.450  1.1306 -3.6155  2.7306
  341DG     H14 7834   2.722   0.250   1.618  1.0682  2.1232  2.2556
  341DG     H15 7835   3.095   0.656   1.515  1.7186 -1.3699  0.7398
  341DG     H16 7836   3.086   0.478   1.505 -2.6380 -2.6310 -2.2246
  341DG     C17 7837   2.705   0.452   1.553 -0.8352 -0.2818 -0.8452
  341DG     C18 7838   2.907   0.572   1.572  0.4047 -0.0187  0.4084
  341DG     O19 7839   2.838   0.453   1.526 -0.1316 -0.3066 -0.1385
  341DG     H20 7840   2.680   0.488   1.653  0.7458  0.6299 -0.7471
  341DG     H21 7841   2.647   0.505   1.478  0.3177 -1.6245 -2.7931
  341DG     H22 7842   2.943   0.559   1.674  0.5965  0.2321  0.3740
  341DG     H23 7843   2.854   0.665   1.552  0.5603  0.4164  1.9160
  342DG      C1 7844   0.826   1.679   0.438  0.1072 -0.2733 -0.5148
  342DG      C2 7845   1.181   1.746  -0.199 -0.0397  0.7067 -0.0921
  342DG      H3 7846   0.732   1.644   0.395 -0.0841 -0.0446 -0.2767
  342DG      H4 7847   0.812   1.787   0.440 -0.3578 -0.2880 -1.7869
  342DG      H5 7848   0.822   1.637   0.538 -0.2375  0.4320 -0.2274
  342DG      H6 7849   1.161   1.852  -0.186 -1.9317  0.3550  0.1697
  342DG      H7 7850   1.285   1.746  -0.232 -0.1843  0.5858 -0.5610
  342DG      H8 7851   1.106   1.713  -0.271 -1.2591  1.8787  0.6072
  342DG      O9 7852   0.928   1.613   0.364 -0.0849  0.0466  0.6472
  342DG     O10 7853   1.193   1.705  -0.064 -0.0407 -0.2086  0.0096
  342DG     C11 7854   1.054   1.661   0.407 -0.1532 -0.3611  0.3733
  342DG     C12 7855   1.204   1.563  -0.039  0.3431 -0.0085  0.0518
  342DG     H13 7856   1.072   1.638   0.512 -2.3231 -1.5701  0.5252
  342DG     H14 7857   1.050   1.769   0.394  1.1571 -0.2715  0.5886
  342DG     H15 7858   1.286   1.515  -0.092  0.0075 -1.1937  0.5689
  342DG     H16 7859   1.106   1.526  -0.069 -1.8697  3.5611  2.0831
  342DG     C17 7860   1.168   1.593   0.331 -0.0752 -0.2126 -0.3497
  342DG     C18 7861   1.226   1.527   0.111 -0.0152  0.2911 -0.2303
  342DG     O19 7862   1.135   1.602   0.194  0.0134  0.0683  0.3626
  342DG     H20 7863   1.177   1.491   0.368 -0.3479  0.2845  1.1407
  342DG     H21 7864   1.256   1.649   0.360 -0.8090  0.0133  1.5881
  342DG     H22 7865   1.226   1.418   0.120  0.7336  0.2785 -0.3524
  342DG     H23 7866   1.327   1.554   0.142  0.0272 -1.2504  1.1408
  343DG      C1 7867   2.179   2.013   1.261  0.3684 -0.1835  0.2584
  343DG      C2 7868   2.787   2.054   0.990 -0.3997  0.2345  0.1744
  343DG      H3 7869   2.149   1.974   1.163  1.5617 -0.2058 -0.1068
  343DG      H4 7870   2.092   2.058   1.309  0.2276 -0.9982  0.7868
  343DG      H5 7871   2.209   1.924   1.317 -0.3332  0.1287  1.1572
  343DG      H6 7872   2.805   2.084   0.887 -0.3003 -0.4303 -0.0071
  343DG      H7 7873   2.886   2.078   1.026  0.0063 -1.2895  0.1608
  343DG      H8 7874   2.776   1.946   1.004  1.7625 -0.4049 -2.2415
  343DG      O9 7875   2.291   2.097   1.250 -0.2569  0.0701 -0.0068
  343DG     O10 7876   2.683   2.125   1.055 -0.2673  0.3914 -0.1914
  343DG     C11 7877   2.247   2.229   1.214  0.2131 -0.4695 -0.2289
  343DG     C12 7878   2.710   2.263   1.061  0.0670  0.9823  0.2911
  343DG     H13 7879   2.185   2.259   1.298 -0.4339 -2.1534 -0.0706
  343DG     H14 7880   2.189   2.221   1.122  0.5953 -4.3238 -0.2951
  343DG     H15 7881   2.716   2.291   0.955 -1.6792 -1.7621 -0.6514
  343DG     H16 7882   2.804   2.297   1.104  0.7919  0.4915 -0.8469
  343DG     C17 7883   2.370   2.313   1.212  0.6462 -0.4717  0.2863
  343DG     C18 7884   2.602   2.338   1.140 -0.2874  0.3244  0.0510
  343DG     O19 7885   2.476   2.265   1.127  0.0677 -0.3498  0.1490
  343DG     H20 7886   2.404   2.311   1.315  1.8286  0.0967 -0.0787
  343DG     H21 7887   2.349   2.420   1.198 -2.4009 -0.9026  0.8754
  343DG     H22 7888   2.633   2.341   1.244 -1.9816  1.2125  0.5549
  343DG     H23 7889   2.597   2.440   1.101 -0.4341 -0.2091 -1.3981
  344DG      C1 7890   2.570   1.627   4.059  0.1393  0.2487 -0.1602
  344DG      C2 7891   1.894   1.119   4.207 -0.6141  0.4228 -0.2729
  344DG      H3 7892   2.627   1.584   4.142  0.5152  0.8518 -0.0951
  344DG      H4 7893   2.604   1.728   4.035 -0.2898  0.5761  0.5628
  344DG      H5 7894   2.578   1.577   3.963  0.6422 -1.0008  0.5008
  344DG      H6 7895   1.906   1.104   4.315 -2.4202  0.1384 -0.0894
  344DG      H7 7896   1.787   1.122   4.188 -0.6008 -0.4614 -0.4980
  344DG      H8 7897   1.943   1.028   4.173  0.6960 -0.0200  2.4843
  344DG      O9 7898   2.436   1.649   4.092  0.3943 -0.1684  0.1721
  344DG     O10 7899   1.962   1.232   4.151  0.6297 -0.7833  0.2671
  344DG     C11 7900   2.372   1.529   4.113  0.4671  0.1387  0.1260
  344DG     C12 7901   1.941   1.349   4.238 -0.4590 -0.4438 -0.2502
  344DG     H13 7902   2.405   1.466   4.196  0.8410  2.4894  1.8662
  344DG     H14 7903   2.367   1.482   4.015  0.2438  0.6601 -0.1182
  344DG     H15 7904   1.972   1.320   4.338  1.6228  1.6009 -0.2294
  344DG     H16 7905   1.836   1.380   4.242 -1.3050 -2.9218 -1.2426
  344DG     C17 7906   2.229   1.571   4.149  0.5114  0.3757 -0.3938
  344DG     C18 7907   2.016   1.473   4.200  0.1205  0.1149 -0.5606
  344DG     O19 7908   2.156   1.452   4.178 -0.0028  0.0760 -0.2109
  344DG     H20 7909   2.171   1.619   4.070 -1.7727 -0.3663  0.7230
  344DG     H21 7910   2.234   1.646   4.228  1.0824 -0.5110  0.4369
  344DG     H22 7911   1.957   1.518   4.120 -5.0404 -2.3862  1.4095
  344DG     H23 7912   2.018   1.540   4.286  0.8726 -0.7390  0.1074
  345DG      C1 7913   1.278   3.948   2.030  0.5448 -0.1297 -0.1282
  345DG      C2 7914   1.431   3.543   1.508 -0.1095 -0.3688  0.5438
  345DG      H3 7915   1.278   3.857   2.089  0.1452 -0.7031 -0.9887
  345DG      H4 7916   1.183   3.966   1.979  0.0629  0.5837  0.9932
  345DG      H5 7917   1.269   4.035   2.095  0.3447  0.4437 -0.8941
  345DG      H6 7918   1.469   3.540   1.406 -1.6905  0.8017 -0.1159
  345DG      H7 7919   1.466   3.453   1.558 -0.0854 -1.1540 -0.8512
  345DG      H8 7920   1.322   3.536   1.504 -0.2007 -0.3742  2.2187
  345DG      O9 7921   1.374   3.958   1.928 -0.1434 -0.0049 -0.3889
  345DG     O10 7922   1.482   3.664   1.569  0.1289 -0.3624  0.3276
  345DG     C11 7923   1.502   3.924   1.973  0.4944 -0.1044  0.5807
  345DG     C12 7924   1.623   3.668   1.605  0.9319  0.0927 -0.6341
  345DG     H13 7925   1.507   3.832   2.032 -2.9287 -0.2495  0.8685
  345DG     H14 7926   1.521   4.003   2.046 -1.4999  2.4036 -1.4184
  345DG     H15 7927   1.687   3.662   1.517  2.6580  0.9389  0.5042
  345DG     H16 7928   1.648   3.583   1.669 -0.6003  2.7031  3.9552
  345DG     C17 7929   1.602   3.934   1.864  0.5132 -0.4563  0.9007
  345DG     C18 7930   1.666   3.804   1.673 -0.3224 -0.3056  0.3529
  345DG     O19 7931   1.565   3.825   1.774 -0.1268  0.0744 -0.2056
  345DG     H20 7932   1.709   3.934   1.889  0.6823 -1.6186  0.2924
  345DG     H21 7933   1.590   4.026   1.808  0.5862 -0.9838 -0.0140
  345DG     H22 7934   1.768   3.783   1.703 -0.2810  1.3445  1.4963
  345DG     H23 7935   1.675   3.882   1.598 -0.0286 -2.3729 -1.8901
  346DG      C1 7936   4.460   2.581   0.436  0.6267 -0.6503  0.8099
  346DG      C2 7937   3.872   2.325   0.066  0.2671 -0.0426  0.2799
  346DG      H3 7938   4.440   2.650   0.353 -0.3110 -0.3347  1.2883
  346DG      H4 7939   4.566   2.584   0.462  1.4154 -0.7634 -2.0250
  346DG      H5 7940   4.431   2.630   0.528  0.4495 -0.8430  0.8546
  346DG      H6 7941   3.820   2.348   0.158  1.6514 -0.2483  1.1472
  346DG      H7 7942   3.886   2.404  -0.009  0.6458  0.3103  0.7146
  346DG      H8 7943   3.831   2.239   0.013  2.3343 -1.6798  1.1654
  346DG      O9 7944   4.396   2.453   0.426  0.2163 -0.0630  0.3188
  346DG     O10 7945   4.007   2.297   0.103  0.3589  0.1412 -0.3231
  346DG     C11 7946   4.451   2.373   0.337 -0.4015 -0.2302  0.3998
  346DG     C12 7947   4.022   2.198   0.204 -0.2664  0.1469 -0.6555
  346DG     H13 7948   4.551   2.345   0.371 -0.2237  0.2054  0.2516
  346DG     H14 7949   4.459   2.431   0.245 -0.2717 -0.1037  0.4901
  346DG     H15 7950   3.960   2.113   0.178 -1.7594  0.9684  0.0985
  346DG     H16 7951   3.968   2.248   0.285 -0.0749  0.7751 -0.9083
  346DG     C17 7952   4.366   2.248   0.311 -0.1527  0.3310  0.1444
  346DG     C18 7953   4.167   2.168   0.233 -0.2761 -0.3012 -0.2373
  346DG     O19 7954   4.236   2.289   0.278 -0.2180  0.4121  0.2334
  346DG     H20 7955   4.350   2.197   0.406  0.1738  1.1054  0.6236
  346DG     H21 7956   4.418   2.174   0.249 -1.7140 -0.2562 -0.5233
  346DG     H22 7957   4.167   2.101   0.319 -0.4869 -0.1966 -0.1554
  346DG     H23 7958   4.204   2.113   0.146 -1.0905 -1.9831  0.4332
  347DG      C1 7959   3.604   4.547   4.200 -0.4001  0.1867  0.5634
  347DG      C2 7960   3.269   4.823   3.659 -0.3689  0.1777  0.4185
  347DG      H3 7961   3.589   4.446   4.239  1.3009 -0.5240 -0.4942
  347DG      H4 7962   3.532   4.613   4.248 -0.4409 -0.6861  1.7505
  347DG      H5 7963   3.702   4.583   4.233 -0.3526  0.7228 -0.1306
  347DG      H6 7964   3.215   4.870   3.741 -1.7995 -1.8517  0.7135
  347DG      H7 7965   3.347   4.892   3.627 -0.5861  0.7477  1.0899
  347DG      H8 7966   3.197   4.797   3.581 -0.1206  0.6167  0.0388
  347DG      O9 7967   3.582   4.565   4.059 -0.0271 -0.4831 -0.1673
  347DG     O10 7968   3.338   4.710   3.711  0.0619 -0.1507 -0.3638
  347DG     C11 7969   3.670   4.489   3.977 -0.4572 -0.2313  0.5646
  347DG     C12 7970   3.408   4.646   3.611 -0.4487 -0.3648  0.3151
  347DG     H13 7971   3.717   4.403   4.024  0.2791 -0.6335 -0.8787
  347DG     H14 7972   3.750   4.557   3.947  0.2866 -1.3298  0.0141
  347DG     H15 7973   3.496   4.696   3.570 -1.0723  0.7666  0.3385
  347DG     H16 7974   3.344   4.618   3.527  1.8071 -0.1316 -1.5946
  347DG     C17 7975   3.591   4.439   3.859  0.2288  0.5566  1.6186
  347DG     C18 7976   3.467   4.514   3.662 -0.2871  0.3056 -0.1111
  347DG     O19 7977   3.530   4.545   3.783  0.0697 -0.4189 -0.6383
  347DG     H20 7978   3.518   4.362   3.881 -0.0817  0.8466  1.6167
  347DG     H21 7979   3.665   4.389   3.797 -0.7399 -0.0991  0.9656
  347DG     H22 7980   3.378   4.451   3.677  0.8888 -1.4824 -0.2862
  347DG     H23 7981   3.530   4.452   3.598 -0.9035 -0.6610  0.1918
  348DG      C1 7982   0.980   5.196   3.185  0.0686  0.1923 -0.4365
  348DG      C2 7983   1.669   5.250   3.193  0.7049 -0.5026 -0.2646
  348DG      H3 7984   0.890   5.177   3.244 -0.6038 -0.9244 -1.7937
  348DG      H4 7985   1.000   5.097   3.144 -0.2531  0.9056 -2.4013
  348DG      H5 7986   0.955   5.261   3.101 -1.2629 -1.3467 -1.2653
  348DG      H6 7987   1.737   5.169   3.165  2.5723  0.5894  0.9156
  348DG      H7 7988   1.568   5.210   3.197  0.4146  0.3026  1.0470
  348DG      H8 7989   1.683   5.320   3.110  0.2602 -0.6574 -0.4727
  348DG      O9 7990   1.065   5.252   3.292  1.0193  0.3004  0.0994
  348DG     O10 7991   1.701   5.303   3.319 -0.2845  0.3419 -0.3525
  348DG     C11 7992   1.194   5.256   3.244 -0.3304 -0.2730 -0.2832
  348DG     C12 7993   1.635   5.424   3.351 -0.1626 -0.0169  0.3863
  348DG     H13 7994   1.190   5.339   3.173 -2.6312  0.0162  0.1022
  348DG     H14 7995   1.234   5.164   3.201  1.3017  0.1375  0.2834
  348DG     H15 7996   1.627   5.493   3.268  0.4808 -0.9097 -0.4409
  348DG     H16 7997   1.702   5.471   3.423  0.4132 -0.5298  0.1944
  348DG     C17 7998   1.272   5.310   3.364  0.3114 -0.0808  0.2068
  348DG     C18 7999   1.495   5.397   3.408 -0.0885  0.2080 -0.2881
  348DG     O19 8000   1.396   5.354   3.309 -0.1410 -0.2014 -0.5521
  348DG     H20 8001   1.267   5.237   3.445 -1.9613 -0.8291 -0.5387
  348DG     H21 8002   1.218   5.395   3.406  0.6414  0.8403 -1.1591
  348DG     H22 8003   1.504   5.318   3.482 -1.5847 -1.4628 -1.7873
  348DG     H23 8004   1.452   5.490   3.447 -2.0570 -0.7583 -0.0172
  349DG      C1 8005   0.809   0.488   3.168 -0.5205  0.7897  0.2639
  349DG      C2 8006   0.524   0.359   4.011  0.9415  0.0843  0.4127
  349DG      H3 8007   0.878   0.571   3.153  1.2986 -0.8558 -0.9896
  349DG      H4 8008   0.756   0.497   3.074  1.9749 -2.7305 -1.7135
  349DG      H5 8009   0.865   0.395   3.159 -1.5526  0.0052  1.5088
  349DG      H6 8010   0.464   0.312   4.088 -1.0987  2.7725  0.6287
  349DG      H7 8011   0.621   0.310   4.005  1.6041  1.4236 -0.2100
  349DG      H8 8012   0.545   0.461   4.042  2.9629 -0.2553  0.2479
  349DG      O9 8013   0.735   0.513   3.292 -0.0900  0.1477 -0.2857
  349DG     O10 8014   0.466   0.368   3.884 -0.8275 -0.1124  0.0503
  349DG     C11 8015   0.634   0.413   3.316 -0.5422 -0.2072  0.1347
  349DG     C12 8016   0.558   0.432   3.793 -0.2789 -0.2386  0.4347
  349DG     H13 8017   0.683   0.319   3.343  2.0963  1.0907  0.1994
  349DG     H14 8018   0.571   0.397   3.228 -0.9977  1.5230  0.1191
  349DG     H15 8019   0.636   0.358   3.772  0.4267 -0.2871  2.8705
  349DG     H16 8020   0.614   0.518   3.830  0.0917 -1.4406  2.8243
  349DG     C17 8021   0.533   0.454   3.420 -0.9690 -0.7476  0.0434
  349DG     C18 8022   0.495   0.455   3.650 -0.1492 -0.0325 -0.4246
  349DG     O19 8023   0.593   0.436   3.549 -0.8374 -0.6717  0.2094
  349DG     H20 8024   0.435   0.410   3.406 -2.9665  2.8579  1.3264
  349DG     H21 8025   0.528   0.561   3.399 -1.8713 -0.6903  0.5180
  349DG     H22 8026   0.428   0.369   3.640  0.7165 -0.6783 -0.7789
  349DG     H23 8027   0.451   0.554   3.642  0.5012  0.1445 -2.1358
  350DG      C1 8028   4.437   0.315   0.026 -0.5685  0.1062 -0.5910
  350DG      C2 8029   4.774   0.911  -0.087 -0.0913  0.2275  0.1747
  350DG      H3 8030   4.373   0.365   0.098 -2.3230 -1.6997 -0.8098
  350DG      H4 8031   4.455   0.216   0.069 -0.0883  0.2473 -0.4535
  350DG      H5 8032   4.384   0.303  -0.068  0.5885  2.1480 -1.5753
  350DG      H6 8033   4.771   0.931  -0.194  0.0950  1.2324  0.3480
  350DG      H7 8034   4.687   0.958  -0.040 -0.1244  0.6869 -0.3267
  350DG      H8 8035   4.866   0.959  -0.054  1.1125 -1.6406 -0.3201
  350DG      O9 8036   4.564   0.379   0.008  0.0309 -0.6159  0.0645
  350DG     O10 8037   4.796   0.771  -0.044 -0.0321 -0.3993 -0.0722
  350DG     C11 8038   4.634   0.324  -0.098  0.7099 -0.8928  0.1360
  350DG     C12 8039   4.909   0.711  -0.114 -0.1179 -0.1251  0.2130
  350DG     H13 8040   4.578   0.345  -0.189  2.8420  0.2436 -0.9920
  350DG     H14 8041   4.637   0.215  -0.089 -0.0923 -1.0401 -1.1196
  350DG     H15 8042   4.993   0.756  -0.062  2.7662 -0.7014 -3.5563
  350DG     H16 8043   4.916   0.705  -0.222 -0.2886 -0.2491  0.2073
  350DG     C17 8044   4.777   0.371  -0.116 -0.1975 -0.6735 -0.1106
  350DG     C18 8045   4.916   0.562  -0.075  0.1037 -0.3133  0.5631
  350DG     O19 8046   4.784   0.514  -0.114 -0.4232  0.4255  0.1398
  350DG     H20 8047   4.813   0.325  -0.207  0.4149 -0.8124  0.1996
  350DG     H21 8048   4.836   0.349  -0.027 -0.9890  0.5710  0.7546
  350DG     H22 8049   4.996   0.522  -0.137 -0.5294 -0.9831  0.1623
  350DG     H23 8050   4.945   0.555   0.030  0.5352  0.3231  0.4939
  351DG      C1 8051   2.826   0.514   0.417  0.0311  0.0025  0.3688
  351DG      C2 8052   2.803   0.034  -0.177 -0.1426 -0.7910  0.5625
  351DG      H3 8053   2.830   0.503   0.525  0.7382 -1.5597  0.2182
  351DG      H4 8054   2.757   0.594   0.394 -0.5811 -0.5658  0.1910
  351DG      H5 8055   2.928   0.527   0.380  0.1424 -0.8758  0.3458
  351DG      H6 8056   2.790   0.130  -0.228  1.1075 -1.1202 -0.4381
  351DG      H7 8057   2.891  -0.012  -0.221 -0.1999 -0.9495  0.6117
  351DG      H8 8058   2.729  -0.034  -0.220 -2.1114  1.0130  0.9012
  351DG      O9 8059   2.774   0.401   0.354  0.7419  0.6840 -0.3314
  351DG     O10 8060   2.794   0.027  -0.036 -0.4110 -0.0163 -0.2007
  351DG     C11 8061   2.856   0.285   0.374 -0.7611  0.6432  0.0296
  351DG     C12 8062   2.662   0.079  -0.002  1.2563  0.4785 -0.0681
  351DG     H13 8063   2.879   0.266   0.479  1.0693  1.5690 -0.1600
  351DG     H14 8064   2.952   0.290   0.323 -0.4508  2.7755  0.7378
  351DG     H15 8065   2.574   0.024  -0.034  0.8103  0.2444  1.4457
  351DG     H16 8066   2.649   0.179  -0.043 -0.4772  0.1020 -0.5066
  351DG     C17 8067   2.780   0.161   0.337  0.8645  0.1189 -0.1171
  351DG     C18 8068   2.650   0.093   0.145  0.5244 -0.0956 -0.8478
  351DG     O19 8069   2.749   0.176   0.197 -0.0564  0.1521  0.1996
  351DG     H20 8070   2.685   0.170   0.391  0.9469  0.6788 -0.0565
  351DG     H21 8071   2.824   0.064   0.358 -3.0877 -1.6590  0.8137
  351DG     H22 8072   2.551   0.130   0.168  0.6051 -0.1278 -0.4434
  351DG     H23 8073   2.664  -0.007   0.185  3.1254 -0.1957 -1.7974
  352DG      C1 8074   2.290   5.071   4.961  0.1700 -0.5905 -0.0196
  352DG      C2 8075   2.485   4.872   4.349 -0.3689  0.0756  0.3229
  352DG      H3 8076   2.263   5.165   4.912 -1.8181 -0.2036  1.6365
  352DG      H4 8077   2.317   5.102   5.063 -0.3466  0.9187 -0.3051
  352DG      H5 8078   2.199   5.013   4.947  0.6007 -1.4582  0.6787
  352DG      H6 8079   2.413   4.952   4.336  1.1115  1.7508  1.8775
  352DG      H7 8080   2.559   4.858   4.271 -0.4848 -0.2407  0.2678
  352DG      H8 8081   2.424   4.782   4.344 -1.0277  0.5907 -2.0301
  352DG      O9 8082   2.411   5.028   4.906  0.1173  0.5846  0.0691
  352DG     O10 8083   2.540   4.880   4.484 -0.4137 -0.4145  0.0858
  352DG     C11 8084   2.467   4.907   4.962  0.5667 -0.5278 -0.6150
  352DG     C12 8085   2.612   4.761   4.526  0.0807 -0.0197  0.7602
  352DG     H13 8086   2.393   4.828   4.968  1.1609 -1.0008  1.7151
  352DG     H14 8087   2.501   4.921   5.065 -1.0438 -2.9850  0.3226
  352DG     H15 8088   2.702   4.762   4.465  0.1917  2.3786  0.8712
  352DG     H16 8089   2.541   4.677   4.529  0.6673 -0.5390  0.2656
  352DG     C17 8090   2.584   4.856   4.878  0.1027 -0.3066 -0.1926
  352DG     C18 8091   2.645   4.771   4.674  0.0395 -0.7412 -0.3325
  352DG     O19 8092   2.533   4.818   4.752  0.0184 -0.0702 -0.1889
  352DG     H20 8093   2.626   4.762   4.915 -2.0245 -1.8028 -1.2922
  352DG     H21 8094   2.656   4.937   4.869  0.5399 -0.9182 -3.8320
  352DG     H22 8095   2.682   4.677   4.716  0.7201 -0.3217  0.0201
  352DG     H23 8096   2.733   4.834   4.683  0.4615 -1.5120  1.7667
  353DG      C1 8097   4.574   1.123   0.903 -0.0214  0.0769  0.1638
  353DG      C2 8098   5.274   1.238   0.554 -0.3357 -0.2638 -0.0486
  353DG      H3 8099   4.536   1.179   0.988 -1.3420  0.1762 -0.4664
  353DG      H4 8100   4.632   1.036   0.932  0.4169  0.0663 -0.7042
  353DG      H5 8101   4.481   1.087   0.858 -0.9937  2.3112  0.2422
  353DG      H6 8102   5.288   1.136   0.588 -2.2276 -0.2274  0.9880
  353DG      H7 8103   5.319   1.230   0.455 -0.3109  1.8858 -0.2690
  353DG      H8 8104   5.322   1.318   0.610  0.5327  1.1519 -2.6164
  353DG      O9 8105   4.655   1.200   0.814 -0.3504 -0.2702  0.1946
  353DG     O10 8106   5.138   1.260   0.539 -0.1788 -0.4972 -0.2068
  353DG     C11 8107   4.645   1.150   0.683  0.0835 -0.0340  0.0683
  353DG     C12 8108   5.068   1.281   0.662  0.4411 -0.2956 -0.2743
  353DG     H13 8109   4.538   1.143   0.663  0.3361 -0.6362 -1.2046
  353DG     H14 8110   4.663   1.042   0.681  0.6694  0.0710 -0.9507
  353DG     H15 8111   5.127   1.361   0.706 -1.2041 -0.5379  2.6450
  353DG     H16 8112   5.087   1.190   0.720 -2.8679 -0.3795  0.9251
  353DG     C17 8113   4.711   1.226   0.576  0.5171 -0.7851  0.1231
  353DG     C18 8114   4.920   1.319   0.644  0.7073  0.1918  0.3831
  353DG     O19 8115   4.857   1.219   0.570 -0.2936  0.4743  0.3764
  353DG     H20 8116   4.678   1.329   0.582  0.5810 -0.7262 -0.4824
  353DG     H21 8117   4.685   1.198   0.474  1.1229 -0.7119 -0.0519
  353DG     H22 8118   4.880   1.343   0.742 -0.9592 -1.4434  0.1635
  353DG     H23 8119   4.910   1.414   0.591 -0.3447  0.5075  1.1255
  354DG      C1 8120   0.671   2.122   1.287 -1.1176 -0.3653 -0.1017
  354DG      C2 8121   1.120   2.632   1.589  0.0483 -0.2421  0.5886
  354DG      H3 8122   0.717   2.104   1.190 -2.5569 -2.4051 -0.4790
  354DG      H4 8123   0.563   2.114   1.279 -1.2235  0.4984  0.3126
  354DG      H5 8124   0.699   2.032   1.342 -1.2791  0.5191  1.5005
  354DG      H6 8125   1.152   2.548   1.651  1.7689  1.0839  1.5861
  354DG      H7 8126   1.185   2.656   1.505 -3.4952  1.2000 -1.9754
  354DG      H8 8127   1.136   2.719   1.653  3.2313  0.3076 -0.7650
  354DG      O9 8128   0.704   2.252   1.346 -0.1424 -0.1714 -0.2375
  354DG     O10 8129   0.990   2.613   1.543  0.3327  0.3118  0.6467
  354DG     C11 8130   0.635   2.345   1.262 -0.5799  0.0798 -0.2509
  354DG     C12 8131   0.970   2.680   1.416  0.6715 -0.1310  0.1662
  354DG     H13 8132   0.529   2.320   1.272 -0.5387 -0.8161 -1.7813
  354DG     H14 8133   0.672   2.338   1.160 -0.9910  0.7365 -0.4507
  354DG     H15 8134   1.044   2.642   1.347  0.3904 -0.4261  0.0245
  354DG     H16 8135   0.995   2.785   1.429  0.4164 -0.0987  0.4184
  354DG     C17 8136   0.663   2.486   1.311  0.5085 -0.3352  1.3902
  354DG     C18 8137   0.827   2.655   1.358  0.8387  0.5761  0.6780
  354DG     O19 8138   0.798   2.517   1.347 -0.5025  0.2983 -0.3194
  354DG     H20 8139   0.603   2.510   1.399  0.0732  0.9716  0.7676
  354DG     H21 8140   0.623   2.551   1.233  1.3140 -0.6101  0.7347
  354DG     H22 8141   0.750   2.701   1.419 -1.4051 -0.8078 -0.9689
  354DG     H23 8142   0.813   2.699   1.260 -1.6773 -1.5731 -0.0201
  355DG      C1 8143   4.180   4.161   1.009 -0.6271  0.5179 -0.0469
  355DG      C2 8144   3.824   4.393   0.614 -0.0335  0.1366 -0.2064
  355DG      H3 8145   4.214   4.243   0.946 -0.2607  0.1596 -0.3146
  355DG      H4 8146   4.218   4.189   1.108  0.2023  0.2923 -0.2963
  355DG      H5 8147   4.071   4.161   1.022 -0.6297  0.2952 -0.0750
  355DG      H6 8148   3.727   4.387   0.565 -1.1893  2.3250  1.5937
  355DG      H7 8149   3.814   4.450   0.707 -0.1262 -2.1505  1.2756
  355DG      H8 8150   3.894   4.440   0.545  0.3044  1.5803  1.0532
  355DG      O9 8151   4.224   4.032   0.956  0.2017 -0.2982 -0.2975
  355DG     O10 8152   3.874   4.261   0.648 -0.2465  0.3524  0.9824
  355DG     C11 8153   4.218   4.029   0.810 -0.1726  0.0744  0.3532
  355DG     C12 8154   3.904   4.183   0.525  0.1729  0.2404 -0.2754
  355DG     H13 8155   4.266   3.940   0.771 -0.1865  0.4680 -0.6021
  355DG     H14 8156   4.282   4.106   0.766 -2.1175  2.2202  1.0871
  355DG     H15 8157   3.995   4.205   0.467  0.2308 -0.7847 -0.5826
  355DG     H16 8158   3.820   4.182   0.456  0.0555  0.0425 -0.1263
  355DG     C17 8159   4.078   4.035   0.750  1.1234 -0.1995  0.0072
  355DG     C18 8160   3.936   4.040   0.559 -0.5685 -0.9457 -0.0257
  355DG     O19 8161   4.073   4.029   0.605  0.1199  0.7414 -0.1061
  355DG     H20 8162   4.037   4.133   0.772 -2.2981 -1.3811 -0.5437
  355DG     H21 8163   4.020   3.952   0.791 -1.2257 -0.8393 -4.1191
  355DG     H22 8164   3.867   3.991   0.627  1.1320 -2.9190  0.3811
  355DG     H23 8165   3.926   3.975   0.472  0.6872 -1.5449  0.2599
  356DG      C1 8166   2.600   4.321   5.247  0.1021  0.4946  0.2918
  356DG      C2 8167   2.619   4.206   4.601 -0.9734  0.1178  0.5511
  356DG      H3 8168   2.699   4.280   5.229 -1.0234 -1.9662 -0.7025
  356DG      H4 8169   2.549   4.245   5.305  3.7354 -1.8939  0.6941
  356DG      H5 8170   2.616   4.405   5.314 -0.8591  0.9819 -0.0616
  356DG      H6 8171   2.637   4.271   4.515 -0.0620 -0.4481  0.2958
  356DG      H7 8172   2.706   4.141   4.613 -0.3216  1.0840  1.1467
  356DG      H8 8173   2.539   4.141   4.568  0.4787 -0.7596 -1.4819
  356DG      O9 8174   2.549   4.362   5.127  0.4899  0.1232  0.0536
  356DG     O10 8175   2.593   4.288   4.710 -0.3871  0.0671 -0.2434
  356DG     C11 8176   2.403   4.374   5.129 -0.2559 -0.2906 -0.0699
  356DG     C12 8177   2.470   4.369   4.699 -0.5677 -0.1404 -0.4945
  356DG     H13 8178   2.382   4.452   5.203  2.9332 -0.6198  1.3504
  356DG     H14 8179   2.366   4.281   5.172  0.5153 -0.0487  1.1954
  356DG     H15 8180   2.457   4.404   4.596  1.6354  0.3428 -0.6749
  356DG     H16 8181   2.502   4.465   4.741  3.9259 -1.7260  0.2134
  356DG     C17 8182   2.342   4.397   4.988 -0.5732 -0.1572 -0.2295
  356DG     C18 8183   2.354   4.305   4.771  0.0619 -0.3805 -0.3699
  356DG     O19 8184   2.365   4.284   4.911 -0.0558 -0.7078 -0.0448
  356DG     H20 8185   2.374   4.489   4.939  0.3025 -0.4519 -0.2266
  356DG     H21 8186   2.234   4.404   5.004 -1.1523 -1.0513 -3.1679
  356DG     H22 8187   2.262   4.362   4.756  0.0399 -0.1840  0.4719
  356DG     H23 8188   2.349   4.206   4.724 -0.6203 -0.1196 -0.8754
  357DG      C1 8189   4.039   4.385   0.242  0.0884  0.2451 -0.1019
  357DG      C2 8190   3.192   4.244  -0.090 -0.6286 -0.6030  0.1354
  357DG      H3 8191   4.068   4.403   0.138  0.3823  0.3239 -0.0074
  357DG      H4 8192   4.084   4.290   0.274 -0.4687  0.4809  1.4692
  357DG      H5 8193   4.092   4.459   0.302  0.9274  0.4216 -1.0315
  357DG      H6 8194   3.115   4.307  -0.134 -0.6329 -0.4045  0.4249
  357DG      H7 8195   3.243   4.181  -0.163 -0.3619 -0.4428  0.1808
  357DG      H8 8196   3.145   4.179  -0.016  0.9665  1.7333  3.4632
  357DG      O9 8197   3.899   4.377   0.266  0.1491 -0.8107  0.2707
  357DG     O10 8198   3.280   4.324  -0.027 -1.0236  0.0851  0.0608
  357DG     C11 8199   3.827   4.314   0.165  0.0190  0.0602 -0.3658
  357DG     C12 8200   3.392   4.252   0.004 -0.5491  0.4004 -0.4234
  357DG     H13 8201   3.858   4.210   0.157  0.7052  0.2151  0.1519
  357DG     H14 8202   3.847   4.350   0.064 -1.1194  2.6173  0.2491
  357DG     H15 8203   3.434   4.223  -0.093 -0.3075 -1.8983  0.3202
  357DG     H16 8204   3.370   4.160   0.058  2.0032 -0.1971 -0.2408
  357DG     C17 8205   3.682   4.331   0.208 -0.2207 -0.0415 -0.0340
  357DG     C18 8206   3.481   4.336   0.090  0.3712  0.1538  0.3472
  357DG     O19 8207   3.602   4.265   0.115  0.3074  0.0226  0.3620
  357DG     H20 8208   3.658   4.434   0.235 -1.5398 -0.1089 -0.8578
  357DG     H21 8209   3.679   4.274   0.300 -0.3419  1.4309  0.9043
  357DG     H22 8210   3.514   4.427   0.039  1.2366  0.0705  0.7412
  357DG     H23 8211   3.428   4.361   0.183 -0.6360  0.8205 -0.3812
  358DG      C1 8212   5.152   0.685   4.067 -0.2394  0.4372  0.2932
  358DG      C2 8213   4.557   0.873   3.893 -0.6093  0.2158  0.0885
  358DG      H3 8214   5.259   0.676   4.050  0.1942  0.3102  2.6985
  358DG      H4 8215   5.122   0.603   4.132  2.7980  0.4421  1.8371
  358DG      H5 8216   5.144   0.777   4.125  0.2203  0.7975 -0.1989
  358DG      H6 8217   4.476   0.861   3.964  0.1137  2.9724  1.5266
  358DG      H7 8218   4.613   0.960   3.929  1.6590  0.0896 -2.7717
  358DG      H8 8219   4.528   0.895   3.790  1.5330  0.4090 -0.5240
  358DG      O9 8220   5.093   0.700   3.938 -0.1307  0.1316  0.3613
  358DG     O10 8221   4.646   0.764   3.897  0.4591 -0.7965 -0.6750
  358DG     C11 8222   5.101   0.585   3.853  0.4282 -0.4451  0.0576
  358DG     C12 8223   4.603   0.638   3.847 -0.4362  0.2529  0.4454
  358DG     H13 8224   5.181   0.516   3.881  1.6123  0.3925 -1.1627
  358DG     H14 8225   5.123   0.612   3.750  0.6303 -2.2478 -0.4050
  358DG     H15 8226   4.571   0.633   3.743 -1.8332 -1.9975  0.9360
  358DG     H16 8227   4.530   0.588   3.909 -0.0357 -0.2104  0.5516
  358DG     C17 8228   4.968   0.511   3.859  0.4894  0.2782  0.1335
  358DG     C18 8229   4.729   0.546   3.866  0.1906 -0.6399  0.4353
  358DG     O19 8230   4.852   0.596   3.831  0.0151  0.6856  0.3372
  358DG     H20 8231   4.959   0.482   3.964 -0.9664 -0.5229 -0.1885
  358DG     H21 8232   4.968   0.418   3.802  0.6265  0.0862  0.4458
  358DG     H22 8233   4.734   0.509   3.969 -1.7581 -0.9814  0.4606
  358DG     H23 8234   4.700   0.456   3.810  0.0047 -1.2182  1.4281
  359DG      C1 8235   2.267   1.062   0.565  0.8588  0.0604  0.2970
  359DG      C2 8236   1.779   0.865  -0.020 -0.0454 -0.5139  0.1339
  359DG      H3 8237   2.252   1.141   0.638 -0.4186 -0.6213  0.8129
  359DG      H4 8238   2.362   1.083   0.517  1.0115  0.8141  0.9061
  359DG      H5 8239   2.270   0.964   0.615  1.0156 -1.0579 -1.7958
  359DG      H6 8240   1.850   0.848  -0.102  0.0076 -1.6162  0.3907
  359DG      H7 8241   1.750   0.777   0.038 -1.3224  0.8029  1.5851
  359DG      H8 8242   1.686   0.911  -0.055  0.6718  0.5845 -0.3631
  359DG      O9 8243   2.166   1.066   0.457  1.0574  0.0247 -0.4909
  359DG     O10 8244   1.838   0.961   0.059  0.2846 -0.1280 -0.1322
  359DG     C11 8245   2.191   1.176   0.364  0.7660  0.4516  0.3431
  359DG     C12 8246   1.785   0.981   0.194  0.2260  0.2357  0.9103
  359DG     H13 8247   2.260   1.148   0.284  0.9711  1.0014  0.3276
  359DG     H14 8248   2.231   1.262   0.416 -1.2283  1.3579  0.4631
  359DG     H15 8249   1.806   0.899   0.262  1.8166 -0.1573 -0.0042
  359DG     H16 8250   1.679   1.004   0.191  0.7904  3.3080  0.6230
  359DG     C17 8251   2.054   1.215   0.304 -0.0568 -0.2585 -0.1574
  359DG     C18 8252   1.845   1.110   0.248 -0.4310  0.0448  0.2306
  359DG     O19 8253   1.988   1.100   0.255  0.2449  0.0233 -0.1381
  359DG     H20 8254   2.067   1.288   0.224  1.2921 -0.0964  0.1872
  359DG     H21 8255   1.990   1.264   0.377 -0.1517  0.1030 -0.4773
  359DG     H22 8256   1.818   1.187   0.177  2.7675 -1.0141 -2.3540
  359DG     H23 8257   1.798   1.136   0.344 -0.7412  2.0760 -0.4173
  360DG      C1 8258   2.823   0.671   4.621 -0.4853 -0.6151 -0.0679
  360DG      C2 8259   3.091   1.167   4.988  0.4800  0.2446  0.3415
  360DG      H3 8260   2.755   0.722   4.690  0.9382 -0.7660  1.5170
  360DG      H4 8261   2.867   0.586   4.674 -2.5366 -0.6973  1.6272
  360DG      H5 8262   2.770   0.627   4.536  0.8670 -0.6317 -0.9349
  360DG      H6 8263   3.023   1.251   4.972  1.6995  1.7784  2.5706
  360DG      H7 8264   3.054   1.107   5.071 -1.4181  1.5856  0.5192
  360DG      H8 8265   3.182   1.206   5.035  1.1943  0.6763 -1.3038
  360DG      O9 8266   2.928   0.759   4.600  0.6844 -0.4913  1.0226
  360DG     O10 8267   3.110   1.075   4.877  0.0541 -0.6914 -0.7439
  360DG     C11 8268   2.909   0.853   4.500  0.1806  0.0010  0.3444
  360DG     C12 8269   3.160   1.151   4.765  0.1087 -0.0045 -0.4253
  360DG     H13 8270   2.811   0.901   4.509  0.2529  0.2084  0.0330
  360DG     H14 8271   2.901   0.791   4.411  2.5718 -0.4677  0.4030
  360DG     H15 8272   3.258   1.190   4.793  1.4583 -3.5446  0.3212
  360DG     H16 8273   3.097   1.238   4.746  0.2115  0.2596  0.3854
  360DG     C17 8274   3.027   0.951   4.491 -0.0979 -0.8381  0.5528
  360DG     C18 8275   3.171   1.070   4.641  0.4549  0.1485  0.8687
  360DG     O19 8276   3.041   1.026   4.611 -0.1394 -0.1613 -0.3360
  360DG     H20 8277   3.004   1.016   4.406  0.1306  1.7287  2.3072
  360DG     H21 8278   3.121   0.901   4.472 -0.7245 -1.1827 -2.0456
  360DG     H22 8279   3.195   1.133   4.556 -0.1461  0.9902  1.3080
  360DG     H23 8280   3.244   0.989   4.641  0.4228  0.0934  2.3135
  361DG      C1 8281   0.045   3.362   0.084 -0.7406  0.4138  0.2611
  361DG      C2 8282   0.650   3.661   0.274 -0.9487  0.5710  0.5823
  361DG      H3 8283   0.021   3.280   0.017 -3.2401  3.1745 -2.5869
  361DG      H4 8284  -0.032   3.439   0.071 -1.0041  0.1853  0.4650
  361DG      H5 8285   0.041   3.335   0.189 -1.6788 -0.5713 -0.0078
  361DG      H6 8286   0.737   3.598   0.257 -0.3557  1.6908 -0.7543
  361DG      H7 8287   0.686   3.764   0.278  2.4077 -0.4571 -0.1783
  361DG      H8 8288   0.603   3.642   0.371  0.2109 -1.4631  0.7976
  361DG      O9 8289   0.177   3.404   0.047  0.2243 -0.1679 -0.0955
  361DG     O10 8290   0.544   3.658   0.181  0.1075  0.4780 -0.1540
  361DG     C11 8291   0.182   3.443  -0.097 -0.0017 -0.1014 -0.0977
  361DG     C12 8292   0.588   3.682   0.047  0.4279  0.6343  0.3106
  361DG     H13 8293   0.123   3.533  -0.115  0.5718  0.5058  0.9549
  361DG     H14 8294   0.143   3.358  -0.153  0.9514 -1.7088  1.5505
  361DG     H15 8295   0.695   3.685   0.030  0.4194 -1.4441 -0.3911
  361DG     H16 8296   0.552   3.781   0.017 -2.9029 -0.2089  1.0775
  361DG     C17 8297   0.327   3.464  -0.127  0.2482  0.2600  0.6479
  361DG     C18 8298   0.525   3.581  -0.058 -0.3725 -0.1077  0.2715
  361DG     O19 8299   0.383   3.560  -0.040  0.6934  0.1140 -0.4649
  361DG     H20 8300   0.323   3.494  -0.232 -4.7164  2.0149  1.0719
  361DG     H21 8301   0.387   3.375  -0.110  0.2708  0.4758  1.7950
  361DG     H22 8302   0.559   3.614  -0.156 -0.0294  1.4006  0.8736
  361DG     H23 8303   0.575   3.487  -0.034  0.4209  0.5479  1.3129
  362DG      C1 8304   3.578   1.392   4.813 -0.3026  0.5377  0.6381
  362DG      C2 8305   4.213   1.284   4.724  0.5450 -0.7354  0.7506
  362DG      H3 8306   3.486   1.450   4.809 -0.7374 -0.0694  1.4184
  362DG      H4 8307   3.597   1.381   4.920  1.2733  1.4326  0.4845
  362DG      H5 8308   3.562   1.291   4.774  0.2677  1.4731 -2.2182
  362DG      H6 8309   4.179   1.182   4.744 -0.1753 -0.4504  1.0026
  362DG      H7 8310   4.297   1.304   4.657  1.0595  0.9035  1.8420
  362DG      H8 8311   4.259   1.329   4.811  0.1831  0.9662  0.1007
  362DG      O9 8312   3.690   1.448   4.739  0.0505 -0.0396  0.1130
  362DG     O10 8313   4.100   1.363   4.672  0.1196  0.3985  0.2456
  362DG     C11 8314   3.728   1.578   4.788  0.2092 -0.2604 -0.6594
  362DG     C12 8315   4.145   1.493   4.629 -0.3138  0.6891 -0.2538
  362DG     H13 8316   3.772   1.580   4.888 -0.4508  0.1029 -0.3712
  362DG     H14 8317   3.631   1.628   4.789  0.7270  0.7876  0.4692
  362DG     H15 8318   4.225   1.492   4.555 -1.2829  0.5694 -1.3183
  362DG     H16 8319   4.189   1.532   4.721 -1.5953  1.2925  0.1337
  362DG     C17 8320   3.831   1.646   4.697  0.1514 -1.0483 -0.0169
  362DG     C18 8321   4.036   1.576   4.584 -0.0193  0.3333 -0.0825
  362DG     O19 8322   3.939   1.554   4.684 -0.8696  1.0481  0.1427
  362DG     H20 8323   3.870   1.741   4.734 -0.7118 -0.2030 -1.2085
  362DG     H21 8324   3.796   1.664   4.595 -0.1928 -2.4531 -0.1566
  362DG     H22 8325   4.068   1.679   4.570  3.7325 -0.6334  0.3363
  362DG     H23 8326   3.989   1.531   4.496  0.1887 -0.3404  0.1491
  363DG      C1 8327   0.812   2.177   1.685 -0.4782  0.4683  0.3885
  363DG      C2 8328   1.092   2.280   1.147  0.0711 -0.4776 -0.0955
  363DG      H3 8329   0.813   2.076   1.645 -1.9984  0.7337 -0.3837
  363DG      H4 8330   0.734   2.221   1.624 -0.1675  0.3539 -0.0975
  363DG      H5 8331   0.782   2.182   1.790 -0.2124  0.7459  0.4549
  363DG      H6 8332   1.088   2.171   1.150 -2.4242 -0.4510 -0.2669
  363DG      H7 8333   0.990   2.310   1.126  0.8279  1.1449 -1.7477
  363DG      H8 8334   1.157   2.316   1.068  0.4661 -1.1115 -0.0661
  363DG      O9 8335   0.941   2.237   1.660 -0.2666  0.5790  0.2428
  363DG     O10 8336   1.113   2.325   1.275 -0.1515 -0.4138 -0.2209
  363DG     C11 8337   1.051   2.173   1.728  0.0237  0.1632 -0.1803
  363DG     C12 8338   1.243   2.270   1.321  1.0367  0.1372 -0.5265
  363DG     H13 8339   1.046   2.066   1.711 -2.6126  0.0875  0.5374
  363DG     H14 8340   1.042   2.188   1.836  0.3251 -1.6723  0.1351
  363DG     H15 8341   1.318   2.324   1.263  0.5118  1.4608 -0.0151
  363DG     H16 8342   1.242   2.161   1.318 -0.0090  0.1408 -0.5216
  363DG     C17 8343   1.174   2.233   1.672  0.2324 -0.4502  0.0723
  363DG     C18 8344   1.262   2.313   1.468 -0.1385  0.2109  0.9462
  363DG     O19 8345   1.154   2.247   1.529 -0.3547 -0.1593 -0.4156
  363DG     H20 8346   1.251   2.170   1.715  0.6229 -1.2439 -1.7184
  363DG     H21 8347   1.185   2.333   1.715 -1.1969 -0.3490  0.2610
  363DG     H22 8348   1.355   2.274   1.511 -0.3695 -2.7931 -0.9495
  363DG     H23 8349   1.257   2.421   1.459 -3.6217  0.0766 -0.4625
  364DG      C1 8350   3.691   0.528   4.032 -0.6613 -0.5897 -0.2403
  364DG      C2 8351   4.184   0.316   4.449  0.1837 -0.0373 -0.3701
  364DG      H3 8352   3.597   0.584   4.031 -0.8857 -0.9622 -0.3360
  364DG      H4 8353   3.666   0.432   4.075  0.1071 -0.4563  0.5315
  364DG      H5 8354   3.730   0.512   3.931 -0.0794 -0.7968  0.0137
  364DG      H6 8355   4.091   0.259   4.449 -2.1051  3.3660 -1.2259
  364DG      H7 8356   4.257   0.264   4.387 -0.6935  0.3567 -1.7541
  364DG      H8 8357   4.228   0.322   4.549  1.6836  0.2642 -1.0237
  364DG      O9 8358   3.791   0.576   4.121  0.6023  0.0281 -0.2088
  364DG     O10 8359   4.174   0.449   4.390  0.0820  0.7742  0.7860
  364DG     C11 8360   3.856   0.691   4.078  0.1361 -0.5815 -0.2390
  364DG     C12 8361   4.068   0.515   4.455 -0.0092  0.2726  0.4882
  364DG     H13 8362   3.773   0.752   4.044 -0.3174 -1.4144 -0.6561
  364DG     H14 8363   3.927   0.665   3.999 -0.0490 -1.0959 -0.2414
  364DG     H15 8364   4.097   0.519   4.560  2.0161 -0.5322 -0.0021
  364DG     H16 8365   3.982   0.450   4.439  2.3220 -2.8321 -0.5665
  364DG     C17 8366   3.932   0.751   4.201  0.2273  0.2397  0.3467
  364DG     C18 8367   4.052   0.656   4.389  0.3006  0.2459 -0.0806
  364DG     O19 8368   3.994   0.633   4.259  0.6058 -0.0098 -0.0665
  364DG     H20 8369   3.866   0.802   4.271 -0.9775  0.6688 -1.0422
  364DG     H21 8370   4.003   0.829   4.173 -0.2697  0.3730 -0.5912
  364DG     H22 8371   3.997   0.723   4.456  1.1332  1.5727 -0.6849
  364DG     H23 8372   4.146   0.709   4.375 -1.3032  3.6532  0.9147
  365DG      C1 8373   2.991   5.099   3.772  0.4666 -0.2271 -0.1528
  365DG      C2 8374   2.863   5.347   4.434  0.6792  0.4503 -0.6802
  365DG      H3 8375   2.957   5.003   3.732 -0.1970  0.4847 -1.3394
  365DG      H4 8376   3.098   5.103   3.754  0.8687 -3.2099  0.9095
  365DG      H5 8377   2.938   5.178   3.719 -0.9877  0.4600  2.1453
  365DG      H6 8378   2.970   5.363   4.422  0.6504  1.7779  0.6709
  365DG      H7 8379   2.820   5.439   4.396  0.3220  0.2138 -0.8621
  365DG      H8 8380   2.839   5.327   4.538 -1.4524 -0.6884 -1.3184
  365DG      O9 8381   2.967   5.108   3.909  0.4106  0.2716 -0.0225
  365DG     O10 8382   2.820   5.230   4.360  0.5148  0.0663  0.6245
  365DG     C11 8383   3.000   5.231   3.965  0.4254 -0.1733 -0.1542
  365DG     C12 8384   2.887   5.107   4.390  0.0995 -0.1926 -0.4166
  365DG     H13 8385   2.918   5.294   3.933 -2.0678 -2.1954  1.7715
  365DG     H14 8386   3.100   5.271   3.950 -0.1489  0.8557 -1.3129
  365DG     H15 8387   2.817   5.041   4.339 -0.8918  1.7289 -1.6575
  365DG     H16 8388   2.893   5.068   4.492 -0.3732 -2.6139 -1.2576
  365DG     C17 8389   2.985   5.224   4.119  0.5838  0.1934 -0.1490
  365DG     C18 8390   3.019   5.095   4.315 -0.0637  0.7289  0.5865
  365DG     O19 8391   3.008   5.090   4.173 -0.1460  0.3215 -0.5214
  365DG     H20 8392   2.881   5.250   4.136  0.1079 -1.0719 -0.9771
  365DG     H21 8393   3.045   5.303   4.164  0.8002  0.0391 -0.1605
  365DG     H22 8394   3.086   5.178   4.339  0.5968  0.2205  0.5253
  365DG     H23 8395   3.074   5.004   4.338  0.4720  0.3707 -1.8453
  366DG      C1 8396   1.191   5.474   2.806 -0.1755 -0.9036 -0.7253
  366DG      C2 8397   1.244   5.657   3.611  0.4769  0.4996 -0.0644
  366DG      H3 8398   1.276   5.429   2.857  0.0509 -0.3633 -0.6300
  366DG      H4 8399   1.228   5.513   2.711  0.1083  1.9122  0.4483
  366DG      H5 8400   1.114   5.397   2.795  0.1360 -1.0412 -2.1060
  366DG      H6 8401   1.253   5.737   3.683  0.6560  1.2889 -0.9446
  366DG      H7 8402   1.225   5.570   3.675  0.2476  0.5111 -0.1145
  366DG      H8 8403   1.345   5.636   3.575  0.3267 -0.7057  0.1539
  366DG      O9 8404   1.150   5.590   2.889 -0.2094  0.2415 -0.3173
  366DG     O10 8405   1.151   5.689   3.507 -0.0039 -0.0734 -0.2062
  366DG     C11 8406   1.183   5.596   3.029  0.1380 -0.1758  0.2231
  366DG     C12 8407   1.170   5.820   3.458  0.0960 -0.4891  0.6089
  366DG     H13 8408   1.288   5.570   3.041  0.2978  1.2395  2.6137
  366DG     H14 8409   1.128   5.516   3.080 -1.4558 -0.8812 -2.3964
  366DG     H15 8410   1.276   5.820   3.432 -0.4890 -0.7031 -2.1666
  366DG     H16 8411   1.128   5.899   3.520 -0.7472  0.2939 -0.8963
  366DG     C17 8412   1.150   5.734   3.102  0.1150  0.0647  0.0440
  366DG     C18 8413   1.109   5.843   3.322 -0.4509 -0.0307 -0.9331
  366DG     O19 8414   1.153   5.725   3.241 -0.0877  0.1817 -0.1766
  366DG     H20 8415   1.049   5.764   3.076 -0.4452 -0.3283  1.7002
  366DG     H21 8416   1.221   5.815   3.081  0.6974 -0.3977  0.2141
  366DG     H22 8417   1.001   5.854   3.322 -0.3181  2.4577  2.2003
  366DG     H23 8418   1.164   5.922   3.270 -0.7666  0.0211 -1.1913
  367DG      C1 8419   1.499   5.237   2.594 -0.7053 -0.1798  0.0442
  367DG      C2 8420   1.449   6.012   2.684  0.3612 -0.3749  0.0691
  367DG      H3 8421   1.402   5.203   2.630 -0.5249  0.0827  0.8027
  367DG      H4 8422   1.583   5.168   2.591 -1.7444 -1.5134  0.3620
  367DG      H5 8423   1.491   5.263   2.489  0.4441  2.7705  0.5970
  367DG      H6 8424   1.374   5.959   2.625 -0.5393  0.1368  0.7283
  367DG      H7 8425   1.393   6.057   2.766  0.7172  1.0494 -0.4513
  367DG      H8 8426   1.503   6.083   2.621  0.2638  1.2271  1.7057
  367DG      O9 8427   1.519   5.349   2.672  0.2052 -0.3215  0.4562
  367DG     O10 8428   1.537   5.913   2.738  0.2251 -0.0823 -0.4031
  367DG     C11 8429   1.652   5.387   2.696 -0.2112  0.3645  0.2709
  367DG     C12 8430   1.462   5.811   2.808 -0.2373  0.6468  0.1349
  367DG     H13 8431   1.700   5.412   2.601 -0.3172  0.3861  0.2222
  367DG     H14 8432   1.707   5.306   2.743 -0.7802  0.6813  1.5289
  367DG     H15 8433   1.385   5.757   2.755  1.5812 -0.6869 -1.2811
  367DG     H16 8434   1.416   5.854   2.897 -1.0777  0.2536 -0.0990
  367DG     C17 8435   1.663   5.507   2.788  0.3601  0.2133  0.0540
  367DG     C18 8436   1.561   5.705   2.848 -0.4861 -0.3166 -0.7680
  367DG     O19 8437   1.603   5.623   2.739 -0.0333  0.0545 -0.1674
  367DG     H20 8438   1.770   5.526   2.781  0.1998  1.7061  1.1983
  367DG     H21 8439   1.646   5.480   2.892  0.6642  0.5258  0.1900
  367DG     H22 8440   1.644   5.753   2.900 -1.9677  1.1307  0.3712
  367DG     H23 8441   1.513   5.650   2.928 -1.5623  1.7483  0.0970
  368DG      C1 8442   5.212   3.474   4.965 -0.5363  0.5585 -0.1690
  368DG      C2 8443   5.204   2.772   5.151  0.3793  0.9603 -0.3356
  368DG      H3 8444   5.273   3.563   4.985 -0.3958  0.3441  0.3580
  368DG      H4 8445   5.110   3.511   4.958  0.0772  2.0399 -2.8876
  368DG      H5 8446   5.229   3.431   4.866  2.4199 -2.7914  1.5527
  368DG      H6 8447   5.181   2.694   5.224 -0.1068  0.0754 -1.3970
  368DG      H7 8448   5.116   2.835   5.138 -0.4807 -0.1690 -0.1737
  368DG      H8 8449   5.229   2.727   5.055  0.5019  1.4906 -0.5552
  368DG      O9 8450   5.239   3.369   5.049 -0.2340  0.2582  0.1429
  368DG     O10 8451   5.308   2.863   5.181  0.4327 -0.0692  0.0461
  368DG     C11 8452   5.373   3.335   5.049 -1.1611  0.0653 -0.2048
  368DG     C12 8453   5.298   2.938   5.302 -0.4027  0.2936 -0.2264
  368DG     H13 8454   5.440   3.421   5.050  0.7731 -1.3002 -2.1994
  368DG     H14 8455   5.398   3.275   4.961 -0.0808 -0.5587  0.4938
  368DG     H15 8456   5.344   2.883   5.383 -0.8500  2.6865  1.7893
  368DG     H16 8457   5.202   2.980   5.333  1.4748  2.0826  3.9832
  368DG     C17 8458   5.400   3.270   5.185  0.6914  0.4848  0.1928
  368DG     C18 8459   5.391   3.058   5.281 -0.1656  0.0750 -0.1832
  368DG     O19 8460   5.323   3.144   5.191  0.0028  0.5871  0.0662
  368DG     H20 8461   5.371   3.344   5.260 -0.0604  0.0219  0.3743
  368DG     H21 8462   5.506   3.245   5.186  0.4378 -0.6459  0.7360
  368DG     H22 8463   5.408   3.123   5.366  0.6637  1.3567 -1.2882
  368DG     H23 8464   5.488   3.028   5.242 -0.7698 -2.0417 -0.1845
  369DG      C1 8465   2.021   0.589   3.347 -0.4191 -0.5235 -0.2522
  369DG      C2 8466   1.842   0.982   3.871  0.4972  0.8130  0.1025
  369DG      H3 8467   1.975   0.496   3.313 -1.2747 -0.0976 -0.3078
  369DG      H4 8468   2.125   0.571   3.371 -0.0456 -0.4386 -1.7183
  369DG      H5 8469   2.007   0.644   3.254 -0.1677 -0.4176 -0.2284
  369DG      H6 8470   1.796   1.063   3.928  0.6974  0.2318  1.1256
  369DG      H7 8471   1.782   0.892   3.887  2.1795 -0.1762  1.1610
  369DG      H8 8472   1.934   0.961   3.925 -0.7371 -0.4153  1.8595
  369DG      O9 8473   1.933   0.659   3.435  0.3628 -0.3900  0.0498
  369DG     O10 8474   1.859   1.003   3.731 -0.1237  0.0439 -0.0517
  369DG     C11 8475   1.811   0.701   3.367 -0.6106 -0.6553 -0.8790
  369DG     C12 8476   1.745   1.063   3.670  0.3772 -0.3664 -0.2653
  369DG     H13 8477   1.777   0.604   3.330 -0.0072 -0.9169 -0.7642
  369DG     H14 8478   1.829   0.767   3.283 -0.5899 -1.0495 -1.1879
  369DG     H15 8479   1.770   1.138   3.595  0.7147 -1.9603 -1.8000
  369DG     H16 8480   1.695   1.131   3.738  0.0038 -0.7711 -0.1295
  369DG     C17 8481   1.704   0.763   3.473  0.5919  0.1740 -0.4972
  369DG     C18 8482   1.652   0.959   3.608  0.4578  0.6967  0.7559
  369DG     O19 8483   1.739   0.893   3.510 -0.3098 -0.2108 -0.1359
  369DG     H20 8484   1.674   0.704   3.559  0.9001 -0.7333 -0.9944
  369DG     H21 8485   1.611   0.776   3.418  0.8600 -0.6297 -1.1817
  369DG     H22 8486   1.619   0.890   3.686  1.7198 -0.5843  0.2112
  369DG     H23 8487   1.565   1.002   3.558 -0.4312 -0.5518  1.1588
  370DG      C1 8488   3.763   2.178   0.550  0.4928  0.1095  0.2172
  370DG      C2 8489   3.829   2.806   0.744 -0.3617  0.2667  0.0325
  370DG      H3 8490   3.700   2.092   0.526  0.9975  0.5086 -2.9755
  370DG      H4 8491   3.852   2.148   0.606 -0.4214 -0.6972  1.2946
  370DG      H5 8492   3.801   2.206   0.452  0.7092 -2.1388 -0.3969
  370DG      H6 8493   3.833   2.871   0.832 -0.3563  1.3288 -0.7246
  370DG      H7 8494   3.929   2.775   0.716 -0.7729  0.3912 -1.6634
  370DG      H8 8495   3.793   2.865   0.660 -0.7725  3.3783  2.1965
  370DG      O9 8496   3.692   2.281   0.611  0.1870  0.2673 -0.2566
  370DG     O10 8497   3.758   2.691   0.762  0.5129 -0.5792  0.7025
  370DG     C11 8498   3.567   2.307   0.551 -0.1631  0.6359  0.7161
  370DG     C12 8499   3.622   2.713   0.775 -0.1381  0.0630 -0.1890
  370DG     H13 8500   3.507   2.217   0.538  1.6391 -0.6700  1.1986
  370DG     H14 8501   3.580   2.358   0.456 -1.0961 -1.4466 -0.5863
  370DG     H15 8502   3.585   2.770   0.690 -0.7155  2.3068  1.4702
  370DG     H16 8503   3.602   2.759   0.871  1.2803 -1.0915  0.7060
  370DG     C17 8504   3.487   2.399   0.650 -0.8561 -0.0156  0.1284
  370DG     C18 8505   3.547   2.581   0.779  0.9163  0.2545  0.2139
  370DG     O19 8506   3.581   2.504   0.666  0.3388 -0.0810  0.5095
  370DG     H20 8507   3.463   2.336   0.736  0.9665 -0.5750  0.2761
  370DG     H21 8508   3.394   2.434   0.606 -1.4805  0.2242  1.5831
  370DG     H22 8509   3.574   2.524   0.867 -0.6912 -0.5908  0.1987
  370DG     H23 8510   3.440   2.601   0.787  0.5139 -1.1358 -1.0901
  371DG      C1 8511   2.157   0.056   1.365 -0.3360 -0.3433 -0.4018
  371DG      C2 8512   2.013   0.586   0.973 -0.1422  0.7368  0.0851
  371DG      H3 8513   2.195   0.121   1.443  1.2064 -1.3022 -0.2939
  371DG      H4 8514   2.241   0.033   1.298 -1.0569 -1.8439 -0.8491
  371DG      H5 8515   2.126  -0.039   1.409  0.6246  0.4200  2.0441
  371DG      H6 8516   1.968   0.653   0.899  0.9368 -1.0110 -2.2678
  371DG      H7 8517   2.068   0.636   1.052  0.1102  0.0685  0.3324
  371DG      H8 8518   2.087   0.519   0.930 -0.7946 -1.0600  1.6696
  371DG      O9 8519   2.057   0.128   1.283  0.7190  0.0206 -0.6061
  371DG     O10 8520   1.929   0.490   1.034 -0.1558 -0.1891  0.2416
  371DG     C11 8521   1.975   0.044   1.202  0.3758  0.4278 -0.3343
  371DG     C12 8522   1.831   0.427   0.945  0.2638 -0.1413  0.0883
  371DG     H13 8523   1.944  -0.047   1.254 -1.2384 -1.2996 -4.0091
  371DG     H14 8524   2.048   0.014   1.127  0.9857  2.3504 -0.5587
  371DG     H15 8525   1.867   0.393   0.848 -1.6199 -1.0162 -0.3587
  371DG     H16 8526   1.746   0.494   0.933  0.6661  1.2074  3.5530
  371DG     C17 8527   1.857   0.108   1.134  0.4428 -0.1128 -0.6661
  371DG     C18 8528   1.782   0.299   1.011 -1.0012  0.1432 -0.0203
  371DG     O19 8529   1.890   0.235   1.083 -0.4995 -0.1741 -0.5738
  371DG     H20 8530   1.776   0.124   1.205 -1.6110 -0.1129 -2.8791
  371DG     H21 8531   1.841   0.037   1.052  2.7223 -2.4845  0.7951
  371DG     H22 8532   1.693   0.320   1.071  0.6426  0.0399  2.6037
  371DG     H23 8533   1.751   0.229   0.933 -0.2102  1.9303 -2.0406
  372DG      C1 8534   3.084   2.408   3.440  0.0724 -0.5756  0.1565
  372DG      C2 8535   2.680   2.002   3.826  0.0164 -0.2139 -0.6064
  372DG      H3 8536   3.175   2.391   3.383 -0.8322 -1.8450 -0.9574
  372DG      H4 8537   3.099   2.432   3.545 -0.4155  0.3247  0.0344
  372DG      H5 8538   3.038   2.502   3.406  0.4761  0.4058  2.1618
  372DG      H6 8539   2.607   2.071   3.866 -0.1585  0.8543 -2.6340
  372DG      H7 8540   2.629   1.908   3.844  0.0052 -0.2685 -0.9223
  372DG      H8 8541   2.771   2.001   3.886 -0.2258 -0.0929 -0.2379
  372DG      O9 8542   2.980   2.314   3.439  0.0628 -0.5332 -0.2173
  372DG     O10 8543   2.712   2.043   3.693  0.0224 -0.6540  0.5055
  372DG     C11 8544   2.971   2.241   3.318  0.4024  0.3119 -0.2080
  372DG     C12 8545   2.779   1.929   3.638  0.1545 -0.6104  0.5441
  372DG     H13 8546   3.065   2.193   3.292  0.1428  0.9903 -2.7111
  372DG     H14 8547   2.941   2.311   3.240 -0.7494  0.8474  0.6820
  372DG     H15 8548   2.729   1.833   3.655 -2.1681  0.1728 -1.3303
  372DG     H16 8549   2.876   1.924   3.688  1.1797 -0.4439 -1.3539
  372DG     C17 8550   2.874   2.123   3.341  0.3345  0.6853  0.0956
  372DG     C18 8551   2.805   1.952   3.493  0.2584 -0.5595 -0.2190
  372DG     O19 8552   2.872   2.070   3.475  0.0183 -0.3055  0.0776
  372DG     H20 8553   2.893   2.040   3.273  0.3459  2.3876 -2.0869
  372DG     H21 8554   2.775   2.158   3.311  0.1015 -0.7445 -0.9001
  372DG     H22 8555   2.864   1.870   3.453 -2.3257 -2.3855 -0.5185
  372DG     H23 8556   2.709   1.960   3.441 -0.0691  0.0560  0.4568
  373DG      C1 8557   1.778   1.077   3.244  1.0287 -0.2085 -0.1071
  373DG      C2 8558   2.146   0.753   3.707  0.6146 -0.3155 -0.7736
  373DG      H3 8559   1.766   1.185   3.238 -1.4425 -0.4005  0.4251
  373DG      H4 8560   1.692   1.044   3.301 -0.7858  2.9218 -0.8100
  373DG      H5 8561   1.765   1.037   3.144 -0.3642  1.1366 -0.4944
  373DG      H6 8562   2.067   0.679   3.717 -2.2185  2.5953 -0.0366
  373DG      H7 8563   2.244   0.710   3.730 -0.1515 -2.5467 -1.4585
  373DG      H8 8564   2.121   0.840   3.768 -1.6013 -1.7677  0.4859
  373DG      O9 8565   1.900   1.036   3.300  0.4772  0.4153  0.0306
  373DG     O10 8566   2.165   0.791   3.572 -0.5725  0.2083  0.4039
  373DG     C11 8567   2.005   1.071   3.220 -1.0806 -0.4619 -0.2919
  373DG     C12 8568   2.274   0.883   3.575  0.6441  0.2742 -0.3593
  373DG     H13 8569   2.038   1.170   3.251 -3.1448  0.0129  0.5916
  373DG     H14 8570   1.998   1.066   3.111  0.4032 -4.2821 -0.3495
  373DG     H15 8571   2.359   0.822   3.607  0.2462  0.6718  1.6349
  373DG     H16 8572   2.267   0.972   3.638 -0.2266  0.0438 -0.1121
  373DG     C17 8573   2.136   0.984   3.248  0.0755 -0.6020  0.4157
  373DG     C18 8574   2.284   0.925   3.426 -0.6698 -0.4381  0.2075
  373DG     O19 8575   2.159   0.982   3.392  0.1043  0.1354 -0.7004
  373DG     H20 8576   2.223   1.036   3.208  0.2246 -0.7734  0.5154
  373DG     H21 8577   2.123   0.887   3.199  3.0315 -1.0829  0.3839
  373DG     H22 8578   2.368   0.989   3.399 -0.9934 -0.8495 -1.9078
  373DG     H23 8579   2.291   0.833   3.367 -1.9685 -1.1585  1.1258
  374DG      C1 8580   2.312   4.909   3.187 -0.5699 -0.1564  0.0487
  374DG      C2 8581   2.863   5.521   2.765 -0.4488 -0.3646  0.0753
  374DG      H3 8582   2.259   4.969   3.261 -2.7233 -1.4030 -0.3957
  374DG      H4 8583   2.399   4.860   3.231 -0.8253 -0.7673 -0.1257
  374DG      H5 8584   2.242   4.837   3.146  0.6321 -1.1306 -0.3618
  374DG      H6 8585   2.852   5.603   2.836 -0.3713  0.9304 -1.3473
  374DG      H7 8586   2.960   5.534   2.716  0.8447 -1.0085  2.3298
  374DG      H8 8587   2.780   5.522   2.694  0.7660  2.3215 -1.4800
  374DG      O9 8588   2.370   4.990   3.078  0.6133 -0.3009 -0.7665
  374DG     O10 8589   2.871   5.403   2.839  0.0025  0.4482  0.3635
  374DG     C11 8590   2.468   5.084   3.121  0.1100  0.1425  0.0747
  374DG     C12 8591   2.752   5.366   2.905  0.6172 -0.1324  0.0822
  374DG     H13 8592   2.525   5.032   3.197 -1.8103 -1.6319  0.3931
  374DG     H14 8593   2.417   5.160   3.180 -1.0918 -0.8122  0.3236
  374DG     H15 8594   2.670   5.362   2.833 -0.2679 -0.6954  1.1051
  374DG     H16 8595   2.721   5.436   2.982 -0.5967 -0.0578 -0.4517
  374DG     C17 8596   2.553   5.130   3.005  0.2379  0.0435  0.5917
  374DG     C18 8597   2.774   5.224   2.966  0.8453  0.4069 -1.0071
  374DG     O19 8598   2.670   5.187   3.058 -0.0574  0.2241 -0.3349
  374DG     H20 8599   2.496   5.197   2.940  1.6202  2.2012  1.4861
  374DG     H21 8600   2.586   5.047   2.942  0.6163  0.8463 -0.3089
  374DG     H22 8601   2.795   5.144   2.895  0.1176  0.8213 -1.7070
  374DG     H23 8602   2.858   5.229   3.036 -0.6383 -3.1799  1.2956
  375DG      C1 8603   5.046   1.561   2.925  0.5912 -0.4309  0.1007
  375DG      C2 8604   5.792   1.407   2.784 -0.4960 -0.2069 -0.2539
  375DG      H3 8605   5.016   1.543   2.822  0.0153  1.8112 -0.1704
  375DG      H4 8606   4.987   1.646   2.960 -0.0547 -0.2598 -1.3000
  375DG      H5 8607   5.020   1.465   2.969  1.1627 -1.8025 -2.3501
  375DG      H6 8608   5.710   1.355   2.834 -2.5373  1.6175 -1.5369
  375DG      H7 8609   5.872   1.340   2.753 -1.2000 -1.1522 -0.0606
  375DG      H8 8610   5.832   1.471   2.863  2.2529  0.3704 -1.9733
  375DG      O9 8611   5.178   1.588   2.947 -0.2894  0.1751  0.1058
  375DG     O10 8612   5.739   1.488   2.685 -0.2339 -0.4825  0.3335
  375DG     C11 8613   5.211   1.716   2.886 -0.9118 -0.4307 -0.4763
  375DG     C12 8614   5.597   1.506   2.685  0.0328  0.2382  0.1782
  375DG     H13 8615   5.168   1.793   2.950  2.0664  1.9448 -1.1285
  375DG     H14 8616   5.183   1.748   2.786 -2.6911 -0.0997  0.0952
  375DG     H15 8617   5.553   1.408   2.702  1.5870 -0.8353 -1.6417
  375DG     H16 8618   5.553   1.529   2.588  0.6532 -2.4393 -0.8326
  375DG     C17 8619   5.365   1.724   2.878 -0.4067  0.8046 -0.5118
  375DG     C18 8620   5.560   1.619   2.775 -0.3865 -0.2230  0.0127
  375DG     O19 8621   5.419   1.629   2.787 -0.1844  0.7581 -0.0158
  375DG     H20 8622   5.407   1.705   2.977 -0.4469  3.0340 -0.0132
  375DG     H21 8623   5.396   1.827   2.864 -0.9557  0.8700 -1.3086
  375DG     H22 8624   5.600   1.599   2.875 -0.8911 -1.6559 -0.0437
  375DG     H23 8625   5.596   1.709   2.726 -0.1854  1.1811  2.5534
  376DG      C1 8626   0.870   2.963   2.339  0.0858  0.1877 -0.5483
  376DG      C2 8627   0.141   2.630   2.039  0.0255  0.2577 -0.1089
  376DG      H3 8628   0.851   3.004   2.438  2.6172  0.9549 -0.3110
  376DG      H4 8629   0.832   3.036   2.267  1.9128  0.0169 -1.7534
  376DG      H5 8630   0.977   2.951   2.323  0.6753 -0.1881  2.8595
  376DG      H6 8631   0.154   2.646   1.932 -0.0206 -0.3112 -0.1995
  376DG      H7 8632   0.118   2.526   2.058  1.7907 -0.2680 -0.6219
  376DG      H8 8633   0.054   2.681   2.080 -2.5935 -2.4171 -1.9352
  376DG      O9 8634   0.806   2.837   2.314 -0.0759  0.0991  0.4960
  376DG     O10 8635   0.270   2.659   2.092  0.0404 -0.0606 -0.0673
  376DG     C11 8636   0.673   2.839   2.274  0.0830  0.1975  0.3917
  376DG     C12 8637   0.269   2.644   2.235 -0.1505  1.2229 -0.2255
  376DG     H13 8638   0.657   2.886   2.177 -1.3155 -2.0074 -0.5016
  376DG     H14 8639   0.614   2.878   2.357  0.7411 -0.9613  1.4384
  376DG     H15 8640   0.246   2.541   2.261  0.1815  1.3227  0.4667
  376DG     H16 8641   0.190   2.706   2.278 -0.8060  0.3865 -0.1844
  376DG     C17 8642   0.642   2.691   2.249  0.1961  0.9026 -0.6799
  376DG     C18 8643   0.399   2.690   2.296 -0.4675  0.2614 -0.2717
  376DG     O19 8644   0.508   2.672   2.203  0.8335 -0.1629 -0.2201
  376DG     H20 8645   0.662   2.640   2.343 -2.0081  0.0688 -0.6085
  376DG     H21 8646   0.710   2.652   2.173  0.4148 -0.8413  0.3667
  376DG     H22 8647   0.397   2.794   2.329  1.9268 -0.4483  2.4797
  376DG     H23 8648   0.421   2.626   2.382  2.4169 -0.3750 -1.3615
  377DG      C1 8649   0.761   2.537   5.075 -0.0771  0.1726 -0.3072
  377DG      C2 8650   0.127   2.718   5.162  0.3777  0.1324  0.6698
  377DG      H3 8651   0.722   2.435   5.080 -0.1883  0.2428  0.3380
  377DG      H4 8652   0.768   2.566   5.180  0.0108  0.2509 -0.3346
  377DG      H5 8653   0.866   2.545   5.046 -0.1148  0.7818 -0.2943
  377DG      H6 8654   0.067   2.799   5.204  1.0205  0.5467  0.8223
  377DG      H7 8655   0.074   2.627   5.137  1.0300  0.0423 -0.4154
  377DG      H8 8656   0.195   2.692   5.244 -1.1609 -2.6401  1.1934
  377DG      O9 8657   0.681   2.625   5.005  0.0856  0.0993  0.0060
  377DG     O10 8658   0.199   2.758   5.049 -0.1409  0.3142  0.0986
  377DG     C11 8659   0.710   2.765   5.029 -0.0180 -0.3816 -0.3099
  377DG     C12 8660   0.241   2.894   5.058  0.0004 -0.1013  0.2345
  377DG     H13 8661   0.809   2.793   4.994 -0.3711  0.5610 -0.5752
  377DG     H14 8662   0.704   2.776   5.138 -4.4205 -4.1775  0.1842
  377DG     H15 8663   0.255   2.931   5.159 -2.2389  1.9976 -0.1340
  377DG     H16 8664   0.168   2.963   5.015  2.5642  2.5597 -0.1849
  377DG     C17 8665   0.598   2.852   4.969 -0.5267 -0.0261 -0.4042
  377DG     C18 8666   0.367   2.911   4.976 -0.7080 -0.1447 -0.0685
  377DG     O19 8667   0.471   2.821   5.026  0.0488  0.0731  0.3057
  377DG     H20 8668   0.600   2.839   4.861 -0.9194  1.5825 -0.6265
  377DG     H21 8669   0.617   2.958   4.981  0.5288 -0.1139 -1.1626
  377DG     H22 8670   0.348   2.898   4.869  2.4756 -2.5644 -0.4848
  377DG     H23 8671   0.402   3.015   4.980  0.6854 -0.5867 -0.1372
  378DG      C1 8672   2.120   3.403   1.776 -0.8605  0.2299  0.2240
  378DG      C2 8673   2.350   3.661   1.917 -0.5023 -0.3050  0.1554
  378DG      H3 8674   2.184   3.458   1.845  0.0653 -0.2002 -0.2648
  378DG      H4 8675   2.158   3.301   1.767 -0.6059  0.4288 -1.3665
  378DG      H5 8676   2.020   3.401   1.819 -1.0135 -1.3804 -0.1613
  378DG      H6 8677   2.256   3.710   1.892 -0.0114 -0.9963 -3.6253
  378DG      H7 8678   2.350   3.576   1.985  0.6478  0.4073  1.0873
  378DG      H8 8679   2.393   3.737   1.982  0.5908  0.7361 -1.6928
  378DG      O9 8680   2.127   3.460   1.646  0.5864 -0.1896 -0.1893
  378DG     O10 8681   2.428   3.628   1.799  0.1768 -0.4858  0.2719
  378DG     C11 8682   2.076   3.592   1.640  0.2698 -0.5593 -0.6730
  378DG     C12 8683   2.446   3.748   1.724  0.0267  0.9747 -0.0378
  378DG     H13 8684   2.079   3.650   1.732  0.3196 -1.7802  0.1315
  378DG     H14 8685   1.968   3.583   1.628  0.0230 -1.3322  1.5785
  378DG     H15 8686   2.531   3.733   1.657  0.1142 -0.8206  0.4101
  378DG     H16 8687   2.480   3.838   1.775 -0.9719  1.3060  0.0588
  378DG     C17 8688   2.149   3.663   1.523 -0.4829 -0.2564 -0.1773
  378DG     C18 8689   2.323   3.784   1.635  0.1337 -0.5743  0.6268
  378DG     O19 8690   2.285   3.680   1.549 -0.3582 -0.6048  0.0295
  378DG     H20 8691   2.090   3.750   1.496  0.1879 -0.1255 -1.2685
  378DG     H21 8692   2.134   3.596   1.438 -1.2932 -0.3151  0.0019
  378DG     H22 8693   2.237   3.823   1.689  0.1350 -0.9143  0.8776
  378DG     H23 8694   2.341   3.870   1.570  0.3725 -0.7656  0.4380
  379DG      C1 8695   2.646   3.760   0.925 -0.6780 -0.1984  0.1691
  379DG      C2 8696   2.334   4.101   1.381  0.1883  0.1863 -0.3075
  379DG      H3 8697   2.727   3.788   0.993 -0.0496 -0.4233 -0.4693
  379DG      H4 8698   2.639   3.844   0.855 -1.7639  2.2487  3.0053
  379DG      H5 8699   2.668   3.669   0.869 -2.4277 -0.9775  0.6960
  379DG      H6 8700   2.441   4.106   1.403  0.4672  1.4283 -1.7644
  379DG      H7 8701   2.310   4.196   1.334 -1.3754 -0.2146 -0.3644
  379DG      H8 8702   2.274   4.089   1.471 -0.3779 -0.4226 -0.7568
  379DG      O9 8703   2.525   3.748   0.998  0.3743  0.4510 -0.8297
  379DG     O10 8704   2.322   3.981   1.303 -0.2624 -0.2738  0.0021
  379DG     C11 8705   2.410   3.756   0.918  0.5724  0.4333  0.1782
  379DG     C12 8706   2.189   3.967   1.259 -0.0125  0.7455 -0.6347
  379DG     H13 8707   2.404   3.683   0.837 -1.1937 -0.1252  0.7803
  379DG     H14 8708   2.420   3.846   0.857  2.2020  0.5035  0.4988
  379DG     H15 8709   2.169   4.062   1.209  2.9195  1.7785 -0.0566
  379DG     H16 8710   2.118   3.967   1.342  1.8151  1.2042  1.0017
  379DG     C17 8711   2.282   3.735   0.997 -0.4526 -0.1247  0.3939
  379DG     C18 8712   2.169   3.852   1.162  0.0683  0.6975 -0.5297
  379DG     O19 8713   2.276   3.854   1.071 -0.5771  0.0116  0.4959
  379DG     H20 8714   2.298   3.656   1.070  2.8858  1.5370  1.6701
  379DG     H21 8715   2.189   3.719   0.942 -1.3438  0.5152  1.6761
  379DG     H22 8716   2.157   3.760   1.219  1.6705 -0.4792 -1.9946
  379DG     H23 8717   2.075   3.872   1.110 -0.6776  0.7572  0.8040
  380DG      C1 8718   2.209   0.174   0.461  0.3494 -0.1585  0.6304
  380DG      C2 8719   2.120   0.817   0.174 -0.6035  0.0263  0.5333
  380DG      H3 8720   2.117   0.154   0.407  1.3231 -2.1317 -0.3589
  380DG      H4 8721   2.178   0.193   0.564  0.6812  1.8022  0.4105
  380DG      H5 8722   2.270   0.085   0.456  1.0822  0.0076  4.1147
  380DG      H6 8723   2.066   0.760   0.098 -0.6721  0.6408  0.1140
  380DG      H7 8724   2.046   0.821   0.254 -0.4249 -2.5886  0.9337
  380DG      H8 8725   2.144   0.916   0.135  0.2175  0.1144  1.2378
  380DG      O9 8726   2.263   0.294   0.413  0.0716  0.2471 -0.1391
  380DG     O10 8727   2.221   0.725   0.211 -0.1346  0.3210  0.1503
  380DG     C11 8728   2.396   0.318   0.460 -0.2052 -0.3578 -0.0426
  380DG     C12 8729   2.310   0.776   0.301  0.3852  0.6241  0.3611
  380DG     H13 8730   2.456   0.232   0.430  0.6429  1.0164 -2.5667
  380DG     H14 8731   2.404   0.329   0.568  1.6141 -0.4354 -0.1360
  380DG     H15 8732   2.255   0.796   0.393  0.6701 -0.1461  0.7100
  380DG     H16 8733   2.362   0.864   0.264  2.5387 -1.0890 -0.8935
  380DG     C17 8734   2.453   0.436   0.384 -0.5245 -0.0461 -0.7100
  380DG     C18 8735   2.422   0.664   0.314 -0.2844  0.4966 -0.3451
  380DG     O19 8736   2.368   0.546   0.357 -0.4577 -0.1314  0.3817
  380DG     H20 8737   2.493   0.391   0.294 -0.0637  0.0261 -0.5454
  380DG     H21 8738   2.542   0.480   0.430 -0.4454 -0.1364 -0.7753
  380DG     H22 8739   2.493   0.658   0.231  0.2076 -0.1986  0.1203
  380DG     H23 8740   2.484   0.702   0.395 -1.1173  2.3532 -0.5120
  381DG      C1 8741   1.893   2.468   3.067 -0.3903  0.5762  0.1382
  381DG      C2 8742   1.772   2.671   3.693 -0.1404  0.6151 -0.0901
  381DG      H3 8743   1.906   2.507   2.966 -0.1550 -1.1286 -0.5325
  381DG      H4 8744   1.845   2.371   3.079 -0.2111  0.4388 -0.2401
  381DG      H5 8745   1.996   2.464   3.103  0.2579  0.8313 -1.5850
  381DG      H6 8746   1.873   2.635   3.670 -0.2765  0.3447 -0.2599
  381DG      H7 8747   1.766   2.768   3.742 -2.3519  1.0626 -1.1325
  381DG      H8 8748   1.730   2.595   3.758 -0.7341  1.1938  0.2166
  381DG      O9 8749   1.822   2.556   3.153  0.0574  0.4110  0.0495
  381DG     O10 8750   1.705   2.684   3.566  0.1492  0.0627 -0.3097
  381DG     C11 8751   1.697   2.600   3.093  0.2836 -0.4513  0.0110
  381DG     C12 8752   1.569   2.666   3.563  0.2119  0.1639  0.2217
  381DG     H13 8753   1.631   2.519   3.065  0.8370 -1.9338  2.6546
  381DG     H14 8754   1.715   2.650   2.998  1.8362 -1.6639 -0.3858
  381DG     H15 8755   1.520   2.726   3.640  1.9108 -0.3404  1.7872
  381DG     H16 8756   1.544   2.560   3.571 -0.7085  0.3730  0.2224
  381DG     C17 8757   1.614   2.699   3.185  0.7681  0.8981 -0.6537
  381DG     C18 8758   1.528   2.699   3.413 -0.2376 -0.0041 -0.6136
  381DG     O19 8759   1.625   2.644   3.320  0.1688 -0.1889 -0.2507
  381DG     H20 8760   1.510   2.697   3.152  0.1864 -1.6557  0.9736
  381DG     H21 8761   1.647   2.802   3.181  1.8858  0.7805  2.6989
  381DG     H22 8762   1.428   2.669   3.383 -0.6157 -1.7795  2.1061
  381DG     H23 8763   1.535   2.808   3.408  1.5591 -0.1154 -1.1509
  382DG      C1 8764   0.391   1.688   0.309  0.2619 -0.2288  0.5322
  382DG      C2 8765  -0.262   1.555  -0.052  0.5112 -0.1776  0.1309
  382DG      H3 8766   0.400   1.788   0.350 -2.9165  1.3224 -2.1384
  382DG      H4 8767   0.494   1.655   0.290  0.5962  0.6676  0.7215
  382DG      H5 8768   0.337   1.617   0.371 -1.5760 -0.1396 -0.8973
  382DG      H6 8769  -0.347   1.587   0.009 -0.3868 -0.3546 -0.9920
  382DG      H7 8770  -0.293   1.519  -0.150  1.7669  1.0285 -0.7423
  382DG      H8 8771  -0.212   1.481   0.010 -1.0260 -0.6813  0.8348
  382DG      O9 8772   0.330   1.707   0.182  0.2427  0.1229 -0.5871
  382DG     O10 8773  -0.175   1.660  -0.071 -0.0809 -0.8716 -0.3315
  382DG     C11 8774   0.308   1.588   0.102  0.1491  0.5212 -0.0451
  382DG     C12 8775  -0.062   1.638  -0.157 -0.3296 -0.0752  0.1934
  382DG     H13 8776   0.239   1.521   0.154  1.8964 -0.6831  0.8266
  382DG     H14 8777   0.406   1.542   0.087  1.3027  2.4505  1.0281
  382DG     H15 8778  -0.076   1.648  -0.265 -1.9516  0.2048  0.4132
  382DG     H16 8779  -0.022   1.538  -0.141 -1.0688 -0.2924  0.7301
  382DG     C17 8780   0.239   1.631  -0.033 -0.6152 -0.4633 -0.0290
  382DG     C18 8781   0.048   1.744  -0.123 -0.5616 -0.3220 -0.4061
  382DG     O19 8782   0.127   1.719  -0.008 -0.2388  0.6200 -0.0996
  382DG     H20 8783   0.204   1.540  -0.082 -0.5830 -0.3761 -0.2119
  382DG     H21 8784   0.310   1.683  -0.097 -1.9663 -0.7831 -1.8501
  382DG     H22 8785   0.122   1.744  -0.204 -0.7885  1.3776 -0.6465
  382DG     H23 8786   0.016   1.847  -0.115 -1.0331 -0.5735  1.5206
  383DG      C1 8787   0.150   0.042   1.145 -0.1485  0.5111 -0.0044
  383DG      C2 8788  -0.509   0.263   0.930  0.6596 -0.4718 -0.1409
  383DG      H3 8789   0.131  -0.060   1.176  1.7059 -0.1003 -0.7642
  383DG      H4 8790   0.222   0.092   1.210 -0.8949 -0.3211  1.5084
  383DG      H5 8791   0.185   0.030   1.043 -1.5422  1.4761 -0.6293
  383DG      H6 8792  -0.419   0.322   0.916  2.1418 -2.1752  1.5719
  383DG      H7 8793  -0.540   0.232   0.830  1.7853 -0.5299 -0.4776
  383DG      H8 8794  -0.594   0.318   0.971  1.1714 -0.5051  1.0061
  383DG      O9 8795   0.027   0.110   1.163  0.0887  0.0632  1.0690
  383DG     O10 8796  -0.463   0.152   1.012  0.2025 -0.6013 -0.7878
  383DG     C11 8797   0.035   0.232   1.087 -0.1598 -0.1512 -0.7403
  383DG     C12 8798  -0.421   0.177   1.144  0.1027  0.2238  0.3862
  383DG     H13 8799   0.025   0.202   0.983 -0.9846 -2.0493 -0.1508
  383DG     H14 8800   0.125   0.290   1.108  0.1450 -0.7048 -0.5101
  383DG     H15 8801  -0.468   0.101   1.206 -1.3031  0.8260  0.0959
  383DG     H16 8802  -0.455   0.276   1.175 -0.2276  0.2817 -0.1485
  383DG     C17 8803  -0.081   0.327   1.125  0.3773 -0.2625 -0.2106
  383DG     C18 8804  -0.270   0.169   1.154 -0.3628 -0.3075  0.6928
  383DG     O19 8805  -0.207   0.280   1.082  0.2896  0.0046  0.0913
  383DG     H20 8806  -0.074   0.423   1.074  0.8346 -0.0633  0.2202
  383DG     H21 8807  -0.074   0.361   1.228 -0.8807  2.6632 -1.0018
  383DG     H22 8808  -0.240   0.169   1.259  0.2323 -2.7289  0.5902
  383DG     H23 8809  -0.223   0.081   1.108 -0.5122  0.2970 -0.6546
  384DG      C1 8810   2.998   2.544   4.687 -0.4517  0.2518  0.6165
  384DG      C2 8811   3.140   2.821   4.146 -0.3703  0.9944 -0.4642
  384DG      H3 8812   3.024   2.466   4.616  0.9541  0.4275  0.9171
  384DG      H4 8813   2.946   2.493   4.768 -0.0865 -0.0270  0.6761
  384DG      H5 8814   3.087   2.594   4.726 -0.3592  0.4462  0.1553
  384DG      H6 8815   3.247   2.810   4.163 -0.5017  1.5540  0.8508
  384DG      H7 8816   3.109   2.722   4.110  1.6172 -0.3143  1.1643
  384DG      H8 8817   3.119   2.887   4.062  1.0664  0.6474 -1.1185
  384DG      O9 8818   2.924   2.643   4.618  0.3303  0.5587  0.2779
  384DG     O10 8819   3.059   2.869   4.256 -0.4974  0.4448 -0.3911
  384DG     C11 8820   2.876   2.757   4.697 -0.4536 -0.2928  0.1943
  384DG     C12 8821   2.927   2.888   4.239  1.5650  0.2519  0.3540
  384DG     H13 8822   2.950   2.813   4.754 -0.1218 -0.1770 -0.3467
  384DG     H14 8823   2.808   2.711   4.770 -0.9964 -2.6764 -1.6876
  384DG     H15 8824   2.880   2.794   4.211  1.5985  0.2797  0.2055
  384DG     H16 8825   2.916   2.972   4.171 -1.7539  0.0043  0.4157
  384DG     C17 8826   2.818   2.863   4.598  0.3818  0.6390  0.7486
  384DG     C18 8827   2.851   2.937   4.367  0.1275  0.1686  0.3713
  384DG     O19 8828   2.894   2.853   4.475  0.0356 -0.0490  0.6280
  384DG     H20 8829   2.830   2.965   4.635 -2.0393  1.2136  0.1299
  384DG     H21 8830   2.713   2.845   4.575  0.9914 -1.9944 -0.2853
  384DG     H22 8831   2.904   3.025   4.404 -0.5009  0.5502  0.3738
  384DG     H23 8832   2.743   2.950   4.357  0.0788 -0.1908  0.4281
  385DG      C1 8833   5.156   2.578   2.681  0.8877  0.1120  0.8340
  385DG      C2 8834   5.136   2.003   2.578  0.8604  0.0651  0.3314
  385DG      H3 8835   5.126   2.634   2.769  1.7424  0.0658  1.1597
  385DG      H4 8836   5.182   2.647   2.601 -1.2473  0.4326  0.3429
  385DG      H5 8837   5.258   2.550   2.708  1.3280  1.6994  0.9638
  385DG      H6 8838   5.058   1.932   2.609  0.9213  0.5047  1.5552
  385DG      H7 8839   5.195   1.938   2.514 -0.7457 -1.7499  0.5902
  385DG      H8 8840   5.186   2.027   2.672  1.0760  0.0916  0.2108
  385DG      O9 8841   5.067   2.472   2.648 -0.1653  0.3369 -0.2393
  385DG     O10 8842   5.096   2.119   2.503  0.5584 -0.1914  0.0813
  385DG     C11 8843   4.943   2.518   2.588  0.7907  0.4592 -0.1410
  385DG     C12 8844   4.971   2.109   2.433  0.4037  0.0520  0.3716
  385DG     H13 8845   4.952   2.602   2.520 -0.4518  2.5757  2.1793
  385DG     H14 8846   4.865   2.542   2.660  0.2992  1.0830 -0.8603
  385DG     H15 8847   4.895   2.094   2.510  0.5112 -0.7836  0.3294
  385DG     H16 8848   4.954   2.030   2.360 -0.8540  2.0553 -1.6228
  385DG     C17 8849   4.890   2.398   2.506 -0.4978  0.9849 -0.6358
  385DG     C18 8850   4.948   2.240   2.346 -0.0258 -0.0025 -0.1115
  385DG     O19 8851   4.991   2.359   2.417 -0.3441  0.2426 -0.0956
  385DG     H20 8852   4.799   2.424   2.453 -1.4029  0.0939  0.4286
  385DG     H21 8853   4.867   2.314   2.572  1.0618  0.5714 -0.5613
  385DG     H22 8854   5.019   2.245   2.263  0.9433  1.4281  0.7566
  385DG     H23 8855   4.843   2.251   2.321 -0.3576  1.1933  1.6057
  386DG      C1 8856   4.090   3.482   5.435 -0.1832  0.0935  1.3446
  386DG      C2 8857   4.680   3.129   5.782 -0.3225  0.0275  0.0756
  386DG      H3 8858   4.146   3.573   5.414 -1.9831  1.1488  0.8448
  386DG      H4 8859   3.985   3.511   5.427  0.0839  1.6915  2.8812
  386DG      H5 8860   4.105   3.398   5.367 -2.5692  0.4121  0.3005
  386DG      H6 8861   4.761   3.123   5.855 -1.0080 -0.4032  0.8127
  386DG      H7 8862   4.698   3.040   5.722  2.7954 -0.3465  1.3899
  386DG      H8 8863   4.692   3.214   5.714  1.6594  0.0927  0.4671
  386DG      O9 8864   4.104   3.431   5.563  0.2957  0.4786  0.0746
  386DG     O10 8865   4.558   3.124   5.848 -0.2650  0.5468  0.1228
  386DG     C11 8866   4.233   3.386   5.596  0.2001 -0.3602 -0.2558
  386DG     C12 8867   4.535   3.248   5.921  0.1330 -0.7108  0.6900
  386DG     H13 8868   4.305   3.465   5.574  1.7732 -2.3045 -2.4988
  386DG     H14 8869   4.255   3.294   5.544  2.6416  0.1246 -0.1818
  386DG     H15 8870   4.604   3.332   5.914 -2.4150  1.4516  0.0408
  386DG     H16 8871   4.556   3.215   6.023  0.9858 -0.5812  0.5689
  386DG     C17 8872   4.234   3.348   5.745 -0.2622  0.0982  0.6216
  386DG     C18 8873   4.391   3.283   5.902 -0.5911 -0.5180  0.1352
  386DG     O19 8874   4.366   3.324   5.769  0.8457  0.7826  0.4797
  386DG     H20 8875   4.173   3.258   5.757 -3.5211  2.3167  2.1083
  386DG     H21 8876   4.198   3.427   5.812  1.7446  1.0354  0.6536
  386DG     H22 8877   4.321   3.209   5.940 -0.0526  0.5763  3.6084
  386DG     H23 8878   4.393   3.377   5.958 -3.2798 -0.0767 -0.3928
  387DG      C1 8879   1.481   2.799   2.575  0.4850 -0.0831  0.1897
  387DG      C2 8880   0.972   2.399   2.783 -0.0493  0.1351 -0.5228
  387DG      H3 8881   1.517   2.874   2.644 -0.1771  0.0581  0.3858
  387DG      H4 8882   1.477   2.837   2.473 -1.5217  1.2375  0.6904
  387DG      H5 8883   1.541   2.708   2.582  0.0158 -0.3813  0.3920
  387DG      H6 8884   0.905   2.320   2.749 -2.1114  1.9980 -1.0083
  387DG      H7 8885   1.046   2.353   2.848 -0.8978  0.2609  0.5541
  387DG      H8 8886   0.915   2.471   2.842  2.3805  1.2483  0.5875
  387DG      O9 8887   1.354   2.750   2.607 -0.7863  0.2160 -0.6947
  387DG     O10 8888   1.036   2.468   2.672  0.4139 -0.0982 -0.2577
  387DG     C11 8889   1.248   2.842   2.582 -0.0537 -0.1218 -0.0432
  387DG     C12 8890   0.943   2.514   2.574  0.2936  0.8551 -0.0495
  387DG     H13 8891   1.266   2.911   2.499  0.6774  0.1710  0.3453
  387DG     H14 8892   1.246   2.910   2.668  0.8219  0.9964 -0.8631
  387DG     H15 8893   0.878   2.594   2.611 -0.3439 -0.9856  3.2028
  387DG     H16 8894   0.880   2.430   2.547  2.9573 -1.1349 -0.5153
  387DG     C17 8895   1.108   2.766   2.567 -0.4200 -0.1053 -0.2119
  387DG     C18 8896   1.008   2.576   2.451 -0.2337 -0.2151 -0.6206
  387DG     O19 8897   1.122   2.658   2.481  0.2917  0.3795 -0.2179
  387DG     H20 8898   1.035   2.833   2.520 -0.3781 -0.0544 -0.2053
  387DG     H21 8899   1.082   2.716   2.661 -0.3158  0.7937  0.3143
  387DG     H22 8900   1.042   2.489   2.395 -1.0041 -2.6013  2.3388
  387DG     H23 8901   0.932   2.627   2.391 -0.2614  0.7429  0.1980
  388DG      C1 8902   1.028   1.901   1.408 -0.2043 -0.3132  0.1974
  388DG      C2 8903   0.869   1.037   1.581 -1.1128 -0.0273  0.3625
  388DG      H3 8904   1.002   1.939   1.507 -0.5241  0.2553 -0.1006
  388DG      H4 8905   0.986   1.968   1.333  0.7741  0.9458  0.7429
  388DG      H5 8906   1.134   1.923   1.399 -0.0714 -0.4271  1.3307
  388DG      H6 8907   0.840   0.945   1.531  2.5011 -1.2012  0.2080
  388DG      H7 8908   0.977   1.042   1.569 -1.2590 -0.1017 -1.1146
  388DG      H8 8909   0.834   1.025   1.684  1.0738 -0.4737  1.0910
  388DG      O9 8910   0.990   1.767   1.404  0.9782 -0.1500 -0.2115
  388DG     O10 8911   0.821   1.149   1.514 -0.8194  0.2345  0.3547
  388DG     C11 8912   0.850   1.742   1.423  0.6044  0.0161 -0.0942
  388DG     C12 8913   0.862   1.275   1.564  0.0184 -0.3698 -0.3619
  388DG     H13 8914   0.803   1.814   1.356 -0.6493  1.2527  1.9857
  388DG     H14 8915   0.823   1.762   1.527 -1.3924  0.1298 -0.5795
  388DG     H15 8916   0.970   1.290   1.560  0.1463  1.2350  4.0559
  388DG     H16 8917   0.835   1.292   1.668 -0.5289 -0.4230 -0.4918
  388DG     C17 8918   0.806   1.604   1.387  0.6100  0.9446  0.0733
  388DG     C18 8919   0.796   1.377   1.470 -0.2098 -0.3041  0.1147
  388DG     O19 8920   0.853   1.504   1.471 -0.3066  1.0451 -0.0264
  388DG     H20 8921   0.837   1.574   1.287  2.4824 -1.3149  1.2287
  388DG     H21 8922   0.698   1.600   1.402  1.0130 -2.7132  3.5661
  388DG     H22 8923   0.811   1.348   1.366  0.1149  0.2394  0.0064
  388DG     H23 8924   0.689   1.394   1.487  0.4604  2.5701  2.1285
  389DG      C1 8925   0.873   2.518   3.245 -0.3411 -0.1533  0.1197
  389DG      C2 8926   0.267   2.659   3.451 -0.3763  0.0183 -0.3126
  389DG      H3 8927   0.844   2.423   3.200  1.0352  0.4867 -2.2915
  389DG      H4 8928   0.912   2.515   3.347  2.6405 -0.5020 -0.9447
  389DG      H5 8929   0.962   2.543   3.188 -1.2820  0.4206 -1.1508
  389DG      H6 8930   0.178   2.712   3.418 -0.2761 -0.9413 -2.3085
  389DG      H7 8931   0.240   2.554   3.437 -0.3849 -0.0141 -0.0501
  389DG      H8 8932   0.286   2.675   3.557 -0.4493  0.0108 -0.2981
  389DG      O9 8933   0.762   2.602   3.225  0.2504 -0.0400  0.4002
  389DG     O10 8934   0.373   2.693   3.364 -0.3636 -0.5131 -0.0102
  389DG     C11 8935   0.805   2.717   3.156  0.3952 -0.9282 -0.4338
  389DG     C12 8936   0.403   2.833   3.368  0.3585 -0.1956 -0.3073
  389DG     H13 8937   0.857   2.698   3.062 -0.0389 -3.2281 -0.2600
  389DG     H14 8938   0.878   2.771   3.217 -1.4022  1.2554 -0.0594
  389DG     H15 8939   0.448   2.852   3.466  0.0767 -1.0411 -0.0109
  389DG     H16 8940   0.307   2.884   3.364  1.4425  2.0347  0.2483
  389DG     C17 8941   0.686   2.812   3.135 -0.4571  0.3314 -0.5815
  389DG     C18 8942   0.495   2.873   3.257  0.1416  0.1303  0.2191
  389DG     O19 8943   0.607   2.790   3.252 -0.2858  0.0062 -0.8559
  389DG     H20 8944   0.642   2.782   3.040 -0.3871  1.2796 -0.9221
  389DG     H21 8945   0.705   2.918   3.124  0.9903  0.1647  0.0491
  389DG     H22 8946   0.438   2.881   3.165 -0.4391  0.5840  0.6062
  389DG     H23 8947   0.523   2.975   3.281  1.0269 -0.5904  2.5292
  390DG      C1 8948   1.358   2.058   1.985 -0.1287 -0.6829 -0.2740
  390DG      C2 8949   1.783   2.721   2.470 -0.7754  0.4186 -0.5369
  390DG      H3 8950   1.264   2.028   1.939  0.2970  0.1516 -1.7574
  390DG      H4 8951   1.361   2.022   2.088  2.0554 -0.4108 -0.1805
  390DG      H5 8952   1.446   2.007   1.946  2.6077  1.5273  2.4215
  390DG      H6 8953   1.890   2.730   2.457 -0.2285 -2.0103  1.5376
  390DG      H7 8954   1.741   2.816   2.501 -0.3236  0.1990  0.7820
  390DG      H8 8955   1.772   2.645   2.548  0.5612  0.0052 -0.7364
  390DG      O9 8956   1.379   2.198   1.986 -0.3378  0.2763  0.0110
  390DG     O10 8957   1.707   2.693   2.355 -0.0104  0.1859 -0.5441
  390DG     C11 8958   1.501   2.229   2.040 -0.0796 -0.2724 -0.9788
  390DG     C12 8959   1.735   2.570   2.300 -0.1602  0.1432  0.3043
  390DG     H13 8960   1.586   2.224   1.972 -0.2222 -0.0590 -1.1769
  390DG     H14 8961   1.522   2.162   2.123 -0.9593 -0.3793 -0.8363
  390DG     H15 8962   1.718   2.492   2.374 -0.5373  0.3818  0.4760
  390DG     H16 8963   1.835   2.563   2.257 -0.4257  1.2553 -0.5464
  390DG     C17 8964   1.504   2.369   2.099  0.2055 -0.4123 -0.1296
  390DG     C18 8965   1.626   2.544   2.197  0.8043 -0.0093  0.7452
  390DG     O19 8966   1.631   2.410   2.144  0.1404  0.2329 -0.5720
  390DG     H20 8967   1.424   2.361   2.173 -0.1831 -2.4470 -0.7077
  390DG     H21 8968   1.461   2.437   2.025 -0.5730 -1.4206 -0.6260
  390DG     H22 8969   1.522   2.558   2.229  0.0877  0.1642 -1.4670
  390DG     H23 8970   1.635   2.598   2.103  0.0795 -0.2742  0.5106
  391DG      C1 8971   4.535   0.391   4.202  0.0913  0.1052 -0.0091
  391DG      C2 8972   4.781  -0.190   3.733 -0.1836  0.3693 -0.8167
  391DG      H3 8973   4.613   0.390   4.278 -0.1301  0.0089  0.2161
  391DG      H4 8974   4.457   0.324   4.235 -1.6399  0.7451 -2.5067
  391DG      H5 8975   4.499   0.494   4.196 -2.0902 -0.4557  2.0817
  391DG      H6 8976   4.713  -0.267   3.769  0.5393  0.2898  0.4538
  391DG      H7 8977   4.732  -0.094   3.719 -1.7534 -0.2573  0.1016
  391DG      H8 8978   4.825  -0.215   3.637  2.0914 -1.6216  0.6164
  391DG      O9 8979   4.588   0.342   4.081  0.0974 -0.6737  0.0156
  391DG     O10 8980   4.888  -0.182   3.828 -0.0622  0.5778 -0.3693
  391DG     C11 8981   4.616   0.199   4.079  0.6567  0.0383 -0.4402
  391DG     C12 8982   4.861  -0.163   3.966  0.3553 -0.2343 -1.2306
  391DG     H13 8983   4.524   0.145   4.057 -0.1215  0.9624  0.4043
  391DG     H14 8984   4.660   0.162   4.172 -0.7711  2.5976  1.3969
  391DG     H15 8985   4.935  -0.217   4.025 -1.3640 -0.5207  0.7711
  391DG     H16 8986   4.768  -0.207   4.002  0.7566  0.9024  1.3909
  391DG     C17 8987   4.721   0.185   3.977 -0.4951  0.0837  0.0780
  391DG     C18 8988   4.847  -0.020   4.018 -0.6797 -0.4056 -0.8343
  391DG     O19 8989   4.755   0.048   3.934  0.5776  0.2002 -0.0460
  391DG     H20 8990   4.817   0.221   4.015  0.7393 -2.7807 -0.0316
  391DG     H21 8991   4.691   0.245   3.891 -0.1227  2.2543  1.3839
  391DG     H22 8992   4.817  -0.015   4.122  1.8454  0.2671 -0.0798
  391DG     H23 8993   4.949   0.017   4.007  0.1879 -2.3790 -0.0250
  392DG      C1 8994   4.902   1.845   4.107  0.0206  0.3269  0.4390
  392DG      C2 8995   4.675   2.328   4.609  0.2084  0.8302  0.3673
  392DG      H3 8996   4.997   1.860   4.160  1.4782 -0.5859 -1.7622
  392DG      H4 8997   4.913   1.912   4.021  0.4713 -0.4469 -0.1173
  392DG      H5 8998   4.888   1.742   4.075  0.1017 -0.5344  2.9804
  392DG      H6 8999   4.691   2.251   4.684 -1.1516 -0.7409 -0.8786
  392DG      H7 9000   4.769   2.381   4.593 -0.7423  2.2118 -1.0087
  392DG      H8 9001   4.593   2.386   4.653 -1.1188 -1.7882  1.5980
  392DG      O9 9002   4.794   1.865   4.191  0.9335  0.1758 -0.0264
  392DG     O10 9003   4.633   2.262   4.491  0.2726  0.2236 -0.1694
  392DG     C11 9004   4.810   1.802   4.322  0.3792 -0.4524 -0.1177
  392DG     C12 9005   4.530   2.159   4.504  0.1483 -0.2984 -0.4208
  392DG     H13 9006   4.901   1.843   4.365  0.4887 -0.2125 -0.5695
  392DG     H14 9007   4.820   1.695   4.307  1.2040 -0.8102  2.4002
  392DG     H15 9008   4.469   2.158   4.413  0.1471 -2.7174 -0.4479
  392DG     H16 9009   4.448   2.182   4.573  0.2286 -1.4286  0.0687
  392DG     C17 9010   4.704   1.843   4.423  0.0496 -0.7417 -0.3470
  392DG     C18 9011   4.594   2.018   4.524  0.0524 -0.5082 -0.0273
  392DG     O19 9012   4.688   1.979   4.421 -0.0244 -0.3124 -0.3280
  392DG     H20 9013   4.726   1.809   4.524 -1.2188 -1.3194 -0.2470
  392DG     H21 9014   4.615   1.788   4.393  0.3312 -1.8116  0.6840
  392DG     H22 9015   4.650   2.026   4.618  0.6710 -1.7310 -0.2655
  392DG     H23 9016   4.512   1.949   4.547 -0.7058  0.6011  0.7369
  393DG      C1 9017   0.921   0.527   3.878 -0.2906 -0.2665  0.5049
  393DG      C2 9018   1.289  -0.132   4.230  0.1147 -0.1443  0.2823
  393DG      H3 9019   1.017   0.560   3.836 -0.7976 -1.8011 -2.0749
  393DG      H4 9020   0.898   0.598   3.957  1.3401 -0.8290  1.5463
  393DG      H5 9021   0.850   0.539   3.797 -2.8077  0.8309  2.7211
  393DG      H6 9022   1.229  -0.207   4.281 -2.5622  1.7699  0.1627
  393DG      H7 9023   1.386  -0.161   4.189 -1.0538 -1.5317 -1.6889
  393DG      H8 9024   1.313  -0.052   4.300  0.2346  0.3191 -0.2724
  393DG      O9 9025   0.921   0.392   3.909 -0.6485  0.1476 -0.4678
  393DG     O10 9026   1.215  -0.091   4.105 -0.9686  0.2066  0.3898
  393DG     C11 9027   0.975   0.312   3.805  0.0998  0.8056 -0.4646
  393DG     C12 9028   1.099  -0.023   4.121  0.2498  0.9675  0.0800
  393DG     H13 9029   1.081   0.333   3.787 -0.0383  1.3845 -0.6260
  393DG     H14 9030   0.918   0.333   3.714 -0.0008  0.8969 -0.3798
  393DG     H15 9031   1.113   0.069   4.178 -0.4056  1.1235  0.0026
  393DG     H16 9032   1.044  -0.087   4.190 -0.4375 -0.3426 -1.6111
  393DG     C17 9033   0.955   0.161   3.841  0.0878 -0.7199  0.2787
  393DG     C18 9034   1.033  -0.005   3.984  0.4660  0.4722 -0.2130
  393DG     O19 9035   1.029   0.131   3.958  0.1305 -0.5353 -0.2789
  393DG     H20 9036   0.983   0.104   3.753 -1.3983  1.4209 -1.7144
  393DG     H21 9037   0.852   0.145   3.873 -0.7143  0.2083 -1.6698
  393DG     H22 9038   1.080  -0.052   3.898 -1.1398  1.3251 -1.6206
  393DG     H23 9039   0.933  -0.046   3.995  0.8977 -1.0381 -1.6647
  394DG      C1 9040   3.066   3.129   4.892  0.4370  0.5023 -0.0910
  394DG      C2 9041   2.932   2.744   5.642  0.3272 -0.0766  0.1515
  394DG      H3 9042   2.993   3.204   4.923 -1.4377 -0.6232 -1.5772
  394DG      H4 9043   3.033   3.073   4.805  0.0106 -0.0483  0.4194
  394DG      H5 9044   3.154   3.184   4.859  2.1940 -1.5670  0.9081
  394DG      H6 9045   2.867   2.831   5.654  0.0730 -0.0448 -1.2879
  394DG      H7 9046   2.860   2.665   5.664 -3.3551  2.4045 -1.9071
  394DG      H8 9047   3.010   2.745   5.718 -0.4888  0.8429  1.0127
  394DG      O9 9048   3.114   3.037   4.994  0.2399 -0.1896  0.3951
  394DG     O10 9049   2.984   2.727   5.515 -0.1874 -0.3002  0.0832
  394DG     C11 9050   3.014   2.943   5.029  1.4417 -0.6434  0.2650
  394DG     C12 9051   3.097   2.814   5.482  0.5710  0.4318  0.2774
  394DG     H13 9052   2.957   2.893   4.951  0.1174 -0.6413  1.1941
  394DG     H14 9053   2.935   3.001   5.077  1.1210 -0.0808 -0.9032
  394DG     H15 9054   3.180   2.800   5.551  0.7865  1.5436  0.2666
  394DG     H16 9055   3.065   2.917   5.498  1.0992  0.7087 -0.4099
  394DG     C17 9056   3.065   2.832   5.114 -0.1446 -0.2246  0.6879
  394DG     C18 9057   3.140   2.795   5.334  0.0110  0.2923  0.0060
  394DG     O19 9058   3.063   2.881   5.249 -0.4020  0.5221 -0.1238
  394DG     H20 9059   3.166   2.801   5.088  0.5879  2.4345  0.0670
  394DG     H21 9060   3.004   2.742   5.115 -0.8934  0.2323 -0.7831
  394DG     H22 9061   3.243   2.821   5.310 -0.1004  2.5879  1.6807
  394DG     H23 9062   3.115   2.691   5.315  1.5603 -0.2714  0.8895
  395DG      C1 9063   0.023   0.498   0.780 -0.7691 -0.1237 -0.1839
  395DG      C2 9064   0.335   0.506   0.124  0.7675  0.7962 -0.4866
  395DG      H3 9065  -0.058   0.426   0.795  1.0898 -2.4122 -0.6545
  395DG      H4 9066  -0.019   0.599   0.777  0.2361  0.3069 -3.4493
  395DG      H5 9067   0.090   0.484   0.864  0.0029  0.0157 -0.7662
  395DG      H6 9068   0.427   0.451   0.105 -0.0121 -1.0852  0.8885
  395DG      H7 9069   0.271   0.503   0.036 -1.7079 -2.7858  1.2085
  395DG      H8 9070   0.377   0.603   0.152  1.2240  1.0282 -1.8929
  395DG      O9 9071   0.092   0.463   0.663  0.0693 -0.3847 -0.7524
  395DG     O10 9072   0.250   0.453   0.230  0.1836 -0.3001  0.3986
  395DG     C11 9073   0.145   0.336   0.670  0.0079 -0.5237  0.3286
  395DG     C12 9074   0.230   0.311   0.215 -0.2056  0.2132  0.2159
  395DG     H13 9075   0.127   0.285   0.765 -0.5634 -1.6601 -0.3730
  395DG     H14 9076   0.254   0.342   0.677 -0.0563 -0.3616  1.4755
  395DG     H15 9077   0.328   0.268   0.234 -0.3231 -0.1676 -0.0322
  395DG     H16 9078   0.193   0.282   0.117  2.9588  0.6174 -1.1900
  395DG     C17 9079   0.101   0.253   0.555  0.4136  0.0852  0.2702
  395DG     C18 9080   0.141   0.252   0.321 -0.3524  0.0528 -0.0061
  395DG     O19 9081   0.161   0.320   0.443  0.2314  0.3179  0.2276
  395DG     H20 9082  -0.008   0.260   0.549  0.5566  2.9824 -0.5849
  395DG     H21 9083   0.142   0.153   0.568  2.2160  0.3899 -2.2281
  395DG     H22 9084   0.035   0.242   0.298 -0.2424 -1.0327 -0.0926
  395DG     H23 9085   0.176   0.149   0.327 -0.0775  0.2328  2.2751
  396DG      C1 9086   3.455   1.461   5.489 -0.3753  0.2212 -0.0751
  396DG      C2 9087   4.155   1.484   5.137 -0.2521 -0.0339 -0.6182
  396DG      H3 9088   3.457   1.370   5.548  1.0639  0.0413 -0.3636
  396DG      H4 9089   3.352   1.493   5.478 -0.2882 -0.3578 -4.4466
  396DG      H5 9090   3.518   1.538   5.533  1.7396 -0.6669 -1.3784
  396DG      H6 9091   4.200   1.526   5.047 -1.9261 -0.7326 -1.8458
  396DG      H7 9092   4.191   1.558   5.208 -1.2275 -1.8228  1.9115
  396DG      H8 9093   4.198   1.386   5.158  0.2553 -0.3576 -2.8451
  396DG      O9 9094   3.513   1.447   5.359 -0.1155  0.3945 -0.2613
  396DG     O10 9095   4.014   1.493   5.132  0.2158  0.1217 -0.2722
  396DG     C11 9096   3.517   1.561   5.277 -0.3023  0.6979  0.6849
  396DG     C12 9097   3.952   1.446   5.256 -0.0761 -0.9732  0.4230
  396DG     H13 9098   3.569   1.633   5.340 -0.9085  0.0676  1.9308
  396DG     H14 9099   3.418   1.601   5.255 -0.5371  1.0042  2.1664
  396DG     H15 9100   3.975   1.515   5.337  0.8896  0.8069 -1.2589
  396DG     H16 9101   3.997   1.352   5.288 -0.9069 -1.8408 -0.8464
  396DG     C17 9102   3.607   1.529   5.147  0.1501 -0.3686 -0.2121
  396DG     C18 9103   3.802   1.429   5.232  0.6065 -0.1180  0.1849
  396DG     O19 9104   3.744   1.547   5.174 -0.0132 -0.0627 -0.1721
  396DG     H20 9105   3.582   1.590   5.061 -2.3263  0.9004  1.3021
  396DG     H21 9106   3.578   1.428   5.115 -0.1759 -0.4337  0.2771
  396DG     H22 9107   3.787   1.342   5.168  1.6650 -0.6802  0.6830
  396DG     H23 9108   3.760   1.404   5.330  1.4508  0.1486  0.6220
  397DG      C1 9109   3.267   0.705   2.177 -0.1216 -0.2923  0.2908
  397DG      C2 9110   3.482   1.435   2.450 -0.4278  0.4198 -0.7094
  397DG      H3 9111   3.176   0.720   2.235 -0.4809  0.4217 -0.4287
  397DG      H4 9112   3.292   0.600   2.168 -1.3837 -0.4979 -1.5554
  397DG      H5 9113   3.231   0.729   2.076 -1.1260 -1.8199  0.2478
  397DG      H6 9114   3.403   1.436   2.524 -0.0734 -0.5409 -0.3139
  397DG      H7 9115   3.576   1.464   2.496 -0.4808  1.1417 -1.0359
  397DG      H8 9116   3.462   1.504   2.367 -1.0637 -1.2985 -2.0458
  397DG      O9 9117   3.361   0.801   2.215 -0.8247 -0.1848  0.0560
  397DG     O10 9118   3.489   1.305   2.408  0.1186 -0.1483  0.1550
  397DG     C11 9119   3.403   0.796   2.350 -0.4349  0.5170 -0.5250
  397DG     C12 9120   3.363   1.250   2.359 -0.1164 -0.2562 -0.0477
  397DG     H13 9121   3.470   0.710   2.350 -2.0789 -0.8270 -1.0151
  397DG     H14 9122   3.321   0.767   2.415  0.3643 -0.2488  0.1706
  397DG     H15 9123   3.341   1.311   2.272  1.5390  1.1973  0.5018
  397DG     H16 9124   3.285   1.264   2.434  0.5473  0.3266  0.5523
  397DG     C17 9125   3.483   0.909   2.404  0.8908 -0.2181 -0.0508
  397DG     C18 9126   3.376   1.107   2.316 -0.5239  0.6408  0.2967
  397DG     O19 9127   3.419   1.029   2.428  0.1369  0.6853  0.1997
  397DG     H20 9128   3.572   0.908   2.342  1.1405 -0.3159  0.3085
  397DG     H21 9129   3.533   0.884   2.497 -1.2979  0.3085  1.3324
  397DG     H22 9130   3.281   1.070   2.276 -0.8374  1.2567  0.4592
  397DG     H23 9131   3.447   1.108   2.233 -3.4270 -0.0696 -2.4024
  398DG      C1 9132   1.474   4.245   5.048  0.1529  0.5249 -0.3471
  398DG      C2 9133   1.333   3.750   4.631  0.3690  0.3960 -0.1058
  398DG      H3 9134   1.379   4.203   5.082  0.0637  0.9083 -0.1172
  398DG      H4 9135   1.469   4.353   5.037 -1.3353  0.4831 -0.2392
  398DG      H5 9136   1.550   4.225   5.124 -0.0214  0.2817 -0.2360
  398DG      H6 9137   1.408   3.672   4.630  0.7695  0.7508  1.1657
  398DG      H7 9138   1.258   3.731   4.708  0.0459  0.4495 -0.4003
  398DG      H8 9139   1.284   3.728   4.536  0.5380 -2.9038  0.4580
  398DG      O9 9140   1.510   4.187   4.927  0.6659  0.5810 -0.2203
  398DG     O10 9141   1.376   3.881   4.642 -0.5686  0.4619 -0.6577
  398DG     C11 9142   1.644   4.211   4.890 -0.5124  0.1292  0.3071
  398DG     C12 9143   1.464   3.923   4.543 -0.4569  0.4776  0.8707
  398DG     H13 9144   1.716   4.148   4.943 -1.4428  0.0062  1.4499
  398DG     H14 9145   1.675   4.311   4.921  0.7857 -0.4114  0.8259
  398DG     H15 9146   1.402   3.924   4.453 -0.3816 -0.3015  0.8039
  398DG     H16 9147   1.548   3.855   4.527 -0.9074 -0.3308  1.8487
  398DG     C17 9148   1.659   4.186   4.735  0.0431  0.7521  0.2284
  398DG     C18 9149   1.536   4.051   4.567 -0.1328 -0.0027 -0.0720
  398DG     O19 9150   1.587   4.067   4.700  0.8315 -0.5528 -0.3325
  398DG     H20 9151   1.763   4.178   4.706 -0.0542  0.6679 -0.0978
  398DG     H21 9152   1.628   4.277   4.684 -0.9139  0.0931 -0.4022
  398DG     H22 9153   1.615   4.067   4.493  1.6072  0.6082  1.8069
  398DG     H23 9154   1.465   4.130   4.539  0.6780 -0.3172 -3.5777
  399DG      C1 9155   5.439   1.279   3.581 -0.8356  0.0476  0.4424
  399DG      C2 9156   5.685   1.096   3.049 -0.2172  0.0657  0.6554
  399DG      H3 9157   5.424   1.329   3.677  1.1490  0.5604  0.5296
  399DG      H4 9158   5.360   1.209   3.556 -1.2626  1.3367 -2.1444
  399DG      H5 9159   5.418   1.358   3.509 -2.1921  2.8909  3.6505
  399DG      H6 9160   5.587   1.144   3.047 -0.3426 -0.1881  0.6506
  399DG      H7 9161   5.757   1.152   2.989 -1.6929  0.7850 -0.5224
  399DG      H8 9162   5.681   0.993   3.016  3.0960 -0.2749  1.0277
  399DG      O9 9163   5.569   1.217   3.564 -0.2057  0.1321  0.6674
  399DG     O10 9164   5.713   1.090   3.189  0.0390  0.0156 -0.5508
  399DG     C11 9165   5.673   1.313   3.592 -0.3219 -0.8510  0.0095
  399DG     C12 9166   5.855   1.105   3.218  0.3563 -0.5330 -0.5193
  399DG     H13 9167   5.678   1.343   3.697 -0.0334  0.5250 -0.3776
  399DG     H14 9168   5.651   1.406   3.541  1.6576  0.4482  1.3638
  399DG     H15 9169   5.905   1.186   3.165 -1.1943 -1.3334 -3.4329
  399DG     H16 9170   5.898   1.010   3.186 -0.6400 -1.1909  0.0255
  399DG     C17 9171   5.802   1.240   3.552  0.2973 -0.4495 -0.0620
  399DG     C18 9172   5.876   1.116   3.368  0.0386 -0.2497  0.1079
  399DG     O19 9173   5.792   1.217   3.414  0.6104 -0.2447 -0.0003
  399DG     H20 9174   5.815   1.152   3.616  0.5020  2.2129  3.9191
  399DG     H21 9175   5.885   1.309   3.568 -0.2362  0.0587  0.6011
  399DG     H22 9176   5.850   1.021   3.415  0.3564 -0.6193 -0.4417
  399DG     H23 9177   5.980   1.134   3.396  0.2279 -0.1639 -0.6262
  400DG      C1 9178   4.219   2.040   5.376  0.4763  0.4853 -0.3492
  400DG      C2 9179   3.823   2.095   4.844  0.5278  0.0074 -0.1522
  400DG      H3 9180   4.281   2.094   5.304  0.9596  0.1268 -0.2067
  400DG      H4 9181   4.285   1.984   5.442 -0.3174 -0.1218 -0.0435
  400DG      H5 9182   4.161   2.108   5.439 -1.0674 -1.1145  0.0612
  400DG      H6 9183   3.739   2.084   4.775 -1.4846  2.5552  1.7096
  400DG      H7 9184   3.791   2.174   4.912 -3.2002  2.5379 -4.2891
  400DG      H8 9185   3.902   2.129   4.777  0.5768  0.0355 -0.0798
  400DG      O9 9186   4.130   1.958   5.304  0.0244 -0.2354  0.0437
  400DG     O10 9187   3.861   1.986   4.924 -0.0718  0.0061  0.0702
  400DG     C11 9188   4.055   1.872   5.390 -0.0954 -0.0515 -0.1404
  400DG     C12 9189   3.757   1.952   5.020 -0.2510  0.0308  0.0262
  400DG     H13 9190   3.998   1.916   5.471 -0.5100 -1.0133  0.0994
  400DG     H14 9191   4.117   1.793   5.433 -1.3380  0.1624  2.1875
  400DG     H15 9192   3.668   1.926   4.963  0.5999 -1.3937 -0.7284
  400DG     H16 9193   3.729   2.038   5.080  1.5980 -0.2605  1.4197
  400DG     C17 9194   3.959   1.807   5.285 -0.5014 -0.2308  0.3742
  400DG     C18 9195   3.801   1.841   5.120  0.8448  0.9877  0.3243
  400DG     O19 9196   3.896   1.899   5.207 -0.2816  0.2186 -0.3662
  400DG     H20 9197   3.883   1.741   5.327 -0.1008 -1.2506 -0.4422
  400DG     H21 9198   4.019   1.754   5.211 -1.0004  0.3379 -0.4485
  400DG     H22 9199   3.718   1.802   5.179  1.2400 -0.4490 -0.0411
  400DG     H23 9200   3.842   1.752   5.072 -2.1859  0.3706 -1.4055
  401DG      C1 9201   2.798   1.836   5.326 -0.0323 -0.4861  0.7723
  401DG      C2 9202   2.754   2.542   5.401  0.1979  0.2908 -1.0797
  401DG      H3 9203   2.883   1.866   5.264 -0.8809  0.0207 -0.1669
  401DG      H4 9204   2.714   1.829   5.257 -0.3593  0.9834  0.9879
  401DG      H5 9205   2.822   1.734   5.356 -0.8273 -2.0028 -3.1525
  401DG      H6 9206   2.703   2.588   5.316  0.5996 -0.7213 -1.8813
  401DG      H7 9207   2.749   2.612   5.485 -0.2587  1.2708 -1.8994
  401DG      H8 9208   2.861   2.555   5.383  0.6596  1.7284  2.0289
  401DG      O9 9209   2.769   1.940   5.420  0.0112  0.1264  0.4188
  401DG     O10 9210   2.719   2.407   5.429 -0.2564  0.3646 -0.5717
  401DG     C11 9211   2.638   1.924   5.461  0.3690  0.1650  0.2633
  401DG     C12 9212   2.582   2.392   5.469  0.4467  0.2232  0.0371
  401DG     H13 9213   2.630   1.829   5.513 -0.4446  1.1208  1.9697
  401DG     H14 9214   2.558   1.932   5.387 -1.7968  0.5451  2.5031
  401DG     H15 9215   2.530   2.389   5.373  0.0858  0.3875  0.2241
  401DG     H16 9216   2.542   2.473   5.530 -0.3831  0.1401 -0.3770
  401DG     C17 9217   2.625   2.037   5.563 -0.3489 -0.3003 -0.1708
  401DG     C18 9218   2.565   2.271   5.567 -0.3654  0.2047  0.4646
  401DG     O19 9219   2.628   2.161   5.497 -0.5899 -0.1269 -0.2211
  401DG     H20 9220   2.707   2.043   5.636  0.7404  0.9491 -1.4386
  401DG     H21 9221   2.534   2.022   5.621  0.3226  1.8388  1.5890
  401DG     H22 9222   2.618   2.301   5.657  1.5717  0.5679 -0.7295
  401DG     H23 9223   2.461   2.249   5.588 -0.7658 -1.2317 -2.4800
  402DG      C1 9224   1.706   4.384   2.911  0.1982  0.0375 -0.1193
  402DG      C2 9225   2.022   3.716   3.022  0.0280  0.2478 -0.1224
  402DG      H3 9226   1.630   4.368   2.987  1.3067 -0.0552  0.9932
  402DG      H4 9227   1.655   4.439   2.832  0.2183  2.2835  1.3599
  402DG      H5 9228   1.796   4.438   2.939  0.6142 -0.0348 -1.2330
  402DG      H6 9229   2.064   3.772   3.106  0.6458 -0.4858  0.0692
  402DG      H7 9230   1.934   3.677   3.071 -0.7159  0.6061 -1.1459
  402DG      H8 9231   2.088   3.634   2.993  0.6300  0.1184  1.5072
  402DG      O9 9232   1.745   4.256   2.862  0.6172  0.0956  0.2993
  402DG     O10 9233   1.980   3.796   2.912 -0.2241 -0.0236  0.0682
  402DG     C11 9234   1.830   4.271   2.753  0.2395  0.4274  0.3903
  402DG     C12 9235   2.089   3.859   2.839 -0.1201  0.7984  0.1769
  402DG     H13 9236   1.922   4.319   2.787  1.3879 -0.9711 -0.6101
  402DG     H14 9237   1.782   4.322   2.669 -1.6775  0.7125  1.6145
  402DG     H15 9238   2.159   3.788   2.795 -1.8750  0.1523 -1.7543
  402DG     H16 9239   2.151   3.922   2.902  0.7509 -2.1229  2.5009
  402DG     C17 9240   1.882   4.135   2.706  0.5295  0.3047 -0.3931
  402DG     C18 9241   2.022   3.951   2.733  0.6212  0.3702  0.0172
  402DG     O19 9242   1.954   4.056   2.801  0.0305 -0.0088  0.1142
  402DG     H20 9243   1.952   4.160   2.625  0.6648  1.1196 -0.0334
  402DG     H21 9244   1.795   4.094   2.654 -0.3019  0.8443  0.5475
  402DG     H22 9245   2.099   3.999   2.673  0.5401  1.6870  0.9161
  402DG     H23 9246   1.954   3.902   2.664  1.1864  0.0713 -0.3274
  403DG      C1 9247   4.244   4.534   4.108 -0.2683  0.2471  0.5406
  403DG      C2 9248   3.597   4.929   4.525  0.3500 -0.1578 -0.2067
  403DG      H3 9249   4.295   4.491   4.195  0.1068  1.2397  0.8246
  403DG      H4 9250   4.328   4.563   4.045  0.0891  0.8268  1.2620
  403DG      H5 9251   4.182   4.459   4.059 -0.4524  0.2953  0.6975
  403DG      H6 9252   3.525   4.854   4.490  0.0298  0.5072 -0.9955
  403DG      H7 9253   3.643   4.878   4.610  0.9143 -0.7501 -0.8581
  403DG      H8 9254   3.533   5.008   4.562  1.0294  0.4505 -0.3116
  403DG      O9 9255   4.173   4.651   4.157  0.1832  0.3379  0.1667
  403DG     O10 9256   3.685   4.973   4.424 -0.3783  0.5903  0.0233
  403DG     C11 9257   4.080   4.702   4.064 -0.3425  0.7659  0.7831
  403DG     C12 9258   3.744   4.865   4.358  0.2170 -0.2288  0.1299
  403DG     H13 9259   4.005   4.627   4.041 -0.2529  0.4931  1.3636
  403DG     H14 9260   4.124   4.734   3.970  0.0917  0.3010  0.8269
  403DG     H15 9261   3.662   4.818   4.305 -0.0948 -0.3643  0.7195
  403DG     H16 9262   3.788   4.804   4.438  2.5172  0.7007 -0.3595
  403DG     C17 9263   4.012   4.833   4.118 -0.6408  0.3132  0.1480
  403DG     C18 9264   3.847   4.908   4.266 -0.5103  0.2445 -0.5295
  403DG     O19 9265   3.908   4.795   4.209 -0.2251  0.3117 -0.6360
  403DG     H20 9266   3.975   4.890   4.033  0.6851 -0.7951 -1.2159
  403DG     H21 9267   4.091   4.890   4.166  1.2747 -0.9998 -1.2866
  403DG     H22 9268   3.804   4.969   4.187 -1.3278  1.3123  0.6956
  403DG     H23 9269   3.928   4.966   4.311 -0.8047  0.5312 -0.3688
  404DG      C1 9270   2.313   0.770   1.038 -0.2238  0.5506 -0.0865
  404DG      C2 9271   1.595   0.869   0.662 -0.1290 -0.1323  0.1245
  404DG      H3 9272   2.339   0.680   0.983 -0.4681  0.4043  0.0391
  404DG      H4 9273   2.272   0.727   1.129  1.4651  2.2091  1.5403
  404DG      H5 9274   2.406   0.821   1.062  0.1532  0.1519 -0.6800
  404DG      H6 9275   1.563   0.893   0.561 -2.6614  2.2015  1.3750
  404DG      H7 9276   1.637   0.768   0.668 -0.9139 -0.6219 -1.9216
  404DG      H8 9277   1.512   0.860   0.733  0.6440 -2.7541  0.8337
  404DG      O9 9278   2.205   0.850   0.982 -0.3364  0.5240  0.3529
  404DG     O10 9279   1.692   0.967   0.700 -0.6780 -0.1758  0.5177
  404DG     C11 9280   2.167   0.963   1.061 -0.1871  0.2940  0.7768
  404DG     C12 9281   1.759   0.931   0.819  0.0311  0.3736  0.0523
  404DG     H13 9282   2.257   1.009   1.100  0.7791 -0.3019 -0.6490
  404DG     H14 9283   2.117   0.928   1.152  0.9042  0.5384  1.4883
  404DG     H15 9284   1.808   0.835   0.801 -0.3528 -0.4350  2.8800
  404DG     H16 9285   1.690   0.916   0.902 -0.3068 -1.3796 -0.4989
  404DG     C17 9286   2.076   1.046   0.975  0.2470 -0.3244 -0.4376
  404DG     C18 9287   1.871   1.031   0.851  0.1739 -0.2479 -0.1133
  404DG     O19 9288   1.969   0.963   0.925  0.1190  0.4713 -0.8371
  404DG     H20 9289   2.125   1.099   0.894 -0.9117  2.5749  0.6288
  404DG     H21 9290   2.023   1.110   1.045  1.1317 -2.5506  2.4817
  404DG     H22 9291   1.924   1.067   0.763  1.6044 -0.3644  0.6718
  404DG     H23 9292   1.834   1.119   0.904  1.6263  0.6170 -0.4694
  405DG      C1 9293   2.952   5.096   2.602  0.0605 -0.1719  0.7443
  405DG      C2 9294   3.002   4.679   2.097  0.1732  1.0472 -0.6375
  405DG      H3 9295   3.060   5.107   2.612  0.4003 -0.1101 -2.1455
  405DG      H4 9296   2.893   5.126   2.689  0.4047 -0.6497  1.1513
  405DG      H5 9297   2.925   5.159   2.518  0.4116  0.1971  0.9051
  405DG      H6 9298   2.894   4.666   2.092  0.2025 -0.2103  1.0431
  405DG      H7 9299   3.040   4.758   2.032  2.1801  1.3787  0.8352
  405DG      H8 9300   3.054   4.590   2.061  0.5953  0.7339  0.7211
  405DG      O9 9301   2.903   4.970   2.563 -0.3853  0.5218  0.1765
  405DG     O10 9302   3.043   4.703   2.230 -0.4293 -0.0375 -0.5182
  405DG     C11 9303   2.958   4.858   2.639 -0.6774  0.2124 -0.3714
  405DG     C12 9304   3.182   4.723   2.255  0.1591  0.1249 -0.2191
  405DG     H13 9305   2.897   4.769   2.625  0.2357 -0.5688  0.4270
  405DG     H14 9306   2.949   4.877   2.746 -2.8250  0.2404 -0.5210
  405DG     H15 9307   3.206   4.825   2.226 -1.2885  0.5542  0.0140
  405DG     H16 9308   3.245   4.651   2.203  2.2917  0.6908  1.4830
  405DG     C17 9309   3.098   4.811   2.601 -0.3502  0.1781 -0.2573
  405DG     C18 9310   3.207   4.731   2.406  0.3064 -0.0275 -0.0196
  405DG     O19 9311   3.094   4.795   2.465 -0.1360 -0.2537  0.1606
  405DG     H20 9312   3.134   4.721   2.651  0.3252 -0.5367 -1.9445
  405DG     H21 9313   3.169   4.894   2.608 -1.3978  1.3401 -2.2589
  405DG     H22 9314   3.207   4.630   2.448 -2.6615  0.5800  1.7514
  405DG     H23 9315   3.301   4.784   2.422  0.0677  0.0439  1.3308
  406DG      C1 9316   3.241   1.934   1.797  0.0163  0.1573 -0.1039
  406DG      C2 9317   3.341   2.472   2.262  0.2619  0.3694 -0.3473
  406DG      H3 9318   3.268   1.963   1.696 -0.7225 -0.0167 -0.3530
  406DG      H4 9319   3.164   1.858   1.795  0.5553 -0.3848 -2.2501
  406DG      H5 9320   3.337   1.897   1.835 -0.0366  1.3700  1.3424
  406DG      H6 9321   3.251   2.430   2.308  1.1515 -0.7541  0.4168
  406DG      H7 9322   3.430   2.437   2.314  0.7170  2.4974  0.3650
  406DG      H8 9323   3.346   2.578   2.285  1.0613  0.4080 -0.7104
  406DG      O9 9324   3.201   2.040   1.885 -0.4798 -0.0294 -0.1992
  406DG     O10 9325   3.346   2.435   2.123 -0.0621  0.1605 -0.4196
  406DG     C11 9326   3.077   2.100   1.863  0.1166 -0.5496 -0.6388
  406DG     C12 9327   3.244   2.494   2.056 -0.4850 -0.0741  0.6464
  406DG     H13 9328   2.991   2.036   1.846  0.4809 -1.6470  1.3011
  406DG     H14 9329   3.084   2.153   1.768 -0.7850 -0.5649 -0.7181
  406DG     H15 9330   3.290   2.519   1.960  1.8557  0.2248  1.7721
  406DG     H16 9331   3.213   2.591   2.095 -0.4353  0.4430 -0.5595
  406DG     C17 9332   3.039   2.208   1.970  0.5961  0.4477  0.4920
  406DG     C18 9333   3.120   2.412   2.044  0.6326 -0.5237 -0.1511
  406DG     O19 9334   3.154   2.284   1.998  0.3487  0.0979 -0.5073
  406DG     H20 9335   3.000   2.168   2.063  1.9744  0.8336  1.2621
  406DG     H21 9336   2.967   2.272   1.919 -0.2206 -1.1939 -0.4962
  406DG     H22 9337   3.080   2.395   2.144  1.2157 -0.7964  0.0409
  406DG     H23 9338   3.045   2.465   1.985  0.3164  1.1134  1.6021
  407DG      C1 9339   5.125   4.091   1.104 -0.2847  0.0825 -0.2500
  407DG      C2 9340   4.794   3.591   0.604 -0.5915  0.4492  0.3788
  407DG      H3 9341   5.205   4.067   1.174 -0.4595 -1.1637 -0.4462
  407DG      H4 9342   5.047   4.141   1.162 -1.1463 -0.4388 -0.9291
  407DG      H5 9343   5.176   4.155   1.032  1.3812 -1.3818 -0.4424
  407DG      H6 9344   4.767   3.492   0.568  3.8926 -0.2928 -1.7503
  407DG      H7 9345   4.706   3.654   0.611 -1.2201 -0.1604 -1.4849
  407DG      H8 9346   4.861   3.632   0.528  0.0867 -1.4632 -0.1207
  407DG      O9 9347   5.097   3.967   1.048  0.4948  0.6738 -0.0266
  407DG     O10 9348   4.882   3.600   0.711  0.0946  0.6013  0.1932
  407DG     C11 9349   5.033   3.876   1.133  0.0020 -0.5523 -0.1922
  407DG     C12 9350   4.827   3.557   0.839  0.8494 -0.5562  0.9042
  407DG     H13 9351   4.928   3.895   1.155  0.0084 -0.0324 -0.5967
  407DG     H14 9352   5.071   3.878   1.235 -2.8193  2.1521  0.9584
  407DG     H15 9353   4.792   3.455   0.823 -1.8118  0.5363 -0.8894
  407DG     H16 9354   4.741   3.622   0.857 -0.2459 -1.4706 -0.7634
  407DG     C17 9355   5.048   3.727   1.080 -0.3926  0.7385 -0.1480
  407DG     C18 9356   4.918   3.569   0.953 -1.1038  0.4453 -0.3818
  407DG     O19 9357   4.964   3.704   0.968 -0.6958  0.2245 -0.2390
  407DG     H20 9358   5.032   3.649   1.155 -1.2541  0.8036 -0.2589
  407DG     H21 9359   5.151   3.712   1.046 -1.4894 -1.3621 -2.9320
  407DG     H22 9360   4.870   3.537   1.046 -3.2103  1.8355 -0.9209
  407DG     H23 9361   5.005   3.504   0.941 -0.1429  1.4561  0.7657
  408DG      C1 9362   1.456   2.799   4.294  0.6036  0.4998  0.2191
  408DG      C2 9363   1.501   2.133   4.143 -0.4035  0.1148 -0.3049
  408DG      H3 9364   1.429   2.904   4.288  0.1095  0.3605 -0.0551
  408DG      H4 9365   1.561   2.798   4.263  1.2427  0.5583  2.2763
  408DG      H5 9366   1.448   2.765   4.397 -0.9950 -0.0604 -0.0586
  408DG      H6 9367   1.422   2.070   4.101 -0.5279  1.4552 -2.2280
  408DG      H7 9368   1.599   2.090   4.123 -0.4929 -0.3608  0.2399
  408DG      H8 9369   1.492   2.120   4.251 -1.0636  1.1072 -0.2314
  408DG      O9 9370   1.383   2.722   4.205 -0.6827  0.1432 -0.3227
  408DG     O10 9371   1.502   2.273   4.115 -0.5479 -0.3371  0.2241
  408DG     C11 9372   1.409   2.744   4.066 -0.5026  0.6390 -0.3798
  408DG     C12 9373   1.529   2.305   3.984  0.1084  0.0992  0.3288
  408DG     H13 9374   1.437   2.849   4.059  0.8683  0.3278  0.1492
  408DG     H14 9375   1.323   2.729   4.001 -1.0378 -0.4402  0.5432
  408DG     H15 9376   1.439   2.292   3.924 -0.8037  2.3435  1.1207
  408DG     H16 9377   1.601   2.237   3.939  0.8148 -1.2282  3.1915
  408DG     C17 9378   1.525   2.666   4.005  0.2294  0.7527  0.2469
  408DG     C18 9379   1.587   2.445   3.975  0.2281  0.8319  0.4812
  408DG     O19 9380   1.488   2.529   4.025  0.1791 -0.2221  0.2517
  408DG     H20 9381   1.616   2.705   4.052  0.8018  0.5178 -0.6536
  408DG     H21 9382   1.534   2.679   3.898  0.6834 -0.5098  0.1167
  408DG     H22 9383   1.680   2.445   4.031  1.4869  0.6333 -1.4986
  408DG     H23 9384   1.609   2.469   3.871 -2.1611 -0.1912 -0.3374
  409DG      C1 9385   4.249   0.245   3.425  0.6098 -0.7041 -0.4819
  409DG      C2 9386   3.936  -0.050   3.962 -0.6908 -0.0512 -0.0658
  409DG      H3 9387   4.303   0.305   3.499  0.9519 -0.8770 -0.5886
  409DG      H4 9388   4.168   0.311   3.397  1.0181  0.7149  1.4629
  409DG      H5 9389   4.312   0.227   3.338 -0.2222 -1.0274 -1.0216
  409DG      H6 9390   3.843   0.004   3.948 -1.3159 -0.9097  0.6692
  409DG      H7 9391   3.898  -0.141   4.009  1.3538 -0.6602  0.5317
  409DG      H8 9392   3.999   0.012   4.025 -2.3369 -1.0556  2.7434
  409DG      O9 9393   4.201   0.125   3.474  0.4991 -0.2905  0.1193
  409DG     O10 9394   4.004  -0.081   3.840  0.0423  0.0409 -0.2670
  409DG     C11 9395   4.120   0.059   3.379 -0.6158  0.0446  0.0182
  409DG     C12 9396   3.908  -0.137   3.754  0.6921  0.0046 -0.6277
  409DG     H13 9397   4.161   0.039   3.280 -1.2705 -3.3659  0.3017
  409DG     H14 9398   4.028   0.116   3.366 -1.2670 -1.1284 -0.6348
  409DG     H15 9399   3.827  -0.064   3.751  0.1104 -0.3375  2.8840
  409DG     H16 9400   3.873  -0.224   3.809  1.2987  1.1984  1.7361
  409DG     C17 9401   4.091  -0.083   3.431  0.0567 -0.5010  0.2601
  409DG     C18 9402   3.974  -0.171   3.613 -0.2299 -0.1568 -0.2347
  409DG     O19 9403   4.034  -0.059   3.554  0.1898 -0.5646 -0.4932
  409DG     H20 9404   4.184  -0.138   3.448  0.1293 -0.7862 -0.9496
  409DG     H21 9405   4.031  -0.134   3.355  1.1759 -0.8762 -0.4053
  409DG     H22 9406   4.062  -0.234   3.630 -0.3423 -0.1336  0.4398
  409DG     H23 9407   3.903  -0.228   3.552 -0.7123 -0.4249  0.5673
  410DG      C1 9408   0.337   3.949   0.861 -0.2318 -0.1615 -0.0726
  410DG      C2 9409   0.184   3.196   0.687 -0.4570  0.6261  0.5154
  410DG      H3 9410   0.263   3.992   0.792  0.7825 -1.1426 -1.8507
  410DG      H4 9411   0.426   3.927   0.802 -0.2886  0.4314 -0.3944
  410DG      H5 9412   0.368   4.020   0.938  1.3968 -1.7338  0.7605
  410DG      H6 9413   0.131   3.111   0.729 -1.9427  1.9150  1.3544
  410DG      H7 9414   0.126   3.248   0.611  0.7094  0.1085 -0.7750
  410DG      H8 9415   0.263   3.150   0.629  0.6688  3.2568 -0.1950
  410DG      O9 9416   0.276   3.828   0.903  0.5077 -0.7029 -0.5389
  410DG     O10 9417   0.235   3.284   0.788 -0.0751 -0.0900  0.6525
  410DG     C11 9418   0.366   3.749   0.980 -0.2249 -0.0124 -0.2768
  410DG     C12 9419   0.147   3.329   0.882 -0.2495 -0.1977 -0.4859
  410DG     H13 9420   0.405   3.814   1.058  0.6077 -0.9309  0.0870
  410DG     H14 9421   0.453   3.729   0.917 -0.2637  2.3272 -1.1720
  410DG     H15 9422   0.107   3.244   0.938  0.4429  0.3645  0.9117
  410DG     H16 9423   0.064   3.377   0.830 -0.7750  1.3923  1.6933
  410DG     C17 9424   0.295   3.635   1.041 -0.5160 -0.1945 -0.2488
  410DG     C18 9425   0.208   3.425   0.991  0.0266  0.1434  0.1390
  410DG     O19 9426   0.243   3.547   0.937 -0.2524 -0.5126 -0.0950
  410DG     H20 9427   0.214   3.680   1.098 -1.2940 -0.5721 -1.0433
  410DG     H21 9428   0.355   3.577   1.112 -0.7553  0.0711  0.1760
  410DG     H22 9429   0.123   3.432   1.060  0.3483 -0.4315  0.6042
  410DG     H23 9430   0.291   3.376   1.041 -1.3885 -3.1072 -0.4426
  411THF     O1 9431   1.374   4.707   3.259 -0.5301 -0.4246  0.1729
  411THF     C2 9432   1.454   4.724   3.380  0.4520 -0.2675  0.7249
  411THF     C3 9433   1.390   4.569   3.221 -0.2454  0.1064  0.7164
  411THF     H4 9434   1.389   4.678   3.455 -1.6453 -0.4244 -1.0906
  411THF     H5 9435   1.475   4.828   3.405  2.1366 -0.4455  0.1277
  411THF     H6 9436   1.341   4.516   3.303  2.1240 -0.6776  1.7176
  411THF     H7 9437   1.350   4.550   3.122 -0.1244  0.2802  0.6341
  411THF     C8 9438   1.542   4.560   3.225 -0.8802 -0.8625  0.4174
  411THF     C9 9439   1.577   4.635   3.354  0.1204  0.0911  0.2341
  411THF    H10 9440   1.590   4.602   3.137  1.3945 -2.3578  0.8591
  411THF    H11 9441   1.583   4.460   3.225 -1.7802 -1.2801 -1.5341
  411THF    H12 9442   1.604   4.568   3.436  2.9900  0.4376 -0.3018
  411THF    H13 9443   1.654   4.711   3.339  0.2464  0.1278  1.0199
  412THF     O1 9444   4.366   4.869   0.609  0.2040  0.7314  0.6737
  412THF     C2 9445   4.485   4.844   0.542 -0.2753  0.0379  0.1907
  412THF     C3 9446   4.249   4.826   0.533 -0.3273 -0.2379 -0.1889
  412THF     H4 9447   4.558   4.777   0.589 -0.9685 -0.7465  0.1785
  412THF     H5 9448   4.544   4.932   0.516 -0.5755 -0.0167 -0.7288
  412THF     H6 9449   4.209   4.727   0.555 -0.2911 -0.7201 -2.1007
  412THF     H7 9450   4.167   4.898   0.542  2.9370  3.8349  0.1818
  412THF     C8 9451   4.302   4.824   0.392 -0.3333 -1.1176  0.0821
  412THF     C9 9452   4.448   4.787   0.405  0.1418  0.2599 -1.0100
  412THF    H10 9453   4.295   4.925   0.352  0.2712 -1.1409 -0.0942
  412THF    H11 9454   4.241   4.763   0.327 -0.2752  0.6766 -1.7762
  412THF    H12 9455   4.445   4.679   0.416  0.7864  0.3443  0.0631
  412THF    H13 9456   4.529   4.805   0.334  2.9777 -1.3845  1.5745
  413THF     O1 9457   2.116   4.663   2.113  0.1561 -0.4149 -0.0274
  413THF     C2 9458   2.208   4.767   2.080  0.8048  0.1883  0.3412
  413THF     C3 9459   2.138   4.546   2.034  0.5159 -0.3789 -0.2561
  413THF     H4 9460   2.288   4.771   2.154  0.0220 -1.4401  1.3224
  413THF     H5 9461   2.155   4.861   2.071 -0.0269 -0.4456 -2.3071
  413THF     H6 9462   2.198   4.474   2.089 -1.2155 -0.9262  1.0162
  413THF     H7 9463   2.043   4.496   2.011 -0.1994  0.3514  0.9431
  413THF     C8 9464   2.199   4.598   1.902 -0.0891 -0.1468  0.5014
  413THF     C9 9465   2.271   4.724   1.945  0.1328 -0.0191 -0.1011
  413THF    H10 9466   2.131   4.618   1.820  0.6684 -0.9784 -0.3585
  413THF    H11 9467   2.275   4.528   1.865  1.5564  1.8712 -0.1151
  413THF    H12 9468   2.377   4.700   1.953 -0.1321 -0.9634  0.8842
  413THF    H13 9469   2.261   4.807   1.875  1.1380  0.2322  0.0396
  414THF     O1 9470   2.469   4.016   5.097  0.1293  0.0122 -0.6545
  414THF     C2 9471   2.561   3.968   5.198 -0.1201  0.3359 -0.7962
  414THF     C3 9472   2.337   3.975   5.136  0.5961 -0.5440 -1.0571
  414THF     H4 9473   2.554   4.024   5.291  1.0425 -0.4638 -0.2062
  414THF     H5 9474   2.667   3.960   5.174  0.3244 -4.4673  1.6550
  414THF     H6 9475   2.283   4.051   5.191 -1.4688 -1.8337 -1.2033
  414THF     H7 9476   2.279   3.963   5.044 -3.0283 -1.1550  1.1088
  414THF     C8 9477   2.351   3.852   5.229 -0.7167  0.7299 -0.2006
  414THF     C9 9478   2.498   3.825   5.222  0.2904 -0.5314  0.0262
  414THF    H10 9479   2.283   3.790   5.171 -0.3853  0.6809 -0.5401
  414THF    H11 9480   2.320   3.876   5.331 -0.4424 -0.1505  0.1059
  414THF    H12 9481   2.550   3.770   5.301  0.7945 -1.0499 -0.6585
  414THF    H13 9482   2.529   3.778   5.129  1.3399  0.0749  0.0530
  415THF     O1 9483   2.057   1.414   0.661 -0.7498 -0.3169 -0.4009
  415THF     C2 9484   2.030   1.370   0.789 -0.2564  0.1006  0.0808
  415THF     C3 9485   1.961   1.499   0.606  0.5740 -0.5849 -0.7661
  415THF     H4 9486   2.062   1.443   0.863  1.0584 -0.7235  0.3496
  415THF     H5 9487   2.083   1.277   0.807  1.5868  1.5972  3.0722
  415THF     H6 9488   1.994   1.603   0.606  2.1014 -1.0061  1.3729
  415THF     H7 9489   1.933   1.466   0.506  1.9439 -1.0126 -1.0213
  415THF     C8 9490   1.839   1.484   0.701 -0.3229 -0.2961 -0.6019
  415THF     C9 9491   1.880   1.364   0.778 -0.7287  0.3186  0.0472
  415THF    H10 9492   1.740   1.469   0.657  0.0505  1.1622 -2.0529
  415THF    H11 9493   1.839   1.572   0.766  0.0041 -1.2715  0.7785
  415THF    H12 9494   1.832   1.354   0.875 -0.8723  1.0327  0.0544
  415THF    H13 9495   1.851   1.283   0.712 -0.4265  0.5289 -0.3490
  416THF     O1 9496   5.034   0.294   1.899 -0.3754 -0.2176  0.3486
  416THF     C2 9497   5.000   0.406   1.981 -0.8690 -0.4115 -0.5952
  416THF     C3 9498   5.069   0.194   1.984 -0.6561  0.0504 -0.5795
  416THF     H4 9499   4.944   0.486   1.933 -1.8215 -1.2973 -0.9666
  416THF     H5 9500   5.095   0.448   2.015 -1.0714 -0.5489  0.1618
  416THF     H6 9501   5.061   0.105   1.922 -1.7719  0.7138 -1.4107
  416THF     H7 9502   5.175   0.198   2.011 -0.4238 -2.4698 -0.9169
  416THF     C8 9503   4.965   0.195   2.098  0.6378  0.1629 -0.1250
  416THF     C9 9504   4.923   0.342   2.096  0.1483  0.2245  0.1388
  416THF    H10 9505   5.015   0.177   2.193  3.0004 -1.7640 -1.6206
  416THF    H11 9506   4.885   0.122   2.086  1.4008 -0.6693 -0.2591
  416THF    H12 9507   4.814   0.336   2.093  0.1915 -0.4121 -1.7748
  416THF    H13 9508   4.945   0.407   2.180  1.1572  1.2214 -0.8561
  417THF     O1 9509   5.336   0.755   0.069  0.5970 -0.2291 -0.1462
  417THF     C2 9510   5.451   0.817   0.112 -0.0272  0.5600  0.2694
  417THF     C3 9511   5.361   0.643  -0.022  0.2955  1.4714  0.1043
  417THF     H4 9512   5.457   0.831   0.220 -0.8020  0.0050  0.3840
  417THF     H5 9513   5.472   0.918   0.077  4.6375 -0.7989 -1.7051
  417THF     H6 9514   5.342   0.554   0.037  1.1718  0.2148 -1.4414
  417THF     H7 9515   5.285   0.640  -0.100 -0.2573 -0.1470  0.6533
  417THF     C8 9516   5.509   0.674  -0.065  0.3791  0.6666 -0.7076
  417THF     C9 9517   5.568   0.739   0.055  0.3685 -0.4263 -0.1891
  417THF    H10 9518   5.500   0.751  -0.142  0.9738  3.6570  1.9535
  417THF    H11 9519   5.565   0.586  -0.096  0.7066  1.2523 -1.8349
  417THF    H12 9520   5.593   0.658   0.123 -2.8228 -2.2853 -1.0256
  417THF    H13 9521   5.655   0.803   0.038 -2.2834  3.0820 -1.9158
  418THF     O1 9522   4.337   2.550   3.717 -0.1601  0.2917  0.5865
  418THF     C2 9523   4.221   2.616   3.662  0.9299  0.0339  0.5228
  418THF     C3 9524   4.306   2.413   3.714  0.6639 -0.2836  0.1672
  418THF     H4 9525   4.214   2.606   3.554 -0.7345  2.5668  0.3082
  418THF     H5 9526   4.213   2.723   3.681 -1.5099  0.5685 -2.6685
  418THF     H6 9527   4.347   2.355   3.632  0.6478 -0.6435  0.4119
  418THF     H7 9528   4.351   2.358   3.797 -0.0527  0.9052  1.3986
  418THF     C8 9529   4.155   2.396   3.738 -0.1874  0.1551 -0.8306
  418THF     C9 9530   4.108   2.539   3.735 -0.3897 -0.3256 -0.2902
  418THF    H10 9531   4.133   2.345   3.831  0.7417 -0.9339 -1.1904
  418THF    H11 9532   4.110   2.355   3.647 -3.3047  1.8795 -0.2107
  418THF    H12 9533   4.010   2.547   3.687 -0.4020 -0.5906 -0.3114
  418THF    H13 9534   4.110   2.575   3.838  1.7948 -0.8423 -0.1163
  419THF     O1 9535   5.029   2.046   1.899 -0.1511  0.2955 -0.2471
  419THF     C2 9536   5.159   2.058   1.836  0.0043  0.2989  0.3816
  419THF     C3 9537   4.920   2.062   1.811 -0.3420 -0.0878  0.2198
  419THF     H4 9538   5.172   1.968   1.776 -3.0529 -0.4961  0.7100
  419THF     H5 9539   5.235   2.094   1.905 -1.1206  0.4751  1.5779
  419THF     H6 9540   4.890   1.968   1.764 -0.1656  0.2177 -0.5339
  419THF     H7 9541   4.827   2.111   1.841 -0.6510 -0.1305 -0.6367
  419THF     C8 9542   4.968   2.151   1.698  0.1868  0.1426  0.9382
  419THF     C9 9543   5.114   2.162   1.726 -0.5982 -0.2779  0.0533
  419THF    H10 9544   4.917   2.246   1.683 -1.0390 -0.9337 -2.6109
  419THF    H11 9545   4.952   2.102   1.602 -3.6933  0.7611  1.0984
  419THF    H12 9546   5.174   2.140   1.637 -0.4138 -0.5689  0.2465
  419THF    H13 9547   5.139   2.265   1.750 -2.5880 -0.0048  1.1484
  420THF     O1 9548   1.979   3.938   0.725  0.3854  0.4020  0.9684
  420THF     C2 9549   1.913   3.854   0.810  0.5153 -0.4848 -0.5862
  420THF     C3 9550   1.888   3.987   0.625 -0.2168  0.5993  0.3699
  420THF     H4 9551   1.948   3.876   0.911  1.5543  0.1416 -1.0650
  420THF     H5 9552   1.942   3.750   0.800 -1.8938 -1.2911  0.2012
  420THF     H6 9553   1.869   4.094   0.630 -1.2853  0.4157  0.4836
  420THF     H7 9554   1.932   3.966   0.527  0.1825  0.7092  0.5274
  420THF     C8 9555   1.757   3.911   0.650  0.3775 -0.2848  0.5509
  420THF     C9 9556   1.763   3.884   0.793 -0.7103  0.4303 -0.7872
  420THF    H10 9557   1.743   3.823   0.588 -0.8590  0.4399 -0.2437
  420THF    H11 9558   1.669   3.967   0.618 -0.5691 -2.2970 -0.5146
  420THF    H12 9559   1.728   3.968   0.852  1.2663  0.0044  1.1396
  420THF    H13 9560   1.703   3.798   0.822 -0.4774  0.8019  0.8812
  421THF     O1 9561   4.686   0.827   2.536 -0.4321 -0.2943 -0.3174
  421THF     C2 9562   4.663   0.956   2.599 -0.5211  0.1611 -0.8374
  421THF     C3 9563   4.745   0.856   2.408  0.2452  0.2156  0.0092
  421THF     H4 9564   4.708   0.944   2.697  0.2047 -0.3961 -1.2274
  421THF     H5 9565   4.556   0.976   2.596 -0.5158  0.5399  0.6600
  421THF     H6 9566   4.797   0.769   2.368 -1.0810 -0.9490  0.7223
  421THF     H7 9567   4.659   0.887   2.348 -0.2726  0.7707  1.0074
  421THF     C8 9568   4.839   0.977   2.430  0.1768 -0.5842  0.5042
  421THF     C9 9569   4.746   1.058   2.522 -0.0231  0.3498  0.6152
  421THF    H10 9570   4.864   1.021   2.334 -0.8008 -2.3436 -0.5931
  421THF    H11 9571   4.931   0.946   2.480 -0.4707 -1.8790  0.9241
  421THF    H12 9572   4.793   1.133   2.586  0.6946  0.5311 -0.1081
  421THF    H13 9573   4.669   1.110   2.465  1.6801  0.6072 -1.5787
  422THF     O1 9574   1.825   3.798   2.165  0.6718 -0.2472  0.5249
  422THF     C2 9575   1.835   3.666   2.114 -0.1762  0.3274 -0.0210
  422THF     C3 9576   1.945   3.863   2.138 -0.6558 -0.2105 -0.4753
  422THF     H4 9577   1.807   3.659   2.009  1.2000 -0.7097 -0.3470
  422THF     H5 9578   1.768   3.599   2.168  0.9958 -0.7344  0.1419
  422THF     H6 9579   1.964   3.895   2.035  0.9090  2.0165  0.4174
  422THF     H7 9580   1.959   3.946   2.207 -0.4578  1.0477 -1.9671
  422THF     C8 9581   2.041   3.751   2.170 -0.1003  0.2787 -0.2173
  422THF     C9 9582   1.980   3.627   2.126 -0.8881  0.6534 -0.5850
  422THF    H10 9583   2.058   3.754   2.278  2.2994 -1.4187 -0.4499
  422THF    H11 9584   2.144   3.765   2.136  1.1113  1.4577  3.4177
  422THF    H12 9585   2.024   3.602   2.030  1.3016  0.3462  0.4335
  422THF    H13 9586   1.995   3.548   2.200 -1.5979  0.1505 -0.9682
  423THF     O1 9587   1.619   4.465   2.052  0.2972 -0.0382  0.4489
  423THF     C2 9588   1.656   4.559   2.139 -0.1391 -0.4435  0.0095
  423THF     C3 9589   1.728   4.451   1.963 -0.0068  0.0223 -0.5420
  423THF     H4 9590   1.715   4.513   2.218  1.3458  0.9790 -0.2161
  423THF     H5 9591   1.565   4.598   2.185  0.8951 -1.0100  2.7388
  423THF     H6 9592   1.815   4.402   2.007  0.1745 -1.3659 -2.3854
  423THF     H7 9593   1.696   4.392   1.878  0.1409  1.0193 -1.2986
  423THF     C8 9594   1.768   4.588   1.923 -0.6921 -0.6757  0.6670
  423THF     C9 9595   1.731   4.662   2.054  0.7154 -0.2226  0.6846
  423THF    H10 9596   1.705   4.631   1.845  1.7505  1.0777 -0.4469
  423THF    H11 9597   1.870   4.595   1.885 -0.8829  0.9077  0.3789
  423THF    H12 9598   1.812   4.711   2.108  0.4950  0.3829  0.4710
  423THF    H13 9599   1.667   4.749   2.039  0.9020  0.1999  2.1438
  424THF     O1 9600   5.266   2.105   3.314  0.2175 -0.2271  0.0295
  424THF     C2 9601   5.220   2.048   3.194  0.9625 -0.6589 -0.1454
  424THF     C3 9602   5.409   2.106   3.298  0.3032  0.5457  0.2965
  424THF     H4 9603   5.213   2.129   3.121 -1.3218  1.1494  1.8945
  424THF     H5 9604   5.122   2.002   3.205  0.0539  1.5071  1.8704
  424THF     H6 9605   5.441   2.187   3.233  2.0096 -0.0449  0.3435
  424THF     H7 9606   5.460   2.113   3.394 -0.8676 -2.8879  1.3191
  424THF     C8 9607   5.436   1.970   3.241  0.0705  0.1353  0.5633
  424THF     C9 9608   5.323   1.955   3.139 -0.2739  0.3250  0.0540
  424THF    H10 9609   5.434   1.888   3.313  0.1774  0.5184  1.0144
  424THF    H11 9610   5.533   1.971   3.191 -0.3148 -1.7118 -0.3039
  424THF    H12 9611   5.344   1.995   3.039  0.1898  1.0846  0.4411
  424THF    H13 9612   5.292   1.851   3.135 -1.3026  0.5436  1.6654
  425THF     O1 9613   1.333   4.884   1.701 -0.0936 -0.3759  0.1188
  425THF     C2 9614   1.411   4.768   1.697 -0.6719 -0.0703  0.4445
  425THF     C3 9615   1.333   4.918   1.844 -0.2184 -0.0621  0.4099
  425THF     H4 9616   1.519   4.782   1.700 -0.8053  1.6543 -0.9762
  425THF     H5 9617   1.403   4.719   1.600 -0.6468 -1.3069  1.0442
  425THF     H6 9618   1.428   4.965   1.869  0.6170 -1.7044  0.4404
  425THF     H7 9619   1.252   4.983   1.880 -1.0708 -0.3394 -0.9205
  425THF     C8 9620   1.335   4.791   1.914 -0.1457  0.1869  0.9348
  425THF     C9 9621   1.357   4.683   1.808 -0.0857  0.2629 -0.0703
  425THF    H10 9622   1.240   4.764   1.960 -0.5230 -1.5323 -0.7262
  425THF    H11 9623   1.409   4.784   1.994 -0.9072 -2.0076  1.5189
  425THF    H12 9624   1.435   4.620   1.851 -0.4674 -1.7773 -2.1687
  425THF    H13 9625   1.273   4.621   1.778  0.8802 -1.1042 -0.0837
  426THF     O1 9626   0.871   1.212   3.941  0.0048  0.6192  0.2976
  426THF     C2 9627   0.904   1.133   4.057 -0.1874 -0.1004 -0.0138
  426THF     C3 9628   0.929   1.344   3.954 -0.5653  0.2418  0.1094
  426THF     H4 9629   0.877   1.031   4.028  2.0369 -0.3195 -1.5236
  426THF     H5 9630   0.852   1.154   4.150 -0.6223 -1.5992  0.1043
  426THF     H6 9631   0.953   1.393   3.860 -1.7836  1.1704  0.2638
  426THF     H7 9632   0.870   1.415   4.012 -0.5887  1.5379 -1.4327
  426THF     C8 9633   1.068   1.309   4.021 -0.3231  0.5966 -0.0263
  426THF     C9 9634   1.052   1.163   4.079  0.3361  0.0655  0.4103
  426THF    H10 9635   1.088   1.378   4.103 -0.4458 -1.9165  2.2597
  426THF    H11 9636   1.152   1.321   3.953  0.6688  2.9716  1.4798
  426THF    H12 9637   1.110   1.098   4.013  1.0236  1.4156 -0.3615
  426THF    H13 9638   1.100   1.155   4.176  2.8927  0.9623 -0.6739
  427THF     O1 9639   4.760   3.806   5.157 -0.5172 -0.6531 -0.1603
  427THF     C2 9640   4.775   3.933   5.093  0.2320  0.4800  0.6625
  427THF     C3 9641   4.856   3.717   5.102 -0.0899 -0.0483  0.0153
  427THF     H4 9642   4.762   4.000   5.177 -1.3321 -1.0333  1.6809
  427THF     H5 9643   4.701   3.948   5.015  1.8088  1.7739 -0.6696
  427THF     H6 9644   4.943   3.714   5.168 -1.9298 -2.0292  2.5584
  427THF     H7 9645   4.808   3.621   5.085 -3.4745  1.1813  1.6389
  427THF     C8 9646   4.910   3.780   4.977 -0.1420 -0.2673 -0.1808
  427THF     C9 9647   4.904   3.922   5.029 -0.1266  0.7616  0.9614
  427THF    H10 9648   4.836   3.769   4.898  0.2809 -1.2510 -0.4601
  427THF    H11 9649   5.010   3.742   4.957  0.7695  1.0603  1.6479
  427THF    H12 9650   4.992   3.946   5.090 -1.3864  4.7443  1.5066
  427THF    H13 9651   4.903   3.990   4.943  0.8526 -1.8207 -1.2446
  428THF     O1 9652   2.703   2.609   5.002 -0.1902 -0.1342 -0.0790
  428THF     C2 9653   2.606   2.706   5.028  0.5058  0.4331 -0.2735
  428THF     C3 9654   2.650   2.483   5.022  0.6240  0.5854  0.9054
  428THF     H4 9655   2.639   2.795   4.973  1.5038 -0.1097 -0.5735
  428THF     H5 9656   2.600   2.732   5.133 -1.0032 -0.0887 -0.2179
  428THF     H6 9657   2.702   2.426   4.945 -0.7807  2.0177 -1.2145
  428THF     H7 9658   2.675   2.462   5.125  0.1057  2.1812  1.3879
  428THF     C8 9659   2.508   2.495   4.984  0.0152  0.2438  0.9893
  428THF     C9 9660   2.481   2.642   4.970 -0.2896 -0.1180 -0.2493
  428THF    H10 9661   2.449   2.458   5.068  0.3003 -0.2934  0.9597
  428THF    H11 9662   2.497   2.449   4.886  3.0605  2.1064 -0.3877
  428THF    H12 9663   2.491   2.679   4.869 -2.3398  3.0530  0.5525
  428THF    H13 9664   2.384   2.687   4.994  0.1272  0.6783 -0.0503
  429THF     O1 9665   4.475   0.655   1.672 -0.0908 -0.3341 -1.1427
  429THF     C2 9666   4.344   0.672   1.625  0.1475 -0.0722  0.0517
  429THF     C3 9667   4.560   0.764   1.634 -0.5171 -0.7140 -0.1912
  429THF     H4 9668   4.267   0.645   1.697  1.0023 -0.0814  0.9799
  429THF     H5 9669   4.324   0.614   1.535 -2.4168  1.9994 -0.8178
  429THF     H6 9670   4.646   0.778   1.700 -0.8601 -0.6234  0.2332
  429THF     H7 9671   4.591   0.754   1.529 -2.2493  1.3318 -0.9679
  429THF     C8 9672   4.465   0.883   1.627 -0.2772 -0.2084 -0.1946
  429THF     C9 9673   4.340   0.820   1.581  0.8186 -0.1123 -0.1181
  429THF    H10 9674   4.493   0.967   1.563 -0.3429  1.4046  1.8059
  429THF    H11 9675   4.444   0.915   1.729 -0.8785  1.3427 -0.7628
  429THF    H12 9676   4.258   0.874   1.628 -0.6759 -3.0576  0.9503
  429THF    H13 9677   4.337   0.823   1.472 -0.1618  1.5535 -0.0713
  430THF     O1 9678   5.048   3.661   3.853 -0.6268  1.0109 -0.0690
  430THF     C2 9679   5.175   3.675   3.783 -0.3802  0.6313  0.2748
  430THF     C3 9680   4.995   3.790   3.878  0.1666  0.9283  0.8494
  430THF     H4 9681   5.216   3.582   3.745 -1.9075  0.3182 -0.7032
  430THF     H5 9682   5.257   3.706   3.848 -0.4450 -0.8368  1.1002
  430THF     H6 9683   4.887   3.778   3.880  0.0309 -0.1953 -3.3715
  430THF     H7 9684   5.029   3.831   3.973 -0.6335 -1.0885  2.0825
  430THF     C8 9685   5.045   3.868   3.753 -0.0597  0.1279 -0.0916
  430THF     C9 9686   5.128   3.777   3.675  0.1278  0.1768  0.2542
  430THF    H10 9687   5.098   3.959   3.779  1.8509 -0.9768  0.1326
  430THF    H11 9688   4.966   3.903   3.686  0.6132  0.6191 -0.6434
  430THF    H12 9689   5.068   3.739   3.592 -0.4536  1.1733  0.2054
  430THF    H13 9690   5.216   3.827   3.634 -1.2958  1.8499 -0.9689
  431THF     O1 9691   1.057   4.220   1.327  0.2374  0.0345 -0.0758
  431THF     C2 9692   0.921   4.215   1.342  1.0980 -0.1277 -0.4324
  431THF     C3 9693   1.099   4.220   1.189 -0.3487 -0.1483  0.5333
  431THF     H4 9694   0.872   4.311   1.329  0.0572 -0.6131 -0.1909
  431THF     H5 9695   0.897   4.164   1.436 -1.1080  0.3338 -0.7107
  431THF     H6 9696   1.097   4.323   1.153  0.0328 -0.5722 -0.7364
  431THF     H7 9697   1.198   4.185   1.161 -0.8368  0.1454 -1.6971
  431THF     C8 9698   0.998   4.132   1.122 -0.5794 -0.3867 -0.1182
  431THF     C9 9699   0.882   4.127   1.218  0.3598 -0.2088  0.0151
  431THF    H10 9700   1.043   4.033   1.114 -0.7711 -0.6676  1.7736
  431THF    H11 9701   0.972   4.158   1.020 -1.3568 -1.6937 -0.2799
  431THF    H12 9702   0.792   4.157   1.164  1.3298  1.3887 -0.7464
  431THF    H13 9703   0.875   4.020   1.240  0.9061 -0.4411 -0.8986
  432THF     O1 9704   4.848   0.712   0.774 -0.0070  0.0317 -0.2030
  432THF     C2 9705   4.893   0.796   0.663  0.7656 -0.3065  0.0416
  432THF     C3 9706   4.955   0.698   0.865 -0.7947  0.2447  0.4821
  432THF     H4 9707   4.816   0.830   0.594  0.9604  1.5213  0.6642
  432THF     H5 9708   4.965   0.739   0.605 -2.0527 -2.5962 -1.4828
  432THF     H6 9709   4.930   0.681   0.969  3.7414 -1.5718  1.5362
  432THF     H7 9710   5.022   0.614   0.845 -1.6194  0.1994 -2.6665
  432THF     C8 9711   5.044   0.821   0.839  0.2754 -0.4623  0.9947
  432THF     C9 9712   4.961   0.907   0.743  0.4819 -0.6061 -0.8603
  432THF    H10 9713   5.140   0.800   0.793  0.8141 -0.1818  1.9734
  432THF    H11 9714   5.059   0.883   0.927  0.7956  1.2400 -0.2587
  432THF    H12 9715   4.899   0.966   0.811  1.9905 -0.0140  0.0384
  432THF    H13 9716   5.014   0.976   0.677 -1.0366  1.5619  0.0478
  433THF     O1 9717   4.403   4.207   5.382  0.1147  0.3499  0.2222
  433THF     C2 9718   4.480   4.200   5.261  0.0160  0.5103  0.2605
  433THF     C3 9719   4.292   4.290   5.362 -0.0825 -0.2587 -0.6531
  433THF     H4 9720   4.549   4.116   5.255  1.1731  1.4306  0.2645
  433THF     H5 9721   4.555   4.278   5.242  1.1599 -0.4630  0.6523
  433THF     H6 9722   4.211   4.260   5.429  1.9089 -2.1052  1.0789
  433THF     H7 9723   4.319   4.393   5.386  1.9506 -0.9002  0.0409
  433THF     C8 9724   4.258   4.287   5.215  0.4727  0.3096  0.1177
  433THF     C9 9725   4.376   4.220   5.149  0.8496  0.2941 -0.3768
  433THF    H10 9726   4.239   4.387   5.177 -0.6944  0.2992  0.6163
  433THF    H11 9727   4.167   4.228   5.204  0.1022  0.1702  3.0052
  433THF    H12 9728   4.347   4.119   5.122 -1.6130  0.5992  0.9139
  433THF    H13 9729   4.416   4.268   5.059  0.9602  1.7967  0.4407
  434THF     O1 9730   3.360   0.050   2.987  0.0824 -0.5899 -0.0650
  434THF     C2 9731   3.349  -0.076   2.929  0.1722  0.1588  0.5624
  434THF     C3 9732   3.367   0.142   2.873  0.3694  0.3897  0.0987
  434THF     H4 9733   3.293  -0.136   3.000  0.5058 -2.7551 -1.4756
  434THF     H5 9734   3.446  -0.123   2.915 -1.3653 -2.6438 -2.0134
  434THF     H6 9735   3.342   0.245   2.900 -0.6073 -0.2963  2.0641
  434THF     H7 9736   3.468   0.142   2.832  0.7304 -1.1008  0.9459
  434THF     C8 9737   3.277   0.092   2.763 -0.2604 -0.2223  0.5841
  434THF     C9 9738   3.279  -0.059   2.790  0.0743 -0.3748  0.2423
  434THF    H10 9739   3.313   0.119   2.664 -1.2032 -0.2750  0.2130
  434THF    H11 9740   3.175   0.130   2.776  0.6698  2.4037  0.9074
  434THF    H12 9741   3.175  -0.089   2.797  0.6081 -1.9592  2.1030
  434THF    H13 9742   3.318  -0.118   2.707 -2.7848 -0.7686 -0.9318
  435THF     O1 9743   2.580   4.554   0.231 -0.0812 -0.3097  0.2035
  435THF     C2 9744   2.692   4.523   0.306  0.3953  0.2021  0.5141
  435THF     C3 9745   2.596   4.510   0.095 -0.5660 -0.5513  0.2163
  435THF     H4 9746   2.655   4.455   0.382 -1.4699  1.0200  0.3893
  435THF     H5 9747   2.727   4.619   0.345  1.4901  0.0163  0.0303
  435THF     H6 9748   2.549   4.413   0.080 -0.2563 -0.8068  0.8627
  435THF     H7 9749   2.551   4.585   0.030 -2.7872 -0.3149  1.9402
  435THF     C8 9750   2.749   4.508   0.072  0.2568 -0.2051  0.8318
  435THF     C9 9751   2.798   4.472   0.210  0.1269 -0.2421 -0.0233
  435THF    H10 9752   2.782   4.607   0.041  0.7503 -1.3896 -2.9427
  435THF    H11 9753   2.777   4.441  -0.009  1.1448  0.0818  0.8896
  435THF    H12 9754   2.796   4.364   0.219 -1.7212 -0.3209 -1.0764
  435THF    H13 9755   2.901   4.502   0.231 -0.9152  1.9473  2.7686
  436THF     O1 9756   1.813   4.916   2.975 -0.3219 -0.0831 -0.0103
  436THF     C2 9757   1.867   4.832   3.079  0.1048 -0.5081  0.1179
  436THF     C3 9758   1.827   4.840   2.852  0.1802  0.2979  0.6060
  436THF     H4 9759   1.800   4.806   3.161  0.3987 -1.8069 -0.0342
  436THF     H5 9760   1.947   4.896   3.116  0.3567  0.4949 -1.9724
  436THF     H6 9761   1.744   4.770   2.851  0.3609  0.0497  1.5289
  436THF     H7 9762   1.834   4.891   2.756  1.2863 -0.0832  0.4694
  436THF     C8 9763   1.948   4.746   2.869  0.6069 -0.3538  0.4062
  436THF     C9 9764   1.930   4.709   3.012  0.1911 -0.2780 -0.8666
  436THF    H10 9765   2.045   4.795   2.862 -0.0079  0.8753  0.1442
  436THF    H11 9766   1.939   4.658   2.805 -2.8081  0.4463 -0.3888
  436THF    H12 9767   1.853   4.632   3.023 -1.6427  1.1962 -2.5237
  436THF    H13 9768   2.027   4.690   3.057  0.4978 -0.1938 -1.4852
  437THF     O1 9769   2.819   1.036   0.950  0.8888  0.3828 -0.5787
  437THF     C2 9770   2.838   0.906   0.895  0.2313 -0.0778 -0.2390
  437THF     C3 9771   2.777   1.013   1.083 -0.0563 -0.3583  0.6069
  437THF     H4 9772   2.898   0.915   0.805  0.5280 -1.7367 -0.2385
  437THF     H5 9773   2.741   0.859   0.878 -1.1038  2.0440  1.0503
  437THF     H6 9774   2.785   1.108   1.135  0.0194  1.2081 -2.0669
  437THF     H7 9775   2.678   0.970   1.095  0.5834 -1.3878  2.7200
  437THF     C8 9776   2.884   0.910   1.130 -0.1070  0.1793  0.2702
  437THF     C9 9777   2.918   0.835   1.000 -0.0073  0.5254 -0.4780
  437THF    H10 9778   2.861   0.839   1.210  2.3618 -2.0354 -0.8789
  437THF    H11 9779   2.965   0.977   1.159  1.5707 -0.8275 -1.8626
  437THF    H12 9780   3.026   0.842   0.985  0.0876 -1.8401 -1.2699
  437THF    H13 9781   2.892   0.730   1.013 -0.6820  0.4743 -2.0295
  438THF     O1 9782   1.945   5.267   3.738  0.0144 -0.3398  0.3381
  438THF     C2 9783   1.887   5.290   3.613 -0.0066  0.0794  0.2118
  438THF     C3 9784   2.042   5.164   3.723  0.4886  0.1228 -0.3722
  438THF     H4 9785   1.949   5.348   3.545  2.4560 -4.3461 -1.7323
  438THF     H5 9786   1.795   5.350   3.615 -0.4392 -0.5884  0.9242
  438THF     H6 9787   2.134   5.202   3.679  0.9631  0.1050  0.5803
  438THF     H7 9788   2.066   5.113   3.817 -1.3202 -1.9596 -0.9675
  438THF     C8 9789   1.981   5.066   3.628 -0.3458  0.0600 -0.1640
  438THF     C9 9790   1.872   5.146   3.558  0.5618  1.1237 -0.3222
  438THF    H10 9791   1.934   4.981   3.677 -0.4332  1.3338  2.1327
  438THF    H11 9792   2.052   5.030   3.554 -1.2749  0.7149 -1.4113
  438THF    H12 9793   1.880   5.152   3.450  0.6015  0.8737 -0.3342
  438THF    H13 9794   1.777   5.097   3.580  1.3309 -0.3519 -0.1716
  439THF     O1 9795   0.695   4.465   0.846  0.4825  0.1127 -0.5356
  439THF     C2 9796   0.656   4.416   0.724  0.3427 -0.0821  0.0003
  439THF     C3 9797   0.742   4.350   0.919 -0.7169 -0.0485 -1.0115
  439THF     H4 9798   0.736   4.389   0.656  0.4457 -0.2999  0.2083
  439THF     H5 9799   0.605   4.497   0.671  0.7540  0.9586  1.1391
  439THF     H6 9800   0.845   4.326   0.895  0.0547  0.3638  1.5889
  439THF     H7 9801   0.751   4.367   1.027 -0.0374 -1.8002 -0.7690
  439THF     C8 9802   0.626   4.249   0.898 -0.2912  0.3023  0.2490
  439THF     C9 9803   0.584   4.285   0.755 -0.6914  0.1030  0.1391
  439THF    H10 9804   0.545   4.272   0.968  0.6150 -0.0799  1.4625
  439THF    H11 9805   0.664   4.147   0.912 -2.1720 -0.5971 -0.8343
  439THF    H12 9806   0.613   4.209   0.683 -0.7210 -1.8614  2.0874
  439THF    H13 9807   0.477   4.297   0.738 -0.1743  2.1606 -2.2349
  440THF     O1 9808   3.638   4.649   1.871 -0.2331  0.1423 -0.1891
  440THF     C2 9809   3.537   4.742   1.870  0.1904 -0.4697  0.7719
  440THF     C3 9810   3.567   4.518   1.848 -0.1435 -0.4237  0.3406
  440THF     H4 9811   3.510   4.748   1.765 -0.8926  1.2491  1.1169
  440THF     H5 9812   3.566   4.843   1.899  1.6988 -0.8463  0.6586
  440THF     H6 9813   3.554   4.521   1.739  1.1773  1.4047  0.1802
  440THF     H7 9814   3.633   4.440   1.886  0.6322  1.6675  3.6106
  440THF     C8 9815   3.444   4.538   1.926  0.8117  0.0487 -0.0347
  440THF     C9 9816   3.439   4.683   1.967 -0.0975 -0.0782  0.2235
  440THF    H10 9817   3.454   4.489   2.023  2.8043  1.5022  0.5501
  440THF    H11 9818   3.359   4.498   1.869  1.2008  1.3126 -1.5858
  440THF    H12 9819   3.335   4.716   1.967 -0.2346 -0.5022  0.7231
  440THF    H13 9820   3.476   4.714   2.065 -1.7710  0.9562  0.5767
  441THF     O1 9821   0.133   0.395   1.632  0.0238 -0.3840  0.1304
  441THF     C2 9822   0.057   0.275   1.623 -0.0845 -0.6680 -0.4023
  441THF     C3 9823   0.039   0.503   1.642 -0.4069  0.0717 -0.3863
  441THF     H4 9824   0.049   0.225   1.720  0.2993  0.0292 -0.0043
  441THF     H5 9825   0.109   0.209   1.554 -0.7118 -1.8683  0.2346
  441THF     H6 9826  -0.005   0.498   1.741  0.3363 -0.7485 -0.0895
  441THF     H7 9827   0.096   0.595   1.626 -2.2622  1.7241  1.7878
  441THF     C8 9828  -0.068   0.466   1.540 -0.2889 -1.0410  0.1651
  441THF     C9 9829  -0.081   0.321   1.569  0.5715  0.7833  0.7202
  441THF    H10 9830  -0.030   0.489   1.441  2.4632 -0.1491  1.3165
  441THF    H11 9831  -0.163   0.515   1.562  0.6757  0.6125  0.8695
  441THF    H12 9832  -0.153   0.299   1.647  0.5323 -0.0188  0.4711
  441THF    H13 9833  -0.106   0.254   1.487  2.4670 -1.6785  2.0435
  442THF     O1 9834   3.416   3.920   3.426  0.0822 -0.5532 -0.5175
  442THF     C2 9835   3.367   3.970   3.550  0.2627 -0.0872 -0.1941
  442THF     C3 9836   3.350   3.988   3.322 -0.3304  0.0762 -0.1735
  442THF     H4 9837   3.450   3.985   3.618  0.6935 -1.2036 -0.4445
  442THF     H5 9838   3.298   3.911   3.611  0.7672  0.5283  1.0055
  442THF     H6 9839   3.398   3.986   3.224 -0.5530  1.9790 -0.3465
  442THF     H7 9840   3.253   3.940   3.308  0.4986 -2.1073  0.9448
  442THF     C8 9841   3.345   4.126   3.378 -0.0227 -0.1621  0.2364
  442THF     C9 9842   3.322   4.111   3.523 -0.0267  0.2749  0.5851
  442THF    H10 9843   3.276   4.195   3.329  0.4965  0.2218  0.0398
  442THF    H11 9844   3.437   4.184   3.370 -0.1304  0.1104  0.9269
  442THF    H12 9845   3.382   4.181   3.581 -0.0623  1.1870 -0.4275
  442THF    H13 9846   3.220   4.119   3.561  0.0475  0.3218  0.7750
  443THF     O1 9847   3.190   1.414   0.511 -0.0305 -0.1307  0.4893
  443THF     C2 9848   3.061   1.396   0.462  0.5687  0.0557 -0.5691
  443THF     C3 9849   3.272   1.304   0.464 -0.2734 -0.1515  0.3113
  443THF     H4 9850   3.048   1.435   0.361 -0.4029  1.7221  0.1491
  443THF     H5 9851   2.989   1.455   0.520 -1.6093 -2.2242 -0.8333
  443THF     H6 9852   3.314   1.329   0.367  0.7684  0.6276  0.9483
  443THF     H7 9853   3.357   1.287   0.531 -0.1791 -1.5057 -0.1067
  443THF     C8 9854   3.185   1.184   0.460  0.3545 -0.4609 -0.6941
  443THF     C9 9855   3.050   1.242   0.491 -0.2728 -0.5862 -0.5847
  443THF    H10 9856   3.217   1.103   0.525 -0.6809  0.0391  0.4907
  443THF    H11 9857   3.192   1.141   0.360  0.3515  3.1274 -2.4286
  443THF    H12 9858   2.962   1.198   0.443 -0.2318 -0.3938 -0.8350
  443THF    H13 9859   3.037   1.229   0.599 -2.0799 -0.3918 -0.7521
  444THF     O1 9860   3.759   1.086   2.058  0.2035  0.1600 -0.2395
  444THF     C2 9861   3.660   1.102   1.955  0.0472 -0.6863 -0.6906
  444THF     C3 9862   3.739   1.199   2.152 -0.6055 -0.2606  0.1838
  444THF     H4 9863   3.562   1.067   1.986  0.2712 -2.6026 -1.9490
  444THF     H5 9864   3.693   1.059   1.860 -0.8951 -2.7960 -0.1251
  444THF     H6 9865   3.645   1.180   2.204 -0.1578 -2.5219  0.2862
  444THF     H7 9866   3.820   1.213   2.223 -0.6224 -0.6968  0.2967
  444THF     C8 9867   3.712   1.322   2.058  0.4383 -0.4817  0.8393
  444THF     C9 9868   3.660   1.261   1.926  0.3438  0.6268  0.1706
  444THF    H10 9869   3.800   1.379   2.029  0.6424 -1.8359 -1.4318
  444THF    H11 9870   3.638   1.388   2.102  0.0573  0.0437 -0.5424
  444THF    H12 9871   3.562   1.302   1.900  0.3413  0.9127  0.6347
  444THF    H13 9872   3.729   1.272   1.843 -0.7519 -0.9243 -1.0187
  445THF     O1 9873   3.423   3.410   3.482 -0.0840 -0.2690 -0.0344
  445THF     C2 9874   3.328   3.307   3.501  0.1273  0.0107  0.3241
  445THF     C3 9875   3.355   3.527   3.423  0.0059  0.6722  0.5445
  445THF     H4 9876   3.262   3.334   3.584 -2.0832 -0.6433 -1.1238
  445THF     H5 9877   3.368   3.210   3.530 -0.7046 -0.3310  0.3739
  445THF     H6 9878   3.332   3.610   3.491  0.4992 -0.6052  2.3479
  445THF     H7 9879   3.410   3.568   3.338  0.0213  2.8866  1.5355
  445THF     C8 9880   3.233   3.470   3.355  0.3370  0.1135 -0.5541
  445THF     C9 9881   3.246   3.318   3.371 -0.6045  0.1694 -0.3776
  445THF    H10 9882   3.232   3.492   3.248 -1.0558  3.0722 -0.0342
  445THF    H11 9883   3.133   3.496   3.389 -0.4942  0.3872 -3.0123
  445THF    H12 9884   3.153   3.262   3.376 -0.9239  0.7583  0.8437
  445THF    H13 9885   3.305   3.275   3.290 -0.1190 -1.1113  0.6347
  446THF     O1 9886   0.133   5.260   0.850 -0.6484 -0.9005 -0.2731
  446THF     C2 9887   0.046   5.350   0.780 -0.3390 -0.4872  0.3345
  446THF     C3 9888   0.265   5.303   0.806  0.1795  0.0289 -0.1911
  446THF     H4 9889   0.052   5.453   0.814  0.0812 -0.8396  1.3551
  446THF     H5 9890  -0.059   5.321   0.781 -0.5422  0.0967  2.6889
  446THF     H6 9891   0.298   5.393   0.857  2.2681 -0.9977  0.3680
  446THF     H7 9892   0.336   5.225   0.835  0.9180  1.9590  3.9208
  446THF     C8 9893   0.251   5.325   0.660 -0.2659  0.6000 -0.4385
  446THF     C9 9894   0.099   5.338   0.639 -0.1083  0.6549  0.3316
  446THF    H10 9895   0.300   5.239   0.615 -1.1563  0.3153 -0.8891
  446THF    H11 9896   0.300   5.419   0.634 -1.2068  1.3964  0.5654
  446THF    H12 9897   0.060   5.420   0.578 -0.7616 -0.7413 -1.2080
  446THF    H13 9898   0.049   5.250   0.598 -3.1821  0.9271  3.0548
  447THF     O1 9899   0.470   1.010   0.080  0.4688  0.7100 -0.3305
  447THF     C2 9900   0.506   1.082  -0.040 -0.2892  0.6250 -0.1461
  447THF     C3 9901   0.560   1.047   0.187  0.5465  0.0007 -0.1426
  447THF     H4 9902   0.419   1.070  -0.104  0.6801  0.5126 -1.4934
  447THF     H5 9903   0.594   1.033  -0.082 -2.2792 -3.4175 -0.0150
  447THF     H6 9904   0.530   1.028   0.290 -1.0456 -0.2352 -0.6184
  447THF     H7 9905   0.648   0.987   0.164  0.6367  0.4247 -0.9413
  447THF     C8 9906   0.581   1.190   0.154  0.0284  0.3798  0.8664
  447THF     C9 9907   0.513   1.220   0.022 -0.1469  0.3148 -0.2400
  447THF    H10 9908   0.688   1.203   0.140 -0.0514  0.4429  0.2759
  447THF    H11 9909   0.550   1.265   0.227 -2.1344 -0.1306  0.5515
  447THF    H12 9910   0.411   1.257   0.039 -0.1422 -0.1563  0.8749
  447THF    H13 9911   0.573   1.287  -0.040  0.6034  0.7105  0.8962
  448THF     O1 9912   4.046   3.521   3.693  0.1529 -0.1816 -0.3906
  448THF     C2 9913   4.169   3.461   3.699  0.0469 -0.3653  0.0760
  448THF     C3 9914   3.993   3.527   3.823  0.3121  0.2527  0.5841
  448THF     H4 9915   4.223   3.489   3.608 -0.8327 -0.3045 -0.4426
  448THF     H5 9916   4.152   3.354   3.708  0.3808 -0.4136  0.1570
  448THF     H6 9917   3.897   3.579   3.820  0.5392  0.6212 -1.1073
  448THF     H7 9918   3.961   3.428   3.855 -0.9971  0.5914  0.3922
  448THF     C8 9919   4.113   3.577   3.908  0.1235  1.0006  0.3957
  448THF     C9 9920   4.229   3.511   3.825 -0.7001 -0.0492  0.2804
  448THF    H10 9921   4.105   3.532   4.007  2.1515  1.0721  0.6484
  448THF    H11 9922   4.122   3.686   3.905  1.5479  0.8853 -1.8903
  448THF    H12 9923   4.312   3.580   3.808 -1.9928  1.2641 -1.0293
  448THF    H13 9924   4.274   3.428   3.879  0.8540  0.4017 -0.2811
  449THF     O1 9925   3.839   3.200   1.236 -0.5882 -0.1919  0.1299
  449THF     C2 9926   3.874   3.281   1.127 -0.5214 -0.3910  0.8205
  449THF     C3 9927   3.961   3.199   1.312  0.2299  0.6082  0.3924
  449THF     H4 9928   3.860   3.386   1.153  1.7810 -0.1473  1.3083
  449THF     H5 9929   3.814   3.269   1.037 -1.0297  0.6101  1.0126
  449THF     H6 9930   3.954   3.298   1.357 -0.0868  2.4586 -3.3051
  449THF     H7 9931   3.969   3.130   1.395 -0.6278  0.2645  0.2073
  449THF     C8 9932   4.073   3.193   1.215 -0.0146  0.6279  0.4174
  449THF     C9 9933   4.015   3.236   1.080  0.8554 -0.2177  0.0756
  449THF    H10 9934   4.111   3.090   1.210 -0.0952  0.6582 -2.5705
  449THF    H11 9935   4.171   3.238   1.230 -0.0056 -0.1088  3.1410
  449THF    H12 9936   4.072   3.324   1.048 -0.9057  1.9627  2.4803
  449THF    H13 9937   4.017   3.153   1.010 -0.3849  1.2534 -1.7841
  450THF     O1 9938   4.940   0.549   5.031  0.2611  0.1691  0.0201
  450THF     C2 9939   5.071   0.542   5.075  0.3685  0.3805 -0.1470
  450THF     C3 9940   4.923   0.465   4.914 -0.5236  0.0999  0.2954
  450THF     H4 9941   5.080   0.466   5.152  0.4678 -1.9981 -2.3576
  450THF     H5 9942   5.099   0.633   5.128  0.0336  1.4417 -1.7131
  450THF     H6 9943   4.840   0.394   4.914 -1.3085  0.9757  1.2442
  450THF     H7 9944   4.913   0.528   4.825  0.3988 -0.8017 -0.4598
  450THF     C8 9945   5.059   0.390   4.903 -0.1357  0.7935  0.2210
  450THF     C9 9946   5.153   0.492   4.962  0.1168  0.1948  0.4112
  450THF    H10 9947   5.078   0.356   4.801  0.5792  2.2146 -0.1367
  450THF    H11 9948   5.049   0.300   4.964 -0.6805 -0.8666 -2.1920
  450THF    H12 9949   5.249   0.452   4.996  0.3672  0.9110  0.5695
  450THF    H13 9950   5.181   0.571   4.892  0.5315 -1.7952 -1.7972
  451THF     O1 9951   1.054   1.342   2.105  0.4255  0.3044  0.6548
  451THF     C2 9952   0.921   1.301   2.074  0.4785 -0.1236  0.6800
  451THF     C3 9953   1.138   1.328   1.995 -0.5931  0.5205 -0.9580
  451THF     H4 9954   0.856   1.389   2.073  1.4385  0.5916 -0.3801
  451THF     H5 9955   0.882   1.218   2.133  0.2885 -2.1342 -2.0837
  451THF     H6 9956   1.174   1.426   1.964  0.8414  0.5736  0.7429
  451THF     H7 9957   1.229   1.277   2.025  0.2352  2.2105 -0.5049
  451THF     C8 9958   1.071   1.245   1.890 -0.2402  0.0602 -0.9200
  451THF     C9 9959   0.928   1.257   1.930 -0.3200 -0.4751 -0.4946
  451THF    H10 9960   1.111   1.144   1.901 -0.8974  0.0538  2.4232
  451THF    H11 9961   1.081   1.283   1.788  2.8694 -2.3826 -1.6777
  451THF    H12 9962   0.879   1.342   1.882 -0.7115 -0.6270 -0.3672
  451THF    H13 9963   0.867   1.170   1.908  0.2941 -0.6340 -1.6234
  452THF     O1 9964   3.795   3.069   3.810 -0.0544  0.4313 -0.8408
  452THF     C2 9965   3.938   3.080   3.812  0.5238  0.3001  0.3921
  452THF     C3 9966   3.756   2.934   3.772 -0.0132 -0.5594  0.0206
  452THF     H4 9967   3.977   3.120   3.906 -2.4157  2.0224  1.0337
  452THF     H5 9968   3.968   3.133   3.721 -1.0024  0.1798 -0.2063
  452THF     H6 9969   3.728   2.869   3.855 -3.9644  0.3890 -0.3842
  452THF     H7 9970   3.665   2.921   3.713 -0.7982 -0.5801  1.2103
  452THF     C8 9971   3.885   2.868   3.722 -0.1001 -0.6747 -0.4501
  452THF     C9 9972   3.990   2.938   3.803 -0.3187  0.3802  0.3774
  452THF    H10 9973   3.906   2.894   3.618 -1.2137  0.5108 -0.3920
  452THF    H11 9974   3.891   2.759   3.725  3.1942 -0.5750  0.0585
  452THF    H12 9975   3.982   2.889   3.900  0.0580  2.3744  1.4561
  452THF    H13 9976   4.088   2.931   3.756  0.4541  0.4769  1.9112
  453THF     O1 9977   3.609   2.056   2.711 -0.1896  0.1385  0.2250
  453THF     C2 9978   3.682   1.964   2.803  0.6238 -0.0869  0.0938
  453THF     C3 9979   3.710   2.138   2.647 -0.0420 -0.5731  0.4281
  453THF     H4 9980   3.742   1.883   2.761  0.8804 -0.5329  1.2724
  453THF     H5 9981   3.624   1.930   2.889  0.1419  3.5553  1.3673
  453THF     H6 9982   3.776   2.072   2.590  2.2641  2.5360 -0.8487
  453THF     H7 9983   3.676   2.220   2.582 -1.4137 -1.6620 -0.2854
  453THF     C8 9984   3.783   2.194   2.762  0.4876  0.3517 -0.0327
  453THF     C9 9985   3.791   2.065   2.853  0.0306 -0.2922 -0.3421
  453THF    H10 9986   3.727   2.272   2.812  1.4486 -0.6526  2.8480
  453THF    H11 9987   3.886   2.225   2.747  0.0282  2.8268  1.4238
  453THF    H12 9988   3.890   2.021   2.841  0.0070 -1.1623  2.1286
  453THF    H13 9989   3.770   2.082   2.959 -1.2324  0.9032 -0.7613
  454THF     O1 9990   1.380   0.919   1.671 -0.3897 -0.0987 -0.2121
  454THF     C2 9991   1.243   0.926   1.658  0.3620 -0.0722 -0.3663
  454THF     C3 9992   1.437   0.830   1.588 -0.3210  0.3169 -0.1231
  454THF     H4 9993   1.232   1.022   1.608 -0.0612  1.2951  2.1847
  454THF     H5 9994   1.189   0.933   1.752 -1.2964  2.7425 -1.3885
  454THF     H6 9995   1.499   0.888   1.520 -0.0335 -2.0300 -1.9847
  454THF     H7 9996   1.489   0.749   1.639  0.9495  0.1862 -1.5771
  454THF     C8 9997   1.327   0.771   1.499  0.3336 -0.3817  0.3792
  454THF     C9 9998   1.203   0.797   1.576 -0.4861 -0.4662 -0.5310
  454THF    H10 9999   1.331   0.664   1.479  0.1978 -0.2584 -0.3231
  454THF    H1110000   1.327   0.805   1.396 -0.1859 -1.3831  0.0372
  454THF    H1210001   1.113   0.813   1.517 -1.6204 -1.4334  0.8636
  454THF    H1310002   1.185   0.727   1.657 -0.5817  1.0000  0.7753
  455THF     O110003   1.944   0.977   1.830 -0.1734 -0.0672  0.4225
  455THF     C210004   1.838   0.920   1.903 -0.1504 -0.3010 -0.6963
  455THF     C310005   1.922   0.960   1.684  0.4774 -0.1887 -1.1528
  455THF     H410006   1.791   0.996   1.967 -0.2293  0.4202 -1.5953
  455THF     H510007   1.866   0.838   1.969  1.4582  0.9133  0.2209
  455THF     H610008   1.879   1.050   1.641  1.2560  0.2881 -0.9354
  455THF     H710009   2.012   0.940   1.627 -0.6411 -0.4961 -2.8904
  455THF     C810010   1.827   0.844   1.683  0.6614 -0.4829  0.1743
  455THF     C910011   1.737   0.873   1.802  0.5275 -1.3427 -0.4444
  455THF    H1010012   1.884   0.753   1.705 -0.8433 -1.4264  0.3246
  455THF    H1110013   1.770   0.813   1.595 -2.5241  0.1896  1.8684
  455THF    H1210014   1.668   0.955   1.782  1.9946  0.5705  1.7057
  455THF    H1310015   1.684   0.791   1.851 -2.0346 -0.5907 -1.7961
  456THF     O110016   4.327   1.852   2.117 -0.5416 -0.7749 -0.3273
  456THF     C210017   4.282   1.717   2.097  0.4745 -0.0987  0.2566
  456THF     C310018   4.283   1.923   2.006 -0.1523 -0.8387 -0.3719
  456THF     H410019   4.281   1.645   2.179 -3.1789 -3.6814 -2.4962
  456THF     H510020   4.362   1.675   2.035  0.5406  1.1138 -0.5012
  456THF     H610021   4.265   2.029   2.025  1.2553 -0.5540 -0.5226
  456THF     H710022   4.347   1.911   1.918 -1.3008 -0.7754 -1.2429
  456THF     C810023   4.154   1.859   1.962  0.4746 -0.3722 -0.7547
  456THF     C910024   4.151   1.721   2.013  0.1485 -0.0724 -0.0115
  456THF    H1010025   4.147   1.865   1.854 -0.3890  0.0102 -0.6863
  456THF    H1110026   4.066   1.911   2.000  1.5011  2.0910 -1.6059
  456THF    H1210027   4.071   1.702   2.085  1.8706 -0.0123  1.9818
  456THF    H1310028   4.150   1.641   1.938  1.5450  0.9277 -1.1421
  457THF     O110029   4.852   0.375   1.401 -0.1643  0.6445 -0.0943
  457THF     C210030   4.765   0.464   1.461  0.3011 -0.5815  0.2656
  457THF     C310031   4.971   0.361   1.485  0.1735 -0.4156  0.3636
  457THF     H410032   4.691   0.408   1.518  0.4678 -2.6998 -1.4637
  457THF     H510033   4.720   0.523   1.381  0.8099 -1.7695 -0.9377
  457THF     H610034   4.989   0.254   1.499  0.2771 -0.3704  0.5821
  457THF     H710035   5.058   0.399   1.432  1.2736 -0.3223  2.1258
  457THF     C810036   4.943   0.429   1.616  0.3687 -0.5699 -0.0883
  457THF     C910037   4.855   0.544   1.559 -0.5546  0.2052  0.0278
  457THF    H1010038   5.035   0.462   1.665  0.7924  0.3014 -1.4080
  457THF    H1110039   4.890   0.361   1.682 -0.0644 -0.2402 -0.0909
  457THF    H1210040   4.801   0.598   1.636  0.5836  0.7270  0.4844
  457THF    H1310041   4.905   0.622   1.501 -2.5776  2.5256  1.2228
  458THF     O110042   1.305   0.060   0.956  0.3743  0.0068  0.4584
  458THF     C210043   1.349  -0.055   1.025  0.8753  0.1171 -0.7692
  458THF     C310044   1.345   0.039   0.820 -0.0421  0.1731  0.7062
  458THF     H410045   1.282  -0.141   1.021  1.9029 -0.6816 -1.3565
  458THF     H510046   1.353  -0.032   1.132 -0.3628  1.4487 -0.9811
  458THF     H610047   1.282  -0.044   0.787 -0.4430  0.7115  0.1017
  458THF     H710048   1.327   0.124   0.754 -0.6223  0.2603  0.9652
  458THF     C810049   1.492   0.004   0.845  0.1336  0.4991 -0.5287
  458THF     C910050   1.489  -0.088   0.968  0.4009  0.0427  0.2001
  458THF    H1010051   1.539   0.095   0.883 -1.4041  1.0978 -0.0025
  458THF    H1110052   1.540  -0.056   0.767 -2.7856 -0.3273 -1.8193
  458THF    H1210053   1.479  -0.188   0.927 -0.9790  0.3409 -0.2381
  458THF    H1310054   1.574  -0.084   1.037  0.0945 -1.1579  0.6797
  459THF     O110055   2.750   0.396   3.162 -0.1098 -0.6127  0.3538
  459THF     C210056   2.856   0.485   3.155  0.1820  0.7546  0.0691
  459THF     C310057   2.664   0.421   3.056  0.0800  0.0345 -0.5274
  459THF     H410058   2.933   0.453   3.225  0.7905 -0.5890 -1.1549
  459THF     H510059   2.814   0.581   3.186 -1.2179  0.0979  0.2842
  459THF     H610060   2.578   0.358   3.034  0.2086 -0.1550 -0.4820
  459THF     H710061   2.628   0.524   3.061  2.8632  1.0606  0.9859
  459THF     C810062   2.767   0.418   2.951 -0.0023 -0.1298  0.5630
  459THF     C910063   2.895   0.480   3.009  0.8409  0.2364  0.1174
  459THF    H1010064   2.736   0.455   2.853 -2.3409 -1.4585  0.7228
  459THF    H1110065   2.797   0.315   2.933 -0.4930 -0.1025 -0.5135
  459THF    H1210066   2.986   0.429   2.980  0.4412 -0.7530  0.5571
  459THF    H1310067   2.894   0.586   2.983 -2.8097  0.7134  1.5642
  460THF     O110068   0.142   2.201   3.695 -0.0841 -0.0341  0.0854
  460THF     C210069   0.265   2.176   3.776  0.1197 -0.2463 -0.7763
  460THF     C310070   0.110   2.337   3.719  0.1617 -0.1675  0.0046
  460THF     H410071   0.317   2.082   3.754 -0.1555 -1.5436  3.3272
  460THF     H510072   0.252   2.162   3.883  1.7002 -1.9191 -0.7520
  460THF     H610073   0.080   2.383   3.625  0.8294  0.0868 -0.0904
  460THF     H710074   0.032   2.359   3.791 -0.6453  3.3683 -1.7212
  460THF     C810075   0.233   2.409   3.777 -0.3858  0.3361 -0.0623
  460THF     C910076   0.346   2.300   3.757  0.0657 -0.0523  0.3508
  460THF    H1010077   0.202   2.438   3.877  0.6406  0.1111  0.3346
  460THF    H1110078   0.253   2.500   3.719 -0.6975 -1.0426 -2.4923
  460THF    H1210079   0.372   2.315   3.652 -2.8899 -0.9812 -0.6151
  460THF    H1310080   0.431   2.304   3.826 -1.9141 -1.2905  3.0354
  461THF     O110081   1.734   2.382   3.472 -0.2342  0.0308 -0.1885
  461THF     C210082   1.657   2.314   3.374 -0.0484 -0.1647  0.6901
  461THF     C310083   1.768   2.284   3.575 -0.4900  0.3103 -0.3205
  461THF     H410084   1.723   2.241   3.326 -1.5228  0.4327 -2.4926
  461THF     H510085   1.601   2.380   3.308 -0.0091  0.9880  1.7768
  461THF     H610086   1.835   2.210   3.531 -0.4580 -1.7919  2.9615
  461THF     H710087   1.805   2.329   3.667 -0.8781 -1.0748  0.5442
  461THF     C810088   1.634   2.212   3.595  0.4583  0.2548 -0.1270
  461THF     C910089   1.561   2.237   3.460 -0.0027 -0.1080 -0.6574
  461THF    H1010090   1.587   2.251   3.686  1.8908  1.1320  0.2764
  461THF    H1110091   1.648   2.105   3.609  1.3694  0.3143 -0.5526
  461THF    H1210092   1.543   2.138   3.418 -1.9639  0.0436 -0.2769
  461THF    H1310093   1.457   2.268   3.472 -0.9244 -2.9356 -0.6906
  462THF     O110094   0.463   4.984   2.202  0.4707 -0.0617  0.3973
  462THF     C210095   0.379   5.062   2.286 -0.4380  0.2333  0.1865
  462THF     C310096   0.407   4.981   2.075  0.3745 -0.4218  0.3580
  462THF     H410097   0.440   5.103   2.366  0.4794 -0.4165 -0.1728
  462THF     H510098   0.293   5.000   2.311 -0.4280 -0.5860 -1.6673
  462THF     H610099   0.495   4.969   2.012  1.1130  2.3478  0.7224
  462THF     H710100   0.335   4.900   2.065  1.1747 -0.8491 -2.9735
  462THF     C810101   0.356   5.129   2.065 -0.0752  0.0524  0.4716
  462THF     C910102   0.329   5.175   2.195 -0.3047  0.3332 -0.4332
  462THF    H1010103   0.261   5.132   2.013 -0.8819 -0.3487  1.8841
  462THF    H1110104   0.432   5.195   2.023 -0.3292  0.6226  0.9101
  462THF    H1210105   0.374   5.273   2.216 -0.8612  0.9771 -2.0879
  462THF    H1310106   0.222   5.191   2.202 -0.4541 -1.1687  3.9411
  463THF     O110107   4.243   0.419   1.096 -0.8350 -0.2623  0.8925
  463THF     C210108   4.292   0.449   0.959  0.6588  0.2232 -0.2131
  463THF     C310109   4.129   0.339   1.081  0.0757  0.3768  0.0200
  463THF     H410110   4.345   0.370   0.907  2.3613  0.8990  0.4151
  463THF     H510111   4.361   0.532   0.941 -0.3968  1.1057 -0.3015
  463THF     H610112   4.138   0.241   1.035 -3.4468  0.0120 -0.1922
  463THF     H710113   4.076   0.325   1.175 -1.7296 -0.2892 -1.0466
  463THF     C810114   4.051   0.431   0.983  0.3244 -0.7081  0.1235
  463THF     C910115   4.157   0.473   0.886 -0.1246  0.2607 -0.5463
  463THF    H1010116   3.999   0.508   1.040 -3.1212 -2.0130 -1.0179
  463THF    H1110117   3.971   0.379   0.930  0.3748 -1.8557  1.1072
  463THF    H1210118   4.164   0.406   0.801  0.2306  0.4282 -0.6495
  463THF    H1310119   4.136   0.576   0.859 -2.2379  0.1293  0.4379
  464THF     O110120   3.470   3.915   0.655 -0.1564  0.0290 -0.4729
  464THF     C210121   3.597   3.961   0.625  0.7035  0.1040  0.6630
  464THF     C310122   3.397   4.015   0.723 -0.1355 -0.3528  0.1334
  464THF     H410123   3.609   4.022   0.536  2.5826 -0.8771  0.1878
  464THF     H510124   3.652   3.867   0.621 -2.3717 -1.9633  2.4045
  464THF     H610125   3.366   4.083   0.644  1.3601 -1.3423 -1.3917
  464THF     H710126   3.307   3.964   0.758 -0.8351 -0.1451 -1.2807
  464THF     C810127   3.491   4.080   0.810 -0.8497  0.2250  0.0997
  464THF     C910128   3.624   4.028   0.762 -0.1447  0.0783 -0.6851
  464THF    H1010129   3.488   4.059   0.917  0.2638 -1.0871 -0.0961
  464THF    H1110130   3.480   4.189   0.804  2.1102  0.6422  0.5250
  464THF    H1210131   3.698   4.109   0.757  1.2956 -1.1510 -0.2579
  464THF    H1310132   3.677   3.955   0.823 -1.1712 -1.7535 -1.9058
  465THF     O110133   2.527   3.994   2.521 -0.4641 -0.0816  0.7944
  465THF     C210134   2.439   4.013   2.414  0.3927 -0.7725  0.5458
  465THF     C310135   2.582   3.865   2.513 -0.0758  0.6225 -0.4551
  465THF     H410136   2.497   4.036   2.325  0.9943  1.4685  1.4394
  465THF     H510137   2.378   4.103   2.425  0.8638  0.0628 -2.7504
  465THF     H610138   2.675   3.872   2.455 -0.4148 -1.5268 -1.3338
  465THF     H710139   2.597   3.821   2.611  1.0870  1.3007 -0.3026
  465THF     C810140   2.470   3.782   2.461  0.3015 -0.5691 -0.3549
  465THF     C910141   2.370   3.883   2.403  0.6784  0.3790 -0.2805
  465THF    H1010142   2.412   3.741   2.544  1.3386  1.9329  1.7408
  465THF    H1110143   2.488   3.697   2.395  0.8918  0.0634 -1.0251
  465THF    H1210144   2.360   3.850   2.300 -2.2263  1.1465 -0.3334
  465THF    H1310145   2.270   3.880   2.445  0.4238  0.4144 -0.8666
  466THF     O110146   5.273   3.003   3.561  0.1342  0.2803  0.5294
  466THF     C210147   5.402   2.997   3.508  0.7042  0.1148  0.1095
  466THF     C310148   5.250   2.903   3.664  0.1609  0.0117 -0.0725
  466THF     H410149   5.434   3.095   3.470 -2.7042  1.9455  1.5740
  466THF     H510150   5.397   2.924   3.427  0.8426  1.0705 -0.7911
  466THF     H610151   5.170   2.938   3.731  1.1924  1.0594  0.6534
  466THF     H710152   5.216   2.815   3.610  2.1784  0.7119 -2.6460
  466THF     C810153   5.380   2.889   3.727 -1.0050 -0.3864 -0.5845
  466THF     C910154   5.480   2.958   3.632  0.0402 -0.4105  0.2106
  466THF    H1010155   5.412   2.786   3.739  0.1959  0.0328  0.0356
  466THF    H1110156   5.387   2.945   3.821 -0.7598  0.8264 -1.2988
  466THF    H1210157   5.528   3.040   3.686 -0.7021  0.4551 -0.4092
  466THF    H1310158   5.567   2.895   3.611  1.0311  1.2476 -0.9247
  467THF     O110159   0.661   1.507   3.910  0.5893 -0.3472  0.5343
  467THF     C210160   0.594   1.482   3.786 -0.0832 -0.4316  1.1679
  467THF     C310161   0.578   1.466   4.010  0.3269 -0.0629 -0.1273
  467THF     H410162   0.588   1.373   3.782  2.5941 -0.5948 -0.2046
  467THF     H510163   0.645   1.505   3.693 -1.3131  1.3771  0.8855
  467THF     H610164   0.564   1.358   4.016  1.6002 -0.1455  2.7346
  467THF     H710165   0.631   1.493   4.101 -2.8522  0.6724  1.6709
  467THF     C810166   0.444   1.538   3.971 -0.4169 -0.3335  1.0703
  467THF     C910167   0.463   1.561   3.822  0.0339  0.6104 -0.1216
  467THF    H1010168   0.434   1.635   4.020  0.8463 -0.8165  2.3480
  467THF    H1110169   0.350   1.485   3.990 -2.2134  2.0282 -0.5408
  467THF    H1210170   0.388   1.505   3.766  0.4009  0.6461 -0.6489
  467THF    H1310171   0.470   1.665   3.790  0.5075  0.6262  0.0327
  468THF     O110172   2.583   0.423   4.712  0.7132  0.7476 -0.2172
  468THF     C210173   2.592   0.408   4.847 -0.2532 -0.1360  0.2007
  468THF     C310174   2.528   0.301   4.664 -0.2766  0.1363  0.1972
  468THF     H410175   2.499   0.401   4.904 -0.9486  1.3659 -0.6885
  468THF     H510176   2.651   0.486   4.895 -1.8908  0.4874  1.2784
  468THF     H610177   2.420   0.292   4.666 -0.5109  2.1887 -0.7801
  468THF     H710178   2.564   0.296   4.560 -2.1660  1.4632 -0.5589
  468THF     C810179   2.600   0.191   4.743 -0.1220 -0.0242  0.1426
  468THF     C910180   2.665   0.272   4.856  0.1062  0.4982  0.1847
  468THF    H1010181   2.676   0.133   4.690 -0.1292 -0.8585  1.0171
  468THF    H1110182   2.523   0.118   4.770 -0.2575 -0.2452 -0.8012
  468THF    H1210183   2.656   0.226   4.954  0.5100  3.2320  1.5935
  468THF    H1310184   2.770   0.291   4.834  0.2608 -0.3021  0.2014
  469THF     O110185   3.370   0.220   2.265  0.3154 -0.7831 -0.2414
  469THF     C210186   3.287   0.210   2.146  0.2487  0.9065 -0.3967
  469THF     C310187   3.432   0.099   2.297 -0.3033 -0.3839  0.1174
  469THF     H410188   3.346   0.231   2.056 -0.1443 -1.6935 -1.3563
  469THF     H510189   3.205   0.281   2.149  0.9471  1.7320  2.0987
  469THF     H610190   3.520   0.079   2.234 -1.7399 -1.4803 -1.6405
  469THF     H710191   3.459   0.104   2.402 -1.3778 -0.8459  0.4226
  469THF     C810192   3.329   0.001   2.257 -0.1631  0.4987  0.1857
  469THF     C910193   3.259   0.056   2.130 -0.7003 -0.1810 -0.2408
  469THF    H1010194   3.257  -0.009   2.338  0.4664 -0.5567  0.6370
  469THF    H1110195   3.387  -0.091   2.241  1.0009  1.3893 -0.9835
  469THF    H1210196   3.313   0.012   2.046 -1.5009 -0.1841 -0.7586
  469THF    H1310197   3.155   0.027   2.119 -0.4161 -1.1324 -0.5064
  470THF     O110198   4.574   4.650   5.267  0.2237 -0.4494  0.1686
  470THF     C210199   4.567   4.587   5.137 -0.0689 -0.5332  0.3217
  470THF     C310200   4.617   4.783   5.251  0.5033 -0.6436  0.1192
  470THF     H410201   4.499   4.503   5.123  0.2966 -0.5472 -1.7691
  470THF     H510202   4.665   4.540   5.128 -0.1507 -0.6697  0.1502
  470THF     H610203   4.567   4.845   5.325  0.1229 -0.4778 -0.2770
  470THF     H710204   4.725   4.775   5.263  0.2529 -2.2045  1.7766
  470THF     C810205   4.571   4.828   5.108  0.5798 -0.7193 -0.2385
  470THF     C910206   4.538   4.697   5.038 -0.0526 -0.5236  0.1857
  470THF    H1010207   4.642   4.891   5.054 -0.2688 -0.1655 -0.7139
  470THF    H1110208   4.479   4.885   5.106  0.1704 -1.3841 -0.7976
  470THF    H1210209   4.443   4.699   4.985  1.5548 -1.9113 -3.0048
  470THF    H1310210   4.603   4.678   4.952  0.4258 -1.9408  0.8313
  471THF     O110211   1.526   3.092   3.937  0.4867  0.2104  0.8973
  471THF     C210212   1.608   3.208   3.944  0.0686  0.5285  0.3884
  471THF     C310213   1.588   2.995   3.861 -0.5660  0.0405  0.5858
  471THF     H410214   1.695   3.191   4.008 -0.0274  1.0930  0.6700
  471THF     H510215   1.546   3.283   3.993  0.1709 -0.0549  1.4590
  471THF     H610216   1.668   2.964   3.928 -1.8066  1.7278  2.9945
  471THF     H710217   1.519   2.912   3.842 -0.0457 -0.7628  2.0463
  471THF     C810218   1.641   3.074   3.741  0.0760 -0.4652  0.4483
  471THF     C910219   1.650   3.217   3.796 -0.7572 -0.3887  0.1199
  471THF    H1010220   1.564   3.066   3.664  0.4048  1.1544 -0.0812
  471THF    H1110221   1.730   3.027   3.698 -1.1218 -2.0686 -0.3708
  471THF    H1210222   1.749   3.256   3.776 -1.8985  2.3293 -0.7720
  471THF    H1310223   1.575   3.282   3.750  1.4816  1.1530 -1.5391
  472THF     O110224   1.804   3.533   2.629  0.4338  0.1235  0.3674
  472THF     C210225   1.925   3.531   2.699  0.5825 -0.2965 -0.3702
  472THF     C310226   1.821   3.506   2.488 -0.2377 -0.3215 -0.2533
  472THF     H410227   1.909   3.529   2.807 -0.1916  1.6802 -0.4046
  472THF     H510228   1.974   3.627   2.687 -1.1851  0.8600  1.0312
  472THF     H610229   1.747   3.440   2.441 -0.4397 -0.6490  0.5119
  472THF     H710230   1.819   3.596   2.426 -0.3033  1.0659  1.6817
  472THF     C810231   1.960   3.435   2.487 -0.0901 -0.5090 -0.0025
  472THF     C910232   2.012   3.427   2.631  0.5452  0.3352  0.1354
  472THF    H1010233   2.036   3.476   2.421 -2.3784  2.3678 -1.1201
  472THF    H1110234   1.941   3.335   2.449 -1.1913 -0.0721 -0.6295
  472THF    H1210235   1.988   3.327   2.667  0.2908  0.3747  0.0811
  472THF    H1310236   2.118   3.427   2.655  0.7802  0.1360 -0.8614
  473THF     O110237   1.405   2.019   3.780  0.3145 -0.2366  0.1254
  473THF     C210238   1.267   2.042   3.756  0.0931 -0.0809 -0.1790
  473THF     C310239   1.462   1.904   3.722 -0.3654  0.0857  0.0318
  473THF     H410240   1.242   2.146   3.736  2.9095  0.8089  0.5490
  473THF     H510241   1.209   2.006   3.841  0.4531  0.6975  0.4086
  473THF     H610242   1.524   1.924   3.635  0.0396  0.5197  0.4091
  473THF     H710243   1.511   1.842   3.798 -1.9236  1.4518  2.2881
  473THF     C810244   1.341   1.821   3.668  0.0856  0.1112 -0.6759
  473THF     C910245   1.237   1.935   3.641 -0.5071  0.2158 -0.0154
  473THF    H1010246   1.301   1.746   3.736  1.4381 -1.1553 -1.2138
  473THF    H1110247   1.368   1.766   3.578 -2.2085 -1.5080 -0.4685
  473THF    H1210248   1.261   1.974   3.542 -1.5732  1.0516  0.0440
  473THF    H1310249   1.133   1.903   3.644 -0.3335 -0.3948  3.1642
  474THF     O110250   4.121   2.633   4.461 -0.0684  0.6800  0.3216
  474THF     C210251   4.156   2.495   4.502 -0.7822 -0.6615 -0.6056
  474THF     C310252   4.120   2.626   4.315  0.3589  0.7568 -1.7189
  474THF     H410253   4.071   2.429   4.488 -0.9474 -1.1110  2.0608
  474THF     H510254   4.182   2.493   4.607 -0.8489 -2.9492 -0.6003
  474THF     H610255   4.017   2.610   4.282  0.1105  1.1504 -1.1648
  474THF     H710256   4.156   2.716   4.265 -0.6624  1.9124 -0.4717
  474THF     C810257   4.225   2.509   4.278 -0.1549  0.7879 -0.5223
  474THF     C910258   4.278   2.455   4.414 -0.5308  0.5335  0.7146
  474THF    H1010259   4.307   2.555   4.224  0.8842  0.3666  0.6522
  474THF    H1110260   4.161   2.442   4.221 -0.8376  0.1997  0.8836
  474THF    H1210261   4.298   2.348   4.406 -0.8450  0.5783 -1.0016
  474THF    H1310262   4.364   2.512   4.451 -1.8034  1.4161  2.4689
  475THF     O110263   0.028   3.726   3.118 -0.6570 -0.5388 -0.0334
  475THF     C210264   0.071   3.782   3.243  0.1827  0.1535  1.0131
  475THF     C310265   0.129   3.626   3.074 -0.7810 -0.5239  0.0035
  475THF     H410266  -0.014   3.802   3.308  0.5524  0.2409  1.4838
  475THF     H510267   0.138   3.864   3.218 -0.8592  0.0315 -2.6488
  475THF     H610268   0.089   3.536   3.028  2.2305 -1.3455 -1.2383
  475THF     H710269   0.190   3.675   2.999  0.9064 -1.7290  0.5402
  475THF     C810270   0.216   3.593   3.190  0.2637  0.4920  0.3037
  475THF     C910271   0.159   3.671   3.304 -0.6533 -0.3131  0.3250
  475THF    H1010272   0.319   3.623   3.172 -0.0571  1.6597  0.2742
  475THF    H1110273   0.219   3.487   3.212  0.4907 -0.3657 -3.2789
  475THF    H1210274   0.091   3.613   3.366 -1.9346  1.1630  0.3739
  475THF    H1310275   0.236   3.715   3.368  0.8987 -0.1485 -1.5776
  476THF     O110276   0.461   3.654   1.765 -0.3014  0.1668 -0.0838
  476THF     C210277   0.571   3.560   1.780 -0.0002  0.5032 -0.5334
  476THF     C310278   0.494   3.770   1.841 -0.4144  0.0504  0.0225
  476THF     H410279   0.650   3.571   1.705  0.5242  2.2945  0.2140
  476THF     H510280   0.536   3.457   1.781 -0.0430  0.4773  1.8482
  476THF     H610281   0.495   3.866   1.789 -0.1371 -0.7217 -1.4211
  476THF     H710282   0.424   3.786   1.923  0.6373  0.5477  0.8532
  476THF     C810283   0.631   3.742   1.909  0.3023  0.4128  0.0526
  476THF     C910284   0.631   3.591   1.918 -0.5457  0.0460  0.5941
  476THF    H1010285   0.629   3.797   2.003  0.4011 -1.9372  1.5104
  476THF    H1110286   0.705   3.781   1.839  0.9789 -0.1145  0.4565
  476THF    H1210287   0.731   3.548   1.927  0.2743  1.9936  1.2359
  476THF    H1310288   0.570   3.552   1.999 -1.6856 -0.0560 -0.2828
  477THF     O110289   1.406   3.372   3.403 -0.3437 -0.5305 -0.9476
  477THF     C210290   1.402   3.254   3.485  0.4490  0.4815 -0.6684
  477THF     C310291   1.498   3.348   3.316 -0.4626 -0.2758 -0.1160
  477THF     H410292   1.310   3.236   3.539 -1.0750 -0.5769 -3.4066
  477THF     H510293   1.480   3.264   3.561 -1.9090  0.8975  1.8291
  477THF     H610294   1.491   3.421   3.235  1.0607  0.7945  0.6752
  477THF     H710295   1.600   3.366   3.350 -1.1182  1.9602  0.8368
  477THF     C810296   1.482   3.205   3.262 -0.1061  0.2839  0.1045
  477THF     C910297   1.428   3.136   3.385 -0.2200 -1.4262  0.3864
  477THF    H1010298   1.581   3.165   3.238 -0.5062 -0.5132 -0.2672
  477THF    H1110299   1.403   3.209   3.187  0.6187  0.3373 -0.6788
  477THF    H1210300   1.331   3.094   3.360 -1.3906  1.7359 -0.8663
  477THF    H1310301   1.494   3.057   3.423  0.0481 -1.5778 -0.3843
  478THF     O110302   1.544   0.349   4.415 -0.1177 -0.2405 -0.3964
  478THF     C210303   1.614   0.379   4.300 -0.5163 -0.3481  0.3288
  478THF     C310304   1.620   0.370   4.535  0.5699 -0.1194  0.6213
  478THF     H410305   1.589   0.484   4.287  0.0902  0.4827  4.5290
  478THF     H510306   1.591   0.318   4.213 -0.9795 -1.9857  1.5421
  478THF     H610307   1.593   0.472   4.562 -0.6916 -0.6620  1.5556
  478THF     H710308   1.600   0.309   4.623  1.5458 -0.1651  0.8225
  478THF     C810309   1.763   0.368   4.488  0.1163 -0.4080 -0.4514
  478THF     C910310   1.761   0.352   4.336 -0.1451  0.5265  0.3260
  478THF    H1010311   1.820   0.281   4.521  0.2582  0.6606  2.3334
  478THF    H1110312   1.817   0.458   4.517  0.0502 -0.2626 -0.7754
  478THF    H1210313   1.827   0.424   4.287  1.3487  1.1965  3.1289
  478THF    H1310314   1.787   0.252   4.300 -0.1375  0.4824  0.4530
  479THF     O110315   2.515   4.729   3.803 -0.2552 -0.2880 -0.2463
  479THF     C210316   2.560   4.742   3.666  0.6770 -0.0057 -0.1654
  479THF     C310317   2.379   4.699   3.793  0.2906 -0.3266 -0.4403
  479THF     H410318   2.565   4.643   3.623  0.1797 -1.0709  2.0833
  479THF     H510319   2.657   4.793   3.665  0.6129  0.1755  0.9909
  479THF     H610320   2.351   4.597   3.766  1.1178 -0.3997 -1.0777
  479THF     H710321   2.332   4.717   3.889  1.4416 -2.1656  0.5336
  479THF     C810322   2.325   4.801   3.689  0.3804 -0.5630 -0.6764
  479THF     C910323   2.449   4.839   3.609 -0.5741  0.1561 -0.2288
  479THF    H1010324   2.280   4.890   3.732 -1.7797 -0.3824 -3.1099
  479THF    H1110325   2.255   4.762   3.616 -0.6913 -0.2011  0.1323
  479THF    H1210326   2.438   4.839   3.501 -1.2021  2.8839 -0.2200
  479THF    H1310327   2.486   4.938   3.634 -1.3456 -0.0233  1.8276
  480THF     O110328   1.642   2.590   5.258 -0.4200 -0.1371 -0.5718
  480THF     C210329   1.522   2.580   5.183  0.5853  0.1128 -0.6780
  480THF     C310330   1.733   2.676   5.195  0.5092 -0.0976  0.1936
  480THF     H410331   1.439   2.542   5.242  2.9315 -0.1337  2.7415
  480THF     H510332   1.525   2.523   5.090 -2.5073  0.5488 -1.1488
  480THF     H610333   1.826   2.693   5.249  2.2716  0.1593 -2.6916
  480THF     H710334   1.767   2.652   5.094 -1.4898  0.1172 -0.5746
  480THF     C810335   1.647   2.802   5.179  0.2488  0.5471  0.4008
  480THF     C910336   1.507   2.731   5.178  0.5790 -0.8986  0.1748
  480THF    H1010337   1.668   2.867   5.094  1.0636 -0.8613 -0.5309
  480THF    H1110338   1.662   2.859   5.270  2.3598  1.0749 -0.2246
  480THF    H1210339   1.450   2.769   5.262 -0.9163  3.1406 -2.3858
  480THF    H1310340   1.454   2.768   5.090  1.7630  0.9598  0.2038
  481THF     O110341   3.914   2.341   4.109  0.4148  0.1143  0.0899
  481THF     C210342   3.816   2.343   4.005 -0.2122 -0.2101  0.5475
  481THF     C310343   3.946   2.207   4.142  0.3173 -0.1509  0.2621
  481THF     H410344   3.875   2.324   3.915  0.4018 -0.3995  0.9802
  481THF     H510345   3.754   2.432   3.995 -1.2021 -0.7729  1.4664
  481THF     H610346   4.023   2.161   4.079  0.3602 -0.2049  0.3549
  481THF     H710347   3.977   2.180   4.242 -1.1550 -0.7154  0.5859
  481THF     C810348   3.815   2.135   4.127 -0.1490 -0.4200 -0.0130
  481THF     C910349   3.724   2.222   4.033 -0.0699  0.2976 -0.8950
  481THF    H1010350   3.768   2.148   4.225  0.1077 -0.2880  0.0934
  481THF    H1110351   3.825   2.032   4.092 -0.1332 -0.1185 -0.9235
  481THF    H1210352   3.674   2.176   3.949 -3.6214  1.6293  0.3247
  481THF    H1310353   3.646   2.274   4.089  1.3240  1.9136 -0.3569
  482THF     O110354   0.435   3.200   1.977  0.7702 -0.0933 -0.1552
  482THF     C210355   0.385   3.168   1.845  0.4544 -0.0917  0.5528
  482THF     C310356   0.353   3.125   2.069 -1.2243 -0.4305  0.2823
  482THF     H410357   0.446   3.206   1.763 -0.3527  0.2842  0.1128
  482THF     H510358   0.287   3.215   1.835  0.3876 -0.5454 -1.1448
  482THF     H610359   0.403   3.134   2.165  1.6118  0.3661 -1.1658
  482THF     H710360   0.263   3.188   2.071 -0.5541  0.6668 -1.4738
  482THF     C810361   0.355   2.988   2.006 -0.1202  0.2805  0.1772
  482THF     C910362   0.361   3.013   1.855 -0.2204 -0.5130 -0.4598
  482THF    H1010363   0.267   2.929   2.032 -1.6273  2.8056  1.2278
  482THF    H1110364   0.433   2.919   2.036  0.0706 -0.0417 -1.0033
  482THF    H1210365   0.443   2.957   1.810  1.1823  0.2842  1.0029
  482THF    H1310366   0.264   2.994   1.809 -1.4627  0.6056  1.5187
  483THF     O110367   5.276   3.403   3.421 -0.1405  0.1851 -0.1315
  483THF     C210368   5.312   3.540   3.387  0.6709  0.3816  0.0680
  483THF     C310369   5.155   3.368   3.371  0.3926 -0.2217  0.0972
  483THF     H410370   5.392   3.539   3.314 -0.0973  1.3141 -0.8004
  483THF     H510371   5.330   3.593   3.481 -3.6678  2.4301  0.0186
  483THF     H610372   5.169   3.328   3.270 -0.9179 -1.8771  0.5122
  483THF     H710373   5.098   3.296   3.430  1.9687 -0.9747  0.7581
  483THF     C810374   5.083   3.500   3.353 -0.3490  0.3956 -0.6440
  483THF     C910375   5.189   3.600   3.318  0.4364 -0.0213 -0.0111
  483THF    H1010376   5.023   3.526   3.440 -0.8883  0.5395 -1.0575
  483THF    H1110377   5.000   3.491   3.283 -1.4683  0.0428  0.6742
  483THF    H1210378   5.202   3.623   3.212 -0.0525 -2.1599 -0.5781
  483THF    H1310379   5.163   3.690   3.373  0.1170  0.8317 -1.4850
  484THF     O110380   2.062   3.275   5.189  0.1232 -0.2989  0.5801
  484THF     C210381   2.000   3.156   5.137 -0.4716 -0.3752  0.5154
  484THF     C310382   2.208   3.258   5.151 -0.2178 -0.3316  0.1905
  484THF     H410383   2.001   3.169   5.028  0.0320 -0.8762  0.4545
  484THF     H510384   1.902   3.122   5.169  0.2217 -1.1421  1.8982
  484THF     H610385   2.196   3.277   5.045  0.9495 -2.4320 -0.3652
  484THF     H710386   2.272   3.340   5.183 -2.2181  1.8090 -0.9541
  484THF     C810387   2.240   3.113   5.184  0.4354 -0.1233  0.0499
  484THF     C910388   2.099   3.045   5.178  0.1070 -0.0888 -0.2356
  484THF    H1010389   2.287   3.094   5.280  0.6727 -3.5464 -0.6155
  484THF    H1110390   2.295   3.074   5.099 -0.1180 -2.9861  0.8872
  484THF    H1210391   2.108   2.966   5.104  0.7034 -1.1341  0.9111
  484THF    H1310392   2.090   3.023   5.285  2.3607  4.1152  1.0558
  485THF     O110393   2.537   1.692   3.744  0.2598  0.4779 -0.3286
  485THF     C210394   2.404   1.744   3.750  0.3402  0.2190  0.4430
  485THF     C310395   2.531   1.590   3.646 -1.8057 -0.3410 -0.3264
  485THF     H410396   2.391   1.839   3.800 -1.1686  0.1221  0.2705
  485THF     H510397   2.343   1.666   3.796  0.3222  0.2263  0.4314
  485THF     H610398   2.628   1.549   3.621 -2.5547 -3.2676  1.1365
  485THF     H710399   2.472   1.507   3.683 -1.5079  0.3568  1.8751
  485THF     C810400   2.474   1.665   3.529 -0.1994  0.5549  0.5496
  485THF     C910401   2.362   1.744   3.605  0.7201  0.1704 -0.6612
  485THF    H1010402   2.439   1.614   3.440  0.1822  0.2954  0.5438
  485THF    H1110403   2.549   1.737   3.496 -0.4682 -0.3650 -2.3552
  485THF    H1210404   2.362   1.848   3.572 -2.5104  0.1068 -1.2023
  485THF    H1310405   2.266   1.694   3.589  2.1330 -2.1608 -2.5657
  486THF     O110406   0.873   0.813   2.130  0.1612 -0.1946  0.4032
  486THF     C210407   0.795   0.869   2.028 -0.1184 -0.2168  0.8439
  486THF     C310408   1.003   0.807   2.073  0.2190 -0.2920 -0.9326
  486THF     H410409   0.803   0.978   2.020 -1.8018  0.0645  2.4347
  486THF     H510410   0.691   0.851   2.052 -0.8454  0.6238 -1.3968
  486THF     H610411   1.065   0.888   2.112 -2.9582  1.6794  0.3282
  486THF     H710412   1.047   0.711   2.101 -2.5312 -1.4745 -0.4191
  486THF     C810413   0.988   0.825   1.923  0.3235 -0.8963  0.1077
  486THF     C910414   0.842   0.792   1.901 -0.0092 -0.1533  0.4313
  486THF    H1010415   1.060   0.761   1.872  2.5572  1.1979  0.4157
  486THF    H1110416   1.006   0.928   1.893  0.5542 -0.8920  0.2552
  486THF    H1210417   0.806   0.833   1.807 -0.1393  0.5543  0.7807
  486THF    H1310418   0.819   0.685   1.910  0.4462 -0.4282 -1.4200
  487THF     O110419   3.920   1.691   4.021 -0.1490  0.1473 -0.4317
  487THF     C210420   3.969   1.727   4.143 -0.7148 -0.3170 -1.0020
  487THF     C310421   4.006   1.751   3.923  0.2782 -0.2220 -0.1914
  487THF     H410422   3.933   1.666   4.226  1.8644 -0.1194  0.3676
  487THF     H510423   3.951   1.831   4.172  2.5834  0.0420  0.1716
  487THF     H610424   3.989   1.711   3.822  2.4393  0.6446 -0.9542
  487THF     H710425   3.986   1.858   3.924 -0.8612 -0.3291 -2.4453
  487THF     C810426   4.142   1.719   3.972  0.0116  0.1770 -0.4854
  487THF     C910427   4.117   1.724   4.119 -0.2036 -0.0836 -1.1228
  487THF    H1010428   4.214   1.794   3.941 -0.4245 -0.1750 -2.4860
  487THF    H1110429   4.160   1.613   3.957  0.5306 -0.0782  1.6840
  487THF    H1210430   4.160   1.638   4.171  0.6223 -1.6587 -4.1708
  487THF    H1310431   4.167   1.814   4.154 -0.7957  0.2799 -1.1895
  488THF     O110432   4.357   2.780   2.963 -0.3691 -0.1566 -0.1061
  488THF     C210433   4.216   2.800   2.977 -0.1089  0.2395  0.2357
  488THF     C310434   4.430   2.900   2.981  0.2899 -0.1161  0.1298
  488THF     H410435   4.190   2.731   3.057 -0.6237  0.1039 -0.0482
  488THF     H510436   4.165   2.773   2.885 -2.2937 -0.1562  1.5011
  488THF     H610437   4.528   2.874   3.020  1.4574  0.3878 -2.3085
  488THF     H710438   4.446   2.946   2.884 -1.6083  1.3401  0.4385
  488THF     C810439   4.348   2.981   3.079  0.4116  0.0803  0.5854
  488THF     C910440   4.206   2.942   3.028  0.0295 -0.0628 -0.4804
  488THF    H1010441   4.360   3.088   3.060  1.5950 -0.3412 -1.2911
  488THF    H1110442   4.368   2.958   3.184  0.6799  0.9181  0.7278
  488THF    H1210443   4.130   2.947   3.107 -0.0267  0.3754 -0.5589
  488THF    H1310444   4.173   3.003   2.944  0.9113  1.2941  0.1234
  489THF     O110445   1.306   4.203   2.724 -0.4474 -0.4029 -0.2282
  489THF     C210446   1.281   4.321   2.796  0.3771 -0.1983 -0.1510
  489THF     C310447   1.193   4.123   2.734 -0.2089  0.0378  0.0401
  489THF     H410448   1.355   4.395   2.769  2.3588 -1.8431  0.5000
  489THF     H510449   1.304   4.306   2.901 -1.3202  1.5578  0.5215
  489THF     H610450   1.206   4.052   2.652  0.6046  1.1248 -0.7934
  489THF     H710451   1.184   4.076   2.832  0.1608 -0.4236 -0.1424
  489THF     C810452   1.086   4.221   2.695 -0.0164 -0.1839 -0.1616
  489THF     C910453   1.137   4.352   2.751 -0.1405  0.3194 -1.0078
  489THF    H1010454   0.989   4.205   2.743 -1.6476  5.4939 -0.9224
  489THF    H1110455   1.079   4.230   2.587 -0.1438  0.0500 -0.1346
  489THF    H1210456   1.145   4.424   2.670 -1.0964 -0.0724 -1.4727
  489THF    H1310457   1.067   4.382   2.828  1.0347  0.2073  0.1363
  490THF     O110458   0.169   3.779   5.207 -0.7048 -0.2049 -0.4149
  490THF     C210459   0.212   3.902   5.163  0.7449  0.1597  0.1897
  490THF     C310460   0.146   3.695   5.096 -0.8915 -0.8817 -0.1783
  490THF     H410461   0.242   3.967   5.245  0.4614 -0.4189  0.7614
  490THF     H510462   0.125   3.958   5.131 -0.4481 -0.3519  2.3196
  490THF     H610463   0.141   3.592   5.132  2.1644 -0.2860  2.5112
  490THF     H710464   0.050   3.725   5.056 -1.2627 -0.1456  1.1894
  490THF     C810465   0.258   3.731   4.997  0.0192 -0.9433 -0.1531
  490THF     C910466   0.313   3.862   5.065  0.0178  0.0698 -0.9087
  490THF    H1010467   0.218   3.748   4.897 -2.3108 -1.7418  0.5786
  490THF    H1110468   0.349   3.673   4.987  0.6119  0.3193 -3.0786
  490THF    H1210469   0.410   3.838   5.109  0.5438  3.7171  0.2449
  490THF    H1310470   0.331   3.938   4.989 -0.5376  2.2792  1.0602
  491THF     O110471   2.627   3.460   3.989  0.2912  0.5363  0.0096
  491THF     C210472   2.763   3.481   3.957 -0.0344  0.2074 -0.1709
  491THF     C310473   2.558   3.578   3.960 -0.5241 -0.0644  0.6548
  491THF     H410474   2.791   3.477   3.851  1.2001 -1.4644  0.1898
  491THF     H510475   2.827   3.412   4.011  0.4089  0.9960  0.3345
  491THF     H610476   2.557   3.576   3.851  2.2448  1.4946  0.4901
  491THF     H710477   2.462   3.588   4.010 -0.7984  2.3516 -0.2453
  491THF     C810478   2.658   3.688   4.016 -0.3157  0.0088  0.5320
  491THF     C910479   2.793   3.617   4.023  0.0970  0.2132 -0.2177
  491THF    H1010480   2.636   3.722   4.117  0.2192 -0.9181  0.9843
  491THF    H1110481   2.673   3.772   3.949 -1.3686  0.3224  0.6728
  491THF    H1210482   2.869   3.657   3.956  0.8658  0.0514  0.5435
  491THF    H1310483   2.835   3.606   4.123  2.3260  4.0939 -0.4998
  492THF     O110484   2.320   0.025   1.998  0.4665  0.0077 -0.4799
  492THF     C210485   2.432  -0.007   1.918  0.5523 -1.0217 -0.2174
  492THF     C310486   2.197   0.008   1.924  0.1985  0.0949 -0.3467
  492THF     H410487   2.524  -0.033   1.970  1.0648 -1.4773 -1.3310
  492THF     H510488   2.445   0.072   1.845  1.9250 -2.0136 -1.0870
  492THF     H610489   2.132  -0.049   1.991  1.1436 -0.1804  0.3507
  492THF     H710490   2.161   0.106   1.893  0.9141  0.6536  0.5295
  492THF     C810491   2.231  -0.086   1.801  0.1113 -0.1602  0.6990
  492THF     C910492   2.378  -0.120   1.830  0.4271 -0.3190 -0.0783
  492THF    H1010493   2.228  -0.034   1.706  0.3769  0.7755  1.1968
  492THF    H1110494   2.171  -0.177   1.793 -0.9415  0.6429 -1.3179
  492THF    H1210495   2.382  -0.219   1.877  3.4512 -1.1518 -1.7902
  492THF    H1310496   2.441  -0.138   1.743  0.8483 -0.3249  0.2240
  493THF     O110497   4.842   2.740   2.290  0.0404 -0.3129 -0.1591
  493THF     C210498   4.839   2.879   2.282 -0.3089  0.5784 -0.0479
  493THF     C310499   4.711   2.693   2.313  0.4936  0.5424  0.0852
  493THF     H410500   4.928   2.921   2.235 -0.9001 -0.8205 -2.6223
  493THF     H510501   4.827   2.916   2.384  0.7595  1.6161 -0.2697
  493THF     H610502   4.720   2.588   2.286  0.0253  0.4177  0.4046
  493THF     H710503   4.678   2.702   2.416  1.3611 -0.0822  0.4329
  493THF     C810504   4.635   2.771   2.206  0.4854 -0.0542 -0.1126
  493THF     C910505   4.720   2.893   2.192  0.8414 -0.5137  0.6956
  493THF    H1010506   4.532   2.788   2.236  0.2562 -1.9768  0.3575
  493THF    H1110507   4.631   2.712   2.115  0.7258 -0.8643  0.3813
  493THF    H1210508   4.761   2.886   2.091  1.2060 -3.0160  0.9412
  493THF    H1310509   4.660   2.983   2.200 -0.5964 -1.3623 -0.1242
  494THF     O110510   5.213   0.237   3.725  0.2078  0.0599 -0.0810
  494THF     C210511   5.176   0.189   3.851  0.7234 -0.3330  0.0166
  494THF     C310512   5.240   0.133   3.637 -0.4133  0.3833 -0.0115
  494THF     H410513   5.067   0.180   3.855  0.7500 -0.8577 -0.4086
  494THF     H510514   5.218   0.262   3.920 -1.3031  0.8461  0.1002
  494THF     H610515   5.157   0.122   3.567 -0.4039  2.3547 -0.3942
  494THF     H710516   5.323   0.175   3.580 -0.3378 -0.9385 -0.9213
  494THF     C810517   5.278   0.007   3.720  0.3450 -0.1918  0.3359
  494THF     C910518   5.238   0.049   3.860 -0.0132  0.1224  0.2556
  494THF    H1010519   5.382  -0.017   3.696 -0.9125 -2.5918 -3.7531
  494THF    H1110520   5.209  -0.070   3.684 -0.2894  1.2492 -1.6501
  494THF    H1210521   5.185  -0.023   3.922  0.9659 -1.5191 -0.7334
  494THF    H1310522   5.330   0.037   3.917 -0.1206 -2.4891  0.0398
  495THF     O110523   5.268   5.225   4.214  0.1971 -0.5252  0.1208
  495THF     C210524   5.389   5.175   4.240 -0.0742  0.6871 -0.4197
  495THF     C310525   5.266   5.287   4.089  0.7809 -0.1639 -0.6897
  495THF     H410526   5.382   5.072   4.277  2.6584  0.5340 -0.0859
  495THF     H510527   5.445   5.230   4.316  1.9526 -1.3527 -0.3011
  495THF     H610528   5.163   5.288   4.055  0.2334 -2.7703  0.5830
  495THF     H710529   5.290   5.392   4.105 -0.6345  0.0986 -0.0728
  495THF     C810530   5.365   5.210   4.003  0.0660 -0.0423  0.8883
  495THF     C910531   5.468   5.178   4.106 -0.6574 -0.4362  0.0113
  495THF    H1010532   5.400   5.275   3.922  1.2320  1.2602  2.3586
  495THF    H1110533   5.317   5.126   3.953  2.3216 -0.5498 -0.5871
  495THF    H1210534   5.514   5.081   4.087 -2.2973 -1.5054  1.1641
  495THF    H1310535   5.551   5.248   4.114  0.2710 -1.2299 -2.0068
  496THF     O110536   4.329   2.634   2.137 -0.0173 -0.5158  0.7379
  496THF     C210537   4.339   2.582   2.269 -0.8218 -0.2683  0.1762
  496THF     C310538   4.247   2.538   2.067  1.0291  0.0086 -0.3011
  496THF     H410539   4.375   2.663   2.333 -2.4813  1.3586 -0.8424
  496THF     H510540   4.405   2.495   2.261  0.6453  0.8744 -0.5665
  496THF     H610541   4.210   2.570   1.970  1.7894  0.0223 -0.5953
  496THF     H710542   4.299   2.442   2.059 -0.7827 -1.0750  0.2882
  496THF     C810543   4.134   2.510   2.173  0.0176 -0.3227  0.1033
  496THF     C910544   4.198   2.542   2.300  0.1437  0.1200 -0.6549
  496THF    H1010545   4.084   2.413   2.172 -0.4332 -0.0958 -0.6889
  496THF    H1110546   4.060   2.586   2.146 -1.0949 -2.2062 -2.6372
  496THF    H1210547   4.143   2.620   2.353  0.5870  0.3196 -0.4771
  496THF    H1310548   4.194   2.454   2.366  0.5032  1.1196  0.7521
  497THF     O110549   1.608   2.344   0.217  0.4269  0.2242 -0.7632
  497THF     C210550   1.658   2.264   0.106  0.4120 -0.5023  0.0041
  497THF     C310551   1.626   2.479   0.190  0.5071 -0.4295 -0.0885
  497THF     H410552   1.585   2.269   0.026  0.2706  3.4851  0.1605
  497THF     H510553   1.683   2.161   0.128 -0.5970 -0.4295  1.6765
  497THF     H610554   1.534   2.532   0.165  0.9074 -0.1326 -0.9851
  497THF     H710555   1.662   2.527   0.281  0.3977 -0.1586 -0.1867
  497THF     C810556   1.723   2.482   0.070  0.1265 -0.1973 -0.2575
  497THF     C910557   1.782   2.344   0.069 -0.6902  0.1409 -0.3027
  497THF    H1010558   1.790   2.568   0.068 -2.6725  2.1808  0.8507
  497THF    H1110559   1.670   2.499  -0.024 -0.5633  0.4940  0.2399
  497THF    H1210560   1.831   2.325  -0.027 -0.1747  2.1480 -0.4801
  497THF    H1310561   1.854   2.331   0.150 -0.3708  1.3525 -0.3683
  498THF     O110562   3.071   0.796   2.854 -0.0052  0.0381 -0.0180
  498THF     C210563   3.188   0.876   2.853  0.5649 -0.2278  0.0370
  498THF     C310564   3.101   0.668   2.803  0.2165  0.1397  0.1781
  498THF     H410565   3.247   0.876   2.945 -0.8972  0.0035  1.0105
  498THF     H510566   3.154   0.979   2.843 -1.0030 -0.3825  2.6892
  498THF     H610567   3.169   0.626   2.878 -0.7013 -0.8583  0.4672
  498THF     H710568   3.026   0.598   2.770 -0.2918 -0.0029  1.5653
  498THF     C810569   3.192   0.701   2.684 -0.8566  0.1811 -1.0252
  498THF     C910570   3.269   0.824   2.734  0.2644 -0.1199  0.9844
  498THF    H1010571   3.134   0.703   2.591 -0.4578  1.3341 -1.2648
  498THF    H1110572   3.255   0.613   2.673 -0.0006  0.4340  1.3993
  498THF    H1210573   3.371   0.797   2.760  0.3336 -1.2065 -0.2988
  498THF    H1310574   3.283   0.896   2.653  2.4712 -1.2647  0.2924
  499THF     O110575   0.434   2.536   1.615  0.0629  0.4442 -0.3187
  499THF     C210576   0.415   2.412   1.690  0.9551  0.0910 -0.0881
  499THF     C310577   0.517   2.610   1.702 -0.2248  0.2347 -0.6844
  499THF     H410578   0.488   2.334   1.670  0.1216 -0.5306 -0.8422
  499THF     H510579   0.311   2.389   1.666  0.3129  2.5279  0.1187
  499THF     H610580   0.619   2.572   1.708 -0.2538  0.3260  2.0923
  499THF     H710581   0.528   2.717   1.682 -1.6310  0.3545 -0.9245
  499THF     C810582   0.467   2.591   1.843  0.0725  0.4569 -1.1889
  499THF     C910583   0.423   2.452   1.843 -0.4284 -0.1810 -0.4441
  499THF    H1010584   0.378   2.651   1.862  1.1319  1.9834 -0.8724
  499THF    H1110585   0.540   2.602   1.923 -2.2580  1.0195  1.0215
  499THF    H1210586   0.490   2.392   1.905 -0.1163 -0.1499 -0.7499
  499THF    H1310587   0.324   2.441   1.888 -1.4887 -1.0372 -2.8469
  500THF     O110588   4.738   3.645   4.569 -0.2973  0.0191  0.5339
  500THF     C210589   4.806   3.558   4.659 -0.5084  0.3886 -0.8986
  500THF     C310590   4.599   3.618   4.578 -0.0099 -0.2901 -0.6270
  500THF     H410591   4.799   3.612   4.753 -1.1311  0.8242 -1.1857
  500THF     H510592   4.908   3.546   4.622 -0.8145  2.5609 -2.6599
  500THF     H610593   4.558   3.681   4.657 -0.2816 -0.7607 -0.3878
  500THF     H710594   4.550   3.635   4.483  0.3073  2.1380 -0.4138
  500THF     C810595   4.583   3.479   4.634 -0.1326 -0.3422 -0.4140
  500THF     C910596   4.721   3.435   4.673 -0.4435  0.0532 -0.3736
  500THF    H1010597   4.531   3.414   4.563  0.1907  0.0714 -1.0408
  500THF    H1110598   4.526   3.476   4.727 -0.9573  1.8271 -0.7756
  500THF    H1210599   4.713   3.390   4.772 -1.1722 -1.8714 -1.2709
  500THF    H1310600   4.753   3.355   4.607 -1.7982  1.2946 -2.6428
  501THF     O110601   1.901   4.575   1.427 -0.1401  0.4713  0.3070
  501THF     C210602   1.948   4.615   1.556 -0.4113 -0.7646  0.3432
  501THF     C310603   1.873   4.694   1.354 -0.2145  0.2086  0.2812
  501THF     H410604   2.050   4.653   1.544  0.6439 -2.6032  2.7555
  501THF     H510605   1.956   4.535   1.629  0.0927 -0.2998  0.8118
  501THF     H610606   1.968   4.737   1.322 -0.7078  1.2505  0.1570
  501THF     H710607   1.809   4.681   1.266 -1.1602 -0.8334  1.1134
  501THF     C810608   1.822   4.789   1.458  0.9199  0.2543  0.1254
  501THF     C910609   1.857   4.726   1.595  0.0672  0.3279 -1.1230
  501THF    H1010610   1.716   4.806   1.446  1.1593  3.0907  1.2264
  501THF    H1110611   1.883   4.878   1.443  2.0280 -0.6308 -0.8987
  501THF    H1210612   1.902   4.801   1.660 -2.1568  0.1380  0.7929
  501THF    H1310613   1.773   4.688   1.654 -0.4086  1.1844 -1.2232
  502THF     O110614   3.195   5.019   1.022  0.6890  0.2440  0.3149
  502THF     C210615   3.291   4.935   1.079 -0.2676 -0.2087 -0.5573
  502THF     C310616   3.075   4.943   0.991 -0.2516  0.2989  1.1155
  502THF     H410617   3.274   4.925   1.186  0.8067 -1.2450 -0.4565
  502THF     H510618   3.391   4.973   1.059 -0.0267 -0.6633 -0.2340
  502THF     H610619   3.006   4.931   1.074 -0.6953 -1.3805  0.5457
  502THF     H710620   3.019   4.980   0.905 -0.6472 -1.3691  0.6177
  502THF     C810621   3.133   4.810   0.944  0.4748 -0.3071 -0.2817
  502THF     C910622   3.270   4.807   0.995 -0.3398 -0.6604 -0.7495
  502THF    H1010623   3.130   4.804   0.835 -3.0727 -1.2853 -0.2719
  502THF    H1110624   3.066   4.734   0.985 -0.1898  1.1891  1.5459
  502THF    H1210625   3.278   4.711   1.045 -0.2002 -1.0856 -1.5747
  502THF    H1310626   3.330   4.805   0.905  1.8643 -0.0051  0.6131
  503THF     O110627   0.893   4.296   3.309 -0.0638  0.1691  0.1141
  503THF     C210628   0.788   4.341   3.387  0.1409 -0.0337  1.1353
  503THF     C310629   0.974   4.212   3.392 -0.3511 -0.0986 -0.2592
  503THF     H410630   0.705   4.362   3.320  1.2713  0.9903  0.0102
  503THF     H510631   0.809   4.436   3.434  0.0206 -0.6595  2.5036
  503THF     H610632   1.005   4.126   3.333  0.0116 -0.0199 -0.1855
  503THF     H710633   1.069   4.261   3.413 -0.5845  0.0182  0.5854
  503THF     C810634   0.894   4.167   3.510 -0.0815  0.6248  0.0438
  503THF     C910635   0.763   4.230   3.489  0.3712 -0.2274 -0.0485
  503THF    H1010636   0.940   4.210   3.599 -0.6725  2.5833 -0.5593
  503THF    H1110637   0.874   4.061   3.526  0.6811  0.5452  0.5389
  503THF    H1210638   0.696   4.149   3.459 -1.2592 -0.2361  3.2305
  503THF    H1310639   0.730   4.280   3.580 -0.4380 -0.1764 -0.3621
  504THF     O110640   0.876   0.785   4.268 -0.3165 -0.2325  1.0819
  504THF     C210641   1.011   0.764   4.238  0.6004 -0.4012  0.1372
  504THF     C310642   0.866   0.815   4.398 -0.2957  0.1954 -0.3228
  504THF     H410643   1.023   0.795   4.134  1.4847  1.7900  0.8333
  504THF     H510644   1.043   0.661   4.253  1.7509 -0.0342  0.2372
  504THF     H610645   0.770   0.855   4.433  0.5342  1.0687  1.0639
  504THF     H710646   0.887   0.730   4.464  0.1813  0.6520  0.1220
  504THF     C810647   0.979   0.913   4.416 -0.0904 -0.0646  0.0012
  504THF     C910648   1.095   0.855   4.336  0.5129  0.1644 -0.6129
  504THF    H1010649   1.000   0.933   4.521  1.6191  0.9416 -0.4822
  504THF    H1110650   0.956   1.016   4.388  0.6129 -0.1079 -0.7962
  504THF    H1210651   1.147   0.942   4.296  0.2672 -0.2964 -2.0058
  504THF    H1310652   1.152   0.791   4.405  0.3556 -0.1504 -0.7716
  505THF     O110653   3.865   4.372   4.502  0.1316  0.2343  0.3450
  505THF     C210654   3.856   4.516   4.495 -0.2982  0.2152 -0.1103
  505THF     C310655   3.938   4.315   4.393  0.5701  0.4542  0.2585
  505THF     H410656   3.830   4.550   4.595  0.5901  1.1349 -0.1676
  505THF     H510657   3.779   4.551   4.426  0.1541  3.0422  0.6857
  505THF     H610658   3.974   4.214   4.411 -1.6630 -0.3962  0.3127
  505THF     H710659   3.875   4.322   4.305  0.6320 -0.8065  0.1025
  505THF     C810660   4.046   4.425   4.371  0.5132  0.1624 -0.5448
  505THF     C910661   3.997   4.556   4.443  1.3627  0.1473 -0.6575
  505THF    H1010662   4.062   4.434   4.264  1.2409  2.2338 -0.3019
  505THF    H1110663   4.136   4.377   4.411  0.1060 -2.7483 -2.7452
  505THF    H1210664   4.052   4.561   4.537 -1.1181 -2.9707  1.1586
  505THF    H1310665   4.006   4.650   4.389 -0.6176  0.6343 -0.2173
  506THF     O110666   1.510   1.286   4.665  0.4963 -0.2820 -0.3926
  506THF     C210667   1.554   1.329   4.533  0.2573 -0.4237 -0.6809
  506THF     C310668   1.568   1.159   4.696  0.2964 -0.0237 -0.3047
  506THF     H410669   1.644   1.390   4.541 -0.4808  0.5790  0.4029
  506THF     H510670   1.478   1.395   4.491 -0.8883 -1.7672 -0.7858
  506THF     H610671   1.668   1.176   4.736 -0.8064  1.8046  1.8827
  506THF     H710672   1.520   1.106   4.778 -0.1230 -0.4945 -0.8462
  506THF     C810673   1.560   1.089   4.559  0.4387  0.9468 -0.0762
  506THF     C910674   1.567   1.202   4.454  0.3110  0.7222 -1.0325
  506THF    H1010675   1.468   1.030   4.552  0.5210  0.4457  2.2820
  506THF    H1110676   1.642   1.018   4.547  0.4423  0.5250  2.0439
  506THF    H1210677   1.656   1.213   4.392  1.4457  1.2659  0.6299
  506THF    H1310678   1.494   1.192   4.373  0.8045  0.3541 -1.4320
  507THF     O110679   1.556   3.393   0.793  0.2461  0.4390  0.6872
  507THF     C210680   1.546   3.473   0.903  0.0507  0.3569 -0.5321
  507THF     C310681   1.581   3.257   0.836  0.0030 -0.2750 -0.6763
  507THF     H410682   1.510   3.572   0.876 -1.5281 -0.3239 -1.0722
  507THF     H510683   1.645   3.488   0.946 -1.0398  0.5824  2.0250
  507THF     H610684   1.539   3.185   0.765  0.6986 -1.2265 -0.1496
  507THF     H710685   1.689   3.253   0.851  0.1339  3.3760  0.2539
  507THF     C810686   1.512   3.262   0.977 -0.5447  0.5921 -0.5175
  507THF     C910687   1.452   3.401   0.990 -0.3561 -0.0170 -0.4445
  507THF    H1010688   1.597   3.244   1.043 -0.3900  0.2136 -0.8192
  507THF    H1110689   1.437   3.183   0.975  0.8438 -0.7856  0.4616
  507THF    H1210690   1.347   3.406   0.959 -0.7242  1.0035  0.8986
  507THF    H1310691   1.453   3.430   1.095 -1.6451 -1.1646 -0.0738
  508THF     O110692   1.728   5.496   2.170  0.3603 -0.2526  0.0882
  508THF     C210693   1.793   5.508   2.040 -0.3588 -0.5031  0.1475
  508THF     C310694   1.805   5.412   2.243  0.3857 -0.1052 -0.0783
  508THF     H410695   1.884   5.567   2.051 -0.7754  0.3454 -0.8622
  508THF     H510696   1.726   5.556   1.969  0.4132 -0.1127 -0.3164
  508THF     H610697   1.890   5.476   2.268 -1.4550  2.9023 -1.0224
  508THF     H710698   1.757   5.349   2.318 -0.1910 -0.9643 -1.1447
  508THF     C810699   1.851   5.309   2.140  0.2229  0.0197  1.1996
  508THF     C910700   1.825   5.360   2.000  0.2032  0.7142  0.1012
  508THF    H1010701   1.795   5.216   2.142  1.5915 -0.8789 -0.1989
  508THF    H1110702   1.957   5.286   2.147  0.5893  0.0487 -2.5227
  508THF    H1210703   1.908   5.337   1.933 -3.0419  0.4404 -4.2584
  508THF    H1310704   1.737   5.316   1.953  0.3060 -2.1591  2.2585
  509THF     O110705   4.893   1.765   0.934  0.8103 -0.2431  0.2287
  509THF     C210706   4.971   1.771   0.817 -0.6054 -0.0901 -0.2702
  509THF     C310707   4.763   1.804   0.899 -0.1048 -0.1208 -0.6211
  509THF     H410708   5.060   1.710   0.828 -1.4321 -1.4799 -1.0518
  509THF     H510709   4.995   1.872   0.783 -0.4918 -1.1015 -3.4807
  509THF     H610710   4.687   1.781   0.974 -0.4016 -2.0350 -1.4470
  509THF     H710711   4.772   1.910   0.876 -1.2726  0.1288 -0.0035
  509THF     C810712   4.734   1.726   0.768 -0.4614  0.0611  0.7352
  509THF     C910713   4.876   1.704   0.721  0.0941  0.0149  0.8503
  509THF    H1010714   4.686   1.796   0.700  0.6387  0.2771  0.1593
  509THF    H1110715   4.668   1.639   0.773 -1.0797  0.3151 -1.6629
  509THF    H1210716   4.896   1.597   0.714  0.0211  0.0441  0.1171
  509THF    H1310717   4.880   1.747   0.621 -0.0705 -0.3349  0.6911
  510THF     O110718   3.611   2.268   0.946  0.5750  0.2492  0.2994
  510THF     C210719   3.616   2.124   0.914 -0.4050  0.0366 -0.5676
  510THF     C310720   3.549   2.274   1.072 -0.2762 -0.2817 -0.4640
  510THF     H410721   3.707   2.094   0.967  0.0397  0.5348 -1.0431
  510THF     H510722   3.625   2.100   0.808  0.4952 -0.9105 -0.2937
  510THF     H610723   3.624   2.286   1.150 -0.7461 -0.1922 -0.0213
  510THF     H710724   3.492   2.366   1.064  0.8874  0.5403  0.3686
  510THF     C810725   3.467   2.147   1.097  0.0964  0.2389  0.1051
  510THF     C910726   3.492   2.064   0.970 -1.4354  0.1608 -0.6974
  510THF    H1010727   3.362   2.176   1.092 -0.1203 -0.7079 -2.2263
  510THF    H1110728   3.494   2.094   1.189  0.1363 -0.9601 -0.5726
  510THF    H1210729   3.495   1.957   0.991 -0.7112  0.0452 -1.3458
  510THF    H1310730   3.413   2.094   0.901 -0.5538  1.1457 -1.3016
  511THF     O110731   2.865   4.016   3.219  0.0830 -0.0432  1.2282
  511THF     C210732   2.764   4.044   3.123 -0.3448 -0.3505 -0.2498
  511THF     C310733   2.984   4.061   3.170 -0.3839 -0.2849  0.3540
  511THF     H410734   2.671   4.053   3.180 -0.0801 -1.6536  0.4437
  511THF     H510735   2.771   3.964   3.049  0.9817  1.2976 -2.0116
  511THF     H610736   3.052   4.075   3.255  1.1436  2.0052 -1.1184
  511THF     H710737   3.020   3.999   3.087 -2.1760  0.9074 -1.4021
  511THF     C810738   2.949   4.191   3.106 -0.0177 -0.0519  0.6445
  511THF     C910739   2.802   4.182   3.078 -0.4436  0.5439 -0.0848
  511THF    H1010740   3.001   4.210   3.013 -0.3114  1.1078  0.6919
  511THF    H1110741   2.963   4.279   3.170 -1.8941  1.2107 -0.5597
  511THF    H1210742   2.748   4.257   3.136 -1.3275  0.0199 -0.2085
  511THF    H1310743   2.776   4.172   2.973 -0.3590 -1.4430  0.0470
  512THF     O110744   0.029   3.212   3.052 -0.3669  0.2185 -0.3691
  512THF     C210745   0.011   3.217   3.195  0.0345  0.4515  0.2048
  512THF     C310746   0.122   3.105   3.027 -0.0253  0.4834  0.1839
  512THF     H410747  -0.086   3.180   3.231 -0.7670  2.8276  0.6291
  512THF     H510748   0.023   3.317   3.236 -1.4793  1.0114 -0.6522
  512THF     H610749   0.066   3.012   3.026 -1.8760  1.5518 -0.5936
  512THF     H710750   0.171   3.110   2.930  0.1588 -1.8209  0.0993
  512THF     C810751   0.220   3.111   3.149  0.1376  0.4815  0.5987
  512THF     C910752   0.127   3.134   3.256 -0.2677  0.5848  0.6334
  512THF    H1010753   0.278   3.204   3.149 -0.0944  0.6326  1.7551
  512THF    H1110754   0.285   3.025   3.165 -2.2569 -1.5668 -0.1156
  512THF    H1210755   0.094   3.037   3.294 -1.2415  0.6448 -0.0275
  512THF    H1310756   0.178   3.184   3.338  3.6686 -0.9582 -0.6505
  513THF     O110757   3.788   0.108   3.206  0.7572  0.0442  0.2329
  513THF     C210758   3.741  -0.031   3.225 -0.2644  0.2369  0.0339
  513THF     C310759   3.757   0.140   3.073 -0.2338  0.3616  0.3982
  513THF     H410760   3.636  -0.035   3.254 -0.6805  1.4064 -1.1943
  513THF     H510761   3.809  -0.062   3.304  2.3547  0.0978 -2.1447
  513THF     H610762   3.658   0.187   3.069  0.1160  1.0700 -2.0528
  513THF     H710763   3.817   0.221   3.032 -0.6097  0.0257 -0.8700
  513THF     C810764   3.769   0.009   2.989 -0.2258 -0.1965 -0.7270
  513THF     C910765   3.760  -0.104   3.091 -0.0524  0.1631 -0.3375
  513THF    H1010766   3.866   0.014   2.938 -0.2353 -1.7055 -0.9477
  513THF    H1110767   3.682  -0.001   2.925 -2.3941 -0.9529  2.1153
  513THF    H1210768   3.679  -0.165   3.053  0.8866 -0.4079 -1.4576
  513THF    H1310769   3.845  -0.172   3.095  0.2850  0.6163  0.7707
  514THF     O110770   0.827   4.639   4.438  0.2853 -0.0196  0.0866
  514THF     C210771   0.778   4.523   4.511  0.4188  0.0524  0.2161
  514THF     C310772   0.727   4.739   4.424 -0.0714  0.1224 -0.6041
  514THF     H410773   0.826   4.520   4.608 -0.1456 -1.0726  0.4698
  514THF     H510774   0.790   4.430   4.456  3.3630  1.6690 -2.1815
  514THF     H610775   0.760   4.838   4.454  1.6634 -1.1279  1.9389
  514THF     H710776   0.672   4.738   4.329  0.7783 -0.3798 -1.1092
  514THF     C810777   0.627   4.703   4.533 -0.2231  0.1926 -0.5543
  514THF     C910778   0.629   4.550   4.525 -0.3046  0.0921  0.2069
  514THF    H1010779   0.528   4.747   4.519 -0.4841 -0.6613 -1.5673
  514THF    H1110780   0.661   4.727   4.634 -0.6017  1.6541 -0.7507
  514THF    H1210781   0.591   4.505   4.616  0.9798 -0.3934  0.5338
  514THF    H1310782   0.568   4.526   4.438  0.7300  2.0255 -1.1252
  515THF     O110783   1.306   3.016   1.608 -0.2801 -0.0365  0.0792
  515THF     C210784   1.208   3.122   1.606 -0.0755  0.6223 -0.3693
  515THF     C310785   1.319   2.970   1.739 -0.4775  0.3383  0.9291
  515THF     H410786   1.126   3.084   1.546  1.0813 -1.0065 -0.9847
  515THF     H510787   1.240   3.214   1.557 -2.1455  0.7923 -1.4867
  515THF     H610788   1.322   2.861   1.737  0.0454  0.3125 -2.7750
  515THF     H710789   1.408   3.012   1.785 -1.0724  2.5923  0.1567
  515THF     C810790   1.188   3.014   1.805 -0.6866 -0.1177 -0.2426
  515THF     C910791   1.169   3.147   1.754  0.2873 -0.2084 -0.5500
  515THF    H1010792   1.201   3.005   1.913  2.4974  0.9706 -0.4280
  515THF    H1110793   1.110   2.945   1.772 -0.7202  0.5343 -1.6008
  515THF    H1210794   1.067   3.186   1.755  0.0776 -0.7454 -0.6293
  515THF    H1310795   1.236   3.214   1.807 -0.4050  0.5936 -0.6539
  516THF     O110796   0.885   1.812   2.408 -0.3563 -0.2920  0.1555
  516THF     C210797   0.811   1.713   2.331 -0.4832  0.6142  0.0414
  516THF     C310798   1.007   1.748   2.449  0.1339  0.3310 -0.2933
  516THF     H410799   0.742   1.767   2.267  0.7624  1.6451 -0.4824
  516THF     H510800   0.758   1.649   2.402 -0.3733  0.6488  0.1546
  516THF     H610801   1.080   1.821   2.484 -0.8247 -0.1247  3.0382
  516THF     H710802   0.991   1.673   2.526  0.3463 -1.0737 -1.5803
  516THF     C810803   1.052   1.685   2.322  0.0884 -0.0822 -0.9643
  516THF     C910804   0.924   1.627   2.265  0.1237  0.2626 -0.1660
  516THF    H1010805   1.136   1.619   2.342  0.3523  0.7375  0.7826
  516THF    H1110806   1.091   1.759   2.253 -0.5000  2.0140  0.8177
  516THF    H1210807   0.936   1.638   2.158  0.3646  0.5350 -0.1129
  516THF    H1310808   0.914   1.519   2.277 -1.3587  0.5067  1.1769
  517THF     O110809   4.610   4.786   4.437 -0.0806 -0.3357 -0.6853
  517THF     C210810   4.623   4.792   4.298  0.6556 -0.0855  0.1314
  517THF     C310811   4.592   4.650   4.471 -0.3744 -0.3772  0.5068
  517THF     H410812   4.720   4.749   4.274  0.0895 -1.5585  0.3640
  517THF     H510813   4.621   4.892   4.254  0.8327 -0.7850 -1.5681
  517THF     H610814   4.691   4.607   4.453 -0.6792 -0.1926 -2.0019
  517THF     H710815   4.558   4.626   4.572 -0.5650 -1.2399  0.2392
  517THF     C810816   4.478   4.614   4.375  0.7442  0.6380  0.1361
  517THF     C910817   4.510   4.695   4.253 -0.0598  0.0595  0.0151
  517THF    H1010818   4.379   4.646   4.408  1.4282  0.5799  2.4136
  517THF    H1110819   4.466   4.507   4.360 -1.0345  0.7996  0.1487
  517THF    H1210820   4.540   4.628   4.173 -0.9444 -0.1255 -0.1761
  517THF    H1310821   4.420   4.750   4.223  0.3531  0.4151 -0.6012
  518THF     O110822   5.305   1.951   0.249  0.2547  0.3987  0.0825
  518THF     C210823   5.407   1.853   0.250 -0.2597  0.2034  0.0179
  518THF     C310824   5.356   2.076   0.204 -0.2674 -0.4854  0.2558
  518THF     H410825   5.398   1.787   0.163 -2.1892 -0.0497  0.3670
  518THF     H510826   5.390   1.784   0.332  0.6634 -1.2121 -0.9333
  518THF     H610827   5.345   2.080   0.096  0.1485  2.9415  0.2092
  518THF     H710828   5.310   2.165   0.247  0.1117  0.7989 -1.8470
  518THF     C810829   5.505   2.067   0.233 -0.7059 -0.9791  0.4007
  518THF     C910830   5.541   1.923   0.266  0.2311 -0.0263 -0.6714
  518THF    H1010831   5.533   2.121   0.323 -0.7117  0.3988 -0.3905
  518THF    H1110832   5.571   2.106   0.155 -0.0106  0.0444  1.4567
  518THF    H1210833   5.608   1.889   0.187  0.0570  0.7051 -1.1401
  518THF    H1310834   5.586   1.909   0.364 -1.8720 -1.3155  0.1782
  519THF     O110835   0.064   2.609   3.200 -0.2304 -0.0314 -0.4203
  519THF     C210836   0.051   2.702   3.089 -0.3553 -0.0519 -0.3319
  519THF     C310837  -0.020   2.503   3.169 -0.0898  0.1691 -0.1465
  519THF     H410838   0.145   2.734   3.044 -1.0913  0.2243 -1.7333
  519THF     H510839   0.003   2.791   3.129  0.2854  0.2080 -0.1269
  519THF     H610840   0.035   2.429   3.111  0.4408 -1.2372  2.0240
  519THF     H710841  -0.068   2.451   3.252 -0.3345 -1.6682 -1.3737
  519THF     C810842  -0.122   2.555   3.064 -0.3634  0.1682 -0.5770
  519THF     C910843  -0.047   2.645   2.986  0.1579  0.4855  1.2116
  519THF    H1010844  -0.210   2.603   3.107 -2.1035 -0.2265 -3.4236
  519THF    H1110845  -0.165   2.474   3.005  0.2943 -0.4273 -0.2588
  519THF    H1210846   0.011   2.588   2.913 -1.0076 -0.9093  1.3290
  519THF    H1310847  -0.103   2.725   2.937  0.1205  0.8519  1.8414
  520THF     O110848   1.174   1.981   0.104  0.6914  0.2810  0.4282
  520THF     C210849   1.307   1.934   0.127  0.9215 -0.1418 -1.1783
  520THF     C310850   1.183   2.116   0.064  0.6875 -0.1530 -0.0718
  520THF     H410851   1.353   1.925   0.028 -2.6178 -0.9003 -2.9355
  520THF     H510852   1.325   1.841   0.182 -0.3333  0.3077  0.0495
  520THF     H610853   1.185   2.147  -0.040 -1.3197 -0.3106 -0.2003
  520THF     H710854   1.098   2.182   0.084  1.4943  0.8974 -0.0154
  520THF     C810855   1.309   2.176   0.127 -0.4633 -0.9563  0.2027
  520THF     C910856   1.369   2.057   0.193 -0.0217 -0.9986  0.3747
  520THF    H1010857   1.286   2.250   0.204  1.3474 -0.7200  0.5694
  520THF    H1110858   1.383   2.221   0.061 -1.0441 -1.6950 -0.9926
  520THF    H1210859   1.478   2.054   0.199  0.1517 -0.6797 -1.8128
  520THF    H1310860   1.348   2.067   0.300 -1.4415  0.2253  0.0261
  521THF     O110861   0.813   4.899   1.982  0.0543 -0.2784 -0.0546
  521THF     C210862   0.935   4.845   1.938 -0.0690 -0.2122  0.9281
  521THF     C310863   0.788   4.851   2.111  0.5122  0.3011  0.1179
  521THF     H410864   1.015   4.904   1.982 -0.1578  1.5764 -1.1858
  521THF     H510865   0.932   4.838   1.830  1.1985 -2.1380  0.9636
  521THF     H610866   0.817   4.923   2.187 -0.8137 -0.7584  1.6959
  521THF     H710867   0.680   4.836   2.118  0.5887 -1.9195 -2.2165
  521THF     C810868   0.868   4.725   2.127 -0.3078  0.1247  0.5054
  521THF     C910869   0.940   4.702   1.991 -0.2645 -0.3410 -0.1384
  521THF    H1010870   0.805   4.644   2.164 -0.8088  0.9644  1.5270
  521THF    H1110871   0.949   4.745   2.197 -0.2305 -1.4735  0.9147
  521THF    H1210872   1.037   4.652   2.001 -1.5744 -3.5648 -1.9039
  521THF    H1310873   0.873   4.638   1.934 -0.6173  0.3831 -0.5495
  522THF     O110874   2.334   4.877   5.344  0.7799 -0.2670  0.2073
  522THF     C210875   2.302   4.744   5.304  0.1984  0.3325 -0.0157
  522THF     C310876   2.217   4.950   5.398  0.5300  0.0662 -0.2853
  522THF     H410877   2.383   4.672   5.308  1.0041  1.2134  3.9966
  522THF     H510878   2.253   4.746   5.206  2.2005 -1.1470 -1.0998
  522THF     H610879   2.253   5.029   5.465  1.6150 -0.0393 -0.7244
  522THF     H710880   2.159   4.991   5.315 -0.3663  1.5206  0.9832
  522THF     C810881   2.143   4.836   5.471 -0.1225  0.4101  0.2225
  522THF     C910882   2.198   4.710   5.403 -0.0549 -0.0186 -0.8100
  522THF    H1010883   2.036   4.839   5.492 -0.2279 -1.4639  0.0872
  522THF    H1110884   2.186   4.821   5.570  0.0605  1.6757  0.3497
  522THF    H1210885   2.242   4.637   5.470 -0.7380 -0.1351 -0.4758
  522THF    H1310886   2.121   4.653   5.351 -1.3242 -0.0141  0.9825
  523THF     O110887   2.874   3.632   5.074  0.3335  0.2445  0.3432
  523THF     C210888   2.908   3.650   5.212  0.5174  0.4919 -0.5379
  523THF     C310889   2.820   3.502   5.059 -0.5381 -0.2070  0.2011
  523THF     H410890   2.820   3.672   5.272  0.4648 -0.2354 -0.3370
  523THF     H510891   2.987   3.725   5.210 -0.1983  1.2360 -1.9161
  523THF     H610892   2.712   3.508   5.069 -0.2898  1.6983  2.5719
  523THF     H710893   2.848   3.457   4.963 -0.5621 -2.3304  1.1466
  523THF     C810894   2.887   3.414   5.166  0.8950  0.4790  0.0910
  523THF     C910895   2.961   3.512   5.252 -0.6378 -0.0706  0.2611
  523THF    H1010896   2.949   3.339   5.117 -0.2394 -0.4015 -0.0291
  523THF    H1110897   2.813   3.367   5.232 -0.0443  0.7705 -0.7344
  523THF    H1210898   2.953   3.488   5.359  2.2297  2.8309  1.2796
  523THF    H1310899   3.068   3.509   5.230 -0.7609 -0.0577 -0.3413
  524THF     O110900   1.956   1.488   2.805 -0.2024  0.0728  0.4121
  524THF     C210901   1.876   1.371   2.800 -0.0299  0.1428 -0.7346
  524THF     C310902   1.914   1.564   2.925 -0.2374 -0.5096  0.0431
  524THF     H410903   1.911   1.294   2.731  2.0285 -0.6209  1.0312
  524THF     H510904   1.774   1.389   2.765  0.4891  0.8641 -1.9486
  524THF     H610905   1.992   1.632   2.960 -1.9104  2.8010 -2.0718
  524THF     H710906   1.829   1.628   2.901  0.2564  0.3666  0.5913
  524THF     C810907   1.877   1.450   3.022  0.4030 -0.5663 -0.4783
  524THF     C910908   1.880   1.321   2.944  0.0051 -0.6303 -0.2052
  524THF    H1010909   1.776   1.455   3.064  1.3482  2.6571  1.8214
  524THF    H1110910   1.939   1.436   3.110  1.6373 -0.2300 -1.2754
  524THF    H1210911   1.971   1.265   2.966  1.1480 -0.2356 -3.3639
  524THF    H1310912   1.800   1.249   2.961 -1.3715  0.8463 -0.1815
  525THF     O110913   5.361   2.173   4.797 -0.0593 -0.1099 -0.2594
  525THF     C210914   5.223   2.182   4.831  0.0710  0.9299  0.3220
  525THF     C310915   5.369   2.146   4.665  1.2620 -0.0169  1.0111
  525THF     H410916   5.200   2.238   4.922  0.2120 -0.8612  1.4990
  525THF     H510917   5.198   2.079   4.855 -2.4659  1.4801  0.3507
  525THF     H610918   5.461   2.191   4.629  0.8267  0.8870  0.9898
  525THF     H710919   5.371   2.038   4.654 -1.3876 -0.0041 -0.5924
  525THF     C810920   5.243   2.213   4.595 -0.1419  0.5605  0.0524
  525THF     C910921   5.145   2.236   4.711  0.2246 -0.7065 -1.0271
  525THF    H1010922   5.189   2.150   4.525  0.7074 -2.1156  1.6490
  525THF    H1110923   5.266   2.309   4.550  0.2498  1.2819  1.7180
  525THF    H1210924   5.116   2.339   4.730 -1.2605 -1.2311 -0.2246
  525THF    H1310925   5.051   2.182   4.696  0.4905 -1.8067  0.8790
  526THF     O110926   4.411   1.925   0.273  0.2384  0.1079 -0.1981
  526THF     C210927   4.456   1.812   0.202 -0.1705 -0.2537  0.9368
  526THF     C310928   4.345   1.874   0.388  1.0561 -0.4165 -0.3991
  526THF     H410929   4.548   1.840   0.151 -0.7593  0.8090  0.4396
  526THF     H510930   4.387   1.779   0.125  1.6956 -0.7027 -0.6457
  526THF     H610931   4.366   1.915   0.487  0.4400 -2.6765  0.7358
  526THF     H710932   4.241   1.894   0.364  1.4201  0.6692 -1.1422
  526THF     C810933   4.390   1.719   0.402 -0.7011 -0.2452  0.2203
  526THF     C910934   4.491   1.706   0.303  0.1712  0.0900 -0.3985
  526THF    H1010935   4.311   1.649   0.372  0.3070 -0.9146 -0.9451
  526THF    H1110936   4.417   1.690   0.503 -2.3373 -1.0348  0.4741
  526THF    H1210937   4.592   1.723   0.342 -0.2015  0.2779  0.4959
  526THF    H1310938   4.491   1.609   0.252 -1.5406 -0.0903 -0.1187
  527THF     O110939   3.484   0.356   0.307  0.8442 -0.4092 -0.0489
  527THF     C210940   3.367   0.317   0.234 -0.4180  0.5807 -0.0963
  527THF     C310941   3.439   0.415   0.424 -0.0324  0.2854 -0.1125
  527THF     H410942   3.319   0.228   0.275  0.5783 -0.5831 -1.3872
  527THF     H510943   3.373   0.293   0.128  0.1576 -0.3136  0.1277
  527THF     H610944   3.401   0.348   0.501 -1.3495  2.8274  1.5968
  527THF     H710945   3.515   0.470   0.480  2.6020 -3.6962  0.6427
  527THF     C810946   3.324   0.504   0.374  0.3569  0.5295 -0.0632
  527THF     C910947   3.275   0.429   0.247 -0.4201 -0.1340 -0.4279
  527THF    H1010948   3.352   0.608   0.361 -1.3290  1.3442  2.2518
  527THF    H1110949   3.252   0.501   0.456 -0.7765 -0.1490 -1.0492
  527THF    H1210950   3.176   0.384   0.255 -0.8363  1.0433  2.4409
  527THF    H1310951   3.282   0.488   0.156 -1.0949  1.0431  0.2465
  528THF     O110952   2.848   1.388   2.263 -0.4944 -0.2841 -0.1684
  528THF     C210953   2.894   1.352   2.397 -0.7225  0.3602  0.3519
  528THF     C310954   2.928   1.506   2.235  0.2934 -0.0293 -0.2411
  528THF     H410955   2.999   1.325   2.389 -0.7153  0.8462 -3.4096
  528THF     H510956   2.827   1.279   2.443 -0.4052  0.6252  1.2382
  528THF     H610957   3.030   1.479   2.209 -0.6372 -1.4509 -2.7482
  528THF     H710958   2.875   1.560   2.156 -2.0004 -0.8870  0.6181
  528THF     C810959   2.922   1.587   2.361  0.5418  1.1760  0.4318
  528THF     C910960   2.893   1.486   2.466 -0.0559  0.6462 -0.5377
  528THF    H1010961   2.847   1.666   2.352 -1.0126 -0.3904 -1.1046
  528THF    H1110962   3.022   1.631   2.367  0.3791  1.4656  1.1491
  528THF    H1210963   2.970   1.494   2.542 -1.1966  0.5002  0.6579
  528THF    H1310964   2.796   1.488   2.516 -0.2739  0.2038 -0.9295
  529THF     O110965   1.764   0.741   2.798  0.1032  0.2489 -0.4303
  529THF     C210966   1.811   0.614   2.853 -0.6701 -0.1697  0.4944
  529THF     C310967   1.830   0.845   2.866 -0.6694  0.0673 -0.1043
  529THF     H410968   1.805   0.548   2.766 -1.0202  0.3714  0.1074
  529THF     H510969   1.747   0.590   2.938  0.5013  1.4315  1.8900
  529THF     H610970   1.877   0.921   2.804 -0.2694 -1.5294 -1.8454
  529THF     H710971   1.763   0.883   2.944 -1.0291 -3.5760  1.5807
  529THF     C810972   1.943   0.784   2.946 -0.4541  0.4401 -0.3760
  529THF     C910973   1.952   0.642   2.898  0.2438 -0.0431  0.1593
  529THF    H1010974   1.931   0.795   3.054  3.0547  1.9475  0.0056
  529THF    H1110975   2.043   0.824   2.929  0.6332 -1.6775  0.7199
  529THF    H1210976   2.014   0.634   2.809  0.6482 -1.5377  0.5476
  529THF    H1310977   1.992   0.568   2.968 -1.0109 -2.2774 -1.3671
  530THF     O110978   1.888   0.214   1.838 -0.2228  0.4853  0.1159
  530THF     C210979   1.876   0.350   1.798 -0.0661 -0.2776 -0.1538
  530THF     C310980   1.887   0.134   1.718 -0.4311  0.1888 -0.3364
  530THF     H410981   1.904   0.416   1.880 -2.8908 -1.3066  1.7985
  530THF     H510982   1.777   0.381   1.762  0.1199 -0.3873 -0.7802
  530THF     H610983   1.917   0.034   1.749  0.6536  1.2031  2.0847
  530THF     H710984   1.786   0.121   1.678 -0.9694  1.3474  0.5888
  530THF     C810985   1.970   0.214   1.622  0.3073 -0.5499  0.3757
  530THF     C910986   1.970   0.360   1.682  0.7457  0.6185  0.1296
  530THF    H1010987   1.924   0.215   1.523  0.4398 -1.9635  0.2867
  530THF    H1110988   2.073   0.179   1.623  0.9915  1.2467 -1.0961
  530THF    H1210989   2.069   0.379   1.722  0.2997  0.9251  1.1076
  530THF    H1310990   1.939   0.439   1.613 -1.6008 -1.0238 -0.8252
  531THF     O110991   3.083   4.036   0.471  0.0103  0.1835 -0.2627
  531THF     C210992   3.185   3.940   0.424  0.1422 -0.2751  0.1567
  531THF     C310993   3.100   4.150   0.386 -0.0029 -0.1543 -0.8162
  531THF     H410994   3.142   3.871   0.351 -1.5521  0.6355  0.2424
  531THF     H510995   3.227   3.875   0.500 -1.2152 -2.7843 -1.1098
  531THF     H610996   3.064   4.126   0.286  0.7361 -0.7781 -0.9367
  531THF     H710997   3.046   4.240   0.417  0.8912 -0.1122  0.7004
  531THF     C810998   3.250   4.161   0.373  0.2516 -0.0905  0.2954
  531THF     C910999   3.292   4.020   0.359 -0.1417  0.3883 -0.4133
  531THF    H1011000   3.301   4.206   0.458 -0.6632  2.0628 -0.2427
  531THF    H1111001   3.284   4.219   0.287  2.8312 -2.4254 -0.4353
  531THF    H1211002   3.301   3.997   0.253 -0.6758  0.1407 -0.4058
  531THF    H1311003   3.391   3.999   0.399 -0.4842 -0.1601  0.1538
  532THF     O111004   4.112   2.182   2.502  0.1044 -0.3684  0.0095
  532THF     C211005   4.017   2.196   2.399 -0.4512  0.6527  0.6406
  532THF     C311006   4.152   2.046   2.495 -0.6422  0.4593  0.3707
  532THF     H411007   3.999   2.299   2.368 -0.5607  0.0563 -1.5001
  532THF     H511008   3.919   2.161   2.430 -0.2707 -1.3775 -0.8404
  532THF     H611009   4.235   2.025   2.562 -0.4449 -1.3485 -0.3939
  532THF     H711010   4.071   1.985   2.534 -1.1284  1.4752  1.0141
  532THF     C811011   4.186   2.025   2.346  0.1471  0.5915  0.5508
  532THF     C911012   4.080   2.116   2.283 -0.1081  0.3994  0.3909
  532THF    H1011013   4.191   1.920   2.314  2.0877 -0.2865  3.3562
  532THF    H1111014   4.285   2.065   2.326  0.6934 -1.0487 -0.1849
  532THF    H1211015   4.128   2.184   2.212  0.2366 -0.2506 -0.0056
  532THF    H1311016   4.005   2.059   2.228 -0.7095  0.0359  1.5693
  533THF     O111017   4.451   3.062   4.947 -0.1225 -0.1699  0.3833
  533THF     C211018   4.429   3.139   4.823  0.0259 -0.3005 -0.0394
  533THF     C311019   4.590   3.076   4.974 -0.1628  0.7733 -1.1520
  533THF     H411020   4.434   3.245   4.847 -2.3239 -0.5779  2.0298
  533THF     H511021   4.333   3.116   4.776  1.3734 -0.6864 -2.8526
  533THF     H611022   4.619   3.170   5.021  0.7206  0.3911 -0.9095
  533THF     H711023   4.625   2.991   5.033  0.8062 -0.5272 -3.4686
  533THF     C811024   4.653   3.057   4.834 -0.1491  0.3929 -0.1882
  533THF     C911025   4.538   3.083   4.737 -0.5550  0.1392  0.2357
  533THF    H1011026   4.682   2.952   4.830 -0.2486  0.3160  0.8964
  533THF    H1111027   4.736   3.126   4.815 -0.8768  1.1858 -0.5642
  533THF    H1211028   4.571   3.147   4.655  2.1226 -2.2673 -0.7732
  533THF    H1311029   4.510   2.984   4.699  1.6293 -0.6353  0.4979
  534THF     O111030   1.463   1.202   3.196  0.4313  0.6743 -0.1438
  534THF     C211031   1.335   1.252   3.235  0.4002  0.0879  0.0184
  534THF     C311032   1.443   1.061   3.166 -0.7816 -0.0122  0.0933
  534THF     H411033   1.332   1.361   3.239  0.1689  0.0842 -0.0103
  534THF     H511034   1.314   1.214   3.335  1.8740 -0.9507 -0.0334
  534THF     H611035   1.530   1.026   3.110 -0.9343 -0.3568  0.0699
  534THF     H711036   1.425   1.012   3.261  1.4255  0.7362  0.9748
  534THF     C811037   1.317   1.064   3.086 -0.1604  0.6768  0.3328
  534THF     C911038   1.236   1.180   3.138 -0.5220  0.1760  0.5752
  534THF    H1011039   1.270   0.966   3.089  1.1210  0.0689  1.8187
  534THF    H1111040   1.342   1.092   2.984 -4.0526  2.4808 -0.3261
  534THF    H1211041   1.212   1.240   3.050 -0.4939 -1.1032 -0.3252
  534THF    H1311042   1.143   1.156   3.189 -1.7694  0.2270 -1.5857
  535THF     O111043   4.712   2.856   5.400  0.2278  0.1947 -0.3478
  535THF     C211044   4.789   2.752   5.452  0.4449  1.0856 -0.8212
  535THF     C311045   4.580   2.851   5.472  0.1136 -0.4660  0.7681
  535THF     H411046   4.894   2.782   5.462  1.0997 -1.4627  1.0549
  535THF     H511047   4.784   2.665   5.387 -1.4222 -1.5612  2.5136
  535THF     H611048   4.554   2.950   5.509 -0.6952 -0.9206  1.4743
  535THF     H711049   4.504   2.832   5.396  0.6947  1.5263 -0.3603
  535THF     C811050   4.588   2.745   5.579  0.0141 -0.0064  0.0850
  535THF     C911051   4.738   2.722   5.596  0.9175 -0.0160  0.2493
  535THF    H1011052   4.542   2.655   5.537 -0.0449 -0.3956  0.9664
  535THF    H1111053   4.549   2.776   5.676  2.4500  2.2727  0.4433
  535THF    H1211054   4.777   2.798   5.663 -2.1349  1.3036  0.6976
  535THF    H1311055   4.764   2.627   5.644 -0.0138  1.4416  3.9536
  536THF     O111056   1.432   4.836   5.307  0.3782  0.5848  0.4426
  536THF     C211057   1.454   4.703   5.269 -0.8934 -0.4142  0.6355
  536THF     C311058   1.320   4.880   5.228 -0.2410 -0.7022  0.7707
  536THF     H411059   1.371   4.643   5.305 -0.6240 -1.5340 -0.5541
  536THF     H511060   1.554   4.669   5.299 -0.5282  0.0508 -0.0260
  536THF     H611061   1.221   4.854   5.266 -1.1732 -2.2579 -2.3408
  536THF     H711062   1.317   4.987   5.207 -4.0136 -0.5929  1.2124
  536THF     C811063   1.336   4.810   5.095 -0.3106  0.1923  0.1910
  536THF     C911064   1.447   4.702   5.115 -0.0724 -0.2203 -0.2067
  536THF    H1011065   1.374   4.863   5.008  1.1971  0.1737  0.7980
  536THF    H1111066   1.240   4.765   5.071  0.7367 -2.7062  0.9793
  536THF    H1211067   1.425   4.604   5.073 -1.2917  0.7476 -1.9479
  536THF    H1311068   1.549   4.724   5.086 -0.2117 -1.3713 -1.6517
  537THF     O111069   3.067   1.206   4.225  0.0168 -0.4485 -0.1172
  537THF     C211070   3.066   1.333   4.282  0.3385  0.0773 -0.1506
  537THF     C311071   3.003   1.224   4.098  0.6820 -0.4398  0.0790
  537THF     H411072   3.137   1.394   4.227 -2.1375  1.3934 -2.1005
  537THF     H511073   3.092   1.325   4.387  1.4966  0.4566 -0.3994
  537THF     H611074   3.073   1.244   4.017 -2.2814 -1.1729 -2.8802
  537THF     H711075   2.937   1.140   4.075 -0.8086  0.7430 -0.1589
  537THF     C811076   2.902   1.347   4.120 -0.8499  0.2091  0.2611
  537THF     C911077   2.933   1.394   4.266  0.7937 -0.4532  0.2937
  537THF    H1011078   2.796   1.324   4.105 -0.4802 -0.8964 -0.8103
  537THF    H1111079   2.933   1.424   4.050 -0.7955 -2.2638 -2.6714
  537THF    H1211080   2.937   1.503   4.267 -1.0104 -0.3492 -0.6182
  537THF    H1311081   2.858   1.353   4.334 -1.1138 -0.2011 -1.5731
  538THF     O111082   0.873   5.395   4.451  0.1141  0.1886 -0.4457
  538THF     C211083   0.786   5.511   4.472 -0.7765  0.3493 -0.1260
  538THF     C311084   0.953   5.382   4.562  0.5480 -0.1994  0.2216
  538THF     H411085   0.680   5.487   4.470 -0.5416 -0.7469 -0.9798
  538THF     H511086   0.802   5.572   4.383 -0.6932 -0.7242 -0.8677
  538THF     H611087   0.901   5.333   4.645 -0.2296 -1.7789 -1.1415
  538THF     H711088   1.038   5.319   4.536 -1.4020 -2.4210 -1.1277
  538THF     C811089   0.982   5.522   4.615 -0.3640 -0.0029 -0.4020
  538THF     C911090   0.841   5.589   4.594  0.0845 -0.2990 -0.2843
  538THF    H1011091   1.042   5.582   4.547 -1.0393  0.6279 -0.4596
  538THF    H1111092   1.023   5.535   4.716 -1.4240  1.8890 -0.1597
  538THF    H1211093   0.778   5.560   4.678  0.0129  0.7995  0.0605
  538THF    H1311094   0.838   5.698   4.587 -0.5723 -0.1085  2.1536
  539THF     O111095   0.273   3.348   1.298  0.1171 -0.3706  0.7835
  539THF     C211096   0.389   3.268   1.327  0.2408 -0.7868  0.0079
  539THF     C311097   0.169   3.334   1.385  0.4233 -0.5485  0.0990
  539THF     H411098   0.456   3.336   1.381 -1.3795  0.2062  0.8603
  539THF     H511099   0.423   3.217   1.238 -1.8993  0.9207 -1.9115
  539THF     H611100   0.122   3.431   1.404  1.1449 -0.3750  1.1012
  539THF     H711101   0.093   3.272   1.339 -0.2349 -0.6079  1.2439
  539THF     C811102   0.239   3.274   1.512  0.6309 -0.2100  0.0122
  539THF     C911103   0.343   3.183   1.438 -0.5561 -0.0721  0.1568
  539THF    H1011104   0.165   3.215   1.566  1.3585 -0.5100  0.6924
  539THF    H1111105   0.277   3.347   1.583  1.1553 -0.9202  0.4715
  539THF    H1211106   0.418   3.140   1.504 -0.5687 -1.3158 -0.5937
  539THF    H1311107   0.303   3.090   1.394  0.0756  0.3581 -1.4050
  540THF     O111108   0.676   1.914   3.569  0.2985  0.2117 -0.7179
  540THF     C211109   0.769   1.827   3.631  0.4145 -0.6583  0.0116
  540THF     C311110   0.561   1.922   3.657 -0.0624  0.0689  1.1371
  540THF     H411111   0.869   1.822   3.590 -0.8238 -0.0032 -3.4606
  540THF     H511112   0.735   1.724   3.614  1.6601 -0.8596 -1.3886
  540THF     H611113   0.483   1.995   3.638 -0.5779 -1.2363 -2.6679
  540THF     H711114   0.513   1.825   3.645  0.4911 -0.2785  1.6515
  540THF     C811115   0.632   1.951   3.785 -0.6475  0.3982 -0.0628
  540THF     C911116   0.749   1.861   3.781 -0.1605  0.1342  0.2790
  540THF    H1011117   0.560   1.934   3.865 -0.7073  0.6953 -0.0546
  540THF    H1111118   0.663   2.055   3.789 -1.9380  0.7702  1.7658
  540THF    H1211119   0.835   1.912   3.826 -1.5898  2.6995  0.3173
  540THF    H1311120   0.730   1.767   3.834 -0.0965 -0.0351  0.0015
  541THF     O111121   1.829   2.815   1.762 -0.3299 -0.2179  0.2821
  541THF     C211122   1.768   2.918   1.835 -0.0107 -0.3041 -0.2527
  541THF     C311123   1.854   2.697   1.847 -1.2085  0.1484 -0.5703
  541THF     H411124   1.660   2.921   1.818 -0.1546  1.8427  0.7456
  541THF     H511125   1.799   3.018   1.802 -1.9885  1.1238  1.8875
  541THF     H611126   1.766   2.638   1.871  0.2420 -1.5899  0.7219
  541THF     H711127   1.927   2.631   1.802 -1.2060 -0.9553  1.0003
  541THF     C811128   1.898   2.755   1.983 -0.9279  0.1386  0.2148
  541THF     C911129   1.811   2.886   1.981  0.0260  0.4034 -0.0619
  541THF    H1011130   2.004   2.778   1.970 -0.6859 -1.3231 -0.6874
  541THF    H1111131   1.886   2.694   2.072  2.4836 -1.5389 -0.3204
  541THF    H1211132   1.718   2.879   2.036 -0.1432  0.4919 -0.3324
  541THF    H1311133   1.876   2.963   2.023  1.1541 -0.4995 -0.1077
  542THF     O111134   4.601   2.820   1.890 -0.4598 -0.5246  0.2668
  542THF     C211135   4.575   2.689   1.837 -0.5117  0.1583  0.2942
  542THF     C311136   4.476   2.896   1.897 -0.4437  0.2261 -0.5319
  542THF     H411137   4.532   2.621   1.910 -2.3159  1.3224  0.3800
  542THF     H511138   4.659   2.648   1.781  0.0756  1.1244  0.4469
  542THF     H611139   4.430   2.896   1.995  0.0276  1.1417 -0.3025
  542THF     H711140   4.497   3.001   1.876  0.8160  0.0528 -0.2503
  542THF     C811141   4.378   2.828   1.799 -0.0860  0.0790 -0.7034
  542THF     C911142   4.463   2.722   1.734  0.3163 -0.2380 -0.1963
  542THF    H1011143   4.334   2.901   1.731 -0.0482  0.8264  0.0576
  542THF    H1111144   4.300   2.782   1.860  1.0627 -0.5445  0.3495
  542THF    H1211145   4.413   2.632   1.699 -1.2855  0.7340 -0.5395
  542THF    H1311146   4.502   2.776   1.648  0.2393  0.0584 -0.0502
  543THF     O111147   2.245   2.542   2.403 -0.3059 -0.7447  0.2461
  543THF     C211148   2.295   2.568   2.267 -0.6352 -0.6016 -0.2956
  543THF     C311149   2.249   2.670   2.464 -0.2315 -0.6817 -0.2713
  543THF     H411150   2.273   2.494   2.190  1.6170 -3.2329  1.3945
  543THF     H511151   2.403   2.579   2.264 -0.6691  0.1069  0.7036
  543THF     H611152   2.179   2.665   2.547 -0.1734 -0.9472 -0.2359
  543THF     H711153   2.346   2.687   2.510 -0.9087 -2.0772  1.8504
  543THF     C811154   2.202   2.772   2.356 -0.3078  0.2128 -0.2949
  543THF     C911155   2.219   2.698   2.228  0.6118  0.5396 -0.0185
  543THF    H1011156   2.260   2.865   2.355  0.0079  0.0177 -1.3141
  543THF    H1111157   2.099   2.793   2.386 -0.7462 -2.0395 -0.0909
  543THF    H1211158   2.119   2.679   2.190  0.1664  3.3205 -0.4418
  543THF    H1311159   2.278   2.758   2.159  1.0597  0.3312  0.1787
  544THF     O111160   4.865   3.170   5.106  0.0093 -0.0132  0.4662
  544THF     C211161   4.982   3.147   5.185  0.5892  0.3476 -0.0401
  544THF     C311162   4.869   3.313   5.097 -0.7185  0.6328  0.0271
  544THF     H411163   5.070   3.158   5.122  1.0599 -1.5885  0.2123
  544THF     H511164   4.989   3.046   5.225  0.8805  0.4756  0.2393
  544THF     H611165   4.952   3.328   5.027 -0.2644  0.4544  0.5190
  544THF     H711166   4.781   3.363   5.057  0.3961  2.2161 -0.5300
  544THF     C811167   4.907   3.362   5.243 -0.4731 -0.1206  0.0017
  544THF     C911168   4.980   3.247   5.293  0.4912 -1.2057 -0.4530
  544THF    H1011169   4.812   3.374   5.294 -0.5957  2.8341 -0.7113
  544THF    H1111170   4.964   3.455   5.240 -1.3134  0.4171  0.3052
  544THF    H1211171   5.077   3.264   5.341 -0.1786 -1.6966  1.1352
  544THF    H1311172   4.913   3.202   5.367 -0.6387  2.1972  0.7987
  545THF     O111173   3.724   0.110   1.798  0.1379 -0.2354  0.1372
  545THF     C211174   3.665   0.119   1.670 -0.5383  0.2793 -0.3978
  545THF     C311175   3.690  -0.011   1.839  0.0049  0.4798 -0.1742
  545THF     H411176   3.710   0.197   1.609 -0.6479  1.3287  0.8297
  545THF     H511177   3.559   0.142   1.674 -0.3642  0.9680  2.1108
  545THF     H611178   3.734  -0.035   1.935  0.6223 -0.2627 -0.6330
  545THF     H711179   3.582  -0.023   1.847  0.0230  1.0648  1.1041
  545THF     C811180   3.744  -0.099   1.726  0.1774 -0.1603  0.0888
  545THF     C911181   3.688  -0.020   1.612  0.0012 -0.9779 -0.1705
  545THF    H1011182   3.712  -0.202   1.730 -1.6327  0.4055  1.2109
  545THF    H1111183   3.853  -0.101   1.714 -0.0326 -1.9413 -1.9739
  545THF    H1211184   3.754  -0.008   1.527 -0.1582 -0.7281 -0.2584
  545THF    H1311185   3.595  -0.056   1.568  0.6905 -1.2369 -1.4610
  546THF     O111186   4.475   3.986   4.591 -0.2065 -0.2250 -0.2751
  546THF     C211187   4.473   4.119   4.640  0.4307  0.1876  0.2553
  546THF     C311188   4.497   3.980   4.449 -1.3419  0.0967  0.3300
  546THF     H411189   4.570   4.167   4.652 -0.4713  2.7072 -1.8058
  546THF     H511190   4.429   4.123   4.740  1.0306 -2.1291  0.6782
  546THF     H611191   4.601   4.006   4.432 -1.7772  1.0046 -1.1256
  546THF     H711192   4.471   3.886   4.400  0.4956 -0.6930  0.8017
  546THF     C811193   4.420   4.108   4.404 -0.0194  0.6385  0.4024
  546THF     C911194   4.402   4.198   4.528  0.4015 -0.2274 -0.2128
  546THF    H1011195   4.323   4.082   4.363 -0.3205  2.8546 -0.4367
  546THF    H1111196   4.467   4.153   4.316  0.3327 -0.4260  0.0316
  546THF    H1211197   4.453   4.292   4.506 -1.6902  0.3542 -3.1956
  546THF    H1311198   4.297   4.217   4.547  0.9299 -0.2737  3.5985
  547THF     O111199   3.656   1.393   4.428  0.3737  0.5598 -0.3196
  547THF     C211200   3.617   1.486   4.333  0.0810  0.2260  0.3705
  547THF     C311201   3.560   1.288   4.452  0.0269 -0.9609  0.0648
  547THF     H411202   3.643   1.463   4.230  1.4004  0.9962  0.5003
  547THF     H511203   3.665   1.583   4.345 -0.3762  0.4062  0.7275
  547THF     H611204   3.545   1.217   4.370  0.1132 -0.4676 -0.3811
  547THF     H711205   3.573   1.229   4.543 -0.6940  1.4857  1.8451
  547THF     C811206   3.435   1.382   4.456 -0.3962  0.0059 -0.6502
  547THF     C911207   3.468   1.476   4.339 -0.1402 -0.4648 -0.0571
  547THF    H1011208   3.442   1.443   4.546 -1.2389  1.3879 -1.4947
  547THF    H1111209   3.338   1.333   4.458 -2.0541  3.0697 -0.4525
  547THF    H1211210   3.425   1.430   4.250 -0.1713 -0.8556  0.1587
  547THF    H1311211   3.421   1.574   4.343  0.9828  0.1055 -0.2759
  548THF     O111212   2.775   1.368   0.688  0.6072 -0.0036  0.0860
  548THF     C211213   2.684   1.276   0.627  0.4142  0.3440 -0.9209
  548THF     C311214   2.742   1.352   0.827 -0.4953 -0.9392 -0.0524
  548THF     H411215   2.707   1.173   0.654  0.0630  0.3830 -0.4561
  548THF     H511216   2.709   1.283   0.521  0.1564 -1.7151 -1.1561
  548THF     H611217   2.790   1.264   0.870 -1.2025 -1.8306 -1.0186
  548THF     H711218   2.780   1.437   0.884 -0.9297 -1.3705  0.8922
  548THF     C811219   2.590   1.348   0.830  0.6749  0.7024  0.6604
  548THF     C911220   2.554   1.326   0.682  0.1617  0.5568 -0.5869
  548THF    H1011221   2.531   1.433   0.866 -0.8333 -0.2321  0.4620
  548THF    H1111222   2.549   1.265   0.888  0.2110 -0.2926 -1.0209
  548THF    H1211223   2.471   1.256   0.681  1.0779 -0.6710  1.4887
  548THF    H1311224   2.518   1.416   0.633 -0.5037  0.0860 -0.9792
  549THF     O111225   3.680   0.409   5.210 -0.1982  0.4955 -0.8075
  549THF     C211226   3.624   0.362   5.332 -0.0222 -0.6032 -0.1537
  549THF     C311227   3.654   0.542   5.185  0.2692 -0.1089  0.0799
  549THF     H411228   3.701   0.352   5.409  0.7758  0.7994 -0.7527
  549THF     H511229   3.577   0.264   5.325  0.7642 -1.3299  2.9485
  549THF     H611230   3.743   0.600   5.160  1.0908 -1.7281 -0.8369
  549THF     H711231   3.596   0.554   5.094  0.8874  1.8640 -0.1032
  549THF     C811232   3.584   0.594   5.313 -0.6439 -0.3751  0.1698
  549THF     C911233   3.518   0.471   5.364  0.2625  0.5176  0.2000
  549THF    H1011234   3.512   0.670   5.285 -0.2567 -0.1979 -0.3640
  549THF    H1111235   3.660   0.632   5.381 -1.5346  0.6369  0.6236
  549THF    H1211236   3.494   0.473   5.470  0.5784 -1.6943  0.3662
  549THF    H1311237   3.422   0.451   5.316 -0.8188  2.5049  1.4182
  550THF     O111238   1.059   1.491   0.984 -0.1265 -0.1628  0.1423
  550THF     C211239   0.966   1.588   0.946 -0.3533  0.2971  0.0163
  550THF     C311240   1.017   1.366   0.932 -0.6007 -0.7211 -0.3611
  550THF     H411241   0.986   1.591   0.839 -2.5175  0.4773 -0.4235
  550THF     H511242   0.971   1.686   0.994 -0.8237  0.5472 -0.4397
  550THF     H611243   1.053   1.329   0.836 -2.2764 -1.5003 -0.7262
  550THF     H711244   1.041   1.295   1.011 -0.1611  0.9792  1.1063
  550THF     C811245   0.860   1.369   0.925 -0.9618 -0.3064  0.0732
  550THF     C911246   0.829   1.515   0.960  0.0905  0.1834  0.1876
  550THF    H1011247   0.811   1.301   0.995 -1.3875 -0.5302 -0.4348
  550THF    H1111248   0.826   1.337   0.826  1.4166  0.9054 -1.2088
  550THF    H1211249   0.756   1.554   0.890  0.0628  0.7220  0.5150
  550THF    H1311250   0.792   1.516   1.063  0.6472  3.8183  0.4830
  551THF     O111251   0.830   4.630   0.077 -0.1230 -0.4055  0.0572
  551THF     C211252   0.875   4.648   0.206  0.0287  0.1668 -0.4688
  551THF     C311253   0.939   4.668  -0.005  0.1206  0.2037 -0.4383
  551THF     H411254   0.916   4.557   0.248  2.8583  1.6157  0.1411
  551THF     H511255   0.786   4.683   0.259 -0.7482 -0.0398 -1.5883
  551THF     H611256   1.008   4.584  -0.013 -0.6563 -0.7296  1.8490
  551THF     H711257   0.891   4.682  -0.102 -0.8693 -0.3180 -0.0327
  551THF     C811258   0.996   4.792   0.051 -0.4745 -0.3164  0.0564
  551THF     C911259   0.987   4.754   0.207  0.6764 -0.0481 -0.2881
  551THF    H1011260   0.932   4.879   0.032  1.8414  1.9692  2.0912
  551THF    H1111261   1.100   4.804   0.023  0.1836 -1.9333  1.7051
  551THF    H1211262   1.077   4.696   0.228 -0.2537 -1.6712 -0.6415
  551THF    H1311263   0.980   4.840   0.274  0.8977 -0.0921 -0.2082
  552THF     O111264   5.474   4.861   1.713 -0.3044  0.4884  0.1097
  552THF     C211265   5.429   4.976   1.650  0.0837  0.5163  0.2832
  552THF     C311266   5.387   4.824   1.820 -0.0936 -0.2076  0.0218
  552THF     H411267   5.396   4.957   1.548  0.2072  0.0737  0.3249
  552THF     H511268   5.507   5.052   1.654 -0.8319  1.4458  1.3801
  552THF     H611269   5.387   4.717   1.802 -0.6147 -0.0807 -0.7926
  552THF     H711270   5.443   4.833   1.913  0.1534  1.3403 -0.2487
  552THF     C811271   5.259   4.912   1.787  0.7083 -0.0690  0.3620
  552THF     C911272   5.323   5.038   1.732 -0.4219 -0.1671 -1.0579
  552THF    H1011273   5.196   4.924   1.875 -0.7093  0.2159 -0.6465
  552THF    H1111274   5.197   4.865   1.711  0.5836 -1.0324  1.0448
  552THF    H1211275   5.245   5.097   1.683  0.9697  0.5203 -2.5435
  552THF    H1311276   5.370   5.093   1.813  0.5948 -0.1003 -1.6831
  553THF     O111277   0.478   5.468   4.221  0.2347  0.0503  0.2751
  553THF     C211278   0.435   5.329   4.211 -0.6407 -0.5372 -0.1788
  553THF     C311279   0.592   5.486   4.143 -0.8660 -0.1086 -0.4152
  553THF     H411280   0.344   5.333   4.151 -0.1281  1.4395 -0.9000
  553THF     H511281   0.416   5.304   4.315  1.5635  0.1392  0.4251
  553THF     H611282   0.583   5.573   4.078 -0.4703  1.4804  1.5548
  553THF     H711283   0.682   5.501   4.203  0.8805 -1.4496 -2.5293
  553THF     C811284   0.624   5.364   4.067  0.0527 -0.0802  0.5136
  553THF     C911285   0.542   5.251   4.136 -0.1970 -0.3282 -0.9372
  553THF    H1011286   0.730   5.345   4.085  0.4866  1.0024 -0.7494
  553THF    H1111287   0.605   5.379   3.961 -0.8923  1.5601  0.8830
  553THF    H1211288   0.482   5.204   4.058 -2.3191  1.7395 -0.6949
  553THF    H1311289   0.592   5.181   4.202  1.0720  0.2762 -1.2340
  554THF     O111290   0.703   3.197   5.032 -0.1196  0.2564 -0.1319
  554THF     C211291   0.821   3.209   5.113  0.8322 -0.2258  0.3043
  554THF     C311292   0.668   3.330   4.997  0.1883 -0.3678  0.3700
  554THF     H411293   0.900   3.253   5.053  0.5272 -0.6848 -0.4506
  554THF     H511294   0.843   3.108   5.149  1.1967  0.1542  1.1805
  554THF     H611295   0.744   3.374   4.932  0.3060 -0.8173  0.2047
  554THF     H711296   0.572   3.331   4.945  1.4173 -2.4010 -2.2119
  554THF     C811297   0.661   3.385   5.146 -0.6682 -0.3265  0.5929
  554THF     C911298   0.770   3.303   5.222  0.1436  0.1364 -0.5685
  554THF    H1011299   0.562   3.373   5.191 -1.5023  0.1580 -1.0486
  554THF    H1111300   0.669   3.493   5.134 -0.5722 -0.4208 -0.2708
  554THF    H1211301   0.852   3.361   5.265  0.3100  0.8786 -1.8377
  554THF    H1311302   0.717   3.255   5.304 -1.2375 -1.2338 -2.1619
  555THF     O111303   2.353   3.701   3.469  0.5632  0.4248  0.4713
  555THF     C211304   2.276   3.670   3.352  0.4704  0.5545 -0.4666
  555THF     C311305   2.474   3.764   3.417 -0.2887  0.0194 -0.0039
  555THF     H411306   2.171   3.666   3.379  0.5917  1.5571  0.1956
  555THF     H511307   2.301   3.572   3.313 -1.9711  0.4077 -1.8232
  555THF     H611308   2.496   3.852   3.478  0.1438  0.5349 -0.8859
  555THF     H711309   2.558   3.694   3.419 -0.7792 -0.5800  1.3686
  555THF     C811310   2.453   3.814   3.273 -0.2310  0.3770  0.2618
  555THF     C911311   2.306   3.776   3.253 -0.4630  0.0656  0.3581
  555THF    H1011312   2.525   3.753   3.219 -2.0674 -0.8624 -0.8962
  555THF    H1111313   2.471   3.918   3.248 -0.4007  0.5911  1.0049
  555THF    H1211314   2.243   3.861   3.280  1.2719  0.6308  3.0277
  555THF    H1311315   2.283   3.752   3.149  1.6180 -2.4804  0.3841
  556THF     O111316   0.263   2.286   0.486 -0.3516 -0.0469  0.0455
  556THF     C211317   0.208   2.193   0.577  0.4556 -0.5140  0.1903
  556THF     C311318   0.303   2.228   0.363 -0.4547  0.4501  0.1959
  556THF     H411319   0.101   2.186   0.557  0.4645 -0.0720 -0.0212
  556THF     H511320   0.229   2.209   0.682  0.2558 -0.7550  0.2695
  556THF     H611321   0.218   2.228   0.295 -0.4413  0.0959  0.1793
  556THF     H711322   0.387   2.280   0.317  0.4145 -1.7919 -0.8902
  556THF     C811323   0.342   2.083   0.405 -0.0061  0.1453  0.0644
  556THF     C911324   0.271   2.059   0.539 -0.5853 -0.2592 -0.0267
  556THF    H1011325   0.446   2.093   0.437 -0.9437  1.2036  3.1203
  556THF    H1111326   0.325   2.004   0.332  2.9244  0.4935 -1.1584
  556THF    H1211327   0.199   1.977   0.544 -0.1821 -0.6267 -0.1596
  556THF    H1311328   0.347   2.030   0.611  0.4014  1.4248 -0.3310
  557THF     O111329   0.425   1.717   4.651 -0.5737  0.0723  0.0064
  557THF     C211330   0.474   1.596   4.701 -0.2187  0.3037  0.8557
  557THF     C311331   0.542   1.801   4.635  0.2486 -0.4479 -0.4304
  557THF     H411332   0.396   1.523   4.680 -0.3334  0.6353  0.0911
  557THF     H511333   0.496   1.595   4.808  1.1857 -1.3225  0.5937
  557THF     H611334   0.526   1.887   4.571  1.3114  0.3591  0.3640
  557THF     H711335   0.575   1.851   4.726  0.9605 -1.0387 -0.3529
  557THF     C811336   0.661   1.712   4.596  0.8337  0.3665 -0.5457
  557THF     C911337   0.608   1.575   4.626 -0.1609  0.4900  0.3836
  557THF    H1011338   0.745   1.739   4.660  0.3731  0.0802  0.1863
  557THF    H1111339   0.669   1.724   4.488 -1.0748  0.5523 -0.6982
  557THF    H1211340   0.586   1.540   4.526  3.4283  2.9659 -1.4978
  557THF    H1311341   0.684   1.506   4.663 -0.3298 -0.0522 -0.2747
  558THF     O111342   3.392   2.547   3.052  0.0331 -0.2198 -0.1126
  558THF     C211343   3.520   2.599   3.079  0.3130 -0.4912  0.7621
  558THF     C311344   3.373   2.446   3.149  0.4362  0.4634 -0.1823
  558THF     H411345   3.514   2.664   3.166 -0.6607 -0.3817  0.6317
  558THF     H511346   3.552   2.665   2.998 -2.1193  0.6864  0.6638
  558THF     H611347   3.345   2.479   3.249  1.2645 -0.4007  0.3515
  558THF     H711348   3.289   2.381   3.122  0.1681  1.4167 -1.7634
  558THF     C811349   3.509   2.378   3.149  0.2390 -0.2033 -0.5851
  558THF     C911350   3.605   2.486   3.106 -0.4512  0.3413 -0.3920
  558THF    H1011351   3.512   2.295   3.078  1.7401  0.0493 -0.8388
  558THF    H1111352   3.530   2.330   3.244 -1.7966 -0.4973 -0.2351
  558THF    H1211353   3.677   2.513   3.184  1.2171 -1.6161 -1.1648
  558THF    H1311354   3.662   2.456   3.018  1.3613 -1.2040  1.2056
  559THF     O111355   1.368   4.745   2.790  1.1353  0.1462 -0.4230
  559THF     C211356   1.387   4.881   2.845  0.4528  0.0860 -0.4334
  559THF     C311357   1.228   4.735   2.755  0.5324  0.0804  0.9545
  559THF     H411358   1.370   4.967   2.781  1.0950  1.5090  1.2210
  559THF     H511359   1.486   4.892   2.890 -0.0020  2.1387  0.1631
  559THF     H611360   1.204   4.798   2.669  1.6333  0.9527  1.2563
  559THF     H711361   1.197   4.632   2.739  1.4850 -0.2237  1.0106
  559THF     C811362   1.161   4.804   2.874  0.2074 -0.2828 -0.0934
  559THF     C911363   1.264   4.890   2.941  0.0406 -0.3345  0.5412
  559THF    H1011364   1.131   4.728   2.947 -1.6117 -0.8428 -1.3592
  559THF    H1111365   1.069   4.858   2.850  0.5309  1.7449  2.7247
  559THF    H1211366   1.233   4.993   2.958 -0.6595 -0.8574  2.6977
  559THF    H1311367   1.289   4.854   3.040 -0.6412 -0.6026  0.6230
  560THF     O111368   4.745   0.285   3.621  0.6598 -0.5247  0.0553
  560THF     C211369   4.835   0.185   3.585  0.3837  0.0932 -0.0994
  560THF     C311370   4.691   0.342   3.505  0.2279 -0.0089  0.3110
  560THF     H411371   4.780   0.102   3.541  0.1703 -0.2489  0.8035
  560THF     H511372   4.898   0.144   3.663 -1.5413  0.1430  1.5578
  560THF     H611373   4.608   0.281   3.468  1.8409 -1.5914 -0.8526
  560THF     H711374   4.664   0.447   3.513 -0.1195 -0.0864  0.1551
  560THF     C811375   4.813   0.343   3.416  0.5628 -0.0818 -0.6179
  560THF     C911376   4.915   0.255   3.478  0.1985  0.1129 -0.1909
  560THF    H1011377   4.844   0.447   3.414  0.8601  0.0532  3.4044
  560THF    H1111378   4.781   0.302   3.320 -2.1680 -0.3556  0.3247
  560THF    H1211379   4.958   0.187   3.404 -0.5762 -0.7628  0.1385
  560THF    H1311380   4.994   0.313   3.525 -0.5236 -0.2696  1.5528
  561THF     O111381   3.823   0.720   3.258  0.1074 -0.1689 -0.3937
  561THF     C211382   3.867   0.589   3.253 -1.0781 -0.0366  0.3927
  561THF     C311383   3.714   0.733   3.353 -0.3715 -0.1569 -0.1947
  561THF     H411384   3.955   0.579   3.317 -1.1574  0.2481  0.5460
  561THF     H511385   3.901   0.579   3.150 -0.1716  1.9589  0.4646
  561THF     H611386   3.739   0.804   3.432  0.5866  0.7948 -1.3186
  561THF     H711387   3.617   0.755   3.307  0.6094 -0.4141 -2.5593
  561THF     C811388   3.700   0.593   3.413 -0.1338  0.0341  0.6103
  561THF     C911389   3.753   0.508   3.305 -0.0583 -0.3398 -0.3531
  561THF    H1011390   3.598   0.567   3.442 -0.1420 -0.3182  0.2747
  561THF    H1111391   3.761   0.586   3.503  0.5809 -0.3076  0.1054
  561THF    H1211392   3.784   0.416   3.354 -0.2311  0.4729  1.3484
  561THF    H1311393   3.674   0.497   3.229 -1.1371 -2.2581  0.9639
  562THF     O111394   1.872   4.981   2.498  0.2658 -0.4391  0.3522
  562THF     C211395   1.851   5.030   2.359  0.5195 -0.2051 -0.6054
  562THF     C311396   2.006   4.966   2.512 -0.1162 -0.2402 -0.1886
  562THF     H411397   1.859   5.139   2.359  1.9450 -0.2752  0.6134
  562THF     H511398   1.753   5.013   2.315  0.2265 -1.7688  0.5842
  562THF     H611399   2.063   5.059   2.519  0.2854 -0.2751 -2.4681
  562THF     H711400   2.036   4.918   2.606  1.8378  1.1342 -0.0432
  562THF     C811401   2.049   4.892   2.383 -0.1037 -0.1926  0.4524
  562THF     C911402   1.962   4.969   2.279  0.8864  0.2578 -0.2113
  562THF    H1011403   2.016   4.788   2.382  0.1647 -0.2823 -0.3627
  562THF    H1111404   2.157   4.894   2.366 -0.0610  1.6191  0.7151
  562THF    H1211405   2.022   5.041   2.224  2.0528  2.1009  3.2095
  562THF    H1311406   1.931   4.897   2.203  2.7364 -0.0782 -0.7024
  563THF     O111407   1.034   3.275   4.274  0.1773  0.0632  0.2309
  563THF     C211408   1.164   3.343   4.285  0.2677  0.2895 -0.5898
  563THF     C311409   0.959   3.326   4.156  0.7167  0.1546 -0.5831
  563THF     H411410   1.236   3.297   4.217 -1.1157  0.9991 -2.6230
  563THF     H511411   1.198   3.351   4.388 -1.7570  0.7928  0.0942
  563THF     H611412   0.995   3.285   4.062  0.0773  1.7944 -1.5744
  563THF     H711413   0.854   3.302   4.172  1.1341 -0.1513  2.3651
  563THF     C811414   1.000   3.476   4.158  0.7476  0.0157 -0.1774
  563THF     C911415   1.132   3.481   4.236 -0.2737 -0.4771  0.7097
  563THF    H1011416   0.923   3.531   4.211 -1.6805 -1.8694 -1.5336
  563THF    H1111417   1.009   3.514   4.056  1.7308  0.2348 -0.0211
  563THF    H1211418   1.211   3.522   4.173  0.6735 -0.7544  1.6891
  563THF    H1311419   1.123   3.552   4.319  3.1647 -0.4555  1.2023
  564THF     O111420   0.894   0.192   2.084  0.3625 -0.6062 -0.5926
  564THF     C211421   0.944   0.322   2.116 -0.1473  0.3620  0.1308
  564THF     C311422   0.755   0.203   2.054  0.2472 -0.6460 -0.4474
  564THF     H411423   1.048   0.330   2.083 -0.1668 -0.3071 -0.1031
  564THF     H511424   0.942   0.349   2.222 -1.1038 -0.5577  0.3567
  564THF     H611425   0.715   0.124   1.991  0.6299 -0.9964 -0.2617
  564THF     H711426   0.697   0.213   2.146 -0.7175  0.9169 -1.1845
  564THF     C811427   0.753   0.332   1.971  0.2931  0.2511 -0.7048
  564THF     C911428   0.854   0.414   2.037  0.0294 -0.3492  1.2209
  564THF    H1011429   0.661   0.390   1.974  1.2796  1.8552  1.1993
  564THF    H1111430   0.781   0.313   1.868  2.4940  0.7423 -0.2640
  564THF    H1211431   0.907   0.470   1.961  0.8066 -1.4442  0.9219
  564THF    H1311432   0.808   0.491   2.099 -0.6923  0.1463  0.0954
  565THF     O111433   3.631   0.477   2.856  0.3901  0.3236  0.2963
  565THF     C211434   3.547   0.545   2.759  0.8749  0.6505 -0.1403
  565THF     C311435   3.685   0.350   2.813  0.0381  0.5965  0.7371
  565THF     H411436   3.590   0.644   2.742  1.4780  0.2427 -1.0138
  565THF     H511437   3.444   0.545   2.795  1.0398 -0.5703  0.3669
  565THF     H611438   3.783   0.338   2.859  1.2559  2.0285 -1.2869
  565THF     H711439   3.624   0.266   2.846  0.0344  0.8918  1.5087
  565THF     C811440   3.686   0.375   2.659  0.5839  0.3258 -0.8366
  565THF     C911441   3.562   0.462   2.632 -0.5115  0.5882  0.1141
  565THF    H1011442   3.700   0.290   2.591  0.1369 -1.4039  1.1252
  565THF    H1111443   3.774   0.438   2.643 -0.0010  1.4792  0.3248
  565THF    H1211444   3.579   0.526   2.546 -0.4790  0.6040  0.1326
  565THF    H1311445   3.477   0.396   2.613 -1.3600  2.2959 -2.6344
  566THF     O111446   0.031   1.332   5.237  0.3483 -0.2025 -0.0527
  566THF     C211447  -0.072   1.267   5.160  0.0316  0.0628 -0.0406
  566THF     C311448   0.115   1.229   5.301  0.3475 -0.2538  0.1689
  566THF     H411449  -0.040   1.244   5.058 -1.1008 -1.8057 -0.0145
  566THF     H511450  -0.156   1.336   5.153  1.1637  1.4215 -0.8579
  566THF     H611451   0.209   1.220   5.246 -2.0507 -2.2096 -4.1426
  566THF     H711452   0.136   1.272   5.399  1.3334  0.7847 -0.4800
  566THF     C811453   0.034   1.098   5.290 -0.9092  0.6416 -0.7453
  566THF     C911454  -0.100   1.136   5.234  0.6647 -0.0027  0.0500
  566THF    H1011455   0.030   1.049   5.387 -0.0340 -0.2055 -1.1170
  566THF    H1111456   0.080   1.028   5.220 -0.9987 -0.1749 -0.0042
  566THF    H1211457  -0.135   1.048   5.180  2.6121  0.0128 -1.3577
  566THF    H1311458  -0.163   1.156   5.321  0.2917 -0.1132 -0.1969
  567THF     O111459   2.105   3.219   0.257 -0.1845 -0.1064 -0.4167
  567THF     C211460   2.155   3.344   0.299 -0.3736 -0.3657  0.7987
  567THF     C311461   2.123   3.227   0.112 -0.5364 -0.1341  0.9777
  567THF     H411462   2.263   3.353   0.292  0.0104 -4.1173 -0.1836
  567THF     H511463   2.125   3.366   0.402  0.0245  0.3674  0.7693
  567THF     H611464   2.224   3.200   0.082 -0.8271 -0.0935 -0.0844
  567THF     H711465   2.055   3.162   0.058  0.8453 -0.3147 -0.6225
  567THF     C811466   2.087   3.371   0.072 -0.5541  0.0621 -0.3557
  567THF     C911467   2.079   3.440   0.207 -0.2833 -0.6683  0.6702
  567THF    H1011468   1.988   3.379   0.026 -0.1245 -0.2106 -1.3616
  567THF    H1111469   2.162   3.416   0.007 -2.0689 -0.6188 -2.7192
  567THF    H1211470   2.132   3.535   0.201 -0.5194 -0.5857 -0.1177
  567THF    H1311471   1.981   3.472   0.243 -0.6784 -1.8193  0.6366
  568THF     O111472   4.964   0.872   0.357  0.2283  0.4686 -0.8656
  568THF     C211473   5.041   0.836   0.244 -0.1989  0.9265  0.1458
  568THF     C311474   4.960   1.013   0.365  0.1844 -0.4037  0.8428
  568THF     H411475   4.964   0.815   0.170 -0.0235 -0.9111  0.4518
  568THF     H511476   5.091   0.743   0.272 -0.8172  0.6174  0.2379
  568THF     H611477   4.859   1.053   0.371  0.6219  1.8582 -3.4356
  568THF     H711478   5.002   1.053   0.457  0.0322 -1.3698  1.3491
  568THF     C811479   5.041   1.063   0.245 -0.2731 -0.1481 -0.1428
  568THF     C911480   5.135   0.955   0.207  0.0933 -0.1964  0.7523
  568THF    H1011481   5.088   1.157   0.273  0.4267 -1.2720  2.8251
  568THF    H1111482   4.956   1.075   0.177 -0.9812 -0.5885  0.6441
  568THF    H1211483   5.151   0.954   0.099  0.0102 -0.8672  0.7419
  568THF    H1311484   5.224   0.961   0.270 -0.4034 -0.8579  1.5452
  569THF     O111485   5.491   1.397   4.792  0.2072 -0.3276  0.6794
  569THF     C211486   5.580   1.323   4.708 -0.4711 -0.5017  0.5271
  569THF     C311487   5.567   1.505   4.838  0.1344 -0.5508 -0.2385
  569THF     H411488   5.575   1.362   4.606 -2.1446  0.8374  1.0851
  569THF     H511489   5.537   1.222   4.709  0.6483 -1.0066 -0.3064
  569THF     H611490   5.596   1.584   4.768 -3.2154 -0.4108 -1.6946
  569THF     H711491   5.517   1.557   4.921  0.1873 -1.5959  0.4668
  569THF     C811492   5.697   1.431   4.883 -0.0753 -0.2553 -0.5700
  569THF     C911493   5.714   1.324   4.780 -0.5202 -0.5351 -0.2708
  569THF    H1011494   5.674   1.383   4.978  1.4107  2.0035  1.0539
  569THF    H1111495   5.786   1.492   4.898  0.3348  0.2185 -4.0733
  569THF    H1211496   5.790   1.341   4.705 -2.9087  0.7626 -2.5602
  569THF    H1311497   5.734   1.232   4.835 -1.6315 -0.4665  0.2738
  570THF     O111498   4.667   2.361   0.057  0.1946  0.0311 -0.7186
  570THF     C211499   4.621   2.374  -0.081 -0.2116  0.0986 -0.0094
  570THF     C311500   4.699   2.224   0.075  0.5183  0.6012 -0.2649
  570THF     H411501   4.692   2.408  -0.156 -1.7407 -0.1267 -1.6436
  570THF     H511502   4.549   2.456  -0.081  0.4777  0.7127  0.4646
  570THF     H611503   4.797   2.185   0.047  0.8052  0.7565  0.4905
  570THF     H711504   4.706   2.202   0.182  3.4984  3.6198  0.3670
  570THF     C811505   4.590   2.150  -0.001 -0.2225 -0.2917  1.2516
  570THF     C911506   4.568   2.235  -0.125 -0.0956 -0.2709  0.3619
  570THF    H1011507   4.502   2.143   0.064 -0.4142 -1.0711  0.9185
  570THF    H1111508   4.609   2.052  -0.044 -2.3443  0.0948 -0.7415
  570THF    H1211509   4.642   2.199  -0.197 -1.5990  1.0606 -1.9774
  570THF    H1311510   4.463   2.241  -0.153 -0.9549  3.0206  3.6004
  571THF     O111511   3.203   1.889   0.082 -0.0029  0.5814 -0.3393
  571THF     C211512   3.070   1.921   0.127 -0.2371  0.3538 -0.3536
  571THF     C311513   3.209   1.752   0.050 -0.2193  0.1291 -0.4253
  571THF     H411514   2.998   1.956   0.053  0.1633 -0.5259 -1.1752
  571THF     H511515   3.081   2.000   0.202  0.9296 -1.0817  1.0483
  571THF     H611516   3.161   1.739  -0.047 -1.3893  0.8724  0.0316
  571THF     H711517   3.311   1.715   0.051 -1.1673 -2.7149  0.0917
  571THF     C811518   3.119   1.680   0.156 -0.5905  0.3880 -0.2240
  571THF     C911519   3.013   1.790   0.190 -0.1818 -0.7627  0.0385
  571THF    H1011520   3.187   1.668   0.240  1.0824 -0.6569 -1.6541
  571THF    H1111521   3.060   1.596   0.119 -0.6638  0.4855 -0.3321
  571THF    H1211522   2.913   1.772   0.150 -1.3376 -0.1790  2.4842
  571THF    H1311523   3.001   1.808   0.297 -1.2124 -0.0564 -0.1786
  572THF     O111524   2.827   4.376   4.375 -0.4436  0.3177  0.2464
  572THF     C211525   2.910   4.269   4.387 -0.3169  0.5942 -0.3353
  572THF     C311526   2.877   4.473   4.465 -0.2022 -0.6045 -0.5063
  572THF     H411527   2.983   4.273   4.306  0.5109  0.9041  0.4131
  572THF     H511528   2.847   4.183   4.364 -0.2251 -0.0378  1.6000
  572THF     H611529   2.960   4.531   4.423 -1.6161 -0.5351 -3.4419
  572THF     H711530   2.798   4.544   4.491  0.8698 -0.1652  1.8683
  572THF     C811531   2.913   4.395   4.588 -0.1501 -0.4351  0.5833
  572THF     C911532   2.968   4.267   4.530  0.2332  0.8708 -0.1876
  572THF    H1011533   2.825   4.378   4.650 -0.3949 -2.5938 -0.2759
  572THF    H1111534   2.989   4.453   4.641  2.3207 -2.0965 -0.9277
  572THF    H1211535   3.076   4.276   4.520  0.5814 -0.4289  1.8370
  572THF    H1311536   2.923   4.182   4.581  0.7082 -1.0142 -2.7432
  573THF     O111537   1.256   5.079   2.361 -0.1247  0.5419 -0.3134
  573THF     C211538   1.144   5.066   2.445 -0.1173 -0.4584 -0.3388
  573THF     C311539   1.286   4.956   2.310 -0.4051  0.2195  0.1089
  573THF     H411540   1.098   5.161   2.470  0.7154 -0.0240 -0.4237
  573THF     H511541   1.161   5.014   2.540 -0.0184  0.3443  0.0931
  573THF     H611542   1.364   4.967   2.234 -1.5761  1.3119 -0.9748
  573THF     H711543   1.329   4.900   2.393 -0.4122 -0.2846 -0.2157
  573THF     C811544   1.152   4.893   2.276 -0.2566 -0.0550 -0.2227
  573THF     C911545   1.056   4.975   2.362 -0.5850 -0.7415  0.8964
  573THF    H1011546   1.143   4.785   2.288 -1.1477 -0.0144 -0.4725
  573THF    H1111547   1.128   4.920   2.173 -1.0082 -0.3832 -0.1395
  573THF    H1211548   0.987   5.032   2.299 -0.1436 -0.5065  0.6198
  573THF    H1311549   0.996   4.921   2.435 -0.0357 -3.4002 -0.4966
  574THF     O111550   5.064   2.581   1.930  0.6256  0.0976 -0.3668
  574THF     C211551   5.007   2.614   2.056  1.2752  0.6552  0.4916
  574THF     C311552   4.968   2.513   1.851 -0.0062 -0.2872 -0.5876
  574THF     H411553   4.952   2.707   2.037 -0.8654 -0.1673  2.1557
  574THF     H511554   5.072   2.616   2.143 -0.1206 -1.0586  1.6510
  574THF     H611555   4.886   2.580   1.826 -0.5874  0.8066  3.6001
  574THF     H711556   4.999   2.458   1.762 -0.5439 -0.5002 -0.6488
  574THF     C811557   4.927   2.414   1.954 -0.5876  0.3271 -0.4175
  574THF     C911558   4.905   2.499   2.075  0.3397  0.0236  0.1569
  574THF    H1011559   5.000   2.335   1.968 -1.3977 -0.7085 -1.7939
  574THF    H1111560   4.836   2.361   1.928 -0.4150  0.8981 -2.3324
  574THF    H1211561   4.803   2.540   2.073  0.1271 -0.1387  3.1574
  574THF    H1311562   4.911   2.443   2.169 -2.0904 -1.8788 -0.7156
  575THF     O111563   1.840   2.378   4.410 -0.3538  0.0099  0.1612
  575THF     C211564   1.771   2.443   4.512  0.4451 -0.0477 -0.0669
  575THF     C311565   1.768   2.399   4.290  0.1068  0.0056  0.6007
  575THF     H411566   1.830   2.437   4.603  1.2032  0.1570 -0.5376
  575THF     H511567   1.679   2.387   4.527 -0.1401  0.7813 -0.4693
  575THF     H611568   1.808   2.362   4.196 -0.0756 -0.6594  0.7745
  575THF     H711569   1.671   2.349   4.289  0.0575  0.0471 -1.6147
  575THF     C811570   1.736   2.551   4.301  0.3405 -0.0808  0.2034
  575THF     C911571   1.748   2.581   4.452 -0.2526 -0.0949 -0.0769
  575THF    H1011572   1.633   2.561   4.268  0.0174  0.0414  1.2097
  575THF    H1111573   1.805   2.612   4.243  0.6731 -0.0473  0.6295
  575THF    H1211574   1.839   2.638   4.474 -0.6668  0.1270  1.1865
  575THF    H1311575   1.660   2.629   4.496 -2.9224 -2.6870 -2.1785
  576THF     O111576   1.205   4.293   4.806 -0.2214 -0.5663  0.0171
  576THF     C211577   1.284   4.394   4.739  0.5937 -0.0486 -0.1556
  576THF     C311578   1.074   4.346   4.790  0.5147 -0.5286  0.1801
  576THF     H411579   1.254   4.397   4.634 -0.5031  0.3983  0.1496
  576THF     H511580   1.392   4.387   4.734  0.5404 -0.0785 -1.8833
  576THF     H611581   1.032   4.320   4.693  2.6321 -0.0973 -0.9096
  576THF     H711582   1.017   4.311   4.876  0.1530 -0.6153 -0.0919
  576THF     C811583   1.088   4.496   4.808  0.6513 -0.2066 -0.2562
  576THF     C911584   1.234   4.522   4.801  0.1741 -0.0858  0.0703
  576THF    H1011585   1.047   4.526   4.904 -2.2598  2.0336 -2.0403
  576THF    H1111586   1.025   4.558   4.744  0.4113 -2.6486 -2.5596
  576THF    H1211587   1.257   4.611   4.742  0.4227  1.8896  2.9226
  576THF    H1311588   1.284   4.547   4.894  1.2914 -0.6191 -0.3703
  577THF     O111589   3.900   4.863   3.455  0.5472  0.0143  0.3683
  577THF     C211590   3.816   4.815   3.555 -0.2392  0.7841 -0.1630
  577THF     C311591   4.024   4.828   3.492  0.3263 -0.7461 -0.1727
  577THF     H411592   3.787   4.712   3.530  0.6646  0.6719 -0.7774
  577THF     H511593   3.722   4.869   3.567 -1.2757 -1.0042  0.2125
  577THF     H611594   4.074   4.741   3.449  0.2430 -0.7514 -0.2581
  577THF     H711595   4.077   4.921   3.472 -0.7313 -0.5372 -2.3356
  577THF     C811596   4.032   4.806   3.640  0.5132 -0.0808  0.0308
  577THF     C911597   3.896   4.833   3.685 -0.0996  0.1572 -0.1501
  577THF    H1011598   4.106   4.865   3.694  1.0526 -1.0367  0.3635
  577THF    H1111599   4.051   4.702   3.667  0.1408  0.6230  3.4509
  577THF    H1211600   3.859   4.763   3.759  2.1995 -0.5536  0.3974
  577THF    H1311601   3.893   4.934   3.726  0.9229  0.0919  0.1093
  578THF     O111602   4.730   3.370   3.277 -0.6221 -0.4255  0.2470
  578THF     C211603   4.698   3.234   3.306  0.5645  0.1132 -0.2550
  578THF     C311604   4.608   3.430   3.250 -0.9128 -0.0094  0.5023
  578THF     H411605   4.646   3.224   3.401 -0.4350  1.7788 -0.5963
  578THF     H511606   4.790   3.176   3.315  1.8898  2.2637  0.7821
  578THF     H611607   4.550   3.445   3.341 -0.3035 -0.0432  0.9055
  578THF     H711608   4.620   3.530   3.207 -1.2196  0.5456  1.6654
  578THF     C811609   4.536   3.330   3.156  0.5734 -0.1381 -0.4369
  578THF     C911610   4.593   3.200   3.196 -0.8000 -0.1079 -0.6150
  578THF    H1011611   4.562   3.370   3.058  0.1359  0.0434 -0.4798
  578THF    H1111612   4.428   3.335   3.173  0.8704  0.8961  1.5390
  578THF    H1211613   4.513   3.141   3.243 -1.6111  1.4848  0.0811
  578THF    H1311614   4.641   3.151   3.112  2.0214  0.0745  0.7836
  579THF     O111615   3.737   1.624   0.191  0.0470 -0.2935 -0.3652
  579THF     C211616   3.762   1.688   0.314  0.1650  0.7287 -0.3109
  579THF     C311617   3.860   1.604   0.128  1.0881 -0.0044 -0.2767
  579THF     H411618   3.671   1.676   0.372  1.2073  0.9583  1.4297
  579THF     H511619   3.783   1.794   0.299  0.5591  0.9269  1.4517
  579THF     H611620   3.855   1.521   0.058 -1.7461 -0.0291 -0.1206
  579THF     H711621   3.886   1.694   0.072 -1.5136  1.1115  0.2044
  579THF     C811622   3.956   1.562   0.237  0.3528 -0.6094 -0.4063
  579THF     C911623   3.883   1.614   0.365  0.2213 -0.3736 -0.8831
  579THF    H1011624   4.059   1.599   0.231  0.0979  0.1700 -0.1582
  579THF    H1111625   3.970   1.454   0.243  0.3006 -0.5462  1.6894
  579THF    H1211626   3.857   1.526   0.425 -0.5616 -0.2297 -1.0023
  579THF    H1311627   3.944   1.685   0.421 -0.9609 -0.4837  0.6326
  580THF     O111628   0.694   1.031   3.218  0.5717 -0.0373  0.2448
  580THF     C211629   0.801   1.097   3.287  0.6175 -0.0688 -0.5822
  580THF     C311630   0.696   0.889   3.235  0.1316  0.5133  0.1917
  580THF     H411631   0.774   1.124   3.389 -2.0024 -1.5209 -0.8019
  580THF     H511632   0.828   1.180   3.222  0.9536 -1.1864 -1.9162
  580THF     H611633   0.609   0.861   3.293  0.9374  0.5294  1.4363
  580THF     H711634   0.688   0.839   3.138 -2.9955  0.9148  0.1630
  580THF     C811635   0.826   0.868   3.313 -0.2341  0.3835 -0.3057
  580THF     C911636   0.912   0.991   3.287 -0.1701  0.2234  0.0674
  580THF    H1011637   0.871   0.775   3.279 -1.3007 -0.3881  0.3099
  580THF    H1111638   0.804   0.849   3.418 -0.7236  1.1318 -0.2668
  580THF    H1211639   1.000   0.998   3.351  1.2050 -1.8189 -1.5101
  580THF    H1311640   0.952   0.996   3.186 -0.4630 -1.8372 -0.1985
  581THF     O111641   4.168   1.062   0.981  0.0915 -0.1992  0.6781
  581THF     C211642   4.148   1.195   1.012 -0.3011 -0.2935  0.6007
  581THF     C311643   4.160   0.978   1.094 -1.0707  0.5306  0.5771
  581THF     H411644   4.039   1.200   1.017 -0.3217 -1.2360  1.1371
  581THF     H511645   4.186   1.255   0.929  0.8902 -0.6667  0.8587
  581THF     H611646   4.053   0.963   1.104 -0.9361 -1.7793 -0.6696
  581THF     H711647   4.208   0.880   1.089 -1.2810  0.4798 -0.5826
  581THF     C811648   4.216   1.063   1.202  0.8877  0.4071 -0.8310
  581THF     C911649   4.228   1.203   1.141 -0.0806  0.0836 -0.4339
  581THF    H1011650   4.314   1.028   1.237  0.4914 -0.5511 -0.6601
  581THF    H1111651   4.152   1.065   1.290  1.1462  3.1472 -0.6064
  581THF    H1211652   4.199   1.274   1.218  0.9339  0.4479 -0.3659
  581THF    H1311653   4.330   1.221   1.105 -0.3004 -0.0032 -1.1318
  582THF     O111654   1.923   1.806   1.274 -0.1446 -0.3999  0.1406
  582THF     C211655   1.948   1.743   1.391 -0.0589  0.6491  0.4494
  582THF     C311656   1.958   1.722   1.165  0.8567  0.5607  0.8021
  582THF     H411657   1.857   1.691   1.421 -0.2851  1.7251  1.7757
  582THF     H511658   1.968   1.815   1.471  0.2095 -2.4521  3.3769
  582THF     H611659   1.864   1.677   1.134  0.6537  1.8729 -0.5812
  582THF     H711660   1.998   1.766   1.073  1.2718 -1.6162 -0.1249
  582THF     C811661   2.040   1.608   1.228  0.1792 -0.2231 -0.4248
  582THF     C911662   2.071   1.656   1.367 -0.0534 -0.1265  0.1272
  582THF    H1011663   2.132   1.592   1.172 -0.6208 -0.3746 -1.7150
  582THF    H1111664   1.991   1.511   1.241  1.6426 -0.7848  1.3861
  582THF    H1211665   2.068   1.579   1.445  0.9544  1.3734  1.7311
  582THF    H1311666   2.166   1.709   1.376 -0.1858  1.0660 -3.6887
  583THF     O111667   0.785   3.927   0.650 -0.5806  0.0446  0.3889
  583THF     C211668   0.885   3.902   0.748  0.3131 -0.4153 -0.0027
  583THF     C311669   0.701   3.815   0.633 -0.3964  0.5874 -0.0361
  583THF     H411670   0.865   3.939   0.849  4.1737  0.9923  0.4370
  583THF     H511671   0.979   3.950   0.721 -0.1311 -0.6435 -2.0784
  583THF     H611672   0.609   3.837   0.688  0.2388  1.9888  0.4962
  583THF     H711673   0.661   3.807   0.532 -1.0554  0.2500  0.2420
  583THF     C811674   0.779   3.693   0.688  0.0188 -0.5030 -0.0501
  583THF     C911675   0.905   3.757   0.735 -0.9355  0.2145 -0.5128
  583THF    H1011676   0.791   3.605   0.624  1.3778 -1.1810  1.0692
  583THF    H1111677   0.727   3.647   0.772  0.7057 -0.7267  0.2577
  583THF    H1211678   0.950   3.701   0.817 -0.1605 -0.7741 -1.5813
  583THF    H1311679   0.968   3.735   0.649  0.2252  1.2376  0.0576
  584THF     O111680   3.336   1.871   5.041 -0.0385 -0.1519 -0.2039
  584THF     C211681   3.382   1.905   5.171  0.0513  0.1684 -0.5767
  584THF     C311682   3.219   1.948   5.019  0.3904  0.1999 -0.2181
  584THF     H411683   3.459   1.982   5.172  0.1917  0.0824  2.0513
  584THF     H511684   3.429   1.811   5.200 -1.3730 -0.7211 -1.0301
  584THF     H611685   3.229   2.051   4.985  0.6515 -0.8167 -3.5217
  584THF     H711686   3.149   1.898   4.952  0.2248 -0.2196  0.2616
  584THF     C811687   3.151   1.943   5.153 -0.2263 -0.4846 -0.2114
  584THF     C911688   3.265   1.943   5.256  0.0364 -0.1091 -0.1827
  584THF    H1011689   3.101   1.847   5.168  0.2435 -0.3238  3.0914
  584THF    H1111690   3.078   2.023   5.167  2.0175  1.5462  0.5807
  584THF    H1211691   3.272   2.034   5.315 -0.1486 -0.3089  0.1561
  584THF    H1311692   3.245   1.861   5.326 -1.1151 -0.9287 -1.4187
  585THF     O111693   0.195   0.031   0.109 -0.1848  0.4856  0.2895
  585THF     C211694   0.058   0.020   0.074  0.2939  0.1476 -0.1162
  585THF     C311695   0.272   0.028  -0.009  0.1238 -0.4382  0.0931
  585THF     H411696   0.029   0.114   0.026  0.2882  0.7806  1.0944
  585THF     H511697  -0.008   0.013   0.160 -0.6165  1.0716 -0.7136
  585THF     H611698   0.272   0.128  -0.051 -0.8681  0.1000  1.3065
  585THF     H711699   0.376  -0.002   0.002  0.9882  1.6744 -1.6337
  585THF     C811700   0.193  -0.071  -0.094  0.2681 -0.2314  1.4074
  585THF     C911701   0.052  -0.085  -0.037 -0.3817 -0.5342 -0.3856
  585THF    H1011702   0.235  -0.171  -0.105  0.6525  0.0797 -0.2637
  585THF    H1111703   0.172  -0.028  -0.192 -3.1888  0.7066  2.4096
  585THF    H1211704  -0.015  -0.065  -0.120 -0.9062  0.9636  0.3529
  585THF    H1311705   0.035  -0.188  -0.004 -0.0600 -0.7353 -0.8536
  586THF     O111706   5.237   3.476   2.779  0.4477  1.1169 -0.4186
  586THF     C211707   5.317   3.444   2.892 -0.0644  0.0016  0.3376
  586THF     C311708   5.101   3.468   2.812  0.4060  0.0724 -0.2977
  586THF     H411709   5.328   3.527   2.962 -0.2164 -0.0679  0.4426
  586THF     H511710   5.417   3.416   2.860  0.1164 -1.5014  2.0467
  586THF     H611711   5.079   3.567   2.850  0.6124  0.9172 -2.2735
  586THF     H711712   5.040   3.471   2.721  0.6486  3.5352 -0.4806
  586THF     C811713   5.086   3.358   2.912  0.1596 -0.3326  0.5837
  586THF     C911714   5.234   3.330   2.952 -0.2521 -0.0593 -0.2985
  586THF    H1011715   5.056   3.265   2.864 -0.0685  0.1284 -0.1809
  586THF    H1111716   5.022   3.382   2.998 -1.0283 -2.8384  0.4806
  586THF    H1211717   5.254   3.305   3.056  0.4205  0.1763 -0.3677
  586THF    H1311718   5.261   3.239   2.898  0.3604 -0.3793  0.5198
  587THF     O111719   0.847   2.924   4.635 -0.4451  0.1799 -0.1576
  587THF     C211720   0.912   2.978   4.523 -0.1068  0.4495 -0.3099
  587THF     C311721   0.800   3.035   4.713  0.0670 -0.5457  0.0433
  587THF     H411722   0.834   2.981   4.447 -1.4228 -4.1659  0.5279
  587THF     H511723   0.978   2.909   4.469 -2.0296 -1.6662 -0.1125
  587THF     H611724   0.705   3.056   4.665  0.3652  0.7418 -0.0075
  587THF     H711725   0.772   3.009   4.815  0.8426  1.9268  0.9509
  587THF     C811726   0.902   3.149   4.698 -0.1342  0.0816  0.6762
  587THF     C911727   0.976   3.103   4.572 -0.3707 -0.2661 -0.1994
  587THF    H1011728   0.975   3.152   4.779 -0.7710  1.6044  1.2189
  587THF    H1111729   0.876   3.254   4.696 -0.9138 -0.1007  1.1412
  587THF    H1211730   0.970   3.181   4.496  1.1303  0.6290  0.5600
  587THF    H1311731   1.081   3.083   4.591 -0.3962  0.2540  0.5166
  588THF     O111732   1.111   3.846   0.310  0.6382  0.4582  1.0289
  588THF     C211733   0.988   3.832   0.236  0.1540  0.8333  0.1220
  588THF     C311734   1.224   3.848   0.222 -0.9100 -0.2006 -0.5307
  588THF     H411735   0.911   3.893   0.284 -0.3430 -0.4641  1.0271
  588THF     H511736   0.944   3.733   0.245  1.2068  0.3707  0.3324
  588THF     H611737   1.306   3.899   0.272 -2.1117  0.8267  0.4831
  588THF     H711738   1.271   3.752   0.202 -0.1630  0.4721 -2.1124
  588THF     C811739   1.162   3.926   0.104 -0.4917 -0.5071 -0.0334
  588THF     C911740   1.013   3.876   0.094 -0.2066 -0.1087 -0.3812
  588THF    H1011741   1.215   3.907   0.011  0.8781 -1.1739  0.8586
  588THF    H1111742   1.161   4.035   0.112  0.0908 -0.5086  0.1104
  588THF    H1211743   0.941   3.949   0.057  1.3071  2.1911  0.9428
  588THF    H1311744   1.014   3.785   0.034  0.9549 -0.5972  0.3413
  589THF     O111745   0.722   3.359   0.778  0.4615  0.1055 -0.1584
  589THF     C211746   0.718   3.219   0.794 -0.0222  0.1571 -0.9657
  589THF     C311747   0.739   3.420   0.909 -0.1910 -0.4062  0.7316
  589THF     H411748   0.804   3.175   0.744  0.0235 -1.5518  0.4880
  589THF     H511749   0.616   3.193   0.764 -1.0108  1.8862  0.6332
  589THF     H611750   0.846   3.432   0.926  0.4468 -1.2760 -2.1749
  589THF     H711751   0.691   3.517   0.923 -1.0841 -0.7445  0.1247
  589THF     C811752   0.685   3.323   1.005  0.0420  0.1871 -0.0409
  589THF     C911753   0.736   3.196   0.947  0.8970 -0.4214 -0.2502
  589THF    H1011754   0.577   3.335   1.005 -0.0256 -0.4023  0.0448
  589THF    H1111755   0.726   3.350   1.103  1.5356  0.2477 -0.6496
  589THF    H1211756   0.843   3.184   0.965  1.1365  0.6045 -0.9018
  589THF    H1311757   0.672   3.112   0.974 -0.7561  0.3371 -1.5903
  590THF     O111758   5.392   3.917   1.379  0.3692 -0.3956 -0.0980
  590THF     C211759   5.383   3.788   1.332  0.0185 -0.2244  0.9559
  590THF     C311760   5.276   3.937   1.471 -0.0590 -0.3425  0.8391
  590THF     H411761   5.476   3.752   1.288 -2.3850 -1.5220 -3.8054
  590THF     H511762   5.302   3.781   1.259  0.0518 -0.1853  0.9152
  590THF     H611763   5.310   4.013   1.541  0.4589  0.8000 -0.5939
  590THF     H711764   5.183   3.968   1.421  1.6730  0.6062 -2.0686
  590THF     C811765   5.266   3.801   1.549 -0.8509  1.0544  0.0471
  590THF     C911766   5.358   3.708   1.461 -0.2247 -0.6984 -0.4532
  590THF    H1011767   5.165   3.762   1.541  0.4126 -2.8560  0.6366
  590THF    H1111768   5.296   3.803   1.654 -0.7055 -2.3659  0.1875
  590THF    H1211769   5.445   3.697   1.526  0.8408  0.3217 -1.6353
  590THF    H1311770   5.322   3.607   1.439  1.4241 -0.8321 -3.0154
  591THF     O111771   3.295   0.872   1.545 -0.2545  0.0243  0.1695
  591THF     C211772   3.363   0.993   1.582 -0.2441 -0.6045 -0.2039
  591THF     C311773   3.403   0.786   1.514  0.0485  0.2268 -0.6862
  591THF     H411774   3.291   1.051   1.640 -0.0427  0.8418 -1.3531
  591THF     H511775   3.408   1.050   1.501  0.1454  0.9358  1.0600
  591THF     H611776   3.367   0.683   1.510  0.5561 -0.3493  4.0574
  591THF     H711777   3.456   0.811   1.422  0.7862  0.4265 -0.2177
  591THF     C811778   3.498   0.799   1.631  0.0558  0.0499  0.1951
  591THF     C911779   3.479   0.947   1.668  0.3221 -0.3121 -0.2407
  591THF    H1011780   3.597   0.783   1.587 -0.2036  1.4936 -0.9782
  591THF    H1111781   3.474   0.722   1.704 -1.3944  0.4102  0.1186
  591THF    H1211782   3.455   0.954   1.774  1.4577 -1.6518  0.1422
  591THF    H1311783   3.571   1.000   1.646  0.4873 -0.7153 -0.5416
  592THF     O111784   0.871   0.600   0.334  0.3547  0.0366  0.3825
  592THF     C211785   0.834   0.726   0.371 -0.2844  0.4672 -0.1364
  592THF     C311786   0.917   0.595   0.193 -0.0211 -0.2004  0.0510
  592THF     H411787   0.840   0.730   0.480 -0.2419 -1.6507 -0.0071
  592THF     H511788   0.729   0.736   0.343  0.0708 -1.1158 -2.2923
  592THF     H611789   1.014   0.545   0.200 -0.9427 -2.0723  0.1785
  592THF     H711790   0.848   0.536   0.131  0.4475 -0.9348  0.2112
  592THF     C811791   0.938   0.747   0.152 -0.4667  0.4299  0.1051
  592THF     C911792   0.930   0.814   0.296  0.3974 -0.1402 -0.0357
  592THF    H1011793   0.858   0.769   0.081 -0.5197 -2.1108 -0.7304
  592THF    H1111794   1.036   0.758   0.105 -0.7753  0.9144 -0.4406
  592THF    H1211795   1.026   0.803   0.346 -1.1010 -1.2615  2.8406
  592THF    H1311796   0.913   0.921   0.282 -0.9710 -0.3730 -0.2876
  593THF     O111797   1.997   1.748   3.432 -0.6329  0.2026 -0.1856
  593THF     C211798   2.101   1.749   3.334  0.5843 -0.1780 -0.0703
  593THF     C311799   1.884   1.820   3.382  0.0931 -0.2075  0.2839
  593THF     H411800   2.073   1.670   3.265  0.1194  1.3492 -1.7277
  593THF     H511801   2.198   1.728   3.378  0.2422  0.3248  0.9614
  593THF     H611802   1.829   1.759   3.311 -1.2010  0.2066  0.9075
  593THF     H711803   1.809   1.843   3.457  0.3019 -0.1253  0.4697
  593THF     C811804   1.949   1.941   3.315 -0.5454  0.3800  0.2881
  593THF     C911805   2.083   1.885   3.264 -0.1219 -0.7392  0.3841
  593THF    H1011806   1.965   2.010   3.399  2.5702  1.4873 -1.0670
  593THF    H1111807   1.885   1.987   3.241  0.5680 -1.5932 -2.0237
  593THF    H1211808   2.089   1.881   3.156  2.2474  0.8174  0.3785
  593THF    H1311809   2.168   1.949   3.286 -1.6309  0.7075  2.4505
  594THF     O111810   5.475   0.462   5.150 -0.2881  0.2326  0.6445
  594THF     C211811   5.451   0.372   5.254 -0.6974 -0.0729  0.1131
  594THF     C311812   5.598   0.423   5.086  0.0582 -0.3815  0.3635
  594THF     H411813   5.345   0.370   5.277 -0.8519  0.3856 -0.5254
  594THF     H511814   5.522   0.397   5.334  1.4585 -0.7932 -1.4628
  594THF     H611815   5.585   0.442   4.979  0.5993 -1.0000  0.1814
  594THF     H711816   5.685   0.481   5.115  1.3377 -1.6621 -0.7382
  594THF     C811817   5.619   0.273   5.118 -0.6022  0.2080  0.2857
  594THF     C911818   5.502   0.238   5.207 -0.5806  0.1971 -0.4499
  594THF    H1011819   5.717   0.267   5.167 -0.8562 -0.3023  0.7435
  594THF    H1111820   5.634   0.212   5.028  1.0572  2.2499 -0.9172
  594THF    H1211821   5.428   0.183   5.150  0.8561  1.6468 -3.9574
  594THF    H1311822   5.530   0.175   5.292 -1.4641  1.1505  0.5885
  595THF     O111823   4.575   0.972   1.179 -0.6450  0.2962  0.2671
  595THF     C211824   4.708   0.976   1.242  0.5450 -0.2862 -0.0274
  595THF     C311825   4.533   0.839   1.163  0.2746 -0.0517  0.1510
  595THF     H411826   4.691   0.959   1.349  0.7686 -0.6110 -0.0441
  595THF     H511827   4.759   1.065   1.207 -0.9360  0.8621  0.6104
  595THF     H611828   4.445   0.813   1.223  0.6574 -0.0261  0.7280
  595THF     H711829   4.506   0.840   1.058  1.0737  0.9035 -0.0498
  595THF     C811830   4.652   0.756   1.195  0.2102  0.5741 -0.7688
  595THF     C911831   4.766   0.850   1.190 -0.5055  0.3635 -0.3190
  595THF    H1011832   4.662   0.666   1.134  1.0273 -0.6853  1.1094
  595THF    H1111833   4.638   0.718   1.297  1.6734  0.7399 -0.4857
  595THF    H1211834   4.852   0.812   1.244 -0.0219 -1.6282 -2.3210
  595THF    H1311835   4.791   0.852   1.084  0.5475 -2.1803 -0.1909
  596THF     O111836   0.420   2.899   1.193  0.1542  0.0351 -0.6670
  596THF     C211837   0.563   2.897   1.181  0.1844 -0.1541 -0.0427
  596THF     C311838   0.370   2.931   1.064  0.1183  0.0531  0.2664
  596THF     H411839   0.611   2.854   1.268  0.0911  0.5394  0.3608
  596THF     H511840   0.600   2.999   1.169  0.3632 -0.1812  0.2775
  596THF     H611841   0.269   2.896   1.042  0.4740 -0.6024 -0.3694
  596THF     H711842   0.350   3.037   1.050 -2.5481 -0.6666 -2.5955
  596THF     C811843   0.478   2.871   0.971  0.4677  0.3537 -0.7049
  596THF     C911844   0.576   2.814   1.054  0.0853 -0.8146  0.0030
  596THF    H1011845   0.517   2.953   0.910  0.7774 -1.1816 -2.6885
  596THF    H1111846   0.446   2.801   0.893  1.2348 -2.4976  1.3992
  596THF    H1211847   0.547   2.711   1.076  1.0194 -0.7209  1.8459
  596THF    H1311848   0.674   2.825   1.008 -1.0097  3.2638 -1.7680
  597THF     O111849   2.475   0.472   5.116  0.1466  0.1942 -0.0061
  597THF     C211850   2.469   0.609   5.161 -0.2166  0.0896  0.2563
  597THF     C311851   2.518   0.401   5.233 -0.8828  0.0156 -0.9048
  597THF     H411852   2.382   0.661   5.121 -0.5979 -1.9028 -1.6638
  597THF     H511853   2.557   0.656   5.117 -0.3361  0.0530 -0.0258
  597THF     H611854   2.483   0.299   5.212 -1.2315 -0.4427  1.5953
  597THF     H711855   2.626   0.414   5.243 -0.7708  0.7625 -2.6662
  597THF     C811856   2.450   0.473   5.352 -0.3741  0.1702 -0.0560
  597THF     C911857   2.482   0.617   5.311  0.1701 -0.3096  0.5141
  597THF    H1011858   2.502   0.447   5.444 -0.1370  0.4379 -0.1146
  597THF    H1111859   2.342   0.457   5.360 -0.5582  0.9251 -0.8877
  597THF    H1211860   2.412   0.685   5.361  0.4514  0.4448 -0.1066
  597THF    H1311861   2.584   0.653   5.327 -0.0455  1.1481 -1.1120
  598THF     O111862   2.385   2.133   2.633  0.4156  0.4414  0.1713
  598THF     C211863   2.473   2.240   2.607 -0.5012 -0.3763 -0.4986
  598THF     C311864   2.359   2.072   2.511 -0.2970 -0.7180 -0.1084
  598THF     H411865   2.570   2.199   2.638  0.1027  0.8193 -0.7539
  598THF     H511866   2.435   2.325   2.664 -0.5743  0.4044 -1.6819
  598THF     H611867   2.443   2.014   2.473  0.1344  0.1234 -0.4866
  598THF     H711868   2.265   2.017   2.514 -1.6143  1.3858 -0.6363
  598THF     C811869   2.352   2.187   2.410  0.6326 -0.9539 -0.2384
  598THF     C911870   2.463   2.276   2.459 -0.9367  0.0165 -0.5751
  598THF    H1011871   2.256   2.236   2.423  0.9855 -0.0354 -0.9648
  598THF    H1111872   2.360   2.146   2.309 -2.6128 -1.7736 -0.2630
  598THF    H1211873   2.548   2.251   2.395  0.4238 -1.5023  1.7208
  598THF    H1311874   2.452   2.384   2.444  0.8264  0.3360  0.1340
  599THF     O111875   1.381   1.314   1.784  0.1864 -0.4111 -0.1223
  599THF     C211876   1.479   1.368   1.874  0.8456 -0.5066  0.5740
  599THF     C311877   1.451   1.229   1.698 -0.5923  0.3005  0.4991
  599THF     H411878   1.473   1.291   1.951  2.4959  0.7234  2.0121
  599THF     H511879   1.441   1.464   1.908 -0.8570 -0.4195 -1.4215
  599THF     H611880   1.473   1.137   1.753  0.8628  1.9262  2.7877
  599THF     H711881   1.388   1.193   1.617  0.5009  0.9148 -0.6676
  599THF     C811882   1.576   1.302   1.660  0.1164 -0.2519  0.3179
  599THF     C911883   1.611   1.359   1.793 -0.5604  0.5570  0.5194
  599THF    H1011884   1.549   1.370   1.579 -2.6504 -2.7878 -1.0591
  599THF    H1111885   1.658   1.239   1.623  1.5551 -0.3745  3.3876
  599THF    H1211886   1.676   1.288   1.844 -2.3204 -1.0153  0.6374
  599THF    H1311887   1.662   1.455   1.787 -0.0635  0.2704  0.0670
  600THF     O111888   2.692   4.035   0.608 -0.1772  0.0419  0.2065
  600THF     C211889   2.704   4.040   0.463 -0.1784 -0.1880 -0.2816
  600THF     C311890   2.579   4.108   0.659 -0.0635  0.2980 -0.0421
  600THF     H411891   2.633   3.974   0.413 -0.6630 -0.2498  0.4724
  600THF     H511892   2.803   4.014   0.426 -0.1233  0.4281 -0.5835
  600THF     H611893   2.494   4.042   0.680 -1.5275  0.9546 -3.2470
  600THF     H711894   2.612   4.162   0.748 -3.1229 -0.5716  1.7916
  600THF     C811895   2.553   4.208   0.542 -0.2600 -0.1467  0.3752
  600THF     C911896   2.658   4.181   0.425  0.5274 -0.3537 -0.5110
  600THF    H1011897   2.569   4.310   0.577  2.7817 -0.4209  0.0973
  600THF    H1111898   2.458   4.195   0.490  0.7903  1.5678 -2.1451
  600THF    H1211899   2.622   4.182   0.322 -0.1481 -0.5619 -0.2831
  600THF    H1311900   2.746   4.243   0.419  0.5936 -0.4775 -0.8400
  601THF     O111901   0.702   4.899   0.749 -0.0955  0.0269  0.2441
  601THF     C211902   0.726   4.823   0.639 -0.8255 -0.3189  0.4140
  601THF     C311903   0.758   5.027   0.718 -0.2932 -0.2335  0.9858
  601THF     H411904   0.655   4.741   0.626 -0.2872 -0.6729 -0.3036
  601THF     H511905   0.830   4.794   0.649 -0.4916 -0.0951 -1.8605
  601THF     H611906   0.715   5.112   0.772 -0.2101  1.3160 -1.2252
  601THF     H711907   0.861   5.025   0.754  0.7970  1.7474 -1.6966
  601THF     C811908   0.747   5.055   0.564  0.4334  0.4725 -0.4183
  601THF     C911909   0.707   4.917   0.515 -0.4645  0.0971  0.8136
  601THF    H1011910   0.842   5.090   0.523  0.1239  2.8520  0.7386
  601THF    H1111911   0.661   5.115   0.534  0.2358  0.6226  0.4097
  601THF    H1211912   0.604   4.923   0.481 -0.2668  1.1872  0.3487
  601THF    H1311913   0.771   4.882   0.433 -0.7072 -1.3301  1.2090
  602THF     O111914   0.834   0.382   4.874  0.0550  0.8517 -0.8008
  602THF     C211915   0.718   0.442   4.814 -0.1598 -0.4006 -0.0749
  602THF     C311916   0.833   0.411   5.016  0.8899  0.0439 -0.3732
  602THF     H411917   0.690   0.387   4.725 -1.5026 -0.2778  0.2534
  602THF     H511918   0.750   0.545   4.799  0.6889 -0.3344  1.8322
  602THF     H611919   0.873   0.327   5.073  0.3669 -0.3841 -0.6288
  602THF     H711920   0.891   0.500   5.040  1.4813 -0.5172  0.3657
  602THF     C811921   0.688   0.438   5.055  0.1950  0.0629  0.5268
  602THF     C911922   0.609   0.449   4.925  0.5156 -0.2374 -0.8387
  602THF    H1011923   0.687   0.529   5.113  2.7547 -0.3269  1.3011
  602THF    H1111924   0.651   0.367   5.129  1.8486 -0.5494  0.8053
  602THF    H1211925   0.529   0.375   4.927 -1.3786  1.7196  0.5070
  602THF    H1311926   0.556   0.544   4.928 -0.8890 -1.0062  0.1105
  603THF     O111927   2.706   2.969   0.003  0.5280  0.0588  0.2210
  603THF     C211928   2.602   3.065  -0.012 -0.0758  0.4248 -1.0945
  603THF     C311929   2.736   2.926  -0.127  0.3085 -0.4309 -0.0915
  603THF     H411930   2.606   3.128   0.076 -0.0767 -1.1791  0.0931
  603THF     H511931   2.513   3.003  -0.027 -0.1388 -0.1852  1.4096
  603THF     H611932   2.830   2.872  -0.138 -0.4612 -2.1302  1.1656
  603THF     H711933   2.661   2.850  -0.148  1.6184 -1.8745  0.2888
  603THF     C811934   2.730   3.044  -0.211  0.9620 -0.3825  0.0048
  603THF     C911935   2.635   3.145  -0.133 -0.4456 -0.3844  0.1325
  603THF    H1011936   2.675   3.027  -0.304 -1.0985  0.3492  1.0197
  603THF    H1111937   2.830   3.084  -0.232  0.2729  1.6544  0.3747
  603THF    H1211938   2.683   3.241  -0.113 -0.7982 -0.4695  1.4718
  603THF    H1311939   2.544   3.170  -0.187 -0.5584 -1.9453 -0.4481
  604THF     O111940   3.134   3.054   3.570 -0.6656 -0.1038 -0.2435
  604THF     C211941   3.003   3.036   3.522  0.5913 -0.1657  0.0092
  604THF     C311942   3.204   2.929   3.589 -0.0088 -0.0819  0.0239
  604THF     H411943   3.002   3.025   3.414  0.9123 -2.2723  0.1765
  604THF     H511944   2.937   3.118   3.551 -1.8492 -2.0682  0.1270
  604THF     H611945   3.273   2.906   3.508  0.3743 -2.5014  0.9664
  604THF     H711946   3.244   2.929   3.690  2.3022 -3.0077 -0.7696
  604THF     C811947   3.095   2.826   3.578  0.2306  0.0054 -0.4919
  604THF     C911948   2.969   2.909   3.596 -0.3106 -0.5036  0.9348
  604THF    H1011949   3.108   2.751   3.656 -2.9022  0.2719  0.4071
  604THF    H1111950   3.090   2.766   3.487 -1.1452  1.6661 -1.5582
  604THF    H1211951   2.877   2.865   3.556 -0.4194  0.2618  0.3131
  604THF    H1311952   2.952   2.933   3.701  0.4794  0.5399  0.8451
  605THF     O111953   4.227   4.781   1.108  0.2337 -0.1229 -0.4016
  605THF     C211954   4.267   4.922   1.101 -0.3423  0.1948  0.8893
  605THF     C311955   4.149   4.769   1.230 -0.6447  0.6950  0.6515
  605THF     H411956   4.205   4.975   1.029  0.9495  0.8185  0.2034
  605THF     H511957   4.372   4.919   1.071 -0.4642 -1.3533  0.5241
  605THF     H611958   4.048   4.800   1.205 -0.5552 -0.2909 -1.1756
  605THF     H711959   4.162   4.666   1.264 -1.7132  0.3256  0.0019
  605THF     C811960   4.211   4.858   1.327 -0.2970 -0.3533 -0.6413
  605THF     C911961   4.255   4.983   1.239 -0.0631 -0.0198 -0.2883
  605THF    H1011962   4.292   4.801   1.372  0.2707 -1.0064 -2.3990
  605THF    H1111963   4.145   4.889   1.407 -0.0297 -0.9117 -0.2014
  605THF    H1211964   4.183   5.065   1.238  0.7756  0.7310 -2.1097
  605THF    H1311965   4.351   5.027   1.265  0.3022  1.6122 -3.8789
  606THF     O111966   2.582   0.561   2.432  0.1062  0.2532  0.1621
  606THF     C211967   2.438   0.528   2.432 -0.8476 -0.0648 -0.1012
  606THF     C311968   2.604   0.698   2.468  0.8353  0.4337 -0.0280
  606THF     H411969   2.413   0.470   2.521 -1.3856 -0.4986 -0.5261
  606THF     H511970   2.415   0.472   2.342 -1.1720 -2.1137  1.1933
  606THF     H611971   2.618   0.705   2.576  1.2798 -1.0735  0.0315
  606THF     H711972   2.702   0.733   2.433  1.9105 -1.4095  0.9977
  606THF     C811973   2.471   0.762   2.435 -0.1605  0.3751 -0.3622
  606THF     C911974   2.371   0.661   2.432  0.1352 -0.1036  0.6911
  606THF    H1011975   2.484   0.809   2.338  0.3816 -0.3259 -0.6459
  606THF    H1111976   2.445   0.837   2.509 -0.6059  0.5400 -0.6820
  606THF    H1211977   2.304   0.673   2.517 -1.9922 -2.8690 -0.4071
  606THF    H1311978   2.302   0.679   2.349  0.9964 -0.2079 -0.0605
  607THF     O111979   4.932   3.093   0.633  0.1692 -0.1647  0.3896
  607THF     C211980   5.019   3.144   0.527  0.4761  0.5197 -0.9830
  607THF     C311981   4.899   3.213   0.699 -0.5877  0.0198 -0.0918
  607THF     H411982   4.960   3.164   0.438 -1.2682 -0.8827 -0.2115
  607THF     H511983   5.082   3.056   0.510  1.8880  1.3190  0.0139
  607THF     H611984   4.816   3.255   0.643 -0.7202 -2.3100 -1.7934
  607THF     H711985   4.860   3.199   0.800 -0.1012 -1.6400 -0.1096
  607THF     C811986   5.026   3.293   0.712  0.2303  0.1215 -0.0165
  607THF     C911987   5.105   3.254   0.588  0.4452  0.2888  0.2527
  607THF    H1011988   5.085   3.255   0.794 -1.3228  0.7425  1.4453
  607THF    H1111989   5.001   3.399   0.721 -0.2917 -0.0097  0.1048
  607THF    H1211990   5.109   3.336   0.516 -2.3855  0.7247  0.4825
  607THF    H1311991   5.206   3.228   0.619 -0.3126 -2.5974  0.6512
  608THF     O111992   0.989   4.827   3.547  0.4075  0.0187  0.1549
  608THF     C211993   1.086   4.861   3.450  0.2901  0.5611 -0.0272
  608THF     C311994   0.895   4.732   3.491 -0.2763  0.1658  0.0957
  608THF     H411995   1.186   4.835   3.484  0.3909  1.9293  0.8302
  608THF     H511996   1.078   4.970   3.439 -0.1576  0.6740  1.2600
  608THF     H611997   0.928   4.631   3.516  2.1198  0.2894 -2.1639
  608THF     H711998   0.797   4.739   3.539  0.2622 -0.3345  1.3080
  608THF     C811999   0.903   4.746   3.342  1.1901 -0.7934  0.9318
  608THF     C912000   1.040   4.789   3.321 -0.0467  0.4772  0.1285
  608THF    H1012001   0.825   4.818   3.317  0.2022 -1.6927  1.3564
  608THF    H1112002   0.874   4.653   3.292 -0.5838  0.2232 -0.0303
  608THF    H1212003   1.103   4.701   3.313 -0.3245  0.1365  1.4416
  608THF    H1312004   1.056   4.845   3.229 -0.3175  0.4519  0.0661
  609THF     O112005   3.885   0.190   3.720 -0.2651 -0.0495  0.0209
  609THF     C212006   3.820   0.279   3.811 -0.4867  0.1170 -0.0319
  609THF     C312007   3.800   0.184   3.604  0.1563 -0.2817 -0.0544
  609THF     H412008   3.842   0.380   3.777  2.4569  0.2028  1.8215
  609THF     H512009   3.846   0.260   3.915  1.2980  1.3982 -0.2013
  609THF     H612010   3.814   0.277   3.550  1.4563 -1.1064 -1.2312
  609THF     H712011   3.827   0.103   3.535 -0.2429 -0.3280 -0.1568
  609THF     C812012   3.667   0.167   3.670 -0.4547 -0.3489 -0.5128
  609THF     C912013   3.672   0.247   3.796 -0.9897 -0.2008 -0.9982
  609THF    H1012014   3.644   0.063   3.692 -1.1455  0.5328  3.8816
  609THF    H1112015   3.593   0.202   3.598  2.7558  2.6848 -2.6644
  609THF    H1212016   3.625   0.345   3.785 -0.2441  0.8628  3.4020
  609THF    H1312017   3.632   0.190   3.880 -2.6397  1.7706 -0.3703
  610THF     O112018   0.600   3.537   4.499 -0.4041 -0.1749  0.5823
  610THF     C212019   0.723   3.473   4.493 -0.6892 -0.5397 -0.4350
  610THF     C312020   0.597   3.668   4.445 -0.2068 -0.2415  0.2203
  610THF     H412021   0.740   3.425   4.397 -2.4836 -2.5815  0.1662
  610THF     H512022   0.741   3.400   4.572  1.6510 -1.4905 -1.7820
  610THF     H612023   0.554   3.665   4.345 -0.7323  0.5572  0.4104
  610THF     H712024   0.537   3.737   4.505 -1.5763 -0.3776 -0.9378
  610THF     C812025   0.745   3.704   4.440  0.2054  0.1532  0.0954
  610THF     C912026   0.817   3.596   4.510 -0.4371 -0.3600 -0.0204
  610THF    H1012027   0.770   3.790   4.502  2.1043 -1.0074  1.0346
  610THF    H1112028   0.785   3.713   4.339 -2.1560 -1.4302 -1.0734
  610THF    H1212029   0.917   3.579   4.469 -0.6865 -0.9872 -0.3820
  610THF    H1312030   0.842   3.634   4.609  1.8547 -1.6837 -0.0311
  611THF     O112031   4.012   3.290   4.587  0.2875 -0.5290 -0.0796
  611THF     C212032   3.876   3.336   4.617 -0.1289  0.4771 -0.2048
  611THF     C312033   4.108   3.372   4.649 -0.4707 -0.1025  0.0214
  611THF     H412034   3.851   3.287   4.711  2.5422 -0.7943 -0.0366
  611THF     H512035   3.810   3.307   4.535  0.9205  0.1051 -0.9488
  611THF     H612036   4.120   3.352   4.755 -2.8824  2.0824  0.7894
  611THF     H712037   4.207   3.376   4.603 -0.7198 -2.9082 -0.9619
  611THF     C812038   4.042   3.510   4.635  0.8637  0.2180  0.1043
  611THF     C912039   3.896   3.489   4.636  0.0648  0.2260  0.3674
  611THF    H1012040   4.059   3.547   4.534 -0.1794 -0.8829 -0.4890
  611THF    H1112041   4.074   3.584   4.708  1.6731  0.7606 -0.7803
  611THF    H1212042   3.853   3.521   4.731  0.9837 -0.8334  1.1676
  611THF    H1312043   3.840   3.535   4.555  1.1402 -0.1129 -0.5804
  612THF     O112044   2.552   1.991   1.737  0.3555 -0.4935 -0.6676
  612THF     C212045   2.439   2.004   1.654  0.0122  0.4198 -0.0147
  612THF     C312046   2.656   2.049   1.668  0.2754  0.5714  0.2633
  612THF     H412047   2.346   1.997   1.710 -0.2795  1.2064 -0.3827
  612THF     H512048   2.452   1.929   1.577  1.1878  0.1206  0.4449
  612THF     H612049   2.725   2.106   1.730 -0.3735  5.4767 -2.9091
  612THF     H712050   2.717   1.970   1.625  1.0651  0.7585  1.0298
  612THF     C812051   2.606   2.145   1.563  0.0551 -0.4575 -0.4394
  612THF     C912052   2.455   2.145   1.594  0.1741  0.2773  0.3801
  612THF    H1012053   2.627   2.101   1.465  1.9033  0.5185 -0.5301
  612THF    H1112054   2.653   2.244   1.558 -0.8385 -0.0853 -2.4672
  612THF    H1212055   2.438   2.214   1.676  0.3654  0.9735 -0.1558
  612THF    H1312056   2.392   2.166   1.507  2.0704  0.7216 -0.9584
  613THF     O112057   5.087   5.152   5.180 -0.1312 -0.4041 -0.3095
  613THF     C212058   5.218   5.156   5.125 -0.0934 -0.8682  0.2365
  613THF     C312059   5.057   5.287   5.214  0.0730  0.1136  0.3843
  613THF     H412060   5.226   5.068   5.061  0.9231 -1.2035  0.7980
  613THF     H512061   5.285   5.162   5.210 -3.2307 -0.0580  2.8486
  613THF     H612062   4.949   5.298   5.220  0.0724  0.1640  0.2847
  613THF     H712063   5.112   5.313   5.304 -0.5787  0.9233  0.5576
  613THF     C812064   5.117   5.369   5.104 -0.2810  0.0361  0.3633
  613THF     C912065   5.232   5.284   5.045  0.3254 -0.3908  0.1620
  613THF    H1012066   5.161   5.463   5.138  0.6512 -0.2897  0.0967
  613THF    H1112067   5.039   5.386   5.031 -0.7447  1.0096  1.0588
  613THF    H1212068   5.224   5.277   4.936 -0.6473  3.0243 -0.0833
  613THF    H1312069   5.330   5.328   5.065 -0.2096  0.2100  1.5716
  614THF     O112070   2.926   0.715   2.092 -0.1789 -0.1725  0.0373
  614THF     C212071   2.928   0.626   1.985 -0.4917 -0.2674  0.0433
  614THF     C312072   2.793   0.719   2.144  0.5032 -1.4379  0.1492
  614THF     H412073   2.946   0.525   2.023 -3.2511 -1.2488 -0.9449
  614THF     H512074   3.008   0.647   1.914  0.1196 -0.7823  0.5719
  614THF     H612075   2.752   0.634   2.197 -1.5098 -0.5803  0.0589
  614THF     H712076   2.774   0.806   2.207 -1.6703 -0.8486 -1.1955
  614THF     C812077   2.716   0.728   2.017 -0.8737  0.2605 -0.3979
  614THF     C912078   2.796   0.649   1.919  0.2187 -0.0371  0.2769
  614THF    H1012079   2.698   0.832   1.988  1.1584  0.4841 -1.0690
  614THF    H1112080   2.615   0.692   2.035 -0.5196  0.1389  1.5650
  614THF    H1212081   2.758   0.554   1.880  2.0181 -1.5267  1.9431
  614THF    H1312082   2.818   0.717   1.837 -2.2456 -0.3691 -0.7470
  615THF     O112083   4.687   5.464   2.422 -0.7036 -0.3052 -0.2290
  615THF     C212084   4.605   5.501   2.311 -0.2308 -0.3565 -0.0261
  615THF     C312085   4.763   5.580   2.459 -1.1071 -0.1771 -0.2765
  615THF     H412086   4.514   5.443   2.294 -1.7687  1.6209  1.0775
  615THF     H512087   4.675   5.502   2.228 -1.1439 -1.4518 -0.8459
  615THF     H612088   4.772   5.588   2.568 -1.1684 -1.5338 -0.1519
  615THF     H712089   4.871   5.573   2.446 -0.4480  2.0177  2.7460
  615THF     C812090   4.705   5.708   2.390 -0.2996  0.0693 -0.1973
  615THF     C912091   4.573   5.653   2.332  0.2799 -0.4976  0.1778
  615THF    H1012092   4.761   5.750   2.306 -3.2383  0.3355 -2.1512
  615THF    H1112093   4.684   5.790   2.459  0.6844  0.3101 -0.1588
  615THF    H1212094   4.502   5.681   2.409 -0.6291  1.2692 -1.2393
  615THF    H1312095   4.537   5.694   2.238  0.6554 -1.7688 -0.5368
  616THF     O112096   1.516   1.545   2.915  0.1102 -0.8287 -0.0652
  616THF     C212097   1.515   1.614   2.791 -0.7274  0.3064  0.5522
  616THF     C312098   1.399   1.470   2.930 -0.3786 -0.0287 -0.0980
  616THF     H412099   1.619   1.632   2.765 -0.0370 -1.8771  1.4896
  616THF     H512100   1.459   1.707   2.796 -1.6029 -0.1719 -0.2245
  616THF     H612101   1.405   1.366   2.963 -3.5120 -0.4553 -0.5352
  616THF     H712102   1.342   1.524   3.006  2.1248  2.4742  0.1520
  616THF     C812103   1.332   1.471   2.788 -0.5834  0.7444 -0.6881
  616THF     C912104   1.439   1.518   2.699 -0.0210  0.3359  0.0576
  616THF    H1012105   1.243   1.532   2.772 -1.3028 -0.4961 -1.6430
  616THF    H1112106   1.286   1.376   2.760 -3.2878  2.4013 -2.2984
  616THF    H1212107   1.516   1.448   2.667  0.9616  1.6346 -0.5198
  616THF    H1312108   1.407   1.555   2.602 -1.3104 -0.5418  0.1241
  617THF     O112109   1.455   1.960   1.492  0.1737  0.1748  0.6514
  617THF     C212110   1.521   1.940   1.613  0.2014 -0.0380 -0.2512
  617THF     C312111   1.552   1.999   1.395 -0.0064 -0.3952  0.3573
  617THF     H412112   1.570   1.843   1.613 -1.3723 -0.9008  1.4134
  617THF     H512113   1.442   1.954   1.688  0.4226  1.1596 -0.2266
  617THF     H612114   1.582   1.904   1.350  0.2142 -0.8534  1.4359
  617THF     H712115   1.511   2.062   1.316  1.3125  0.5121  0.3606
  617THF     C812116   1.660   2.072   1.474 -0.3656 -1.0979 -0.2231
  617THF     C912117   1.621   2.054   1.627  0.2141 -0.6080 -0.2099
  617THF    H1012118   1.669   2.177   1.448 -0.2053 -1.1123 -0.2277
  617THF    H1112119   1.757   2.032   1.442 -0.5295 -0.6959 -1.2511
  617THF    H1212120   1.699   2.026   1.698 -0.3784 -0.3801  0.5457
  617THF    H1312121   1.567   2.144   1.657 -0.0378 -0.9083  0.2391
  618THF     O112122   4.468   2.541   5.022  0.5133  0.0682 -0.4752
  618THF     C212123   4.602   2.570   5.072  0.7676 -0.3293 -0.1321
  618THF     C312124   4.465   2.575   4.882 -0.1312  0.3757  0.4605
  618THF     H412125   4.664   2.485   5.045 -0.1482 -1.5058  1.2958
  618THF     H512126   4.608   2.582   5.180  1.6122 -1.5281 -0.0293
  618THF     H612127   4.515   2.501   4.821 -0.2668  1.8272 -1.5309
  618THF     H712128   4.366   2.586   4.837 -0.8633 -0.5541  1.7640
  618THF     C812129   4.533   2.712   4.890 -0.2532 -0.7822  0.0159
  618THF     C912130   4.637   2.689   4.995 -1.0472  0.2261  0.4201
  618THF    H1012131   4.471   2.797   4.919 -1.1225 -1.3810 -0.0698
  618THF    H1112132   4.584   2.734   4.797  1.5494 -1.2017  0.8582
  618THF    H1212133   4.737   2.664   4.959 -1.4396 -0.4460 -0.2324
  618THF    H1312134   4.650   2.771   5.066 -1.5194  1.8643 -1.3030
  619THF     O112135   2.995   2.512   0.964 -0.1137  0.3257  0.1085
  619THF     C212136   3.098   2.429   1.033  0.6166 -0.6025  0.2946
  619THF     C312137   3.003   2.487   0.824 -0.5751 -0.6310  0.3039
  619THF     H412138   3.061   2.395   1.130 -1.8424 -0.1929 -0.4288
  619THF     H512139   3.192   2.483   1.042  0.5687  0.4788 -3.9054
  619THF     H612140   2.915   2.524   0.771  0.3783 -0.4154 -1.2159
  619THF     H712141   3.095   2.533   0.788 -1.4507  0.7800 -0.2145
  619THF     C812142   3.032   2.338   0.819 -0.5346 -0.1593 -0.3531
  619THF     C912143   3.114   2.312   0.941 -0.0444 -0.1419 -0.3012
  619THF    H1012144   3.067   2.291   0.727  0.5538  0.3529 -0.2184
  619THF    H1112145   2.938   2.284   0.822 -0.9605  0.5832  0.0879
  619THF    H1212146   3.065   2.223   0.981 -3.1434  1.3348 -0.4753
  619THF    H1312147   3.219   2.288   0.925 -0.1525  0.6494 -2.6173
  620THF     O112148   3.544   1.886   4.421 -0.1504 -0.3314 -0.3781
  620THF     C212149   3.658   1.952   4.463 -0.4640  0.4297  0.1309
  620THF     C312150   3.446   1.902   4.531 -0.4302 -0.0048  0.5972
  620THF     H412151   3.712   1.972   4.370 -3.3239  0.9061 -1.5563
  620THF     H512152   3.716   1.912   4.546 -0.3380  1.5933  0.6194
  620THF     H612153   3.343   1.914   4.499  0.3081 -0.2056 -2.1586
  620THF     H712154   3.445   1.813   4.593 -0.5720 -1.1730 -1.0160
  620THF     C812155   3.477   2.039   4.587 -0.6091  0.2375 -0.1573
  620THF     C912156   3.595   2.083   4.507  0.4068 -0.2068 -0.3510
  620THF    H1012157   3.516   2.028   4.689  2.6685  0.8846 -1.2173
  620THF    H1112158   3.397   2.113   4.577  0.9509  1.7772 -2.0357
  620THF    H1212159   3.574   2.144   4.419  1.3551  2.7380  1.3311
  620THF    H1312160   3.671   2.146   4.553  0.8467 -0.5018 -0.6696
  621THF     O112161   1.416   4.456   1.587  0.2084  0.8986  0.6706
  621THF     C212162   1.357   4.381   1.475  0.9692  0.3231 -0.2942
  621THF     C312163   1.437   4.362   1.688 -0.7849 -0.0787  0.7016
  621THF     H412164   1.376   4.423   1.376  0.2273  2.2382  0.3276
  621THF     H512165   1.251   4.356   1.479  0.9798 -0.2207 -2.3886
  621THF     H612166   1.510   4.411   1.752 -1.4905  2.0137 -0.0226
  621THF     H712167   1.351   4.333   1.748 -0.1435 -0.0794  1.6397
  621THF     C812168   1.498   4.243   1.609 -0.4933  0.1877 -0.6118
  621THF     C912169   1.419   4.238   1.482 -0.2076 -0.3916  0.1461
  621THF    H1012170   1.496   4.147   1.660  1.1650  0.7615  0.6381
  621THF    H1112171   1.599   4.275   1.584 -1.0251  1.9339 -0.6836
  621THF    H1212172   1.474   4.215   1.391 -0.8845 -0.4045 -0.2683
  621THF    H1312173   1.335   4.170   1.498 -0.4241  0.5102  3.7682
  622THF     O112174   5.014   4.078   4.731 -0.8119 -0.4931  0.7678
  622THF     C212175   5.092   3.958   4.713 -0.2101  0.2944 -0.7218
  622THF     C312176   4.908   4.075   4.634 -0.4259 -0.6703 -0.5363
  622THF     H412177   5.128   3.917   4.807  1.6052  0.6980 -1.2083
  622THF     H512178   5.192   3.989   4.684  0.0012  1.6327  1.2352
  622THF     H612179   4.814   4.125   4.659  0.5977  0.0158  2.3617
  622THF     H712180   4.942   4.134   4.549  0.6130 -1.6787 -0.8474
  622THF     C812181   4.896   3.929   4.600  0.1053 -0.1003  0.0215
  622THF     C912182   5.033   3.872   4.613 -0.1022  1.2141 -0.1871
  622THF    H1012183   4.850   3.923   4.502 -0.6316  1.3666  0.2516
  622THF    H1112184   4.825   3.887   4.672 -1.9224  0.1046 -1.7523
  622THF    H1212185   5.028   3.767   4.641  0.7159  0.9486 -1.0033
  622THF    H1312186   5.083   3.879   4.516 -0.0372  0.3013 -0.2282
  623THF     O112187   0.965   0.903   4.793 -0.1489  0.0408 -0.1829
  623THF     C212188   0.831   0.893   4.743 -0.0154  0.1171 -0.3325
  623THF     C312189   0.972   0.801   4.893 -0.1749  0.3149  0.2536
  623THF     H412190   0.822   0.803   4.682  0.9288 -0.3357  0.1842
  623THF     H512191   0.800   0.976   4.678  1.5134 -0.0886 -1.3620
  623THF     H612192   0.981   0.701   4.850  0.5205 -0.0974  1.3076
  623THF     H712193   1.068   0.820   4.942  0.8641  0.6023 -1.7728
  623THF     C812194   0.844   0.822   4.973  0.2728 -0.1170  0.1211
  623THF     C912195   0.748   0.893   4.868  0.8094 -0.6198 -0.4182
  623THF    H1012196   0.870   0.898   5.047  2.1882 -1.8598  1.3279
  623THF    H1112197   0.800   0.742   5.032 -0.1144 -0.5076 -0.6853
  623THF    H1212198   0.658   0.832   4.856  0.7524 -0.4833 -0.7007
  623THF    H1312199   0.731   0.994   4.903  0.6169 -0.1681 -1.7565
  624THF     O112200   2.555   1.168   1.926  0.1201 -0.2423 -0.2097
  624THF     C212201   2.604   1.238   1.803 -0.7474 -0.5827 -1.0782
  624THF     C312202   2.653   1.193   2.024  0.3065  0.0258  0.2813
  624THF     H412203   2.554   1.332   1.779  2.3822  1.5524 -0.0152
  624THF     H512204   2.604   1.177   1.713 -1.0133 -1.4509 -0.4986
  624THF     H612205   2.638   1.287   2.079  0.3865  0.3224 -0.1979
  624THF     H712206   2.652   1.122   2.107 -1.0822 -0.3891 -0.0682
  624THF     C812207   2.789   1.198   1.955  0.4201  0.8869  0.2171
  624THF     C912208   2.746   1.282   1.835  0.0931  0.3786  0.1148
  624THF    H1012209   2.826   1.099   1.926  0.0746  1.0508 -0.8517
  624THF    H1112210   2.864   1.249   2.015 -0.1185 -0.3970  2.0734
  624THF    H1212211   2.730   1.385   1.868  1.4170  0.3530  0.9131
  624THF    H1312212   2.809   1.282   1.746 -0.8404  0.0196 -0.5697
  625THF     O112213   2.918   3.435   2.819 -0.6028  0.0354 -0.2514
  625THF     C212214   2.876   3.538   2.912 -0.6974 -0.1968  0.4420
  625THF     C312215   3.036   3.369   2.864  0.0949 -0.8744  0.3815
  625THF     H412216   2.769   3.533   2.934 -0.8695  0.5031 -0.1795
  625THF     H512217   2.898   3.635   2.868  0.2293  0.9082  3.1878
  625THF     H612218   3.017   3.277   2.920 -1.6699 -1.0455 -0.4490
  625THF     H712219   3.096   3.327   2.783 -2.9944 -3.4431 -0.7787
  625THF     C812220   3.101   3.466   2.967  0.7922 -0.6422  0.8469
  625THF     C912221   2.972   3.520   3.032 -0.7587  0.0175  0.1383
  625THF    H1012222   3.164   3.543   2.923  2.2959 -1.5488  1.3429
  625THF    H1112223   3.168   3.419   3.038  1.0749 -0.9640  0.3724
  625THF    H1212224   2.934   3.461   3.115 -0.5014 -1.1985 -0.5896
  625THF    H1312225   2.987   3.618   3.078 -4.1000  1.1117 -0.8231
  626THF     O112226   3.000   1.979   4.784 -0.1387 -0.0808  0.6591
  626THF     C212227   3.107   2.050   4.722 -0.3973 -0.6124 -0.0192
  626THF     C312228   2.910   1.930   4.691  0.3000  0.0713 -0.6069
  626THF     H412229   3.193   1.984   4.736 -1.1494 -1.4566  0.7345
  626THF     H512230   3.128   2.140   4.779 -1.8785  0.3192 -0.8764
  626THF     H612231   2.897   1.822   4.701  1.2448  0.0585  0.6691
  626THF     H712232   2.817   1.986   4.691  0.2032 -0.0845  0.1967
  626THF     C812233   2.980   1.939   4.551  0.1672  0.3349  0.1291
  626THF     C912234   3.060   2.069   4.574 -0.1125 -0.4805 -0.0036
  626THF    H1012235   2.910   1.954   4.470  0.8765 -0.0933 -0.5801
  626THF    H1112236   3.040   1.850   4.531  1.1099  0.0044  3.6273
  626THF    H1212237   3.135   2.062   4.495 -0.0380  0.3877 -0.0145
  626THF    H1312238   2.993   2.155   4.566 -1.0185 -1.0864  0.8216
  627THF     O112239   5.162   0.942   2.161 -0.8881  0.6976  0.2189
  627THF     C212240   5.148   0.832   2.258  0.1891  0.1392  0.1374
  627THF     C312241   5.292   0.988   2.175 -0.7629  0.9442  0.2995
  627THF     H412242   5.189   0.743   2.212 -0.6564  0.3817 -1.1418
  627THF     H512243   5.041   0.815   2.266  0.0835  0.8160  0.2735
  627THF     H612244   5.352   0.918   2.118 -1.0461  1.6981 -0.9671
  627THF     H712245   5.301   1.093   2.145  1.7382  0.2241 -1.8042
  627THF     C812246   5.331   0.979   2.320 -0.0282 -0.1039  0.0045
  627THF     C912247   5.230   0.876   2.374  0.0388  0.1349 -0.2109
  627THF    H1012248   5.318   1.072   2.375  0.4191  0.1405 -0.2991
  627THF    H1112249   5.438   0.957   2.324  0.8599  3.5122 -0.4517
  627THF    H1212250   5.266   0.789   2.429 -0.2429 -1.0514 -1.8128
  627THF    H1312251   5.162   0.923   2.445 -0.5524 -0.9212 -0.0529
  628THF     O112252   1.791   3.021   2.695  0.1096  0.0391 -1.0272
  628THF     C212253   1.921   2.974   2.648 -0.2411 -0.1291 -0.1460
  628THF     C312254   1.776   2.989   2.832 -0.6431 -0.1201  0.4050
  628THF     H412255   1.992   3.057   2.651 -0.8285  0.3470  0.9110
  628THF     H512256   1.913   2.940   2.544  0.5173 -1.8922  0.3307
  628THF     H612257   1.818   3.065   2.897 -0.7190 -2.4242  3.3351
  628THF     H712258   1.671   2.979   2.861 -1.1259 -0.2102 -1.2638
  628THF     C812259   1.855   2.856   2.839  0.1513  0.0538 -0.0434
  628THF     C912260   1.977   2.878   2.756  0.1066 -0.2585  0.3206
  628THF    H1012261   1.800   2.768   2.806  1.5549 -0.5437 -0.9043
  628THF    H1112262   1.864   2.844   2.947 -0.1466 -1.6305 -0.1821
  628THF    H1212263   2.062   2.930   2.799 -0.2727  1.8243 -1.2539
  628THF    H1312264   2.014   2.786   2.712  1.4325  0.2542  0.3249
  629THF     O112265   0.013   4.337   5.458 -0.4440 -0.6619 -0.2413
  629THF     C212266   0.041   4.197   5.426 -0.3114 -0.1011 -0.4039
  629THF     C312267   0.119   4.370   5.549  0.0507  1.0782 -0.0309
  629THF     H412268   0.110   4.187   5.342 -0.8194 -0.4069 -0.7947
  629THF     H512269  -0.043   4.136   5.391  0.8031 -1.7247 -0.3434
  629THF     H612270   0.197   4.408   5.484 -0.0715  0.4774 -0.5403
  629THF     H712271   0.098   4.458   5.611  2.5435  1.0294  0.9911
  629THF     C812272   0.156   4.243   5.632  0.7105  0.2274  0.0879
  629THF     C912273   0.086   4.126   5.553 -0.5029  0.0537 -0.2779
  629THF    H1012274   0.104   4.253   5.728 -0.5844  2.6091 -0.7922
  629THF    H1112275   0.264   4.230   5.637  0.6831 -0.1673 -0.3483
  629THF    H1212276   0.154   4.043   5.532 -1.1161 -1.4744  3.0883
  629THF    H1312277   0.003   4.083   5.608 -1.5166  2.6334  0.3282
  630THF     O112278   4.759   3.408   2.032 -0.2524  0.0696 -0.0856
  630THF     C212279   4.800   3.421   1.895 -0.1196  0.7113  0.0291
  630THF     C312280   4.681   3.285   2.032 -0.4167 -0.2938  0.3316
  630THF     H412281   4.884   3.490   1.904 -0.6715  1.2298  1.7108
  630THF     H512282   4.730   3.450   1.817  1.0715  0.3851 -1.1979
  630THF     H612283   4.683   3.233   2.128  1.0879 -4.1414 -1.5769
  630THF     H712284   4.578   3.313   2.012 -0.4579 -2.2270 -2.7874
  630THF     C812285   4.747   3.195   1.923  0.8870 -0.0335  0.2216
  630THF     C912286   4.856   3.280   1.867  0.7073 -0.5415 -0.2897
  630THF    H1012287   4.676   3.176   1.843  0.9577  1.3210 -0.1737
  630THF    H1112288   4.783   3.104   1.972 -0.1881 -0.0797  0.9504
  630THF    H1212289   4.948   3.268   1.926 -0.1283  0.2447  1.2444
  630THF    H1312290   4.885   3.259   1.764 -1.2196 -0.0850 -0.9595
  631THF     O112291   3.264   0.290   5.070 -0.7280 -0.3929 -0.3372
  631THF     C212292   3.180   0.287   4.958 -0.6408  0.4074 -0.5064
  631THF     C312293   3.302   0.163   5.106  0.4986 -0.0264 -0.1160
  631THF     H412294   3.239   0.250   4.874  1.4415  0.7429  0.7287
  631THF     H512295   3.113   0.368   4.930  1.0170  2.8606  2.0497
  631THF     H612296   3.406   0.156   5.074  0.9620  1.4645  0.9545
  631THF     H712297   3.301   0.163   5.215  1.1824 -0.7400 -0.1037
  631THF     C812298   3.201   0.066   5.049 -0.2755 -0.2601  0.0446
  631THF     C912299   3.097   0.161   4.994 -0.3403  0.3552  0.4142
  631THF    H1012300   3.158   0.001   5.125 -3.4319  0.1545 -1.2229
  631THF    H1112301   3.255   0.007   4.975  0.8025  0.9774 -0.2022
  631THF    H1212302   3.048   0.117   4.907  1.7987  0.9683 -1.1968
  631THF    H1312303   3.029   0.190   5.074 -0.0672  0.8538  0.4688
  632THF     O112304   2.884   5.421   4.819  0.3726 -0.3231  0.2532
  632THF     C212305   2.788   5.420   4.923 -0.0023  0.8315 -0.2252
  632THF     C312306   2.983   5.327   4.851  0.5082  0.3461 -0.4422
  632THF     H412307   2.684   5.425   4.888 -1.0971 -0.5108  2.5363
  632THF     H512308   2.810   5.500   4.994 -0.2583  2.1924 -1.5974
  632THF     H612309   2.966   5.256   4.770  1.3934  0.3362 -0.6261
  632THF     H712310   3.082   5.368   4.834  0.7861  0.0821  0.4503
  632THF     C812311   2.951   5.260   4.982  0.2447  0.5479 -0.5225
  632THF     C912312   2.805   5.290   4.991 -0.2225 -0.6947  0.2432
  632THF    H1012313   3.010   5.314   5.056  2.3944  0.4948 -2.0953
  632THF    H1112314   2.972   5.154   4.994  2.1069  1.1628  2.4202
  632THF    H1212315   2.753   5.202   4.953 -0.5308  0.2300 -1.5596
  632THF    H1312316   2.775   5.311   5.094 -0.8726  0.0643 -0.0969
  633THF     O112317   3.217   1.951   2.713  0.1645  0.0249 -0.3618
  633THF     C212318   3.121   1.870   2.776 -0.7300 -0.0180 -0.7084
  633THF     C312319   3.342   1.925   2.762 -0.2681  0.5211 -0.0691
  633THF     H412320   3.039   1.857   2.706 -0.0315  1.4883 -1.8775
  633THF     H512321   3.092   1.930   2.862  0.5445 -1.5951  0.9042
  633THF     H612322   3.417   1.917   2.684 -1.0518  1.5778 -0.9565
  633THF     H712323   3.374   2.001   2.833 -0.6871  0.7474 -0.1210
  633THF     C812324   3.336   1.799   2.843  0.5554  0.0174  0.1690
  633THF     C912325   3.197   1.742   2.806 -0.2261 -0.8410 -0.9460
  633THF    H1012326   3.344   1.817   2.950  0.0762 -1.5308  0.4880
  633THF    H1112327   3.410   1.722   2.819 -0.6381 -1.4930  1.1455
  633THF    H1212328   3.209   1.685   2.714 -1.3174 -1.8589 -0.4818
  633THF    H1312329   3.163   1.671   2.881  0.2435  0.2951  0.3855
  634THF     O112330   1.862   0.165   3.551  0.6067  0.0577 -0.0755
  634THF     C212331   1.764   0.143   3.652 -0.1857 -0.1658  0.6314
  634THF     C312332   1.940   0.281   3.585 -0.5215 -0.9896 -0.2460
  634THF     H412333   1.805   0.086   3.736 -0.3218 -0.8923  0.2122
  634THF     H512334   1.677   0.087   3.617 -0.6689  0.7677  0.2904
  634THF     H612335   2.012   0.256   3.663 -0.1392  3.3848  1.0526
  634THF     H712336   1.995   0.322   3.500  1.5669 -0.9874  1.0223
  634THF     C812337   1.829   0.375   3.636 -0.1578  0.6660  0.4847
  634THF     C912338   1.726   0.281   3.703 -0.0116  0.4744 -0.2843
  634THF    H1012339   1.789   0.427   3.549  0.8506  1.2579  0.3639
  634THF    H1112340   1.861   0.449   3.709  0.8126 -1.0061  1.8401
  634THF    H1212341   1.727   0.294   3.811  1.4929 -0.3629 -0.1720
  634THF    H1312342   1.632   0.309   3.655  0.2587  0.7562 -0.6574
  635THF     O112343   4.997   3.507   0.302  0.5484  0.2897 -0.4959
  635THF     C212344   5.089   3.434   0.222  0.0291 -0.0056 -0.6288
  635THF     C312345   4.875   3.524   0.223 -0.5404  0.3571 -0.4935
  635THF     H412346   5.060   3.329   0.224 -1.3346  0.3566 -0.4898
  635THF     H512347   5.187   3.453   0.265  1.3307  1.5233 -3.9456
  635THF     H612348   4.816   3.433   0.212 -0.7507  0.3503  0.5742
  635THF     H712349   4.813   3.606   0.260  0.7822  1.6079 -0.9189
  635THF     C812350   4.933   3.570   0.088 -0.2979 -0.1946  0.3223
  635THF     C912351   5.076   3.506   0.083 -0.1882 -0.0996 -0.1149
  635THF    H1012352   4.950   3.678   0.092  1.8280 -0.1237 -4.2141
  635THF    H1112353   4.861   3.545   0.010 -0.9245 -0.6997  1.0514
  635THF    H1212354   5.085   3.437  -0.002 -0.1299 -0.5221  0.2275
  635THF    H1312355   5.153   3.583   0.089  0.3949 -0.7855  2.4419
  636THF     O112356   5.376   4.992   0.254 -0.2723 -0.0375  0.0123
  636THF     C212357   5.342   5.098   0.355 -0.6006  0.1673  0.1601
  636THF     C312358   5.284   5.019   0.148  0.5228  0.8022  0.0220
  636THF     H412359   5.418   5.119   0.430  0.3341  0.2962 -0.7953
  636THF     H512360   5.250   5.090   0.412  0.4740  0.7374  2.0815
  636THF     H612361   5.342   4.970   0.070 -0.6020  2.8329 -2.1738
  636THF     H712362   5.189   4.965   0.152  0.8266  0.2909  0.5419
  636THF     C812363   5.282   5.169   0.132  1.5617  0.2102 -0.3314
  636THF     C912364   5.329   5.225   0.267  0.4170  0.2751 -0.7032
  636THF    H1012365   5.182   5.206   0.109  1.4533  1.2859  1.6508
  636THF    H1112366   5.347   5.195   0.049  0.8098 -1.0310 -1.3469
  636THF    H1212367   5.429   5.268   0.258  2.2892 -3.1863  1.2497
  636THF    H1312368   5.260   5.296   0.312  0.8969 -0.7832  1.9217
  637THF     O112369   1.723   1.736   3.879  0.3775 -0.1458  0.2234
  637THF     C212370   1.779   1.788   3.762  0.2826  0.4624 -0.2855
  637THF     C312371   1.815   1.778   3.979  0.2520  0.3584  0.7869
  637THF     H412372   1.753   1.894   3.753 -0.0986  0.3335 -0.7757
  637THF     H512373   1.744   1.734   3.674  2.2793  0.3875 -1.0904
  637THF     H612374   1.813   1.885   4.003 -0.6952  0.4531  0.3096
  637THF     H712375   1.788   1.718   4.066 -1.1828 -0.9200 -0.4955
  637THF     C812376   1.957   1.731   3.925  0.3487  0.9573  0.5410
  637THF     C912377   1.933   1.773   3.785 -0.4850 -0.2469  0.0196
  637THF    H1012378   1.975   1.624   3.925 -1.6943  0.5498 -1.1520
  637THF    H1112379   2.046   1.781   3.963  1.7637 -0.8129 -0.3066
  637THF    H1212380   1.989   1.862   3.757 -0.4990  1.0190  3.5372
  637THF    H1312381   1.961   1.687   3.723 -0.1301 -0.0269 -0.1244
  638THF     O112382   1.435   1.282   3.639  0.4990  0.2339  0.5623
  638THF     C212383   1.374   1.410   3.669  0.2054 -0.4045 -0.2652
  638THF     C312384   1.320   1.189   3.633 -0.4537 -0.5176 -0.8488
  638THF     H412385   1.436   1.493   3.636  0.7594 -0.9834 -0.7121
  638THF     H512386   1.355   1.405   3.777  1.9619 -1.3787  0.0409
  638THF     H612387   1.339   1.117   3.554  2.6347  0.0594 -0.7733
  638THF     H712388   1.302   1.127   3.721 -1.6512  0.0539 -0.6764
  638THF     C812389   1.191   1.279   3.607 -0.2916 -0.1658  0.0164
  638THF     C912390   1.250   1.420   3.591 -0.1546 -0.8949 -1.0947
  638THF    H1012391   1.120   1.281   3.689  0.5556  1.5739  0.7515
  638THF    H1112392   1.143   1.250   3.514  0.2959 -0.4576 -0.2020
  638THF    H1212393   1.262   1.436   3.483  0.0585 -2.1261 -1.2658
  638THF    H1312394   1.176   1.490   3.629  1.2956 -0.4441  1.0448
  639THF     O112395   4.147   2.810   0.852  0.3695  0.0385  0.1648
  639THF     C212396   4.078   2.832   0.977  0.0152  0.5910 -0.1339
  639THF     C312397   4.272   2.749   0.876 -0.2634 -0.0188 -0.1309
  639THF     H412398   4.005   2.753   0.993 -0.3434  0.8059 -0.6756
  639THF     H512399   4.020   2.925   0.980  0.7713  1.1686 -1.9372
  639THF     H612400   4.281   2.649   0.834  0.3449 -0.5367  1.1714
  639THF     H712401   4.338   2.814   0.818  1.0811  0.5106  1.8920
  639THF     C812402   4.294   2.746   1.029  0.5267  0.7408  0.5394
  639THF     C912403   4.182   2.830   1.085  0.2306 -0.5946 -0.3660
  639THF    H1012404   4.389   2.784   1.064  0.6193 -0.4524  1.6599
  639THF    H1112405   4.274   2.645   1.066 -2.4452  0.7672 -0.6650
  639THF    H1212406   4.143   2.776   1.171  2.2449 -1.6554 -0.0574
  639THF    H1312407   4.217   2.933   1.099 -4.4090  1.4414 -1.7810
  640THF     O112408   2.679   2.421   1.897  0.4598 -0.1067 -0.1004
  640THF     C212409   2.764   2.488   1.803  0.0212 -0.5396  0.2190
  640THF     C312410   2.672   2.507   2.005  0.5614 -0.1347 -0.2575
  640THF     H412411   2.729   2.459   1.704  0.2954 -0.2848  0.0437
  640THF     H512412   2.865   2.447   1.802  1.1987  2.0973 -1.7959
  640THF     H612413   2.569   2.511   2.039  0.2854  0.4339 -1.1392
  640THF     H712414   2.712   2.441   2.083  1.2566 -0.0274 -0.5169
  640THF     C812415   2.742   2.633   1.983 -0.2590 -0.0885 -0.0379
  640THF     C912416   2.752   2.640   1.825 -0.4802  0.3592 -0.5516
  640THF    H1012417   2.842   2.640   2.028 -0.0204 -1.0474 -0.4091
  640THF    H1112418   2.690   2.723   2.017  1.1111 -0.3993  3.3630
  640THF    H1212419   2.663   2.683   1.780 -0.0843 -0.6758 -2.4808
  640THF    H1312420   2.838   2.692   1.781  0.6305  1.9870  3.1354
  641THF     O112421   1.217   4.471   0.522  0.6470  0.1706 -0.2285
  641THF     C212422   1.223   4.615   0.519 -0.0293  0.1085 -0.0251
  641THF     C312423   1.235   4.429   0.654  0.4555 -0.8255  0.0145
  641THF     H412424   1.171   4.645   0.428 -2.8384 -1.1994  1.0080
  641THF     H512425   1.325   4.651   0.515  0.6271 -1.6219  0.2727
  641THF     H612426   1.211   4.326   0.678 -0.2184 -0.9931 -1.3198
  641THF     H712427   1.337   4.445   0.690 -0.2347 -0.3012  1.8983
  641THF     C812428   1.142   4.529   0.727 -0.1050  0.0030  0.2332
  641THF     C912429   1.150   4.659   0.647  0.0929 -0.0232  0.2218
  641THF    H1012430   1.182   4.535   0.828  3.5103 -0.6619 -1.0256
  641THF    H1112431   1.036   4.505   0.732 -0.6127  1.9541 -0.3622
  641THF    H1212432   1.054   4.709   0.631 -0.0267 -0.5348 -0.7394
  641THF    H1312433   1.220   4.731   0.690  0.6404  0.2409 -1.0573
  642THF     O112434   2.039   2.914   4.117  0.3620 -0.3322  0.0082
  642THF     C212435   1.909   2.923   4.161 -0.0147 -0.0021 -0.7818
  642THF     C312436   2.123   2.928   4.233  0.4630  0.0733  0.5124
  642THF     H412437   1.883   2.829   4.211  1.2425  0.0544  0.0307
  642THF     H512438   1.854   2.928   4.068  0.9665 -0.8844 -1.4386
  642THF     H612439   2.138   2.830   4.279  0.9682  0.9049  2.2139
  642THF     H712440   2.225   2.964   4.219  0.6144 -0.7474 -0.5740
  642THF     C812441   2.042   3.006   4.337 -0.2135 -0.5106 -0.5020
  642THF     C912442   1.906   3.026   4.270  0.3770 -0.4742  0.1256
  642THF    H1012443   2.085   3.097   4.380 -0.9866  0.2403 -1.2812
  642THF    H1112444   2.031   2.936   4.420 -1.4732 -0.2790 -0.4617
  642THF    H1212445   1.815   3.018   4.331 -0.7441 -1.4095 -1.5804
  642THF    H1312446   1.904   3.127   4.228  0.0972  0.3873  2.0856
  643THF     O112447   1.394   2.803   2.105  0.4950  0.7909  0.5525
  643THF     C212448   1.471   2.923   2.114 -0.0289 -0.4312  0.3422
  643THF     C312449   1.299   2.803   2.211 -0.5291  0.4840 -0.5642
  643THF     H412450   1.515   2.955   2.020 -1.7014  0.9400 -0.0289
  643THF     H512451   1.548   2.919   2.191  0.1249 -1.1435  0.1593
  643THF     H612452   1.225   2.727   2.186 -0.9621  1.2674 -1.7108
  643THF     H712453   1.353   2.780   2.304 -0.6750  0.1337 -0.5645
  643THF     C812454   1.243   2.945   2.203  0.5140 -0.0258 -0.2065
  643THF     C912455   1.361   3.024   2.149 -0.3904 -0.6393  0.0648
  643THF    H1012456   1.199   2.988   2.293  0.2719 -2.3657  0.8888
  643THF    H1112457   1.168   2.944   2.124  0.4727  1.9793 -0.2414
  643THF    H1212458   1.335   3.097   2.073  0.9677  0.1018  0.2947
  643THF    H1312459   1.400   3.074   2.238  0.3718  0.0510 -0.6439
  644THF     O112460   4.937   5.067   2.400 -0.5265  0.1257  0.0296
  644THF     C212461   4.875   5.197   2.390 -0.4056  0.2730  0.1326
  644THF     C312462   5.050   5.078   2.318  0.1604  0.0463 -0.3669
  644THF     H412463   4.919   5.263   2.465  2.8433  1.3400 -2.4661
  644THF     H512464   4.769   5.191   2.414 -0.9595  0.0839 -2.0828
  644THF     H612465   5.122   5.149   2.359  0.6075  0.0188 -1.1074
  644THF     H712466   5.105   4.985   2.307 -0.4157 -0.6177  1.7476
  644THF     C812467   4.989   5.139   2.194 -0.1882  0.5114 -0.2246
  644THF     C912468   4.899   5.246   2.245 -0.2793 -0.4226  0.1861
  644THF    H1012469   4.943   5.058   2.136  2.4515 -0.5042 -1.0642
  644THF    H1112470   5.064   5.176   2.124  0.0635  0.6698  0.1258
  644THF    H1212471   4.949   5.343   2.251 -1.1215 -0.0139  0.8578
  644THF    H1312472   4.811   5.253   2.181 -0.8366 -1.4549  0.7960
  645THF     O112473   4.618   4.819   1.770 -0.0928  0.0983  0.4841
  645THF     C212474   4.741   4.818   1.845  0.1760  0.4412 -0.3701
  645THF     C312475   4.628   4.777   1.636 -0.1788  0.0866 -0.5792
  645THF     H412476   4.721   4.778   1.944 -0.7436 -0.2227 -0.8030
  645THF     H512477   4.782   4.918   1.846  0.8616  0.1590  0.7326
  645THF     H612478   4.526   4.752   1.611 -0.7484  0.6306  1.0428
  645THF     H712479   4.666   4.861   1.577 -0.8363 -0.1220 -1.3009
  645THF     C812480   4.726   4.660   1.657 -0.0650 -0.3597  0.0041
  645THF     C912481   4.829   4.720   1.758  0.7795  0.1993  0.1480
  645THF    H1012482   4.772   4.628   1.563 -1.6324 -0.5825 -0.7100
  645THF    H1112483   4.673   4.579   1.706 -3.3517  1.2445 -0.6212
  645THF    H1212484   4.872   4.638   1.815  0.6214 -1.6659 -2.2679
  645THF    H1312485   4.912   4.768   1.705 -0.3216  0.6199 -1.2800
  646THF     O112486   0.210   3.406   4.889  0.3158  0.0635  0.4734
  646THF     C212487   0.228   3.261   4.909 -0.1684 -0.3590 -0.1377
  646THF     C312488   0.215   3.430   4.743 -0.4270  0.2406 -0.0592
  646THF     H412489   0.132   3.217   4.880  0.7474 -1.8693 -1.0198
  646THF     H512490   0.252   3.240   5.013 -0.5092  3.1818  0.7670
  646THF     H612491   0.127   3.389   4.693 -0.8837  0.8785  0.2180
  646THF     H712492   0.220   3.534   4.711  1.6228  0.0917 -0.4063
  646THF     C812493   0.338   3.345   4.711 -0.1321  0.3068  0.1554
  646THF     C912494   0.324   3.218   4.795 -0.7522 -0.8033  0.5981
  646THF    H1012495   0.427   3.401   4.740  0.6054 -1.5549  1.6606
  646THF    H1112496   0.324   3.318   4.606 -1.0442  0.7664  0.1490
  646THF    H1212497   0.267   3.152   4.729 -0.1189  0.0285 -0.8335
  646THF    H1312498   0.422   3.185   4.830  0.0391  0.0259 -0.7374
  647THF     O112499   0.019   3.701   1.903  0.0582 -0.1034  0.4315
  647THF     C212500   0.150   3.668   1.960 -0.2307  0.6364 -0.4587
  647THF     C312501  -0.016   3.591   1.817 -0.0835  0.0507  0.3482
  647THF     H412502   0.144   3.690   2.066 -1.8715 -0.2889 -0.3288
  647THF     H512503   0.219   3.734   1.908  0.3241 -1.2218 -2.2046
  647THF     H612504  -0.079   3.520   1.870  0.1661 -0.7719 -0.4281
  647THF     H712505  -0.051   3.617   1.717  0.5545  2.7937  0.7733
  647THF     C812506   0.114   3.522   1.783  0.0383 -0.6836 -0.0147
  647THF     C912507   0.189   3.527   1.917  0.2457 -0.2445 -0.0998
  647THF    H1012508   0.155   3.562   1.691 -1.2090 -1.0117 -0.7314
  647THF    H1112509   0.097   3.416   1.761  0.0917 -0.3949 -1.5651
  647THF    H1212510   0.161   3.449   1.988 -1.8065  0.1146 -0.4554
  647THF    H1312511   0.297   3.524   1.905  0.2676  0.6486 -0.1736
  648THF     O112512   3.154   0.305   4.571  0.4294  0.0946  0.4670
  648THF     C212513   3.119   0.428   4.509  0.1995 -0.5008  0.7006
  648THF     C312514   3.041   0.216   4.579 -0.0571 -0.3515  0.4131
  648THF     H412515   3.194   0.469   4.441 -0.6128  1.2464  0.8045
  648THF     H512516   3.098   0.501   4.587  1.4571  1.3160 -0.5347
  648THF     H612517   3.046   0.133   4.509 -1.8864 -0.5862  0.5144
  648THF     H712518   3.020   0.195   4.684  1.4665  1.1669  1.0852
  648THF     C812519   2.921   0.306   4.521 -0.5783 -0.0984  0.2297
  648THF     C912520   2.991   0.414   4.438  0.1659  0.1879  0.4330
  648THF    H1012521   2.875   0.372   4.595  0.6555  1.2179 -0.1266
  648THF    H1112522   2.848   0.241   4.474 -0.8963  0.2150  0.2884
  648THF    H1212523   3.018   0.369   4.342  0.6800  0.1953  0.5746
  648THF    H1312524   2.929   0.503   4.425 -0.3419 -0.0017  1.4713
  649THF     O112525   0.558   0.095   4.876 -0.1412  0.1707  0.3290
  649THF     C212526   0.661   0.081   4.968  0.3065 -0.8219 -0.3257
  649THF     C312527   0.444   0.037   4.936  0.8557 -0.2682 -0.4268
  649THF     H412528   0.708   0.179   4.972 -0.5942 -0.4017  0.2286
  649THF     H512529   0.737   0.010   4.937  2.2435  1.9038 -2.3604
  649THF     H612530   0.350   0.081   4.901  0.8229 -0.6630 -0.8456
  649THF     H712531   0.439  -0.071   4.922 -1.4589 -0.2868  0.0258
  649THF     C812532   0.455   0.062   5.082  0.6852 -0.0952  0.1493
  649THF     C912533   0.605   0.045   5.102 -0.2021  0.1845 -0.3027
  649THF    H1012534   0.383  -0.003   5.132 -0.6558 -0.9225 -2.6505
  649THF    H1112535   0.428   0.164   5.108 -1.9476 -0.8718  0.7731
  649THF    H1212536   0.646   0.111   5.178 -2.2456  1.1769  0.0113
  649THF    H1312537   0.632  -0.055   5.137  0.2555  1.5745  3.8332
  650THF     O112538   0.950   2.524   0.349  0.2656  0.6876  0.0286
  650THF     C212539   0.985   2.638   0.433  0.0687 -0.3704  0.0631
  650THF     C312540   1.046   2.424   0.359  0.3447  0.0692 -0.1992
  650THF     H412541   0.908   2.632   0.510  0.6654 -1.2404  0.6102
  650THF     H512542   0.981   2.733   0.381  3.0388 -0.9386 -1.4265
  650THF     H612543   1.031   2.376   0.456 -2.5823  1.6356  0.2493
  650THF     H712544   1.065   2.348   0.283 -0.4273  1.6902 -2.1110
  650THF     C812545   1.164   2.515   0.377 -0.1720 -0.6680 -0.1875
  650THF     C912546   1.131   2.629   0.478  0.0499  0.4917 -0.1522
  650THF    H1012547   1.188   2.548   0.276  0.4303 -1.5926 -0.3559
  650THF    H1112548   1.244   2.450   0.411 -0.8696 -1.0797  0.7069
  650THF    H1212549   1.138   2.593   0.581  2.3860 -1.0681 -0.7756
  650THF    H1312550   1.186   2.723   0.468  2.3897 -0.3800  2.8195
  651THF     O112551   1.762   1.276   1.189  0.1157  0.2141  0.1408
  651THF     C212552   1.665   1.165   1.193 -0.1165  0.2035  0.1042
  651THF     C312553   1.861   1.257   1.290  0.2543  0.9090 -0.0878
  651THF     H412554   1.672   1.112   1.098 -1.2909  1.5726 -0.7854
  651THF     H512555   1.567   1.210   1.206 -0.1902  0.1509 -0.2542
  651THF     H612556   1.953   1.305   1.255 -0.0188  1.3687 -0.1815
  651THF     H712557   1.843   1.310   1.383  0.1189 -0.0561  0.4482
  651THF     C812558   1.861   1.108   1.308  0.4316  0.1734 -0.3900
  651THF     C912559   1.712   1.072   1.304 -0.1519 -0.8823 -0.0156
  651THF    H1012560   1.909   1.079   1.402  0.8429  2.3933  0.1294
  651THF    H1112561   1.908   1.059   1.223 -1.3065  0.2061 -1.4122
  651THF    H1212562   1.712   0.965   1.281 -0.1865 -0.8754 -0.0482
  651THF    H1312563   1.665   1.095   1.399 -0.9643  1.8343 -0.9830
  652THF     O112564   4.514   0.418   0.572  0.0652 -0.3440 -0.4041
  652THF     C212565   4.586   0.506   0.661 -0.3728  0.1144 -0.0249
  652THF     C312566   4.609   0.333   0.519  0.2995 -0.1095 -0.8264
  652THF     H412567   4.514   0.554   0.727  0.6193  1.5309  0.0790
  652THF     H512568   4.636   0.586   0.607  1.1608 -0.3140  0.7177
  652THF     H612569   4.567   0.248   0.464 -1.7997  0.0933  0.3546
  652THF     H712570   4.671   0.394   0.453  0.7181 -0.3408 -0.6478
  652THF     C812571   4.678   0.283   0.646  0.5005  0.1010  0.4572
  652THF     C912572   4.685   0.421   0.731 -0.4343 -0.0843 -0.2658
  652THF    H1012573   4.774   0.237   0.624 -0.6932 -1.9275 -0.7864
  652THF    H1112574   4.608   0.215   0.693 -1.4092  0.7632 -1.2735
  652THF    H1212575   4.663   0.407   0.837  1.6144  0.5399  0.3001
  652THF    H1312576   4.786   0.460   0.716  0.0849 -0.7084  1.3659
  653THF     O112577   5.408   5.493   3.304  0.5581  0.7296 -0.2014
  653THF     C212578   5.493   5.430   3.399 -0.7808 -0.0843  0.4239
  653THF     C312579   5.450   5.620   3.270  0.0639  0.3000  0.0881
  653THF     H412580   5.528   5.331   3.368  0.8844  0.4073  0.5970
  653THF     H512581   5.443   5.430   3.495  1.4344  1.2493  1.6743
  653THF     H612582   5.499   5.630   3.174  0.4263  2.0130  0.4192
  653THF     H712583   5.372   5.696   3.276  0.0128  0.3491 -1.0942
  653THF     C812584   5.556   5.652   3.372 -0.5030 -1.0463  0.6749
  653THF     C912585   5.616   5.518   3.405  0.1143 -0.3422  0.1685
  653THF    H1012586   5.515   5.688   3.467 -0.2722  0.1583  0.3394
  653THF    H1112587   5.626   5.728   3.337 -1.7624 -0.1002  0.1286
  653THF    H1212588   5.680   5.505   3.317 -1.8552 -0.0224 -1.3909
  653THF    H1312589   5.668   5.524   3.501 -2.2912 -0.1402  1.5237
  654THF     O112590   0.531   1.998   1.608  0.2292  0.5101  0.0802
  654THF     C212591   0.404   2.051   1.621  0.0160  0.3552 -0.4735
  654THF     C312592   0.530   1.869   1.554 -0.2013 -0.0075 -0.2049
  654THF     H412593   0.394   2.148   1.571  0.9565  0.2241 -0.9330
  654THF     H512594   0.404   2.076   1.727  0.6550  3.5409 -1.1263
  654THF     H612595   0.553   1.864   1.447 -2.1177 -1.2063 -0.6121
  654THF     H712596   0.594   1.804   1.614 -0.8583 -0.0162  0.4863
  654THF     C812597   0.382   1.821   1.565  0.0794  0.4638  0.0739
  654THF     C912598   0.302   1.946   1.567 -0.2130  0.4253 -0.0118
  654THF    H1012599   0.375   1.755   1.651  2.5868  1.4348  1.1301
  654THF    H1112600   0.350   1.757   1.483  0.8201 -2.0759  1.6614
  654THF    H1212601   0.279   1.976   1.465  0.8641 -0.6079 -0.5896
  654THF    H1312602   0.210   1.935   1.624 -0.6433 -0.1851 -0.8028
  655THF     O112603   0.128   1.459   2.118  0.3324  0.1844  0.5832
  655THF     C212604   0.211   1.419   2.232  0.0565 -0.0318  0.3517
  655THF     C312605   0.133   1.603   2.113  0.3174 -0.1803  0.3167
  655THF     H412606   0.278   1.341   2.197 -1.7034 -1.7634  0.6429
  655THF     H512607   0.140   1.387   2.309 -0.9801 -2.5495 -1.5075
  655THF     H612608   0.125   1.636   2.010  2.6027  1.9469  0.7173
  655THF     H712609   0.054   1.653   2.168 -0.4904  0.0056 -0.9827
  655THF     C812610   0.274   1.641   2.165 -0.0500 -0.5677  0.0523
  655THF     C912611   0.288   1.538   2.278  0.7908  0.3887  0.2831
  655THF    H1012612   0.280   1.748   2.185  1.0144  0.1296 -3.2517
  655THF    H1112613   0.344   1.617   2.085  1.2277  0.6835  0.7453
  655THF    H1212614   0.391   1.523   2.312  1.0085 -2.7387 -1.3714
  655THF    H1312615   0.240   1.579   2.367  1.3833  1.2097  0.2398
  656THF     O112616   3.519   2.919   4.985 -0.1782 -0.2219 -0.2073
  656THF     C212617   3.487   3.048   5.037 -0.5055 -0.0886 -0.0157
  656THF     C312618   3.535   2.830   5.096  0.0567 -0.9555  0.2648
  656THF     H412619   3.379   3.046   5.054 -0.2290  0.9531  2.2131
  656THF     H512620   3.496   3.137   4.974 -0.7333 -0.7952 -1.0853
  656THF     H612621   3.439   2.784   5.120 -1.1582  1.7314  0.9334
  656THF     H712622   3.608   2.753   5.074  1.1542  0.6099 -2.0071
  656THF     C812623   3.596   2.912   5.209 -0.1918  0.0427 -0.0901
  656THF     C912624   3.581   3.057   5.159  0.1398  0.3100  0.1556
  656THF    H1012625   3.701   2.905   5.237  0.3865 -0.0567 -2.0875
  656THF    H1112626   3.542   2.882   5.298 -0.4421 -3.3828 -1.2338
  656THF    H1212627   3.535   3.128   5.229  0.8454 -1.3376  2.4163
  656THF    H1312628   3.677   3.097   5.126  0.3046 -1.6925 -2.0724
  657THF     O112629   1.893   1.900   4.857  0.6977 -0.5969  0.2305
  657THF     C212630   1.987   1.798   4.875  0.8259  0.3022  0.8920
  657THF     C312631   1.901   1.996   4.958  0.6153  0.4532  0.2147
  657THF     H412632   2.087   1.835   4.853  0.1909  1.6002 -0.0151
  657THF     H512633   1.957   1.716   4.810 -1.6248  1.3845  0.5432
  657THF     H612634   2.002   2.036   4.950  0.0905  1.8210  0.1779
  657THF     H712635   1.817   2.065   4.946 -0.2388 -0.2719  1.7007
  657THF     C812636   1.907   1.909   5.087 -0.0508  0.0160  0.1348
  657THF     C912637   1.967   1.780   5.031 -0.0441 -0.4063  0.9565
  657THF    H1012638   1.806   1.900   5.127  0.6544  2.7397  2.9152
  657THF    H1112639   1.968   1.956   5.164  0.6635  0.5983 -0.7689
  657THF    H1212640   2.064   1.763   5.079  0.1965  0.6798  0.8735
  657THF    H1312641   1.918   1.683   5.044  0.0832 -0.9081 -1.7462
  658THF     O112642   0.186   3.411   3.847 -0.9197  0.4388  0.2464
  658THF     C212643   0.142   3.327   3.732  0.1696 -0.5671 -0.4302
  658THF     C312644   0.219   3.537   3.788 -0.2523 -0.1784  0.4514
  658THF     H412645   0.074   3.246   3.757  0.1861 -0.3942  0.2141
  658THF     H512646   0.228   3.289   3.678  0.3085 -0.5954 -0.1918
  658THF     H612647   0.229   3.621   3.857  1.2371  1.0507 -1.1849
  658THF     H712648   0.311   3.542   3.729  0.3545 -0.3334  1.3628
  658THF     C812649   0.103   3.569   3.693 -0.8974  0.0572  0.2193
  658THF     C912650   0.069   3.429   3.644  0.3208  0.2370  0.0785
  658THF    H1012651   0.129   3.637   3.612 -0.4439  2.1765  2.0470
  658THF    H1112652   0.018   3.614   3.746  0.1416  0.4241  1.6239
  658THF    H1212653  -0.040   3.426   3.653  0.2356 -1.0728 -1.1283
  658THF    H1312654   0.090   3.421   3.538 -1.6893  0.5950 -0.3923
  659THF     O112655   5.053   5.267   3.469 -0.2801  0.4480  0.8657
  659THF     C212656   4.952   5.322   3.392 -0.5412  0.0535  0.1881
  659THF     C312657   5.175   5.304   3.415 -0.1634 -0.0146  0.1013
  659THF     H412658   4.949   5.423   3.432  0.3812 -0.7140  2.3931
  659THF     H512659   4.862   5.265   3.417  0.1766 -1.6092 -0.9039
  659THF     H612660   5.189   5.409   3.442  0.3779  0.7523 -2.7720
  659THF     H712661   5.256   5.251   3.464 -1.2136 -2.8528 -1.0272
  659THF     C812662   5.155   5.282   3.266  0.1093 -1.0538  0.6703
  659THF     C912663   5.000   5.316   3.252  0.0049 -0.3718 -0.4194
  659THF    H1012664   5.183   5.182   3.233  0.7928 -0.4684 -0.6389
  659THF    H1112665   5.207   5.356   3.206 -0.0176 -0.9003  0.7486
  659THF    H1212666   4.984   5.413   3.205  1.0089 -0.1228 -0.2640
  659THF    H1312667   4.948   5.238   3.196 -0.8305 -0.5587  0.5899
  660THF     O112668   2.167   0.013   4.003 -0.1211  0.0958 -0.2264
  660THF     C212669   2.027   0.019   3.998 -0.2723  0.0180 -0.9841
  660THF     C312670   2.209  -0.121   4.009  0.3788 -0.1281 -0.1714
  660THF     H412671   1.998   0.018   3.893  0.2775  2.6526 -1.2466
  660THF     H512672   1.996   0.118   4.033 -0.5843 -0.4151 -0.0123
  660THF     H612673   2.205  -0.173   3.913 -1.2497  0.8058 -0.6460
  660THF     H712674   2.307  -0.136   4.056 -0.1223  3.5188  2.4472
  660THF     C812675   2.101  -0.184   4.102  0.9619 -0.4199 -0.4281
  660THF     C912676   1.975  -0.097   4.086 -0.4394  0.1886 -0.3573
  660THF    H1012677   2.140  -0.178   4.204 -0.1454  0.7308 -0.0475
  660THF    H1112678   2.070  -0.286   4.079 -0.6512 -0.2175  0.6639
  660THF    H1212679   1.904  -0.154   4.027  0.5802 -0.8896 -0.5590
  660THF    H1312680   1.928  -0.069   4.180  0.0621  2.4846 -0.7312
  661THF     O112681   4.840   5.191   1.305  0.0552 -0.4691 -0.0896
  661THF     C212682   4.755   5.304   1.313 -0.1105 -0.4622  0.3295
  661THF     C312683   4.770   5.106   1.219  0.4370  0.1593 -0.0720
  661THF     H412684   4.789   5.402   1.280 -1.0300 -0.0453  0.5777
  661THF     H512685   4.733   5.304   1.420  0.2076  0.1135  0.3968
  661THF     H612686   4.800   5.133   1.117  0.0213 -0.1515 -0.2806
  661THF     H712687   4.802   5.002   1.217  2.3568  0.7173 -0.2915
  661THF     C812688   4.614   5.129   1.237 -0.6792 -0.5707 -0.0197
  661THF     C912689   4.622   5.282   1.244  0.2624 -0.0174  0.5869
  661THF    H1012690   4.584   5.101   1.338  1.4879 -0.0147  0.8442
  661THF    H1112691   4.545   5.084   1.166 -0.8647 -0.5296  0.1357
  661THF    H1212692   4.638   5.314   1.141  6.6566 -0.9475  0.8940
  661THF    H1312693   4.533   5.322   1.294  1.5126  0.9363  2.1392
  662THF     O112694   3.272   3.375   1.157  0.6810 -0.0500 -0.8447
  662THF     C212695   3.355   3.283   1.092  0.6633 -0.4469 -0.6951
  662THF     C312696   3.331   3.404   1.278  0.0158 -0.3724  0.1937
  662THF     H412697   3.354   3.281   0.983 -1.4185 -0.8104 -0.6992
  662THF     H512698   3.327   3.187   1.135  0.6135  0.2412  0.8477
  662THF     H612699   3.285   3.485   1.335 -0.0163 -1.3460  1.6015
  662THF     H712700   3.320   3.316   1.341 -0.6001 -0.2574  0.2549
  662THF     C812701   3.478   3.432   1.231  0.5448  0.1656 -0.0360
  662THF     C912702   3.500   3.315   1.137  0.2500 -0.2239  0.3541
  662THF    H1012703   3.540   3.443   1.321 -0.6187  1.8535  0.6232
  662THF    H1112704   3.483   3.531   1.186 -1.1260 -0.3578 -1.4472
  662THF    H1212705   3.561   3.343   1.052 -1.2102  0.9624 -0.3455
  662THF    H1312706   3.525   3.222   1.189 -2.8754 -0.8744  0.8843
  663THF     O112707   3.432   4.047   5.151  0.0796  0.3776 -0.1665
  663THF     C212708   3.511   4.035   5.033 -0.0994  0.3454 -0.1232
  663THF     C312709   3.291   4.028   5.114 -0.2845  0.0544  0.0203
  663THF     H412710   3.615   4.013   5.056  0.6029  0.8751 -2.4617
  663THF     H512711   3.512   4.121   4.965  1.6763  0.0316 -0.5506
  663THF     H612712   3.244   3.957   5.183 -2.2637 -0.3133 -1.6073
  663THF     H712713   3.250   4.128   5.126  0.7209  0.4027  0.6873
  663THF     C812714   3.289   3.966   4.977  0.4806  0.0815 -0.4564
  663THF     C912715   3.431   3.931   4.956 -0.5120  0.4087  0.3448
  663THF    H1012716   3.238   4.031   4.906 -0.6011 -1.5178 -1.2123
  663THF    H1112717   3.238   3.869   4.978 -0.8408  0.7523 -0.4951
  663THF    H1212718   3.457   3.830   4.984 -1.7937 -0.4622 -1.3649
  663THF    H1312719   3.449   3.937   4.848  2.1179  0.9860  0.7381
  664THF     O112720   4.397   1.058   4.323  0.4169 -0.5472  0.7697
  664THF     C212721   4.437   0.979   4.436  0.8649  0.6517 -0.0922
  664THF     C312722   4.413   0.976   4.204  0.6835 -0.5235  0.2487
  664THF     H412723   4.393   1.010   4.531  2.2020  0.5905  0.5655
  664THF     H512724   4.545   0.980   4.449  0.7466  0.3048  0.9955
  664THF     H612725   4.357   1.013   4.118  0.4035  1.7721  1.3413
  664THF     H712726   4.519   0.966   4.180  0.3675 -1.2111 -0.9704
  664THF     C812727   4.352   0.844   4.247 -0.1707 -0.2113  0.0935
  664THF     C912728   4.410   0.835   4.391  0.6324 -0.0480  0.2748
  664THF    H1012729   4.378   0.755   4.190  1.1819 -0.6720  1.3722
  664THF    H1112730   4.243   0.838   4.255 -0.1696 -1.3295 -0.6692
  664THF    H1212731   4.348   0.781   4.462  3.4462 -1.5055  1.8189
  664THF    H1312732   4.505   0.782   4.398  1.6670  1.8959  2.3782
  665THF     O112733   4.185   1.917   3.704  0.0679 -0.1179 -0.2008
  665THF     C212734   4.110   2.019   3.641 -0.4347  0.0741  0.1760
  665THF     C312735   4.282   1.860   3.612 -0.1910  0.0991  0.4746
  665THF     H412736   4.076   2.087   3.720 -0.1922  1.4928 -0.8970
  665THF     H512737   4.019   1.995   3.587 -0.6828  0.3526  0.4613
  665THF     H612738   4.386   1.885   3.635  0.6744 -1.0414 -1.8573
  665THF     H712739   4.279   1.752   3.603 -2.4302  0.1872 -0.3867
  665THF     C812740   4.243   1.925   3.473 -0.2812  0.0659  0.7920
  665THF     C912741   4.205   2.068   3.531  0.2154 -0.3137  0.2160
  665THF    H1012742   4.169   1.864   3.422  0.7312 -1.1072  0.6750
  665THF    H1112743   4.326   1.923   3.402  0.3210  0.2291  1.4807
  665THF    H1212744   4.285   2.130   3.572 -1.4233  1.0882  1.4655
  665THF    H1312745   4.148   2.136   3.468  1.7649  0.5824 -0.2766
  666THF     O112746   3.645   4.352   1.100 -0.5429  0.2095 -0.2923
  666THF     C212747   3.624   4.407   0.965 -0.6092 -0.0402 -0.2214
  666THF     C312748   3.692   4.453   1.186 -0.0586  0.0174  0.8026
  666THF     H412749   3.516   4.405   0.949 -1.1752  2.2494  2.6728
  666THF     H512750   3.675   4.339   0.896 -1.2812 -0.3180 -0.4597
  666THF     H612751   3.597   4.501   1.212 -1.5159 -0.5700 -2.7372
  666THF     H712752   3.752   4.423   1.272  2.7679  1.5864 -0.4906
  666THF     C812753   3.774   4.540   1.087 -0.0904 -0.1245  0.0514
  666THF     C912754   3.680   4.551   0.974  0.2556 -0.7969 -0.2098
  666THF    H1012755   3.865   4.486   1.062  0.4230  0.5274  0.4682
  666THF    H1112756   3.789   4.638   1.133 -1.8195  0.4329 -0.4715
  666THF    H1212757   3.609   4.629   0.999 -1.9238 -2.1371 -1.7918
  666THF    H1312758   3.727   4.584   0.881 -0.2450 -2.1568 -0.9831
  667THF     O112759   4.399   5.274   2.095  0.0779  0.5797  0.3673
  667THF     C212760   4.424   5.223   1.967 -0.2412  0.3369  0.1999
  667THF     C312761   4.401   5.159   2.182  0.4985 -0.0138  0.1317
  667THF     H412762   4.436   5.306   1.898  0.2483 -0.6870 -0.9880
  667THF     H512763   4.333   5.169   1.936  0.1133 -0.8464  1.1418
  667THF     H612764   4.412   5.189   2.286  0.4347  0.0802  0.1118
  667THF     H712765   4.309   5.105   2.161  0.4889 -0.1888  0.6324
  667THF     C812766   4.523   5.079   2.130 -0.1405 -0.1379 -0.0741
  667THF     C912767   4.536   5.126   1.990  0.2623  0.7929  0.0122
  667THF    H1012768   4.504   4.972   2.128  0.3759 -0.2512  0.7088
  667THF    H1112769   4.611   5.082   2.194 -0.8803  1.5522  0.9279
  667THF    H1212770   4.622   5.189   1.963 -1.9675  2.7602 -3.3057
  667THF    H1312771   4.539   5.045   1.917  0.0807 -0.3935  1.2958
  668THF     O112772   2.521   3.348   5.052 -0.6844  0.0526  0.3306
  668THF     C212773   2.451   3.459   5.014  0.6735  0.0184 -0.7410
  668THF     C312774   2.510   3.258   4.939  0.1113  0.0159 -0.3211
  668THF     H412775   2.456   3.534   5.092  0.9395  0.5349 -1.2453
  668THF     H512776   2.344   3.442   5.009  0.1716  1.5366  2.3615
  668THF     H612777   2.580   3.175   4.953  1.6752  1.3083 -0.0954
  668THF     H712778   2.409   3.218   4.944  0.8890 -1.8906  2.0564
  668THF     C812779   2.523   3.342   4.815 -0.0559 -0.1827  0.3151
  668THF     C912780   2.492   3.483   4.870  0.0529  0.1893 -1.0854
  668THF    H1012781   2.458   3.303   4.737 -0.2127 -0.9401  0.8149
  668THF    H1112782   2.627   3.335   4.783 -0.5238 -1.5910 -1.0011
  668THF    H1212783   2.578   3.550   4.871 -2.3839  3.7407  1.9448
  668THF    H1312784   2.421   3.536   4.806  0.0688  1.2385 -0.2666
  669THF     O112785   2.542   0.756   1.539  0.4599 -0.5589 -0.0397
  669THF     C212786   2.498   0.863   1.622 -0.8634 -0.3920  0.1911
  669THF     C312787   2.543   0.816   1.411 -0.0421  0.8786 -0.2652
  669THF     H412788   2.584   0.921   1.654  1.8531 -2.8570 -2.0121
  669THF     H512789   2.462   0.810   1.710 -1.3426  0.2234  0.3766
  669THF     H612790   2.635   0.873   1.394  0.5607 -0.0479 -0.1845
  669THF     H712791   2.553   0.741   1.332  1.3324  0.5211  0.2165
  669THF     C812792   2.412   0.894   1.411  0.0060 -0.0492  0.5622
  669THF     C912793   2.393   0.944   1.546  0.0933 -0.3529 -0.3303
  669THF    H1012794   2.331   0.824   1.386  0.7245 -0.4379 -0.8081
  669THF    H1112795   2.413   0.969   1.333 -0.6001 -1.0771 -0.4799
  669THF    H1212796   2.414   1.051   1.550  1.0033 -0.5574  0.5494
  669THF    H1312797   2.291   0.937   1.585  0.1969 -1.6683 -0.2708
  670THF     O112798   4.226   4.369   3.061 -0.6699  0.3211 -0.2270
  670THF     C212799   4.160   4.382   3.187 -0.3628  0.7858  0.8914
  670THF     C312800   4.366   4.419   3.073 -0.1121 -0.1455  0.1848
  670THF     H412801   4.160   4.292   3.248  2.7965  0.1173  0.0835
  670THF     H512802   4.058   4.415   3.165  0.4794  1.8686 -1.9072
  670THF     H612803   4.425   4.361   3.144  1.1740  1.2212  0.2926
  670THF     H712804   4.431   4.427   2.985  1.3789 -2.2359  0.9926
  670THF     C812805   4.340   4.549   3.146  0.4609  0.8126 -0.0583
  670THF     C912806   4.238   4.501   3.252 -0.4590  0.7813 -0.0622
  670THF    H1012807   4.294   4.628   3.087 -0.4976  0.4873  0.2339
  670THF    H1112808   4.427   4.594   3.193  0.2020 -0.2755  1.5678
  670THF    H1212809   4.286   4.466   3.343  2.4715  2.5935 -0.7671
  670THF    H1312810   4.175   4.588   3.270 -1.2968  0.2805 -0.4764
  671THF     O112811   0.350   4.065   1.759  0.0652  0.2609 -0.0980
  671THF     C212812   0.314   4.158   1.664  0.1740  0.1213 -0.1348
  671THF     C312813   0.232   4.024   1.839  0.0356  0.6094  0.1792
  671THF     H412814   0.379   4.145   1.578 -4.1994 -1.5325 -3.5863
  671THF     H512815   0.310   4.265   1.685 -1.0655 -0.1415  1.1426
  671THF     H612816   0.254   3.928   1.886 -0.3182 -0.3903 -1.6140
  671THF     H712817   0.215   4.096   1.919  1.5352  1.0209  0.1677
  671THF     C812818   0.132   4.010   1.733  0.2241 -0.2681 -0.3837
  671THF     C912819   0.164   4.122   1.638 -0.0840  0.9695  0.6162
  671THF    H1012820   0.029   4.025   1.764 -0.5471 -0.0861 -2.8018
  671THF    H1112821   0.125   3.908   1.694 -0.0786 -0.2293 -0.4331
  671THF    H1212822   0.138   4.090   1.537  2.2217 -1.2526  0.6355
  671THF    H1312823   0.097   4.207   1.651  2.7803  3.3939  0.7170
  672THF     O112824   1.681   2.173   0.881  0.6055 -0.2892 -0.4360
  672THF     C212825   1.800   2.097   0.859 -0.0613 -0.3358 -0.1100
  672THF     C312826   1.586   2.075   0.921 -0.4008  0.4879  0.0971
  672THF     H412827   1.889   2.159   0.870 -0.0348 -0.3596 -0.1865
  672THF     H512828   1.790   2.059   0.757 -0.7273  0.4756 -0.3654
  672THF     H612829   1.498   2.118   0.969  0.5973  1.3586  1.1943
  672THF     H712830   1.559   2.016   0.833 -0.5795 -1.8142  1.5888
  672THF     C812831   1.664   2.001   1.024  0.5753 -0.2649 -0.1157
  672THF     C912832   1.803   1.987   0.962  0.5460 -0.4577 -0.5578
  672THF    H1012833   1.609   1.908   1.035  2.0035 -0.9116  2.3516
  672THF    H1112834   1.671   2.063   1.114  1.0449 -0.5238  0.0270
  672THF    H1212835   1.884   2.004   1.033  0.2028  4.5194 -0.9509
  672THF    H1312836   1.821   1.886   0.926 -0.4503 -1.5099  1.6973
  673THF     O112837   5.192   4.846   1.346  0.6855 -0.1058  0.9046
  673THF     C212838   5.192   4.707   1.384  0.5125 -0.3707 -0.1025
  673THF     C312839   5.070   4.914   1.379 -0.0631  0.1138 -0.1409
  673THF     H412840   5.265   4.694   1.464  0.2872 -2.3703 -0.1775
  673THF     H512841   5.220   4.641   1.301 -2.3172 -1.4541 -0.3035
  673THF     H612842   5.070   4.945   1.483 -0.6367 -0.1683 -0.0575
  673THF     H712843   5.042   4.985   1.300  1.5786  0.3332 -0.5685
  673THF     C812844   4.965   4.804   1.384  0.1530  0.3746 -0.0020
  673THF     C912845   5.042   4.683   1.434 -0.0395 -0.3002  0.3118
  673THF    H1012846   4.927   4.784   1.284 -2.3640  2.3310  0.4744
  673THF    H1112847   4.879   4.834   1.443 -0.7657 -1.1205 -0.5309
  673THF    H1212848   5.042   4.673   1.543  1.4097  1.5122  0.5357
  673THF    H1312849   5.002   4.596   1.383  0.4240  0.1328 -0.8147
  674THF     O112850   2.423   4.570   1.097 -0.3025 -0.2584  1.0112
  674THF     C212851   2.400   4.640   1.211  0.2493  0.6034 -0.3316
  674THF     C312852   2.301   4.579   1.025  0.2267 -0.0260 -0.0357
  674THF     H412853   2.410   4.747   1.196 -0.5614  0.8438  0.7065
  674THF     H512854   2.463   4.602   1.292 -0.5394 -1.0596 -0.4499
  674THF     H612855   2.294   4.676   0.974  0.5051  0.3404  0.6003
  674THF     H712856   2.296   4.504   0.947  0.6684  1.2174 -1.3192
  674THF     C812857   2.190   4.560   1.130  0.4600  0.4878 -0.3000
  674THF     C912858   2.259   4.595   1.254  0.6727  0.6589 -1.1022
  674THF    H1012859   2.158   4.456   1.135  1.4835  0.1652 -0.2753
  674THF    H1112860   2.095   4.609   1.111  0.2683  1.1566  2.0549
  674THF    H1212861   2.195   4.674   1.292 -2.5549 -2.5744  0.7379
  674THF    H1312862   2.271   4.514   1.325 -1.4486 -0.5693 -2.0616
  675THF     O112863   4.076   4.510   5.369 -0.2241  0.0940  0.0896
  675THF     C212864   4.151   4.635   5.358 -0.3016  0.0054  0.4741
  675THF     C312865   3.941   4.537   5.362 -0.0618 -0.4075 -0.1023
  675THF     H412866   4.259   4.619   5.347 -0.6092 -1.6127 -0.4753
  675THF     H512867   4.137   4.704   5.441  0.0756 -1.1336  1.5244
  675THF     H612868   3.868   4.459   5.342 -0.1637  0.2520 -2.7315
  675THF     H712869   3.901   4.603   5.439  0.7571  0.2881 -0.2618
  675THF     C812870   3.946   4.615   5.225  0.3294 -0.6048  0.4320
  675THF     C912871   4.075   4.694   5.234 -0.9944 -0.1641 -0.2656
  675THF    H1012872   3.858   4.679   5.211  1.7279  1.1941 -0.6237
  675THF    H1112873   3.947   4.537   5.149 -2.6091 -2.4256  2.0494
  675THF    H1212874   4.141   4.685   5.148  2.0848 -0.0289  1.9117
  675THF    H1312875   4.066   4.801   5.249  0.4384 -0.2257  1.4673
  676THF     O112876   1.500   0.827   1.120  0.0062  0.1478  0.3690
  676THF     C212877   1.371   0.835   1.054 -0.1273 -0.4834 -0.1489
  676THF     C312878   1.551   0.691   1.112  0.0813 -0.0444  1.0219
  676THF     H412879   1.387   0.856   0.948 -2.6262 -0.6723 -0.6143
  676THF     H512880   1.308   0.905   1.110  0.9935  2.0562 -1.8717
  676THF     H612881   1.640   0.691   1.049 -1.1725  1.6795 -0.8844
  676THF     H712882   1.572   0.661   1.214 -3.1768  1.0887  2.1603
  676THF     C812883   1.438   0.604   1.054 -0.9652  0.1544  0.2523
  676THF     C912884   1.317   0.693   1.073  0.0903  0.3973  0.1204
  676THF    H1012885   1.421   0.521   1.123 -3.5699  2.2718  2.3982
  676THF    H1112886   1.460   0.573   0.952 -2.3083  0.1026 -0.0414
  676THF    H1212887   1.242   0.672   0.997 -1.4571  0.3595  1.5978
  676THF    H1312888   1.278   0.669   1.172 -0.6049 -0.2513 -0.3044
  677THF     O112889   1.245   5.259   5.096  0.5991 -0.0360  0.1916
  677THF     C212890   1.128   5.193   5.130  0.5862  0.1844 -0.0061
  677THF     C312891   1.244   5.278   4.959  0.0281  0.4378  0.5311
  677THF     H412892   1.057   5.266   5.168  2.4905  1.7720  0.7028
  677THF     H512893   1.149   5.130   5.216  0.8011 -0.1033 -0.2665
  677THF     H612894   1.171   5.355   4.932  0.1449  0.5039  0.4044
  677THF     H712895   1.344   5.311   4.932  0.1088  0.0154  0.3066
  677THF     C812896   1.193   5.143   4.909  0.3028  1.0057  0.0178
  677THF     C912897   1.087   5.111   5.013 -0.0469  0.2340  0.2090
  677THF    H1012898   1.270   5.065   4.906 -1.5044 -0.8363 -0.8279
  677THF    H1112899   1.153   5.152   4.808 -0.5531  2.0011  0.4282
  677THF    H1212900   0.996   5.136   4.959  0.3034 -2.0005 -1.5748
  677THF    H1312901   1.086   5.004   5.032 -1.1638  0.4400  1.4689
  678THF     O112902   1.957   1.236   4.884 -0.1622  0.2142 -0.1578
  678THF     C212903   1.981   1.351   4.795 -0.3756  0.0534 -0.3531
  678THF     C312904   2.044   1.135   4.832 -0.4090 -0.4866  0.2224
  678THF     H412905   2.077   1.391   4.827 -1.2912  0.6449  1.8338
  678THF     H512906   1.916   1.438   4.802  0.2586  0.5703 -0.7726
  678THF     H612907   2.146   1.171   4.845 -1.6862  2.6487  3.0613
  678THF     H712908   2.025   1.041   4.884  0.1255 -0.7292 -0.0122
  678THF     C812909   2.009   1.132   4.682  0.0273  0.4518  0.1542
  678THF     C912910   1.984   1.280   4.658 -0.2440 -0.0900  0.1815
  678THF    H1012911   1.917   1.081   4.655 -0.2220  0.1766  1.4466
  678THF    H1112912   2.086   1.092   4.616  0.2253 -2.2507  1.8606
  678THF    H1212913   2.059   1.324   4.592 -0.0445  2.7743  2.1675
  678THF    H1312914   1.887   1.301   4.612  1.2876  1.7156 -2.5525
  679THF     O112915   0.747   0.173   2.959  0.8448  0.0696  0.1256
  679THF     C212916   0.817   0.052   2.962 -0.1591  0.0377 -0.4775
  679THF     C312917   0.776   0.232   2.831  0.0420  0.2366 -0.1510
  679THF     H412918   0.801  -0.013   3.049 -1.2868 -1.8476 -2.0072
  679THF     H512919   0.922   0.077   2.975  0.3553 -2.6040  1.4753
  679THF     H612920   0.692   0.284   2.785 -0.1713  1.2807  1.3519
  679THF     H712921   0.858   0.300   2.852  0.4448 -0.2647 -0.0850
  679THF     C812922   0.819   0.114   2.740  0.8565 -0.2638 -0.0590
  679THF     C912923   0.809  -0.010   2.819  0.8554 -0.2313  0.2105
  679THF    H1012924   0.921   0.132   2.706  0.1339  2.8793 -0.9121
  679THF    H1112925   0.748   0.105   2.658 -0.3225 -0.2726  0.9340
  679THF    H1212926   0.715  -0.063   2.806 -0.2167  1.0543  2.2381
  679THF    H1312927   0.893  -0.078   2.803  0.8143 -0.2381  0.0174
  680THF     O112928   1.853   4.834   4.073  0.1109 -0.3718  0.1292
  680THF     C212929   1.901   4.735   4.163  0.2880 -0.8114 -0.1747
  680THF     C312930   1.954   4.916   4.023 -0.1532  0.9320 -0.0911
  680THF     H412931   1.849   4.640   4.154 -1.3698  0.1649 -1.3088
  680THF     H512932   1.890   4.764   4.267  0.0840  2.0286 -0.9031
  680THF     H612933   1.949   4.895   3.916  0.6019  0.3340 -0.0171
  680THF     H712934   1.951   5.025   4.023 -0.3259  0.9296 -0.9445
  680THF     C812935   2.084   4.857   4.080 -0.3652  0.3845  0.1669
  680THF     C912936   2.051   4.722   4.148  0.5632  0.0747  0.6582
  680THF    H1012937   2.134   4.921   4.153 -0.0894  0.9064 -0.4719
  680THF    H1112938   2.154   4.833   4.001  0.1799  1.4436  0.3121
  680THF    H1212939   2.074   4.657   4.064  1.4488  1.7573 -0.4805
  680THF    H1312940   2.109   4.689   4.234  1.1490  1.1705  0.7037
  681THF     O112941   4.551   3.710   1.110 -0.1358 -0.7848 -0.1337
  681THF     C212942   4.465   3.824   1.102  0.2772 -0.0023  0.3019
  681THF     C312943   4.665   3.732   1.200 -0.0839  0.0213  0.6186
  681THF     H412944   4.370   3.797   1.148  0.9593 -0.9336  1.2035
  681THF     H512945   4.454   3.874   1.006  1.1405 -2.0402 -0.9281
  681THF     H612946   4.647   3.684   1.296 -0.2505  1.4108  1.3093
  681THF     H712947   4.759   3.696   1.159 -1.4735 -1.6154 -1.2948
  681THF     C812948   4.672   3.883   1.203  0.0343 -0.0383  0.0428
  681THF     C912949   4.525   3.913   1.204  0.3276 -0.1907 -0.1250
  681THF    H1012950   4.718   3.916   1.109 -0.4943 -1.7717 -0.8641
  681THF    H1112951   4.721   3.930   1.289 -1.6680  4.6062 -1.1790
  681THF    H1212952   4.485   3.878   1.300  0.9289 -1.5550 -0.3522
  681THF    H1312953   4.511   4.020   1.191  0.4229 -0.0676  0.6985
  682THF     O112954   3.685   3.705   4.730  0.4501  0.2037  0.7258
  682THF     C212955   3.770   3.810   4.678  0.2175 -0.5140 -1.2153
  682THF     C312956   3.582   3.683   4.636  0.1671  0.5476  0.0603
  682THF     H412957   3.852   3.785   4.610  2.1616  2.2358 -0.0373
  682THF     H512958   3.822   3.861   4.759 -0.2382  0.4092 -1.4872
  682THF     H612959   3.592   3.587   4.585  0.3286  0.2567  0.6355
  682THF     H712960   3.489   3.678   4.693 -0.2495  0.2138 -0.6390
  682THF     C812961   3.595   3.793   4.528 -0.2257  0.2838  0.9167
  682THF     C912962   3.682   3.898   4.594  0.2699  0.4592 -0.2078
  682THF    H1012963   3.510   3.848   4.489  1.0287  0.6716 -1.4589
  682THF    H1112964   3.657   3.757   4.446 -0.2205 -1.3658  1.6023
  682THF    H1212965   3.737   3.954   4.518 -0.2563 -0.3903 -1.2546
  682THF    H1312966   3.631   3.964   4.663  1.7816 -1.1414  2.6428
  683THF     O112967   0.408   3.918   0.438  0.0366 -0.2961 -0.1587
  683THF     C212968   0.286   3.991   0.464 -0.1428 -0.0092 -0.0557
  683THF     C312969   0.471   3.987   0.331 -0.6855 -0.5086 -0.1241
  683THF     H412970   0.228   3.946   0.544  0.9415 -0.2526  0.6056
  683THF     H512971   0.227   3.979   0.373 -0.6461  0.0596  0.2566
  683THF     H612972   0.576   3.962   0.344 -0.4164  1.5158  2.4505
  683THF     H712973   0.443   3.951   0.231  0.9048 -1.3206 -0.3076
  683THF     C812974   0.466   4.128   0.379  0.2093 -0.7732  0.0928
  683THF     C912975   0.347   4.133   0.478  0.0131 -0.2230 -0.3375
  683THF    H1012976   0.465   4.205   0.301 -0.3110 -0.1291  0.7211
  683THF    H1112977   0.562   4.145   0.427  0.2240  3.2305 -0.9826
  683THF    H1212978   0.380   4.142   0.582  1.2513  1.7087 -0.8399
  683THF    H1312979   0.276   4.213   0.454 -1.2348 -1.3059 -0.3823
  684THF     O112980   0.079   5.053   5.080  0.0872 -0.1850 -0.1268
  684THF     C212981   0.133   5.120   4.969 -0.0285  0.6854 -0.3510
  684THF     C312982   0.130   5.109   5.199 -0.1718  0.3791  0.1487
  684THF     H412983   0.099   5.221   4.947 -0.1600  1.0422  1.3461
  684THF     H512984   0.145   5.056   4.882  2.0147  1.5238 -0.7430
  684THF     H612985   0.073   5.196   5.233  0.6284  0.4070  1.5014
  684THF     H712986   0.130   5.033   5.276 -0.1084 -0.3446 -0.5539
  684THF     C812987   0.270   5.151   5.165  0.3796 -0.0863 -0.4614
  684THF     C912988   0.278   5.131   5.011 -0.3705 -0.5036 -0.1265
  684THF    H1012989   0.334   5.088   5.227 -1.0048 -1.0406  0.0505
  684THF    H1112990   0.286   5.256   5.188 -2.6914  0.4775 -0.5281
  684THF    H1212991   0.320   5.218   4.962  0.0585 -0.0626  0.9935
  684THF    H1312992   0.337   5.043   4.987  3.2069  1.1476  1.8457
  685THF     O112993   5.258   3.990   3.417  0.2473  0.1239 -0.0669
  685THF     C212994   5.134   4.060   3.433 -0.3032  0.0337 -0.0391
  685THF     C312995   5.357   4.070   3.491  0.3881  0.0081  0.2358
  685THF     H412996   5.084   4.018   3.520 -0.4682  1.5122  0.6037
  685THF     H512997   5.083   4.035   3.340  1.0560  0.0563 -0.8123
  685THF     H612998   5.357   4.049   3.598 -0.5639  0.3037  0.3038
  685THF     H712999   5.458   4.053   3.453  0.7119  3.5729 -0.8690
  685THF     C813000   5.318   4.217   3.463  0.2832  0.0739 -0.1465
  685THF     C913001   5.169   4.207   3.446 -0.6044  0.0084 -0.0572
  685THF    H1013002   5.377   4.249   3.377  0.9320  0.4151  0.4292
  685THF    H1113003   5.345   4.292   3.536  0.3383 -0.0826 -0.0044
  685THF    H1213004   5.113   4.261   3.523  1.9732  1.0107  1.2570
  685THF    H1313005   5.147   4.253   3.350  2.4078  3.1506  0.5635
  686THF     O113006   2.337   0.337   2.153  0.1539 -0.0782  0.0432
  686THF     C213007   2.246   0.263   2.240 -0.9663  0.4916 -0.0502
  686THF     C313008   2.264   0.444   2.092 -0.4762 -0.1157 -0.1718
  686THF     H413009   2.254   0.314   2.336  1.3285  0.7480 -0.3324
  686THF     H513010   2.269   0.157   2.235 -0.2965  0.5821  0.9161
  686THF     H613011   2.248   0.522   2.167 -4.2177 -0.2053 -0.6704
  686THF     H713012   2.304   0.476   1.996 -2.6320 -0.7987 -1.3774
  686THF     C813013   2.126   0.375   2.068 -0.4336  0.1282  0.2837
  686THF     C913014   2.106   0.277   2.185 -0.2294  0.5818 -0.7542
  686THF    H1013015   2.139   0.313   1.979  0.6339  0.1733  0.3847
  686THF    H1113016   2.042   0.442   2.051  0.6156  1.5282  0.3717
  686THF    H1213017   2.030   0.319   2.250  0.4724  4.7942 -2.3579
  686THF    H1313018   2.068   0.181   2.151  1.5676 -0.4064 -0.0786
  687THF     O113019   0.430   2.854   4.562 -0.0983 -0.5316  0.2684
  687THF     C213020   0.491   2.908   4.445  0.8252 -0.0308 -0.2061
  687THF     C313021   0.463   2.718   4.556 -0.0444 -0.0718  0.2318
  687THF     H413022   0.598   2.918   4.459  0.8035  1.0772 -0.6538
  687THF     H513023   0.453   3.008   4.421 -0.1373 -0.2329  0.4067
  687THF     H613024   0.571   2.721   4.572 -0.0623 -1.5954  0.7815
  687THF     H713025   0.420   2.652   4.631  0.9020  1.1990  1.9799
  687THF     C813026   0.438   2.677   4.414 -0.3805  0.8518 -0.2293
  687THF     C913027   0.466   2.807   4.337  0.6005  0.4050 -0.4323
  687THF    H1013028   0.339   2.633   4.409 -0.4963  0.6984  2.1194
  687THF    H1113029   0.510   2.600   4.387 -0.4957  0.1811  1.2575
  687THF    H1213030   0.560   2.808   4.282  0.4759 -1.2649 -0.7259
  687THF    H1313031   0.383   2.836   4.273  1.0883  1.2425 -0.6988
  688THF     O113032   3.939   1.770   2.447 -0.4905  0.1008  0.1316
  688THF     C213033   3.852   1.818   2.352  0.8806  0.0522 -0.0634
  688THF     C313034   3.962   1.632   2.411  0.0750 -0.6710 -0.3589
  688THF     H413035   3.909   1.829   2.260  1.2447  2.0740  0.3618
  688THF     H513036   3.817   1.919   2.371  2.9726  1.0050 -1.0179
  688THF     H613037   4.060   1.611   2.369  0.4404 -1.6729  0.9237
  688THF     H713038   3.968   1.588   2.510  0.8364  1.4285  0.5910
  688THF     C813039   3.833   1.581   2.339 -0.2341  0.2399 -0.3427
  688THF     C913040   3.747   1.707   2.336  0.2206  0.2020  0.6812
  688THF    H1013041   3.779   1.501   2.390  0.8290 -0.0532  0.3498
  688THF    H1113042   3.844   1.547   2.236  0.6720 -0.3326 -0.0606
  688THF    H1213043   3.693   1.730   2.244 -0.1847  1.5311  1.2243
  688THF    H1313044   3.675   1.716   2.418 -0.4248 -0.7700  0.2412
  689THF     O113045   3.909   3.655   5.223  0.0727 -0.0711 -0.5754
  689THF     C213046   3.798   3.715   5.160  0.4421  0.2070  0.1917
  689THF     C313047   4.023   3.657   5.136 -0.0599  0.3610  0.1871
  689THF     H413048   3.759   3.805   5.208  0.3310  1.2728 -1.8193
  689THF     H513049   3.713   3.647   5.170  0.3290  0.3499  0.2104
  689THF     H613050   4.054   3.760   5.150  0.9116  0.1001  0.0054
  689THF     H713051   4.106   3.589   5.156 -0.5220 -0.5671 -0.9190
  689THF     C813052   3.955   3.628   4.997  0.1571  0.3989  0.0403
  689THF     C913053   3.834   3.716   5.011 -0.2322  0.0623  0.0656
  689THF    H1013054   3.929   3.524   4.978  3.4535 -0.2240 -1.7939
  689THF    H1113055   4.027   3.648   4.917 -0.1991  0.4292 -0.2752
  689THF    H1213056   3.872   3.812   4.976  0.1010 -0.6443 -1.5845
  689THF    H1313057   3.746   3.696   4.950  1.2254  0.6047 -2.3101
  690THF     O113058   2.059   2.176   2.265 -0.2243 -0.5799  0.2561
  690THF     C213059   2.039   2.079   2.168 -0.4985  0.1089  0.2526
  690THF     C313060   1.999   2.296   2.216  0.2535 -0.2925  0.8696
  690THF     H413061   1.999   1.985   2.207 -3.3940  0.6463 -1.1621
  690THF     H513062   2.144   2.056   2.148 -0.5239  0.6603 -0.5599
  690THF     H613063   1.894   2.296   2.245 -0.8927  2.2668 -2.5119
  690THF     H713064   2.058   2.383   2.246  1.1605  0.2080 -2.0346
  690THF     C813065   1.998   2.287   2.067  0.2662  0.1716  0.2118
  690THF     C913066   1.974   2.140   2.044 -0.3998  0.4933 -0.5140
  690THF    H1013067   2.096   2.314   2.028  0.9104 -1.4710  0.5890
  690THF    H1113068   1.924   2.352   2.022 -0.1449 -0.1230  0.4568
  690THF    H1213069   1.866   2.121   2.045 -0.6313  1.7093  0.1299
  690THF    H1313070   2.026   2.107   1.954  1.3104  2.9147 -0.5214
  691THF     O113071   1.078   1.492   3.163  0.1929  0.5075  0.2548
  691THF     C213072   0.979   1.449   3.260  0.5506  0.3807  0.6126
  691THF     C313073   1.076   1.633   3.149  0.2929  0.2864 -0.6120
  691THF     H413074   0.998   1.355   3.313  0.4489  0.0816  0.1283
  691THF     H513075   0.883   1.450   3.208 -0.8476 -0.4550  3.0348
  691THF     H613076   1.170   1.673   3.113  1.1770  0.2654  1.5606
  691THF     H713077   0.991   1.668   3.090 -2.7951 -0.0426  3.2205
  691THF     C813078   1.065   1.678   3.297  0.8527 -0.1022 -0.4087
  691THF     C913079   0.963   1.573   3.346  0.2816  0.4082 -0.4956
  691THF    H1013080   1.042   1.783   3.315  1.4303 -0.3366  2.0145
  691THF    H1113081   1.155   1.660   3.355  1.8287 -0.1122 -1.8984
  691THF    H1213082   0.976   1.536   3.447 -3.0586 -0.4333 -0.2734
  691THF    H1313083   0.860   1.607   3.343 -0.1547 -0.8873 -1.3853
  692THF     O113084   0.154   0.904   4.825  0.1287 -0.3682 -0.2938
  692THF     C213085   0.087   0.885   4.945 -1.0368 -0.5687 -0.2220
  692THF     C313086   0.062   0.888   4.715  0.3781 -0.1204  0.0574
  692THF     H413087   0.017   0.968   4.958  0.6626  0.9877 -0.5426
  692THF     H513088   0.142   0.870   5.037 -1.9624 -0.7937  0.3091
  692THF     H613089   0.005   0.977   4.692 -1.4897 -1.2285  0.1953
  692THF     H713090   0.115   0.849   4.628  2.7517 -0.9361  1.7413
  692THF     C813091  -0.038   0.787   4.777 -0.0558  0.0885 -0.0654
  692THF     C913092   0.005   0.763   4.921  0.7375 -0.3171 -0.0234
  692THF    H1013093  -0.031   0.690   4.728  1.8685 -0.1653  0.6119
  692THF    H1113094  -0.140   0.822   4.765  0.2641  2.2271  2.4794
  692THF    H1213095  -0.077   0.749   4.991 -0.3796  0.6866 -1.0857
  692THF    H1313096   0.074   0.680   4.930  0.8170 -0.0406  2.9418
  693THF     O113097   0.309   0.850   4.040  0.6514  0.2513  0.1213
  693THF     C213098   0.361   0.834   4.168 -0.0376  0.5739  0.1575
  693THF     C313099   0.408   0.921   3.963 -0.1466 -1.1592  0.9181
  693THF     H413100   0.430   0.750   4.177 -0.9335 -0.1937  0.0667
  693THF     H513101   0.273   0.827   4.233 -1.1590 -1.7855 -1.4518
  693THF     H613102   0.484   0.859   3.916 -1.0183  0.7618 -3.4547
  693THF     H713103   0.355   0.975   3.885 -0.5200 -2.8844 -0.0632
  693THF     C813104   0.474   1.024   4.055 -0.9648 -0.2534  0.6151
  693THF     C913105   0.446   0.965   4.190  0.2405 -0.4563  0.3520
  693THF    H1013106   0.417   1.116   4.053  0.0957  0.4062  0.0416
  693THF    H1113107   0.580   1.041   4.036 -1.1774 -0.9245 -1.3801
  693THF    H1213108   0.542   0.941   4.235  0.4913 -1.2795 -0.5647
  693THF    H1313109   0.393   1.040   4.248  1.2988 -0.4967  1.3965
  694THF     O113110   4.022   3.411   2.997  0.1092 -0.2908  0.4155
  694THF     C213111   4.007   3.282   2.940 -0.7158  0.0909 -0.0689
  694THF     C313112   4.068   3.501   2.889  0.2701  0.0108  0.3268
  694THF     H413113   3.925   3.264   2.870 -0.5528 -1.6030  0.1339
  694THF     H513114   4.000   3.202   3.013 -0.3890 -0.4786 -0.6519
  694THF     H613115   3.984   3.533   2.828  0.3959  0.4847  0.4014
  694THF     H713116   4.120   3.585   2.935  0.4958 -0.3033  0.6521
  694THF     C813117   4.163   3.411   2.802  0.1810 -0.3341  0.3821
  694THF     C913118   4.140   3.270   2.868 -0.4338  0.3258 -0.4024
  694THF    H1013119   4.268   3.434   2.819  0.3445 -0.4452 -0.4658
  694THF    H1113120   4.140   3.426   2.697 -0.1640  2.0267  0.7330
  694THF    H1213121   4.136   3.193   2.791  0.6356  1.5357 -1.7249
  694THF    H1313122   4.222   3.257   2.938 -0.8218  2.8230  0.6480
  695THF     O113123   1.634   4.240   3.611 -0.1815 -0.4317 -0.4661
  695THF     C213124   1.629   4.196   3.478  0.5692 -0.0984  0.0718
  695THF     C313125   1.517   4.198   3.676 -0.4766  0.7520 -0.1765
  695THF     H413126   1.668   4.094   3.469  2.0960  0.4477  0.2546
  695THF     H513127   1.687   4.262   3.414 -1.7797  1.6332 -0.4073
  695THF     H613128   1.522   4.089   3.679  1.0040  0.7461 -1.5413
  695THF     H713129   1.502   4.234   3.778  0.0130 -0.1908  0.2435
  695THF     C813130   1.409   4.238   3.580  0.4356  0.0828  0.5613
  695THF     C913131   1.482   4.214   3.447  0.4640 -0.4068 -0.4988
  695THF    H1013132   1.389   4.345   3.588  0.7265  0.0025  3.5513
  695THF    H1113133   1.311   4.191   3.591 -0.7841  2.2316 -0.5128
  695THF    H1213134   1.435   4.138   3.384  0.2202  0.2651 -1.1351
  695THF    H1313135   1.477   4.305   3.388  0.2731  1.3012  1.9801
  696THF     O113136   3.181   4.653   1.321 -1.1644 -0.1507 -0.1345
  696THF     C213137   3.143   4.716   1.443  0.3103  0.2536 -0.1474
  696THF     C313138   3.244   4.527   1.345 -0.8089 -0.2085 -0.0732
  696THF     H413139   3.043   4.696   1.481  1.8976 -1.5760  3.5109
  696THF     H513140   3.149   4.825   1.438 -0.8917  0.7365  4.3969
  696THF     H613141   3.162   4.456   1.355 -2.2387  1.3458 -0.3274
  696THF     H713142   3.318   4.494   1.272  1.7657  2.2871  1.2030
  696THF     C813143   3.324   4.566   1.474 -0.1382 -0.1616 -0.0471
  696THF     C913144   3.242   4.674   1.542 -0.4739 -0.2510  0.3843
  696THF    H1013145   3.420   4.600   1.435 -0.6872  0.7530 -0.6685
  696THF    H1113146   3.340   4.488   1.547 -2.2999  0.3663  1.0889
  696THF    H1213147   3.190   4.637   1.630 -0.1249  0.0188  0.7064
  696THF    H1313148   3.302   4.761   1.568  1.2122 -1.5497  1.0227
  697THF     O113149   0.321   5.006   0.337 -0.2822 -0.1819 -0.2969
  697THF     C213150   0.221   4.977   0.242 -0.4066 -0.3367 -0.2248
  697THF     C313151   0.422   5.089   0.278 -0.4265  0.2584 -0.5038
  697THF     H413152   0.129   4.956   0.297  0.4451  0.5087  1.6079
  697THF     H513153   0.254   4.881   0.202  1.8814 -0.0487  0.8380
  697THF     H613154   0.481   5.135   0.358 -0.2186 -1.2414  0.2566
  697THF     H713155   0.488   5.021   0.225  3.0052  2.3416  0.7165
  697THF     C813156   0.338   5.185   0.190 -0.3417  0.4090 -0.5655
  697THF     C913157   0.215   5.099   0.154 -0.4198  0.1008  0.4118
  697THF    H1013158   0.391   5.221   0.102 -0.9353  0.6975 -0.8142
  697THF    H1113159   0.307   5.266   0.256  0.4953  0.8135 -0.6664
  697THF    H1213160   0.123   5.152   0.182 -1.0304 -1.3488  1.2760
  697THF    H1313161   0.214   5.076   0.047  1.2415 -2.7810  0.9120
  698THF     O113162   0.742   4.387   3.982  0.2296 -0.0982  0.0916
  698THF     C213163   0.726   4.317   3.860 -0.3231 -0.1715  0.0924
  698THF     C313164   0.638   4.352   4.069 -0.6881 -0.0872 -0.1971
  698THF     H413165   0.770   4.218   3.863 -3.2074 -1.6483 -1.8618
  698THF     H513166   0.781   4.374   3.784  1.2905 -1.2795  0.3904
  698THF     H613167   0.688   4.273   4.126  0.6091  0.4369 -0.5529
  698THF     H713168   0.608   4.434   4.135 -0.7940 -0.1761 -0.1356
  698THF     C813169   0.524   4.281   3.988 -0.2505 -0.2650  0.4689
  698THF     C913170   0.573   4.314   3.844 -0.4505  0.5501 -0.0047
  698THF    H1013171   0.420   4.312   3.999 -1.0576 -3.1450  1.9237
  698THF    H1113172   0.519   4.174   4.005  0.7196 -0.1281  1.7936
  698THF    H1213173   0.537   4.251   3.762 -1.3785  1.7378 -0.5425
  698THF    H1313174   0.529   4.410   3.817 -0.7624  0.8440  1.5040
  699THF     O113175   1.410   4.484   0.970  0.3923  0.4943 -0.3377
  699THF     C213176   1.455   4.616   0.964  0.1988  0.5027  0.9164
  699THF     C313177   1.437   4.432   1.099 -0.1678 -0.4089  0.0027
  699THF     H413178   1.368   4.680   0.976 -1.0851 -1.1383  0.7684
  699THF     H513179   1.488   4.627   0.860 -1.5842 -0.1698  0.2396
  699THF     H613180   1.344   4.393   1.139  0.2324 -1.7997 -0.3697
  699THF     H713181   1.521   4.362   1.094  0.2882  0.1436 -0.3961
  699THF     C813182   1.483   4.551   1.183  0.5225  0.0898 -0.0453
  699THF     C913183   1.546   4.646   1.083 -0.2851 -0.4742  0.7034
  699THF    H1013184   1.563   4.533   1.255  0.2770  2.4407  0.9005
  699THF    H1113185   1.411   4.606   1.244  1.2201 -2.0629  2.9338
  699THF    H1213186   1.557   4.752   1.106  2.9873 -0.2207 -1.3770
  699THF    H1313187   1.651   4.626   1.064 -0.0566 -1.4635  2.7436
  700THF     O113188   0.696   3.300   1.387 -0.0532 -0.1597 -0.5475
  700THF     C213189   0.771   3.207   1.313 -0.2627 -1.1461  0.2411
  700THF     C313190   0.762   3.322   1.513  0.3983 -0.2191  0.1002
  700THF     H413191   0.868   3.242   1.280 -1.0688  0.9971 -0.0216
  700THF     H513192   0.726   3.168   1.222 -0.5617 -3.3321  1.2664
  700THF     H613193   0.817   3.415   1.520  3.3777 -1.8448 -0.1117
  700THF     H713194   0.682   3.343   1.585  0.6583  0.4664  0.1943
  700THF     C813195   0.840   3.198   1.531 -0.1184  0.4366  0.5305
  700THF     C913196   0.793   3.104   1.417 -1.1157 -0.2780  0.0090
  700THF    H1013197   0.829   3.158   1.632 -1.0974 -1.8665 -0.4155
  700THF    H1113198   0.945   3.222   1.514 -0.1762 -1.3608 -3.1842
  700THF    H1213199   0.873   3.035   1.391  0.5187  1.9352 -1.1893
  700THF    H1313200   0.706   3.045   1.446  0.0697 -2.9701 -1.5444
  701THF     O113201   2.966   0.300   2.550 -0.2937 -0.3912 -0.3692
  701THF     C213202   3.056   0.279   2.432  0.0797 -0.3212 -0.6865
  701THF     C313203   2.868   0.396   2.524 -0.1144 -0.6628  0.1980
  701THF     H413204   3.028   0.184   2.386 -1.5592  0.6331 -1.7689
  701THF     H513205   3.162   0.280   2.458 -0.2071 -0.1132  0.5627
  701THF     H613206   2.787   0.353   2.465 -1.1489  1.7867 -0.3090
  701THF     H713207   2.829   0.446   2.613 -2.1944  1.0309 -1.5355
  701THF     C813208   2.945   0.480   2.420  1.0180 -0.0503 -1.2428
  701THF     C913209   3.020   0.385   2.336  0.0376 -0.5574 -0.6887
  701THF    H1013210   3.013   0.551   2.468 -1.1980  0.0488  2.0482
  701THF    H1113211   2.879   0.543   2.360  0.0407 -0.6766 -0.8542
  701THF    H1213212   2.966   0.348   2.249  0.6871  1.9816 -2.3123
  701THF    H1313213   3.111   0.437   2.304  0.7334 -0.7466  0.8929
  702THF     O113214   2.674   4.525   0.618  0.2200  0.4598  0.0530
  702THF     C213215   2.634   4.654   0.665 -0.1332 -0.0061 -0.1087
  702THF     C313216   2.800   4.493   0.679  0.2465  0.3682 -0.1588
  702THF     H413217   2.583   4.651   0.761  0.8665 -2.1515  0.4265
  702THF     H513218   2.574   4.704   0.589  0.8955 -0.0398 -0.9677
  702THF     H613219   2.793   4.465   0.785  0.5952  0.6117 -0.0684
  702THF     H713220   2.840   4.405   0.629 -1.7098 -0.2514 -0.6820
  702THF     C813221   2.880   4.621   0.664  0.2003  0.5696  0.2843
  702THF     C913222   2.770   4.731   0.685  0.8052 -0.3811 -0.2780
  702THF    H1013223   2.918   4.620   0.561 -1.1910 -0.3091 -0.2477
  702THF    H1113224   2.969   4.642   0.723  0.3867 -0.3254  0.3430
  702THF    H1213225   2.776   4.784   0.780 -1.4191 -1.5633  0.5862
  702THF    H1313226   2.770   4.812   0.612 -4.1521  0.8026  0.6789
  703THF     O113227   2.350   5.170   2.648  0.3483 -0.1019 -0.0827
  703THF     C213228   2.351   5.026   2.632  0.0946  0.4424 -0.1386
  703THF     C313229   2.476   5.225   2.603  0.5126 -0.6679  0.2885
  703THF     H413230   2.283   4.976   2.563  0.6389 -0.9481  0.3040
  703THF     H513231   2.320   4.986   2.729  0.7544 -0.1316 -0.1627
  703THF     H613232   2.475   5.231   2.494  0.3292 -3.2473  0.1020
  703THF     H713233   2.492   5.329   2.633  0.8986 -0.6948  0.1728
  703THF     C813234   2.571   5.121   2.632 -0.1461 -0.3423 -0.7602
  703THF     C913235   2.496   4.993   2.611  0.2371  0.1361 -0.2764
  703THF    H1013236   2.610   5.123   2.734 -0.3432  0.2411 -0.6935
  703THF    H1113237   2.662   5.129   2.573 -0.2959 -0.4714 -1.0088
  703THF    H1213238   2.505   4.964   2.506 -1.8361  0.0753 -0.4913
  703THF    H1313239   2.526   4.912   2.677 -1.2180 -0.7681 -0.6673
  704THF     O113240   0.716   5.010   5.354  0.3338  0.1968  0.1557
  704THF     C213241   0.810   5.114   5.373  0.0936 -0.4280  0.0257
  704THF     C313242   0.587   5.063   5.333 -0.1171 -0.1098 -0.2955
  704THF     H413243   0.893   5.079   5.312 -0.5246 -3.1209  0.6111
  704THF     H513244   0.841   5.115   5.478 -1.3338  0.4131  0.4723
  704THF     H613245   0.526   4.990   5.280  0.2513 -0.7911  0.2099
  704THF     H713246   0.550   5.090   5.432 -1.5638 -0.1057 -0.8108
  704THF     C813247   0.609   5.199   5.262 -0.3280  0.2555  0.2161
  704THF     C913248   0.737   5.249   5.329 -0.3291 -0.1990  0.1763
  704THF    H1013249   0.524   5.267   5.259  0.2307  0.9344 -0.9144
  704THF    H1113250   0.633   5.174   5.158 -1.1342 -1.8738  0.4947
  704THF    H1213251   0.805   5.298   5.259 -0.9010  1.6522  0.8585
  704THF    H1313252   0.725   5.323   5.409 -1.4348  0.8325 -0.9089
  705THF     O113253   0.821   2.814   4.026 -0.3143 -0.2853  0.0015
  705THF     C213254   0.879   2.828   4.155  0.0799 -0.0042 -0.0211
  705THF     C313255   0.919   2.847   3.929  0.1008  0.3749 -0.5288
  705THF     H413256   0.951   2.748   4.175 -1.5175 -1.5462 -0.1697
  705THF     H513257   0.798   2.834   4.228 -2.3659  0.2739 -2.5868
  705THF     H613258   0.990   2.768   3.905  0.5849  0.9978 -1.1880
  705THF     H713259   0.860   2.871   3.840 -0.9322  0.4246  0.1567
  705THF     C813260   0.995   2.967   3.988 -0.5188  0.1480 -0.1174
  705THF     C913261   0.957   2.967   4.137 -0.4777  0.4362 -0.1323
  705THF    H1013262   0.971   3.061   3.936 -0.0127  0.2594 -0.1473
  705THF    H1113263   1.102   2.950   3.987 -0.2772  1.3303  1.5853
  705THF    H1213264   1.050   2.964   4.193 -0.3702  0.1447 -0.3271
  705THF    H1313265   0.885   3.042   4.171 -1.5891 -1.0851  1.0816
  706THF     O113266   0.920   2.308   2.030  0.2649 -0.5795  0.0937
  706THF     C213267   1.047   2.310   2.096 -0.2227  0.0484 -0.2621
  706THF     C313268   0.881   2.450   2.027  0.0670 -0.2026 -1.1347
  706THF     H413269   1.111   2.224   2.079 -0.4960 -0.3178  0.4988
  706THF     H513270   1.034   2.302   2.204 -1.2972  1.7927 -0.2139
  706THF     H613271   0.801   2.478   1.958  2.0535  1.7002 -2.8247
  706THF     H713272   0.855   2.475   2.130 -0.1749  0.6472 -1.3951
  706THF     C813273   1.008   2.516   1.988 -0.2491 -0.2622 -0.5742
  706THF     C913274   1.108   2.446   2.064 -0.8262 -0.0174 -0.0928
  706THF    H1013275   0.998   2.623   2.008  0.7311 -0.1977 -0.3746
  706THF    H1113276   1.034   2.508   1.882  0.4754  1.0845 -0.5229
  706THF    H1213277   1.205   2.440   2.014 -0.6450 -1.6584  0.3883
  706THF    H1313278   1.119   2.503   2.156  2.0136  1.9502 -1.4845
  707THF     O113279   3.486   3.939   1.327 -1.1546  0.1953 -0.3475
  707THF     C213280   3.394   3.902   1.423  0.2122  0.1239 -0.3702
  707THF     C313281   3.418   3.942   1.198 -0.0983  0.0675  0.2239
  707THF     H413282   3.317   3.974   1.451 -1.6433 -2.2853  1.1175
  707THF     H513283   3.447   3.888   1.518 -0.5536  0.2997  0.0921
  707THF     H613284   3.381   4.042   1.175  0.2102  0.0568 -0.3336
  707THF     H713285   3.487   3.911   1.119 -0.5166 -2.0507  0.6332
  707THF     C813286   3.303   3.838   1.211 -0.0450 -0.4267 -0.7034
  707THF     C913287   3.314   3.791   1.353  0.5289 -0.3693 -0.0116
  707THF    H1013288   3.312   3.755   1.141 -1.8134 -0.8148 -0.5216
  707THF    H1113289   3.208   3.888   1.192 -0.5899 -1.3641 -0.4960
  707THF    H1213290   3.214   3.782   1.396  0.6604 -1.2287  0.1494
  707THF    H1313291   3.381   3.705   1.357  0.4546 -0.5063 -1.1599
  708THF     O113292   1.895   4.591   3.332  0.3206 -0.3625  0.7206
  708THF     C213293   1.991   4.489   3.312 -0.0088 -0.4433  0.2774
  708THF     C313294   1.897   4.625   3.469 -0.1284  0.6873  0.5151
  708THF     H413295   2.087   4.537   3.291  0.3843 -0.7781  1.2576
  708THF     H513296   1.966   4.423   3.229  2.0041  0.4269 -1.1140
  708THF     H613297   1.968   4.707   3.472  0.8774  0.0155 -2.0663
  708THF     H713298   1.798   4.652   3.506 -1.3559 -0.0317 -1.9941
  708THF     C813299   1.938   4.497   3.539  0.2642 -0.6889 -0.3736
  708THF     C913300   2.004   4.405   3.434  0.0682  0.5025 -0.1114
  708THF    H1013301   1.859   4.445   3.593  0.6409  0.1682  1.0735
  708THF    H1113302   2.002   4.524   3.624  0.2066 -0.3972 -0.4232
  708THF    H1213303   2.106   4.381   3.464 -0.5622 -2.2942  0.0582
  708THF    H1313304   1.955   4.308   3.425 -0.4013  0.9066 -2.5368
  709THF     O113305   3.882   4.146   5.040 -0.0100 -0.1970 -0.2625
  709THF     C213306   3.850   4.251   5.130  0.0607  0.0442 -0.6214
  709THF     C313307   3.888   4.190   4.911 -0.5814  0.0745  0.4359
  709THF     H413308   3.941   4.304   5.158 -0.0230 -0.4862  0.7000
  709THF     H513309   3.801   4.211   5.219  0.3795 -1.4564 -1.0791
  709THF     H613310   3.987   4.230   4.892 -0.8935  1.0015  0.6971
  709THF     H713311   3.888   4.100   4.848  0.3322 -0.4027  1.1014
  709THF     C813312   3.774   4.289   4.903 -0.4942  0.3727 -0.5152
  709THF     C913313   3.748   4.335   5.048 -0.5596 -0.0363  0.1055
  709THF    H1013314   3.695   4.242   4.844 -0.5503  0.0870 -0.2143
  709THF    H1113315   3.802   4.374   4.841  1.2245 -0.2279 -0.6134
  709THF    H1213316   3.761   4.441   5.070 -0.2037 -0.0223 -0.1624
  709THF    H1313317   3.646   4.304   5.070 -0.6761 -1.4201 -2.1051
  710THF     O113318   3.640   0.152   4.464 -0.1974 -0.1912  0.3538
  710THF     C213319   3.753   0.188   4.380 -0.4235  0.2122 -0.2684
  710THF     C313320   3.524   0.198   4.391 -0.1277 -0.2307 -0.0638
  710THF     H413321   3.767   0.107   4.308 -3.7344 -1.7616  1.0614
  710THF     H513322   3.839   0.205   4.445 -0.3232 -0.9092 -0.0765
  710THF     H613323   3.468   0.115   4.349 -0.7859 -0.3404  0.9781
  710THF     H713324   3.462   0.254   4.462 -1.1165 -0.2166 -0.9083
  710THF     C813325   3.576   0.289   4.274 -0.1857  0.2654  0.0871
  710THF     C913326   3.722   0.314   4.311  0.2641 -0.6686  0.8077
  710THF    H1013327   3.516   0.377   4.252 -0.7923 -0.6879 -2.4005
  710THF    H1113328   3.583   0.232   4.181 -1.2621 -0.0095  0.1623
  710THF    H1213329   3.785   0.315   4.222 -1.2464 -2.2431 -0.3430
  710THF    H1313330   3.730   0.402   4.376 -0.1429  0.1503 -0.2164
  711THF     O113331   2.844   3.140   3.056  0.2260  0.1469  0.0042
  711THF     C213332   2.778   3.150   2.931 -0.1749 -0.4488  0.6289
  711THF     C313333   2.882   3.001   3.070  0.5095  0.1868  0.1969
  711THF     H413334   2.842   3.153   2.842 -0.7432  1.8318  0.2305
  711THF     H513335   2.723   3.244   2.927 -0.4739 -0.4198  3.5885
  711THF     H613336   2.967   2.984   3.004  0.7807  2.0449  0.0127
  711THF     H713337   2.917   2.974   3.170  2.1529  0.4163 -0.3000
  711THF     C813338   2.753   2.929   3.030  0.2059 -0.0559  0.1620
  711THF     C913339   2.690   3.024   2.927  0.0424  0.6734  0.1961
  711THF    H1013340   2.682   2.911   3.110  0.4403 -1.3816  0.1024
  711THF    H1113341   2.747   2.830   2.985 -0.3136  0.2820 -0.5114
  711THF    H1213342   2.683   2.973   2.831  0.2060  0.0887  0.4919
  711THF    H1313343   2.587   3.050   2.952  0.2607  1.1496  0.6206
  712THF     O113344   3.092   4.407   3.563 -0.3593  0.1295 -0.3002
  712THF     C213345   3.075   4.495   3.460  0.1211  0.2784 -0.2173
  712THF     C313346   2.967   4.349   3.595 -0.3458  0.0034 -0.1308
  712THF     H413347   3.163   4.506   3.397  1.0061 -1.0942  0.7204
  712THF     H513348   3.062   4.597   3.495 -0.6130  0.9945 -2.4188
  712THF     H613349   2.987   4.257   3.649 -0.6692 -0.1290 -0.2352
  712THF     H713350   2.918   4.418   3.665 -0.0939  0.7682 -0.6926
  712THF     C813351   2.877   4.348   3.469 -0.5614 -0.4400  0.6730
  712THF     C913352   2.935   4.465   3.394 -0.0282 -0.5779  0.3576
  712THF    H1013353   2.773   4.368   3.493  0.2093  1.2256  2.9722
  712THF    H1113354   2.887   4.257   3.411 -0.0947  0.0888 -0.1007
  712THF    H1213355   2.929   4.474   3.286 -1.1189 -0.3500  0.4274
  712THF    H1313356   2.868   4.547   3.421  0.2008 -0.1493 -0.3549
  713THF     O113357   3.125   4.144   0.932 -0.1073  0.1911 -0.3274
  713THF     C213358   3.206   4.221   1.018 -0.4477  0.6489 -0.6494
  713THF     C313359   3.117   4.214   0.816  0.0017 -1.0829 -0.0000
  713THF     H413360   3.310   4.218   0.986  0.2373 -0.1257  1.4698
  713THF     H513361   3.200   4.183   1.120  1.2683  2.8694  0.3728
  713THF     H613362   3.196   4.213   0.741 -0.7762 -0.6277 -0.8444
  713THF     H713363   3.027   4.180   0.763 -0.0240  1.6272 -1.8788
  713THF     C813364   3.095   4.357   0.861 -0.8091  0.8250 -0.1950
  713THF     C913365   3.136   4.354   1.009  0.2287  0.5642  0.0773
  713THF    H1013366   2.992   4.391   0.858 -0.5208  1.6513 -1.9672
  713THF    H1113367   3.159   4.423   0.803  0.0027  0.1155 -0.1207
  713THF    H1213368   3.201   4.438   1.035  0.6151  1.2496 -2.7677
  713THF    H1313369   3.051   4.363   1.076 -0.4777  0.0497 -0.7340
  714THF     O113370   4.437   1.869   1.632 -0.1720  0.0039  0.5040
  714THF     C213371   4.348   1.765   1.635 -0.0206 -0.5477  0.1457
  714THF     C313372   4.552   1.839   1.711  0.4314 -0.5875  0.3435
  714THF     H413373   4.272   1.771   1.557  0.1661  0.3959  0.0157
  714THF     H513374   4.304   1.774   1.734 -1.6660  0.2115 -0.6094
  714THF     H613375   4.635   1.896   1.670  0.1161  0.4115  1.0454
  714THF     H713376   4.543   1.868   1.816 -1.4777  1.7568 -0.3794
  714THF     C813377   4.566   1.680   1.706  0.2249  0.4410 -0.1711
  714THF     C913378   4.435   1.641   1.631 -0.6463  0.7057 -0.6091
  714THF    H1013379   4.570   1.639   1.807 -0.3137 -0.3255 -0.4593
  714THF    H1113380   4.659   1.647   1.660  0.8877 -0.6588  1.8546
  714THF    H1213381   4.458   1.614   1.528 -1.5306  1.4372 -1.0178
  714THF    H1313382   4.388   1.556   1.681 -0.0715  0.8547  0.2001
  715THF     O113383   0.310   5.130   3.243  0.0019  0.0456  0.0885
  715THF     C213384   0.397   5.015   3.226  0.0479 -0.2602  0.4516
  715THF     C313385   0.368   5.222   3.334  0.4636 -0.2339 -0.2866
  715THF     H413386   0.439   5.019   3.126 -0.8298  0.6618  0.0999
  715THF     H513387   0.352   4.916   3.232  0.2880 -0.5045 -1.2489
  715THF     H613388   0.361   5.328   3.311  2.1798 -0.2200 -0.9072
  715THF     H713389   0.318   5.221   3.431  1.5345  0.3812  0.2967
  715THF     C813390   0.511   5.180   3.356  0.0116  0.2478 -0.2164
  715THF     C913391   0.499   5.031   3.339  0.1881  0.9393  0.5313
  715THF    H1013392   0.546   5.216   3.453 -0.2800 -0.2862  0.0888
  715THF    H1113393   0.576   5.221   3.278 -0.1901  1.6863  0.3325
  715THF    H1213394   0.593   4.984   3.312 -1.3840 -0.5749 -3.0007
  715THF    H1313395   0.465   4.997   3.437  0.5626 -0.1562  0.2956
  716THF     O113396   5.418   1.867   4.371  0.5500 -0.3983 -0.8038
  716THF     C213397   5.418   1.761   4.464  0.5169  0.0184 -0.1419
  716THF     C313398   5.290   1.905   4.327  0.4021  0.0211 -0.1097
  716THF     H413399   5.430   1.800   4.565 -1.6339 -0.8248  0.4910
  716THF     H513400   5.493   1.685   4.446 -0.1159 -0.3907 -1.1496
  716THF     H613401   5.273   2.012   4.344 -2.2200 -0.2028 -0.8152
  716THF     H713402   5.270   1.880   4.222  0.0465 -0.9213  0.1724
  716THF     C813403   5.188   1.826   4.401  0.2301 -0.0506 -1.1567
  716THF     C913404   5.274   1.705   4.439  0.2100  0.2110 -0.0812
  716THF    H1013405   5.107   1.793   4.335 -1.9530 -0.7029  1.6671
  716THF    H1113406   5.158   1.884   4.488  1.2200 -0.3363 -0.6113
  716THF    H1213407   5.246   1.651   4.529 -0.1814 -2.6396 -1.7926
  716THF    H1313408   5.269   1.633   4.357  0.1769 -1.1153  1.0492
  717THF     O113409   4.251   0.711   0.664  0.2437  0.0495 -0.1195
  717THF     C213410   4.292   0.818   0.747 -0.0884  0.4090 -0.3316
  717THF     C313411   4.159   0.749   0.563  0.3138 -0.2404  0.5551
  717THF     H413412   4.398   0.817   0.769  0.0998  2.5038 -0.9504
  717THF     H513413   4.227   0.809   0.834 -0.3774  3.2146 -0.1731
  717THF     H613414   4.212   0.735   0.469  0.5954 -1.4424  0.8785
  717THF     H713415   4.070   0.688   0.558  0.3667 -0.2614 -0.2739
  717THF     C813416   4.132   0.898   0.592 -0.2159  0.6253 -0.5089
  717THF     C913417   4.256   0.942   0.667 -0.6220 -0.4647 -0.3738
  717THF    H1013418   4.037   0.906   0.644 -0.6455  1.7169 -1.4214
  717THF    H1113419   4.109   0.959   0.504 -2.2591  0.1711 -0.3369
  717THF    H1213420   4.347   0.954   0.609  0.0472 -0.5822  0.6335
  717THF    H1313421   4.245   1.032   0.728 -0.1548 -0.4268 -0.3455
  718THF     O113422   4.128   0.281   2.834  0.1597 -0.2082 -0.0122
  718THF     C213423   4.249   0.328   2.786  0.3520  0.7258  0.6811
  718THF     C313424   4.097   0.322   2.964 -0.0672 -1.0061  0.0758
  718THF     H413425   4.242   0.424   2.736  0.7059  0.2325 -0.3600
  718THF     H513426   4.293   0.254   2.718 -0.1480  2.6511 -1.9103
  718THF     H613427   4.008   0.376   2.995  1.1114  0.1065  1.7104
  718THF     H713428   4.093   0.227   3.017  1.6099 -0.2669  1.6442
  718THF     C813429   4.224   0.392   3.015  1.0458  0.2809 -0.1608
  718THF     C913430   4.324   0.341   2.920 -0.5060  0.7445  0.1157
  718THF    H1013431   4.234   0.363   3.120 -1.3599  1.8554  0.5769
  718THF    H1113432   4.225   0.501   3.005 -0.5167  0.2986 -0.3102
  718THF    H1213433   4.416   0.398   2.911  0.5270 -1.0947 -2.3486
  718THF    H1313434   4.352   0.242   2.957  0.5323  0.7870 -0.5332
  719THF     O113435   2.168   0.905   2.130  0.0330 -0.0741  0.0214
  719THF     C213436   2.204   0.852   2.001 -0.4701  0.5544 -0.8441
  719THF     C313437   2.166   1.047   2.110 -0.1402  0.2961  0.3176
  719THF     H413438   2.113   0.827   1.945 -1.0891 -1.5194  0.9409
  719THF     H513439   2.243   0.750   2.006  1.1311  1.2034  1.5754
  719THF     H613440   2.084   1.073   2.043 -2.2336 -0.7818  2.3261
  719THF     H713441   2.152   1.109   2.199 -0.4657  1.2123 -0.3595
  719THF     C813442   2.299   1.060   2.036 -0.4536 -0.3885 -0.6275
  719THF     C913443   2.294   0.955   1.931  0.1672 -0.2906  0.0749
  719THF    H1013444   2.384   1.058   2.103 -0.5487  0.2187 -0.4816
  719THF    H1113445   2.302   1.160   1.992 -1.9078  0.1330  0.3986
  719THF    H1213446   2.250   0.984   1.836 -2.8142 -1.5983  0.9547
  719THF    H1313447   2.391   0.911   1.907 -0.9097 -2.7028 -0.1254
  720THF     O113448   3.437   3.325   4.770  0.0378  0.0709 -0.0276
  720THF     C213449   3.335   3.425   4.772 -0.0666 -0.6592  0.5244
  720THF     C313450   3.546   3.388   4.842 -0.8500 -0.4694 -0.1392
  720THF     H413451   3.236   3.386   4.751 -0.4539  1.1792 -1.3190
  720THF     H513452   3.360   3.494   4.692 -0.1379 -0.3135  0.7996
  720THF     H613453   3.601   3.307   4.890 -0.4258  0.9491  1.8808
  720THF     H713454   3.604   3.449   4.773 -1.2682 -0.6307 -0.6502
  720THF     C813455   3.473   3.464   4.948  0.1443  0.0178 -0.6374
  720THF     C913456   3.326   3.478   4.913 -0.3752 -0.2758 -0.1897
  720THF    H1013457   3.517   3.562   4.971  1.2939 -0.7742  0.6862
  720THF    H1113458   3.485   3.414   5.044 -0.4260  0.4201 -0.3483
  720THF    H1213459   3.257   3.417   4.970 -1.0068  0.7355  0.1604
  720THF    H1313460   3.299   3.584   4.914  1.6549  0.2892  1.4003
  721THF     O113461   1.836   4.109   1.643  0.2979  0.4594 -0.6700
  721THF     C213462   1.862   4.220   1.556 -0.2265  0.4359  0.1878
  721THF     C313463   1.940   4.104   1.740 -1.3073  0.2964 -0.2077
  721THF     H413464   1.853   4.315   1.609 -1.7543 -0.1879  1.1035
  721THF     H513465   1.795   4.225   1.471  2.0187 -0.0586 -1.7207
  721THF     H613466   1.953   4.197   1.794  1.3007  0.0724 -0.3630
  721THF     H713467   1.937   4.003   1.782 -1.0988 -0.8319 -2.6958
  721THF     C813468   2.059   4.109   1.638 -0.0279 -0.2573  0.9575
  721THF     C913469   2.001   4.184   1.515 -0.1609 -0.2755 -0.4401
  721THF    H1013470   2.092   4.011   1.602 -1.5220 -0.0234 -1.2569
  721THF    H1113471   2.143   4.161   1.684 -0.3702  2.2119 -1.0080
  721THF    H1213472   2.050   4.273   1.475 -4.2352  0.7544 -3.9454
  721THF    H1313473   1.995   4.109   1.436  1.0179  0.1847 -0.9732
  722THF     O113474   5.185   1.365   3.916 -0.2210 -0.2915 -0.2317
  722THF     C213475   5.113   1.480   3.885  0.0263 -0.6572 -0.4277
  722THF     C313476   5.304   1.398   3.992  0.0012  0.7021 -0.1920
  722THF     H413477   5.026   1.499   3.948  0.3682  0.0056 -0.1430
  722THF     H513478   5.070   1.473   3.785  1.1428 -4.4889 -0.7859
  722THF     H613479   5.291   1.390   4.100 -0.9666  0.4598 -0.3145
  722THF     H713480   5.374   1.321   3.959 -0.1831 -0.2787  1.6131
  722THF     C813481   5.344   1.531   3.930 -0.6403 -0.3269  0.2739
  722THF     C913482   5.213   1.596   3.906  0.1682 -0.5158 -0.2804
  722THF    H1013483   5.396   1.509   3.837  1.4234  3.0428  0.4506
  722THF    H1113484   5.407   1.581   4.003 -1.4428 -0.5837  1.1646
  722THF    H1213485   5.187   1.663   3.988 -1.0402  0.8447 -1.7159
  722THF    H1313486   5.210   1.654   3.813 -1.9822 -0.8029 -0.4557
  723THF     O113487   2.733   4.847   5.135  0.0824  0.6782 -0.1026
  723THF     C213488   2.754   4.762   5.242 -0.3950 -0.4000 -0.2218
  723THF     C313489   2.847   4.918   5.103  0.0703 -0.6770  0.0868
  723THF     H413490   2.727   4.662   5.207  0.5374 -0.0635 -2.0469
  723THF     H513491   2.696   4.788   5.330  0.2217 -2.1921  0.7787
  723THF     H613492   2.858   4.933   4.996  0.8692 -0.7023  0.1595
  723THF     H713493   2.849   5.017   5.148  0.5113  0.0489 -1.4566
  723THF     C813494   2.963   4.821   5.146  0.2481 -0.0335 -0.0612
  723THF     C913495   2.907   4.767   5.273 -0.1581  0.4933 -0.0734
  723THF    H1013496   3.061   4.866   5.160 -1.0939  2.3586  2.4742
  723THF    H1113497   2.977   4.749   5.065 -1.6406 -0.2150 -0.2511
  723THF    H1213498   2.938   4.666   5.301  1.6586  0.6401 -1.4299
  723THF    H1313499   2.936   4.833   5.354  0.4942  0.9266 -0.6509
  724THF     O113500   0.062   5.485   4.412 -0.3713 -0.0420 -0.0631
  724THF     C213501   0.159   5.487   4.307 -0.3730 -0.2415 -0.1146
  724THF     C313502  -0.062   5.529   4.367 -0.0106  0.1211 -0.5344
  724THF     H413503   0.165   5.381   4.286  1.3220  0.0845 -1.5124
  724THF     H513504   0.259   5.520   4.335 -0.7010 -0.4042  1.3208
  724THF     H613505  -0.114   5.442   4.327  0.2069 -0.9942  1.4797
  724THF     H713506  -0.125   5.570   4.446 -0.3281  1.5921 -1.5107
  724THF     C813507  -0.026   5.635   4.270  0.3561 -0.0772 -0.2379
  724THF     C913508   0.095   5.574   4.203 -0.0904 -0.2748 -0.0443
  724THF    H1013509  -0.017   5.729   4.325 -0.5004 -1.0548  1.6396
  724THF    H1113510  -0.104   5.647   4.194 -0.6262  1.4867  0.9698
  724THF    H1213511   0.053   5.506   4.128 -0.8929 -0.7714  0.8237
  724THF    H1313512   0.162   5.652   4.166 -0.0559 -0.9025 -1.3687
  725THF     O113513   0.363   3.248   4.155 -0.4098  0.4883  0.5278
  725THF     C213514   0.268   3.149   4.104 -0.5779  0.2705  0.1075
  725THF     C313515   0.321   3.299   4.272  0.8256 -0.1668 -0.4393
  725THF     H413516   0.306   3.057   4.149 -0.4941  0.3444  0.1877
  725THF     H513517   0.262   3.128   3.997 -0.3533 -0.4640  0.2293
  725THF     H613518   0.341   3.229   4.353 -1.4776  0.7128  0.9874
  725THF     H713519   0.357   3.399   4.299 -0.9541 -0.3472  3.2726
  725THF     C813520   0.172   3.305   4.246  0.2659 -0.1325  0.0513
  725THF     C913521   0.133   3.185   4.168 -0.6225 -0.3543  0.6628
  725THF    H1013522   0.141   3.400   4.203  0.3580  0.2980  0.9143
  725THF    H1113523   0.135   3.307   4.349  0.1915  0.8015  0.0159
  725THF    H1213524   0.101   3.108   4.238 -1.1195 -0.6005  0.1732
  725THF    H1313525   0.051   3.218   4.104  1.0503  2.4469 -0.2262
  726THF     O113526   1.949   5.173   1.774  0.0741 -0.0661  0.1857
  726THF     C213527   1.930   5.046   1.829 -0.9473 -0.5383 -0.1694
  726THF     C313528   1.858   5.182   1.662  0.2953  0.2047 -0.4589
  726THF     H413529   1.964   5.044   1.933 -1.5777 -1.2423  0.0357
  726THF     H513530   1.978   4.968   1.770 -1.2556 -0.4012 -0.6004
  726THF     H613531   1.833   5.288   1.651  0.1959  0.3168  0.7113
  726THF     H713532   1.896   5.144   1.567 -0.0276  0.8065 -0.8375
  726THF     C813533   1.733   5.101   1.702  0.2613  0.0152  0.1181
  726THF     C913534   1.784   5.033   1.826 -0.0575  0.0088  0.0447
  726THF    H1013535   1.709   5.026   1.626  3.3486 -0.0918 -0.8777
  726THF    H1113536   1.642   5.157   1.723 -0.4243 -0.9998 -0.0381
  726THF    H1213537   1.746   5.084   1.915  1.9053  1.3489  0.1938
  726THF    H1313538   1.756   4.928   1.833  2.7119 -0.8669 -0.8285
  727THF     O113539   0.239   0.530   3.325  0.4395 -0.7384  0.2019
  727THF     C213540   0.205   0.652   3.388  0.0855  0.2609 -0.4185
  727THF     C313541   0.283   0.570   3.188  0.5083 -0.7282  0.2409
  727THF     H413542   0.215   0.635   3.495  0.9200  0.5182 -0.4517
  727THF     H513543   0.100   0.666   3.361 -0.7468 -3.0770  0.6095
  727THF     H613544   0.374   0.510   3.176  0.4532 -0.8883  0.6212
  727THF     H713545   0.215   0.531   3.113  0.8809  0.3978 -0.7082
  727THF     C813546   0.298   0.724   3.191 -0.2000  0.0988 -0.4394
  727THF     C913547   0.294   0.757   3.335 -0.3721 -0.3647 -0.1646
  727THF    H1013548   0.211   0.767   3.139 -0.5995  0.0035  0.1439
  727THF    H1113549   0.391   0.749   3.141  0.2478  1.0179  0.8326
  727THF    H1213550   0.392   0.753   3.383  0.4485  1.8485 -1.4753
  727THF    H1313551   0.241   0.850   3.359  1.8387  0.6357  1.1195
  728THF     O113552   4.603   5.308   3.102  0.1400 -0.0300  0.2446
  728THF     C213553   4.639   5.359   3.226 -0.4529 -0.6174 -0.1691
  728THF     C313554   4.623   5.413   3.012 -0.2329 -0.4288 -1.0835
  728THF     H413555   4.748   5.358   3.229 -0.4278 -0.8654 -0.8642
  728THF     H513556   4.604   5.293   3.305 -0.0821 -0.3903  0.1906
  728THF     H613557   4.730   5.432   3.007  0.1817  0.2764  4.2968
  728THF     H713558   4.587   5.395   2.911  1.0885 -1.6762 -1.3575
  728THF     C813559   4.557   5.527   3.085 -0.2628 -0.6831 -0.0812
  728THF     C913560   4.590   5.501   3.232  0.2229  0.2252 -0.5697
  728THF    H1013561   4.448   5.526   3.077 -0.2957  1.9451 -1.1140
  728THF    H1113562   4.577   5.628   3.049  0.2355 -0.4647  0.7888
  728THF    H1213563   4.675   5.561   3.264  0.2254  0.1716 -0.4773
  728THF    H1313564   4.512   5.507   3.307  0.3050 -0.3182 -0.4340
  729THF     O113565   4.567   1.671   3.038 -0.1799 -0.6015 -0.0696
  729THF     C213566   4.690   1.653   3.095 -0.5104  0.9161  0.3195
  729THF     C313567   4.488   1.726   3.141  0.1554  0.1537  0.0273
  729THF     H413568   4.764   1.665   3.016 -0.6321 -0.7003 -0.0670
  729THF     H513569   4.708   1.559   3.145  0.5417  0.9545  0.0292
  729THF     H613570   4.390   1.751   3.100  0.3174 -1.7359 -1.6696
  729THF     H713571   4.467   1.643   3.210  0.0807  0.1695  0.0236
  729THF     C813572   4.576   1.831   3.205 -0.9093 -0.3149 -0.3763
  729THF     C913573   4.708   1.772   3.188 -0.6263  0.3482  0.9520
  729THF    H1013574   4.554   1.845   3.311  0.6722 -0.7381  0.0400
  729THF    H1113575   4.568   1.926   3.150 -1.6044 -0.0057  0.2406
  729THF    H1213576   4.763   1.840   3.123  0.3789 -0.7147  0.6525
  729THF    H1313577   4.762   1.745   3.279  0.2924  1.3516  0.7278
  730THF     O113578   5.128   2.785   3.172  0.3737 -0.4330 -0.3715
  730THF     C213579   5.051   2.815   3.284  0.0355  0.1376 -0.1392
  730THF     C313580   5.230   2.883   3.160 -0.2104 -0.1281  0.1223
  730THF     H413581   5.100   2.789   3.378 -0.7386 -2.0059 -0.2590
  730THF     H513582   4.954   2.768   3.270  0.8493 -2.8806  3.0254
  730THF     H613583   5.312   2.859   3.227  0.3322 -0.7992 -0.7730
  730THF     H713584   5.278   2.886   3.062 -1.3576  0.3264 -0.4495
  730THF     C813585   5.160   3.015   3.201 -0.7472  0.9647 -0.0562
  730THF     C913586   5.041   2.967   3.284 -0.7104  0.1175  0.9763
  730THF    H1013587   5.130   3.059   3.105  0.4058 -0.9137 -1.3500
  730THF    H1113588   5.231   3.076   3.257  1.0230 -1.5466  0.5852
  730THF    H1213589   5.062   3.010   3.382  1.1569  0.5501  0.4193
  730THF    H1313590   4.940   2.992   3.250 -0.9525 -1.3072  0.5903
  731THF     O113591   2.870   3.751   3.554  0.3787 -0.2652  0.1856
  731THF     C213592   2.865   3.845   3.446  0.1720  0.2215 -0.1482
  731THF     C313593   2.798   3.796   3.664 -0.1153  0.5673 -0.7178
  731THF     H413594   2.783   3.818   3.379 -1.4530  0.8580  1.5024
  731THF     H513595   2.957   3.838   3.388 -0.4976 -0.8921 -1.1264
  731THF     H613596   2.712   3.732   3.684  0.9816 -1.1675 -1.3853
  731THF     H713597   2.876   3.801   3.739 -0.5837  1.6049 -0.2794
  731THF     C813598   2.755   3.935   3.633  0.3622  0.3589  0.3914
  731THF     C913599   2.840   3.977   3.513  0.2072 -0.7751 -0.7738
  731THF    H1013600   2.779   3.988   3.726  3.1733 -1.9462  1.1448
  731THF    H1113601   2.649   3.933   3.610 -0.1067 -2.9772  2.1572
  731THF    H1213602   2.806   4.049   3.438  1.0416 -1.0091 -1.3967
  731THF    H1313603   2.935   4.017   3.548  0.0978  0.3019 -1.6489
  732THF     O113604   1.550   3.667   3.857  0.2416  0.8457 -0.4553
  732THF     C213605   1.621   3.793   3.880  0.3670 -0.1732 -0.4209
  732THF     C313606   1.502   3.617   3.981 -0.3087 -1.2572  0.4287
  732THF     H413607   1.642   3.838   3.783  1.0956 -0.0301 -0.1974
  732THF     H513608   1.717   3.784   3.930 -0.1349 -0.5133  0.4966
  732THF     H613609   1.426   3.543   3.959 -4.9838  3.2258 -0.3333
  732THF     H713610   1.589   3.573   4.031  1.2779  0.5939 -0.5496
  732THF     C813611   1.441   3.747   4.041 -0.2449 -0.3413 -0.0399
  732THF     C913612   1.518   3.854   3.974 -0.1044  0.5316 -0.1378
  732THF    H1013613   1.449   3.748   4.150 -0.0863  1.7611 -0.0287
  732THF    H1113614   1.334   3.748   4.022 -0.3621  0.3562  0.6168
  732THF    H1213615   1.451   3.909   3.909  0.9694  1.8826 -0.1308
  732THF    H1313616   1.542   3.934   4.044 -1.6747  2.2427 -1.4810
  733THF     O113617   2.320   4.291   3.528 -0.9888 -0.8139 -0.1275
  733THF     C213618   2.391   4.412   3.521 -0.0511  0.3267  0.1279
  733THF     C313619   2.368   4.202   3.430 -0.4296  0.1648 -0.1382
  733THF     H413620   2.475   4.413   3.590  0.1034  0.2370 -0.0583
  733THF     H513621   2.316   4.489   3.540  0.4767  1.0036 -0.4232
  733THF     H613622   2.409   4.113   3.476 -1.8561 -0.4901 -0.0752
  733THF     H713623   2.288   4.162   3.369 -0.0917  0.7632 -0.9901
  733THF     C813624   2.478   4.277   3.356  0.6122 -0.7088  0.3022
  733THF     C913625   2.440   4.419   3.378 -0.2825 -0.3439 -0.3936
  733THF    H1013626   2.492   4.254   3.251 -0.7770 -0.6069  0.0768
  733THF    H1113627   2.577   4.265   3.400  0.3357 -2.8282  0.4339
  733THF    H1213628   2.516   4.496   3.367  1.5990 -2.3489 -2.7737
  733THF    H1313629   2.362   4.448   3.308 -0.5721  1.5286  0.6276
  734THF     O113630   3.928   1.434   2.769  0.2086 -0.2991  0.4712
  734THF     C213631   3.830   1.538   2.772 -0.4309  0.6986  0.3130
  734THF     C313632   3.960   1.418   2.907  0.5308 -0.0888  0.1717
  734THF     H413633   3.761   1.497   2.698 -0.9273 -0.7848  1.5266
  734THF     H513634   3.872   1.629   2.729  0.5799  0.0620 -0.0608
  734THF     H613635   3.999   1.318   2.921 -0.4801 -0.4557  0.4209
  734THF     H713636   4.031   1.497   2.932  0.4655 -0.7545  2.7263
  734THF     C813637   3.831   1.455   2.988 -0.1965 -0.4472 -0.1759
  734THF     C913638   3.773   1.562   2.909  0.3421  0.2776 -0.1344
  734THF    H1013639   3.859   1.484   3.090  0.1469 -0.5452 -0.2431
  734THF    H1113640   3.766   1.368   2.997  0.2576 -0.7033  0.8215
  734THF    H1213641   3.665   1.561   2.922  0.2990 -1.0543 -0.4266
  734THF    H1313642   3.814   1.653   2.954 -0.9510  0.4263  0.8062
  735THF     O113643   2.689   1.701   0.356 -0.6421 -0.0583 -0.1638
  735THF     C213644   2.747   1.717   0.485  0.3170 -0.3401 -0.0150
  735THF     C313645   2.598   1.805   0.345  0.1596  0.5268 -0.3054
  735THF     H413646   2.821   1.795   0.470 -0.8667  0.6389 -1.0042
  735THF     H513647   2.806   1.635   0.525  2.2295 -1.5315 -4.6582
  735THF     H613648   2.642   1.904   0.359 -0.2201  0.5065  1.1868
  735THF     H713649   2.545   1.812   0.250  0.0902  0.3091 -0.2831
  735THF     C813650   2.513   1.785   0.477 -1.1614  0.1153 -0.3319
  735THF     C913651   2.627   1.756   0.579 -0.3210  0.0478  0.0945
  735THF    H1013652   2.453   1.696   0.462  0.4997 -0.5748 -3.9574
  735THF    H1113653   2.460   1.879   0.493 -0.5168  0.3169  0.7117
  735THF    H1213654   2.650   1.842   0.642  0.0182  0.8507 -1.0851
  735THF    H1313655   2.581   1.679   0.641 -0.0283  2.2626  3.3172
  736THF     O113656   2.327   2.663   1.883  0.1175 -0.4519 -0.1096
  736THF     C213657   2.280   2.757   1.787  0.1952  0.0292 -0.0885
  736THF     C313658   2.339   2.540   1.815  0.3261  0.0031  0.1742
  736THF     H413659   2.316   2.860   1.791 -1.1588  0.5799 -1.1588
  736THF     H513660   2.172   2.750   1.800 -0.5011 -0.1880 -4.3759
  736THF     H613661   2.412   2.485   1.875  0.7533  0.5844  0.1996
  736THF     H713662   2.248   2.479   1.818 -0.1244  0.6429 -0.2162
  736THF     C813663   2.369   2.578   1.671 -0.2105 -0.1206  0.6715
  736THF     C913664   2.314   2.714   1.644 -0.2195  0.3882  0.1498
  736THF    H1013665   2.336   2.507   1.595 -0.3231 -0.9266  1.4608
  736THF    H1113666   2.478   2.581   1.661 -0.1828  0.1113  1.0488
  736THF    H1213667   2.391   2.784   1.611  0.5737  0.1513  1.4512
  736THF    H1313668   2.226   2.716   1.579 -0.5945 -2.3275  0.4536
  737THF     O113669   4.997   4.834   3.363  0.8336 -0.0430 -0.1065
  737THF     C213670   4.989   4.966   3.412 -0.4126  0.1724  0.2751
  737THF     C313671   4.947   4.743   3.460 -0.7399  0.6611  0.7714
  737THF     H413672   4.980   5.039   3.331  1.4981 -1.9435 -1.9755
  737THF     H513673   5.079   4.992   3.468 -0.2521  1.3028 -0.4712
  737THF     H613674   4.884   4.666   3.416  0.2981  0.4362 -0.3637
  737THF     H713675   5.035   4.687   3.494 -0.0685  0.7511 -0.7393
  737THF     C813676   4.875   4.826   3.565 -0.5814  0.5054  0.4167
  737THF     C913677   4.861   4.957   3.497  0.2392 -0.2270  1.1097
  737THF    H1013678   4.941   4.847   3.649  1.7588 -0.2989 -1.0917
  737THF    H1113679   4.781   4.784   3.599 -0.4417 -2.2475 -2.1920
  737THF    H1213680   4.765   4.950   3.446  1.3342 -0.9723 -0.9759
  737THF    H1313681   4.854   5.042   3.566  0.2328 -0.4776  1.4180
  738THF     O113682   2.411   0.045   5.223 -0.1949 -0.3877  0.0127
  738THF     C213683   2.431   0.024   5.087  0.4274 -0.2089  0.1945
  738THF     C313684   2.302  -0.031   5.266  0.5352 -0.0687  0.1692
  738THF     H413685   2.536   0.049   5.067  0.8560 -0.2310  2.1664
  738THF     H513686   2.373   0.094   5.027  0.1796  0.2208  0.9214
  738THF     H613687   2.312  -0.040   5.375  0.6641  0.6918  0.2251
  738THF     H713688   2.211   0.027   5.249  0.0038 -0.1855  2.2662
  738THF     C813689   2.309  -0.161   5.186 -0.8024  0.0057 -0.6708
  738THF     C913690   2.384  -0.119   5.053  0.0200  0.0097 -0.3473
  738THF    H1013691   2.208  -0.194   5.162  0.1775 -1.9472 -2.4209
  738THF    H1113692   2.360  -0.244   5.233 -0.9796 -0.4606 -1.2991
  738THF    H1213693   2.467  -0.189   5.038 -0.3887 -0.1762 -1.9011
  738THF    H1313694   2.324  -0.125   4.962 -1.9805 -0.5177  0.9289
  739THF     O113695   1.283   2.250   3.233  0.5090  0.3404  0.0258
  739THF     C213696   1.225   2.348   3.316 -0.6736 -0.1923 -0.5535
  739THF     C313697   1.170   2.189   3.178  0.0215  0.2304  0.1351
  739THF     H413698   1.176   2.416   3.246  1.5617 -0.0643 -2.0683
  739THF     H513699   1.297   2.400   3.380 -1.7659 -1.8769  2.2180
  739THF     H613700   1.130   2.246   3.094  0.2192  0.4567  0.1958
  739THF     H713701   1.214   2.099   3.134  0.4516 -0.1703  1.3620
  739THF     C813702   1.084   2.161   3.295  0.2692  0.8252 -0.4065
  739THF     C913703   1.119   2.273   3.394  0.5565 -0.1981 -0.6964
  739THF    H1013704   1.105   2.072   3.355  2.3803  1.3504 -0.3219
  739THF    H1113705   0.977   2.162   3.272  0.2632  0.0178 -0.4515
  739THF    H1213706   1.031   2.328   3.427 -0.4670 -0.6750 -2.4684
  739THF    H1313707   1.181   2.221   3.467 -0.3125 -2.2168 -1.3256
  740THF     O113708   0.258   3.998   4.339 -0.5327 -0.5727 -0.4043
  740THF     C213709   0.204   3.886   4.405 -0.1181 -0.4436  0.1268
  740THF     C313710   0.315   3.953   4.219 -0.5239 -0.0386  0.2606
  740THF     H413711   0.105   3.915   4.440  0.8837  2.6989  0.5791
  740THF     H513712   0.261   3.863   4.495  1.5673 -0.2134 -0.8347
  740THF     H613713   0.317   4.039   4.151 -0.1807  0.2174  0.5863
  740THF     H713714   0.420   3.926   4.231 -0.7052 -0.9974 -0.2500
  740THF     C813715   0.219   3.847   4.171 -0.2173 -0.1565 -0.1482
  740THF     C913716   0.191   3.779   4.293  0.0905  0.1594 -0.5919
  740THF    H1013717   0.255   3.777   4.096 -1.4323  0.7149 -1.6016
  740THF    H1113718   0.125   3.888   4.134 -1.0637 -1.3002  0.6558
  740THF    H1213719   0.104   3.714   4.298  0.1832  0.1012  0.5348
  740THF    H1313720   0.278   3.716   4.316  0.4561  0.6991 -0.4860
  741THF     O113721   1.586   1.783   5.245 -0.2112  0.0628  0.0837
  741THF     C213722   1.603   1.791   5.390 -0.6578 -0.1047  0.9702
  741THF     C313723   1.630   1.652   5.207  0.0312 -0.2450  0.4471
  741THF     H413724   1.505   1.767   5.431 -1.6185 -1.6793 -1.9678
  741THF     H513725   1.621   1.892   5.427  0.3704 -0.5847  1.8377
  741THF     H613726   1.548   1.581   5.214 -0.4055  0.1465 -0.4410
  741THF     H713727   1.654   1.673   5.103 -1.2564  0.6783  0.3099
  741THF     C813728   1.750   1.630   5.305  0.4241  0.3333  0.1079
  741THF     C913729   1.719   1.702   5.433 -0.1916 -0.0172 -0.3249
  741THF    H1013730   1.834   1.683   5.259  0.8691 -0.7329 -0.3345
  741THF    H1113731   1.774   1.525   5.318 -2.7817 -0.5503 -0.4566
  741THF    H1213732   1.692   1.634   5.513  1.8081  1.5278  1.7927
  741THF    H1313733   1.810   1.748   5.471 -0.5441 -1.5083  2.5668
  742THF     O113734   1.163   3.780   3.440 -0.8390  0.3929  0.0261
  742THF     C213735   1.273   3.782   3.529 -0.6664 -0.6354 -0.7984
  742THF     C313736   1.197   3.703   3.328  0.1170  0.4850 -0.4056
  742THF     H413737   1.255   3.704   3.602  2.6373 -0.5493  0.2639
  742THF     H513738   1.281   3.875   3.585  0.0218 -0.2972 -1.4352
  742THF     H613739   1.184   3.596   3.347  2.5446  0.1385 -0.3810
  742THF     H713740   1.139   3.737   3.243 -0.7251  1.3884  0.4969
  742THF     C813741   1.345   3.720   3.311 -0.4071 -0.4710 -0.2553
  742THF     C913742   1.403   3.752   3.450 -0.2273 -0.3165  0.4678
  742THF    H1013743   1.369   3.808   3.252  0.0374 -0.0422  0.5537
  742THF    H1113744   1.400   3.635   3.271  1.3457  0.4895  0.0355
  742THF    H1213745   1.460   3.672   3.498 -0.4749  0.2335  1.7364
  742THF    H1313746   1.477   3.833   3.449 -0.8281  0.2350  0.1557
  743THF     O113747   0.139   2.443   5.467 -0.4393 -0.6887  0.6701
  743THF     C213748   0.008   2.482   5.513 -0.7206 -0.1388  0.6924
  743THF     C313749   0.241   2.466   5.561 -0.0863 -0.3320  0.0194
  743THF     H413750  -0.071   2.410   5.490  0.6753 -1.5213  0.0276
  743THF     H513751  -0.008   2.581   5.471  0.2359 -0.1539  0.2630
  743THF     H613752   0.282   2.371   5.596  2.0819 -0.0723 -1.6195
  743THF     H713753   0.321   2.522   5.514 -0.2086 -0.4060 -0.2753
  743THF     C813754   0.171   2.536   5.673  0.0674  0.0523  0.9598
  743THF     C913755   0.031   2.488   5.671 -0.2455  0.2846 -0.0920
  743THF    H1013756   0.179   2.641   5.646  1.3287 -0.2109  0.2472
  743THF    H1113757   0.226   2.533   5.767 -0.6154  0.3312  1.3741
  743THF    H1213758   0.020   2.391   5.719 -0.2210  0.7278  0.8214
  743THF    H1313759  -0.041   2.548   5.727 -0.8482  0.0379 -0.6004
  744THF     O113760   5.283   5.387   2.042 -0.4779 -0.7709  0.3326
  744THF     C213761   5.309   5.426   1.905  0.2341 -0.3963 -0.3234
  744THF     C313762   5.385   5.299   2.080  0.6275  0.3397  0.0277
  744THF     H413763   5.268   5.525   1.883 -0.5585 -1.3599 -3.8394
  744THF     H513764   5.251   5.361   1.840  0.2867  0.1425 -0.9257
  744THF     H613765   5.403   5.279   2.186 -2.0056  0.5615  0.5928
  744THF     H713766   5.357   5.197   2.054  0.4762  1.0974 -3.2737
  744THF     C813767   5.511   5.331   2.001  0.4216 -0.7561 -0.1577
  744THF     C913768   5.461   5.425   1.892  0.2037  0.0749  0.9295
  744THF    H1013769   5.560   5.240   1.966  1.2367 -0.9515  1.3984
  744THF    H1113770   5.583   5.371   2.072  0.2137 -1.3415  0.3814
  744THF    H1213771   5.511   5.522   1.888  1.1686 -0.4521 -0.4044
  744THF    H1313772   5.480   5.393   1.790 -0.7986  2.9424 -0.2222
  745THF     O113773   5.111   5.230   0.889 -0.1496  0.6014 -0.0764
  745THF     C213774   5.165   5.273   1.018  0.7346  0.2387  0.7830
  745THF     C313775   5.126   5.090   0.890 -1.0409  1.0963  0.7000
  745THF     H413776   5.096   5.252   1.100 -0.3239 -0.6567 -0.2979
  745THF     H513777   5.189   5.379   1.011 -0.0143  0.3405 -0.4446
  745THF     H613778   5.066   5.033   0.961 -1.9304  2.8351  1.4154
  745THF     H713779   5.102   5.046   0.793 -0.1676  0.1363  0.9003
  745THF     C813780   5.266   5.078   0.925 -0.4456 -0.4230 -0.1698
  745THF     C913781   5.285   5.187   1.028  0.0599 -0.1923 -0.6516
  745THF    H1013782   5.324   5.095   0.834  3.1828 -3.4590  1.3250
  745THF    H1113783   5.302   4.986   0.970 -0.7195 -0.5083 -0.1209
  745THF    H1213784   5.292   5.150   1.130  0.1023 -0.0232 -0.5918
  745THF    H1313785   5.378   5.238   1.002  1.1563 -2.1729 -0.7396
  746THF     O113786   0.147   4.552   3.648 -0.7855  0.1822 -0.4487
  746THF     C213787   0.200   4.652   3.735 -0.7007 -0.3544 -0.2048
  746THF     C313788   0.105   4.442   3.725  0.1293  0.8412  0.3588
  746THF     H413789   0.140   4.741   3.758 -0.6732 -0.5801  0.7807
  746THF     H513790   0.284   4.697   3.683 -1.1000 -1.2095 -1.6714
  746THF     H613791   0.009   4.461   3.772 -0.1221 -1.4694  0.8842
  746THF     H713792   0.101   4.349   3.669  2.0374  0.1526  1.3010
  746THF     C813793   0.205   4.434   3.839 -0.1722  0.1663 -0.7710
  746THF     C913794   0.233   4.579   3.863 -0.3273 -0.5150  0.6370
  746THF    H1013795   0.297   4.390   3.801  0.1939  0.6878 -0.4985
  746THF    H1113796   0.165   4.374   3.921  1.1297  1.2990  0.7393
  746THF    H1213797   0.168   4.616   3.943 -0.5424  0.8147 -0.1216
  746THF    H1313798   0.332   4.600   3.904 -1.3695  0.4633  2.8439
  747THF     O113799   3.595   5.297   3.436 -1.2949 -0.2996  0.0374
  747THF     C213800   3.580   5.252   3.569 -0.0115 -0.3154 -0.4701
  747THF     C313801   3.545   5.210   3.339  0.3752  0.1379  0.4143
  747THF     H413802   3.533   5.337   3.618  1.3494  1.7752 -2.5754
  747THF     H513803   3.672   5.246   3.626 -0.6340 -0.5793  0.5385
  747THF     H613804   3.446   5.247   3.314  1.0122  0.4451 -1.8289
  747THF     H713805   3.606   5.198   3.250 -0.0666 -1.1283  0.2664
  747THF     C813806   3.534   5.078   3.414  0.1228  0.0597  0.6802
  747THF     C913807   3.498   5.120   3.552  0.3221 -0.8085 -0.0577
  747THF    H1013808   3.630   5.026   3.413  0.5463  0.8244  1.0057
  747THF    H1113809   3.463   5.008   3.370  1.2693 -0.5389 -0.2684
  747THF    H1213810   3.396   5.157   3.560  1.1750  2.2520 -1.6383
  747THF    H1313811   3.531   5.053   3.632  1.5104  1.2184  1.2478
  748THF     O113812   2.176   0.818   4.952  0.0761  0.4997  0.3346
  748THF     C213813   2.262   0.760   4.845 -0.1378 -0.1646 -0.7604
  748THF     C313814   2.071   0.727   4.993  0.2062 -0.7426 -0.7576
  748THF     H413815   2.367   0.751   4.871 -0.2373  3.0518  1.3347
  748THF     H513816   2.256   0.827   4.759  1.6644 -0.7062 -1.3410
  748THF     H613817   2.109   0.667   5.076  0.1077  2.0602  1.5013
  748THF     H713818   2.008   0.795   5.050  2.7569 -0.2208  1.6741
  748THF     C813819   2.045   0.646   4.869 -0.1813 -0.5783 -0.2540
  748THF     C913820   2.187   0.627   4.820 -0.8612  0.2257  0.0927
  748THF    H1013821   2.001   0.703   4.788  0.7886  0.0099 -0.3859
  748THF    H1113822   1.997   0.549   4.883  1.3911 -1.1718  1.6125
  748THF    H1213823   2.239   0.550   4.877  0.2424  0.6092 -0.3542
  748THF    H1313824   2.192   0.584   4.720 -0.2304 -0.1836  0.2906
  749THF     O113825   4.398   3.755   3.006 -0.3288  0.2396  0.2045
  749THF     C213826   4.420   3.889   2.982 -0.3113  0.2367  0.0306
  749THF     C313827   4.463   3.679   2.904 -0.7158 -0.1900 -0.2920
  749THF     H413828   4.496   3.917   3.054 -0.6310 -2.3976  1.4827
  749THF     H513829   4.330   3.948   3.001 -0.2802 -0.0038  0.9251
  749THF     H613830   4.567   3.666   2.934 -0.4241 -0.6803 -1.4502
  749THF     H713831   4.413   3.583   2.915  2.1178 -1.8753 -0.8839
  749THF     C813832   4.441   3.768   2.780  0.5811  0.0883 -0.8492
  749THF     C913833   4.460   3.900   2.835  0.4029  0.2131 -0.6691
  749THF    H1013834   4.342   3.757   2.737  0.5842 -0.2649 -0.7619
  749THF    H1113835   4.512   3.731   2.706 -0.3844 -0.0525 -1.7277
  749THF    H1213836   4.568   3.912   2.833  0.3769  0.4718 -2.4760
  749THF    H1313837   4.409   3.985   2.789 -0.7976  0.4710  1.0304
  750THF     O113838   1.851   0.544   2.350  0.3276 -0.2305 -0.1511
  750THF     C213839   1.928   0.636   2.277  0.0749  0.4789  0.4110
  750THF     C313840   1.793   0.610   2.463 -0.1938 -0.1705  0.0892
  750THF     H413841   1.876   0.717   2.228  0.5765  0.1260 -0.7444
  750THF     H513842   2.000   0.591   2.208 -0.4507  0.3150 -0.0411
  750THF     H613843   1.704   0.660   2.424  1.1398  0.0155 -2.9525
  750THF     H713844   1.763   0.539   2.540 -1.4729 -0.9931 -1.1416
  750THF     C813845   1.901   0.707   2.504 -0.0299  0.4623  0.3294
  750THF     C913846   2.002   0.701   2.391 -0.6397  0.2843 -0.1209
  750THF    H1013847   1.946   0.662   2.592  0.8134 -2.7024 -1.5395
  750THF    H1113848   1.867   0.810   2.518 -1.7159  0.2180 -1.5073
  750THF    H1213849   2.046   0.798   2.369 -1.5835  0.4659 -1.3649
  750THF    H1313850   2.092   0.647   2.421  0.9185  1.2289 -2.7607
  751THF     O113851   1.476   0.737   2.098 -0.7961 -0.5031  0.4523
  751THF     C213852   1.369   0.759   2.007  0.0287 -0.8169 -0.2320
  751THF     C313853   1.479   0.834   2.206  0.1363  0.3809  0.3894
  751THF     H413854   1.284   0.695   2.030 -0.1079 -0.5946 -0.1163
  751THF     H513855   1.403   0.743   1.905 -0.4738 -0.5022 -0.4517
  751THF     H613856   1.442   0.782   2.294 -0.7533 -1.0839 -0.7852
  751THF     H713857   1.585   0.856   2.208  0.3724 -0.6867  2.7017
  751THF     C813858   1.379   0.943   2.168  0.3642  0.2002 -0.6079
  751THF     C913859   1.352   0.912   2.019 -0.5084  0.1609 -0.2449
  751THF    H1013860   1.408   1.048   2.178 -1.2031  0.5630  0.4175
  751THF    H1113861   1.290   0.926   2.229  0.3689  0.2338 -0.5917
  751THF    H1213862   1.258   0.949   1.978  1.1066  2.0948 -2.4385
  751THF    H1313863   1.435   0.964   1.971  0.8027  1.2824  3.0083
  752THF     O113864   4.918   0.385   2.499 -0.0836  0.4125 -0.2394
  752THF     C213865   5.058   0.407   2.473 -0.0119 -0.2192 -0.8480
  752THF     C313866   4.880   0.470   2.610 -0.0309  0.0466 -0.3563
  752THF     H413867   5.075   0.375   2.370 -0.6514 -1.7401 -0.5028
  752THF     H513868   5.113   0.349   2.547  2.5066  0.6591 -1.8963
  752THF     H613869   4.796   0.523   2.565  0.5124  1.6009  0.3951
  752THF     H713870   4.841   0.416   2.696 -1.9749 -0.4696 -1.5128
  752THF     C813871   4.998   0.567   2.630 -0.4624 -0.7621  0.8168
  752THF     C913872   5.083   0.551   2.500  0.0969 -0.4018 -0.0958
  752THF    H1013873   5.063   0.536   2.712  1.0704  0.6132  0.1926
  752THF    H1113874   4.973   0.671   2.649  1.9322 -0.4526  2.9103
  752THF    H1213875   5.046   0.607   2.414 -1.0288 -0.9249  0.0323
  752THF    H1313876   5.190   0.561   2.514 -0.3502  2.5369  2.3729
  753THF     O113877   3.041   0.612   5.407  0.3886  0.0541  0.0318
  753THF     C213878   3.022   0.477   5.393  0.0962  0.3676  0.3346
  753THF     C313879   2.927   0.675   5.467  0.3408  0.1494 -1.0104
  753THF     H413880   3.116   0.422   5.393  0.3480  0.7872 -0.2480
  753THF     H513881   2.963   0.457   5.303  0.5322 -2.6511  0.6193
  753THF     H613882   2.975   0.758   5.519  0.3678 -1.6761  2.1266
  753THF     H713883   2.860   0.704   5.387 -1.9413  0.7133  0.9735
  753THF     C813884   2.864   0.567   5.554  0.1760  0.4116 -0.1078
  753THF     C913885   2.927   0.436   5.509 -0.3658 -0.0413  0.3811
  753THF    H1013886   2.756   0.569   5.539  0.3060 -1.5117 -1.6087
  753THF    H1113887   2.882   0.576   5.661  1.8129 -0.4459 -0.2772
  753THF    H1213888   2.967   0.400   5.603  1.0822  1.4459  0.3712
  753THF    H1313889   2.849   0.371   5.467 -0.5002  1.5332 -1.9764
  754THF     O113890   4.928   1.653   0.226  0.0539 -0.2993 -0.5031
  754THF     C213891   4.944   1.511   0.239  0.1326  0.0317 -0.4033
  754THF     C313892   5.042   1.708   0.294  0.2782  0.2811  0.3764
  754THF     H413893   4.932   1.454   0.146 -1.3807  0.4326 -0.4726
  754THF     H513894   4.871   1.472   0.310  0.9073 -0.1962  0.2880
  754THF     H613895   5.108   1.753   0.220  0.0714  0.8333  0.5269
  754THF     H713896   5.017   1.790   0.361  0.7986  0.4795  0.3308
  754THF     C813897   5.095   1.602   0.387  0.0873  0.1392 -0.0816
  754THF     C913898   5.077   1.478   0.301  0.2710 -0.0932 -0.1381
  754THF    H1013899   5.030   1.603   0.474  0.2508  0.7033  0.0348
  754THF    H1113900   5.198   1.624   0.414  0.2213 -0.8446  0.2631
  754THF    H1213901   5.164   1.473   0.235 -1.0280  1.0082 -1.9922
  754THF    H1313902   5.067   1.386   0.359 -3.1217  0.2746  0.0127
  755THF     O113903   5.240   0.034   1.494  0.2550  0.1114 -0.2304
  755THF     C213904   5.116  -0.042   1.502 -0.5100 -0.4854 -0.1373
  755THF     C313905   5.341  -0.063   1.490 -0.4478  0.2006 -0.7062
  755THF     H413906   5.033   0.023   1.476 -0.2598  0.2392  0.8059
  755THF     H513907   5.090  -0.080   1.601 -1.5399 -0.6371 -0.4573
  755THF     H613908   5.434  -0.023   1.451  0.1644 -0.9527 -0.4919
  755THF     H713909   5.368  -0.103   1.588  3.0591 -0.0386 -1.6368
  755THF     C813910   5.272  -0.185   1.412 -0.3368 -0.6441 -0.8127
  755THF     C913911   5.129  -0.148   1.401  0.4981  0.1101 -0.7597
  755THF    H1013912   5.281  -0.286   1.453 -2.0184 -0.2328  0.7192
  755THF    H1113913   5.321  -0.188   1.315 -0.7300 -3.1966 -1.0085
  755THF    H1213914   5.110  -0.113   1.299 -0.2295 -3.5493 -2.0351
  755THF    H1313915   5.056  -0.229   1.408 -1.3070  1.6511 -0.6724
  756THF     O113916   1.525   4.512   2.440  0.3304  0.2190  0.3413
  756THF     C213917   1.622   4.507   2.539 -0.5457 -0.3916 -0.6496
  756THF     C313918   1.438   4.621   2.467 -0.0581 -0.3248 -0.3261
  756THF     H413919   1.721   4.474   2.507  0.0096  2.5317 -2.3569
  756THF     H513920   1.580   4.447   2.619 -2.0661  0.5216 -0.7334
  756THF     H613921   1.386   4.652   2.376  0.0051  0.3998 -0.1196
  756THF     H713922   1.360   4.597   2.538 -0.9257  1.0572 -0.7735
  756THF     C813923   1.525   4.729   2.514 -0.7585 -0.5189  0.3243
  756THF     C913924   1.632   4.651   2.580  0.4039 -0.0201 -0.1171
  756THF    H1013925   1.465   4.798   2.573 -1.4490 -1.0060  0.2027
  756THF    H1113926   1.567   4.776   2.425 -0.0140 -1.4606  0.1511
  756THF    H1213927   1.730   4.697   2.565  0.7578 -0.5189  0.6042
  756THF    H1313928   1.617   4.638   2.687 -0.0574  0.3613 -0.1336
  757THF     O113929   5.206   1.681   4.963 -0.4494 -0.0079 -0.5000
  757THF     C213930   5.181   1.599   4.858 -0.3765 -0.1592  0.3567
  757THF     C313931   5.083   1.692   5.032 -0.7478  0.4242  0.0679
  757THF     H413932   5.201   1.496   4.888  0.1851 -0.6974 -1.6664
  757THF     H513933   5.247   1.623   4.774 -1.1243 -0.2904 -0.2795
  757THF     H613934   5.064   1.594   5.074  0.9343 -0.6815 -1.5586
  757THF     H713935   5.095   1.773   5.104 -0.9858  0.5758 -0.0605
  757THF     C813936   4.983   1.716   4.920 -0.2303  0.0393 -0.1383
  757THF     C913937   5.029   1.617   4.816 -0.0936  0.7967 -0.3456
  757THF    H1013938   4.998   1.815   4.878 -0.6555 -0.8868 -2.6301
  757THF    H1113939   4.878   1.711   4.952 -0.6778 -0.3030 -1.5776
  757THF    H1213940   4.965   1.531   4.832 -0.2635  0.8585 -0.6715
  757THF    H1313941   5.017   1.656   4.714 -1.1699  0.3649 -0.4058
  758THF     O113942   3.267   0.661   4.094 -0.2182  0.0142 -0.4849
  758THF     C213943   3.303   0.671   3.955  0.1016 -0.2928 -0.1418
  758THF     C313944   3.122   0.640   4.111 -0.5068 -0.1737 -0.2324
  758THF     H413945   3.334   0.573   3.921 -1.7173 -1.1824  0.6368
  758THF     H513946   3.370   0.756   3.939 -1.0999  1.2953  2.4795
  758THF     H613947   3.090   0.559   4.176 -0.3038  0.4645  0.6781
  758THF     H713948   3.086   0.729   4.163 -1.2169 -0.5807 -0.0163
  758THF     C813949   3.065   0.640   3.969  0.7549  0.1734  0.5702
  758THF     C913950   3.174   0.699   3.878  0.2327 -0.0237 -0.1067
  758THF    H1013951   2.962   0.675   3.967  0.8648  0.6991 -2.8531
  758THF    H1113952   3.045   0.540   3.931  0.5428  0.0725  0.9449
  758THF    H1213953   3.168   0.654   3.779 -0.8737  1.2594 -0.6698
  758THF    H1313954   3.160   0.807   3.871  0.2823  0.0152  0.3654
  759THF     O113955   5.377   5.024   3.501  0.2079  0.0503  0.5656
  759THF     C213956   5.320   5.013   3.632  0.4475  0.5881  0.0881
  759THF     C313957   5.507   5.070   3.520  0.4569  0.4962 -0.5414
  759THF     H413958   5.233   4.949   3.613 -0.9852  1.9076  1.8093
  759THF     H513959   5.286   5.113   3.659 -1.1586  0.6595 -1.8726
  759THF     H613960   5.571   5.057   3.433 -0.5821  1.0641 -1.4145
  759THF     H713961   5.505   5.178   3.537  1.4018  0.9563 -3.0678
  759THF     C813962   5.557   4.984   3.633 -0.2912 -0.3579  0.2476
  759THF     C913963   5.437   4.951   3.717 -0.1811  0.0302  0.7920
  759THF    H1013964   5.627   5.038   3.696  0.1642  0.6736 -1.1031
  759THF    H1113965   5.604   4.900   3.583 -0.2647 -0.4834  0.4846
  759THF    H1213966   5.427   4.842   3.712  0.2125  0.0329 -0.8663
  759THF    H1313967   5.437   4.982   3.821  0.2852  0.2292  0.7393
  760THF     O113968   0.609   0.820   5.231 -0.4772  0.4768 -0.3225
  760THF     C213969   0.494   0.855   5.154  0.2221  0.2129 -0.2391
  760THF     C313970   0.573   0.719   5.323 -0.4051  0.7048 -0.3437
  760THF     H413971   0.513   0.816   5.054 -0.6012  1.2125 -0.8121
  760THF     H513972   0.468   0.961   5.148 -0.9529 -0.0099  0.5048
  760THF     H613973   0.648   0.642   5.337 -1.3765 -0.3373 -0.7231
  760THF     H713974   0.557   0.765   5.421 -0.8286 -0.2944  0.0646
  760THF     C813975   0.438   0.664   5.275  0.6260 -0.3399  0.2393
  760THF     C913976   0.370   0.791   5.217  0.3918  0.3068 -0.9331
  760THF    H1013977   0.383   0.624   5.360  0.4002 -0.0454  0.2348
  760THF    H1113978   0.450   0.585   5.202 -2.8405 -1.0281  0.2386
  760THF    H1213979   0.292   0.765   5.145  0.4297 -0.4144 -0.7288
  760THF    H1313980   0.330   0.854   5.297 -0.1770 -1.0747 -0.0898
  761THF     O113981   1.654   5.468   0.055  0.3044  0.0380 -0.8081
  761THF     C213982   1.767   5.419   0.136 -0.2047 -0.9710 -0.3481
  761THF     C313983   1.695   5.594   0.012  0.2198  0.2835  0.1558
  761THF     H413984   1.765   5.311   0.146 -0.2444 -0.7833  2.3809
  761THF     H513985   1.759   5.465   0.234  3.6711  0.8534 -0.6847
  761THF     H613986   1.643   5.638  -0.073  1.0144  0.9624  0.0105
  761THF     H713987   1.691   5.662   0.097 -0.5673 -1.1985  1.3711
  761THF     C813988   1.839   5.570  -0.033 -0.2509  0.0301 -0.1770
  761THF     C913989   1.893   5.476   0.068 -0.1412  0.5550 -0.1242
  761THF    H1013990   1.903   5.659  -0.039 -0.0803 -0.1913 -2.4993
  761THF    H1113991   1.847   5.523  -0.131  0.9705 -0.6857  0.2420
  761THF    H1213992   1.960   5.398   0.033  1.4513  1.2099  1.3026
  761THF    H1313993   1.953   5.517   0.149 -0.3622  0.7825 -0.0762
  762THF     O113994   1.157   4.848   4.678  0.0349  0.4856 -0.2035
  762THF     C213995   1.255   4.908   4.594  0.0529  0.7622 -0.0543
  762THF     C313996   1.031   4.829   4.623 -0.2173  0.1184 -0.0134
  762THF     H413997   1.327   4.844   4.543  0.2569  0.6155  0.4180
  762THF     H513998   1.314   4.971   4.659  1.0676 -2.2030  2.1188
  762THF     H613999   1.036   4.739   4.562 -0.0592 -0.7830  1.2967
  762THF     H714000   0.960   4.809   4.702  1.3190 -1.5191  1.0184
  762THF     C814001   1.022   4.953   4.529  0.7269  0.1970  0.1886
  762THF     C914002   1.167   4.974   4.481 -0.5054  0.7087 -0.2302
  762THF    H1014003   0.974   5.041   4.572  0.8403  0.5070 -0.3117
  762THF    H1114004   0.939   4.933   4.460 -0.4824  2.4538  0.8919
  762THF    H1214005   1.187   4.921   4.387  0.8402  0.3335  0.2471
  762THF    H1314006   1.179   5.081   4.461 -3.3386  1.4591  1.4675
  763THF     O114007   0.964   3.122   0.369  0.6207 -0.4547  0.1346
  763THF     C214008   0.893   3.141   0.248  0.2637  0.2042 -0.5805
  763THF     C314009   0.873   3.161   0.473  0.1826 -0.5374  0.8320
  763THF     H414010   0.828   3.054   0.235  0.9544 -0.3160 -0.6196
  763THF     H514011   0.956   3.143   0.159  0.1855  1.5004 -0.6262
  763THF     H614012   0.809   3.075   0.491 -1.4479  0.5310  0.3106
  763THF     H714013   0.926   3.187   0.565  0.6988  1.1532  0.0938
  763THF     C814014   0.807   3.283   0.417 -0.9853  0.4140  0.2880
  763THF     C914015   0.811   3.266   0.272  0.0102 -0.3120  0.5517
  763THF    H1014016   0.855   3.374   0.454  1.8482 -0.4130 -1.0781
  763THF    H1114017   0.703   3.287   0.449 -0.3596 -1.1346  2.8380
  763THF    H1214018   0.715   3.252   0.222  0.9134 -0.6141 -1.1707
  763THF    H1314019   0.863   3.353   0.234 -1.6790 -0.7399 -3.2122
  764THF     O114020   3.316   3.255   2.585  0.1050 -0.1932 -0.0990
  764THF     C214021   3.308   3.390   2.562 -0.6874 -0.5507  0.8066
  764THF     C314022   3.307   3.191   2.460  0.5879 -0.3146  0.6750
  764THF     H414023   3.338   3.447   2.649  0.3604 -1.4322  1.0504
  764THF     H514024   3.204   3.415   2.543  0.0176  1.0977 -1.1597
  764THF     H614025   3.360   3.095   2.454 -0.5287 -1.1481  2.8936
  764THF     H714026   3.200   3.172   2.449  0.5309  0.6872 -0.6984
  764THF     C814027   3.361   3.289   2.360 -0.1310  0.0098 -0.4035
  764THF     C914028   3.387   3.415   2.433  0.7931  0.3828  0.2316
  764THF    H1014029   3.276   3.298   2.292 -1.0321 -2.9169  0.2098
  764THF    H1114030   3.444   3.245   2.305  0.1080  2.9763 -2.7166
  764THF    H1214031   3.494   3.426   2.451  0.8262  3.4111 -1.0409
  764THF    H1314032   3.343   3.494   2.370  3.0706 -0.2224 -2.2981
  765THF     O114033   1.337   2.231   5.203  0.3285  0.9707 -0.2338
  765THF     C214034   1.441   2.176   5.278 -0.2362  0.0574 -0.6718
  765THF     C314035   1.291   2.124   5.121 -0.1801  0.6059 -0.1591
  765THF     H414036   1.415   2.107   5.358 -0.9172  0.3866 -0.6018
  765THF     H514037   1.495   2.255   5.329  0.4806  0.2559 -1.6994
  765THF     H614038   1.217   2.069   5.179  0.3575  1.2906  1.2199
  765THF     H714039   1.234   2.147   5.031 -2.8413  0.1285  1.2955
  765THF     C814040   1.419   2.033   5.101  0.2896 -0.1955  0.3778
  765THF     C914041   1.528   2.095   5.183 -0.1865 -0.6645 -0.0386
  765THF    H1014042   1.449   2.015   4.998 -0.7875  0.0956 -0.0044
  765THF    H1114043   1.395   1.939   5.150 -2.8119 -0.0767 -0.7145
  765THF    H1214044   1.588   2.026   5.243  0.0806  1.6049  2.5458
  765THF    H1314045   1.592   2.159   5.122  1.6374 -0.1232  2.2809
  766THF     O114046   0.646   1.377   4.990 -0.0189 -0.5431  0.0435
  766THF     C214047   0.574   1.265   4.931 -0.8400 -0.5917 -0.0837
  766THF     C314048   0.555   1.446   5.079  0.5737  0.1381  0.4420
  766THF     H414049   0.652   1.204   4.886  0.4021  0.4591  0.5849
  766THF     H514050   0.505   1.310   4.860 -0.4676 -2.9456 -2.0799
  766THF     H614051   0.612   1.505   5.152  2.0595  0.7811 -1.1719
  766THF     H714052   0.497   1.514   5.016  1.3503 -1.0209 -1.6054
  766THF     C814053   0.472   1.334   5.132  0.1532  0.3589  0.2106
  766THF     C914054   0.489   1.214   5.043  0.4847  0.0118  0.4021
  766THF    H1014055   0.366   1.362   5.134  0.2046  0.5712  2.0558
  766THF    H1114056   0.498   1.304   5.233 -0.4774 -0.8769  0.0274
  766THF    H1214057   0.559   1.148   5.095  1.8882  2.1017  1.3003
  766THF    H1314058   0.391   1.172   5.022  1.2617 -1.1733 -1.0443
  767THF     O114059   3.780   5.462   2.663  0.3155  0.1533  0.4692
  767THF     C214060   3.800   5.482   2.524  0.2453 -0.0850 -0.5716
  767THF     C314061   3.827   5.332   2.687 -0.0320  0.1981  0.7285
  767THF     H414062   3.903   5.504   2.494 -0.3070  0.9317 -1.8121
  767THF     H514063   3.733   5.562   2.495 -0.2887 -0.6995 -1.0497
  767THF     H614064   3.936   5.330   2.680 -0.0594  2.2720 -1.4704
  767THF     H714065   3.790   5.299   2.784 -1.6769  1.1395  0.4550
  767THF     C814066   3.768   5.251   2.569 -0.5447 -0.0876 -0.5351
  767THF     C914067   3.743   5.353   2.461 -0.2994  0.6443 -0.1800
  767THF    H1014068   3.671   5.220   2.606 -0.1418 -0.4427  0.2435
  767THF    H1114069   3.826   5.164   2.540 -0.9865 -0.2252 -1.0202
  767THF    H1214070   3.789   5.323   2.367 -1.3016 -0.5540 -0.3152
  767THF    H1314071   3.638   5.362   2.431 -0.5975 -2.8165 -0.5972
  768THF     O114072   0.409   4.512   0.475 -0.5590  0.4221 -0.1806
  768THF     C214073   0.283   4.497   0.426  0.2557  0.5509 -0.5237
  768THF     C314074   0.499   4.543   0.371 -0.6232 -0.6744  0.6068
  768THF     H414075   0.211   4.490   0.508  0.2743  1.5831 -0.4122
  768THF     H514076   0.266   4.409   0.363 -0.7492 -0.3762  0.9610
  768THF     H614077   0.588   4.595   0.407 -1.4814  0.5356  1.0392
  768THF     H714078   0.523   4.451   0.317 -0.5377 -0.6859  0.6637
  768THF     C814079   0.416   4.637   0.287  0.8704 -0.3770 -0.1550
  768THF     C914080   0.273   4.625   0.346 -0.7935  0.0259 -0.3743
  768THF    H1014081   0.426   4.608   0.182  2.2470  2.8224 -1.0404
  768THF    H1114082   0.457   4.738   0.291 -1.3398  0.5521  0.3199
  768THF    H1214083   0.256   4.716   0.404  2.9846  0.4653  0.2937
  768THF    H1314084   0.198   4.625   0.267 -0.3934  0.0458 -0.7572
  769THF     O114085   3.380   4.308   4.566 -0.3028  0.0189  0.0853
  769THF     C214086   3.368   4.443   4.518  0.3180 -0.4673 -0.2277
  769THF     C314087   3.516   4.290   4.611  0.6284  0.1296  0.1164
  769THF     H414088   3.264   4.470   4.535  0.7617  0.3634  1.2804
  769THF     H514089   3.393   4.441   4.412 -1.0582 -0.0167 -0.5853
  769THF     H614090   3.521   4.200   4.672  0.4845  1.1954  1.7711
  769THF     H714091   3.587   4.286   4.529  0.9623 -1.1583  0.4367
  769THF     C814092   3.540   4.413   4.693 -0.1360 -0.2707 -0.4368
  769THF     C914093   3.457   4.521   4.613 -0.8613 -0.0156 -0.3698
  769THF    H1014094   3.648   4.427   4.695 -0.0883 -0.6994  1.3700
  769THF    H1114095   3.493   4.405   4.791  0.1420 -1.3930 -0.3850
  769THF    H1214096   3.401   4.589   4.677  1.3635 -0.4351  2.1979
  769THF    H1314097   3.523   4.585   4.553 -1.1013 -1.4742 -2.2832
  770THF     O114098   2.645   3.461   3.385  0.0079 -0.4479 -0.8279
  770THF     C214099   2.679   3.438   3.522  0.2993  0.2362 -0.4174
  770THF     C314100   2.682   3.348   3.300  0.1076  0.1871  0.0711
  770THF     H414101   2.607   3.379   3.579  0.3307 -0.8936 -1.5206
  770THF     H514102   2.685   3.527   3.584 -0.2483  0.8716 -1.2605
  770THF     H614103   2.595   3.289   3.271  0.1786  0.0328  0.1696
  770THF     H714104   2.722   3.382   3.205  1.2110 -0.5018  0.2729
  770THF     C814105   2.779   3.267   3.390 -0.2663 -0.4751  0.5184
  770THF     C914106   2.801   3.356   3.515  0.8291 -0.3633 -0.1511
  770THF    H1014107   2.878   3.267   3.344 -0.1009  1.0222  0.8350
  770THF    H1114108   2.744   3.168   3.417  0.5054 -0.4972  1.4714
  770THF    H1214109   2.814   3.296   3.605 -1.0823  0.0570  0.4646
  770THF    H1314110   2.890   3.418   3.509  0.6225 -0.0581 -0.1070
  771THF     O114111   4.837   2.655   4.287  0.0601  0.6772  0.4060
  771THF     C214112   4.800   2.792   4.326 -0.5128  0.5518 -0.1073
  771THF     C314113   4.714   2.582   4.288  0.0857  0.1520 -0.0003
  771THF     H414114   4.778   2.855   4.240  2.5278  3.2733  0.8926
  771THF     H514115   4.890   2.839   4.367 -1.2834  1.1556  0.9421
  771THF     H614116   4.667   2.587   4.190  0.8918  0.9286 -0.3691
  771THF     H714117   4.735   2.476   4.298 -3.8465 -0.7704 -0.0614
  771THF     C814118   4.626   2.639   4.401  0.4104 -0.1701  0.1236
  771THF     C914119   4.681   2.776   4.420 -0.1052  0.1074 -0.7862
  771THF    H1014120   4.636   2.581   4.493  0.5299  1.7691  1.3872
  771THF    H1114121   4.526   2.649   4.357  0.8797 -0.8933 -1.1639
  771THF    H1214122   4.609   2.853   4.392  0.7486  1.9651  1.7627
  771THF    H1314123   4.695   2.802   4.525  0.5295  1.0202 -1.0816
  772THF     O114124   0.526   2.427   3.090  0.3196 -0.2103  0.5357
  772THF     C214125   0.581   2.435   2.955 -0.0549 -0.0796  0.0419
  772THF     C314126   0.386   2.407   3.090  0.1846  0.0271  0.9814
  772THF     H414127   0.603   2.340   2.907 -2.6206 -0.5561 -0.3436
  772THF     H514128   0.672   2.495   2.955 -0.6613  0.9713 -2.3969
  772THF     H614129   0.365   2.302   3.109  0.5405  0.1347  2.0119
  772THF     H714130   0.338   2.471   3.164 -1.6627 -1.8596  1.5151
  772THF     C814131   0.344   2.450   2.950  0.0913 -0.1434 -0.0169
  772THF     C914132   0.469   2.514   2.894 -0.2388  0.7761  1.0043
  772THF    H1014133   0.257   2.516   2.942 -0.2152 -0.4513  0.7060
  772THF    H1114134   0.303   2.360   2.904 -2.4006  0.3292  1.0920
  772THF    H1214135   0.480   2.505   2.785 -2.2783  0.2280  0.7875
  772THF    H1314136   0.479   2.618   2.924 -0.2097  2.5210 -4.0548
  773THF     O114137   4.683   2.088   4.884  0.3177  0.7647  0.6039
  773THF     C214138   4.702   2.206   4.968  0.5813  0.0066  0.1399
  773THF     C314139   4.748   1.982   4.943 -1.2028  0.0369 -0.0674
  773THF     H414140   4.637   2.207   5.056 -1.2430 -1.2444 -1.1344
  773THF     H514141   4.681   2.298   4.913  1.9273  0.4771  0.3775
  773THF     H614142   4.687   1.962   5.031 -0.9465 -0.4249  0.0049
  773THF     H714143   4.743   1.901   4.870 -1.1061  1.2914 -1.5222
  773THF     C814144   4.880   2.050   4.985 -0.6003 -0.6251  0.4469
  773THF     C914145   4.850   2.197   5.003 -1.3996  0.1339  0.4013
  773THF    H1014146   4.959   2.030   4.913 -0.8680  0.2460 -0.1088
  773THF    H1114147   4.920   2.013   5.079 -1.2093 -0.2282  0.8745
  773THF    H1214148   4.858   2.227   5.107 -2.1838  1.5568  0.0715
  773THF    H1314149   4.911   2.250   4.930  0.4294 -1.4273  0.7022
  774THF     O114150   3.783   0.140   0.653  0.4432  0.4267  0.1125
  774THF     C214151   3.825   0.222   0.763  0.3011 -0.0110 -0.1219
  774THF     C314152   3.665   0.194   0.597 -0.1434 -0.1288 -0.0911
  774THF     H414153   3.863   0.312   0.715 -1.2750  0.4888 -0.5157
  774THF     H514154   3.894   0.180   0.836  0.7100  0.8907  0.0209
  774THF     H614155   3.684   0.259   0.512 -1.3842  0.9553  0.4161
  774THF     H714156   3.605   0.116   0.551 -2.5820  1.1518  0.7280
  774THF     C814157   3.587   0.250   0.715 -0.4214  0.1410 -0.2383
  774THF     C914158   3.690   0.245   0.831 -0.3143 -0.7153  0.3945
  774THF    H1014159   3.500   0.195   0.750  1.3219 -2.2855  0.5662
  774THF    H1114160   3.568   0.356   0.699 -1.3987 -0.0141 -0.1469
  774THF    H1214161   3.686   0.326   0.904  2.1761  0.1184 -0.3142
  774THF    H1314162   3.675   0.161   0.900  1.5015 -0.3661  1.2635
  775THF     O114163   3.288   1.042   0.072  0.9300 -0.0810  0.2744
  775THF     C214164   3.257   0.909   0.113 -1.2190  0.0948 -0.5119
  775THF     C314165   3.290   1.047  -0.069 -0.3624 -0.7472  0.5597
  775THF     H414166   3.150   0.907   0.092 -1.0941  0.7882 -1.2767
  775THF     H514167   3.265   0.897   0.221 -4.0028  4.1618  0.3879
  775THF     H614168   3.194   1.050  -0.119 -0.0917 -1.2154  0.0068
  775THF     H714169   3.340   1.140  -0.095 -0.5509 -1.0519 -0.9509
  775THF     C814170   3.363   0.914  -0.105  0.5445  0.2200  0.0994
  775THF     C914171   3.338   0.819   0.018 -0.2948  0.6157 -0.1012
  775THF    H1014172   3.470   0.927  -0.118  0.2528  0.4205 -2.5738
  775THF    H1114173   3.328   0.880  -0.202 -1.6854  0.4130  0.7701
  775THF    H1214174   3.280   0.728   0.004 -1.2957  1.3113 -0.6366
  775THF    H1314175   3.437   0.797   0.057  0.1713  2.7893  0.1018
  776THF     O114176   5.360   2.780   0.784 -0.1704  0.4136 -0.3485
  776THF     C214177   5.462   2.871   0.759  0.3780  0.7433  0.0299
  776THF     C314178   5.234   2.821   0.743 -0.6699 -0.1645  0.6175
  776THF     H414179   5.498   2.858   0.656 -1.7416 -2.8007 -0.4359
  776THF     H514180   5.553   2.856   0.817  0.4406 -0.8255 -0.4098
  776THF     H614181   5.227   2.799   0.637 -2.3570 -1.0703  0.8637
  776THF     H714182   5.160   2.753   0.788 -2.1908 -1.2893 -3.2083
  776THF     C814183   5.233   2.968   0.787 -0.1333 -0.3865 -0.4350
  776THF     C914184   5.385   3.001   0.778 -1.4066 -0.1281  0.4699
  776THF    H1014185   5.190   2.985   0.886  0.3631  1.8868 -0.5563
  776THF    H1114186   5.178   3.042   0.728  0.1274  0.1811  0.0265
  776THF    H1214187   5.404   3.089   0.716 -0.9698  1.4456  2.7233
  776THF    H1314188   5.423   3.036   0.874  0.4362 -2.4018  0.6511
  777THF     O114189   0.275   0.485   4.593 -0.5017  0.6756  0.3962
  777THF     C214190   0.310   0.384   4.688 -0.5533  0.6354 -0.1339
  777THF     C314191   0.157   0.439   4.538 -0.4849  0.1424  0.4657
  777THF     H414192   0.247   0.387   4.776  0.0230  1.0825  0.2744
  777THF     H514193   0.415   0.389   4.719 -0.7330  3.3529  0.2238
  777THF     H614194   0.075   0.466   4.605  0.3227  2.2932  0.6778
  777THF     H714195   0.139   0.477   4.437  0.2412 -1.2163 -0.2018
  777THF     C814196   0.173   0.290   4.518 -0.3895 -0.5147 -0.2618
  777THF     C914197   0.296   0.258   4.606  0.0936  0.3345  0.1733
  777THF    H1014198   0.197   0.253   4.419  2.0900 -2.2988  0.9081
  777THF    H1114199   0.085   0.238   4.555 -1.4222  0.3405 -1.4389
  777THF    H1214200   0.284   0.163   4.659 -1.3178 -0.1622 -0.9629
  777THF    H1314201   0.385   0.249   4.544 -0.7382 -1.6276 -0.8267
  778THF     O114202   0.210   5.315   3.751 -0.4498 -0.0645 -0.4094
  778THF     C214203   0.345   5.300   3.743 -0.4558 -0.6485  0.6351
  778THF     C314204   0.188   5.426   3.847 -0.9200  0.6226  1.1451
  778THF     H414205   0.364   5.254   3.646 -0.3698  3.0909 -1.3253
  778THF     H514206   0.389   5.246   3.827  0.3968 -1.5037 -0.3416
  778THF     H614207   0.093   5.479   3.835 -0.3662  1.2910 -0.7597
  778THF     H714208   0.196   5.386   3.948  0.1096  2.5278  1.8609
  778THF     C814209   0.295   5.529   3.812  1.0836  0.0025  0.0242
  778THF     C914210   0.390   5.449   3.727  0.8969  1.0394 -0.1289
  778THF    H1014211   0.340   5.566   3.904  0.9881  1.1275 -0.3678
  778THF    H1114212   0.248   5.612   3.759 -0.8899 -1.3145 -0.4010
  778THF    H1214213   0.381   5.475   3.622 -0.2363 -0.8573 -0.5697
  778THF    H1314214   0.489   5.475   3.764  0.1898  1.6929  1.3720
  779THF     O114215   5.075   1.466   3.407 -0.2657  0.0955 -0.6244
  779THF     C214216   4.992   1.538   3.328  0.1888  0.4532 -0.4215
  779THF     C314217   5.123   1.558   3.512  0.0526  0.2328  0.0861
  779THF     H414218   4.891   1.539   3.370  0.6505 -0.9393  0.7641
  779THF     H514219   4.985   1.500   3.226  0.1640  0.5931 -0.4733
  779THF     H614220   5.043   1.588   3.580  0.1927 -1.3259  0.9923
  779THF     H714221   5.199   1.510   3.574 -1.1503 -0.1793  1.3057
  779THF     C814222   5.163   1.680   3.428 -0.3280  0.3671  0.4642
  779THF     C914223   5.056   1.679   3.325  0.3724  0.3376  0.6225
  779THF    H1014224   5.256   1.674   3.372 -1.1249 -1.2068 -0.7783
  779THF    H1114225   5.167   1.768   3.492 -0.4634 -0.9841  2.3905
  779THF    H1214226   4.986   1.761   3.336 -0.8695 -0.0099 -3.1667
  779THF    H1314227   5.093   1.707   3.226  0.1075  0.5097  0.5708
  780THF     O114228   0.586   2.889   5.370 -0.6129  0.4302 -0.1005
  780THF     C214229   0.474   2.818   5.426 -0.1833  0.4640  0.6487
  780THF     C314230   0.684   2.916   5.474 -0.3383 -0.1343 -0.7829
  780THF     H414231   0.423   2.752   5.357 -0.7659 -0.3069  1.7909
  780THF     H514232   0.409   2.886   5.482  0.8311  0.3971  1.9832
  780THF     H614233   0.781   2.885   5.435 -0.9841 -2.3860 -0.7479
  780THF     H714234   0.701   3.022   5.494 -0.6387  0.1546 -2.0137
  780THF     C814235   0.635   2.845   5.598 -0.9108 -0.2051  0.4379
  780THF     C914236   0.546   2.741   5.539  0.6341 -0.5157 -0.2435
  780THF    H1014237   0.578   2.910   5.664  1.1349 -0.4540  2.5825
  780THF    H1114238   0.723   2.803   5.648  1.4558  2.0052 -1.5232
  780THF    H1214239   0.600   2.660   5.490  1.3742  0.2671 -0.7547
  780THF    H1314240   0.471   2.698   5.605  0.9815 -0.1800  0.3847
  781THF     O114241   5.288   0.062   0.616 -0.1310  0.1625 -0.3575
  781THF     C214242   5.183   0.021   0.705 -0.3457 -0.3552 -0.0354
  781THF     C314243   5.253   0.062   0.482 -0.3087  0.5663  0.2596
  781THF     H414244   5.113   0.102   0.726 -0.2128 -0.6293  1.5679
  781THF     H514245   5.216  -0.015   0.802  1.4282  1.1881 -0.0069
  781THF     H614246   5.227   0.157   0.435 -1.4760 -0.6460 -1.6990
  781THF     H714247   5.338   0.009   0.440  0.5016  0.1463  2.3085
  781THF     C814248   5.124  -0.019   0.483 -0.3092 -0.5670  0.3196
  781THF     C914249   5.110  -0.079   0.624  0.2982 -0.4967  0.6755
  781THF    H1014250   5.123  -0.084   0.396 -0.1681 -0.8054  0.4962
  781THF    H1114251   5.041   0.050   0.470  0.7737  0.7638  0.2679
  781THF    H1214252   5.006  -0.088   0.654  0.3305 -1.5803  0.5215
  781THF    H1314253   5.156  -0.177   0.632  0.6918 -0.4128 -0.3981
  782THF     O114254   4.936   1.166   3.006 -0.0373  0.4172  0.0431
  782THF     C214255   4.891   1.240   3.116 -0.6144  0.4340 -0.2375
  782THF     C314256   4.848   1.054   2.997  0.4169 -0.0866 -0.7473
  782THF     H414257   4.830   1.327   3.088  0.6375  1.4611  0.1148
  782THF     H514258   4.972   1.292   3.167 -1.0386 -1.7412  2.9453
  782THF     H614259   4.766   1.093   2.938 -0.5878  1.1139  1.3446
  782THF     H714260   4.883   0.963   2.947 -0.4918 -1.0445  0.3211
  782THF     C814261   4.805   1.024   3.140 -0.2973  0.7223 -0.0848
  782THF     C914262   4.803   1.156   3.213  0.1148 -0.7033  0.6904
  782THF    H1014263   4.882   0.967   3.191  0.1132  2.3061  1.1379
  782THF    H1114264   4.706   0.980   3.158  0.3589 -0.5505  0.5074
  782THF    H1214265   4.701   1.194   3.217  0.5335  0.3678  3.1349
  782THF    H1314266   4.847   1.150   3.313  1.8467  0.5841  0.0425
  783THF     O114267   3.567   3.683   2.389  0.0166  0.0178  0.2024
  783THF     C214268   3.497   3.793   2.451 -0.0389  0.4382  0.7564
  783THF     C314269   3.535   3.679   2.251  0.1411  0.3603  0.3006
  783THF     H414270   3.577   3.850   2.499 -0.6516  1.9029  0.1106
  783THF     H514271   3.423   3.758   2.523 -1.4030 -1.2561 -1.3620
  783THF     H614272   3.609   3.638   2.184  0.3205 -2.1509  1.9114
  783THF     H714273   3.448   3.614   2.242  0.7756 -0.4416 -0.0649
  783THF     C814274   3.498   3.815   2.206  0.3016  0.4001 -1.0228
  783THF     C914275   3.432   3.872   2.335  0.3713  0.1675  0.2357
  783THF    H1014276   3.434   3.810   2.118 -1.0539 -0.4178 -0.0462
  783THF    H1114277   3.594   3.864   2.191  0.5765  0.3327  0.3636
  783THF    H1214278   3.449   3.980   2.343 -1.6408  0.4932  0.7695
  783THF    H1314279   3.324   3.863   2.343  0.1312  2.2193 -0.0775
  784THF     O114280   2.451   2.802   2.912  0.0526  0.1997 -0.0420
  784THF     C214281   2.341   2.813   2.995 -0.4648  0.0695  0.2543
  784THF     C314282   2.519   2.684   2.936 -0.3452 -0.0684 -0.7274
  784THF     H414283   2.276   2.899   2.981 -0.8860 -0.6103 -2.6517
  784THF     H514284   2.373   2.818   3.099 -1.9938  0.7378  0.7122
  784THF     H614285   2.588   2.654   2.858 -0.4156 -1.4435 -0.2925
  784THF     H714286   2.587   2.708   3.018 -0.6517  2.9982 -1.2687
  784THF     C814287   2.408   2.588   2.969 -0.8783  0.8562  0.0545
  784THF     C914288   2.277   2.676   2.987  0.5845 -0.0208 -0.1732
  784THF    H1014289   2.432   2.531   3.058 -0.0238 -1.4953 -1.5799
  784THF    H1114290   2.395   2.524   2.881 -4.9583  1.4343  0.0388
  784THF    H1214291   2.231   2.686   2.889  0.1041  1.5325  0.1849
  784THF    H1314292   2.210   2.650   3.069  1.7952 -3.7662 -0.1824
  785THF     O114293   1.092   2.510   4.776  0.1001 -0.2024  0.5205
  785THF     C214294   1.106   2.628   4.856  0.3519 -0.3340 -0.0043
  785THF     C314295   1.172   2.416   4.833  0.4678  0.4352 -0.1811
  785THF     H414296   1.051   2.619   4.950 -0.6205 -2.1564 -0.7091
  785THF     H514297   1.065   2.724   4.824 -0.7135 -0.4664  0.8882
  785THF     H614298   1.116   2.370   4.915 -0.4236  0.1967 -0.9087
  785THF     H714299   1.211   2.338   4.768  1.0791  0.7388 -0.1897
  785THF     C814300   1.296   2.487   4.877  0.7484  0.6294 -0.4584
  785THF     C914301   1.258   2.636   4.864 -0.4277  0.2347 -1.2117
  785THF    H1014302   1.376   2.467   4.805  1.6984 -0.0386  0.7548
  785THF    H1114303   1.341   2.459   4.972 -1.7081 -3.1909 -0.2246
  785THF    H1214304   1.291   2.698   4.947 -1.9099  1.3846 -1.4497
  785THF    H1314305   1.302   2.681   4.775  0.4913  1.6831 -0.0695
  786THF     O114306   2.230   0.074   4.492 -0.0212  0.7408 -0.1951
  786THF     C214307   2.107   0.109   4.424  0.4397  0.3548  0.4722
  786THF     C314308   2.215   0.077   4.631 -0.3312 -0.0466 -0.4868
  786THF     H414309   2.106   0.084   4.317 -0.5666 -0.4540  0.6512
  786THF     H514310   2.088   0.216   4.432 -1.3832  0.0467  0.7009
  786THF     H614311   2.295   0.026   4.685 -2.2894 -0.7845  1.9430
  786THF     H714312   2.211   0.182   4.661 -0.1783  0.4135 -2.0147
  786THF     C814313   2.081   0.000   4.643  0.0788  0.0657  0.1973
  786THF     C914314   2.010   0.024   4.505  0.1613 -0.5319 -0.3472
  786THF    H1014315   2.027   0.052   4.722 -1.0657 -3.3783  1.8627
  786THF    H1114316   2.083  -0.108   4.657 -1.5188 -0.2834 -1.8070
  786THF    H1214317   1.981  -0.068   4.454 -1.6516  0.3909 -1.0547
  786THF    H1314318   1.924   0.091   4.505  0.0241 -0.6466  1.6558
  787THF     O114319   1.159   1.817   1.864 -0.1512 -0.0151 -0.1170
  787THF     C214320   1.212   1.746   1.759 -0.0179 -0.1445  0.3404
  787THF     C314321   1.024   1.795   1.859  0.4987  0.7333  0.2688
  787THF     H414322   1.313   1.707   1.772 -1.3248 -3.5658  1.1710
  787THF     H514323   1.208   1.807   1.669 -0.2661 -1.5075 -0.5945
  787THF     H614324   0.980   1.822   1.955  1.1718  0.3797  0.6866
  787THF     H714325   0.994   1.860   1.777  0.4751  0.2370 -0.1237
  787THF     C814326   1.005   1.648   1.821  0.2517 -0.0901 -0.5029
  787THF     C914327   1.124   1.615   1.742  0.3535  0.0671  0.4517
  787THF    H1014328   0.911   1.628   1.769  0.3595  1.7564 -1.4929
  787THF    H1114329   0.997   1.581   1.906  0.6243  0.2408 -0.2060
  787THF    H1214330   1.171   1.522   1.773 -2.3001 -1.6419 -0.2703
  787THF    H1314331   1.108   1.606   1.634 -0.2102 -0.5968  0.5858
  788THF     O114332   0.491   1.614   1.283 -0.6829  0.1092  0.1188
  788THF     C214333   0.434   1.487   1.306 -0.3416  0.3454  0.1718
  788THF     C314334   0.475   1.640   1.140  0.3470 -0.2323 -0.6728
  788THF     H414335   0.434   1.459   1.412  0.2562  1.1875  0.4014
  788THF     H514336   0.482   1.407   1.250 -1.4960 -0.2243 -0.0266
  788THF     H614337   0.509   1.738   1.109 -0.4227 -0.4790 -2.4253
  788THF     H714338   0.544   1.569   1.094 -0.5256 -2.2576  0.9560
  788THF     C814339   0.323   1.620   1.127  0.1568  0.4480 -0.3356
  788THF     C914340   0.297   1.510   1.239  0.0356 -0.1228 -0.5150
  788THF    H1014341   0.281   1.597   1.029 -1.4531  2.7009 -0.2695
  788THF    H1114342   0.277   1.718   1.145 -2.9659 -1.1459  1.3316
  788THF    H1214343   0.244   1.563   1.318 -0.7481  0.1043 -1.1820
  788THF    H1314344   0.239   1.422   1.210 -0.9902  0.9381 -1.7899
  789THF     O114345   1.239   4.007   4.194  0.9501  0.5860  0.1425
  789THF     C214346   1.282   4.135   4.170  0.7615  0.0599 -0.0568
  789THF     C314347   1.116   3.988   4.122 -0.6670 -0.0843  0.3414
  789THF     H414348   1.391   4.145   4.176  0.7963  0.1925 -0.8487
  789THF     H514349   1.261   4.218   4.238  1.2763  0.7152 -0.6823
  789THF     H614350   1.087   3.884   4.112  0.6923 -0.5364  0.8689
  789THF     H714351   1.035   4.045   4.168  0.9647  2.2565  0.4987
  789THF     C814352   1.156   4.042   3.985 -0.0669  0.3512 -0.8792
  789THF     C914353   1.246   4.160   4.023 -0.4032 -0.2921 -0.6174
  789THF    H1014354   1.073   4.076   3.923  0.2538 -0.9687 -2.0703
  789THF    H1114355   1.208   3.959   3.939  3.7252  2.0803 -0.0700
  789THF    H1214356   1.340   4.166   3.968  0.6841 -1.3378  1.0240
  789THF    H1314357   1.201   4.258   4.016 -0.9042 -0.4784 -0.0650
  790THF     O114358   4.239   3.011   4.182  0.3207  0.3215 -0.1914
  790THF     C214359   4.368   2.964   4.155 -0.0292 -0.3649  0.2990
  790THF     C314360   4.219   3.133   4.105 -0.1756  0.3977  0.0754
  790THF     H414361   4.361   2.893   4.072 -2.3496 -0.6613  0.6807
  790THF     H514362   4.413   2.900   4.232  4.0223  0.6136 -1.0046
  790THF     H614363   4.219   3.122   3.996 -0.8758  0.2318  0.0853
  790THF     H714364   4.129   3.189   4.133 -0.9421  0.2942 -2.0006
  790THF     C814365   4.351   3.206   4.138  0.8402  0.3026  0.0466
  790THF     C914366   4.448   3.087   4.108  0.0830 -0.2896 -0.5305
  790THF    H1014367   4.337   3.249   4.237 -0.0213  3.9728 -1.5157
  790THF    H1114368   4.368   3.297   4.081 -0.6208  1.3386  1.2093
  790THF    H1214369   4.461   3.075   4.001  0.2878  0.9847 -0.6584
  790THF    H1314370   4.545   3.082   4.156 -0.2438 -2.7794  0.0141
  791THF     O114371   3.225   0.389   1.871 -0.0193  0.0713 -0.2959
  791THF     C214372   3.363   0.421   1.841  0.1565  0.3671 -0.2604
  791THF     C314373   3.165   0.325   1.763  0.2599  0.7077  0.1408
  791THF     H414374   3.429   0.339   1.871  1.7127  2.0576  1.1837
  791THF     H514375   3.393   0.511   1.894 -0.4606  0.4356 -0.0130
  791THF     H614376   3.131   0.225   1.790 -0.2763  0.4561 -1.4268
  791THF     H714377   3.085   0.375   1.709 -0.2545  1.3255  1.4299
  791THF     C814378   3.285   0.296   1.669  0.4675  0.3066  0.0048
  791THF     C914379   3.358   0.429   1.695  0.0133 -0.6073 -0.4941
  791THF    H1014380   3.245   0.284   1.569  0.7838 -0.7650 -0.0100
  791THF    H1114381   3.346   0.209   1.694  1.2418 -0.0182 -2.7039
  791THF    H1214382   3.456   0.436   1.648 -0.9496  1.3367 -2.3812
  791THF    H1314383   3.295   0.512   1.663 -0.8246 -0.3432  1.6702
  792THF     O114384   4.482   0.643   3.355 -0.0421  0.0457 -0.6159
  792THF     C214385   4.508   0.641   3.218 -0.2896  0.4638 -0.1740
  792THF     C314386   4.348   0.613   3.376  0.7415 -0.6220 -0.2780
  792THF     H414387   4.523   0.535   3.196 -0.2198  0.6749 -1.1706
  792THF     H514388   4.592   0.687   3.166  0.0117 -1.2421 -1.2715
  792THF     H614389   4.329   0.506   3.367  1.2955 -0.7840  0.4418
  792THF     H714390   4.315   0.649   3.474  1.0411  0.1879 -0.4645
  792THF     C814391   4.267   0.672   3.257  0.0785 -0.4919 -0.1425
  792THF     C914392   4.373   0.697   3.158 -1.1120 -0.3592 -0.2995
  792THF    H1014393   4.231   0.763   3.305  2.7674 -0.1356  1.4104
  792THF    H1114394   4.185   0.610   3.219 -0.5102  0.2371 -0.0819
  792THF    H1214395   4.362   0.655   3.058 -0.2346 -0.7805 -0.2239
  792THF    H1314396   4.387   0.805   3.152 -0.2837 -0.4501 -0.1525
  793THF     O114397   4.004   2.869   0.268 -0.0605 -0.4528  0.3653
  793THF     C214398   4.051   2.817   0.148  0.7442 -0.1965  0.0584
  793THF     C314399   4.117   2.880   0.350 -0.4208 -0.0342 -0.2002
  793THF     H414400   3.965   2.837   0.084 -1.3974  1.4067  3.2087
  793THF     H514401   4.059   2.708   0.145 -1.2419 -0.3755  0.1259
  793THF     H614402   4.105   2.951   0.432  0.7215  0.5304 -0.5163
  793THF     H714403   4.137   2.784   0.400 -1.0987 -0.1231 -0.0856
  793THF     C814404   4.231   2.913   0.245  0.8745  0.8335 -0.2959
  793THF     C914405   4.174   2.882   0.110 -0.0650  0.3267  0.0100
  793THF    H1014406   4.328   2.866   0.263  0.5746 -0.3733 -1.6016
  793THF    H1114407   4.249   3.020   0.254 -1.0354  1.1457  0.1310
  793THF    H1214408   4.160   2.968   0.045  2.0726 -0.0861 -1.0639
  793THF    H1314409   4.247   2.816   0.063 -1.4165 -0.9822 -0.3321
  794THF     O114410   4.647   3.291   0.933 -0.3954 -0.0622  0.4040
  794THF     C214411   4.617   3.342   1.062  0.4375 -0.3208 -0.3759
  794THF     C314412   4.607   3.157   0.927 -0.2350  0.2703  0.2299
  794THF     H414413   4.621   3.450   1.052 -1.1746 -0.3312 -1.4640
  794THF     H514414   4.708   3.314   1.116  1.2996 -2.2082 -2.6000
  794THF     H614415   4.583   3.128   0.825 -0.3094  0.6019  0.1535
  794THF     H714416   4.684   3.094   0.972 -2.0914 -0.3518  2.8011
  794THF     C814417   4.491   3.140   1.019  0.3187  0.3008  0.1099
  794THF     C914418   4.482   3.270   1.100  0.4225 -0.1357 -0.0902
  794THF    H1014419   4.515   3.051   1.078  1.7814  0.5369 -0.0850
  794THF    H1114420   4.406   3.125   0.952 -0.1490  2.2960  0.2105
  794THF    H1214421   4.395   3.332   1.078 -0.8987 -0.8877  2.4921
  794THF    H1314422   4.475   3.244   1.206 -0.2308 -1.7621 -0.4947
  795THF     O114423   0.685   1.909   4.320 -0.2006 -0.0990  0.0892
  795THF     C214424   0.800   1.984   4.326  0.4873  0.4572 -0.3490
  795THF     C314425   0.681   1.824   4.209 -0.5164 -0.1262 -0.0309
  795THF     H414426   0.811   2.026   4.426 -1.4559 -0.6644  0.3842
  795THF     H514427   0.800   2.068   4.257 -1.2231  2.0974  1.5405
  795THF     H614428   0.630   1.733   4.240 -2.0667  0.8527  0.4423
  795THF     H714429   0.627   1.877   4.130  2.3607 -0.2810 -2.2468
  795THF     C814430   0.829   1.796   4.185 -0.2724 -0.5098 -0.5864
  795THF     C914431   0.905   1.872   4.288 -0.1406  0.0226  0.4649
  795THF    H1014432   0.849   1.830   4.083  0.4316 -0.1294 -0.3322
  795THF    H1114433   0.849   1.689   4.193 -0.7253 -0.6177 -0.8716
  795THF    H1214434   0.920   1.805   4.373  1.6827 -0.6681 -0.3554
  795THF    H1314435   1.001   1.912   4.258  0.1159 -0.4534  0.6331
  796THF     O114436   3.156   2.638   1.790 -0.0451  0.7338  0.0793
  796THF     C214437   3.142   2.535   1.693  0.8220  0.4899  0.1885
  796THF     C314438   3.268   2.718   1.750  0.3901  0.6996  0.3067
  796THF     H414439   3.035   2.524   1.675  0.9165 -0.8569  0.3492
  796THF     H514440   3.181   2.443   1.737 -0.6302 -0.0130  0.4743
  796THF     H614441   3.245   2.820   1.719  2.6712  0.9028 -0.9194
  796THF     H714442   3.331   2.730   1.838 -0.6468 -1.1695  1.3846
  796THF     C814443   3.334   2.645   1.638 -0.2977  0.5282 -0.1779
  796THF     C914444   3.222   2.573   1.570 -0.0137 -0.5087  0.2873
  796THF    H1014445   3.405   2.568   1.667 -2.3377 -0.9810  0.9895
  796THF    H1114446   3.382   2.720   1.574  0.4351  0.2667  0.0527
  796THF    H1214447   3.157   2.648   1.524 -0.1314 -0.7294  0.0898
  796THF    H1314448   3.257   2.487   1.513  1.7871 -0.2405  0.9335
  797THF     O114449   4.139   0.369   1.674  0.0741  0.1959  0.0000
  797THF     C214450   4.201   0.316   1.559 -0.4624  0.2718  0.0226
  797THF     C314451   4.014   0.305   1.682  1.0259 -0.4413  0.2635
  797THF     H414452   4.307   0.341   1.573 -0.9856  2.0500  1.2506
  797THF     H514453   4.165   0.370   1.472  1.5382  0.6318 -0.6437
  797THF     H614454   3.976   0.295   1.783  0.2526 -1.2407 -0.0855
  797THF     H714455   3.944   0.365   1.623 -0.8399 -2.5134  0.2488
  797THF     C814456   4.029   0.165   1.607 -0.5371 -0.9232 -0.6249
  797THF     C914457   4.176   0.165   1.558  0.4469 -0.4579 -0.9733
  797THF    H1014458   3.956   0.160   1.526 -1.7967 -1.3315  0.4825
  797THF    H1114459   4.013   0.075   1.667 -0.7915 -1.0615 -0.8952
  797THF    H1214460   4.242   0.107   1.623  0.5854  0.1051 -0.6048
  797THF    H1314461   4.193   0.125   1.458 -0.7495 -0.2171 -1.2950
  798THF     O114462   2.820   4.830   1.875 -0.3053  0.6879 -0.0800
  798THF     C214463   2.893   4.838   1.755 -0.2168 -0.4708 -0.3610
  798THF     C314464   2.682   4.799   1.851 -0.4369  0.0535  1.1934
  798THF     H414465   2.988   4.787   1.766  0.6932  1.1408 -0.4492
  798THF     H514466   2.902   4.939   1.715  1.7006 -0.8382 -0.9759
  798THF     H614467   2.644   4.721   1.917 -2.7258  0.0994  0.0460
  798THF     H714468   2.626   4.892   1.862  0.8833  0.9566  0.5625
  798THF     C814469   2.674   4.751   1.706 -0.2112  0.0307 -0.0603
  798THF     C914470   2.816   4.753   1.656  0.6434  0.0518 -0.2458
  798THF    H1014471   2.615   4.826   1.652 -1.3287 -0.6234  0.2196
  798THF    H1114472   2.625   4.654   1.697  1.6195 -0.9489 -0.0288
  798THF    H1214473   2.856   4.653   1.674  1.8431  0.7473  1.2239
  798THF    H1314474   2.828   4.767   1.549  0.3454  0.5942 -0.2110
  799THF     O114475   5.161   4.589   0.317 -0.0555  0.1140  0.3101
  799THF     C214476   5.243   4.696   0.283 -0.7006 -0.3979 -0.3968
  799THF     C314477   5.227   4.514   0.413  0.3844  0.2301  0.5906
  799THF     H414478   5.219   4.785   0.341 -0.6119 -0.6338  0.0044
  799THF     H514479   5.227   4.717   0.177  0.8586 -1.4117 -0.8673
  799THF     H614480   5.205   4.563   0.507  0.4035  1.6767 -0.1308
  799THF     H714481   5.184   4.414   0.408 -0.1250  0.4192  1.0616
  799THF     C814482   5.375   4.522   0.379  0.0123  0.5980  0.1403
  799THF     C914483   5.389   4.654   0.306 -0.5596 -0.3659  0.9418
  799THF    H1014484   5.393   4.442   0.308 -2.0925  0.2620 -0.1024
  799THF    H1114485   5.447   4.509   0.460  0.4424 -0.9650 -0.4547
  799THF    H1214486   5.447   4.726   0.362 -0.3432 -1.4141  2.1207
  799THF    H1314487   5.440   4.644   0.210  0.8084  3.5954  1.0823
  800THF     O114488   4.757   4.242   5.053  0.6169 -0.0870 -0.4274
  800THF     C214489   4.703   4.255   4.921 -0.2217 -0.2161 -0.2205
  800THF     C314490   4.896   4.280   5.055 -0.3887 -0.3000  0.2659
  800THF     H414491   4.594   4.259   4.923 -0.3289 -2.2627  0.0619
  800THF     H514492   4.730   4.176   4.852  0.3376  0.5418 -0.8844
  800THF     H614493   4.927   4.345   5.137 -1.2212  0.7065 -0.1840
  800THF     H714494   4.965   4.196   5.053  1.5257  1.1170  2.0717
  800THF     C814495   4.916   4.369   4.931 -0.0180 -0.1161  0.1302
  800THF     C914496   4.776   4.380   4.869  0.2719 -0.2002 -0.6572
  800THF    H1014497   4.972   4.318   4.853 -0.1867 -1.1849  0.6963
  800THF    H1114498   4.972   4.461   4.940  0.6684 -0.5704  0.5261
  800THF    H1214499   4.727   4.474   4.894  0.9170  0.1820 -0.8069
  800THF    H1314500   4.766   4.376   4.760 -2.7189 -1.6440 -0.4309
  801THF     O114501   0.695   0.064   3.312 -0.2131  0.0836 -0.0754
  801THF     C214502   0.644  -0.008   3.421  0.3805  0.1841 -0.5374
  801THF     C314503   0.836   0.068   3.322 -0.1731  0.1137  0.0525
  801THF     H414504   0.670  -0.114   3.418 -1.4480 -0.2857 -1.6506
  801THF     H514505   0.539   0.004   3.445  0.0961  0.1565 -1.7035
  801THF     H614506   0.877  -0.027   3.286  2.2157  0.9178  0.4447
  801THF     H714507   0.874   0.151   3.262  3.5463 -2.2118 -1.2032
  801THF     C814508   0.866   0.087   3.475  0.3315 -0.2988  0.0709
  801THF     C914509   0.724   0.050   3.534 -0.2246 -0.1849 -0.5938
  801THF    H1014510   0.884   0.194   3.485 -3.6168  0.6259 -0.7363
  801THF    H1114511   0.945   0.025   3.516  0.3911 -0.8150 -0.8082
  801THF    H1214512   0.733  -0.018   3.618 -0.2219 -0.8617 -1.1345
  801THF    H1314513   0.676   0.136   3.580 -0.5373 -0.8242  0.3062
  802THF     O114514   2.274   2.266   2.991  0.0595 -0.1533  0.4901
  802THF     C214515   2.319   2.130   2.966  0.6508  0.5377  0.4011
  802THF     C314516   2.172   2.304   2.889  0.2158 -0.7795 -0.0484
  802THF     H414517   2.386   2.101   3.046  2.2088  0.3039 -0.9390
  802THF     H514518   2.383   2.123   2.879 -0.9714 -1.1533 -0.7260
  802THF     H614519   2.103   2.386   2.908 -0.1559 -0.8913 -0.8686
  802THF     H714520   2.224   2.328   2.796  0.6704 -0.1218  0.3661
  802THF     C814521   2.104   2.170   2.867  0.5949  0.2951  0.3440
  802THF     C914522   2.189   2.064   2.935  0.2412  0.2726 -0.0578
  802THF    H1014523   2.097   2.154   2.760  0.2245 -0.5234  0.4816
  802THF    H1114524   2.002   2.173   2.904 -0.4781 -1.5507 -2.1728
  802THF    H1214525   2.143   2.042   3.031 -0.3479 -1.2754 -0.6573
  802THF    H1314526   2.202   1.967   2.887  0.0887 -1.8327  3.7669
  803THF     O114527   0.335   0.217   2.120 -0.0209 -0.8541  0.2074
  803THF     C214528   0.381   0.081   2.134  0.4012 -0.3570 -0.2070
  803THF     C314529   0.354   0.265   1.991  0.1061  0.4073  0.1402
  803THF     H414530   0.319   0.030   2.207  0.5225  2.3059  1.8773
  803THF     H514531   0.484   0.082   2.169  0.8210  0.0220 -1.3902
  803THF     H614532   0.307   0.359   1.963  0.3176  0.0698 -1.4263
  803THF     H714533   0.460   0.273   1.964  0.0520  0.7959  0.0406
  803THF     C814534   0.304   0.140   1.911  0.2142  0.1698 -0.5526
  803THF     C914535   0.372   0.026   1.989 -0.0148 -0.4748 -0.0257
  803THF    H1014536   0.318   0.143   1.803  3.6198  1.3185 -0.1775
  803THF    H1114537   0.195   0.138   1.922  0.0669  2.2366 -1.1894
  803THF    H1214538   0.309  -0.063   1.983 -1.9734  0.9132 -1.1818
  803THF    H1314539   0.477   0.012   1.964  1.4971  2.1253  3.8337
  804THF     O114540   2.017   0.243   5.256  0.1587 -0.1933  0.1601
  804THF     C214541   2.114   0.327   5.196  0.0681  0.1771  0.2225
  804THF     C314542   1.940   0.187   5.156 -0.1613 -0.6338  0.5516
  804THF     H414543   2.216   0.303   5.227  0.4383 -1.4974 -2.0159
  804THF     H514544   2.103   0.432   5.223 -0.3879 -0.2604  1.7887
  804THF     H614545   1.955   0.079   5.159  0.6026 -0.5176  1.8802
  804THF     H714546   1.833   0.204   5.170 -0.1198  0.0559  0.0584
  804THF     C814547   1.981   0.247   5.021 -0.7778 -0.8286 -0.4925
  804THF     C914548   2.120   0.303   5.048  0.1407  0.2216 -0.5083
  804THF    H1014549   1.908   0.318   4.981 -0.5784 -1.5275 -2.1736
  804THF    H1114550   2.004   0.171   4.946 -0.2229 -2.6729  1.4675
  804THF    H1214551   2.192   0.229   5.012 -0.8322 -0.4012 -1.2019
  804THF    H1314552   2.122   0.397   4.992 -0.9051  0.6899  0.2141
  805THF     O114553   0.546   0.932   3.606  0.2567 -0.0958 -0.7186
  805THF     C214554   0.628   1.035   3.664  0.3829  0.2316 -0.2398
  805THF     C314555   0.587   0.803   3.655 -0.6775  0.0091  0.6290
  805THF     H414556   0.588   1.066   3.761  1.3252  1.5993 -0.2626
  805THF     H514557   0.640   1.123   3.602 -1.0541  1.3045  0.9166
  805THF     H614558   0.516   0.757   3.724 -1.9376 -0.5252 -0.9666
  805THF     H714559   0.588   0.733   3.571 -1.3491 -0.1803  0.7744
  805THF     C814560   0.721   0.829   3.732  0.7702  0.3279  0.0368
  805THF     C914561   0.760   0.967   3.686 -0.2711 -0.1149 -0.2049
  805THF    H1014562   0.797   0.756   3.704 -0.5666 -1.2521  0.3952
  805THF    H1114563   0.693   0.808   3.835 -1.2100  1.6352 -0.1935
  805THF    H1214564   0.811   1.017   3.768  2.1460 -1.8603 -0.5168
  805THF    H1314565   0.821   0.967   3.596 -0.3459 -2.7057 -0.3233
  806THF     O114566   1.635   4.704   4.789 -0.3489  0.0606 -0.2406
  806THF     C214567   1.532   4.746   4.701 -0.5764  0.0086  0.0426
  806THF     C314568   1.741   4.660   4.706  0.0354 -0.4227 -0.2401
  806THF     H414569   1.467   4.819   4.749 -0.1809 -0.3924  1.2295
  806THF     H514570   1.472   4.669   4.654 -0.1374 -0.0521 -0.4317
  806THF     H614571   1.837   4.658   4.759  0.5716 -1.9409 -1.2074
  806THF     H714572   1.730   4.568   4.649  0.7452  1.1051 -3.0107
  806THF     C814573   1.742   4.778   4.601 -0.3136 -0.1493 -0.1533
  806THF     C914574   1.607   4.833   4.602 -0.0341 -0.5863  0.7799
  806THF    H1014575   1.765   4.743   4.501 -0.5365 -2.0745  0.4182
  806THF    H1114576   1.822   4.841   4.640  0.1389 -1.6725  1.5243
  806THF    H1214577   1.616   4.937   4.635  2.1070 -0.0665 -1.1613
  806THF    H1314578   1.577   4.847   4.498  1.8997 -0.8293  0.1599
  807THF     O114579   3.609   1.255   4.033 -0.4204  0.0864  0.2021
  807THF     C214580   3.477   1.274   3.995 -0.4957 -0.0490 -0.2765
  807THF     C314581   3.632   1.121   3.987 -0.2695 -0.1317  0.6795
  807THF     H414582   3.469   1.313   3.894 -1.2433 -0.5127 -0.4056
  807THF     H514583   3.427   1.341   4.066 -0.1189 -1.3172  1.2380
  807THF     H614584   3.629   1.110   3.878  0.9718 -2.0696  0.7830
  807THF     H714585   3.721   1.073   4.026 -0.0325 -2.2679 -2.1313
  807THF     C814586   3.513   1.041   4.037 -0.2403 -0.3528 -0.4386
  807THF     C914587   3.399   1.137   4.001  0.4626 -0.6801 -0.1848
  807THF    H1014588   3.498   1.020   4.142  2.8948  0.7523  0.3366
  807THF    H1114589   3.499   0.941   3.995 -0.8938  0.0934 -1.3260
  807THF    H1214590   3.360   1.111   3.902 -0.6290  1.0073 -0.2230
  807THF    H1314591   3.325   1.139   4.081 -0.4811 -0.4858 -1.0480
  808THF     O114592   2.021   1.447   1.650 -0.3532 -0.0859  0.0021
  808THF     C214593   1.990   1.440   1.788  0.0896  0.3523 -0.1501
  808THF     C314594   2.069   1.318   1.612  0.1499 -0.8586 -0.0536
  808THF     H414595   1.892   1.394   1.799 -0.7817  2.2784  0.7009
  808THF     H514596   1.982   1.535   1.842  0.3846  0.1162  0.3116
  808THF     H614597   1.986   1.249   1.626 -0.1729 -0.0439  2.7520
  808THF     H714598   2.120   1.319   1.516 -1.1627  0.1228 -0.7675
  808THF     C814599   2.170   1.280   1.722 -0.0712 -0.2501  0.2087
  808THF     C914600   2.101   1.350   1.844 -0.3219 -0.5341 -1.1502
  808THF    H1014601   2.261   1.338   1.706 -1.3294  2.1486  1.1714
  808THF    H1114602   2.187   1.173   1.732 -1.0864 -0.3428  1.0852
  808THF    H1214603   2.058   1.275   1.911  0.8914 -2.3448 -2.3277
  808THF    H1314604   2.175   1.411   1.895 -0.2575  0.5902 -2.5476
  809THF     O114605   4.583   2.470   2.589  0.0848  0.0226 -0.6265
  809THF     C214606   4.505   2.566   2.643  1.3708 -0.3257 -0.0237
  809THF     C314607   4.525   2.340   2.607  0.3081  0.2633 -0.5266
  809THF     H414608   4.504   2.656   2.581  1.6095  1.0435  1.8533
  809THF     H514609   4.522   2.600   2.745  1.1629 -1.1036  0.2733
  809THF     H614610   4.550   2.274   2.524 -2.6590 -0.1560 -1.2111
  809THF     H714611   4.558   2.294   2.700  1.4072  0.1145 -0.9795
  809THF     C814612   4.375   2.368   2.599  0.3284  0.4467  0.2253
  809THF     C914613   4.356   2.513   2.643  0.8582  0.1813  0.2693
  809THF    H1014614   4.318   2.297   2.659  0.5880 -0.7398 -0.8918
  809THF    H1114615   4.336   2.359   2.498 -3.1856  3.3452  1.0985
  809THF    H1214616   4.298   2.559   2.563  2.2787 -1.2115 -1.6717
  809THF    H1314617   4.315   2.513   2.744  3.4683 -0.5603  1.4080
  810THF     O114618   1.612   2.851   4.590  0.4589 -0.4252  0.5408
  810THF     C214619   1.740   2.869   4.647  0.2460 -0.6581 -0.3616
  810THF     C314620   1.530   2.964   4.630 -0.6699  0.6515  0.5103
  810THF     H414621   1.802   2.924   4.576 -3.2131  2.4208 -1.3265
  810THF     H514622   1.793   2.779   4.675  0.8126 -0.3704 -0.5020
  810THF     H614623   1.559   3.053   4.574  2.2814 -0.2687  0.4021
  810THF     H714624   1.422   2.954   4.615 -0.5814 -0.5385  0.6020
  810THF     C814625   1.577   2.991   4.767  0.3175 -0.2505  0.0475
  810THF     C914626   1.726   2.970   4.754 -0.7436 -1.0014 -0.4223
  810THF    H1014627   1.541   2.928   4.848  2.5760 -1.1418  0.4483
  810THF    H1114628   1.543   3.089   4.801 -1.9790 -0.4517 -1.4482
  810THF    H1214629   1.784   3.061   4.740 -1.0649 -0.3216  2.1202
  810THF    H1314630   1.757   2.937   4.853 -1.8956  0.2391  0.3934
  811THF     O114631   4.373   3.529   4.236  0.5309 -0.6631  0.1544
  811THF     C214632   4.396   3.659   4.183  0.5201 -0.2484 -0.2516
  811THF     C314633   4.251   3.523   4.304 -0.2589  0.0025  0.3981
  811THF     H414634   4.402   3.650   4.074 -0.4453 -1.2418 -0.2380
  811THF     H514635   4.488   3.704   4.220  0.5105  0.3364 -0.9069
  811THF     H614636   4.177   3.497   4.229  0.7769  1.1648 -1.0623
  811THF     H714637   4.253   3.447   4.383 -0.9132 -0.6576 -0.2009
  811THF     C814638   4.222   3.666   4.335  0.5625  0.4793 -0.1817
  811THF     C914639   4.272   3.737   4.211 -0.0424 -0.1109  0.2847
  811THF    H1014640   4.278   3.697   4.423  0.9909  0.4434 -0.4425
  811THF    H1114641   4.114   3.679   4.340  0.4178 -0.8786  3.1445
  811THF    H1214642   4.201   3.734   4.129 -0.7712  2.6724  0.7100
  811THF    H1314643   4.293   3.844   4.220 -0.7709  0.2216 -1.6151
  812THF     O114644   3.211   1.255   2.922  0.1725  0.6314 -0.1064
  812THF     C214645   3.160   1.302   2.804 -0.3347 -0.1294  0.4032
  812THF     C314646   3.340   1.311   2.945  0.2965  0.6208  0.2852
  812THF     H414647   3.095   1.390   2.803 -0.4038 -0.1834 -0.2061
  812THF     H514648   3.085   1.236   2.758  0.0939 -0.7382  0.5756
  812THF     H614649   3.351   1.377   3.031  1.1669  1.0907 -0.1732
  812THF     H714650   3.413   1.233   2.966  0.5429  0.5634 -0.7150
  812THF     C814651   3.384   1.378   2.817 -0.3823  0.0035 -0.3069
  812THF     C914652   3.280   1.326   2.717  0.4321 -0.1642 -0.3419
  812THF    H1014653   3.485   1.346   2.793 -0.0591 -0.8514  1.9225
  812THF    H1114654   3.370   1.482   2.849  1.0132  0.3088 -0.6088
  812THF    H1214655   3.251   1.390   2.633 -0.2568 -0.9558 -0.7224
  812THF    H1314656   3.299   1.223   2.689 -1.4343 -0.6582  0.0584
  813THF     O114657   0.761   3.826   3.104  0.3511 -0.4914  0.2091
  813THF     C214658   0.851   3.906   3.177 -0.2522 -0.4568 -0.7365
  813THF     C314659   0.681   3.739   3.181 -0.4525 -0.9316  0.2886
  813THF     H414660   0.860   4.008   3.140 -1.7861  0.5197  1.3330
  813THF     H514661   0.946   3.855   3.185 -1.0767 -2.2376 -1.6809
  813THF     H614662   0.590   3.703   3.132 -1.0958 -0.3341  1.0031
  813THF     H714663   0.747   3.659   3.214  0.2886  0.1727  1.5919
  813THF     C814664   0.653   3.827   3.300  0.4069  0.2224  1.0873
  813THF     C914665   0.785   3.904   3.314  0.8193 -0.3582 -0.0138
  813THF    H1014666   0.628   3.770   3.390  0.8726 -1.9294 -0.0686
  813THF    H1114667   0.574   3.901   3.285  1.1853  1.1131  1.3353
  813THF    H1214668   0.760   4.006   3.346  1.1846 -0.3120  0.1316
  813THF    H1314669   0.861   3.863   3.380  0.8959 -0.4865 -0.1798
  814THF     O114670   1.413   0.558   0.552 -0.2749  0.3236 -0.5137
  814THF     C214671   1.309   0.652   0.576 -0.3871 -0.0046 -0.4480
  814THF     C314672   1.371   0.433   0.596 -0.6972  0.1455  0.4564
  814THF     H414673   1.328   0.745   0.522 -0.7191  0.7041  0.6196
  814THF     H514674   1.300   0.684   0.680  0.3791 -0.8091 -0.1183
  814THF     H614675   1.442   0.361   0.555  0.3541  0.1619  2.1651
  814THF     H714676   1.361   0.410   0.702 -0.1159 -0.8946  0.3036
  814THF     C814677   1.243   0.421   0.520 -0.0297  0.7881  0.5770
  814THF     C914678   1.194   0.568   0.516 -0.9158 -0.8367  0.3744
  814THF    H1014679   1.180   0.350   0.574  0.3539  0.7417  0.9650
  814THF    H1114680   1.275   0.380   0.424  0.5366  0.0179  1.0868
  814THF    H1214681   1.166   0.585   0.413  2.8477 -0.7987 -0.8008
  814THF    H1314682   1.107   0.581   0.581 -1.8156  1.5471 -1.1484
  815THF     O114683   4.461   4.829   3.351 -0.9269  0.5193 -0.0883
  815THF     C214684   4.437   4.924   3.450  0.5642  0.1539  0.0052
  815THF     C314685   4.464   4.894   3.224 -0.0781  0.0525 -0.1498
  815THF     H414686   4.532   4.952   3.497  0.6319 -1.4714  0.9263
  815THF     H514687   4.377   4.882   3.531  0.1591 -0.4708 -0.6072
  815THF     H614688   4.560   4.940   3.202  0.0964 -1.2426 -2.3534
  815THF     H714689   4.455   4.828   3.138 -0.0501  2.9968 -2.5884
  815THF     C814690   4.352   4.997   3.236 -0.4336 -0.0071  0.2727
  815THF     C914691   4.370   5.044   3.380 -0.3597  0.2634  0.0833
  815THF    H1014692   4.268   4.931   3.217  0.3595 -1.3365  1.1897
  815THF    H1114693   4.372   5.082   3.171 -1.2250  2.5342  3.1289
  815THF    H1214694   4.426   5.138   3.381 -1.0418  0.7247 -1.5424
  815THF    H1314695   4.273   5.071   3.422 -0.4630 -1.7402  1.2258
  816THF     O114696   1.715   1.095   2.662  0.0139  0.1257  0.7407
  816THF     C214697   1.599   1.143   2.727  0.0099 -1.0356  0.2158
  816THF     C314698   1.667   1.066   2.523 -0.0946  0.0437 -0.7854
  816THF     H414699   1.561   1.238   2.692  1.3597 -0.5346  0.0699
  816THF     H514700   1.626   1.138   2.833  0.1825  0.7155  0.2774
  816THF     H614701   1.660   1.151   2.455 -0.6483  1.4204  0.9328
  816THF     H714702   1.730   0.991   2.475 -0.4140  0.5108 -1.9917
  816THF     C814703   1.528   1.008   2.539  0.4066 -0.0488 -0.0972
  816THF     C914704   1.495   1.038   2.688 -0.5701 -0.9588  0.6423
  816THF    H1014705   1.530   0.900   2.526 -0.6920 -0.0295 -0.6061
  816THF    H1114706   1.460   1.054   2.467  0.2417  1.3584  0.9234
  816THF    H1214707   1.396   1.077   2.708 -1.5243 -2.3282 -1.0961
  816THF    H1314708   1.524   0.952   2.748 -1.4948 -1.1508  0.8231
  817THF     O114709   4.928   2.863   2.785 -0.3420  0.5070  0.0109
  817THF     C214710   4.792   2.894   2.748  0.0237  0.0883 -0.1634
  817THF     C314711   4.975   2.938   2.902 -0.6819 -0.5035 -0.7460
  817THF     H414712   4.731   2.805   2.754 -1.2776  0.7802 -2.1904
  817THF     H514713   4.797   2.945   2.651  0.9295  0.6506  0.1687
  817THF     H614714   4.969   2.881   2.995 -2.3653  2.1075  0.8827
  817THF     H714715   5.078   2.972   2.893  0.3286 -2.1058  2.6330
  817THF     C814716   4.873   3.057   2.901 -0.4009  0.8160 -0.5587
  817THF     C914717   4.752   2.991   2.852  0.0948 -0.4008  0.2891
  817THF    H1014718   4.895   3.136   2.830 -0.2656  1.0495 -0.2605
  817THF    H1114719   4.874   3.112   2.995 -0.6287  0.9959 -0.6619
  817THF    H1214720   4.704   2.933   2.931 -0.7829  0.4888  0.4391
  817THF    H1314721   4.674   3.064   2.831 -1.1909 -1.1167  2.2681
  818THF     O114722   5.386   4.155   2.943  0.9581  0.0364  0.3499
  818THF     C214723   5.370   4.115   3.078  0.3973 -0.1151 -0.6021
  818THF     C314724   5.351   4.043   2.860  0.4162 -0.4689  0.4876
  818THF     H414725   5.345   4.194   3.150  1.2842 -1.6769  1.5477
  818THF     H514726   5.470   4.081   3.105  0.7759  1.0332 -0.5117
  818THF     H614727   5.272   4.051   2.786 -0.5235 -1.8429  1.3042
  818THF     H714728   5.444   4.023   2.806  1.1256  1.0628  1.0928
  818THF     C814729   5.301   3.930   2.951 -0.2954 -0.5338 -0.1841
  818THF     C914730   5.269   4.002   3.079  1.2445  1.0197 -0.1773
  818THF    H1014731   5.388   3.866   2.967  0.8886  0.7749 -1.1764
  818THF    H1114732   5.216   3.870   2.918  0.1928 -0.6812 -1.1942
  818THF    H1214733   5.166   4.035   3.071  1.9614  3.4363 -0.4571
  818THF    H1314734   5.281   3.939   3.167 -1.1264 -0.1735 -0.6347
  819THF     O114735   3.981   0.147   5.439  0.1729  0.3766  0.1512
  819THF     C214736   4.112   0.128   5.384  0.3419  0.0385 -0.0921
  819THF     C314737   3.884   0.094   5.347  0.4612 -0.9696 -0.8196
  819THF     H414738   4.130   0.028   5.421 -2.3549  0.0484  1.5290
  819THF     H514739   4.183   0.198   5.428  0.4622  0.6791 -1.2384
  819THF     H614740   3.879  -0.012   5.374  0.8866 -0.3597  1.9909
  819THF     H714741   3.784   0.136   5.356  0.0591 -2.0491  0.0447
  819THF     C814742   3.948   0.100   5.209 -0.3736 -0.5174  0.4777
  819THF     C914743   4.091   0.147   5.241 -0.6144  0.3823  0.2303
  819THF    H1014744   3.910   0.176   5.140  0.9358  1.5892  1.9575
  819THF    H1114745   3.958   0.004   5.160  2.3814 -0.8737  1.5835
  819THF    H1214746   4.172   0.110   5.178  0.3026  2.3691  0.1503
  819THF    H1314747   4.098   0.254   5.223 -1.7446  0.1230 -2.2352
  820THF     O114748   0.485   3.145   3.839 -0.7687 -0.1456  0.6418
  820THF     C214749   0.579   3.059   3.918 -0.4177 -0.5908 -0.1719
  820THF     C314750   0.412   3.071   3.742  0.4009  0.2656 -0.3892
  820THF     H414751   0.566   3.072   4.025 -1.8157 -2.2836 -0.0898
  820THF     H514752   0.679   3.083   3.882  0.3625 -1.6608  1.2144
  820THF     H614753   0.315   3.057   3.789 -0.9780  4.1280 -1.6490
  820THF     H714754   0.412   3.128   3.649 -0.8699  0.0950 -0.5090
  820THF     C814755   0.489   2.937   3.743 -0.6250 -0.4499  0.3284
  820THF     C914756   0.533   2.915   3.887  0.5956 -1.0308  0.0340
  820THF    H1014757   0.578   2.950   3.682 -0.0708  0.8226  1.3394
  820THF    H1114758   0.448   2.846   3.701  2.1282 -1.0540 -1.2614
  820THF    H1214759   0.443   2.881   3.938 -0.2923 -1.1684 -1.5650
  820THF    H1314760   0.618   2.847   3.885  1.1072 -0.3699 -1.3492
  821PF6-    P114761   5.470   1.121   0.895 -0.3564  0.2780  0.3178
  821PF6-    F214762   5.332   1.204   0.886  0.4391 -0.2560  0.2115
  821PF6-    F314763   5.605   1.030   0.916  0.0063 -0.1148  0.5886
  821PF6-    F414764   5.413   1.017   0.786 -0.0789 -0.4596 -0.2503
  821PF6-    F514765   5.530   1.223   1.003  0.1852 -0.4392  0.4585
  821PF6-    F614766   5.404   1.037   1.016  0.0963 -0.1422  0.3149
  821PF6-    F714767   5.535   1.206   0.774 -0.1920 -0.2100 -0.1222
  822PF6-    P114768   5.459   4.870   2.269  0.3891 -0.2709 -0.4158
  822PF6-    F214769   5.347   4.850   2.161 -0.2105  0.0901 -0.5544
  822PF6-    F314770   5.565   4.889   2.384  0.6359 -0.7892  0.8422
  822PF6-    F414771   5.379   4.767   2.371 -0.3726 -0.1248  0.2960
  822PF6-    F514772   5.534   4.977   2.178  0.2217  0.3317  0.2374
  822PF6-    F614773   5.377   4.992   2.333  0.1749  0.4715 -0.5429
  822PF6-    F714774   5.537   4.751   2.195  0.1819  0.4174 -0.0889
  823PF6-    P114775   3.163   3.176   0.450 -0.0816  0.2830 -0.0823
  823PF6-    F214776   3.174   3.339   0.444  0.5145 -0.0138  0.1372
  823PF6-    F314777   3.150   3.021   0.433  0.1720 -0.0724  0.2547
  823PF6-    F414778   3.269   3.176   0.336 -0.3218  0.4101  0.5423
  823PF6-    F514779   3.057   3.182   0.569 -0.3877 -0.0171  0.8061
  823PF6-    F614780   3.050   3.184   0.335 -0.3530 -0.1205 -0.3635
  823PF6-    F714781   3.277   3.167   0.562 -0.6341 -0.0779  0.2080
  824PF6-    P114782   3.881   5.150   5.250  0.1890  0.1173 -0.0052
  824PF6-    F214783   3.815   5.162   5.396 -0.0708  0.2619 -0.1071
  824PF6-    F314784   3.955   5.155   5.107  0.0727  0.3676  0.5807
  824PF6-    F414785   3.757   5.063   5.200  0.2625  0.3005 -0.1870
  824PF6-    F514786   3.995   5.247   5.306 -0.4556 -0.1956 -0.3345
  824PF6-    F614787   3.970   5.025   5.303  0.2599 -0.1520  0.2214
  824PF6-    F714788   3.793   5.284   5.206  0.4061 -0.3732 -0.0435
  825PF6-    P114789   3.767   4.150   2.115  0.3192 -0.5689  0.1630
  825PF6-    F214790   3.763   4.261   2.230  0.3087 -0.4957 -0.2171
  825PF6-    F314791   3.771   4.040   2.002 -0.1212 -0.1470  0.2865
  825PF6-    F414792   3.927   4.165   2.116 -0.0165  0.1244 -0.6755
  825PF6-    F514793   3.606   4.142   2.118 -0.3985 -0.4115 -0.1587
  825PF6-    F614794   3.757   4.269   2.005  0.4915  0.1695  0.2296
  825PF6-    F714795   3.776   4.035   2.223 -0.3955  0.4764 -0.2728
  826PF6-    P114796   3.425   4.579   0.583 -0.1396  0.2907  0.1514
  826PF6-    F214797   3.270   4.546   0.597  0.1976 -0.7141  0.1091
  826PF6-    F314798   3.584   4.604   0.571  0.0523  0.2267  0.0599
  826PF6-    F414799   3.440   4.554   0.735 -0.0773  0.1588 -0.0350
  826PF6-    F514800   3.410   4.602   0.423 -0.6217 -0.2170 -0.5470
  826PF6-    F614801   3.402   4.736   0.613  0.2154 -0.0987  0.5700
  826PF6-    F714802   3.460   4.425   0.548  0.0723 -0.1798  0.2248
  827PF6-    P114803   0.469   0.237   0.930 -0.0779 -0.0353  0.4005
  827PF6-    F214804   0.605   0.162   0.912  0.0323  0.1281 -0.3345
  827PF6-    F314805   0.333   0.308   0.952  0.2511  0.1633  0.2409
  827PF6-    F414806   0.517   0.353   0.838  0.4773  0.1954  0.0213
  827PF6-    F514807   0.424   0.115   1.023 -0.4605 -0.4528 -0.5049
  827PF6-    F614808   0.530   0.317   1.054 -0.4011 -0.6789  0.6281
  827PF6-    F714809   0.419   0.165   0.797 -0.3156  0.0028 -0.0188
  828PF6-    P114810   2.692   1.532   4.700 -0.0057 -0.3680 -0.1501
  828PF6-    F214811   2.647   1.440   4.831 -0.2561 -0.3507 -0.2556
  828PF6-    F314812   2.741   1.616   4.575 -0.2124  0.0911  0.6467
  828PF6-    F414813   2.832   1.465   4.700  0.2542 -0.1840  0.0499
  828PF6-    F514814   2.547   1.603   4.702  0.2370  0.2401  0.0723
  828PF6-    F614815   2.754   1.647   4.797 -0.1487  0.5335 -0.3230
  828PF6-    F714816   2.644   1.410   4.608  0.4657 -0.1355  0.3734
  829PF6-    P114817   0.930   3.792   2.264 -0.2156  0.2109  0.4147
  829PF6-    F214818   0.987   3.867   2.131  0.6900  0.2056 -0.3003
  829PF6-    F314819   0.879   3.719   2.403 -0.2334  0.1844 -0.0661
  829PF6-    F414820   0.810   3.888   2.261 -0.1674 -0.3096 -0.0061
  829PF6-    F514821   1.052   3.692   2.259  0.3011  0.1847  0.0547
  829PF6-    F614822   1.023   3.891   2.347 -0.2133  0.0993  0.1572
  829PF6-    F714823   0.842   3.686   2.177  0.2831  0.2180  0.5102
  830PF6-    P114824   2.376   0.723   2.881 -0.4115 -0.3359 -0.7173
  830PF6-    F214825   2.447   0.608   2.793  0.5300 -0.0026  0.0693
  830PF6-    F314826   2.302   0.840   2.968  0.2216  0.2424  0.0842
  830PF6-    F414827   2.487   0.711   2.993  0.3940  0.0230  0.2528
  830PF6-    F514828   2.268   0.735   2.772  0.3757 -0.2377  0.5911
  830PF6-    F614829   2.285   0.611   2.951 -0.2400 -0.4686  0.5358
  830PF6-    F714830   2.464   0.839   2.808  0.2341 -0.1092 -0.3443
  831PF6-    P114831   1.033   0.963   0.889 -0.2818  0.1095 -0.6569
  831PF6-    F214832   1.172   0.911   0.836 -0.1056 -0.2521 -0.3262
  831PF6-    F314833   0.892   1.023   0.948 -0.9804 -0.4764 -0.2104
  831PF6-    F414834   1.108   1.069   0.983 -0.4774  0.3887  0.2628
  831PF6-    F514835   0.956   0.863   0.800 -0.1378 -0.0345  0.3651
  831PF6-    F614836   1.030   0.854   1.008  0.0011 -0.2225  0.0215
  831PF6-    F714837   1.036   1.075   0.774 -0.1793  0.1355  0.0545
  832PF6-    P114838   5.045   0.219   3.003  0.1486 -0.1210 -0.1551
  832PF6-    F214839   4.902   0.206   2.929 -0.0336 -0.4643  0.2789
  832PF6-    F314840   5.188   0.236   3.074 -0.1692 -0.2349 -0.1691
  832PF6-    F414841   5.008   0.368   3.055  0.3444 -0.5090 -0.2862
  832PF6-    F514842   5.091   0.077   2.948  0.4012 -0.4503  0.0527
  832PF6-    F614843   5.108   0.289   2.876  0.7740 -0.1097  0.1755
  832PF6-    F714844   4.985   0.150   3.135  0.2611  0.5813 -0.2056
  833PF6-    P114845   0.129   2.784   2.624  0.5287 -0.1558 -0.4251
  833PF6-    F214846   0.179   2.692   2.502 -0.0714 -0.0481 -0.6643
  833PF6-    F314847   0.083   2.880   2.744 -0.1052  0.4296  0.0376
  833PF6-    F414848  -0.005   2.698   2.637 -0.0051 -0.2113 -0.0705
  833PF6-    F514849   0.260   2.864   2.594 -0.4444  0.0658  0.1530
  833PF6-    F614850   0.050   2.878   2.523  0.1341 -0.3587  0.2467
  833PF6-    F714851   0.203   2.687   2.733  0.3170 -0.0821  0.3732
  834PF6-    P114852   1.676   3.272   2.010  0.2200  0.0636 -0.3493
  834PF6-    F214853   1.597   3.180   1.904 -0.1286 -0.0542  0.0004
  834PF6-    F314854   1.743   3.357   2.125  0.7502 -0.6332  0.1881
  834PF6-    F414855   1.624   3.401   1.942  0.4733  0.0636 -0.0145
  834PF6-    F514856   1.721   3.139   2.093 -0.2440  0.2257  0.1148
  834PF6-    F614857   1.816   3.269   1.921  0.0262 -0.0901 -0.7914
  834PF6-    F714858   1.539   3.275   2.093  0.3188 -0.2020 -0.3174
  835PF6-    P114859   0.840   3.770   5.231  0.4438  0.0409 -0.2935
  835PF6-    F214860   0.895   3.668   5.115 -0.7540  0.4466 -0.0536
  835PF6-    F314861   0.784   3.867   5.345 -0.2893 -0.6734  0.0726
  835PF6-    F414862   0.819   3.649   5.326  0.0123 -0.3968 -0.1214
  835PF6-    F514863   0.860   3.895   5.137 -0.1422 -0.1047  0.3124
  835PF6-    F614864   0.693   3.751   5.170 -0.0060 -0.1770  0.0371
  835PF6-    F714865   0.990   3.791   5.287 -0.0469  0.2386  0.5589
  836PF6-    P114866   5.393   3.687   4.630  0.0703  0.0449  0.5591
  836PF6-    F214867   5.339   3.786   4.520  0.9117  0.2061  0.8926
  836PF6-    F314868   5.450   3.574   4.727  0.0642 -0.4396 -0.4456
  836PF6-    F414869   5.255   3.600   4.607  0.0974 -0.0075 -0.3259
  836PF6-    F514870   5.524   3.778   4.646  0.4717  0.1813  0.1026
  836PF6-    F614871   5.320   3.761   4.749  0.3587 -0.3927  0.1882
  836PF6-    F714872   5.462   3.605   4.510 -0.1895  0.6236 -0.3218
  837PF6-    P114873   4.583   1.352   2.039  0.1327  0.0655 -0.0211
  837PF6-    F214874   4.531   1.203   2.053  0.0719  0.1068 -0.3851
  837PF6-    F314875   4.640   1.508   2.028  0.1269  0.0034  0.1347
  837PF6-    F414876   4.648   1.341   2.185 -0.3615  0.1883  0.7172
  837PF6-    F514877   4.516   1.357   1.893  0.2255 -0.3103 -0.0743
  837PF6-    F614878   4.446   1.411   2.103 -0.2700  0.0975 -0.1192
  837PF6-    F714879   4.722   1.311   1.968  0.6482  0.1261 -0.4283
  838PF6-    P114880   2.420   1.318   1.245  0.2941  0.2266  0.2863
  838PF6-    F214881   2.365   1.431   1.137 -0.5240 -0.3047 -0.5668
  838PF6-    F314882   2.475   1.205   1.346 -0.5127  0.3333  0.0857
  838PF6-    F414883   2.563   1.397   1.251  0.8947  0.1885  0.4159
  838PF6-    F514884   2.279   1.238   1.236 -0.0491  0.2952  0.4605
  838PF6-    F614885   2.472   1.233   1.121  0.1586 -0.2095 -0.6750
  838PF6-    F714886   2.368   1.400   1.373  0.0367 -0.2777 -0.1423
  839PF6-    P114887   4.614   1.555   4.808 -0.3805 -0.2677 -0.0029
  839PF6-    F214888   4.639   1.675   4.917  0.5585  0.3940 -0.1060
  839PF6-    F314889   4.595   1.443   4.701  0.0978 -0.3695  0.0238
  839PF6-    F414890   4.509   1.489   4.909 -0.4658  0.3465 -0.0834
  839PF6-    F514891   4.718   1.630   4.711  0.1147 -0.0763  0.9353
  839PF6-    F614892   4.735   1.461   4.875 -0.4607  0.5195 -0.1128
  839PF6-    F714893   4.494   1.641   4.745 -0.3451  0.0933  0.6309
  840PF6-    P114894   3.313   1.745   2.175  0.1883 -0.2988 -0.0512
  840PF6-    F214895   3.191   1.689   2.088 -0.1026 -0.0694  0.3576
  840PF6-    F314896   3.434   1.797   2.267 -0.1621  0.6063  0.5577
  840PF6-    F414897   3.286   1.638   2.288  0.2637  0.6948  0.0281
  840PF6-    F514898   3.349   1.858   2.064  0.4020  0.1435  0.0988
  840PF6-    F614899   3.212   1.848   2.249  0.5305 -0.4125 -0.2747
  840PF6-    F714900   3.407   1.645   2.102  0.0807  0.5051 -0.1606
  841PF6-    P114901   2.638   2.583   3.333 -0.0637 -0.1228 -0.0736
  841PF6-    F214902   2.733   2.591   3.202  0.5621 -0.0378  0.1420
  841PF6-    F314903   2.541   2.568   3.458  0.0260 -0.0179 -0.4434
  841PF6-    F414904   2.543   2.695   3.274 -0.0293  0.0780  0.2138
  841PF6-    F514905   2.730   2.466   3.395 -0.3670  0.3553 -0.2912
  841PF6-    F614906   2.722   2.702   3.406 -0.2468 -0.1929  0.1358
  841PF6-    F714907   2.551   2.466   3.261  1.0039  0.2263  0.0622
  842PF6-    P114908   0.662   0.201   5.484  0.4320  0.0976  0.0308
  842PF6-    F214909   0.565   0.157   5.605 -0.1387  0.5353 -0.5783
  842PF6-    F314910   0.756   0.243   5.356 -0.1893 -0.1943 -0.3486
  842PF6-    F414911   0.521   0.241   5.409 -0.2079 -1.4293 -0.1434
  842PF6-    F514912   0.790   0.160   5.569 -0.5289 -0.1978  0.8024
  842PF6-    F614913   0.647   0.054   5.419 -0.3056  0.1390 -0.5150
  842PF6-    F714914   0.660   0.348   5.546 -0.0936 -0.2257 -0.5377
  843PF6-    P114915   3.761   2.524   2.493  0.3019  0.4176  0.3870
  843PF6-    F214916   3.634   2.448   2.552 -0.0358 -1.0194 -0.6853
  843PF6-    F314917   3.884   2.604   2.431 -0.3575 -0.1762  0.0680
  843PF6-    F414918   3.767   2.419   2.369  0.4126 -0.3825 -0.0626
  843PF6-    F514919   3.748   2.623   2.613  0.1017 -0.5710 -0.0227
  843PF6-    F614920   3.863   2.441   2.587  0.1780  0.0502 -0.2880
  843PF6-    F714921   3.659   2.617   2.415  0.4715 -0.0886  0.0423
  844PF6-    P114922   2.262   4.082   2.022  0.3730 -0.0403 -0.5123
  844PF6-    F214923   2.174   4.057   2.151 -0.3231  0.0376 -0.2773
  844PF6-    F314924   2.342   4.115   1.887 -0.7326  0.5090  0.5031
  844PF6-    F414925   2.139   4.162   1.963  0.2392  0.8184 -0.0068
  844PF6-    F514926   2.388   4.001   2.079  0.5580 -0.6701 -0.2447
  844PF6-    F614927   2.204   3.947   1.962 -0.2880 -0.5392 -0.1638
  844PF6-    F714928   2.313   4.220   2.090 -0.1349  0.3800  0.5574
  845PF6-    P114929   3.325   5.165   1.852 -0.6754  0.0172  0.0160
  845PF6-    F214930   3.342   5.020   1.920  0.1297 -0.0347  0.4800
  845PF6-    F314931   3.310   5.301   1.773 -0.5206  0.2142  0.3132
  845PF6-    F414932   3.465   5.211   1.905  0.0105 -0.0798 -0.7509
  845PF6-    F514933   3.179   5.113   1.798 -0.5645 -0.1244  0.3816
  845PF6-    F614934   3.256   5.227   1.982  0.1191  0.2238  0.3681
  845PF6-    F714935   3.396   5.097   1.727 -0.0047  0.0361 -0.2791
  846PF6-    P114936   0.025   2.938   0.292 -0.4022  0.1629 -0.1272
  846PF6-    F214937  -0.023   3.038   0.179 -0.3667  0.2656 -0.4395
  846PF6-    F314938   0.082   2.840   0.404  0.3378  0.0121 -0.3806
  846PF6-    F414939   0.039   3.061   0.392  0.1059 -0.0450 -0.9870
  846PF6-    F514940   0.004   2.822   0.183 -0.1725 -0.1636  0.4027
  846PF6-    F614941   0.177   2.960   0.243  0.6332 -0.0967  0.0118
  846PF6-    F714942  -0.122   2.916   0.343 -0.3008 -0.1591 -0.0469
  847PF6-    P114943   0.445   3.907   3.655 -0.2916 -0.0466  0.2528
  847PF6-    F214944   0.537   3.773   3.658  0.3684  0.0083 -0.2445
  847PF6-    F314945   0.348   4.034   3.649  0.1032  0.0393 -0.0697
  847PF6-    F414946   0.527   3.972   3.775 -0.1305  0.6666 -0.5061
  847PF6-    F514947   0.365   3.841   3.532 -0.4234  0.2812 -0.5226
  847PF6-    F614948   0.342   3.841   3.764 -0.3821 -0.0495  0.8256
  847PF6-    F714949   0.544   3.984   3.556 -0.1993 -0.7115 -0.0636
  848PF6-    P114950   2.436   1.692   3.048 -0.0074  0.0857  0.2677
  848PF6-    F214951   2.586   1.687   3.115 -0.2530 -0.0307 -0.1080
  848PF6-    F314952   2.285   1.699   2.984 -0.1470 -0.0908 -0.3413
  848PF6-    F414953   2.393   1.811   3.148 -0.5323 -0.3715  0.2301
  848PF6-    F514954   2.478   1.574   2.945  0.1048  0.0364  0.4620
  848PF6-    F614955   2.392   1.577   3.157  0.5578  0.3888  0.2978
  848PF6-    F714956   2.488   1.802   2.938 -0.9193  0.5898 -0.1330
  849PF6-    P114957   0.776   5.096   2.849  0.2981  0.1495 -0.7249
  849PF6-    F214958   0.749   5.202   2.975  1.1227  0.0171 -0.5420
  849PF6-    F314959   0.808   4.992   2.735  0.1343  0.2143  0.3208
  849PF6-    F414960   0.904   5.182   2.800  0.4828  0.1283  0.7447
  849PF6-    F514961   0.647   5.018   2.896  0.2026  0.0283 -0.1307
  849PF6-    F614962   0.674   5.184   2.753  0.2380  0.0897  0.4304
  849PF6-    F714963   0.865   5.015   2.952 -0.1476 -0.1019 -0.1357
  850PF6-    P114964   2.249   2.694   5.379  0.2818  0.1968 -0.1550
  850PF6-    F214965   2.395   2.756   5.360 -0.2278  0.2076 -0.1484
  850PF6-    F314966   2.098   2.641   5.409 -0.1008  0.0544 -0.2505
  850PF6-    F414967   2.291   2.549   5.322  0.0618  0.0285 -0.0281
  850PF6-    F514968   2.210   2.837   5.437  0.1550 -0.5437 -0.0836
  850PF6-    F614969   2.207   2.745   5.237  0.0798  0.3110 -0.8076
  850PF6-    F714970   2.288   2.644   5.530 -0.0967 -0.4788  0.2329
  851PF6-    P114971   0.241   2.013   2.917  0.0564  0.2419  0.0131
  851PF6-    F214972   0.153   2.121   2.995 -0.8467 -0.7995 -0.0708
  851PF6-    F314973   0.345   1.910   2.850  0.7751  0.0069  0.0942
  851PF6-    F414974   0.367   2.085   2.978 -0.3477 -0.1801 -0.0710
  851PF6-    F514975   0.107   1.945   2.854 -0.1502  0.2070  0.5547
  851PF6-    F614976   0.249   2.112   2.787  0.0286 -0.0275  0.2619
  851PF6-    F714977   0.237   1.910   3.042  0.4021 -0.0188  0.0131
  852PF6-    P114978   4.614   3.305   2.602 -0.0697  0.4519 -0.1493
  852PF6-    F214979   4.467   3.349   2.544 -0.3091 -0.8001  0.3519
  852PF6-    F314980   4.753   3.272   2.677 -0.7007  0.1340  1.0743
  852PF6-    F414981   4.686   3.329   2.464  0.3262 -0.3169  0.3582
  852PF6-    F514982   4.541   3.285   2.743  0.2174  0.8092  0.3513
  852PF6-    F614983   4.590   3.151   2.572  0.1828  0.4183 -0.4564
  852PF6-    F714984   4.638   3.454   2.638  0.0210  0.1905 -0.5131
  853PF6-    P114985   5.029   2.217   0.921  0.1863  0.0811  0.0380
  853PF6-    F214986   4.928   2.099   0.976 -0.3284 -0.2869  0.0455
  853PF6-    F314987   5.126   2.325   0.852 -0.0131 -0.4670 -0.2271
  853PF6-    F414988   4.999   2.165   0.770  1.0348 -0.8053 -0.1157
  853PF6-    F514989   5.051   2.271   1.073  0.1655 -0.3299  0.3101
  853PF6-    F614990   5.152   2.113   0.945  0.1401 -0.3433  0.0296
  853PF6-    F714991   4.904   2.320   0.902 -0.0351 -0.4246  0.7905
  854PF6-    P114992   4.971   2.640   4.710 -0.4182  0.0424  0.2431
  854PF6-    F214993   4.971   2.755   4.592 -0.3860  0.4058 -0.1595
  854PF6-    F314994   4.970   2.523   4.820 -0.0956 -0.1078 -0.2220
  854PF6-    F414995   4.940   2.755   4.823  0.3631  0.1719  0.2679
  854PF6-    F514996   5.008   2.527   4.605 -0.0155 -0.3819  0.1058
  854PF6-    F614997   5.123   2.662   4.746 -0.1416  0.1564  0.4109
  854PF6-    F714998   4.813   2.618   4.684  0.0436  0.5415 -0.3492
  855PF6-    P114999   1.663   1.742   0.357  0.2311 -0.3204  0.0934
  855PF6-    F215000   1.653   1.836   0.224 -0.0707 -0.1153  0.1849
  855PF6-    F315001   1.674   1.663   0.489  0.5045  0.0144 -0.3410
  855PF6-    F415002   1.748   1.860   0.429 -0.2117  0.2616  0.1594
  855PF6-    F515003   1.572   1.627   0.290 -0.8089 -0.7029  0.0202
  855PF6-    F615004   1.793   1.669   0.301 -0.3041  0.6172  0.1887
  855PF6-    F715005   1.526   1.810   0.412  0.4235  0.4502  0.0455
  856PF6-    P115006   3.181   3.989   2.776  0.0133  0.1120 -0.2574
  856PF6-    F215007   3.148   4.127   2.718 -0.3362 -0.7762 -0.4056
  856PF6-    F315008   3.216   3.849   2.838  0.1111  0.3076 -0.2027
  856PF6-    F415009   3.327   4.007   2.716  0.2613  0.0574  0.1215
  856PF6-    F515010   3.025   3.979   2.825 -0.2329 -0.6889  0.0864
  856PF6-    F615011   3.135   3.920   2.641 -0.5194  0.1519 -0.1211
  856PF6-    F715012   3.226   4.056   2.912  0.3147  0.6942  0.1532
  857PF6-    P115013   4.086   0.848   3.785  0.1275  0.1688  0.2583
  857PF6-    F215014   3.930   0.870   3.826 -0.0899  0.6648  0.1924
  857PF6-    F315015   4.240   0.820   3.756 -0.0023 -0.7094 -0.0166
  857PF6-    F415016   4.062   0.693   3.791  0.6298 -0.0840 -0.3321
  857PF6-    F515017   4.107   1.002   3.780  0.2452 -0.6646 -0.1122
  857PF6-    F615018   4.127   0.844   3.938  0.3215  0.3338  0.2523
  857PF6-    F715019   4.049   0.851   3.624  0.1007  0.4781  0.0602
  858PF6-    P115020   2.170   2.674   1.118  0.0655 -0.0620  0.3194
  858PF6-    F215021   2.107   2.535   1.173  0.3512 -0.6220 -0.4114
  858PF6-    F315022   2.227   2.809   1.064  0.5679  0.1806 -1.0910
  858PF6-    F415023   2.277   2.667   1.232 -0.8175 -0.4249 -0.1759
  858PF6-    F515024   2.053   2.678   1.011  0.1520 -0.3612 -0.3678
  858PF6-    F615025   2.073   2.761   1.216 -0.8196 -0.4636 -0.6420
  858PF6-    F715026   2.263   2.590   1.017  0.3706  0.1214  0.2930
  859PF6-    P115027   3.812   4.291   3.497  0.4756  0.3454 -0.0990
  859PF6-    F215028   3.823   4.416   3.591 -0.0866  0.1512 -0.0072
  859PF6-    F315029   3.805   4.162   3.401 -0.1371 -0.6609  0.2574
  859PF6-    F415030   3.929   4.222   3.583 -0.5919  0.1271 -0.1666
  859PF6-    F515031   3.697   4.360   3.416 -0.3535  0.6709 -0.0578
  859PF6-    F615032   3.923   4.359   3.403 -0.2321  0.2532  0.0852
  859PF6-    F715033   3.702   4.225   3.598 -0.0856 -0.3726 -0.1595
  860PF6-    P115034   4.252   1.846   0.794  0.3844 -0.4229 -0.1569
  860PF6-    F215035   4.388   1.850   0.704 -0.2030  0.5830  0.1004
  860PF6-    F315036   4.116   1.846   0.876  0.0879  0.7719 -0.2933
  860PF6-    F415037   4.221   1.998   0.744 -0.1456  0.3089 -0.4666
  860PF6-    F515038   4.281   1.695   0.840  0.0710 -0.1719 -0.3761
  860PF6-    F615039   4.329   1.906   0.925  0.0728 -0.1264  0.5766
  860PF6-    F715040   4.175   1.783   0.671 -0.0152 -0.2542 -0.5944
  861PF6-    P115041   0.149   2.048   1.960 -0.1746  0.1846 -0.2335
  861PF6-    F215042   0.169   2.158   1.845 -0.4765 -0.1497  0.0987
  861PF6-    F315043   0.133   1.928   2.071  0.3606 -0.1203 -0.0044
  861PF6-    F415044   0.017   1.986   1.893  0.5630 -0.1453 -0.0972
  861PF6-    F515045   0.281   2.103   2.030 -0.3439 -0.2442 -0.2783
  861PF6-    F615046   0.056   2.149   2.044 -0.5793  0.0281  0.3763
  861PF6-    F715047   0.229   1.947   1.871 -0.0016  0.2625 -0.1098
  862PF6-    P115048   3.313   3.523   1.705  0.2985  0.3584  0.4111
  862PF6-    F215049   3.227   3.396   1.766  0.3062 -0.0562  0.9102
  862PF6-    F315050   3.406   3.638   1.646 -0.1617 -0.3550 -0.1298
  862PF6-    F415051   3.436   3.486   1.804 -0.4773  0.2092  0.1842
  862PF6-    F515052   3.199   3.553   1.602 -0.2831 -0.1682  0.7584
  862PF6-    F615053   3.250   3.622   1.810 -0.2931  0.4163  0.2565
  862PF6-    F715054   3.371   3.427   1.593 -0.2646  0.0864 -0.4523
  863PF6-    P115055   1.203   5.098   0.656 -0.3228  0.7821 -0.0346
  863PF6-    F215056   1.109   4.982   0.719  0.1171 -0.5395 -0.8142
  863PF6-    F315057   1.298   5.209   0.583  0.3598 -0.5423  0.6245
  863PF6-    F415058   1.333   5.033   0.733 -0.1970  0.3108 -0.4035
  863PF6-    F515059   1.078   5.168   0.580  0.0530  0.2924 -0.4231
  863PF6-    F615060   1.179   5.194   0.782  0.2619  0.5865  0.4283
  863PF6-    F715061   1.229   4.999   0.530  0.0718 -0.1783  0.1825
  864PF6-    P115062   4.193   3.339   1.753  0.2461  0.1052 -0.3016
  864PF6-    F215063   4.264   3.213   1.818 -0.6157 -0.4352 -0.5218
  864PF6-    F315064   4.132   3.468   1.681  0.3863 -0.4491 -0.3241
  864PF6-    F415065   4.259   3.300   1.613 -0.0617  0.1037 -0.1644
  864PF6-    F515066   4.128   3.381   1.898 -0.1613  0.1875  0.4316
  864PF6-    F615067   4.319   3.427   1.788  0.4442 -0.1655  0.4335
  864PF6-    F715068   4.068   3.251   1.714  0.3800  0.4642  0.4841
  865PF6-    P115069   0.065   2.651   4.106 -0.0715  0.2166  0.1195
  865PF6-    F215070   0.106   2.736   3.973 -0.3487 -0.1676  0.2696
  865PF6-    F315071   0.020   2.575   4.237  0.1452  0.0740 -0.0084
  865PF6-    F415072  -0.063   2.747   4.113  0.0228 -0.0028  0.0719
  865PF6-    F515073   0.196   2.567   4.094  0.6743 -0.0756  0.2906
  865PF6-    F615074   0.150   2.754   4.200 -0.2337 -0.2921 -0.4037
  865PF6-    F715075  -0.023   2.556   4.014 -0.5825 -0.1014 -0.2311
  866PF6-    P115076   4.805   4.174   4.192  0.1037  0.1793 -0.1746
  866PF6-    F215077   4.934   4.113   4.254 -0.0427 -0.6528 -0.5292
  866PF6-    F315078   4.674   4.236   4.129  0.2833 -0.3339 -0.1755
  866PF6-    F415079   4.737   4.027   4.193  0.0206 -0.6045 -1.1633
  866PF6-    F515080   4.878   4.314   4.198 -0.2439 -0.4062  0.1687
  866PF6-    F615081   4.863   4.154   4.048 -0.0909  0.3880  0.5363
  866PF6-    F715082   4.746   4.196   4.338  0.1593  0.0091 -0.8835
  867PF6-    P115083   2.642   1.020   0.016  0.1340  0.0403  0.0725
  867PF6-    F215084   2.498   1.096   0.012 -0.1285  0.0159  0.2002
  867PF6-    F315085   2.790   0.946   0.010 -0.0736  0.4657 -0.6844
  867PF6-    F415086   2.692   1.105   0.136 -0.3210 -0.3252  0.2664
  867PF6-    F515087   2.590   0.925  -0.098  0.1248 -0.0681  0.2950
  867PF6-    F615088   2.699   1.123  -0.089  0.3516  0.0432 -0.4453
  867PF6-    F715089   2.587   0.910   0.126 -0.2988 -0.2202  0.7262
  868PF6-    P115090   3.436   5.356   3.999 -0.1029  0.0288  0.0096
  868PF6-    F215091   3.487   5.459   4.110 -0.4007 -0.2190 -0.0923
  868PF6-    F315092   3.390   5.254   3.891  0.3600  0.2524 -0.5873
  868PF6-    F415093   3.300   5.435   3.994 -0.0862 -0.4027  0.1138
  868PF6-    F515094   3.577   5.268   4.002 -0.2729  0.3738 -0.5562
  868PF6-    F615095   3.372   5.261   4.113 -0.0292  0.4287 -0.5702
  868PF6-    F715096   3.493   5.445   3.879 -0.0717  0.3185  0.5655
  869PF6-    P115097   0.815   1.869   5.128 -0.1149 -0.2192  0.2274
  869PF6-    F215098   0.780   2.023   5.081 -0.2059  0.4974  0.1506
  869PF6-    F315099   0.842   1.721   5.174 -0.2173 -0.4090  0.5404
  869PF6-    F415100   0.658   1.845   5.174  0.6258  0.1341  0.1532
  869PF6-    F515101   0.968   1.896   5.091 -0.2522 -0.0478 -0.4733
  869PF6-    F615102   0.846   1.922   5.276  0.3641 -0.0037 -0.0035
  869PF6-    F715103   0.783   1.818   4.979  0.3888  0.6801  0.1928
  870PF6-    P115104   2.003   4.367   4.459 -0.1694  0.2705 -0.2212
  870PF6-    F215105   2.047   4.268   4.343 -0.1569 -0.0806 -0.2751
  870PF6-    F315106   1.970   4.470   4.576  0.7832 -0.0260 -0.3985
  870PF6-    F415107   1.861   4.292   4.480 -0.3811 -0.2518 -0.0019
  870PF6-    F515108   2.144   4.433   4.433  0.2792 -0.6260  0.1836
  870PF6-    F615109   1.938   4.472   4.361  0.3829 -0.0453 -0.2710
  870PF6-    F715110   2.074   4.266   4.564 -0.1196 -0.5010 -0.0310
  871PF6-    P115111   5.079   0.247   4.296 -0.0321 -0.0549  0.0733
  871PF6-    F215112   4.923   0.210   4.297 -0.1452 -0.0123 -0.1388
  871PF6-    F315113   5.228   0.297   4.292 -0.5157 -0.0783 -0.1462
  871PF6-    F415114   5.053   0.315   4.152 -0.2058 -0.1406  0.2240
  871PF6-    F515115   5.110   0.176   4.441 -0.3961  0.3785  0.5125
  871PF6-    F615116   5.121   0.111   4.226  0.0025  0.3570  0.2489
  871PF6-    F715117   5.046   0.380   4.371 -0.2618  0.0132 -0.4511
  872PF6-    P115118   1.691   3.428   4.415  0.1540  0.1239  0.1509
  872PF6-    F215119   1.630   3.286   4.444 -0.2532  0.2756  0.1841
  872PF6-    F315120   1.753   3.576   4.384  0.5901  0.0246 -0.3237
  872PF6-    F415121   1.689   3.460   4.568 -0.4016 -0.0866 -0.1610
  872PF6-    F515122   1.688   3.399   4.258  0.4609 -0.2162  0.0865
  872PF6-    F615123   1.541   3.490   4.413 -0.1499 -0.4687 -0.1440
  872PF6-    F715124   1.839   3.364   4.425  0.3170 -0.2651  0.1245
  873PF6-    P115125   1.780   5.111   1.183  0.5566  0.5075  0.1644
  873PF6-    F215126   1.679   5.236   1.165  0.1053 -0.0593  0.2955
  873PF6-    F315127   1.872   4.977   1.195 -0.2321 -0.3640  0.0203
  873PF6-    F415128   1.860   5.151   1.049 -0.0938  0.0183 -0.0107
  873PF6-    F515129   1.700   5.071   1.313 -0.1535 -0.0691 -0.2244
  873PF6-    F615130   1.678   5.028   1.095 -0.1784 -0.0503  0.6163
  873PF6-    F715131   1.886   5.198   1.277  0.3722  0.0820 -0.1682
  874PF6-    P115132   2.999   2.168   1.389  0.3064  0.1883 -0.7721
  874PF6-    F215133   2.861   2.238   1.341  0.0002  1.0098 -0.0772
  874PF6-    F315134   3.132   2.089   1.436  0.1817  0.1343  0.1141
  874PF6-    F415135   2.929   2.029   1.375  0.3795  0.4198 -0.4657
  874PF6-    F515136   3.070   2.303   1.419  0.5292  0.1383  0.0168
  874PF6-    F615137   2.941   2.175   1.538 -0.1240  0.1622 -0.0315
  874PF6-    F715138   3.050   2.155   1.237  0.2946 -0.4924  0.4383
  875PF6-    P115139   1.970   3.282   3.124  0.0859 -0.7462  0.0270
  875PF6-    F215140   2.086   3.383   3.079  0.3521  0.4308  0.2844
  875PF6-    F315141   1.853   3.189   3.173  0.4026  0.0130 -0.0782
  875PF6-    F415142   2.071   3.164   3.159  0.2599 -0.1226  0.2454
  875PF6-    F515143   1.864   3.399   3.089  0.0123  0.2165  0.1617
  875PF6-    F615144   1.965   3.230   2.968 -0.1114 -0.5472 -0.2385
  875PF6-    F715145   1.978   3.331   3.280  0.8601  0.1952  0.8141
  876PF6-    P115146   4.445   3.107   3.661  0.1597 -0.1541 -0.1959
  876PF6-    F215147   4.549   3.053   3.552 -0.5483  0.1765 -0.0357
  876PF6-    F315148   4.346   3.173   3.769  0.4320 -0.4193 -0.2162
  876PF6-    F415149   4.428   3.237   3.573  0.0641 -0.6106  1.2061
  876PF6-    F515150   4.469   2.978   3.757 -0.2159 -0.2664 -0.0571
  876PF6-    F615151   4.565   3.173   3.736  0.5311  0.0914  0.0094
  876PF6-    F715152   4.317   3.039   3.591  0.3723  0.6338 -0.4185
  877PF6-    P115153   4.475   4.943   3.880  0.1247 -0.2971 -0.1094
  877PF6-    F215154   4.349   4.964   3.784 -0.0049  0.4667 -0.2811
  877PF6-    F315155   4.604   4.917   3.978  0.5347 -0.0100 -0.2246
  877PF6-    F415156   4.378   4.851   3.979 -0.1986  0.1606  0.1857
  877PF6-    F515157   4.568   5.037   3.791 -0.7460 -0.0694 -0.3217
  877PF6-    F615158   4.427   5.075   3.965 -0.1474  0.1638  0.4079
  877PF6-    F715159   4.521   4.815   3.797 -0.4259  0.2081 -0.0492
  878PF6-    P115160   1.696   1.749   4.402 -0.1590  0.0412 -0.0003
  878PF6-    F215161   1.747   1.806   4.547 -0.6136  0.0940 -0.0212
  878PF6-    F315162   1.644   1.701   4.262  0.0303  0.0152  0.4683
  878PF6-    F415163   1.600   1.878   4.380 -0.0493  0.3268 -0.4567
  878PF6-    F515164   1.790   1.618   4.412 -0.3384  0.3350 -0.2821
  878PF6-    F615165   1.575   1.677   4.473  0.4246 -0.1544  0.0224
  878PF6-    F715166   1.818   1.830   4.327 -0.2405  0.1526 -0.1025
  879PF6-    P115167   3.232   5.024   3.026 -0.1225  0.1877  0.2421
  879PF6-    F215168   3.352   5.114   3.083 -0.2436 -0.0856  0.2221
  879PF6-    F315169   3.110   4.930   2.977  0.3423 -0.5930  0.3958
  879PF6-    F415170   3.244   4.928   3.157 -0.1123 -0.6895 -0.0399
  879PF6-    F515171   3.220   5.119   2.897 -0.1358 -0.0595 -0.0151
  879PF6-    F615172   3.337   4.931   2.946  0.9625 -0.6333  0.1892
  879PF6-    F715173   3.125   5.117   3.101 -0.2148 -0.1372  0.0274
  880PF6-    P115174   2.185   3.392   0.805  0.1647 -0.1348 -0.1737
  880PF6-    F215175   2.217   3.258   0.876 -0.6289  0.5684  0.4722
  880PF6-    F315176   2.153   3.531   0.729 -0.1348  0.8509 -0.1320
  880PF6-    F415177   2.206   3.323   0.665 -0.2807  0.3060 -0.3652
  880PF6-    F515178   2.165   3.467   0.949  0.3566 -0.0239 -0.0911
  880PF6-    F615179   2.339   3.430   0.812  0.0120  0.2377 -0.5270
  880PF6-    F715180   2.028   3.354   0.805 -0.0518  0.4870  0.7333
  881PF6-    P115181   1.220   0.789   3.537  0.1752  0.0247  0.1484
  881PF6-    F215182   1.262   0.869   3.401  0.4538 -0.2920  0.3186
  881PF6-    F315183   1.178   0.716   3.674  0.0784  0.1956  0.0737
  881PF6-    F415184   1.115   0.903   3.570 -0.3472 -0.3048  0.7833
  881PF6-    F515185   1.326   0.673   3.510 -0.1413  0.7461  0.0995
  881PF6-    F615186   1.336   0.867   3.610  0.4114 -0.6531 -0.2257
  881PF6-    F715187   1.103   0.716   3.455  0.3125 -0.0964 -0.4188
  882PF6-    P115188   5.361   4.169   0.624 -0.2035 -0.4927  0.0780
  882PF6-    F215189   5.402   4.022   0.626  0.1695  0.0494  0.1491
  882PF6-    F315190   5.312   4.316   0.627 -0.3338  0.2665  0.1019
  882PF6-    F415191   5.205   4.111   0.631  0.1640 -0.5344 -0.3187
  882PF6-    F515192   5.518   4.219   0.626  0.5498 -0.0977 -0.1521
  882PF6-    F615193   5.361   4.167   0.462 -0.0495 -0.0660  0.4352
  882PF6-    F715194   5.357   4.164   0.783  0.1213  0.0852  0.7384
  883PF6-    P115195   3.630   0.342   1.287 -0.0162 -0.0221 -0.5848
  883PF6-    F215196   3.515   0.410   1.201  0.3966 -0.6354 -0.7266
  883PF6-    F315197   3.751   0.285   1.372 -0.3081 -0.5099 -0.1208
  883PF6-    F415198   3.720   0.456   1.231 -0.5984  0.4256 -0.1568
  883PF6-    F515199   3.534   0.229   1.345 -0.0421 -0.0764 -0.4110
  883PF6-    F615200   3.662   0.246   1.169 -0.2098 -0.1424  0.5302
  883PF6-    F715201   3.586   0.432   1.412  0.3291 -0.3608 -0.3383
  884PF6-    P115202   3.043   2.875   2.240 -0.2507  0.0422  0.2184
  884PF6-    F215203   3.129   2.818   2.118 -1.0743 -0.0375  0.1400
  884PF6-    F315204   2.963   2.926   2.366 -0.3298 -0.1938  0.2274
  884PF6-    F415205   3.179   2.878   2.334 -0.0542 -0.5507 -0.1996
  884PF6-    F515206   2.908   2.877   2.150  0.0454 -0.2868  1.0164
  884PF6-    F615207   3.012   2.726   2.282 -0.3649 -0.0967  0.1074
  884PF6-    F715208   3.069   3.026   2.186 -0.0358  0.1351 -0.2417
  885PF6-    P115209   5.231   3.355   1.166 -0.0049 -0.0494  0.4023
  885PF6-    F215210   5.212   3.255   1.289  0.0228 -0.5916 -0.3549
  885PF6-    F315211   5.240   3.451   1.043 -0.0388  0.4248  0.0519
  885PF6-    F415212   5.391   3.343   1.163  0.4656 -0.0134 -0.7824
  885PF6-    F515213   5.073   3.367   1.160 -0.4880  0.0953  0.7946
  885PF6-    F615214   5.240   3.478   1.265  0.0884  0.0020  0.4859
  885PF6-    F715215   5.224   3.228   1.072 -0.2549  0.4247 -0.2478
  886PF6-    P115216   2.622   0.063   0.718 -0.3711 -0.1764 -0.4723
  886PF6-    F215217   2.547   0.053   0.578  0.4542  0.0165 -0.0612
  886PF6-    F315218   2.702   0.069   0.856  0.0043  0.0312  0.2329
  886PF6-    F415219   2.515   0.171   0.769  0.3852 -0.2052  0.9903
  886PF6-    F515220   2.732  -0.043   0.659 -0.4228 -0.1321 -0.0796
  886PF6-    F615221   2.712   0.183   0.657  0.8310 -0.0723  0.0964
  886PF6-    F715222   2.530  -0.056   0.776 -0.5002  0.1406  0.5722
  887PF6-    P115223   1.169   2.483   3.751 -0.2464 -0.2817  0.6878
  887PF6-    F215224   1.297   2.405   3.703  0.1220  0.1053 -0.0199
  887PF6-    F315225   1.046   2.570   3.801 -0.6205 -0.2206  0.3476
  887PF6-    F415226   1.262   2.615   3.772 -0.6297  0.0668 -0.2202
  887PF6-    F515227   1.083   2.352   3.723 -0.1846 -0.3295 -0.1999
  887PF6-    F615228   1.203   2.440   3.907 -0.1443 -0.3488 -0.6945
  887PF6-    F715229   1.144   2.524   3.595  0.2361 -0.0703 -0.6337
  888PF6-    P115230   2.818   0.804   3.589  0.1399 -0.0628 -0.1673
  888PF6-    F215231   2.816   0.913   3.708  0.2490  0.0771 -0.1869
  888PF6-    F315232   2.819   0.687   3.472  0.3082  0.4203  0.0737
  888PF6-    F415233   2.778   0.683   3.688  0.0683 -0.3414 -0.1490
  888PF6-    F515234   2.852   0.923   3.481  0.6034  0.5483 -0.5446
  888PF6-    F615235   2.973   0.784   3.614 -0.1331 -0.4624  0.1968
  888PF6-    F715236   2.662   0.831   3.558 -0.2008 -0.1626 -0.2458
  889PF6-    P115237   2.669   2.213   0.546 -0.3152 -0.0213  0.3126
  889PF6-    F215238   2.672   2.213   0.707  0.2365 -0.3671  0.6008
  889PF6-    F315239   2.664   2.211   0.386  0.3021  0.1042  0.1726
  889PF6-    F415240   2.790   2.115   0.542 -0.1298 -0.0380 -0.5389
  889PF6-    F515241   2.545   2.315   0.551  0.0664  0.3054 -0.1512
  889PF6-    F615242   2.773   2.336   0.543  0.1548 -0.0502 -0.3800
  889PF6-    F715243   2.575   2.086   0.554  0.5251  0.0098  0.3667
  890PF6-    P115244   2.812   4.084   0.011 -0.3598 -0.0759  0.1620
  890PF6-    F215245   2.784   4.088  -0.141 -0.2557 -0.8120  0.6191
  890PF6-    F315246   2.853   4.082   0.166  0.2136 -0.4698 -0.1540
  890PF6-    F415247   2.887   4.221   0.003 -0.0665 -0.1796 -0.0295
  890PF6-    F515248   2.731   3.950   0.032 -0.0083  0.3300  0.0572
  890PF6-    F615249   2.950   4.000  -0.012  0.0018  0.1067 -0.2139
  890PF6-    F715250   2.680   4.166   0.035  0.9785  0.1408  0.2421
  891PF6-    P115251   2.935   2.416   4.262  0.1553 -0.3292 -0.0825
  891PF6-    F215252   3.074   2.362   4.323 -0.4362 -0.1996 -0.2583
  891PF6-    F315253   2.793   2.469   4.202  0.0181 -0.7769  0.1112
  891PF6-    F415254   3.011   2.494   4.148 -0.6004 -0.5527 -0.3014
  891PF6-    F515255   2.858   2.333   4.379 -0.1195  0.0909  0.4862
  891PF6-    F615256   2.947   2.546   4.351  0.0357  0.7970  0.2459
  891PF6-    F715257   2.928   2.284   4.169 -0.0241 -0.1385  0.3854
  892PF6-    P115258   4.408   1.275   2.927 -0.1679  0.0923 -0.4845
  892PF6-    F215259   4.535   1.179   2.913  0.2811 -0.7149 -0.2606
  892PF6-    F315260   4.280   1.373   2.942  0.1531  0.0672  0.1348
  892PF6-    F415261   4.462   1.309   3.078  0.3345 -0.3660  0.3058
  892PF6-    F515262   4.361   1.243   2.777  0.1334 -0.0653  0.1455
  892PF6-    F615263   4.327   1.152   2.981 -0.0195  0.1264  0.1840
  892PF6-    F715264   4.501   1.395   2.880  0.4150 -0.5196  0.1912
  893PF6-    P115265   3.985   0.694   4.936 -0.2631  0.1531  0.0437
  893PF6-    F215266   4.129   0.764   4.957  0.5681 -0.4069 -0.2376
  893PF6-    F315267   3.844   0.623   4.921  0.3631  0.3939  0.5443
  893PF6-    F415268   3.980   0.671   5.092 -0.0462 -0.1885  0.0910
  893PF6-    F515269   3.990   0.719   4.781  0.5220 -0.1734  0.5343
  893PF6-    F615270   4.061   0.552   4.915  0.3718 -0.4694 -0.3660
  893PF6-    F715271   3.926   0.840   4.957  0.2553  0.5475 -0.2503
  894PF6-    P115272   0.370   4.890   4.172  0.3155 -0.1864  0.1690
  894PF6-    F215273   0.370   4.983   4.043  0.5227 -0.1059  0.1127
  894PF6-    F315274   0.371   4.791   4.297 -0.0592  0.0489 -0.2829
  894PF6-    F415275   0.505   4.964   4.216  0.3260 -0.2880 -0.5430
  894PF6-    F515276   0.234   4.819   4.114  0.0171  0.9027  0.7682
  894PF6-    F615277   0.463   4.785   4.098  0.3050 -0.0979  0.0707
  894PF6-    F715278   0.275   4.999   4.248 -0.5881  0.0238  0.0829
  895PF6-    P115279   4.912   4.226   1.576  0.2784 -0.0567  0.2783
  895PF6-    F215280   5.019   4.262   1.460 -0.0622  0.1754  0.2561
  895PF6-    F315281   4.807   4.186   1.689 -0.0714  0.2741  0.2833
  895PF6-    F415282   4.854   4.109   1.481 -0.1706 -0.1525  0.2726
  895PF6-    F515283   4.967   4.347   1.668 -0.0893 -0.2997  0.0401
  895PF6-    F615284   4.795   4.331   1.518 -0.2440  0.1186  0.0984
  895PF6-    F715285   5.016   4.128   1.647 -0.2081 -0.5014 -0.0103
  896PF6-    P115286   1.173   2.951   1.130 -0.0740 -0.0262 -0.1395
  896PF6-    F215287   1.246   2.870   1.244 -0.7445 -0.4362  0.0853
  896PF6-    F315288   1.085   3.032   1.021  0.3318  0.4349  0.1408
  896PF6-    F415289   1.160   2.816   1.043  0.1379  0.1162 -0.0954
  896PF6-    F515290   1.188   3.080   1.225  0.0055  0.0269 -0.3489
  896PF6-    F615291   1.310   2.992   1.053 -0.3487  0.2097 -0.1316
  896PF6-    F715292   1.030   2.920   1.200  0.0210  0.3990  0.4866
  897PF6-    P115293   3.901   3.931   4.138  0.0744 -0.2608  0.0544
  897PF6-    F215294   4.013   3.860   4.058  0.0958  0.1759 -0.3516
  897PF6-    F315295   3.788   4.002   4.226  0.2650 -0.0234  0.1624
  897PF6-    F415296   3.785   3.875   4.053  0.2122  0.8380  0.3089
  897PF6-    F515297   4.015   3.993   4.237  0.0456  0.4655 -0.9226
  897PF6-    F615298   3.911   4.062   4.050 -0.1874  0.5110 -0.0002
  897PF6-    F715299   3.897   3.801   4.232  0.0132  0.2297 -0.2709
  898PF6-    P115300   5.319   4.123   2.421  0.2772 -0.0252 -0.1406
  898PF6-    F215301   5.217   4.209   2.333 -0.0520 -0.1931 -1.2796
  898PF6-    F315302   5.420   4.030   2.499 -0.0994 -0.0295 -0.3461
  898PF6-    F415303   5.264   3.996   2.342 -0.5806 -0.5545 -0.6035
  898PF6-    F515304   5.375   4.259   2.487  0.7020 -0.2178  0.1725
  898PF6-    F615305   5.212   4.111   2.536 -0.0075 -0.5424  0.1926
  898PF6-    F715306   5.433   4.147   2.309 -0.0637  0.2784  0.0635
  899PF6-    P115307   3.810   1.713   1.700  0.3219  0.6286  0.3973
  899PF6-    F215308   3.829   1.777   1.840  0.4270 -0.1098  0.0501
  899PF6-    F315309   3.786   1.636   1.556  0.2701 -0.2361  0.3184
  899PF6-    F415310   3.921   1.605   1.740  0.6434 -0.8450 -0.2254
  899PF6-    F515311   3.688   1.816   1.660 -0.1775 -0.3571 -0.0155
  899PF6-    F615312   3.915   1.811   1.636 -0.1236 -0.8457 -0.6081
  899PF6-    F715313   3.697   1.621   1.770 -0.1280  0.1033  0.1701
  900PF6-    P115314   4.748   1.818   3.612  0.1919  0.1143  0.2512
  900PF6-    F215315   4.601   1.883   3.586 -0.0826 -0.3796  0.5161
  900PF6-    F315316   4.891   1.752   3.645  0.0332  0.5871  0.6572
  900PF6-    F415317   4.685   1.723   3.721  0.0440  0.0147 -0.2704
  900PF6-    F515318   4.809   1.906   3.494  0.2761 -0.1209 -0.7486
  900PF6-    F615319   4.784   1.928   3.717  0.1758 -0.2341 -0.3442
  900PF6-    F715320   4.712   1.703   3.505 -0.3886 -0.3782  0.8666
  901PF6-    P115321   3.485   2.643   3.883  0.0278  0.0697  0.5033
  901PF6-    F215322   3.367   2.652   3.991 -0.3130  0.3743 -0.1832
  901PF6-    F315323   3.618   2.630   3.781  0.5192 -0.3407 -0.7551
  901PF6-    F415324   3.505   2.493   3.930  0.2343  0.3849 -0.8802
  901PF6-    F515325   3.452   2.790   3.836  0.5793 -0.0383 -0.4683
  901PF6-    F615326   3.588   2.696   4.000  0.0932 -0.0882 -0.1406
  901PF6-    F715327   3.386   2.584   3.770  0.2572 -0.3709  0.4876
  902PF6-    P115328   5.165   0.168   0.057  0.3882 -0.4041 -0.1004
  902PF6-    F215329   5.151   0.023   0.135 -0.2516 -0.2613  0.1827
  902PF6-    F315330   5.180   0.309  -0.016 -0.5328 -0.0662 -0.1390
  902PF6-    F415331   5.064   0.237   0.162  0.4790  0.3147  0.0083
  902PF6-    F515332   5.265   0.106  -0.053  0.2592 -0.1243  0.7235
  902PF6-    F615333   5.039   0.134  -0.035  0.4633 -0.4104  0.1725
  902PF6-    F715334   5.281   0.200   0.157  0.1193 -0.1613  0.1745
  903PF6-    P115335   1.684   1.757   2.070 -0.1175 -0.3521 -0.5899
  903PF6-    F215336   1.664   1.903   2.139  0.0028 -0.0347  0.0241
  903PF6-    F315337   1.710   1.616   2.000 -0.0142  0.7158  0.0618
  903PF6-    F415338   1.538   1.712   2.109 -0.3298 -0.6100  0.1704
  903PF6-    F515339   1.832   1.799   2.028 -0.1514  0.4378  0.1344
  903PF6-    F615340   1.742   1.701   2.204  0.1101 -0.4648  0.3177
  903PF6-    F715341   1.622   1.817   1.933 -0.2703 -0.2424 -0.2384
  904PF6-    P115342   1.139   1.953   2.828  0.0649  0.1071  0.2150
  904PF6-    F215343   1.105   2.092   2.904 -0.1155  0.7462  0.3375
  904PF6-    F315344   1.168   1.812   2.755 -0.7195  0.5450  0.3507
  904PF6-    F415345   1.280   2.012   2.779 -0.4453 -0.3504  0.2709
  904PF6-    F515346   1.005   1.897   2.889  0.0808  0.0025  0.5075
  904PF6-    F615347   1.061   2.008   2.701 -0.1009  0.1011 -0.3463
  904PF6-    F715348   1.219   1.900   2.959 -0.0463  0.0738  0.1555
  905PF6-    P115349   4.356   4.586   2.641 -0.2944  0.1400 -0.0020
  905PF6-    F215350   4.454   4.450   2.634  0.0307  0.1038 -0.5980
  905PF6-    F315351   4.262   4.715   2.647 -0.2420 -0.2489  0.5938
  905PF6-    F415352   4.277   4.531   2.775 -0.2219 -0.6187 -0.0730
  905PF6-    F515353   4.428   4.645   2.509 -0.3065  0.1063  0.0521
  905PF6-    F615354   4.252   4.510   2.544 -0.6644  0.1514 -0.2072
  905PF6-    F715355   4.464   4.665   2.733 -0.1150 -0.0204  0.3115
  906PF6-    P115356   0.874   2.013   0.831  0.3548  0.0211  0.2497
  906PF6-    F215357   0.777   1.887   0.856 -0.2455 -0.2386  0.0851
  906PF6-    F315358   0.974   2.138   0.808 -1.0967  0.1964  0.2954
  906PF6-    F415359   0.768   2.061   0.714  0.2361 -0.0006 -0.3262
  906PF6-    F515360   0.970   1.954   0.951 -0.2370 -0.1252 -0.3879
  906PF6-    F615361   0.955   1.927   0.718 -0.5705 -0.2417  0.6968
  906PF6-    F715362   0.793   2.096   0.935  0.4454  0.1638  0.2564
  907PF6-    P115363   4.073   2.031   4.511 -0.0283 -0.1004 -0.4874
  907PF6-    F215364   3.938   2.119   4.528 -0.5833 -0.0902  0.0934
  907PF6-    F315365   4.203   1.938   4.496  0.1079  0.3959  0.4165
  907PF6-    F415366   4.004   1.903   4.576 -0.0617  0.0133 -0.3519
  907PF6-    F515367   4.147   2.156   4.440  0.3392 -0.4884  0.2191
  907PF6-    F615368   4.135   2.077   4.653 -0.0563 -0.0446 -0.1602
  907PF6-    F715369   4.023   1.981   4.363  0.6115 -0.2719 -0.5046
  908PF6-    P115370   4.718   1.977   2.780 -0.3023 -0.1703  0.0524
  908PF6-    F215371   4.660   2.018   2.925  0.1322  0.1898 -0.1615
  908PF6-    F315372   4.779   1.936   2.639  0.4784  0.4799  0.1348
  908PF6-    F415373   4.575   2.005   2.706  0.2908 -0.7138  0.5627
  908PF6-    F515374   4.866   1.944   2.846  0.2169  0.0586 -0.5231
  908PF6-    F615375   4.668   1.828   2.808  0.2333 -0.4185 -0.3815
  908PF6-    F715376   4.766   2.126   2.760 -0.3485  0.0421 -0.2549
  909PF6-    P115377   3.092   4.821   4.697  0.1695  0.3356 -0.1438
  909PF6-    F215378   3.165   4.926   4.591 -0.6139 -0.2699 -0.4336
  909PF6-    F315379   3.009   4.720   4.793 -0.0921  0.5992  0.1433
  909PF6-    F415380   2.976   4.932   4.722 -0.3111 -0.2256  0.2015
  909PF6-    F515381   3.201   4.708   4.671 -0.1214 -0.6824 -0.1267
  909PF6-    F615382   3.171   4.877   4.823 -0.2914 -0.4626  0.1905
  909PF6-    F715383   3.008   4.767   4.574  0.2370 -0.7865 -0.1161
  910PF6-    P115384   1.695   3.851   1.216 -0.1869 -0.1684  0.1837
  910PF6-    F215385   1.822   3.949   1.188  0.3287  0.5000  0.4385
  910PF6-    F315386   1.571   3.747   1.232 -0.1276 -0.1757  0.0273
  910PF6-    F415387   1.596   3.950   1.126 -0.1246  0.0944 -0.4334
  910PF6-    F515388   1.782   3.757   1.313  0.4959  0.0006  0.0209
  910PF6-    F615389   1.656   3.935   1.351 -0.5646 -0.0981 -0.2239
  910PF6-    F715390   1.740   3.767   1.083  0.1590  0.3329  0.4370
  911PF6-    P115391   3.046   4.219   1.560  0.1704 -0.0691  0.4520
  911PF6-    F215392   2.892   4.203   1.545  0.6839  0.0524  0.5693
  911PF6-    F315393   3.206   4.218   1.579 -0.0560 -0.1155  0.1765
  911PF6-    F415394   3.057   4.058   1.546  0.5707 -0.3228 -0.2090
  911PF6-    F515395   3.041   4.385   1.583  0.3531  0.2139  0.0654
  911PF6-    F615396   3.021   4.201   1.723 -0.1651 -0.1978  0.1736
  911PF6-    F715397   3.054   4.237   1.400  0.9919 -0.1412  0.3944
  912PF6-    P115398   3.137   1.623   3.715 -0.2363  0.2509 -0.5530
  912PF6-    F215399   3.069   1.750   3.646  0.3397  0.1396 -0.3620
  912PF6-    F315400   3.211   1.494   3.790  0.0273  0.2216 -0.2222
  912PF6-    F415401   3.204   1.718   3.824  0.2012 -0.0703 -0.2301
  912PF6-    F515402   3.069   1.529   3.605  0.0982  0.2715  0.0362
  912PF6-    F615403   3.261   1.634   3.618 -0.1473 -0.5053 -0.3219
  912PF6-    F715404   3.004   1.611   3.808 -0.2004 -0.2865 -0.2688
  913PF6-    P115405   0.382   5.317   1.633  0.1120 -0.4448  0.2858
  913PF6-    F215406   0.295   5.426   1.555 -0.0554  0.3153 -0.7834
  913PF6-    F315407   0.469   5.207   1.705 -0.3686 -0.6587 -0.4928
  913PF6-    F415408   0.471   5.440   1.689 -0.1819 -0.1894 -0.2898
  913PF6-    F515409   0.300   5.198   1.565 -0.1138 -0.2890  0.4686
  913PF6-    F615410   0.493   5.310   1.501  0.2762 -0.0248  0.1899
  913PF6-    F715411   0.279   5.322   1.756 -0.3967 -0.3331  0.3259
  914PF6-    P115412   2.865   3.417   4.590 -0.7451  0.0313  0.9581
  914PF6-    F215413   2.885   3.526   4.464  0.3506 -0.0114  0.0323
  914PF6-    F315414   2.847   3.317   4.709 -0.0162  0.0486 -0.4684
  914PF6-    F415415   2.836   3.541   4.690  0.4350 -0.1382  0.1451
  914PF6-    F515416   2.905   3.297   4.486  0.4478  0.0511 -0.3789
  914PF6-    F615417   3.021   3.427   4.627  0.3274 -0.2783  0.4829
  914PF6-    F715418   2.712   3.398   4.559  0.0676  0.4267  0.1338
  915PF6-    P115419   1.511   0.350   1.433  0.4677  0.0350  0.1225
  915PF6-    F215420   1.449   0.412   1.567  0.1656 -0.3088  0.0468
  915PF6-    F315421   1.581   0.303   1.295 -0.3034  0.1046 -0.2807
  915PF6-    F415422   1.639   0.308   1.521 -0.7902 -0.5429 -0.4505
  915PF6-    F515423   1.382   0.392   1.347 -0.5262  0.3665 -0.1458
  915PF6-    F615424   1.580   0.493   1.405  0.0735 -0.1862  0.0623
  915PF6-    F715425   1.443   0.208   1.463  0.1515  0.4390  0.1364
  916PF6-    P115426   2.081   2.398   3.940  0.7239  0.3682 -0.1345
  916PF6-    F215427   2.200   2.499   3.920  0.2251  0.3790  0.3890
  916PF6-    F315428   1.952   2.306   3.947 -0.2595 -0.3760  0.2751
  916PF6-    F415429   1.989   2.528   3.960 -0.2774 -0.6529 -0.1210
  916PF6-    F515430   2.178   2.273   3.918  0.3202  0.4736 -0.2351
  916PF6-    F615431   2.107   2.387   4.100 -0.0228 -0.0429  0.3645
  916PF6-    F715432   2.055   2.410   3.780 -0.0810 -0.4295  0.0732
  917PF6-    P115433   1.759   0.231   0.545  0.0866 -0.1230  0.1699
  917PF6-    F215434   1.817   0.129   0.439 -0.3191  0.1882 -0.1796
  917PF6-    F315435   1.701   0.339   0.655  0.1930  0.3232  0.0161
  917PF6-    F415436   1.833   0.158   0.665  0.4261  0.0787  0.3303
  917PF6-    F515437   1.677   0.311   0.429 -0.3571  0.3177 -0.3719
  917PF6-    F615438   1.630   0.132   0.567 -0.7860 -0.2360  0.2266
  917PF6-    F715439   1.889   0.328   0.528  0.2039 -0.1318  0.3985
  918PF6-    P115440   3.501   2.433   5.067  0.4691 -0.0129  0.2597
  918PF6-    F215441   3.490   2.552   4.958  0.1473 -0.4748 -0.1263
  918PF6-    F315442   3.501   2.316   5.171 -0.7329  0.4425  0.1340
  918PF6-    F415443   3.600   2.360   4.971  0.0741 -0.4100  0.7195
  918PF6-    F515444   3.397   2.514   5.162 -0.0835  0.1297  0.0734
  918PF6-    F615445   3.379   2.370   4.993 -0.8824  0.2772 -0.4156
  918PF6-    F715446   3.623   2.508   5.140  0.1298 -0.3587 -0.2273
  919PF6-    P115447   0.330   0.790   1.820  0.3045 -0.0703 -0.0726
  919PF6-    F215448   0.312   0.643   1.880 -0.4554 -0.1060  0.0315
  919PF6-    F315449   0.348   0.942   1.766  0.0640 -0.0100  0.0325
  919PF6-    F415450   0.174   0.790   1.781  0.2594  0.3095  0.3772
  919PF6-    F515451   0.486   0.780   1.853  0.3754 -0.1630 -0.2655
  919PF6-    F615452   0.359   0.738   1.675  0.3802 -0.2155  0.2048
  919PF6-    F715453   0.292   0.849   1.962  0.1041 -0.3006  0.2797
  920PF6-    P115454   1.919   5.271   4.938  0.0428  0.0050 -0.3471
  920PF6-    F215455   1.849   5.352   5.059 -0.7412  0.2392 -0.7565
  920PF6-    F315456   1.991   5.195   4.818 -0.3509 -0.5633  0.2160
  920PF6-    F415457   1.804   5.161   4.937  0.4591  0.1654  0.3575
  920PF6-    F515458   2.038   5.383   4.940 -0.1279  0.2150  0.0961
  920PF6-    F615459   1.998   5.183   5.039 -0.1616 -0.6719 -0.3155
  920PF6-    F715460   1.841   5.365   4.830  0.0125 -0.2499  0.1860
  921Na+     N115461   3.370   4.640   3.952 -0.3529  0.0750  0.1792
  922Na+     N115462   4.157   1.179   3.605  0.0142  0.1690  0.2163
  923Na+     N115463   2.895   4.867   2.327 -0.2055 -0.1001  0.4032
  924Na+     N115464   3.176   3.385   0.165  0.3976  0.1771  0.0504
  925Na+     N115465   4.990   3.483   4.000  0.0261 -0.6270 -0.1023
  926Na+     N115466   3.871   1.336   4.602  0.4948 -0.4235  0.3065
  927Na+     N115467   3.676   4.440   2.819 -0.5390  0.2731  0.5032
  928Na+     N115468   5.077   2.741   1.353  0.0788 -0.1439  0.2431
  929Na+     N115469   3.102   0.177   3.454  0.2729 -0.1610  0.1279
  930Na+     N115470   4.999   1.378   1.370 -0.4199 -0.2701  0.2089
  931Na+     N115471   2.145   0.489   0.349 -0.3053 -0.2703  0.3812
  932Na+     N115472   4.470   4.282   3.796  0.0128  0.1692  0.7431
  933Na+     N115473   4.601   0.621   5.457  0.3637  0.1415  0.2942
  934Na+     N115474   3.333   1.931   3.843 -0.0644  0.2478  0.2687
  935Na+     N115475   5.094   4.240   2.113 -0.3052 -0.1468  0.0214
  936Na+     N115476   3.242   2.651   2.858  0.4802  0.0242 -0.1469
  937Na+     N115477   1.477   2.126   2.659 -0.5787  0.6365  0.0220
  938Na+     N115478   2.840   2.192   5.376  0.1232  0.2545 -0.6181
  939Na+     N115479   5.423   4.643   2.999 -0.2137 -0.0507 -0.4053
  940Na+     N115480   2.963   4.135   1.952  0.4901 -0.3499  0.6878
  941Na+     N115481   2.566   4.179   4.940  0.0368 -0.4724 -0.0301
  942Na+     N115482   4.046   1.037   2.186 -0.0627  0.3072  0.2941
  943Na+     N115483   3.666   5.473   4.615  0.0160  0.1103 -0.1844
  944Na+     N115484   4.118   0.105   3.719  0.2070  0.0520 -0.0414
  945Na+     N115485   5.104   3.818   0.791 -0.4986 -0.2246  0.7926
  946Na+     N115486   4.027   3.648   3.481  0.0011  0.9823 -0.2365
  947Na+     N115487   3.872   4.697   1.958 -0.1657 -0.2259  0.2807
  948Na+     N115488   5.384   4.412   4.482  0.0787  0.2650  0.1875
  949Na+     N115489   4.796   5.350   4.612 -0.0504  0.2147  0.6288
  950Na+     N115490   2.150   1.396   2.648  0.2277 -0.0431  0.1407
  951Na+     N115491   4.343   3.845   2.285 -0.0482  0.3392 -0.2141
  952Na+     N115492   5.255   3.439   2.517  0.2191 -0.1314  0.4952
  953Na+     N115493   2.557   1.846   1.934 -0.0254 -0.3188 -0.0246
  954Na+     N115494   2.949   0.885   4.807  0.3858  0.0760  0.4164
  955Na+     N115495   4.014   5.497   0.402  0.0617  0.0534  0.2501
  956Na+     N115496   2.030   0.363   1.228 -0.1416 -0.0612 -0.1727
  957Na+     N115497   5.200   2.315   2.522  0.2245 -0.4132 -0.2811
  958Na+     N115498   4.702   2.460   3.312  0.2318  0.1604 -0.6134
  959Na+     N115499   0.101   0.553   0.413  0.1529 -0.1446  0.2469
  960Na+     N115500   4.917   4.997   2.657 -0.7768 -0.1790  0.0118
  961Na+     N115501   3.813   2.435   0.743 -0.2217 -0.3798  0.4739
  962Na+     N115502   4.692   2.101   4.220  0.1559 -0.1576  0.6227
  963Na+     N115503   1.007   1.798   0.126 -0.7920  0.2262  0.0821
  964Na+     N115504   0.563   2.522   3.320 -0.5756 -0.0671 -0.3779
  965Na+     N115505   1.407   5.402   0.053  0.1753  0.0070  0.2755
  966Na+     N115506   2.701   2.255   3.557  0.2843  0.1236 -0.3616
  967Na+     N115507   1.538   3.572   2.675 -0.3204  0.3303 -0.0966
  968Na+     N115508   1.514   3.363   0.551  0.1445  0.1006 -0.4673
  969Na+     N115509   2.438   2.050   1.061  0.0642 -0.7871  0.1803
  970Na+     N115510   2.370   4.955   4.655 -0.2474  0.4154  0.5263
  971Na+     N115511   4.838   2.325   0.682 -0.0201 -0.2691  0.1222
  972Na+     N115512   1.983   5.063   0.602 -1.0328  0.2110 -0.2149
  973Na+     N115513   2.512   3.963   1.111  0.6884 -0.0474 -0.2333
  974Na+     N115514   0.984   4.964   1.261 -0.0277 -0.1597 -0.6255
  975Na+     N115515   3.391   2.133   2.012  0.2911  0.1145  0.0995
  976Na+     N115516   2.502   2.820   0.576 -0.0115  0.0133 -0.4907
  977Na+     N115517   3.758   3.956   1.423 -0.1057  0.3054  0.0980
  978Na+     N115518   3.239   1.465   1.424 -0.0731 -0.0028  0.0308
  979Na+     N115519   0.574   2.014   2.351 -0.1755 -0.2170  0.4859
  980Na+     N115520   1.977   0.908   3.532 -0.1158 -0.4469 -0.3984
  981Na+     N115521   4.549   1.626   2.795  0.3677  0.0681 -0.1834
  982Na+     N115522   2.720   3.208   1.283 -0.1469 -0.1124  0.2978
  983Na+     N115523   0.522   4.120   2.735 -0.4064  0.0178 -0.2802
  984Na+     N115524   0.293   4.902   1.056 -0.4055  0.5433  0.2945
  985Na+     N115525   1.850   2.570   3.398 -0.0636  0.0458 -0.1102
  986Na+     N115526   1.312   2.438   4.154  0.3114  0.5698 -0.2000
  987Na+     N115527   3.716   3.077   1.998 -0.0213  1.1124  0.1722
  988Na+     N115528   0.772   0.364   1.385  0.5230 -0.4379  0.0492
  989Na+     N115529   3.329   3.418   3.982 -0.4323 -0.3306  0.0019
  990Na+     N115530   2.218   3.843   4.434  0.2029  0.1522 -0.0825
  991Na+     N115531   1.330   3.801   1.727  0.0911  0.3446 -0.2514
  992Na+     N115532   3.111   2.710   4.455  0.3958  0.4813  0.1100
  993Na+     N115533   5.273   2.987   4.564 -0.1656  0.2323 -0.3595
  994Na+     N115534   0.227   0.008   2.794 -0.0271  0.1355 -0.3427
  995Na+     N115535   2.287   2.047   4.366  0.0281  0.6092 -0.0082
  996Na+     N115536   0.976   4.873   3.803  0.0455  0.1338 -0.0417
  997Na+     N115537   1.604   2.366   0.764  0.0917 -0.0937  0.1555
  998Na+     N115538   2.404   3.070   3.667  0.3521 -0.2833 -0.1727
  999Na+     N115539   4.900   0.828   3.841 -0.0805  0.2589 -0.2729
 1000Na+     N115540   0.298   3.565   0.172  0.0334  0.3122 -0.2231
 1001Na+     N115541   0.321   0.986   1.102  0.1234  0.0563 -0.0503
 1002Na+     N115542   0.080   1.231   3.315 -0.0375 -0.3220 -0.1758
 1003Na+     N115543   1.314   1.424   4.768  0.0165  0.6745 -0.3643
 1004Na+     N115544   3.222   5.285   1.146  0.0827  0.3192 -0.0852
 1005Na+     N115545   4.050   2.041   5.070 -0.2545  0.5297 -0.0198
 1006Na+     N115546   2.827   3.487   2.316  0.1244  0.4777 -0.3832
 1007Na+     N115547   0.728   0.148   0.689  0.2594 -0.0334  0.6826
 1008Na+     N115548   0.939   2.339   1.444  0.0384 -0.0496 -0.5577
 1009Na+     N115549   1.330   4.046   4.815  0.2336  0.2866 -0.1794
 1010Na+     N115550   1.863   3.107   1.275  0.2092 -0.1619  0.5068
 1011Na+     N115551   0.243   2.327   0.914 -0.0828  0.0733 -0.4288
 1012Na+     N115552   1.485   0.088   2.117  0.2778 -0.1213 -0.3763
 1013Na+     N115553   2.357   1.300   5.418  0.3335 -0.1884  0.3544
 1014Na+     N115554   4.459   4.058   0.082 -0.0944  0.0473 -0.5705
 1015Na+     N115555   0.086   2.244   4.824  0.1457 -0.3629  0.2203
 1016Na+     N115556   2.944   4.942   0.134 -0.5786 -0.4116  0.5166
 1017Na+     N115557   2.779   1.167   3.389 -0.0530 -0.5006 -0.5573
 1018Na+     N115558   1.291   1.546   1.030  0.2546 -0.1671 -0.0840
 1019Na+     N115559   5.130   1.555   2.203  0.2261 -0.1702 -0.6690
 1020Na+     N115560   3.933   2.751   4.563  0.4424 -0.0798  0.0968
   5.50134   5.50134   5.50134
