DG-THF-PF6-Na    Amber RESP
15560
    1DG      C1    1   5.234   2.347   5.068  0.9753  0.3329  0.1742
    1DG      C2    2   6.084   2.289   5.076  0.2215 -0.5114 -0.2845
    1DG      H3    3   5.136   2.372   5.027  1.2467 -0.4258 -0.9764
    1DG      H4    4   5.272   2.438   5.113 -0.4862  1.0934 -0.0675
    1DG      H5    5   5.199   2.287   5.152 -2.9267  1.2198 -0.6008
    1DG      H6    6   6.098   2.208   5.148 -2.3753 -1.0061 -0.2279
    1DG      H7    7   6.170   2.294   5.010  1.1498 -0.5767  0.8970
    1DG      H8    8   6.088   2.379   5.137  2.4023 -1.9013  1.7885
    1DG      O9    9   5.334   2.283   4.989  0.1572  0.5453  0.0758
    1DG     O10   10   5.957   2.285   5.011  0.3321 -0.6218 -0.0135
    1DG     C11   11   5.452   2.251   5.061  0.6586 -0.9567 -0.3357
    1DG     C12   12   5.919   2.151   4.972 -0.3656  0.3070  0.0232
    1DG     H13   13   5.412   2.205   5.151 -0.4006  0.2501 -0.1620
    1DG     H14   14   5.494   2.340   5.107  0.2340 -0.9226 -0.0036
    1DG     H15   15   5.928   2.080   5.054  0.8966 -1.7297 -1.7790
    1DG     H16   16   5.985   2.108   4.897 -0.3875  0.9071 -0.3498
    1DG     C17   17   5.556   2.155   4.993  0.4102  0.0862  0.4009
    1DG     C18   18   5.782   2.141   4.914 -0.5498  0.7822 -0.7987
    1DG     O19   19   5.694   2.186   5.016  0.1100 -0.6387 -0.2854
    1DG     H20   20   5.536   2.152   4.886 -0.8527 -1.5092  0.6489
    1DG     H21   21   5.533   2.054   5.028  0.9295 -0.4687 -0.7933
    1DG     H22   22   5.758   2.199   4.825 -0.2192  0.5152 -1.0626
    1DG     H23   23   5.766   2.037   4.883 -0.3302 -0.1495  1.9596
    2DG      C1   24   1.167   3.230   2.903 -0.4841  0.1604 -0.5603
    2DG      C2   25   0.855   3.421   3.434 -0.1354  0.4363 -0.4278
    2DG      H3   26   1.223   3.315   2.865 -0.1380 -0.8069 -2.3321
    2DG      H4   27   1.159   3.156   2.824 -1.5859  0.7341 -1.0119
    2DG      H5   28   1.234   3.189   2.979 -0.0261 -0.1980 -1.1521
    2DG      H6   29   0.782   3.369   3.497 -1.9261  0.5061 -2.3596
    2DG      H7   30   0.960   3.406   3.463 -0.5506 -1.1168  0.4016
    2DG      H8   31   0.823   3.524   3.445 -1.6420 -0.1005  0.5811
    2DG      O9   32   1.041   3.278   2.950  0.1946  0.5694 -0.4281
    2DG     O10   33   0.830   3.376   3.304  1.2933 -0.2634 -0.0324
    2DG     C11   34   0.961   3.334   2.847  0.4767  0.3255 -0.1214
    2DG     C12   35   0.723   3.442   3.239 -0.3881 -0.7803 -0.0467
    2DG     H13   36   0.952   3.275   2.756 -1.8270  0.2776  0.0713
    2DG     H14   37   1.011   3.427   2.819  3.0114 -1.0633 -0.4050
    2DG     H15   38   0.729   3.551   3.241 -1.6477 -0.6671 -1.1863
    2DG     H16   39   0.627   3.433   3.291 -1.3494 -2.6383 -2.0162
    2DG     C17   40   0.818   3.352   2.893  0.9624  0.6365 -0.1660
    2DG     C18   41   0.705   3.390   3.097 -0.1345 -0.1889  0.8154
    2DG     O19   42   0.824   3.415   3.020  0.3299  0.1068  0.0596
    2DG     H20   43   0.773   3.253   2.902  0.7820  0.4964 -2.1469
    2DG     H21   44   0.758   3.419   2.831  2.2624  2.7931  0.7779
    2DG     H22   45   0.692   3.283   3.115 -0.6756 -0.1438  0.7028
    2DG     H23   46   0.617   3.417   3.040  0.8116 -2.3412 -1.8942
    3DG      C1   47   4.708   2.622   2.478 -0.5608 -0.0577  0.1591
    3DG      C2   48   4.754   2.169   3.076  0.1798  0.0077 -0.1262
    3DG      H3   49   4.815   2.607   2.493 -0.3779  1.3067  0.3159
    3DG      H4   50   4.697   2.723   2.439 -0.9941 -1.2375 -3.0092
    3DG      H5   51   4.667   2.558   2.400 -1.3677 -0.3104  0.7663
    3DG      H6   52   4.753   2.111   2.984 -0.1441  0.4981 -0.4366
    3DG      H7   53   4.856   2.157   3.113  0.2235 -1.7810 -0.7576
    3DG      H8   54   4.685   2.119   3.144 -0.1512  0.3340 -0.2235
    3DG      O9   55   4.647   2.608   2.601  0.9360  0.3964  0.0567
    3DG     O10   56   4.721   2.305   3.065 -0.1573  0.1460 -0.1235
    3DG     C11   57   4.726   2.662   2.706 -0.0090  1.1593  0.6065
    3DG     C12   58   4.583   2.314   3.038 -0.3657 -0.8532  0.4703
    3DG     H13   59   4.743   2.767   2.680 -0.3353  1.2598  0.7987
    3DG     H14   60   4.820   2.607   2.712 -0.5637  0.2142  0.8250
    3DG     H15   61   4.520   2.297   3.125 -0.7197  0.0558  0.3960
    3DG     H16   62   4.560   2.248   2.954  2.1090 -1.6092  0.2972
    3DG     C17   63   4.652   2.634   2.835 -0.5116  0.0583 -0.0607
    3DG     C18   64   4.593   2.467   2.987  0.4607  0.0208  0.2121
    3DG     O19   65   4.659   2.492   2.863  0.0089 -0.6352 -0.1834
    3DG     H20   66   4.549   2.666   2.822 -0.8008 -0.2249  1.3132
    3DG     H21   67   4.698   2.692   2.915 -1.3333  1.4598 -0.5700
    3DG     H22   68   4.491   2.488   2.955  0.5141 -2.4263 -1.8806
    3DG     H23   69   4.633   2.529   3.067  1.8552 -1.1791  0.4892
    4DG      C1   70   3.439   1.423   2.489  0.1832  0.1466 -0.0347
    4DG      C2   71   2.792   1.519   2.220  0.1861  0.2572 -0.1857
    4DG      H3   72   3.488   1.497   2.426  2.5550 -0.6096  0.8314
    4DG      H4   73   3.509   1.340   2.485 -0.8108 -0.7992  1.1438
    4DG      H5   74   3.441   1.471   2.587  0.1868  0.6507 -0.2827
    4DG      H6   75   2.734   1.460   2.292  0.6623  0.3139  0.2510
    4DG      H7   76   2.801   1.616   2.269 -0.0406 -0.1506  0.6966
    4DG      H8   77   2.733   1.528   2.129 -1.0854 -0.7926  0.4840
    4DG      O9   78   3.301   1.389   2.446 -0.0810  0.2167  0.2153
    4DG     O10   79   2.921   1.454   2.214  0.2997  0.7985  0.3066
    4DG     C11   80   3.263   1.269   2.503 -0.4410  0.3042  0.6091
    4DG     C12   81   2.917   1.310   2.212  0.4082  0.8266  0.1594
    4DG     H13   82   3.234   1.289   2.606  2.4221  1.0954  1.3660
    4DG     H14   83   3.346   1.199   2.514  0.3461  1.0483 -0.4050
    4DG     H15   84   2.997   1.273   2.148 -1.4971  0.5598 -2.2253
    4DG     H16   85   2.820   1.276   2.177  0.2970 -0.4967  1.6445
    4DG     C17   86   3.146   1.198   2.434 -0.4665 -0.6178 -0.3896
    4DG     C18   87   2.934   1.245   2.351 -0.1484  0.2192 -0.0914
    4DG     O19   88   3.052   1.302   2.407 -0.2770  0.4327  0.6851
    4DG     H20   89   3.094   1.135   2.506  1.7860  1.3862  3.2937
    4DG     H21   90   3.181   1.151   2.342 -0.9517  2.3624 -2.2254
    4DG     H22   91   2.848   1.276   2.409  0.0248  0.6881 -0.0850
    4DG     H23   92   2.935   1.136   2.342 -1.8727  0.2367 -0.9525
    5DG      C1   93   1.421   1.138   3.329 -0.3313 -0.0215  0.4586
    5DG      C2   94   1.873   0.872   3.751  0.8126 -0.4017 -0.5241
    5DG      H3   95   1.408   1.193   3.422  1.1053  1.7888 -0.3362
    5DG      H4   96   1.379   1.038   3.327  0.6149 -0.4733  1.7307
    5DG      H5   97   1.394   1.199   3.243  0.8963  1.8259  1.3261
    5DG      H6   98   1.941   0.789   3.731  0.6999 -0.9829  1.3596
    5DG      H7   99   1.916   0.944   3.820  1.3435 -0.7767 -0.4525
    5DG      H8  100   1.791   0.822   3.803 -0.1977  3.0798  1.5719
    5DG      O9  101   1.555   1.106   3.312 -0.5191  0.4978 -0.3965
    5DG     O10  102   1.837   0.947   3.635  0.1653  0.0558 -0.3087
    5DG     C11  103   1.629   1.227   3.318  0.2182  0.4425 -0.4140
    5DG     C12  104   1.954   0.958   3.554 -1.2564 -0.4570 -0.2404
    5DG     H13  105   1.593   1.283   3.405  0.1466  0.0471 -0.1892
    5DG     H14  106   1.603   1.306   3.248 -0.1022  1.9536  1.3124
    5DG     H15  107   2.006   0.862   3.547 -0.4445  0.0538 -1.4855
    5DG     H16  108   2.019   1.020   3.616 -2.2633 -0.4101  0.7929
    5DG     C17  109   1.775   1.196   3.329 -0.0163 -0.4108 -0.4927
    5DG     C18  110   1.914   1.024   3.421 -0.1178 -0.1293  0.2329
    5DG     O19  111   1.803   1.102   3.439 -0.3841 -0.1494  0.0178
    5DG     H20  112   1.845   1.278   3.342  0.4605 -1.1965  2.9473
    5DG     H21  113   1.785   1.138   3.237 -0.0694 -0.5628 -0.4031
    5DG     H22  114   2.010   1.061   3.383 -0.7366 -0.0700 -1.3281
    5DG     H23  115   1.879   0.947   3.352 -0.2901  0.4588 -0.3512
    6DG      C1  116   4.628   5.286   4.590 -0.6864  0.3939 -0.2061
    6DG      C2  117   4.713   4.505   4.637 -0.2587 -0.1648  0.2740
    6DG      H3  118   4.520   5.277   4.604 -0.3170 -1.4410  2.1223
    6DG      H4  119   4.647   5.311   4.486 -0.2984  0.5189 -0.1075
    6DG      H5  120   4.662   5.373   4.646 -0.8991  0.4676 -0.1896
    6DG      H6  121   4.638   4.503   4.557 -0.3988  0.1419  0.3954
    6DG      H7  122   4.808   4.456   4.618  0.6758  0.8150  2.1436
    6DG      H8  123   4.665   4.461   4.725 -1.2474  1.3321  0.5343
    6DG      O9  124   4.706   5.177   4.638 -0.2069  0.3178  0.3262
    6DG     O10  125   4.730   4.643   4.685  0.4437 -0.5042  0.5267
    6DG     C11  126   4.847   5.187   4.609  0.5096 -0.2095 -0.3231
    6DG     C12  127   4.760   4.732   4.577  0.0277  1.0561  0.4124
    6DG     H13  128   4.886   5.283   4.642 -1.0605 -0.2388  1.7961
    6DG     H14  129   4.851   5.194   4.500 -0.5726  0.2762 -0.3418
    6DG     H15  130   4.694   4.744   4.491  1.3473  0.7547 -0.6840
    6DG     H16  131   4.854   4.694   4.537 -1.7237 -0.2659 -2.8040
    6DG     C17  132   4.925   5.064   4.662  0.2181  0.7832  0.1024
    6DG     C18  133   4.786   4.870   4.654 -0.2281 -0.0563  0.2656
    6DG     O19  134   4.889   4.942   4.594 -0.7181  0.2579  0.2500
    6DG     H20  135   4.896   5.042   4.765 -0.5159 -2.3821 -0.6556
    6DG     H21  136   5.032   5.078   4.653  0.2041 -0.0043 -1.6665
    6DG     H22  137   4.697   4.932   4.645  1.0723  1.6416 -1.6705
    6DG     H23  138   4.796   4.855   4.762 -1.1160  0.1699  0.3910
    7DG      C1  139   0.023   3.527   0.638 -0.3368 -0.4812 -0.1742
    7DG      C2  140  -0.059   3.686  -0.135 -0.6758 -0.9640  0.5538
    7DG      H3  141   0.105   3.527   0.710 -0.0918  3.6434 -0.2456
    7DG      H4  142  -0.012   3.425   0.619 -3.1300  0.8430 -3.0672
    7DG      H5  143  -0.063   3.576   0.684 -1.1009 -1.4436 -0.5359
    7DG      H6  144   0.019   3.733  -0.195 -2.1127  0.9547  0.0644
    7DG      H7  145  -0.057   3.579  -0.153 -1.1014 -0.9380  0.3167
    7DG      H8  146  -0.155   3.722  -0.174  0.4018 -0.8623 -2.2455
    7DG      O9  147   0.039   3.593   0.517 -0.1256 -0.1262  0.1164
    7DG     O10  148  -0.049   3.727  -0.005 -0.1690 -0.1387 -0.4650
    7DG     C11  149   0.149   3.549   0.442 -0.8806  0.0944 -0.4026
    7DG     C12  150  -0.120   3.650   0.091  0.8881 -0.2819 -0.4805
    7DG     H13  151   0.126   3.449   0.406  1.3606 -0.8519  0.5926
    7DG     H14  152   0.226   3.534   0.517 -0.8886 -0.9732 -0.5842
    7DG     H15  153  -0.124   3.546   0.058 -1.2974 -0.5601  0.4967
    7DG     H16  154  -0.224   3.680   0.083  0.5822 -1.3692 -0.6676
    7DG     C17  155   0.173   3.643   0.326 -1.6434 -0.3979 -0.0302
    7DG     C18  156  -0.047   3.653   0.229 -0.2418 -0.0496 -0.0023
    7DG     O19  157   0.090   3.611   0.216 -0.0009  0.7488  0.0899
    7DG     H20  158   0.275   3.613   0.299 -1.7117  0.5433 -1.4258
    7DG     H21  159   0.179   3.750   0.347  1.2025 -0.7792  1.6553
    7DG     H22  160  -0.049   3.753   0.272  0.2128 -0.2952  0.5916
    7DG     H23  161  -0.096   3.589   0.302  1.2337 -0.4577  0.6609
    8DG      C1  162   3.678   4.903   2.007  0.6441  0.3815  0.0200
    8DG      C2  163   3.781   5.087   1.370 -0.2668 -0.2911 -0.6449
    8DG      H3  164   3.766   4.960   1.979  0.2758  0.9376 -0.0139
    8DG      H4  165   3.712   4.839   2.089 -0.3532  0.2932  0.3849
    8DG      H5  166   3.620   4.989   2.039  1.9371  1.2971 -0.0336
    8DG      H6  167   3.753   5.083   1.264  0.9744 -0.2288 -0.9907
    8DG      H7  168   3.717   5.146   1.435  0.4668  0.2569 -0.4151
    8DG      H8  169   3.878   5.136   1.377 -0.0584 -0.8950  1.0498
    8DG      O9  170   3.632   4.834   1.892 -0.6200 -0.3408 -0.5170
    8DG     O10  171   3.781   4.960   1.425 -0.4594 -0.5136  0.6191
    8DG     C11  172   3.736   4.745   1.840 -0.5161  0.5388 -0.1039
    8DG     C12  173   3.675   4.881   1.387  0.3039 -0.6838  0.0933
    8DG     H13  174   3.748   4.670   1.919  1.2405  1.1746  0.2723
    8DG     H14  175   3.835   4.786   1.819 -0.1105 -0.8303 -1.0163
    8DG     H15  176   3.687   4.858   1.281 -0.2941  1.0941 -0.3954
    8DG     H16  177   3.579   4.929   1.407 -0.3388 -1.5840 -0.7348
    8DG     C17  178   3.692   4.681   1.705 -0.6416  0.3082  0.4989
    8DG     C18  179   3.682   4.754   1.480  0.5450  0.0916 -0.3534
    8DG     O19  180   3.696   4.792   1.614 -0.1396  0.2209  0.2031
    8DG     H20  181   3.591   4.641   1.714 -1.5339  2.2153 -0.5061
    8DG     H21  182   3.762   4.603   1.674 -0.1269  1.6164 -1.8066
    8DG     H22  183   3.597   4.687   1.469  1.2078 -0.9545  0.6943
    8DG     H23  184   3.769   4.697   1.446  1.2808 -0.2791  1.9821
    9DG      C1  185   2.095   1.304   4.217 -0.4261  0.4954  0.9953
    9DG      C2  186   2.726   1.030   4.222  0.3496  0.2495  0.6196
    9DG      H3  187   2.121   1.313   4.322 -1.4418  4.0976  1.0915
    9DG      H4  188   1.997   1.262   4.198 -0.3123  0.2043  1.0508
    9DG      H5  189   2.082   1.412   4.201 -1.9374  0.1555 -0.4157
    9DG      H6  190   2.798   1.016   4.302  0.8245  0.9807  0.3321
    9DG      H7  191   2.629   1.001   4.263  0.5486  0.2563  1.0994
    9DG      H8  192   2.759   0.964   4.142 -0.9992  2.3481 -1.8746
    9DG      O9  193   2.193   1.247   4.132  0.2021 -0.1467 -0.3062
    9DG     O10  194   2.724   1.166   4.179 -0.4621 -0.0540 -0.0670
    9DG     C11  195   2.213   1.112   4.173  0.5180  0.5385  0.4174
    9DG     C12  196   2.682   1.180   4.039 -0.2569 -0.1807  0.2772
    9DG     H13  197   2.122   1.054   4.158  0.9273 -0.1185  0.4316
    9DG     H14  198   2.239   1.106   4.279  1.3354 -1.0154  0.1544
    9DG     H15  199   2.745   1.130   3.966 -0.1302 -0.7898  0.7907
    9DG     H16  200   2.676   1.286   4.014 -1.2872 -0.0293  1.0974
    9DG     C17  201   2.330   1.060   4.089  0.7733 -0.6704  0.7862
    9DG     C18  202   2.546   1.108   4.009  0.0946  0.3875  1.0984
    9DG     O19  203   2.437   1.149   4.096  0.2422  0.0808 -0.3770
    9DG     H20  204   2.298   1.043   3.986 -0.2990 -0.8144  1.1338
    9DG     H21  205   2.346   0.959   4.127 -1.7606 -2.1517 -1.6868
    9DG     H22  206   2.515   1.153   3.914 -1.5313 -0.4275  1.2119
    9DG     H23  207   2.559   1.000   4.000  1.4548  0.5463  1.0374
   10DG      C1  208   2.556   0.048   2.275  0.4800 -0.0258 -0.0719
   10DG      C2  209   2.953   0.258   1.562 -0.6240  0.2690 -0.1088
   10DG      H3  210   2.475  -0.024   2.269  1.3746 -0.9682 -1.5512
   10DG      H4  211   2.516   0.120   2.346  0.6132 -3.0040  3.2627
   10DG      H5  212   2.640  -0.008   2.316 -0.5013 -2.4448 -1.2007
   10DG      H6  213   3.008   0.345   1.598  0.7397 -1.0575  1.1588
   10DG      H7  214   3.033   0.186   1.542 -1.4876 -0.2099 -2.0672
   10DG      H8  215   2.901   0.273   1.467 -1.4064  0.0082  0.2740
   10DG      O9  216   2.572   0.098   2.142 -0.6371  0.3798  0.2911
   10DG     O10  217   2.864   0.202   1.660  0.3365  0.5408 -0.9459
   10DG     C11  218   2.583  -0.001   2.039 -0.0564 -0.0014 -0.2815
   10DG     C12  219   2.740   0.271   1.666 -0.4088 -0.3105 -0.8744
   10DG     H13  220   2.509  -0.079   2.056 -0.0730  0.1699  0.4681
   10DG     H14  221   2.680  -0.051   2.047 -0.3533 -0.3560  1.7237
   10DG     H15  222   2.716   0.320   1.571  0.2557  3.9172  0.9127
   10DG     H16  223   2.748   0.356   1.734  0.4212 -0.1494 -1.1684
   10DG     C17  224   2.556   0.051   1.899 -0.7714 -0.3021  0.6199
   10DG     C18  225   2.629   0.178   1.716 -0.4275  0.3714  0.1473
   10DG     O19  226   2.659   0.139   1.849 -0.1519  0.0286 -0.1272
   10DG     H20  227   2.459   0.100   1.900 -0.2323  0.8084  2.1805
   10DG     H21  228   2.542  -0.033   1.830  0.1066 -0.6047  0.7973
   10DG     H22  229   2.537   0.235   1.721 -0.4432  0.3095  0.5333
   10DG     H23  230   2.625   0.094   1.645 -1.0659 -0.3450  1.0057
   11DG      C1  231   1.718   2.120   4.287 -0.2343 -0.1528  1.1096
   11DG      C2  232   2.549   1.941   4.357 -0.0461  0.2582  0.1382
   11DG      H3  233   1.695   2.171   4.194  1.0774 -0.3683  0.6562
   11DG      H4  234   1.685   2.179   4.373 -0.2863  2.4559 -0.6008
   11DG      H5  235   1.667   2.024   4.282  1.6593 -1.1136 -1.2019
   11DG      H6  236   2.518   1.838   4.375  1.5390 -0.4247 -0.8682
   11DG      H7  237   2.640   1.952   4.299  0.1403 -3.3305 -0.4608
   11DG      H8  238   2.572   1.987   4.453  1.3402 -1.8653  0.8894
   11DG      O9  239   1.859   2.116   4.294 -0.0194  0.4303  0.2358
   11DG     O10  240   2.439   2.011   4.311 -0.1681  0.1650 -0.0378
   11DG     C11  241   1.922   2.045   4.187 -0.0001 -0.9624 -0.4814
   11DG     C12  242   2.404   1.959   4.189  0.5799 -0.0780  0.2089
   11DG     H13  243   1.872   2.076   4.095  2.0892  1.6526 -0.8480
   11DG     H14  244   1.915   1.937   4.200 -3.0891 -0.7418  0.4852
   11DG     H15  245   2.368   1.857   4.194  0.5997 -0.1792 -1.3166
   11DG     H16  246   2.481   1.973   4.113 -1.2259  1.7638 -1.4242
   11DG     C17  247   2.060   2.103   4.151  0.5058  0.0926  0.0530
   11DG     C18  248   2.287   2.046   4.137  0.4456  0.2652 -0.2058
   11DG     O19  249   2.163   2.025   4.206 -0.5278 -0.4118 -0.2762
   11DG     H20  250   2.075   2.202   4.195 -1.1498  0.6118 -0.4633
   11DG     H21  251   2.067   2.114   4.043 -2.6008  0.0133 -0.2390
   11DG     H22  252   2.323   2.147   4.153  2.8257 -0.2488 -1.7220
   11DG     H23  253   2.268   2.020   4.033 -2.5579  2.2120 -0.2659
   12DG      C1  254   3.829   5.332   0.145  0.0590 -0.2031 -0.0191
   12DG      C2  255   4.106   5.110   0.662  0.1235  0.3955  0.5158
   12DG      H3  256   3.830   5.440   0.130  0.8663 -0.4160 -1.7133
   12DG      H4  257   3.759   5.308   0.225  0.2799 -0.2621  0.1613
   12DG      H5  258   3.787   5.280   0.060  1.4472  0.3017 -1.0558
   12DG      H6  259   4.146   5.185   0.731 -0.1177  0.4712  0.5769
   12DG      H7  260   3.997   5.109   0.664  0.0747  2.2740  0.7402
   12DG      H8  261   4.136   5.009   0.688 -0.5181  0.3646  1.1525
   12DG      O9  262   3.949   5.269   0.183  0.5781  0.2009  0.0337
   12DG     O10  263   4.132   5.141   0.529  0.0108 -0.5480 -0.0311
   12DG     C11  264   4.055   5.293   0.100 -0.5257 -0.2148 -0.1718
   12DG     C12  265   4.274   5.174   0.511 -0.0632  0.6099  0.7411
   12DG     H13  266   4.074   5.401   0.103 -0.2128 -0.1330 -2.8844
   12DG     H14  267   4.030   5.264  -0.002 -1.8705 -0.2381  0.1485
   12DG     H15  268   4.339   5.102   0.560  1.1047 -0.2965 -1.9228
   12DG     H16  269   4.292   5.274   0.551 -1.5795  1.5092 -0.6709
   12DG     C17  270   4.185   5.220   0.154  0.3233 -1.1345  0.3664
   12DG     C18  271   4.298   5.171   0.357  0.2776 -0.3133  0.2982
   12DG     O19  272   4.197   5.243   0.287 -0.3538 -0.0907 -0.7678
   12DG     H20  273   4.270   5.252   0.094 -1.8924  1.0387 -1.8710
   12DG     H21  274   4.174   5.115   0.125  1.4757 -1.3231  0.5995
   12DG     H22  275   4.396   5.209   0.328 -1.7645  5.0698 -0.6156
   12DG     H23  276   4.295   5.065   0.332 -0.5679 -0.2143 -0.0540
   13DG      C1  277   3.880   1.134   2.395  0.4144 -0.7425  0.2179
   13DG      C2  278   3.725   1.562   1.704  0.2428  0.0958 -0.2378
   13DG      H3  279   3.912   1.047   2.337 -0.0925 -1.3978  0.9053
   13DG      H4  280   3.805   1.099   2.466  0.3925 -0.0907  0.5261
   13DG      H5  281   3.973   1.152   2.448 -0.1254  0.4037  0.7997
   13DG      H6  282   3.644   1.608   1.760 -0.0544  0.3139 -0.8423
   13DG      H7  283   3.755   1.632   1.627  1.3602  2.1956  1.9815
   13DG      H8  284   3.692   1.477   1.644 -3.9562  2.4064 -1.5825
   13DG      O9  285   3.829   1.236   2.318 -0.3037  0.4122  0.0909
   13DG     O10  286   3.845   1.528   1.769 -0.3327 -0.2118  0.0286
   13DG     C11  287   3.708   1.195   2.256  0.9080 -0.3249  0.7169
   13DG     C12  288   3.826   1.413   1.851 -0.5031  0.2228  0.0132
   13DG     H13  289   3.645   1.187   2.344 -0.6232 -2.5388 -0.4617
   13DG     H14  290   3.709   1.100   2.201  0.6092 -1.7902  3.0924
   13DG     H15  291   3.921   1.384   1.896 -0.0406  1.8556  0.1269
   13DG     H16  292   3.795   1.332   1.785 -1.9650  0.9664 -0.2481
   13DG     C17  293   3.671   1.313   2.163 -0.1454  0.3477  0.0442
   13DG     C18  294   3.725   1.433   1.968 -1.1770 -0.6000 -0.6789
   13DG     O19  295   3.753   1.313   2.047 -0.4767 -0.1548 -0.0301
   13DG     H20  296   3.694   1.407   2.214  2.6770 -0.0842 -0.2891
   13DG     H21  297   3.567   1.305   2.132 -0.8631  0.4363  2.2768
   13DG     H22  298   3.757   1.522   2.022 -2.5344 -0.7380  0.3945
   13DG     H23  299   3.619   1.433   1.945 -1.8133 -1.9527  1.9397
   14DG      C1  300   1.402   4.721   4.536 -0.5435 -0.4407  0.6111
   14DG      C2  301   1.995   4.541   4.995  0.1858 -0.6446 -0.1369
   14DG      H3  302   1.391   4.817   4.485  0.7025 -0.3984  0.3895
   14DG      H4  303   1.311   4.662   4.521 -1.0729  0.6219 -0.5087
   14DG      H5  304   1.485   4.672   4.485 -0.2020  1.2229 -0.5010
   14DG      H6  305   2.042   4.588   5.082 -0.2464  0.5282 -0.5160
   14DG      H7  306   2.054   4.451   4.981  1.5072 -0.2274  2.2136
   14DG      H8  307   2.003   4.623   4.924  1.1120  1.4457  2.2252
   14DG      O9  308   1.437   4.738   4.678  0.1788 -0.1423 -0.1846
   14DG     O10  309   1.852   4.515   5.013 -0.8575  0.7482  0.3347
   14DG     C11  310   1.448   4.608   4.735  0.0983  0.5153  0.2830
   14DG     C12  311   1.777   4.605   5.083 -1.0184  0.0944  0.0426
   14DG     H13  312   1.516   4.542   4.681 -2.0073 -2.1773  0.7441
   14DG     H14  313   1.352   4.558   4.722  0.8900 -1.7838  2.4593
   14DG     H15  314   1.812   4.705   5.057 -3.0269  1.0838  0.8995
   14DG     H16  315   1.794   4.600   5.190 -0.2675  3.2224  0.1679
   14DG     C17  316   1.476   4.597   4.884  0.5420  0.9250 -0.3939
   14DG     C18  317   1.627   4.593   5.049 -0.7190 -0.9598 -0.2763
   14DG     O19  318   1.608   4.619   4.909  0.4155 -0.0273 -0.2531
   14DG     H20  319   1.454   4.499   4.925 -0.1328  1.4234  0.4795
   14DG     H21  320   1.413   4.676   4.926  0.1467  0.5606 -0.2983
   14DG     H22  321   1.577   4.507   5.094 -2.5564 -1.6415 -3.3658
   14DG     H23  322   1.577   4.677   5.097 -0.5326 -1.6650  1.2149
   15DG      C1  323   1.670   5.106   1.360 -0.0748  0.2015 -0.7490
   15DG      C2  324   1.789   5.540   1.331  0.3656  0.3085  0.3346
   15DG      H3  325   1.681   5.010   1.310  0.5759 -1.2613  2.0062
   15DG      H4  326   1.597   5.163   1.302 -0.2599 -0.7944 -1.5089
   15DG      H5  327   1.651   5.102   1.467  0.5546  0.9759 -0.5960
   15DG      H6  328   1.828   5.542   1.230  1.1471 -0.6337  0.5979
   15DG      H7  329   1.795   5.435   1.362  1.2627  0.3035  0.1789
   15DG      H8  330   1.691   5.586   1.322  0.4409  0.2758 -0.7777
   15DG      O9  331   1.790   5.177   1.331  0.5050  0.3367 -0.2000
   15DG     O10  332   1.878   5.613   1.408  0.5868  0.7601  0.0888
   15DG     C11  333   1.905   5.142   1.393 -0.0921  0.8732 -0.2736
   15DG     C12  334   2.019   5.574   1.392  0.5298 -0.3101  0.2562
   15DG     H13  335   1.905   5.033   1.396  1.3758  0.8074 -1.4726
   15DG     H14  336   1.882   5.174   1.495  0.5139  1.5771 -0.3527
   15DG     H15  337   2.078   5.634   1.461 -0.6763 -0.4842  1.4764
   15DG     H16  338   2.048   5.597   1.289 -0.6265 -0.5679 -0.1453
   15DG     C17  339   2.026   5.208   1.331 -0.3939  0.2963 -0.2072
   15DG     C18  340   2.048   5.428   1.424  0.0372 -0.0648 -0.4443
   15DG     O19  341   2.002   5.350   1.318  0.0081  0.1703 -0.3147
   15DG     H20  342   2.050   5.167   1.233  0.2575 -0.3211  0.2048
   15DG     H21  343   2.110   5.190   1.398 -1.5635 -0.4740  1.0991
   15DG     H22  344   2.157   5.427   1.423  0.1619 -1.0602  2.5160
   15DG     H23  345   2.002   5.392   1.516 -0.8000  0.2556 -0.7322
   16DG      C1  346   2.953   2.561   2.862 -0.0116 -0.6990 -0.0826
   16DG      C2  347   2.719   2.859   2.390  0.4623 -0.2130  0.5979
   16DG      H3  348   3.007   2.644   2.817  1.4930 -0.7979  1.4242
   16DG      H4  349   3.025   2.480   2.857  2.9496  1.7835 -1.1208
   16DG      H5  350   2.926   2.586   2.965 -2.1159  0.4246 -0.8387
   16DG      H6  351   2.686   2.773   2.331  0.5304 -0.0027  0.2508
   16DG      H7  352   2.691   2.957   2.352 -0.8349  0.3239  2.8048
   16DG      H8  353   2.828   2.855   2.400  0.6811  0.8177 -0.9174
   16DG      O9  354   2.838   2.539   2.781 -0.1951  0.2352 -0.3886
   16DG     O10  355   2.671   2.844   2.522 -0.0145  0.0284 -0.5438
   16DG     C11  356   2.873   2.503   2.651  0.2395 -0.3664  0.0747
   16DG     C12  357   2.543   2.786   2.534  0.0853 -0.1746 -0.2920
   16DG     H13  358   2.908   2.400   2.645  3.5420  0.6737 -0.5181
   16DG     H14  359   2.946   2.574   2.612 -1.2505  0.4998 -1.2854
   16DG     H15  360   2.471   2.826   2.464 -0.0871  0.5449  0.2810
   16DG     H16  361   2.499   2.802   2.632 -2.2174  0.2120 -1.3451
   16DG     C17  362   2.744   2.506   2.572  0.4989 -0.1418  0.5048
   16DG     C18  363   2.563   2.640   2.529  0.1738 -0.1940  0.3562
   16DG     O19  364   2.671   2.620   2.616 -0.3998 -0.0478  0.6256
   16DG     H20  365   2.690   2.412   2.587  0.2576  0.0091  0.5978
   16DG     H21  366   2.768   2.522   2.467  0.9962 -1.3364  0.4181
   16DG     H22  367   2.474   2.601   2.580 -0.4086  0.7980  0.1313
   16DG     H23  368   2.572   2.607   2.426  1.3511 -0.5241  0.5540
   17DG      C1  369   5.378   5.340   3.161  0.0116  0.0093  0.0064
   17DG      C2  370   5.411   5.472   2.292  0.4476  0.5965  0.0431
   17DG      H3  371   5.416   5.442   3.161  2.2581 -0.7700 -0.3872
   17DG      H4  372   5.458   5.269   3.182 -1.1572 -1.6875 -1.0261
   17DG      H5  373   5.303   5.327   3.239 -0.2221  0.1323 -0.1983
   17DG      H6  374   5.492   5.399   2.301 -1.0463 -1.0397  0.9949
   17DG      H7  375   5.343   5.459   2.207  0.8895 -2.3245  0.0170
   17DG      H8  376   5.452   5.573   2.292  0.0488  0.7752  1.1026
   17DG      O9  377   5.311   5.306   3.035 -0.0756 -0.3971 -0.6168
   17DG     O10  378   5.337   5.478   2.410  0.8549 -0.1558  0.4473
   17DG     C11  379   5.335   5.385   2.917  0.3577 -0.4887 -0.0069
   17DG     C12  380   5.254   5.367   2.441 -0.3299 -0.2818 -0.1004
   17DG     H13  381   5.436   5.425   2.919 -0.4529  1.7184 -0.4258
   17DG     H14  382   5.271   5.472   2.911  1.2632  0.2890  1.2017
   17DG     H15  383   5.304   5.275   2.412  0.3595 -0.1115  0.5393
   17DG     H16  384   5.164   5.357   2.380 -0.5797 -0.0265  0.2122
   17DG     C17  385   5.318   5.301   2.790 -0.5878 -0.2398  0.0185
   17DG     C18  386   5.219   5.378   2.588 -0.2874 -0.8150 -0.3107
   17DG     O19  387   5.336   5.380   2.678  0.2388 -0.1494  0.4954
   17DG     H20  388   5.225   5.246   2.807 -0.8618  0.4633  0.8862
   17DG     H21  389   5.387   5.217   2.782 -1.7673 -1.3480  0.8961
   17DG     H22  390   5.168   5.473   2.603  2.0440  0.1947  2.0926
   17DG     H23  391   5.154   5.293   2.608  0.1537 -1.1575 -0.3271
   18DG      C1  392   3.929   4.218   3.710  0.1836  0.7932 -0.4253
   18DG      C2  393   3.956   4.829   3.335 -0.4714 -0.3366 -0.0753
   18DG      H3  394   4.013   4.150   3.695 -0.6371 -0.2903 -0.2486
   18DG      H4  395   3.858   4.160   3.768  1.2785 -1.3863 -1.1083
   18DG      H5  396   3.958   4.312   3.756  1.7857  1.0611 -1.8756
   18DG      H6  397   4.065   4.822   3.338 -0.4553 -0.9651 -1.3346
   18DG      H7  398   3.926   4.857   3.233 -2.6725 -1.2136  0.2890
   18DG      H8  399   3.947   4.910   3.408  1.6952  0.7737 -0.9470
   18DG      O9  400   3.887   4.235   3.573 -0.7270 -0.5184 -0.3895
   18DG     O10  401   3.900   4.704   3.384 -0.0546  0.4867  0.1858
   18DG     C11  402   3.749   4.260   3.565  0.3683  0.6573  0.9893
   18DG     C12  403   3.935   4.597   3.289  0.6611 -0.0552  0.1210
   18DG     H13  404   3.730   4.336   3.640 -0.2579  3.0315 -1.4252
   18DG     H14  405   3.697   4.170   3.600  1.3369  0.5267  2.1676
   18DG     H15  406   4.042   4.592   3.267  1.0429  0.6542  1.6834
   18DG     H16  407   3.893   4.618   3.191  1.2890 -0.2376 -0.1958
   18DG     C17  408   3.712   4.302   3.421 -0.5864 -0.1719 -0.6539
   18DG     C18  409   3.894   4.453   3.333  0.1273  0.0957 -0.3104
   18DG     O19  410   3.759   4.436   3.399  0.6084  0.7596 -0.1677
   18DG     H20  411   3.603   4.312   3.417 -0.6154 -0.6145 -1.0840
   18DG     H21  412   3.752   4.238   3.342 -0.2795  0.3977 -0.9615
   18DG     H22  413   3.902   4.389   3.245 -0.1313  0.6694 -0.7564
   18DG     H23  414   3.974   4.416   3.398  0.9220  0.8714 -0.8449
   19DG      C1  415   2.493   4.634   2.134  0.8717 -0.4843  0.7076
   19DG      C2  416   2.154   5.336   2.314 -0.3191  0.5547 -0.3217
   19DG      H3  417   2.600   4.658   2.130  0.3606  1.9385 -0.0650
   19DG      H4  418   2.469   4.601   2.033 -3.6030 -0.4897  1.6023
   19DG      H5  419   2.464   4.565   2.213  0.8755 -1.2192  0.0798
   19DG      H6  420   2.177   5.349   2.420  3.1172  0.2252 -0.9040
   19DG      H7  421   2.198   5.420   2.259  0.5839 -0.1473 -0.6904
   19DG      H8  422   2.048   5.335   2.290 -0.0184 -0.7014 -1.7081
   19DG      O9  423   2.420   4.753   2.123 -0.1448 -0.6705 -0.0374
   19DG     O10  424   2.209   5.229   2.244 -0.0412 -0.2937 -0.4952
   19DG     C11  425   2.276   4.743   2.121 -0.1902  0.6051 -0.0219
   19DG     C12  426   2.313   5.156   2.310 -0.6885 -0.0536 -0.4694
   19DG     H13  427   2.246   4.695   2.214  1.6764  1.7892  1.2627
   19DG     H14  428   2.247   4.673   2.043  0.9189  0.8494 -0.6845
   19DG     H15  429   2.303   5.126   2.414  1.7554  1.6279  0.3459
   19DG     H16  430   2.401   5.220   2.309 -0.4496 -0.3256 -2.8697
   19DG     C17  431   2.213   4.883   2.104 -0.4589  0.6587 -0.3965
   19DG     C18  432   2.350   5.031   2.225 -0.2504 -0.0797 -0.5910
   19DG     O19  433   2.220   4.975   2.214  0.3415  0.0995  0.7068
   19DG     H20  434   2.106   4.863   2.096 -0.6966  1.7341 -0.0758
   19DG     H21  435   2.247   4.928   2.011  0.1179 -0.1189 -0.5700
   19DG     H22  436   2.395   5.066   2.132 -1.3365  0.5865 -0.8872
   19DG     H23  437   2.404   4.956   2.283 -2.6023 -0.5322  1.1334
   20DG      C1  438   3.830   0.252   3.348  0.1595  0.5643  0.1196
   20DG      C2  439   4.414   0.362   3.042 -0.2579  0.7401  0.4515
   20DG      H3  440   3.783   0.323   3.279 -1.0098  0.6175  0.9505
   20DG      H4  441   3.857   0.291   3.446 -0.6382 -1.8772  1.3904
   20DG      H5  442   3.756   0.175   3.365 -2.2517  2.2346 -2.0487
   20DG      H6  443   4.511   0.336   2.998 -0.7335  1.6869 -1.2310
   20DG      H7  444   4.347   0.327   2.964  0.6922 -1.0494  0.3888
   20DG      H8  445   4.411   0.471   3.036 -0.2781  0.7312  0.2937
   20DG      O9  446   3.952   0.207   3.286 -0.1973  0.3419 -0.3104
   20DG     O10  447   4.379   0.305   3.168  0.0969  0.2923  0.4055
   20DG     C11  448   3.932   0.153   3.153  0.0108  0.3024 -0.6124
   20DG     C12  449   4.402   0.167   3.190 -0.1814  0.1475 -0.0204
   20DG     H13  450   3.920   0.227   3.074 -0.9737  0.4527 -0.3444
   20DG     H14  451   3.844   0.088   3.148 -0.7597  1.4250 -2.4446
   20DG     H15  452   4.402   0.152   3.298  2.1772  1.1726  0.1657
   20DG     H16  453   4.503   0.131   3.171 -1.1477 -2.8143 -0.2001
   20DG     C17  454   4.057   0.071   3.120  0.3273  0.0228  0.1899
   20DG     C18  455   4.295   0.088   3.116 -0.7245  0.5264 -0.1124
   20DG     O19  456   4.173   0.153   3.141 -0.7220  0.0001  0.2605
   20DG     H20  457   4.050   0.044   3.014 -2.5984 -1.3139  0.6086
   20DG     H21  458   4.064  -0.020   3.179 -0.8517  0.6530  1.3551
   20DG     H22  459   4.306   0.073   3.009 -1.8582  0.3302 -0.2103
   20DG     H23  460   4.304  -0.009   3.165  1.5994  0.9496  0.4190
   21DG      C1  461   1.712   1.520   0.882 -0.2254 -0.1156  0.2377
   21DG      C2  462   1.453   0.774   1.029  0.6877  0.1080 -0.3283
   21DG      H3  463   1.751   1.515   0.984  0.5087 -1.1417 -0.0829
   21DG      H4  464   1.652   1.611   0.871  0.8484  0.7653  1.3776
   21DG      H5  465   1.793   1.525   0.810  1.1573  3.4289  1.7636
   21DG      H6  466   1.475   0.750   0.924  2.4311  2.6390 -0.6290
   21DG      H7  467   1.540   0.773   1.094 -0.3378 -1.3075  1.0923
   21DG      H8  468   1.385   0.699   1.068 -0.0662  1.0670  0.2126
   21DG      O9  469   1.617   1.417   0.854  0.8742 -0.7282 -0.3776
   21DG     O10  470   1.402   0.901   1.053 -0.4369 -0.3493 -0.3321
   21DG     C11  471   1.674   1.288   0.866  0.7726 -0.0702  0.5434
   21DG     C12  472   1.371   0.963   0.934 -0.0738 -0.0773  0.7296
   21DG     H13  473   1.734   1.263   0.953  2.6046  0.0129 -0.6330
   21DG     H14  474   1.732   1.276   0.774 -0.2124 -2.0045  0.1205
   21DG     H15  475   1.268   0.933   0.915 -0.7090  1.6946  1.1140
   21DG     H16  476   1.436   0.938   0.851  0.0489  0.4541  0.6573
   21DG     C17  477   1.560   1.182   0.847 -0.1786 -0.7257  0.2175
   21DG     C18  478   1.356   1.114   0.945 -0.0388 -0.0721  0.2853
   21DG     O19  479   1.469   1.196   0.950 -0.3438 -0.0015 -1.0293
   21DG     H20  480   1.606   1.083   0.854 -0.8636 -1.1001 -0.3775
   21DG     H21  481   1.522   1.189   0.745 -3.1271  0.2062  1.2744
   21DG     H22  482   1.294   1.139   0.859 -1.0951 -2.0012  0.4301
   21DG     H23  483   1.289   1.139   1.027  0.6029 -0.6607  1.0075
   22DG      C1  484   4.580   0.993   4.113 -0.2802 -0.5298 -0.0540
   22DG      C2  485   4.443   1.310   3.526  0.1189  0.0259 -0.6091
   22DG      H3  486   4.624   0.897   4.142  0.5074 -0.1061  0.1927
   22DG      H4  487   4.474   0.976   4.129 -0.2112 -0.7989  0.1250
   22DG      H5  488   4.606   1.067   4.188 -1.5043  1.0304 -1.0926
   22DG      H6  489   4.345   1.297   3.572 -0.4010  2.0129 -1.0470
   22DG      H7  490   4.488   1.373   3.603 -3.7649 -0.2150  2.1683
   22DG      H8  491   4.426   1.359   3.430 -2.1317  0.6877  0.0670
   22DG      O9  492   4.606   1.035   3.977  0.0086 -0.2839 -0.1377
   22DG     O10  493   4.511   1.185   3.519 -0.3280  0.1827 -0.1265
   22DG     C11  494   4.744   1.044   3.949  0.0298 -1.0027 -0.1039
   22DG     C12  495   4.654   1.188   3.499  0.4884  0.1023  0.0530
   22DG     H13  496   4.781   0.948   3.912  0.5347 -1.3514  1.2322
   22DG     H14  497   4.804   1.088   4.029  2.1688  2.8720 -3.4933
   22DG     H15  498   4.655   1.265   3.421 -1.0481  0.3183  0.1993
   22DG     H16  499   4.691   1.091   3.468 -0.9209 -1.6077  3.2240
   22DG     C17  500   4.757   1.165   3.850 -0.8681  0.3016 -0.2619
   22DG     C18  501   4.730   1.230   3.622 -0.1134 -0.0372 -0.2296
   22DG     O19  502   4.704   1.137   3.722 -0.2278  0.3555 -0.2248
   22DG     H20  503   4.863   1.184   3.835 -0.7582 -1.2733 -1.9720
   22DG     H21  504   4.705   1.246   3.901 -1.3430 -0.5544  0.6568
   22DG     H22  505   4.836   1.241   3.598 -0.0190 -1.6499 -0.6833
   22DG     H23  506   4.703   1.329   3.659 -0.9933 -0.2228 -0.3548
   23DG      C1  507   1.705   0.313   5.181  0.1122  0.8767  0.5222
   23DG      C2  508   1.587   0.793   4.659  0.1641  0.1296 -0.6134
   23DG      H3  509   1.657   0.226   5.227  0.0673  0.7509  0.2406
   23DG      H4  510   1.746   0.379   5.257  1.7721 -0.4882  0.8729
   23DG      H5  511   1.774   0.280   5.103  0.8617 -2.2101  2.3198
   23DG      H6  512   1.563   0.886   4.710  2.3832  1.1588 -1.2980
   23DG      H7  513   1.696   0.794   4.649  0.3968 -1.1523  1.1417
   23DG      H8  514   1.544   0.813   4.562 -2.5293 -0.5667  0.3619
   23DG      O9  515   1.603   0.385   5.116  0.0257  0.6199 -0.6537
   23DG     O10  516   1.537   0.675   4.717 -0.1703  0.1670 -0.1444
   23DG     C11  517   1.552   0.308   5.009  1.1458  0.6991 -0.6552
   23DG     C12  518   1.400   0.685   4.766 -0.4071  0.9231 -0.4736
   23DG     H13  519   1.526   0.208   5.042  0.0915  1.0328 -0.4196
   23DG     H14  520   1.630   0.290   4.935  0.6413  1.4846 -1.3961
   23DG     H15  521   1.334   0.714   4.685 -1.2709 -1.2538 -0.6177
   23DG     H16  522   1.394   0.764   4.841 -0.6378 -0.0126  0.5318
   23DG     C17  523   1.424   0.364   4.953  0.1634 -0.1025  0.2460
   23DG     C18  524   1.346   0.554   4.829 -0.4679  0.1191 -0.1132
   23DG     O19  525   1.452   0.496   4.902 -0.6096  0.8022 -0.2756
   23DG     H20  526   1.360   0.374   5.041  0.6971 -2.1927  0.9391
   23DG     H21  527   1.376   0.300   4.880  0.6892  0.1357 -0.3156
   23DG     H22  528   1.246   0.564   4.872 -1.0155  0.7034 -1.4676
   23DG     H23  529   1.324   0.484   4.749 -0.7343 -1.1299  1.0204
   24DG      C1  530   0.720   2.829   0.322  0.7528  0.3525  0.4065
   24DG      C2  531   1.025   2.287   0.580 -0.4057  0.1037  0.4015
   24DG      H3  532   0.684   2.907   0.388 -2.8321 -0.8441  0.0614
   24DG      H4  533   0.642   2.817   0.246 -0.2282  0.0733  1.4297
   24DG      H5  534   0.810   2.858   0.268  0.6262 -1.8470 -1.1331
   24DG      H6  535   1.036   2.313   0.685  0.0243 -1.3120  0.7199
   24DG      H7  536   1.028   2.179   0.594  1.7792  0.1254  0.4712
   24DG      H8  537   1.110   2.327   0.525 -0.9189  0.3287 -0.2468
   24DG      O9  538   0.731   2.713   0.394  0.0924 -0.3527  0.2708
   24DG     O10  539   0.906   2.333   0.529 -0.1324 -0.3499 -0.2476
   24DG     C11  540   0.615   2.679   0.473 -0.2986 -0.0485 -0.5268
   24DG     C12  541   0.789   2.290   0.607  0.4321  0.0776 -0.0012
   24DG     H13  542   0.525   2.688   0.412 -2.5555 -0.1190  2.5754
   24DG     H14  543   0.607   2.751   0.554  2.3348  0.8405 -0.9733
   24DG     H15  544   0.776   2.358   0.691 -2.1935 -0.2541 -0.0374
   24DG     H16  545   0.804   2.191   0.650 -0.2800  0.8004  2.0785
   24DG     C17  546   0.639   2.556   0.558 -0.3378  0.0179 -0.6739
   24DG     C18  547   0.660   2.310   0.519 -0.3450 -0.0269  1.2562
   24DG     O19  548   0.648   2.444   0.471  0.0263 -0.4527 -0.4317
   24DG     H20  549   0.559   2.536   0.630 -1.4076  1.1432 -1.5195
   24DG     H21  550   0.722   2.562   0.629 -0.2732  0.7410 -0.8091
   24DG     H22  551   0.654   2.241   0.434  1.0935  1.6572 -0.2718
   24DG     H23  552   0.564   2.289   0.566  0.4118  1.0854  3.4040
   25DG      C1  553   1.588   0.968   1.460  0.2828  0.5427  0.2866
   25DG      C2  554   2.205   1.269   1.793  0.1870  0.4270 -0.0002
   25DG      H3  555   1.493   0.921   1.483  1.9390 -3.6115 -0.5309
   25DG      H4  556   1.611   0.933   1.359  0.8423  2.1980 -0.2081
   25DG      H5  557   1.582   1.077   1.450 -2.1199  0.4237 -0.2033
   25DG      H6  558   2.213   1.294   1.687  0.1986 -1.2057 -0.4181
   25DG      H7  559   2.208   1.354   1.861  2.1762  0.9024 -0.6103
   25DG      H8  560   2.295   1.221   1.830  0.8664  1.7198  0.0565
   25DG      O9  561   1.689   0.941   1.557 -0.6622 -0.0509 -0.2561
   25DG     O10  562   2.091   1.188   1.813  0.4668  0.2124  0.4461
   25DG     C11  563   1.634   0.951   1.686 -0.4638 -0.4654  0.0423
   25DG     C12  564   1.959   1.241   1.775 -0.2060 -0.5151 -0.2942
   25DG     H13  565   1.565   0.868   1.695  0.9690 -1.7653 -0.4748
   25DG     H14  566   1.586   1.048   1.699  3.2060  1.9780 -2.3776
   25DG     H15  567   1.944   1.270   1.671 -0.7398  2.7091  0.5597
   25DG     H16  568   1.947   1.338   1.825 -1.2167  0.1686 -1.7943
   25DG     C17  569   1.753   0.937   1.784 -0.4471  0.3019  0.3753
   25DG     C18  570   1.850   1.146   1.820 -0.4679  0.5409  0.9597
   25DG     O19  571   1.859   1.022   1.752  0.6060 -0.2267  0.2994
   25DG     H20  572   1.800   0.840   1.768  0.6661  0.8597  0.1490
   25DG     H21  573   1.719   0.945   1.887 -0.2963 -0.6270  0.5018
   25DG     H22  574   1.851   1.123   1.927 -0.1356  3.1696  1.5929
   25DG     H23  575   1.752   1.188   1.796  0.4359  0.8989 -2.6344
   26DG      C1  576   0.368   5.054   0.356 -0.0867 -0.1875 -0.1280
   26DG      C2  577  -0.099   4.531   0.210  0.3980 -0.5634  0.1584
   26DG      H3  578   0.399   5.158   0.363 -1.5260  0.2338  0.2851
   26DG      H4  579   0.450   4.987   0.329 -2.0704 -2.7081 -0.2713
   26DG      H5  580   0.336   5.032   0.458  2.1852  1.5330  1.0326
   26DG      H6  581  -0.031   4.596   0.265  0.0483 -0.1591  0.1152
   26DG      H7  582  -0.134   4.442   0.263  0.2783 -0.4681  0.2399
   26DG      H8  583  -0.043   4.501   0.121 -1.8859 -0.2935 -1.4725
   26DG      O9  584   0.263   5.051   0.254  0.8414  0.2885  0.1363
   26DG     O10  585  -0.213   4.607   0.171  0.0155  0.0018  0.3698
   26DG     C11  586   0.182   4.933   0.254 -0.4017 -0.6507 -0.0561
   26DG     C12  587  -0.188   4.709   0.074  0.5530  0.8653 -0.2711
   26DG     H13  588   0.156   4.909   0.357  4.2563 -1.9677  1.0394
   26DG     H14  589   0.233   4.840   0.229 -2.2064 -1.1855 -2.1487
   26DG     H15  590  -0.271   4.701   0.004 -0.1719  1.5321  0.5015
   26DG     H16  591  -0.104   4.689   0.007 -0.1013  0.6672 -1.0562
   26DG     C17  592   0.047   4.948   0.169  0.1334 -0.3239  0.2141
   26DG     C18  593  -0.162   4.845   0.132  0.3294 -0.1054 -0.6127
   26DG     O19  594  -0.035   4.833   0.194 -0.1436  0.8672 -0.3586
   26DG     H20  595   0.064   4.968   0.064  2.3182  1.0334  0.7534
   26DG     H21  596  -0.009   5.039   0.192  0.8272 -0.2743  1.8963
   26DG     H22  597  -0.158   4.909   0.044 -0.2847 -1.6678 -1.8151
   26DG     H23  598  -0.234   4.875   0.208 -1.9845 -4.8033 -0.6213
   27DG      C1  599   0.905   5.331   5.276  0.1992  0.2050 -0.4727
   27DG      C2  600   0.274   4.816   5.420  0.0416  0.7801  0.3728
   27DG      H3  601   0.981   5.255   5.257  1.0036  0.8221  0.1750
   27DG      H4  602   0.938   5.401   5.353  0.1186 -1.8797  1.5556
   27DG      H5  603   0.899   5.397   5.189  0.0592 -0.0588 -0.6631
   27DG      H6  604   0.173   4.776   5.410  0.0515  0.8109  0.1457
   27DG      H7  605   0.350   4.747   5.383  1.6954  2.1575  1.1051
   27DG      H8  606   0.297   4.845   5.522 -2.4965  0.7224  1.0257
   27DG      O9  607   0.778   5.273   5.307  0.0379  0.1318  0.3347
   27DG     O10  608   0.268   4.933   5.347  0.0966  0.3691 -0.4099
   27DG     C11  609   0.680   5.366   5.348 -0.0487 -0.9496 -0.0178
   27DG     C12  610   0.395   4.982   5.319  0.1243  0.9545 -0.1931
   27DG     H13  611   0.640   5.418   5.260  0.9530 -0.3845 -0.1543
   27DG     H14  612   0.718   5.435   5.423 -0.1384  0.6842 -1.3893
   27DG     H15  613   0.398   4.994   5.211  2.2468  0.8740 -0.1945
   27DG     H16  614   0.481   4.915   5.331 -0.1818  0.4547 -0.7616
   27DG     C17  615   0.562   5.295   5.414 -0.2131 -0.5544  0.1232
   27DG     C18  616   0.413   5.112   5.390 -0.0251 -0.0149  0.0501
   27DG     O19  617   0.517   5.191   5.331  0.4025  0.0360  0.1266
   27DG     H20  618   0.481   5.366   5.429 -0.2166 -0.4246 -0.4941
   27DG     H21  619   0.602   5.269   5.512  1.0984  1.3064  0.1310
   27DG     H22  620   0.321   5.170   5.394 -0.8683 -1.3529  2.4695
   27DG     H23  621   0.440   5.096   5.495 -2.4508 -2.2516  0.4455
   28DG      C1  622   1.678   2.738   5.339 -1.0484 -0.1046  0.2585
   28DG      C2  623   2.253   2.859   5.711 -0.6636  0.5360 -0.0626
   28DG      H3  624   1.740   2.670   5.281 -0.6114 -0.3743  1.0290
   28DG      H4  625   1.586   2.763   5.287 -0.7291  2.2759  0.6821
   28DG      H5  626   1.641   2.677   5.421  0.5715  0.5488  1.5327
   28DG      H6  627   2.304   2.923   5.783  1.2960  1.2273 -1.9602
   28DG      H7  628   2.215   2.778   5.774  1.0083  0.8336  1.4258
   28DG      H8  629   2.338   2.824   5.654 -0.8131 -0.0869  0.0935
   28DG      O9  630   1.756   2.848   5.394  0.0726 -0.1826 -0.1724
   28DG     O10  631   2.159   2.915   5.619  0.0385  0.1299  0.1623
   28DG     C11  632   1.784   2.952   5.303  0.0540 -0.4761  0.0449
   28DG     C12  633   2.198   3.023   5.537 -0.2897  0.0768 -0.2885
   28DG     H13  634   1.701   3.002   5.253  0.8182  2.0108  1.0963
   28DG     H14  635   1.839   2.912   5.218  1.9537  1.5500  0.2346
   28DG     H15  636   2.280   3.000   5.469  1.0971  2.8413  0.3095
   28DG     H16  637   2.268   3.085   5.593  0.8107 -1.7029  0.4100
   28DG     C17  638   1.872   3.059   5.371 -0.1549  0.2276 -0.1262
   28DG     C18  639   2.082   3.094   5.470  0.0805  0.8660 -0.3821
   28DG     O19  640   1.999   2.993   5.407 -0.6595 -0.3853  0.6257
   28DG     H20  641   1.819   3.101   5.457  1.6280  0.3394  0.9567
   28DG     H21  642   1.892   3.141   5.303 -2.1515  0.4586 -0.4893
   28DG     H22  643   2.026   3.151   5.544 -2.3135 -0.9462 -0.6730
   28DG     H23  644   2.122   3.157   5.391  1.5272 -2.4240 -2.4903
   29DG      C1  645   2.351   3.992   5.293 -0.5833  0.3908  1.2076
   29DG      C2  646   2.254   3.990   4.409 -0.1073  0.3185  0.1195
   29DG      H3  647   2.254   3.961   5.332 -0.8851  0.8084  0.7969
   29DG      H4  648   2.403   4.012   5.387  1.6237 -1.8977  0.5798
   29DG      H5  649   2.406   3.915   5.240  3.0261  1.8810  2.4593
   29DG      H6  650   2.230   4.096   4.398 -4.1067 -0.6029 -1.9623
   29DG      H7  651   2.326   3.973   4.328  0.4612 -2.9300  1.1539
   29DG      H8  652   2.167   3.927   4.392  0.9797 -0.7741 -1.8738
   29DG      O9  653   2.343   4.110   5.215  0.4945 -0.0279 -0.2536
   29DG     O10  654   2.321   3.964   4.530 -0.2572  0.0949  0.3832
   29DG     C11  655   2.242   4.108   5.112  0.1044  0.3039  0.4979
   29DG     C12  656   2.238   4.008   4.636 -0.0773  0.0357 -0.0513
   29DG     H13  657   2.233   4.212   5.084 -2.4760  0.4489  1.6386
   29DG     H14  658   2.151   4.061   5.148  1.2411 -0.6807  2.2646
   29DG     H15  659   2.141   3.958   4.630 -1.2277  2.1616  0.0745
   29DG     H16  660   2.204   4.111   4.631 -0.9468 -0.2621 -0.6618
   29DG     C17  661   2.310   4.031   4.994  0.2332  0.0514  0.1112
   29DG     C18  662   2.306   3.976   4.770 -0.8725 -0.0064 -0.1230
   29DG     O19  663   2.235   4.043   4.872 -0.0994  0.5343  0.0304
   29DG     H20  664   2.297   3.925   5.017 -0.1393 -0.2549 -1.3856
   29DG     H21  665   2.413   4.057   4.968  0.3319 -1.3580 -1.0611
   29DG     H22  666   2.320   3.869   4.789 -1.3737  0.4233  3.5040
   29DG     H23  667   2.406   4.018   4.766 -0.6837 -0.2586  1.2916
   30DG      C1  668   2.639   3.235   2.527  1.1927 -0.0286  0.3780
   30DG      C2  669   1.978   3.034   2.927 -0.0598 -0.0161 -0.0369
   30DG      H3  670   2.692   3.161   2.585  0.4318  0.1735  1.3496
   30DG      H4  671   2.675   3.329   2.567  3.3707 -1.5407  2.1511
   30DG      H5  672   2.656   3.223   2.420  1.1481 -1.2111  0.4949
   30DG      H6  673   1.931   2.948   2.974  1.6815 -0.9434  0.0871
   30DG      H7  674   1.948   3.114   2.994  0.4644 -0.5676  0.8648
   30DG      H8  675   1.950   3.051   2.823  2.6259 -0.8149 -0.9591
   30DG      O9  676   2.501   3.196   2.552  0.0520  0.3878 -0.5966
   30DG     O10  677   2.113   3.034   2.934 -0.7349 -0.2955 -0.3520
   30DG     C11  678   2.454   3.234   2.680  0.5666  0.4368  1.0364
   30DG     C12  679   2.169   2.926   2.862 -0.0057 -0.0893  0.4948
   30DG     H13  680   2.454   3.341   2.703 -1.0529  0.7085 -0.0173
   30DG     H14  681   2.531   3.184   2.739  1.6213  0.9312  0.1157
   30DG     H15  682   2.101   2.840   2.868 -0.4404  0.1769 -0.4390
   30DG     H16  683   2.269   2.897   2.892 -0.2670  0.0322  1.5260
   30DG     C17  684   2.320   3.176   2.713  0.5655 -0.6113 -0.2392
   30DG     C18  685   2.191   2.959   2.703  0.1792  0.1154 -0.3547
   30DG     O19  686   2.317   3.037   2.671  0.2487  0.5580  0.4893
   30DG     H20  687   2.245   3.247   2.677  2.3985  0.3825 -2.3694
   30DG     H21  688   2.316   3.180   2.822 -0.5173 -0.5703 -0.2659
   30DG     H22  689   2.209   2.861   2.659  0.9468 -0.5955  1.4304
   30DG     H23  690   2.109   2.997   2.642  0.9384 -0.1177 -1.5523
   31DG      C1  691   5.201   5.272   1.606  0.5558  0.5865  0.0817
   31DG      C2  692   4.410   5.216   1.716  0.1178 -0.4854 -0.3348
   31DG      H3  693   5.175   5.215   1.517 -0.1411 -0.9815  1.2575
   31DG      H4  694   5.255   5.207   1.674 -0.2326 -2.2600 -1.8123
   31DG      H5  695   5.254   5.361   1.571  1.5063 -0.2149 -0.5911
   31DG      H6  696   4.317   5.266   1.742  0.3544  0.0335 -0.4698
   31DG      H7  697   4.410   5.153   1.626  2.0871 -0.4221 -0.4326
   31DG      H8  698   4.443   5.164   1.806  1.8344  1.8095  0.4674
   31DG      O9  699   5.081   5.315   1.676  0.1166 -0.0354  0.3468
   31DG     O10  700   4.519   5.298   1.682 -0.3243  0.5337  0.3637
   31DG     C11  701   4.983   5.221   1.668  0.8991 -0.6626  0.6923
   31DG     C12  702   4.575   5.368   1.783  0.4332  0.0777 -0.9038
   31DG     H13  703   5.007   5.125   1.714  1.7748  0.3961  2.4969
   31DG     H14  704   4.969   5.199   1.562  1.7875 -1.9891  0.8234
   31DG     H15  705   4.596   5.294   1.861 -0.8485 -0.6594 -1.2277
   31DG     H16  706   4.498   5.435   1.821  1.5479  0.9011 -0.0044
   31DG     C17  707   4.858   5.275   1.736  0.0522  0.1753 -0.7314
   31DG     C18  708   4.694   5.451   1.741 -0.3432 -0.6225  0.3552
   31DG     O19  709   4.785   5.373   1.662  0.5189 -0.3727 -0.4552
   31DG     H20  710   4.876   5.302   1.840 -1.2416  1.6433 -0.8593
   31DG     H21  711   4.797   5.186   1.750  1.6651 -0.5781  2.4737
   31DG     H22  712   4.652   5.528   1.677  0.5281  0.4461  1.0480
   31DG     H23  713   4.740   5.505   1.823 -0.4878 -0.2944  0.2218
   32DG      C1  714   3.849   3.615   0.823  0.9046 -0.1565  0.3142
   32DG      C2  715   4.168   3.191   0.476 -0.2615  0.5835 -0.7972
   32DG      H3  716   3.847   3.570   0.923 -2.1283  0.6006  0.6909
   32DG      H4  717   3.760   3.677   0.825  0.4418 -0.8320  1.5693
   32DG      H5  718   3.934   3.678   0.796 -0.5550  1.0723 -1.6094
   32DG      H6  719   4.179   3.137   0.382  0.7542  0.4667 -0.6250
   32DG      H7  720   4.094   3.271   0.472 -1.1510 -0.2158 -0.4489
   32DG      H8  721   4.271   3.219   0.497  0.2758 -1.9326  0.2086
   32DG      O9  722   3.852   3.507   0.735  0.0725 -0.4989  0.4657
   32DG     O10  723   4.116   3.125   0.589 -0.7217  0.3737  0.9748
   32DG     C11  724   3.724   3.445   0.722  0.2115  0.1947  0.2788
   32DG     C12  725   3.985   3.061   0.567  0.0645 -0.6528  0.1013
   32DG     H13  726   3.655   3.519   0.682 -0.3033 -0.9554 -1.0272
   32DG     H14  727   3.680   3.411   0.816  0.9821 -2.2895 -0.1898
   32DG     H15  728   3.972   3.006   0.660 -0.5710 -2.3531 -0.9428
   32DG     H16  729   3.996   2.981   0.493  0.3522 -1.0367  0.5603
   32DG     C17  730   3.738   3.342   0.616  0.0589 -0.2216  0.2867
   32DG     C18  731   3.865   3.151   0.535  0.1676 -0.6495 -0.5605
   32DG     O19  732   3.858   3.269   0.624  0.3154  0.0011 -0.3635
   32DG     H20  733   3.750   3.397   0.523  0.4405  0.3855  0.6866
   32DG     H21  734   3.651   3.277   0.612  2.0806 -3.0674 -0.8747
   32DG     H22  735   3.877   3.181   0.430  1.3002 -1.7006 -0.7575
   32DG     H23  736   3.769   3.100   0.543 -0.8602  1.2643 -0.1393
   33DG      C1  737   1.968   1.248   3.884 -0.2523 -0.0761 -0.2949
   33DG      C2  738   2.148   1.749   3.348  0.7887 -0.3281  0.1941
   33DG      H3  739   2.016   1.166   3.829 -0.5978 -0.8618  0.5519
   33DG      H4  740   1.904   1.221   3.967 -2.0815  1.0580 -1.2796
   33DG      H5  741   2.053   1.302   3.927 -0.7967  0.0932  0.5841
   33DG      H6  742   2.207   1.839   3.366 -0.6191  0.5875  0.3916
   33DG      H7  743   2.211   1.660   3.339  3.7972  1.7884 -1.1349
   33DG      H8  744   2.097   1.762   3.253  0.4421  1.4017  0.5809
   33DG      O9  745   1.901   1.342   3.799 -0.5361  0.0376 -0.3974
   33DG     O10  746   2.051   1.738   3.451  0.2727  0.1457 -0.5599
   33DG     C11  747   1.870   1.468   3.858 -0.2320 -0.0389  0.2511
   33DG     C12  748   1.955   1.638   3.420 -0.1344 -0.6966 -0.3310
   33DG     H13  749   1.967   1.506   3.888  0.2025  0.0848 -1.2584
   33DG     H14  750   1.799   1.452   3.940 -0.8334  0.8027 -0.0940
   33DG     H15  751   2.018   1.550   3.413  2.3248  0.5464  3.1022
   33DG     H16  752   1.899   1.656   3.328 -3.2304 -1.1696  1.3026
   33DG     C17  753   1.824   1.587   3.761  0.0136  0.1235  0.3368
   33DG     C18  754   1.857   1.624   3.529  0.3566  0.7885  0.1234
   33DG     O19  755   1.919   1.595   3.654 -0.4506 -0.6441 -0.2387
   33DG     H20  756   1.822   1.686   3.806  0.5773 -0.0316  0.7080
   33DG     H21  757   1.721   1.585   3.724  0.2627  0.1629 -0.3697
   33DG     H22  758   1.783   1.704   3.518 -2.8666 -2.1735 -1.8452
   33DG     H23  759   1.789   1.540   3.515 -0.2741  0.9424  1.9804
   34DG      C1  760   4.829   4.559   5.051 -0.1897  0.3253 -0.0949
   34DG      C2  761   5.055   4.077   5.522  1.3858 -0.0853 -0.3536
   34DG      H3  762   4.743   4.540   4.988 -0.6428 -0.0161  0.6090
   34DG      H4  763   4.915   4.514   5.001  0.1728  0.3694  0.4754
   34DG      H5  764   4.832   4.668   5.056  0.0888  0.3305 -0.4097
   34DG      H6  765   5.064   3.986   5.462 -1.1320 -0.2453 -0.5924
   34DG      H7  766   5.140   4.079   5.590 -0.2143  0.8706  1.7645
   34DG      H8  767   4.977   4.078   5.599  1.1743 -1.2162 -0.5363
   34DG      O9  768   4.805   4.508   5.183 -0.1459  0.1622  0.2248
   34DG     O10  769   5.046   4.191   5.438  0.1804  0.1274  0.2207
   34DG     C11  770   4.884   4.583   5.277  0.1319 -0.7787  0.1660
   34DG     C12  771   5.150   4.210   5.345 -0.4281  0.8236  0.2162
   34DG     H13  772   4.844   4.565   5.376 -2.0099  0.3577 -0.4343
   34DG     H14  773   4.893   4.691   5.266 -0.3597 -0.8079 -0.5742
   34DG     H15  774   5.146   4.140   5.262 -0.9432 -0.3664  1.2035
   34DG     H16  775   5.235   4.182   5.408 -0.9224 -1.1801  0.0580
   34DG     C17  776   5.025   4.539   5.279 -0.2035  0.2816 -0.1054
   34DG     C18  777   5.158   4.349   5.299 -0.6509 -0.0580  0.0919
   34DG     O19  778   5.026   4.399   5.275 -0.2363  0.1815  0.1772
   34DG     H20  779   5.073   4.581   5.367  0.9643  0.2915 -0.7367
   34DG     H21  780   5.074   4.580   5.190 -0.0464 -0.3630 -0.3169
   34DG     H22  781   5.202   4.398   5.386  1.5226 -0.8930 -0.4685
   34DG     H23  782   5.222   4.366   5.212 -1.7529  0.1095 -0.7076
   35DG      C1  783   0.054   5.192   0.668  0.2614 -0.6287  0.8019
   35DG      C2  784  -0.519   4.973   0.084 -0.0131 -0.6996 -0.6999
   35DG      H3  785   0.145   5.171   0.611 -0.6461  0.0143 -0.9595
   35DG      H4  786   0.014   5.099   0.708  0.0002  0.2365  2.6507
   35DG      H5  787   0.075   5.262   0.749  0.5740 -1.1542  1.1905
   35DG      H6  788  -0.437   4.904   0.065 -0.4281 -0.6450 -2.9557
   35DG      H7  789  -0.589   4.925   0.152  0.2382 -0.0114  0.0615
   35DG      H8  790  -0.567   4.986  -0.013 -0.2858 -1.2582 -0.6432
   35DG      O9  791  -0.047   5.251   0.587 -0.6166  0.0498  0.4250
   35DG     O10  792  -0.469   5.091   0.148  0.0405  0.4000  0.7284
   35DG     C11  793  -0.072   5.181   0.465  0.3544 -0.4278  0.2911
   35DG     C12  794  -0.358   5.140   0.072  0.6985 -0.3194  0.5375
   35DG     H13  795  -0.112   5.080   0.480 -2.7123  0.4751 -1.0798
   35DG     H14  796   0.011   5.163   0.396 -1.2233 -2.6459 -1.1963
   35DG     H15  797  -0.403   5.195  -0.011 -0.4811 -3.8949 -1.4261
   35DG     H16  798  -0.290   5.076   0.016  0.5006  1.1217 -1.4432
   35DG     C17  799  -0.171   5.262   0.377 -0.3733  0.5641  0.0122
   35DG     C18  800  -0.274   5.228   0.167  0.0023 -0.2009  0.4145
   35DG     O19  801  -0.226   5.174   0.283  0.0557  0.4215 -0.1446
   35DG     H20  802  -0.111   5.346   0.340  1.7991 -0.5068  0.9551
   35DG     H21  803  -0.247   5.308   0.440 -1.1705 -1.2058  0.3836
   35DG     H22  804  -0.185   5.258   0.113  0.4633  3.8590  3.0338
   35DG     H23  805  -0.328   5.314   0.206  1.2252 -0.2180  2.2983
   36DG      C1  806   3.526   0.389   3.361 -0.5234  0.3265  0.4827
   36DG      C2  807   3.554   0.382   4.092 -0.1639 -0.1974  0.1244
   36DG      H3  808   3.593   0.474   3.348  1.0550 -0.9732 -0.2645
   36DG      H4  809   3.425   0.424   3.340 -0.1922  1.5689  0.8744
   36DG      H5  810   3.545   0.307   3.291 -0.6945 -0.8478  1.7793
   36DG      H6  811   3.628   0.419   4.164  0.0538  0.1443 -0.2677
   36DG      H7  812   3.509   0.465   4.038  0.0819 -0.0068  0.2115
   36DG      H8  813   3.481   0.333   4.157 -0.3208  0.8743  0.7789
   36DG      O9  814   3.530   0.329   3.490 -0.4194  0.0082 -0.4401
   36DG     O10  815   3.609   0.280   4.012  0.0208 -0.5951  0.1524
   36DG     C11  816   3.499   0.427   3.592  0.3201 -0.4498  0.6446
   36DG     C12  817   3.526   0.176   3.964  0.4509 -0.2938  0.5334
   36DG     H13  818   3.390   0.434   3.583  0.4516  0.4829 -0.3609
   36DG     H14  819   3.548   0.522   3.573 -1.5743  0.2979 -0.8837
   36DG     H15  820   3.483   0.129   4.052 -0.2133 -1.0859 -0.1927
   36DG     H16  821   3.601   0.122   3.905 -1.4515 -0.1191 -2.2284
   36DG     C17  822   3.546   0.370   3.722 -0.1750  0.3517 -0.1166
   36DG     C18  823   3.418   0.210   3.860  0.6136 -0.3385  0.3040
   36DG     O19  824   3.497   0.240   3.744  0.3173  0.5112 -0.0599
   36DG     H20  825   3.509   0.438   3.799  0.8093  1.3222 -0.4819
   36DG     H21  826   3.653   0.374   3.739  0.3030  0.3206 -2.7446
   36DG     H22  827   3.358   0.126   3.824  0.3774 -0.5423  1.1658
   36DG     H23  828   3.348   0.289   3.888 -0.4711 -1.1127 -0.1355
   37DG      C1  829   4.483   2.376   4.981  0.8166  0.5010  0.3016
   37DG      C2  830   4.489   2.350   5.600  0.0932 -0.0993  0.5308
   37DG      H3  831   4.389   2.426   5.004  0.4229 -0.6294  1.2105
   37DG      H4  832   4.476   2.352   4.875 -0.6971  0.5623  0.3740
   37DG      H5  833   4.563   2.450   4.985 -0.1300  1.5003  1.7170
   37DG      H6  834   4.416   2.414   5.550  1.3821 -2.3969 -5.0811
   37DG      H7  835   4.450   2.315   5.695  2.6745 -0.4780  1.5333
   37DG      H8  836   4.582   2.401   5.625  1.5795 -0.8712 -2.8656
   37DG      O9  837   4.495   2.254   5.052  0.3835  0.2304 -0.2149
   37DG     O10  838   4.502   2.246   5.506 -0.1995  0.6899  0.3982
   37DG     C11  839   4.621   2.195   5.035 -0.3315 -0.6217 -0.4109
   37DG     C12  840   4.631   2.181   5.509 -0.7993 -0.7817  0.2376
   37DG     H13  841   4.708   2.260   5.036 -1.5742  1.1656  1.6359
   37DG     H14  842   4.624   2.140   4.941 -1.8267  1.5929 -1.8566
   37DG     H15  843   4.658   2.130   5.601  0.4677  0.3897  0.5447
   37DG     H16  844   4.697   2.267   5.517 -2.7656  0.7575  0.8493
   37DG     C17  845   4.652   2.096   5.144 -0.2429  0.4185  0.2197
   37DG     C18  846   4.678   2.104   5.379 -0.4769  0.3784  0.1840
   37DG     O19  847   4.638   2.171   5.264  0.5701 -0.6422  0.5040
   37DG     H20  848   4.750   2.051   5.134  0.5987  1.9454  1.1734
   37DG     H21  849   4.576   2.019   5.144 -0.1619  0.2633 -2.3536
   37DG     H22  850   4.786   2.093   5.385 -0.5799 -0.5274  0.4902
   37DG     H23  851   4.639   2.002   5.378  1.4119 -0.3836  0.5207
   38DG      C1  852   2.380   4.863   5.034 -0.0970  0.3447 -0.1054
   38DG      C2  853   1.973   5.320   4.992 -0.5811  0.1177 -0.5463
   38DG      H3  854   2.354   4.869   5.140  1.2671 -1.0908  0.3528
   38DG      H4  855   2.489   4.853   5.030 -0.2610 -1.2372 -1.8537
   38DG      H5  856   2.334   4.775   4.990 -0.5057  1.0267 -1.0578
   38DG      H6  857   1.878   5.295   4.945  0.1091  0.5099 -2.2426
   38DG      H7  858   1.975   5.288   5.096  1.7145  3.1937  0.5196
   38DG      H8  859   1.986   5.428   5.001  2.1731 -0.2058  0.3953
   38DG      O9  860   2.355   4.976   4.955 -0.4492 -0.1471 -0.1885
   38DG     O10  861   2.096   5.281   4.928  0.5771  0.3701 -0.2213
   38DG     C11  862   2.429   4.975   4.831  0.1317 -0.9253 -0.0675
   38DG     C12  863   2.105   5.329   4.794 -0.4449  0.5201  0.6596
   38DG     H13  864   2.392   4.891   4.772 -1.6293  0.6198 -1.2872
   38DG     H14  865   2.532   4.942   4.835  0.8630  1.1705 -0.3764
   38DG     H15  866   2.084   5.436   4.791  1.0114  0.7915 -1.0925
   38DG     H16  867   2.031   5.279   4.731 -1.1167  1.4336  0.7100
   38DG     C17  868   2.406   5.103   4.749  0.6597 -0.1141 -0.1365
   38DG     C18  869   2.245   5.286   4.740  0.2188 -0.4031 -0.4551
   38DG     O19  870   2.269   5.149   4.766  0.5663 -0.0934  0.2406
   38DG     H20  871   2.415   5.077   4.644  1.8096  0.0949 -0.1039
   38DG     H21  872   2.481   5.178   4.774 -0.1882  1.3361 -1.7740
   38DG     H22  873   2.249   5.306   4.633  0.7950  1.6932 -0.0883
   38DG     H23  874   2.324   5.343   4.787  0.4631 -0.3911 -0.8759
   39DG      C1  875   3.380   4.169   2.683 -0.0787  0.0198 -0.2774
   39DG      C2  876   3.338   4.710   1.968  0.0111 -0.7395  0.0768
   39DG      H3  877   3.292   4.106   2.696 -1.1345  1.4141 -0.4655
   39DG      H4  878   3.401   4.232   2.769  2.2245  0.3340 -1.0034
   39DG      H5  879   3.465   4.103   2.663 -0.1190 -0.6195  1.4830
   39DG      H6  880   3.263   4.750   1.900  0.5192 -0.2290 -0.1917
   39DG      H7  881   3.381   4.808   1.991 -0.8818  0.1588 -1.8792
   39DG      H8  882   3.403   4.637   1.919  0.1929 -1.8898  1.9346
   39DG      O9  883   3.356   4.249   2.569 -0.3037 -0.2151  0.2296
   39DG     O10  884   3.266   4.652   2.074 -0.0387  0.1405  0.0300
   39DG     C11  885   3.252   4.342   2.588 -0.7484  1.1743 -0.0338
   39DG     C12  886   3.334   4.557   2.144 -0.3339  0.0496 -0.1783
   39DG     H13  887   3.282   4.429   2.647 -4.2665  0.8133  2.5696
   39DG     H14  888   3.169   4.298   2.643  0.1324 -1.3821 -0.6038
   39DG     H15  889   3.426   4.579   2.198 -1.4226  0.4526  1.6005
   39DG     H16  890   3.349   4.478   2.071 -1.5637  0.0711 -0.4855
   39DG     C17  891   3.203   4.380   2.448  0.5474  0.3367 -0.0879
   39DG     C18  892   3.242   4.491   2.245  0.2574 -0.0238  0.2790
   39DG     O19  893   3.298   4.444   2.365 -0.1422 -0.2961 -0.8800
   39DG     H20  894   3.114   4.442   2.455 -0.3892 -0.9582 -0.3370
   39DG     H21  895   3.168   4.293   2.393  3.5407 -0.8026 -0.4226
   39DG     H22  896   3.165   4.564   2.268  0.8541  1.3678 -1.8650
   39DG     H23  897   3.192   4.403   2.204 -2.3220  0.5122  2.0895
   40DG      C1  898   4.163   3.519   0.626  0.8451 -0.1071  0.0352
   40DG      C2  899   3.816   3.141   0.997  0.3031  0.3140  0.2345
   40DG      H3  900   4.212   3.425   0.605 -2.1122 -1.7092 -0.2092
   40DG      H4  901   4.218   3.604   0.584  0.0007  0.5011  0.1305
   40DG      H5  902   4.065   3.522   0.579  0.8784 -1.6896 -0.1737
   40DG      H6  903   3.753   3.145   1.086 -0.5208 -0.3486 -0.3102
   40DG      H7  904   3.750   3.162   0.914  0.6611 -0.8817 -0.3749
   40DG      H8  905   3.862   3.043   0.986 -2.8667 -1.1242 -1.6995
   40DG      O9  906   4.141   3.523   0.768  0.0295 -0.1793 -0.6601
   40DG     O10  907   3.924   3.230   1.014 -0.0550 -0.3103  0.1917
   40DG     C11  908   4.250   3.520   0.860  0.3100 -0.0325  0.2150
   40DG     C12  909   3.988   3.236   1.142 -0.1157 -0.0382  0.0433
   40DG     H13  910   4.316   3.603   0.835 -1.8524  2.3390  1.8148
   40DG     H14  911   4.303   3.427   0.841 -1.0657 -0.8515  0.1934
   40DG     H15  912   4.064   3.158   1.140 -0.3608 -0.2906 -1.9939
   40DG     H16  913   3.932   3.217   1.233 -0.4416 -3.0138 -0.6751
   40DG     C17  914   4.207   3.499   1.002  0.6415 -0.1629 -0.0267
   40DG     C18  915   4.074   3.360   1.151 -0.1739 -0.6257  0.2510
   40DG     O19  916   4.121   3.386   1.012  0.0843  0.4982  0.1979
   40DG     H20  917   4.145   3.583   1.031  0.0615 -0.6601  0.2017
   40DG     H21  918   4.292   3.484   1.068 -0.3180 -1.8237  0.9017
   40DG     H22  919   4.008   3.441   1.181 -0.6041 -0.9423  0.1885
   40DG     H23  920   4.154   3.360   1.225 -0.9157 -1.9744  1.1032
   41DG      C1  921   0.049   2.971   2.710  1.1022 -0.3376 -0.3348
   41DG      C2  922   0.397   2.998   2.154 -0.0859  0.6106 -0.3933
   41DG      H3  923  -0.049   2.973   2.661  1.1845  1.2698 -0.4623
   41DG      H4  924   0.039   2.995   2.816  0.7266  0.6825 -0.5976
   41DG      H5  925   0.084   2.868   2.715  1.2544 -0.5030 -3.2002
   41DG      H6  926   0.465   2.926   2.197  0.3461  2.4137  2.1896
   41DG      H7  927   0.314   2.945   2.107 -2.3469  2.8574  0.7670
   41DG      H8  928   0.451   3.049   2.074 -1.1270  1.4324 -0.6056
   41DG      O9  929   0.147   3.062   2.654  0.7481 -0.0369  0.0516
   41DG     O10  930   0.340   3.072   2.258  0.2618  0.5005  0.1586
   41DG     C11  931   0.091   3.191   2.650 -0.1501 -0.7089 -0.1498
   41DG     C12  932   0.274   3.185   2.217  0.3365  0.0609  0.4149
   41DG     H13  933   0.089   3.235   2.750 -0.0210  1.2254 -0.9528
   41DG     H14  934  -0.009   3.201   2.607  0.7013  1.0749 -1.8532
   41DG     H15  935   0.172   3.153   2.201 -0.5869  1.9893  1.9980
   41DG     H16  936   0.300   3.238   2.125 -0.8269  0.2254  0.1669
   41DG     C17  937   0.180   3.279   2.560 -0.9727  0.3633  0.9331
   41DG     C18  938   0.285   3.277   2.338 -0.3121  0.1697  0.1407
   41DG     O19  939   0.199   3.211   2.434  0.1914 -0.0819 -0.3934
   41DG     H20  940   0.278   3.299   2.603 -0.9898 -0.4638  1.3837
   41DG     H21  941   0.138   3.380   2.558  0.2752  0.8929 -0.0288
   41DG     H22  942   0.388   3.294   2.372 -0.8857 -0.2696  2.2754
   41DG     H23  943   0.249   3.378   2.318  2.4473  1.5845  1.6265
   42DG      C1  944   1.071   0.859   1.991 -0.2842  0.7702  0.4705
   42DG      C2  945   0.551   1.194   1.880  0.1131 -0.3924  0.1578
   42DG      H3  946   0.994   0.783   1.979 -0.2874  1.1561 -2.8484
   42DG      H4  947   1.033   0.910   2.079 -2.7671  0.3865 -0.3064
   42DG      H5  948   1.165   0.806   2.006 -1.4922 -1.3271  1.0022
   42DG      H6  949   0.501   1.243   1.964 -1.1931  0.5575 -1.1248
   42DG      H7  950   0.521   1.260   1.799 -3.4587 -2.6688 -0.6405
   42DG      H8  951   0.515   1.091   1.868  1.8974 -1.2242  1.4611
   42DG      O9  952   1.095   0.947   1.882  0.4659 -0.3464  0.3480
   42DG     O10  953   0.687   1.208   1.899 -0.7409 -0.8226 -0.0557
   42DG     C11  954   1.158   1.071   1.909  0.0390 -0.3637  0.1275
   42DG     C12  955   0.723   1.189   2.042 -0.2781  0.1108 -0.2420
   42DG     H13  956   1.165   1.132   1.819 -0.2791 -2.0971 -1.1378
   42DG     H14  957   1.260   1.050   1.940  0.8094 -0.1712 -2.0805
   42DG     H15  958   0.713   1.084   2.073 -0.6110  0.2403  0.0975
   42DG     H16  959   0.659   1.248   2.108 -0.0743  0.9025 -0.7414
   42DG     C17  960   1.089   1.161   2.015 -0.2121 -0.5813  0.2765
   42DG     C18  961   0.869   1.228   2.071 -0.1038  0.0471 -0.8231
   42DG     O19  962   0.951   1.151   1.984  0.6084 -0.9565 -0.2433
   42DG     H20  963   1.122   1.265   2.016  1.1163 -0.9692  2.1647
   42DG     H21  964   1.099   1.122   2.116  2.4896  0.0550  0.3379
   42DG     H22  965   0.888   1.334   2.054 -1.0150  0.9377  2.8672
   42DG     H23  966   0.892   1.220   2.177  0.9303  0.2238 -1.0263
   43DG      C1  967   1.582   1.142   0.440 -0.7064  0.5460 -0.0771
   43DG      C2  968   2.106   1.412   0.120  0.2190  0.2982 -0.2586
   43DG      H3  969   1.606   1.060   0.373  0.5982 -1.0043  2.1464
   43DG      H4  970   1.540   1.214   0.370 -2.1699  1.1882  1.3868
   43DG      H5  971   1.505   1.116   0.512  2.5195 -1.8609  2.8336
   43DG      H6  972   2.132   1.465   0.212  0.1541 -1.7250  0.9918
   43DG      H7  973   2.198   1.384   0.068  1.0331 -0.4324  1.4725
   43DG      H8  974   2.035   1.464   0.056 -1.9205  0.0224  1.7371
   43DG      O9  975   1.700   1.185   0.512 -0.0578  0.2367  0.8661
   43DG     O10  976   2.038   1.289   0.170 -0.0720 -0.3544  0.2821
   43DG     C11  977   1.778   1.081   0.570 -0.1973 -0.5116 -0.2504
   43DG     C12  978   2.123   1.212   0.252  0.3539  0.1489  0.3530
   43DG     H13  979   1.701   1.009   0.598  1.0618 -1.7033  0.2411
   43DG     H14  980   1.829   1.118   0.659 -0.7837 -1.2679  0.4212
   43DG     H15  981   2.173   1.271   0.328  0.2000  2.2715 -1.1069
   43DG     H16  982   2.199   1.168   0.187 -0.9859 -0.7397 -0.6612
   43DG     C17  983   1.878   1.021   0.470 -0.5304 -0.1343 -0.4012
   43DG     C18  984   2.035   1.091   0.308 -0.4886  0.0447 -0.9839
   43DG     O19  985   1.956   1.129   0.419  0.6195  0.2285  0.3607
   43DG     H20  986   1.807   0.975   0.403 -2.2098  0.9157  0.5830
   43DG     H21  987   1.943   0.954   0.527  0.2393  2.0327  1.4305
   43DG     H22  988   1.976   1.046   0.228  0.7286  0.9119 -2.4297
   43DG     H23  989   2.111   1.018   0.336 -1.4124 -0.9799 -1.0702
   44DG      C1  990   3.139   5.132   3.123  0.0159  0.5233  0.0235
   44DG      C2  991   3.336   5.242   3.592  0.3171 -0.2252  0.2829
   44DG      H3  992   3.233   5.182   3.098  0.4715 -0.2920  0.0420
   44DG      H4  993   3.061   5.208   3.122 -0.2543  0.2469 -1.0408
   44DG      H5  994   3.115   5.060   3.045 -1.3370 -1.6937  2.3383
   44DG      H6  995   3.445   5.239   3.592  0.4593  2.4883  1.5281
   44DG      H7  996   3.293   5.205   3.499  1.2895  3.6850 -1.9828
   44DG      H8  997   3.322   5.350   3.585 -0.2676 -0.3453 -0.5898
   44DG      O9  998   3.139   5.065   3.251  0.0974 -0.2032 -0.0195
   44DG     O10  999   3.279   5.194   3.711 -0.0034  0.2862 -0.2845
   44DG     C11 1000   3.228   4.957   3.255  0.2178  0.3308 -0.2273
   44DG     C12 1001   3.287   5.049   3.727  0.0409  0.1360 -0.7224
   44DG     H13 1002   3.332   4.985   3.238  0.3130 -0.4501 -0.9753
   44DG     H14 1003   3.198   4.878   3.186  0.7344  0.3001 -0.4244
   44DG     H15 1004   3.253   5.024   3.827 -0.0703  0.8218 -0.5830
   44DG     H16 1005   3.395   5.031   3.730 -0.3869 -2.6683  0.6109
   44DG     C17 1006   3.217   4.895   3.387  0.1577  0.5361  0.5385
   44DG     C18 1007   3.214   4.965   3.616  0.0678  0.2934 -0.0787
   44DG     O19 1008   3.284   4.973   3.486  0.3529  0.1553  0.0739
   44DG     H20 1009   3.276   4.804   3.392 -1.2544 -0.3951  1.0297
   44DG     H21 1010   3.111   4.879   3.409 -0.2503  2.2503 -0.0499
   44DG     H22 1011   3.206   4.861   3.648  0.3115  0.8469  1.9415
   44DG     H23 1012   3.107   4.986   3.605 -0.7776 -3.1819  0.4997
   45DG      C1 1013   0.348   2.894   3.574 -0.5350 -0.1731 -0.3664
   45DG      C2 1014   0.222   3.598   3.286 -0.6594 -0.1440 -0.4975
   45DG      H3 1015   0.276   2.902   3.655  1.2765  1.3378  1.1844
   45DG      H4 1016   0.424   2.824   3.609 -1.9634 -2.7787 -2.1690
   45DG      H5 1017   0.301   2.860   3.482  0.4361 -1.9722 -0.2341
   45DG      H6 1018   0.128   3.584   3.232 -1.0559  2.7616 -0.7422
   45DG      H7 1019   0.211   3.617   3.392 -0.1140 -2.5627  0.0453
   45DG      H8 1020   0.267   3.690   3.249 -1.1912  2.1870  3.9646
   45DG      O9 1021   0.404   3.029   3.557  0.0532 -0.3178 -0.1361
   45DG     O10 1022   0.313   3.494   3.281  0.0778 -0.0335 -0.0868
   45DG     C11 1023   0.504   3.036   3.461 -0.2258  0.2295  0.1743
   45DG     C12 1024   0.258   3.367   3.329 -0.1126 -0.1754 -0.2201
   45DG     H13 1025   0.462   2.988   3.372  1.0421 -2.6472  1.0151
   45DG     H14 1026   0.597   2.983   3.484  0.6425  0.9643 -1.4863
   45DG     H15 1027   0.164   3.340   3.280 -0.6187  0.7649  0.1879
   45DG     H16 1028   0.229   3.387   3.432  0.2679 -0.1318 -0.1207
   45DG     C17 1029   0.550   3.182   3.432 -0.3653  0.2899  0.0831
   45DG     C18 1030   0.361   3.260   3.323  0.4148 -0.4469 -0.1136
   45DG     O19 1031   0.447   3.276   3.435 -0.4650  0.2880  0.2105
   45DG     H20 1032   0.599   3.188   3.334  0.6545 -0.4600  0.5332
   45DG     H21 1033   0.625   3.206   3.507 -0.0368 -2.1355  0.6004
   45DG     H22 1034   0.315   3.161   3.329 -0.6694  0.0889  0.7971
   45DG     H23 1035   0.416   3.264   3.229  0.6818  0.0382  0.0627
   46DG      C1 1036   2.977   4.045   5.112 -0.1936  0.4289  0.7706
   46DG      C2 1037   3.014   3.300   5.314  0.3113  0.1229 -0.5027
   46DG      H3 1038   2.879   4.089   5.132 -1.4190 -0.7017 -2.2688
   46DG      H4 1039   3.019   4.091   5.023 -0.0964 -3.0578 -1.1547
   46DG      H5 1040   3.043   4.075   5.194 -0.1689  0.6587  0.6673
   46DG      H6 1041   3.093   3.318   5.241  1.0018 -1.6796 -0.2361
   46DG      H7 1042   3.060   3.254   5.401  2.4691 -1.1632 -2.2219
   46DG      H8 1043   2.953   3.222   5.268  1.5468 -0.4851 -1.1514
   46DG      O9 1044   2.973   3.902   5.084  0.1289  0.2803  0.0512
   46DG     O10 1045   2.926   3.408   5.342 -0.4716 -0.1322 -0.3738
   46DG     C11 1046   2.881   3.829   5.159 -0.0424  0.9580  0.0861
   46DG     C12 1047   2.996   3.501   5.426  0.2674 -0.2949 -0.5885
   46DG     H13 1048   2.848   3.760   5.082  1.0518 -0.2099  0.6169
   46DG     H14 1049   2.802   3.895   5.193 -0.8769 -0.4968  1.0777
   46DG     H15 1050   3.093   3.531   5.387 -0.7648  1.5847 -1.8924
   46DG     H16 1051   3.007   3.439   5.515  0.2022 -0.1470 -0.4783
   46DG     C17 1052   2.950   3.758   5.279 -0.1664  0.1127 -0.0939
   46DG     C18 1053   2.912   3.625   5.474 -0.3635  0.9011  0.0406
   46DG     O19 1054   2.859   3.696   5.365  0.3393  0.1646 -0.2729
   46DG     H20 1055   3.011   3.829   5.335 -1.1009  1.2522 -0.4612
   46DG     H21 1056   3.004   3.677   5.231 -1.2961 -2.3597  2.4928
   46DG     H22 1057   2.833   3.586   5.538  1.0822 -3.4594 -0.4412
   46DG     H23 1058   2.975   3.685   5.539  1.4484 -1.5824  0.7311
   47DG      C1 1059   2.204   0.882   4.790  0.1207 -0.2860 -0.4260
   47DG      C2 1060   2.225   0.227   4.610 -0.0362  0.3629  0.2536
   47DG      H3 1061   2.127   0.902   4.716  1.7959  2.0638 -1.6433
   47DG      H4 1062   2.261   0.974   4.796  0.3742 -0.4976  0.6692
   47DG      H5 1063   2.166   0.864   4.891 -0.6940 -4.0192 -1.2421
   47DG      H6 1064   2.256   0.176   4.519  0.0790  1.0720 -0.1103
   47DG      H7 1065   2.220   0.156   4.693  0.6484  0.5968  0.4937
   47DG      H8 1066   2.126   0.271   4.594 -0.6775 -1.0340  0.2092
   47DG      O9 1067   2.283   0.775   4.740 -0.3973  0.5868  0.3078
   47DG     O10 1068   2.305   0.339   4.640 -0.3858 -0.5799  0.1089
   47DG     C11 1069   2.422   0.792   4.779 -0.3671 -0.0877 -0.2612
   47DG     C12 1070   2.435   0.310   4.688 -0.0613  0.2794 -0.2948
   47DG     H13 1071   2.430   0.802   4.888  0.7692 -0.8032 -0.2614
   47DG     H14 1072   2.457   0.887   4.740  1.7571 -0.9843 -0.6999
   47DG     H15 1073   2.478   0.233   4.624 -2.6346 -0.6195 -1.0718
   47DG     H16 1074   2.425   0.266   4.787 -2.8929 -0.5357 -0.8580
   47DG     C17 1075   2.500   0.676   4.726  0.8107  0.8665  0.1650
   47DG     C18 1076   2.512   0.448   4.676 -0.5773 -0.1251  0.1536
   47DG     O19 1077   2.436   0.550   4.748 -0.2990  0.1448 -0.0019
   47DG     H20 1078   2.603   0.678   4.760  0.2819  2.2006  1.9032
   47DG     H21 1079   2.486   0.694   4.620  0.2053 -1.3539 -0.1749
   47DG     H22 1080   2.614   0.455   4.715 -0.9115  0.6673  0.9249
   47DG     H23 1081   2.531   0.472   4.571  2.0635  0.0660  0.5935
   48DG      C1 1082   4.183   2.183   4.281  0.0717 -0.0606 -0.2317
   48DG      C2 1083   4.373   2.787   4.435 -0.4009  0.2500 -0.2850
   48DG      H3 1084   4.159   2.266   4.215  2.0102  0.0237 -0.8726
   48DG      H4 1085   4.105   2.110   4.303  1.5824 -1.3186  1.2543
   48DG      H5 1086   4.262   2.136   4.222  0.2138 -1.5232  1.0627
   48DG      H6 1087   4.419   2.781   4.336 -0.8277 -2.6055 -0.4039
   48DG      H7 1088   4.271   2.822   4.419  0.1341  1.7767 -0.4930
   48DG      H8 1089   4.418   2.869   4.490 -2.2649 -0.5482  2.6766
   48DG      O9 1090   4.239   2.238   4.400 -0.5180  0.0294  0.3544
   48DG     O10 1091   4.384   2.665   4.508  0.9948 -0.0510 -0.2811
   48DG     C11 1092   4.349   2.180   4.461  0.1748 -0.4139  0.3169
   48DG     C12 1093   4.516   2.621   4.523  0.2871 -0.2835 -0.0734
   48DG     H13 1094   4.424   2.156   4.385  1.4150  0.0053  1.3853
   48DG     H14 1095   4.311   2.087   4.504 -1.1929 -0.9651 -1.9018
   48DG     H15 1096   4.565   2.693   4.589 -0.3373 -0.4977  0.6287
   48DG     H16 1097   4.570   2.591   4.433  0.7894  1.0845 -0.2489
   48DG     C17 1098   4.411   2.266   4.573  0.8020 -0.1634  0.1113
   48DG     C18 1099   4.500   2.493   4.604 -0.0267  0.2960 -0.2367
   48DG     O19 1100   4.418   2.402   4.530  0.1222 -0.2723  0.3603
   48DG     H20 1101   4.516   2.239   4.589  0.8945  0.2123  0.1379
   48DG     H21 1102   4.356   2.259   4.667  0.6414 -0.3176  0.0071
   48DG     H22 1103   4.600   2.452   4.614  0.1176  0.9991  1.6501
   48DG     H23 1104   4.456   2.497   4.703 -0.1723  0.7527 -0.3190
   49DG      C1 1105   4.793   1.865   4.308  0.3167 -0.0442  0.1611
   49DG      C2 1106   4.694   2.078   3.441  0.7752  0.4478  0.2442
   49DG      H3 1107   4.703   1.892   4.363 -1.9482 -0.4865 -3.0804
   49DG      H4 1108   4.878   1.869   4.376 -0.7003  1.7859  1.4080
   49DG      H5 1109   4.772   1.763   4.277 -1.1976  0.7585 -1.6020
   49DG      H6 1110   4.710   1.982   3.391  3.4338  2.5996 -3.5677
   49DG      H7 1111   4.594   2.077   3.485  1.1981  1.5832  1.2670
   49DG      H8 1112   4.719   2.154   3.367 -0.1385  0.7218  0.1960
   49DG      O9 1113   4.818   1.945   4.193 -0.2166  1.0194  0.4379
   49DG     O10 1114   4.783   2.085   3.547  0.6834 -0.2776 -0.4656
   49DG     C11 1115   4.914   1.895   4.103  0.1359  0.0830 -0.2154
   49DG     C12 1116   4.759   1.993   3.653  0.0260 -0.4918 -0.2776
   49DG     H13 1117   4.904   1.795   4.060  1.8774  0.0006 -0.4610
   49DG     H14 1118   5.007   1.912   4.156  0.1188  2.9164 -0.9615
   49DG     H15 1119   4.796   1.902   3.607  1.3796  0.2984 -0.8012
   49DG     H16 1120   4.654   1.971   3.671  0.1873 -2.2294 -1.2832
   49DG     C17 1121   4.918   1.977   3.982 -0.2298 -0.0277  0.2991
   49DG     C18 1122   4.831   2.033   3.782 -0.2845 -0.2150 -0.7586
   49DG     O19 1123   4.826   1.934   3.885 -0.3105  0.2723  0.5702
   49DG     H20 1124   5.024   1.976   3.954  0.1417  1.7991  1.4750
   49DG     H21 1125   4.905   2.081   4.012  0.2327  0.6267 -1.6160
   49DG     H22 1126   4.934   2.047   3.751  0.6166  1.3497  2.4546
   49DG     H23 1127   4.788   2.125   3.824 -1.6709 -0.3412 -1.8087
   50DG      C1 1128   0.248   1.338   2.042  0.6334  0.1704 -1.0289
   50DG      C2 1129  -0.299   0.940   2.148  0.2331 -0.6186 -0.0587
   50DG      H3 1130   0.185   1.403   2.103  0.2230 -2.4328  1.5289
   50DG      H4 1131   0.311   1.402   1.980  1.5793 -1.0608 -1.3918
   50DG      H5 1132   0.290   1.262   2.108 -0.9153  0.5431  0.4610
   50DG      H6 1133  -0.359   1.015   2.199 -0.6035  0.5666 -2.6299
   50DG      H7 1134  -0.367   0.860   2.118  0.2887 -0.5140 -0.4802
   50DG      H8 1135  -0.234   0.901   2.227 -0.4117  0.0561  0.8193
   50DG      O9 1136   0.149   1.269   1.956 -0.0479 -0.3506 -0.1047
   50DG     O10 1137  -0.221   0.983   2.035 -0.1670 -0.5439 -0.0620
   50DG     C11 1138   0.064   1.360   1.873 -0.2023  0.9516 -0.3314
   50DG     C12 1139  -0.306   1.060   1.945 -0.0499 -0.3587 -0.0404
   50DG     H13 1140   0.126   1.414   1.802  0.0658  0.5223 -0.4307
   50DG     H14 1141   0.008   1.428   1.937 -2.4855 -2.5393  1.7204
   50DG     H15 1142  -0.358   1.135   2.005  0.9886 -0.2246  0.7328
   50DG     H16 1143  -0.375   0.991   1.897 -1.5544  1.6215 -0.8246
   50DG     C17 1144  -0.040   1.277   1.797 -0.3048 -0.6771 -0.6056
   50DG     C18 1145  -0.223   1.130   1.837  0.1282  0.1613  0.4703
   50DG     O19 1146  -0.125   1.214   1.897 -0.7104 -0.5324  0.0871
   50DG     H20 1147   0.012   1.211   1.727 -1.2607 -0.9059 -1.1105
   50DG     H21 1148  -0.102   1.338   1.732 -0.9201  0.3925  0.9289
   50DG     H22 1149  -0.169   1.061   1.774 -0.0295  1.3262 -0.9859
   50DG     H23 1150  -0.286   1.195   1.776  0.2772 -0.1813 -0.0550
   51DG      C1 1151   2.239   0.119   0.726  0.1109  0.9036 -0.7408
   51DG      C2 1152   2.307  -0.555   0.530  1.0232  0.2019  0.4065
   51DG      H3 1153   2.165   0.143   0.802 -1.8563 -2.7389 -1.2811
   51DG      H4 1154   2.234   0.188   0.642 -1.1818 -1.0865 -2.3766
   51DG      H5 1155   2.332   0.125   0.782 -1.0554 -0.9226  1.5770
   51DG      H6 1156   2.413  -0.530   0.535  1.0720 -0.1823  1.7306
   51DG      H7 1157   2.284  -0.645   0.588 -1.6811 -0.1653 -1.1186
   51DG      H8 1158   2.284  -0.587   0.428  3.2186 -1.8250  0.4524
   51DG      O9 1159   2.223  -0.006   0.663 -0.1520  0.8791  0.1040
   51DG     O10 1160   2.230  -0.445   0.569  0.4306 -0.4267 -0.2418
   51DG     C11 1161   2.100  -0.006   0.599 -0.5768 -0.1406  0.0689
   51DG     C12 1162   2.095  -0.470   0.559 -0.2298 -0.4850 -0.1924
   51DG     H13 1163   2.104   0.054   0.508  1.4040 -0.8635 -0.3869
   51DG     H14 1164   2.018   0.025   0.663 -0.4260  0.5432 -0.0612
   51DG     H15 1165   2.065  -0.574   0.575 -1.7451 -0.3807 -1.9857
   51DG     H16 1166   2.053  -0.444   0.462 -2.9195 -1.8030  0.5145
   51DG     C17 1167   2.076  -0.157   0.554  0.6396 -0.3146 -0.4091
   51DG     C18 1168   2.013  -0.374   0.651 -0.8458 -0.0530  0.0539
   51DG     O19 1169   2.081  -0.241   0.670 -0.2921  0.4103 -0.1068
   51DG     H20 1170   2.150  -0.192   0.483 -0.3346 -1.3379 -0.9564
   51DG     H21 1171   1.979  -0.163   0.506 -0.5843  0.9745  1.7379
   51DG     H22 1172   1.913  -0.355   0.612 -0.7248 -0.9214 -0.7151
   51DG     H23 1173   2.018  -0.435   0.741 -1.0575  1.0638  0.8333
   52DG      C1 1174   5.177   3.139   4.491 -0.3646 -0.5462 -0.0976
   52DG      C2 1175   5.248   2.638   4.867 -0.2307 -0.1668  0.9361
   52DG      H3 1176   5.252   3.073   4.447 -0.2731  1.3895 -3.0809
   52DG      H4 1177   5.238   3.228   4.503  0.2285 -1.0385  0.7094
   52DG      H5 1178   5.095   3.144   4.420 -2.6105 -2.7667  2.1349
   52DG      H6 1179   5.311   2.607   4.950 -1.0334  0.3707  1.7720
   52DG      H7 1180   5.172   2.562   4.850  0.7315 -0.6794 -1.4286
   52DG      H8 1181   5.319   2.635   4.784 -2.7345 -0.5822 -1.3515
   52DG      O9 1182   5.140   3.092   4.623 -0.3614  0.5248 -0.0205
   52DG     O10 1183   5.209   2.769   4.891 -0.1234  0.2280 -0.4175
   52DG     C11 1184   5.037   3.164   4.689 -0.3826  0.5976  0.1830
   52DG     C12 1185   5.103   2.783   4.990  0.1923  0.1989  0.1896
   52DG     H13 1186   4.942   3.140   4.643  0.4463 -1.6399 -0.4848
   52DG     H14 1187   5.043   3.273   4.694  1.5358  0.5041  0.8385
   52DG     H15 1188   5.138   2.752   5.088 -1.6328 -0.8161  0.5539
   52DG     H16 1189   5.023   2.710   4.980  0.7943 -0.5708  0.8654
   52DG     C17 1190   5.031   3.124   4.844  0.3776  0.0147 -1.2992
   52DG     C18 1191   5.046   2.925   4.993 -0.8495  0.3311  0.9132
   52DG     O19 1192   5.024   2.985   4.868  0.7016  0.0843  0.0690
   52DG     H20 1193   4.944   3.168   4.894 -0.7285 -2.9367 -0.4113
   52DG     H21 1194   5.118   3.168   4.892 -0.7628  1.9483 -0.8756
   52DG     H22 1195   4.963   2.928   5.063 -1.2896  0.2223  0.4065
   52DG     H23 1196   5.129   2.979   5.037  1.0134 -0.7856 -1.0667
   53DG      C1 1197   0.714   0.437   3.995 -1.0935 -0.1200  0.3356
   53DG      C2 1198   1.396   0.499   4.439 -0.3314 -0.5916  0.1969
   53DG      H3 1199   0.775   0.407   3.910  1.0422 -0.2771  1.8290
   53DG      H4 1200   0.739   0.542   4.008 -0.9205  0.0434 -1.1616
   53DG      H5 1201   0.609   0.424   3.971 -1.1628 -1.3906  1.2137
   53DG      H6 1202   1.363   0.599   4.466 -3.8071 -1.5311 -0.1329
   53DG      H7 1203   1.470   0.464   4.511  2.2208  1.4418 -1.2478
   53DG      H8 1204   1.451   0.516   4.346 -1.7665  1.9249 -0.2801
   53DG      O9 1205   0.770   0.363   4.110  0.0173  0.5750 -0.4506
   53DG     O10 1206   1.295   0.407   4.409  0.0860  0.2333 -0.9815
   53DG     C11 1207   0.731   0.410   4.236 -0.4514  0.8934 -0.0532
   53DG     C12 1208   1.171   0.465   4.388  0.1422  0.4906  0.5075
   53DG     H13 1209   0.627   0.387   4.258 -0.8236  1.4886 -1.1559
   53DG     H14 1210   0.724   0.518   4.237  0.8593  0.9983 -0.4666
   53DG     H15 1211   1.178   0.524   4.297 -0.2913 -1.8601 -1.1298
   53DG     H16 1212   1.153   0.536   4.469  0.4722 -0.1963  1.1927
   53DG     C17 1213   0.830   0.347   4.336 -0.5654 -0.3165 -0.0050
   53DG     C18 1214   1.057   0.361   4.387 -0.5521 -0.2409  0.1877
   53DG     O19 1215   0.944   0.429   4.334 -0.0706 -0.7589 -0.7724
   53DG     H20 1216   0.850   0.243   4.310  0.6131  0.4299 -2.5087
   53DG     H21 1217   0.786   0.349   4.435 -1.0259  0.8359 -0.2202
   53DG     H22 1218   1.088   0.267   4.343 -0.2116 -1.1507  2.2454
   53DG     H23 1219   1.041   0.330   4.490 -1.3350 -0.2928  0.0559
   54DG      C1 1220   2.609   4.152   4.534  0.5098  0.0122 -0.4203
   54DG      C2 1221   3.320   3.917   4.282 -0.2093  0.3449 -0.2620
   54DG      H3 1222   2.560   4.211   4.610 -0.7242 -2.0376  0.4438
   54DG      H4 1223   2.554   4.060   4.515 -1.0653  0.1757  2.7255
   54DG      H5 1224   2.599   4.213   4.443  0.5011  0.5332 -0.0736
   54DG      H6 1225   3.423   3.939   4.311 -0.0009 -2.0007  1.0271
   54DG      H7 1226   3.315   3.809   4.267  2.4053 -0.0654  1.1893
   54DG      H8 1227   3.295   3.983   4.199 -1.0565  1.0520  0.5339
   54DG      O9 1228   2.746   4.120   4.534 -0.4113 -0.4886 -0.2219
   54DG     O10 1229   3.228   3.947   4.386  0.0024  0.1786 -0.2314
   54DG     C11 1230   2.829   4.221   4.578  0.3409 -0.1826  0.0105
   54DG     C12 1231   3.091   3.937   4.345  0.1670 -0.4880 -0.0418
   54DG     H13 1232   2.783   4.265   4.666  1.6182 -0.7403  0.9903
   54DG     H14 1233   2.829   4.300   4.504  0.4260 -0.6317 -0.4737
   54DG     H15 1234   3.073   3.832   4.322 -2.0067 -0.6969  2.1508
   54DG     H16 1235   3.089   3.996   4.253 -0.8572 -0.3500  0.0558
   54DG     C17 1236   2.968   4.171   4.612 -0.4381 -0.0738 -0.2244
   54DG     C18 1237   2.995   3.998   4.453 -0.9512  0.2445 -0.2381
   54DG     O19 1238   3.040   4.124   4.498  0.2408 -0.1426 -0.2600
   54DG     H20 1239   2.964   4.085   4.679  0.9146  0.0301  0.0101
   54DG     H21 1240   3.026   4.246   4.665  1.6841 -1.2813 -0.7057
   54DG     H22 1241   2.898   3.988   4.406 -1.6894 -0.0110  1.2708
   54DG     H23 1242   2.989   3.924   4.533 -1.4734 -0.5052 -0.9536
   55DG      C1 1243   3.228   1.519   2.899 -0.1997  0.3360  0.2855
   55DG      C2 1244   3.289   0.832   2.599  0.1953 -0.1136 -0.0983
   55DG      H3 1245   3.163   1.528   2.985 -2.3285 -1.9490 -0.9651
   55DG      H4 1246   3.176   1.550   2.808  1.6264  1.2720 -0.5020
   55DG      H5 1247   3.315   1.585   2.908 -0.7460  0.8972  1.6072
   55DG      H6 1248   3.198   0.790   2.640 -0.1726 -0.8435 -1.6011
   55DG      H7 1249   3.275   0.867   2.497  0.9406  0.1117 -0.1356
   55DG      H8 1250   3.375   0.765   2.592  1.7306  1.5135  1.8887
   55DG      O9 1251   3.279   1.393   2.874  0.4280 -0.2358 -0.0993
   55DG     O10 1252   3.331   0.946   2.676 -0.3426 -0.7002 -0.3655
   55DG     C11 1253   3.362   1.338   2.970  0.7748 -0.3149 -0.0648
   55DG     C12 1254   3.391   0.910   2.796  0.2694 -0.5012 -0.0230
   55DG     H13 1255   3.296   1.306   3.050 -1.0966  1.4630 -0.8070
   55DG     H14 1256   3.413   1.424   3.013  0.0894  0.3263 -0.5012
   55DG     H15 1257   3.451   0.820   2.778 -0.1329 -0.6281 -0.7710
   55DG     H16 1258   3.320   0.894   2.877 -0.5737 -0.7346 -0.7924
   55DG     C17 1259   3.466   1.237   2.923  0.2730  0.5887 -0.5036
   55DG     C18 1260   3.492   1.015   2.837  0.8336 -0.1707  0.0094
   55DG     O19 1261   3.416   1.132   2.857 -0.0980  0.6036  0.5149
   55DG     H20 1262   3.526   1.200   3.006  1.3092 -2.1502 -2.3190
   55DG     H21 1263   3.531   1.291   2.854  0.1294 -1.1169 -2.0473
   55DG     H22 1264   3.541   0.981   2.928  0.1659  1.8561  1.2049
   55DG     H23 1265   3.577   1.025   2.771 -0.0655 -1.8492 -1.4960
   56DG      C1 1266   0.656   0.033   2.362  0.1366  0.1748 -0.4309
   56DG      C2 1267   0.809  -0.254   1.632 -0.0113  0.0207 -0.6377
   56DG      H3 1268   0.659   0.018   2.470 -1.7639  1.3165 -0.1789
   56DG      H4 1269   0.570  -0.030   2.341  0.8382 -0.8496 -0.3407
   56DG      H5 1270   0.627   0.135   2.339 -0.6239  0.0914  0.1221
   56DG      H6 1271   0.831  -0.149   1.617 -1.1690  0.3628 -0.1118
   56DG      H7 1272   0.900  -0.309   1.658  1.6352  1.6024 -2.7710
   56DG      H8 1273   0.770  -0.295   1.539 -0.9187  1.0573 -0.7335
   56DG      O9 1274   0.777  -0.009   2.303 -0.4063  0.0221  0.2746
   56DG     O10 1275   0.720  -0.271   1.740 -0.3600 -0.4067  0.0131
   56DG     C11 1276   0.813  -0.147   2.318  0.4154 -0.4301 -0.4629
   56DG     C12 1277   0.775  -0.209   1.859 -0.1705 -0.3167  0.0456
   56DG     H13 1278   0.801  -0.160   2.425 -0.0774 -2.8570 -0.7394
   56DG     H14 1279   0.920  -0.146   2.299  0.8639  0.4521  1.7979
   56DG     H15 1280   0.778  -0.101   1.845 -2.2248 -0.0118  1.4566
   56DG     H16 1281   0.884  -0.222   1.861  0.1269  1.5843 -1.3195
   56DG     C17 1282   0.730  -0.232   2.219  0.0313 -0.5014 -0.6615
   56DG     C18 1283   0.693  -0.231   1.980  0.7572  0.0265 -0.8654
   56DG     O19 1284   0.776  -0.200   2.091 -0.0078 -0.2169 -0.3407
   56DG     H20 1285   0.628  -0.192   2.223  1.2656  3.1483 -1.8883
   56DG     H21 1286   0.750  -0.337   2.236 -0.7342 -0.3647  1.3655
   56DG     H22 1287   0.609  -0.161   1.989  1.8169  1.4587 -1.5260
   56DG     H23 1288   0.674  -0.337   1.995  1.6757  0.3112  3.3308
   57DG      C1 1289   2.633   4.594   3.568 -0.4577 -0.4322 -0.3963
   57DG      C2 1290   2.940   4.957   4.240  0.5028 -0.3371 -0.5365
   57DG      H3 1291   2.575   4.609   3.477 -1.0866 -0.0468  0.0595
   57DG      H4 1292   2.545   4.588   3.631 -1.0325 -1.5483 -1.2680
   57DG      H5 1293   2.671   4.492   3.567  0.1941 -0.2141  0.5134
   57DG      H6 1294   2.975   5.046   4.291 -3.5820  1.5214 -0.6185
   57DG      H7 1295   2.833   4.949   4.259  0.6285 -0.9001 -0.0310
   57DG      H8 1296   2.994   4.874   4.285  0.1621 -0.1377  0.2468
   57DG      O9 1297   2.710   4.707   3.590 -0.4129 -0.1116 -0.2991
   57DG     O10 1298   2.966   4.958   4.103 -0.5268  0.0876 -0.4209
   57DG     C11 1299   2.848   4.668   3.599  0.0586  0.4296  0.0868
   57DG     C12 1300   2.907   4.862   4.022  0.3535  0.7035 -0.8527
   57DG     H13 1301   2.883   4.661   3.496  2.0885  0.9131  0.7047
   57DG     H14 1302   2.851   4.568   3.644 -2.7101  0.7931  1.3604
   57DG     H15 1303   2.802   4.887   4.020  0.5651  2.1356  1.6624
   57DG     H16 1304   2.921   4.762   4.065 -1.6530 -0.4513 -2.6732
   57DG     C17 1305   2.933   4.765   3.673 -0.1717  0.2673  0.1472
   57DG     C18 1306   2.962   4.875   3.884  0.9974  1.0837  0.0884
   57DG     O19 1307   2.881   4.793   3.803 -0.0755  0.1412 -0.4074
   57DG     H20 1308   2.939   4.858   3.617  0.1862  1.8994  2.7387
   57DG     H21 1309   3.026   4.709   3.687  0.3124  0.5116 -1.7655
   57DG     H22 1310   2.949   4.977   3.847 -1.6966  0.2818 -1.4556
   57DG     H23 1311   3.067   4.843   3.882  0.4992 -0.7799  1.5261
   58DG      C1 1312   1.448   4.098   3.905  0.6876 -0.7428 -0.3976
   58DG      C2 1313   1.638   4.151   4.579  0.1773 -0.5101  0.1073
   58DG      H3 1314   1.460   3.990   3.900  0.9803 -0.7326  0.0608
   58DG      H4 1315   1.512   4.135   3.825 -0.1748  0.6035 -0.4934
   58DG      H5 1316   1.348   4.132   3.877  1.5929 -0.7051 -4.1694
   58DG      H6 1317   1.688   4.240   4.541 -3.5993  1.7708 -0.0573
   58DG      H7 1318   1.598   4.177   4.677  0.2998 -2.9643  0.8729
   58DG      H8 1319   1.703   4.064   4.586 -0.0114 -0.8520 -1.8533
   58DG      O9 1320   1.491   4.156   4.025  0.0149  0.1963  0.1548
   58DG     O10 1321   1.531   4.137   4.494  0.2023  1.0069  0.5057
   58DG     C11 1322   1.498   4.296   4.021 -0.3866  0.0985  0.0631
   58DG     C12 1323   1.434   4.235   4.501  0.0190 -0.3058  0.6030
   58DG     H13 1324   1.407   4.332   3.973 -1.2946 -0.6672  1.1629
   58DG     H14 1325   1.577   4.332   3.955 -1.2887 -0.2135 -1.2340
   58DG     H15 1326   1.419   4.291   4.594 -2.0314 -1.6087  1.1204
   58DG     H16 1327   1.341   4.184   4.477  0.7674 -1.2837 -0.2861
   58DG     C17 1328   1.497   4.368   4.159 -0.0054 -0.5425  0.4924
   58DG     C18 1329   1.456   4.344   4.388 -0.1737 -1.0354  0.2904
   58DG     O19 1330   1.460   4.281   4.260 -0.1381  0.0649 -0.3314
   58DG     H20 1331   1.444   4.463   4.150 -0.2672 -0.8113 -1.2107
   58DG     H21 1332   1.590   4.418   4.185 -0.9820  1.8686 -0.3436
   58DG     H22 1333   1.386   4.427   4.392  2.8141  1.9550 -2.5870
   58DG     H23 1334   1.552   4.393   4.407  0.6132 -2.2837 -0.3436
   59DG      C1 1335   1.962   2.943   4.029 -0.0035  0.5024 -0.1421
   59DG      C2 1336   2.319   2.330   3.904  0.3813  0.2488  0.2066
   59DG      H3 1337   1.895   2.970   3.948  0.9531  0.8384 -0.8329
   59DG      H4 1338   2.062   2.980   4.009 -0.8158  3.0344  0.1408
   59DG      H5 1339   1.933   3.008   4.112  1.8148  1.1591  0.0254
   59DG      H6 1340   2.398   2.330   3.979  1.3906  0.0918 -0.8266
   59DG      H7 1341   2.322   2.228   3.865 -2.0176  0.6587 -1.2764
   59DG      H8 1342   2.350   2.402   3.828  0.3326  0.0806  0.0263
   59DG      O9 1343   1.968   2.804   4.069  0.8806 -0.6212 -0.0257
   59DG     O10 1344   2.197   2.358   3.972  0.3266  0.2172  0.1856
   59DG     C11 1345   1.839   2.742   4.083 -0.6193 -0.3757  0.0371
   59DG     C12 1346   2.081   2.361   3.884 -0.0637 -0.3031 -0.1639
   59DG     H13 1347   1.787   2.754   3.988 -0.1057 -1.9171 -0.4731
   59DG     H14 1348   1.771   2.783   4.158  0.9502  2.0650  0.2405
   59DG     H15 1349   2.044   2.272   3.833 -0.3812  0.2669 -0.9539
   59DG     H16 1350   2.100   2.433   3.804 -2.3359 -0.1791 -0.6568
   59DG     C17 1351   1.855   2.588   4.090 -0.5160  0.6819 -0.3774
   59DG     C18 1352   1.961   2.397   3.977  0.6743  0.2188 -0.0393
   59DG     O19 1353   1.963   2.535   4.013  0.4630  0.2418 -0.0343
   59DG     H20 1354   1.764   2.529   4.085  0.7571 -1.9127  3.1056
   59DG     H21 1355   1.882   2.571   4.194  0.8032 -0.4516 -0.8925
   59DG     H22 1356   1.876   2.383   3.911  0.8796 -0.2714 -0.2101
   59DG     H23 1357   1.940   2.332   4.062 -2.1939  0.8705 -0.1474
   60DG      C1 1358   3.198   0.936   0.800 -0.6033  0.0796 -0.0471
   60DG      C2 1359   3.700   1.252   1.183  0.3044 -0.4029 -0.5185
   60DG      H3 1360   3.101   0.986   0.798  0.6007  2.9464  3.0075
   60DG      H4 1361   3.191   0.862   0.879 -1.0771 -0.6543 -0.7595
   60DG      H5 1362   3.220   0.886   0.706  0.4759  0.8787 -0.2386
   60DG      H6 1363   3.647   1.345   1.204 -0.7721 -1.2705  0.8295
   60DG      H7 1364   3.658   1.177   1.250 -1.7217 -0.1733 -1.4819
   60DG      H8 1365   3.806   1.269   1.201  0.0885 -0.2800  0.7273
   60DG      O9 1366   3.296   1.039   0.823 -0.2922  0.2319  0.2339
   60DG     O10 1367   3.687   1.209   1.046  0.4854 -0.2332 -0.0737
   60DG     C11 1368   3.286   1.150   0.733 -0.2951  0.0871 -0.8779
   60DG     C12 1369   3.702   1.304   0.939  0.5120  0.0803 -0.2972
   60DG     H13 1370   3.183   1.182   0.714 -0.0772  1.0680 -0.4558
   60DG     H14 1371   3.329   1.128   0.636  2.4698  3.5939 -0.6364
   60DG     H15 1372   3.749   1.248   0.858  1.1353 -1.5495  1.1290
   60DG     H16 1373   3.764   1.391   0.960 -1.3084  1.2401  0.5406
   60DG     C17 1374   3.359   1.267   0.796 -0.0174  0.3374 -0.0218
   60DG     C18 1375   3.558   1.346   0.897  0.5396 -0.2402  0.0849
   60DG     O19 1376   3.493   1.240   0.842  0.8649 -0.3364  0.4311
   60DG     H20 1377   3.301   1.294   0.884 -1.6311  1.2436 -1.3113
   60DG     H21 1378   3.354   1.358   0.737  0.5261  0.5844  0.3087
   60DG     H22 1379   3.505   1.367   0.990 -1.1558  0.1808 -0.9211
   60DG     H23 1380   3.566   1.441   0.845  1.4276 -0.5769 -0.4058
   61DG      C1 1381   3.565   1.765   0.829  0.1787  0.1793 -0.7187
   61DG      C2 1382   4.166   1.567   0.774  0.0049  0.5559 -0.2627
   61DG      H3 1383   3.576   1.657   0.820 -3.4214 -0.2772 -1.2675
   61DG      H4 1384   3.520   1.807   0.739 -0.3622  2.0152  0.3381
   61DG      H5 1385   3.499   1.785   0.914  1.5292  1.7812  0.0057
   61DG      H6 1386   4.133   1.472   0.816  0.9888 -0.3704 -1.5163
   61DG      H7 1387   4.161   1.553   0.666 -0.2313  2.6982 -0.5753
   61DG      H8 1388   4.270   1.582   0.805  0.7134  0.1843 -2.2720
   61DG      O9 1389   3.687   1.837   0.861  0.5218 -0.3208 -0.3683
   61DG     O10 1390   4.069   1.660   0.814  0.5408  0.0467  0.4068
   61DG     C11 1391   3.744   1.796   0.977 -0.1061 -0.0700  0.4657
   61DG     C12 1392   4.097   1.789   0.773 -0.2710  0.2843 -0.1764
   61DG     H13 1393   3.780   1.694   0.963  0.5048  0.4007 -1.6608
   61DG     H14 1394   3.670   1.795   1.058 -0.3027  0.9677  0.3134
   61DG     H15 1395   4.123   1.807   0.668 -0.5159 -0.6617 -0.4027
   61DG     H16 1396   4.192   1.808   0.824  0.5082 -1.4881 -0.8836
   61DG     C17 1397   3.852   1.891   1.023  0.5672  0.3401 -0.4106
   61DG     C18 1398   3.996   1.882   0.825  0.2006 -0.4543 -0.2065
   61DG     O19 1399   3.970   1.845   0.961 -0.3570  0.3073 -0.3213
   61DG     H20 1400   3.867   1.880   1.130 -0.6610  1.3105 -0.1167
   61DG     H21 1401   3.835   1.997   1.007  0.6141  0.8703  2.5168
   61DG     H22 1402   4.024   1.987   0.813  0.6483 -0.8425 -3.7703
   61DG     H23 1403   3.914   1.870   0.754 -0.8043  1.6222  0.5252
   62DG      C1 1404   2.319   3.145   2.284  0.1895 -0.4847 -0.4361
   62DG      C2 1405   1.905   3.506   1.931 -0.3709  0.2656  0.3531
   62DG      H3 1406   2.303   3.072   2.205 -0.1198 -0.0899 -0.7426
   62DG      H4 1407   2.246   3.115   2.359  0.0444 -0.6411 -0.6415
   62DG      H5 1408   2.417   3.125   2.329  0.8617  0.6437 -1.3519
   62DG      H6 1409   1.900   3.422   1.861  0.5271 -0.7837  1.5206
   62DG      H7 1410   1.836   3.495   2.014  0.3744 -0.6287  0.8671
   62DG      H8 1411   1.885   3.604   1.888 -0.4610  0.7289  1.4382
   62DG      O9 1412   2.319   3.276   2.232  0.0884  0.1214 -0.0904
   62DG     O10 1413   2.029   3.523   1.989 -0.0775 -0.5073  0.4071
   62DG     C11 1414   2.318   3.379   2.334  1.3884 -0.2892  0.1139
   62DG     C12 1415   2.055   3.644   2.062 -0.1610  0.2972 -0.1331
   62DG     H13 1416   2.404   3.361   2.399  0.8363 -1.7584  0.4632
   62DG     H14 1417   2.227   3.364   2.392  1.7632  1.0976  1.1311
   62DG     H15 1418   1.978   3.661   2.137 -0.9784  0.0186 -0.8894
   62DG     H16 1419   2.064   3.735   2.003 -0.1400 -0.1309 -0.7966
   62DG     C17 1420   2.309   3.519   2.288  0.6496 -0.0965 -0.8446
   62DG     C18 1421   2.189   3.639   2.130  0.2181  0.4747  0.0624
   62DG     O19 1422   2.197   3.520   2.204 -0.4075 -0.3397 -0.5087
   62DG     H20 1423   2.395   3.545   2.226  1.2821  0.8258  0.3739
   62DG     H21 1424   2.300   3.588   2.373 -1.0438 -1.7698  0.4075
   62DG     H22 1425   2.276   3.637   2.064  0.6296 -1.5452  0.5822
   62DG     H23 1426   2.197   3.728   2.193 -1.3843  0.7559 -0.0914
   63DG      C1 1427   3.914   1.908   4.415  0.5612  0.0049  0.0867
   63DG      C2 1428   3.493   1.985   5.007  0.2767  0.2849  0.2207
   63DG      H3 1429   3.935   1.906   4.308 -1.0538 -1.0780 -0.2592
   63DG      H4 1430   3.900   1.802   4.435 -1.1377  0.1235 -0.2875
   63DG      H5 1431   4.008   1.935   4.463  0.0878  0.6933  0.6488
   63DG      H6 1432   3.534   2.061   5.073  1.0072 -0.9350  1.2137
   63DG      H7 1433   3.410   1.945   5.066  0.9714 -1.0212  0.3435
   63DG      H8 1434   3.569   1.908   4.997 -0.0926  0.1564 -2.4179
   63DG      O9 1435   3.805   1.987   4.465 -0.1266 -0.2104  0.1032
   63DG     O10 1436   3.447   2.030   4.875 -0.1304  0.1368 -0.2448
   63DG     C11 1437   3.793   1.958   4.602  0.0426  0.0135 -0.3678
   63DG     C12 1438   3.397   1.919   4.798  0.2910 -0.2752  0.0542
   63DG     H13 1439   3.877   2.013   4.644  0.3034  0.7089 -1.7168
   63DG     H14 1440   3.798   1.852   4.624 -0.9542  0.1069  0.3689
   63DG     H15 1441   3.293   1.925   4.828  0.3471  1.4758 -0.0165
   63DG     H16 1442   3.421   1.817   4.831 -1.7663 -0.7182  0.2760
   63DG     C17 1443   3.648   2.001   4.651 -0.9952 -0.5361  0.4350
   63DG     C18 1444   3.420   1.950   4.644 -0.1372  0.4722 -0.2870
   63DG     O19 1445   3.546   1.931   4.588  0.2589  0.3081 -0.4169
   63DG     H20 1446   3.635   2.108   4.640 -1.6327 -0.5907  0.5914
   63DG     H21 1447   3.649   1.986   4.759  1.7862  0.3513  0.6139
   63DG     H22 1448   3.346   1.891   4.590 -3.4957  2.2064  2.1186
   63DG     H23 1449   3.385   2.047   4.609 -0.0346 -0.4109 -3.1240
   64DG      C1 1450   2.178   2.390   4.660 -0.0538 -0.8041 -0.3193
   64DG      C2 1451   2.620   2.742   4.305  0.7928  0.0523  0.3769
   64DG      H3 1452   2.243   2.431   4.737 -1.3836  0.6521  0.0929
   64DG      H4 1453   2.208   2.286   4.647  0.8910 -0.6298  0.3373
   64DG      H5 1454   2.076   2.392   4.699  0.0068 -0.0153 -0.1861
   64DG      H6 1455   2.673   2.740   4.401  0.0405  0.4880  0.8140
   64DG      H7 1456   2.694   2.687   4.246  0.6177  0.9905 -0.7314
   64DG      H8 1457   2.618   2.841   4.260 -1.4580  1.0808  2.4696
   64DG      O9 1458   2.185   2.469   4.542 -0.0940 -0.3573  0.1513
   64DG     O10 1459   2.488   2.691   4.304 -0.3737  0.0750 -0.2877
   64DG     C11 1460   2.135   2.394   4.433  0.6718 -0.3018 -0.0653
   64DG     C12 1461   2.428   2.662   4.172  0.3450  0.4734 -1.1057
   64DG     H13 1462   2.034   2.356   4.445  0.0872  0.9163 -0.9703
   64DG     H14 1463   2.200   2.310   4.409 -1.6559 -1.1472 -4.3558
   64DG     H15 1464   2.485   2.584   4.120  0.2480 -0.3104 -0.0593
   64DG     H16 1465   2.446   2.748   4.107 -0.7853  0.8809 -0.8989
   64DG     C17 1466   2.134   2.481   4.307  0.2272  0.5457  0.0491
   64DG     C18 1467   2.279   2.619   4.178 -0.3243  0.0497  0.6977
   64DG     O19 1468   2.273   2.525   4.294 -0.1513 -0.6768 -0.1396
   64DG     H20 1469   2.061   2.561   4.313 -1.2531 -0.5874 -1.8570
   64DG     H21 1470   2.123   2.423   4.215  2.0651  2.1915 -1.3029
   64DG     H22 1471   2.209   2.702   4.181 -0.7428 -0.1081 -2.0528
   64DG     H23 1472   2.239   2.567   4.091 -1.4968  0.9530  0.6843
   65DG      C1 1473   0.566   4.444   1.486  0.0231 -0.1639  0.8749
   65DG      C2 1474   0.316   3.911   1.107 -0.0422 -0.0820  0.2890
   65DG      H3 1475   0.638   4.394   1.551  1.0068 -0.2871 -0.2712
   65DG      H4 1476   0.541   4.542   1.525  0.1973  1.1918 -2.1296
   65DG      H5 1477   0.614   4.465   1.390 -1.0702 -1.1204  0.0846
   65DG      H6 1478   0.403   3.861   1.149  1.3200  1.0952 -1.0035
   65DG      H7 1479   0.251   3.829   1.077  0.1796 -0.6838  1.4170
   65DG      H8 1480   0.345   3.965   1.016 -1.0434  0.0796  0.0530
   65DG      O9 1481   0.435   4.372   1.466 -0.4001 -0.0741 -0.0722
   65DG     O10 1482   0.271   4.007   1.203  0.0095  0.0520 -0.1407
   65DG     C11 1483   0.382   4.313   1.585 -0.1822 -0.8748 -0.0685
   65DG     C12 1484   0.216   3.948   1.321 -0.0990  0.5465 -0.3197
   65DG     H13 1485   0.357   4.386   1.661 -0.2732  0.4393 -1.3229
   65DG     H14 1486   0.452   4.242   1.630 -1.8377 -1.8734  1.0194
   65DG     H15 1487   0.289   3.881   1.366  0.3762  0.0967 -1.7230
   65DG     H16 1488   0.127   3.893   1.290  0.0015 -0.9460  1.7790
   65DG     C17 1489   0.253   4.230   1.557 -0.1731  0.2221 -0.1256
   65DG     C18 1490   0.168   4.058   1.411 -0.0104  0.1010  0.1847
   65DG     O19 1491   0.279   4.130   1.460  0.5626  0.4297  0.4351
   65DG     H20 1492   0.170   4.295   1.530 -0.6203 -0.3260 -0.0951
   65DG     H21 1493   0.213   4.174   1.641  0.1447 -0.1343 -0.2052
   65DG     H22 1494   0.094   4.123   1.364 -0.0296 -0.0170  0.0516
   65DG     H23 1495   0.111   4.017   1.494  0.2340  0.2737  0.4400
   66DG      C1 1496   3.610   4.835   3.196  0.1015 -0.0486  0.1954
   66DG      C2 1497   3.823   4.575   3.862 -0.6863 -0.5705 -0.3359
   66DG      H3 1498   3.609   4.931   3.145  1.3705 -0.0337  0.1645
   66DG      H4 1499   3.529   4.777   3.151 -0.8221  1.3935 -0.0520
   66DG      H5 1500   3.704   4.788   3.168 -0.0769  1.1225 -2.7086
   66DG      H6 1501   3.810   4.589   3.969  1.7080  1.3565 -0.2063
   66DG      H7 1502   3.793   4.478   3.823  2.1306 -1.7466  0.2265
   66DG      H8 1503   3.929   4.593   3.842 -0.7989  0.9821  0.2697
   66DG      O9 1504   3.606   4.847   3.343  0.5302 -0.2104  0.3411
   66DG     O10 1505   3.746   4.667   3.786 -0.6900 -0.2372  0.1819
   66DG     C11 1506   3.643   4.977   3.386 -0.2379  0.1120 -0.2141
   66DG     C12 1507   3.753   4.806   3.837  0.7704  0.1251 -0.0500
   66DG     H13 1508   3.589   5.052   3.328 -1.1023 -0.6070 -0.3627
   66DG     H14 1509   3.752   4.980   3.386 -0.1257 -1.1281 -2.3619
   66DG     H15 1510   3.857   4.839   3.832  1.6737 -2.5438 -0.2833
   66DG     H16 1511   3.730   4.835   3.939  3.2362  0.6437  0.4254
   66DG     C17 1512   3.616   4.979   3.532  0.2477 -0.4214 -0.4781
   66DG     C18 1513   3.665   4.890   3.745  0.9478 -0.8996  0.5498
   66DG     O19 1514   3.699   4.891   3.613 -0.1879 -0.3426  0.6267
   66DG     H20 1515   3.512   4.949   3.539  0.2050 -0.0673  0.5059
   66DG     H21 1516   3.624   5.085   3.555  2.8454 -0.5673 -0.3850
   66DG     H22 1517   3.559   4.870   3.762  0.4515  1.7949  1.1193
   66DG     H23 1518   3.680   4.989   3.789 -0.1057 -1.9770  3.5831
   67DG      C1 1519   1.908   1.829   2.383  0.3810 -0.1341  0.0138
   67DG      C2 1520   1.920   1.902   2.976 -0.0886  0.6262 -0.4614
   67DG      H3 1521   1.947   1.739   2.335  0.2235  0.0378 -0.4420
   67DG      H4 1522   1.921   1.906   2.307  1.3693  0.8320  1.1292
   67DG      H5 1523   1.801   1.812   2.394  0.3685  0.0174  0.1257
   67DG      H6 1524   1.926   1.858   3.075 -1.9973  1.2617 -0.0288
   67DG      H7 1525   1.917   2.011   2.980 -2.5148  0.5769  1.9604
   67DG      H8 1526   1.818   1.879   2.947 -0.3545  1.1585  0.0332
   67DG      O9 1527   1.969   1.877   2.500 -0.1780 -0.5656  0.0772
   67DG     O10 1528   2.012   1.854   2.878  0.1634  0.3247  0.2558
   67DG     C11 1529   2.106   1.906   2.482  0.1422 -0.1178  0.9892
   67DG     C12 1530   2.142   1.898   2.906  0.3769  0.3611 -0.4376
   67DG     H13 1531   2.109   1.991   2.413 -1.8091 -0.2425  0.6856
   67DG     H14 1532   2.153   1.828   2.422 -2.3552 -1.5555  0.7519
   67DG     H15 1533   2.164   1.874   3.010 -0.7954  3.2846  0.5840
   67DG     H16 1534   2.149   2.006   2.893 -0.2388  0.7202  1.7366
   67DG     C17 1535   2.186   1.931   2.604  0.4358 -0.1670 -0.3057
   67DG     C18 1536   2.235   1.821   2.809  0.7029  0.5844 -0.2877
   67DG     O19 1537   2.180   1.810   2.680 -0.0659 -1.1269 -0.2266
   67DG     H20 1538   2.136   2.011   2.659  2.5128  2.2599 -1.7143
   67DG     H21 1539   2.288   1.966   2.589  0.2881  0.4339  0.0482
   67DG     H22 1540   2.337   1.857   2.814  0.7187  0.3491  2.3534
   67DG     H23 1541   2.246   1.719   2.844  1.7405  1.1299  1.0419
   68DG      C1 1542   4.829   3.216   1.122 -1.1047  0.3598 -0.6310
   68DG      C2 1543   4.541   3.946   1.248 -0.1612 -0.3501 -0.4737
   68DG      H3 1544   4.757   3.146   1.164 -1.3795  1.6852  1.2456
   68DG      H4 1545   4.934   3.189   1.113 -0.9545  0.9621 -0.7419
   68DG      H5 1546   4.786   3.243   1.025  0.8432  2.1497 -1.0603
   68DG      H6 1547   4.481   3.996   1.324  0.0677 -0.7614 -0.0185
   68DG      H7 1548   4.636   3.997   1.264 -0.3934  0.3282 -1.2107
   68DG      H8 1549   4.499   3.961   1.148 -0.1198 -0.9240 -0.5848
   68DG      O9 1550   4.811   3.332   1.206 -0.0292  0.0069  0.6309
   68DG     O10 1551   4.550   3.805   1.266  0.6238 -0.7988  0.1113
   68DG     C11 1552   4.674   3.367   1.217 -0.0809 -0.3822  0.0278
   68DG     C12 1553   4.420   3.748   1.289 -0.5804 -0.4856 -0.0485
   68DG     H13 1554   4.623   3.292   1.278 -1.6738 -1.1833 -2.1646
   68DG     H14 1555   4.618   3.358   1.124  1.3251 -1.4366 -0.7496
   68DG     H15 1556   4.368   3.742   1.193 -2.5783 -2.1118  1.0587
   68DG     H16 1557   4.354   3.806   1.353 -0.3763  2.5485 -2.3353
   68DG     C17 1558   4.639   3.506   1.280 -0.2045  0.1288 -0.1458
   68DG     C18 1559   4.443   3.622   1.363 -0.7165  0.9411  0.4226
   68DG     O19 1560   4.491   3.510   1.287  0.4005 -0.1554  0.0345
   68DG     H20 1561   4.683   3.590   1.227 -0.9002 -0.1734 -1.2374
   68DG     H21 1562   4.678   3.517   1.381 -0.3433 -0.7277  0.0146
   68DG     H22 1563   4.492   3.629   1.460  0.0720 -2.1076  0.3665
   68DG     H23 1564   4.342   3.597   1.394 -0.3969  0.8515  1.4330
   69DG      C1 1565   5.478   2.822   5.116  0.2961  0.1153  0.3285
   69DG      C2 1566   5.749   2.825   5.826 -0.2001 -0.9291 -0.3209
   69DG      H3 1567   5.489   2.790   5.013  1.0582  1.2309  0.0427
   69DG      H4 1568   5.387   2.880   5.130  2.3677  3.7280  0.1598
   69DG      H5 1569   5.475   2.741   5.189  1.6856  0.0425  0.3372
   69DG      H6 1570   5.696   2.745   5.877 -0.7308  0.3158  1.1666
   69DG      H7 1571   5.834   2.851   5.889 -0.0267 -1.5457 -0.2927
   69DG      H8 1572   5.680   2.910   5.826 -0.0456 -0.7217  2.5745
   69DG      O9 1573   5.581   2.916   5.153  0.7231  0.4116  0.6772
   69DG     O10 1574   5.791   2.793   5.690  0.2230  0.2267  0.0934
   69DG     C11 1575   5.716   2.874   5.155  0.8273  0.3969  0.1826
   69DG     C12 1576   5.814   2.910   5.604 -0.6320  0.9673  0.1644
   69DG     H13 1577   5.783   2.960   5.161  1.3328 -0.0659  1.7973
   69DG     H14 1578   5.747   2.837   5.057  2.2647  1.5803  0.1553
   69DG     H15 1579   5.898   2.964   5.648 -1.7140  1.5919  1.5629
   69DG     H16 1580   5.722   2.968   5.595 -0.8926  0.5971  0.3807
   69DG     C17 1581   5.743   2.764   5.267 -0.1091 -0.0273  0.3170
   69DG     C18 1582   5.846   2.866   5.460  0.0497  0.6150  0.0212
   69DG     O19 1583   5.732   2.800   5.409  0.1426 -0.3202  0.7892
   69DG     H20 1584   5.845   2.728   5.249 -0.6247 -0.4922 -1.9476
   69DG     H21 1585   5.678   2.676   5.262 -0.1770  0.1059 -1.6701
   69DG     H22 1586   5.882   2.948   5.398 -0.2179  0.1476 -0.7673
   69DG     H23 1587   5.927   2.793   5.457 -2.1711 -2.0848  0.9431
   70DG      C1 1588   1.363   2.800   0.806 -0.1882 -0.6386 -0.4809
   70DG      C2 1589   1.010   3.091   0.303 -0.0310  0.5634 -0.1400
   70DG      H3 1590   1.431   2.823   0.888  1.3445 -0.7191 -1.6850
   70DG      H4 1591   1.325   2.698   0.817  0.1792 -0.6646  0.7269
   70DG      H5 1592   1.271   2.854   0.827  1.0855  2.2314 -1.7298
   70DG      H6 1593   0.958   3.187   0.311  0.6587  0.8504  1.1369
   70DG      H7 1594   1.038   3.073   0.199 -0.5881 -1.5635  0.0309
   70DG      H8 1595   0.948   3.004   0.326  1.2428 -0.6383 -1.0667
   70DG      O9 1596   1.430   2.821   0.681 -0.1045  0.2890 -0.3060
   70DG     O10 1597   1.112   3.084   0.399 -0.0921  0.3555  0.1747
   70DG     C11 1598   1.509   2.941   0.678  0.4459 -0.1787  0.0890
   70DG     C12 1599   1.198   3.194   0.412  0.3693  0.7354  0.5258
   70DG     H13 1600   1.566   2.936   0.585 -1.4012 -1.1222 -1.0393
   70DG     H14 1601   1.563   2.945   0.773  1.5073  0.7745 -0.5291
   70DG     H15 1602   1.138   3.285   0.412 -0.2383  0.3472 -0.1648
   70DG     H16 1603   1.279   3.212   0.341 -0.0014 -1.3014 -0.4968
   70DG     C17 1604   1.415   3.065   0.667 -0.3567 -0.0050  0.2336
   70DG     C18 1605   1.267   3.186   0.546  0.3705  0.2835  0.1028
   70DG     O19 1606   1.339   3.066   0.553 -0.0833  0.2912 -0.2199
   70DG     H20 1607   1.479   3.154   0.668  0.7710 -0.7814 -0.6785
   70DG     H21 1608   1.342   3.076   0.747 -1.3413  0.2604 -0.6808
   70DG     H22 1609   1.327   3.274   0.564  1.2392 -0.5373  1.3464
   70DG     H23 1610   1.190   3.182   0.623 -0.0053  0.7136 -0.2484
   71DG      C1 1611   4.028   0.076   5.249 -0.3733  0.1686 -0.3555
   71DG      C2 1612   4.304   0.529   4.917 -0.2134  0.2703  0.0108
   71DG      H3 1613   4.033   0.059   5.357  1.0956  2.2755 -0.0211
   71DG      H4 1614   4.115   0.033   5.200 -1.1939  1.5875 -3.2803
   71DG      H5 1615   3.938   0.026   5.213 -0.3675  0.4589 -0.7683
   71DG      H6 1616   4.363   0.619   4.902  1.5905 -0.5923  1.5751
   71DG      H7 1617   4.368   0.442   4.908  0.5258  0.6389  1.4082
   71DG      H8 1618   4.234   0.524   4.833 -0.6141 -0.1830  0.3626
   71DG      O9 1619   4.034   0.213   5.220  0.1674  0.5059  0.5308
   71DG     O10 1620   4.247   0.520   5.046 -0.0704  0.2739 -0.0289
   71DG     C11 1621   3.935   0.295   5.288  0.3666 -0.1602  0.7755
   71DG     C12 1622   4.140   0.612   5.059  0.0208 -0.6327  0.1920
   71DG     H13 1623   3.951   0.276   5.394 -0.1118 -0.4382  0.7967
   71DG     H14 1624   3.834   0.266   5.263  0.7290 -0.0046 -0.9725
   71DG     H15 1625   4.062   0.587   4.987  1.5076 -0.3291 -1.6062
   71DG     H16 1626   4.176   0.710   5.028 -1.0457 -0.6153 -1.0893
   71DG     C17 1627   3.944   0.438   5.236 -0.3207 -0.1722 -0.7016
   71DG     C18 1628   4.107   0.611   5.208 -0.2445 -0.2117 -0.0018
   71DG     O19 1629   4.077   0.481   5.261 -0.3158 -0.4824  0.0593
   71DG     H20 1630   3.867   0.494   5.288 -0.4191 -2.2699  1.6031
   71DG     H21 1631   3.928   0.443   5.129 -0.4020 -0.2630 -0.6936
   71DG     H22 1632   4.194   0.639   5.266  0.3070  1.6563 -1.6308
   71DG     H23 1633   4.035   0.684   5.244 -0.0509  0.1538 -0.3553
   72DG      C1 1634   4.754   1.792   2.657 -0.2984 -0.5136  0.7377
   72DG      C2 1635   5.528   1.392   2.756  0.4618  0.7453  0.3531
   72DG      H3 1636   4.786   1.878   2.715  2.7987 -1.1370  0.1541
   72DG      H4 1637   4.720   1.715   2.727 -0.5373  1.4048  2.8329
   72DG      H5 1638   4.677   1.831   2.591  1.8809  2.4918 -0.2574
   72DG      H6 1639   5.518   1.298   2.702 -0.6042  0.7879  0.4459
   72DG      H7 1640   5.627   1.431   2.733 -0.3552  2.6134 -0.2441
   72DG      H8 1641   5.517   1.374   2.863 -0.7410 -1.5513 -0.1019
   72DG      O9 1642   4.863   1.749   2.567  0.0716  0.2024  0.4931
   72DG     O10 1643   5.432   1.490   2.723  0.3374  0.6685  0.9234
   72DG     C11 1644   4.985   1.745   2.640 -0.0694  0.3993 -0.2594
   72DG     C12 1645   5.444   1.553   2.595  0.3828 -0.9646  1.1038
   72DG     H13 1646   4.979   1.714   2.744 -2.2145  1.3379 -0.0582
   72DG     H14 1647   5.018   1.847   2.659 -1.0976  0.4358  1.4788
   72DG     H15 1648   5.504   1.493   2.526 -0.5535  0.2529 -0.8634
   72DG     H16 1649   5.501   1.645   2.607 -0.6564 -0.5124  2.8938
   72DG     C17 1650   5.086   1.666   2.556  0.3291  0.5482  0.3608
   72DG     C18 1651   5.305   1.579   2.529  0.0755  0.1866 -0.5552
   72DG     O19 1652   5.212   1.648   2.622 -0.1367 -0.2147  0.4201
   72DG     H20 1653   5.090   1.722   2.462 -1.5275  1.4628  0.7758
   72DG     H21 1654   5.054   1.564   2.535  0.8302  0.9227 -2.6931
   72DG     H22 1655   5.324   1.637   2.439  1.2223  1.3930  0.4258
   72DG     H23 1656   5.269   1.478   2.512  1.9403 -0.5659 -0.3041
   73DG      C1 1657   4.833   0.288   1.929 -0.4722  0.9118 -0.0312
   73DG      C2 1658   5.140   0.633   1.407 -0.1711 -0.5816 -0.2411
   73DG      H3 1659   4.897   0.202   1.911  0.0910  1.5692 -1.2782
   73DG      H4 1660   4.741   0.269   1.873 -0.1047  0.8362 -0.6191
   73DG      H5 1661   4.809   0.282   2.035  1.3841  0.6614  0.4078
   73DG      H6 1662   5.058   0.610   1.339 -1.2407  0.4144  0.6815
   73DG      H7 1663   5.186   0.729   1.386 -1.0057 -0.4787 -1.6804
   73DG      H8 1664   5.215   0.555   1.423  0.4079  0.0924  0.3678
   73DG      O9 1665   4.887   0.409   1.874  0.0205  0.3677  0.0382
   73DG     O10 1666   5.082   0.655   1.535 -0.0015 -0.2776 -0.4850
   73DG     C11 1667   4.796   0.517   1.885  0.2071 -0.1111  0.1308
   73DG     C12 1668   4.987   0.762   1.543 -0.1283  0.5451 -0.3253
   73DG     H13 1669   4.752   0.519   1.985 -0.9355  0.4694 -0.3637
   73DG     H14 1670   4.715   0.504   1.813 -2.0637  0.8087  2.3691
   73DG     H15 1671   4.897   0.752   1.481  1.1020 -1.6337 -1.8989
   73DG     H16 1672   5.044   0.853   1.529 -0.8552  1.2318  0.9365
   73DG     C17 1673   4.852   0.658   1.868 -0.0223  0.1912  0.4674
   73DG     C18 1674   4.945   0.786   1.692 -0.5531  0.1789  1.0493
   73DG     O19 1675   4.897   0.660   1.731 -0.6011 -0.5884 -0.7267
   73DG     H20 1676   4.946   0.664   1.922  0.2540 -0.5510  0.0741
   73DG     H21 1677   4.777   0.732   1.897  0.1330  1.3649 -1.9155
   73DG     H22 1678   5.034   0.816   1.746  0.2559  1.6957 -1.0063
   73DG     H23 1679   4.868   0.863   1.704 -0.0857  0.8214  0.0217
   74DG      C1 1680   0.326   5.381   4.918  0.6280 -0.2654 -0.9769
   74DG      C2 1681  -0.272   5.639   5.279  0.0510  0.2272 -0.0640
   74DG      H3 1682   0.406   5.405   4.988  0.1212  0.0452 -0.4877
   74DG      H4 1683   0.309   5.471   4.859  0.6847  0.5510  0.1951
   74DG      H5 1684   0.363   5.301   4.855  0.2156 -3.2802  2.2548
   74DG      H6 1685  -0.194   5.701   5.323 -0.2582  1.1896 -0.8226
   74DG      H7 1686  -0.309   5.684   5.187 -1.6083  0.8048  0.8554
   74DG      H8 1687  -0.354   5.625   5.349 -1.3403 -0.6545 -1.7640
   74DG      O9 1688   0.204   5.351   4.979 -0.3472  0.5682 -0.2648
   74DG     O10 1689  -0.220   5.514   5.229 -0.0712  0.2718 -0.2168
   74DG     C11 1690   0.214   5.265   5.088 -0.8026 -0.0995 -0.3259
   74DG     C12 1691  -0.166   5.438   5.335  0.2479  0.1429  0.2662
   74DG     H13 1692   0.265   5.315   5.170 -0.5393 -0.3996 -0.3038
   74DG     H14 1693   0.284   5.182   5.076  0.0491  0.3116  1.4725
   74DG     H15 1694  -0.247   5.411   5.403  0.3808 -2.0099 -0.3537
   74DG     H16 1695  -0.098   5.500   5.394 -1.3091 -0.5036  2.9548
   74DG     C17 1696   0.078   5.227   5.146  0.4443 -0.6259 -0.2588
   74DG     C18 1697  -0.091   5.313   5.290  0.5027 -0.2488  0.1653
   74DG     O19 1698   0.018   5.349   5.199 -0.0926  0.3120 -0.2755
   74DG     H20 1699   0.103   5.163   5.230 -1.7406  1.3490  2.0471
   74DG     H21 1700   0.016   5.170   5.077  0.6891  0.1788 -1.1720
   74DG     H22 1701  -0.049   5.260   5.376  0.7502  1.2183  0.9812
   74DG     H23 1702  -0.170   5.253   5.245 -2.2765  4.8016 -2.5516
   75DG      C1 1703   2.562   2.272   3.678 -0.1973  0.3173 -0.9200
   75DG      C2 1704   1.988   1.973   3.778  0.1067 -0.8429  0.0481
   75DG      H3 1705   2.491   2.298   3.600 -0.8786  1.1003 -0.0563
   75DG      H4 1706   2.663   2.269   3.638 -0.6401 -0.5939 -2.0443
   75DG      H5 1707   2.579   2.351   3.751  2.7282 -0.9386 -0.0989
   75DG      H6 1708   2.020   1.992   3.676  1.5374  0.3026  0.6768
   75DG      H7 1709   1.912   1.895   3.775 -0.6604 -0.0964 -0.5415
   75DG      H8 1710   1.934   2.054   3.828 -0.2350 -1.0362 -0.0040
   75DG      O9 1711   2.512   2.151   3.736 -0.0604 -0.2928 -0.2527
   75DG     O10 1712   2.093   1.946   3.858 -0.3706  0.3638  0.5442
   75DG     C11 1713   2.518   2.051   3.643 -0.2454  0.4479  0.2288
   75DG     C12 1714   2.175   1.827   3.822  0.2025  0.6114  0.1247
   75DG     H13 1715   2.609   2.045   3.584 -0.3772 -2.6745  0.1792
   75DG     H14 1716   2.436   2.059   3.571 -0.7719  0.0538  0.7752
   75DG     H15 1717   2.110   1.745   3.791  2.8283 -1.2186 -0.9241
   75DG     H16 1718   2.206   1.790   3.920  0.4281 -0.5928 -0.3747
   75DG     C17 1719   2.504   1.911   3.709  0.1608 -0.0949  0.1230
   75DG     C18 1720   2.286   1.840   3.718 -0.2090 -0.4524  0.3748
   75DG     O19 1721   2.383   1.909   3.782  0.9810 -0.2090 -0.9720
   75DG     H20 1722   2.563   1.905   3.801 -1.2856 -1.1799  1.0326
   75DG     H21 1723   2.538   1.834   3.641 -0.7130  0.0549 -0.4964
   75DG     H22 1724   2.317   1.745   3.673 -1.2572  0.7769 -3.2976
   75DG     H23 1725   2.248   1.907   3.641 -0.3069 -0.2172  0.6240
   76DG      C1 1726   5.290   2.310   4.662  0.1253  0.3463 -0.4972
   76DG      C2 1727   4.809   2.241   4.407  0.1602 -0.0035  0.0407
   76DG      H3 1728   5.230   2.395   4.694 -0.3370 -0.6055  1.3388
   76DG      H4 1729   5.344   2.257   4.741 -1.6507 -1.2071 -0.2708
   76DG      H5 1730   5.222   2.242   4.611  0.3482  1.5947 -2.5831
   76DG      H6 1731   4.801   2.341   4.448 -1.2335  0.3097 -0.9190
   76DG      H7 1732   4.759   2.244   4.310  1.5226 -0.5388 -0.7039
   76DG      H8 1733   4.777   2.159   4.472 -0.1496  0.0445 -0.0490
   76DG      O9 1734   5.391   2.363   4.567  0.4661 -0.0302 -0.1397
   76DG     O10 1735   4.941   2.221   4.374 -0.2716 -0.3612  0.1132
   76DG     C11 1736   5.422   2.269   4.465 -0.6718 -0.1809  0.2972
   76DG     C12 1737   4.993   2.322   4.284 -0.6483  0.3413 -0.6748
   76DG     H13 1738   5.401   2.165   4.488 -2.2989  0.4236  1.7507
   76DG     H14 1739   5.529   2.275   4.445 -0.6241  0.4474  0.7020
   76DG     H15 1740   4.980   2.423   4.324  0.1056 -0.5494  2.0972
   76DG     H16 1741   4.932   2.309   4.195 -0.4999 -0.9646 -0.6147
   76DG     C17 1742   5.355   2.302   4.331  0.3385  0.1623  0.1792
   76DG     C18 1743   5.135   2.302   4.232  0.4869  0.3727 -0.2983
   76DG     O19 1744   5.213   2.296   4.351 -0.3876  0.0995  0.6406
   76DG     H20 1745   5.387   2.229   4.256 -0.6623  1.2056 -1.3247
   76DG     H21 1746   5.379   2.403   4.297 -1.5409  0.4860 -0.2953
   76DG     H22 1747   5.145   2.201   4.193 -1.0107 -0.4632  1.3509
   76DG     H23 1748   5.158   2.378   4.158  0.4284  0.5123 -0.1752
   77DG      C1 1749   4.599   2.740   0.000  0.7661 -0.0459 -0.7805
   77DG      C2 1750   4.274   2.095  -0.253 -0.8712  0.7618  0.0186
   77DG      H3 1751   4.553   2.830   0.040 -2.1730 -1.5531 -0.4696
   77DG      H4 1752   4.685   2.768  -0.060  0.8974 -2.6594 -1.9569
   77DG      H5 1753   4.638   2.684   0.085 -2.0331  0.0233  0.6746
   77DG      H6 1754   4.307   2.071  -0.354 -1.2291 -0.0564  0.0923
   77DG      H7 1755   4.354   2.047  -0.197 -0.8932  0.2768 -0.3652
   77DG      H8 1756   4.182   2.044  -0.226  0.5701 -0.6172  2.6630
   77DG      O9 1757   4.503   2.656  -0.070  0.5030 -0.2018  0.1583
   77DG     O10 1758   4.277   2.233  -0.224  0.1694 -0.1154 -0.5387
   77DG     C11 1759   4.447   2.703  -0.194 -0.1047 -0.3671  0.2890
   77DG     C12 1760   4.177   2.311  -0.289 -0.4010  0.6551  0.3528
   77DG     H13 1761   4.506   2.681  -0.284  0.9181  0.3412  0.7631
   77DG     H14 1762   4.424   2.809  -0.202 -1.4840 -0.7951 -3.2054
   77DG     H15 1763   4.081   2.266  -0.263 -1.4055  1.5940 -1.4789
   77DG     H16 1764   4.188   2.305  -0.398  1.6456 -1.2885  0.5940
   77DG     C17 1765   4.310   2.646  -0.222 -0.0167  0.3077 -0.1934
   77DG     C18 1766   4.166   2.456  -0.249  0.8424 -0.1764 -0.0048
   77DG     O19 1767   4.305   2.511  -0.255  0.2298 -0.4696  0.1904
   77DG     H20 1768   4.270   2.701  -0.308  0.2370  0.4902 -0.1949
   77DG     H21 1769   4.235   2.669  -0.146 -0.3643 -2.3577  0.3692
   77DG     H22 1770   4.112   2.521  -0.318 -2.8919 -0.4679  2.3784
   77DG     H23 1771   4.125   2.460  -0.148  0.1087 -0.4645 -0.2824
   78DG      C1 1772   2.138   0.557   4.466  0.3935 -0.3758 -0.4649
   78DG      C2 1773   2.277   0.662   5.132 -0.1399 -0.0711  0.0344
   78DG      H3 1774   2.088   0.560   4.369  2.0014  0.3889 -1.3002
   78DG      H4 1775   2.214   0.480   4.451 -0.9263 -1.4147 -2.1490
   78DG      H5 1776   2.181   0.652   4.496 -0.7896 -0.1150  0.5295
   78DG      H6 1777   2.373   0.621   5.101 -0.0466  1.5620 -2.1083
   78DG      H7 1778   2.282   0.771   5.124  1.7601  0.1344  2.7145
   78DG      H8 1779   2.272   0.632   5.237 -1.0813 -2.1409 -0.5513
   78DG      O9 1780   2.055   0.529   4.581 -0.9941  0.4355  0.2250
   78DG     O10 1781   2.185   0.602   5.055  0.0552  0.2708  0.3378
   78DG     C11 1782   1.958   0.628   4.608 -0.4806  0.3496 -0.0935
   78DG     C12 1783   2.059   0.636   5.092 -0.2872  0.3461  0.2720
   78DG     H13 1784   1.883   0.616   4.529  0.9984 -1.1058 -1.3618
   78DG     H14 1785   2.006   0.724   4.594 -0.4859  0.1643 -1.5507
   78DG     H15 1786   2.046   0.744   5.088 -0.4799  0.3326  0.5916
   78DG     H16 1787   2.019   0.608   5.189 -2.3983  1.2227 -0.3007
   78DG     C17 1788   1.903   0.591   4.747  0.1037 -0.3963 -0.1206
   78DG     C18 1789   1.962   0.578   4.985  0.1479  0.5148  0.1041
   78DG     O19 1790   1.996   0.619   4.851  0.2152  0.5348  0.3308
   78DG     H20 1791   1.894   0.483   4.739 -0.0698 -0.4062  0.1737
   78DG     H21 1792   1.810   0.644   4.768  1.4600  1.6640  1.0879
   78DG     H22 1793   1.970   0.470   4.993 -2.5381  0.3346  1.4079
   78DG     H23 1794   1.856   0.597   5.004  0.0922 -0.8474  1.2792
   79DG      C1 1795   1.326   1.919   0.309 -0.4457  0.4703 -0.9187
   79DG      C2 1796   1.159   1.588  -0.291 -0.4199 -0.2653  0.0079
   79DG      H3 1797   1.246   1.986   0.277 -0.6438  1.2651  1.1377
   79DG      H4 1798   1.410   1.975   0.348 -3.0513  1.9298  3.2582
   79DG      H5 1799   1.284   1.865   0.393  1.7072 -1.0463 -0.7351
   79DG      H6 1800   1.084   1.617  -0.364  0.4950  0.1588 -0.7779
   79DG      H7 1801   1.255   1.614  -0.335  0.2673 -1.7031  0.5885
   79DG      H8 1802   1.162   1.482  -0.265  3.0355  0.1151  1.8600
   79DG      O9 1803   1.364   1.825   0.214 -0.0729 -0.0206  0.3667
   79DG     O10 1804   1.124   1.661  -0.179 -0.3156  0.2502  0.4362
   79DG     C11 1805   1.381   1.869   0.083 -0.0568  0.5249  0.0343
   79DG     C12 1806   1.086   1.796  -0.207 -0.0290 -0.2376 -0.2026
   79DG     H13 1807   1.414   1.775   0.039  1.0789  0.3033  1.2820
   79DG     H14 1808   1.474   1.926   0.075  2.1936 -2.2458  3.5785
   79DG     H15 1809   0.997   1.795  -0.270 -2.0650 -1.0360  2.4866
   79DG     H16 1810   1.173   1.842  -0.254  0.8216 -0.4157  1.1279
   79DG     C17 1811   1.265   1.921   0.009 -0.0008  0.2336  0.2765
   79DG     C18 1812   1.053   1.856  -0.067  0.4633  0.1250 -0.1288
   79DG     O19 1813   1.157   1.830   0.027 -0.0801 -0.7350 -0.7283
   79DG     H20 1814   1.280   1.935  -0.098 -1.5408  1.4709  0.1784
   79DG     H21 1815   1.242   2.021   0.049  0.9620  0.5351  0.1062
   79DG     H22 1816   1.028   1.961  -0.080 -1.3400 -0.2570 -0.0316
   79DG     H23 1817   0.961   1.810  -0.029 -1.3961  3.0491 -0.7756
   80DG      C1 1818   1.548   4.357   0.986 -0.4172  0.7430 -0.3082
   80DG      C2 1819   0.751   4.002   0.804  0.3382 -0.1232  0.0571
   80DG      H3 1820   1.592   4.295   1.065 -0.7716  0.4213 -0.3606
   80DG      H4 1821   1.569   4.462   1.003 -1.3414  0.9020 -0.1198
   80DG      H5 1822   1.600   4.318   0.898  0.3482 -1.7133  1.1190
   80DG      H6 1823   0.768   3.936   0.718  0.2881 -1.6522  1.1818
   80DG      H7 1824   0.666   3.961   0.857 -0.8504 -1.0553 -2.3801
   80DG      H8 1825   0.743   4.103   0.765  0.5142  0.6032  1.8152
   80DG      O9 1826   1.408   4.337   0.995  0.5780 -0.0796  0.4195
   80DG     O10 1827   0.866   3.996   0.887  0.1907 -0.0050 -0.3262
   80DG     C11 1828   1.327   4.393   0.886 -0.2719  0.5085  0.5441
   80DG     C12 1829   0.983   4.042   0.827  0.5025 -0.6473  0.3247
   80DG     H13 1830   1.355   4.344   0.793 -1.4208  0.0511  0.4173
   80DG     H14 1831   1.332   4.501   0.874 -1.2682  0.4685 -0.3133
   80DG     H15 1832   0.984   4.014   0.721  5.1131 -0.4817  0.1577
   80DG     H16 1833   1.052   3.981   0.885  1.2972 -0.0230  0.0562
   80DG     C17 1834   1.175   4.362   0.898 -0.1857  0.3690  0.2481
   80DG     C18 1835   1.006   4.191   0.859 -0.3067  0.0181  0.1070
   80DG     O19 1836   1.140   4.233   0.838  0.2526 -0.4874  0.4428
   80DG     H20 1837   1.135   4.436   0.829  0.6922  0.6633  0.0334
   80DG     H21 1838   1.137   4.373   0.999 -0.1414 -0.9850  0.4215
   80DG     H22 1839   0.946   4.256   0.795  1.5715  1.5169 -0.2337
   80DG     H23 1840   0.988   4.207   0.965 -0.5807 -1.0408  0.2239
   81DG      C1 1841   3.775   2.102   4.166  0.0881 -0.1318 -0.3694
   81DG      C2 1842   3.860   2.822   3.887  0.5807  0.6905  0.5352
   81DG      H3 1843   3.716   2.120   4.257  1.6707  0.9031  0.5052
   81DG      H4 1844   3.876   2.137   4.187  0.3360  0.4687 -2.4056
   81DG      H5 1845   3.781   1.997   4.137  2.2647  0.2558 -1.4743
   81DG      H6 1846   3.952   2.857   3.840  0.3424 -0.5622 -0.9744
   81DG      H7 1847   3.778   2.893   3.882 -1.0875 -1.1700  0.3212
   81DG      H8 1848   3.881   2.824   3.994 -0.9503  1.3352  0.8472
   81DG      O9 1849   3.729   2.173   4.051 -0.1108 -0.2197 -0.0013
   81DG     O10 1850   3.827   2.696   3.833 -0.4760 -0.2287  0.3576
   81DG     C11 1851   3.815   2.171   3.937  0.1485  0.0556 -0.4392
   81DG     C12 1852   3.701   2.635   3.870 -0.0439 -0.4922  0.1011
   81DG     H13 1853   3.823   2.070   3.897 -3.7677 -1.3523  1.7234
   81DG     H14 1854   3.916   2.201   3.966  0.9652 -1.2373 -1.8040
   81DG     H15 1855   3.618   2.696   3.835  1.3754  1.1912 -0.5074
   81DG     H16 1856   3.700   2.629   3.979  1.1747 -0.7629  0.1099
   81DG     C17 1857   3.758   2.263   3.832 -0.2215  0.6587  0.1800
   81DG     C18 1858   3.700   2.495   3.804  0.1496  1.0900 -0.4050
   81DG     O19 1859   3.771   2.396   3.875 -0.6235 -0.2215  0.0297
   81DG     H20 1860   3.653   2.247   3.810 -0.2084 -0.7508  1.0791
   81DG     H21 1861   3.809   2.235   3.739 -0.7218 -4.0800  1.0717
   81DG     H22 1862   3.594   2.469   3.794 -0.4867  2.4916  2.0550
   81DG     H23 1863   3.738   2.504   3.702 -1.9450 -0.9374 -1.4744
   82DG      C1 1864   3.112   2.816   2.579  0.5211  0.2824  0.2289
   82DG      C2 1865   2.589   2.716   2.963  0.0317  0.1006 -0.2930
   82DG      H3 1866   3.210   2.857   2.557 -0.2390  1.8763 -0.3843
   82DG      H4 1867   3.072   2.769   2.489  0.4334  1.9115 -0.6267
   82DG      H5 1868   3.126   2.737   2.652 -1.0017  0.5916  0.8888
   82DG      H6 1869   2.535   2.691   2.872  0.2315 -0.6988 -0.2004
   82DG      H7 1870   2.630   2.625   3.006 -2.7445 -0.5301  1.2553
   82DG      H8 1871   2.517   2.749   3.037 -0.3407 -0.8819 -0.2119
   82DG      O9 1872   3.024   2.907   2.644  0.1395  0.3734  0.0776
   82DG     O10 1873   2.694   2.808   2.933 -0.1959  0.1559  0.4657
   82DG     C11 1874   3.068   2.977   2.758  0.1627  0.0448 -0.1336
   82DG     C12 1875   2.644   2.935   2.898  0.3374 -1.1641  0.5909
   82DG     H13 1876   3.159   3.033   2.737 -0.4914  0.8685 -0.8009
   82DG     H14 1877   3.097   2.907   2.837 -2.1377 -0.0371  0.6945
   82DG     H15 1878   2.566   2.973   2.965  0.5632  0.5718 -0.0778
   82DG     H16 1879   2.593   2.946   2.802  1.1314  2.0347  0.4250
   82DG     C17 1880   2.968   3.079   2.810  0.1702 -0.4159  0.3670
   82DG     C18 1881   2.746   3.042   2.904 -0.0060  0.0572  0.3183
   82DG     O19 1882   2.861   2.992   2.840 -0.3652  0.0107  0.2338
   82DG     H20 1883   2.932   3.147   2.733  3.8007 -1.4689 -2.5420
   82DG     H21 1884   2.998   3.131   2.901  0.1965  1.2035 -0.5423
   82DG     H22 1885   2.703   3.133   2.862 -1.9312 -1.3600 -0.9143
   82DG     H23 1886   2.770   3.055   3.010 -0.1957  1.3344  0.2135
   83DG      C1 1887   5.212   1.174   3.966  0.0571  0.2497 -0.2792
   83DG      C2 1888   5.890   1.162   4.095  0.6783 -0.4147 -0.1597
   83DG      H3 1889   5.193   1.279   3.946 -0.7242  0.2843  0.6115
   83DG      H4 1890   5.203   1.147   4.071  0.3393  0.0766 -0.2963
   83DG      H5 1891   5.134   1.117   3.915 -0.5005 -0.0872  0.9271
   83DG      H6 1892   5.849   1.233   4.166  0.0777  0.9772 -1.8315
   83DG      H7 1893   5.931   1.074   4.145  2.8851 -0.8019 -2.4310
   83DG      H8 1894   5.963   1.219   4.038 -2.3910 -0.8879 -5.1179
   83DG      O9 1895   5.351   1.145   3.933  0.1210  0.3982  0.2543
   83DG     O10 1896   5.785   1.119   4.008  0.2605  1.0078  0.7193
   83DG     C11 1897   5.392   1.198   3.808  0.0734  0.5005 -0.3796
   83DG     C12 1898   5.820   1.112   3.867  0.5849  0.3265 -1.0152
   83DG     H13 1899   5.375   1.306   3.803 -0.9583  0.4390  1.1835
   83DG     H14 1900   5.322   1.158   3.734  0.4095  1.0406 -1.0008
   83DG     H15 1901   5.918   1.065   3.862 -0.1482 -1.2085 -1.6279
   83DG     H16 1902   5.832   1.210   3.821  1.2004  0.8068  0.1268
   83DG     C17 1903   5.539   1.187   3.772 -0.2925  1.3579  1.0142
   83DG     C18 1904   5.716   1.021   3.796  0.3373  0.3775  0.6457
   83DG     O19 1905   5.584   1.063   3.822  0.4422  0.1925  0.4544
   83DG     H20 1906   5.609   1.266   3.799  0.4561  1.2943 -0.6215
   83DG     H21 1907   5.545   1.186   3.663  0.8047 -2.8015  0.9459
   83DG     H22 1908   5.738   1.015   3.689 -2.5673 -2.5362  0.0364
   83DG     H23 1909   5.728   0.918   3.831 -0.3343 -0.5351 -1.6178
   84DG      C1 1910   0.414   3.625   2.896  0.1189 -0.1272  0.1542
   84DG      C2 1911   0.551   4.349   2.754  0.4724 -0.6443  0.1157
   84DG      H3 1912   0.434   3.563   2.983 -3.5993 -4.1891 -1.4938
   84DG      H4 1913   0.501   3.617   2.830 -0.1120  1.7846 -0.4503
   84DG      H5 1914   0.325   3.577   2.855  1.5733 -2.8525 -0.0109
   84DG      H6 1915   0.482   4.391   2.682  0.9086 -1.2002 -0.6390
   84DG      H7 1916   0.583   4.427   2.824 -0.0005 -0.4887  0.1617
   84DG      H8 1917   0.630   4.314   2.688  0.4693  0.0563 -0.2717
   84DG      O9 1918   0.386   3.759   2.912  0.2124  0.4134  0.6952
   84DG     O10 1919   0.495   4.240   2.821 -0.0266  0.3566  0.3634
   84DG     C11 1920   0.256   3.793   2.952 -0.1595 -0.5387  0.5659
   84DG     C12 1921   0.367   4.259   2.878 -0.4977 -0.2553 -0.0161
   84DG     H13 1922   0.215   3.710   3.010 -0.4916  0.2444  1.4961
   84DG     H14 1923   0.204   3.804   2.857  1.0602 -0.6969 -0.1274
   84DG     H15 1924   0.297   4.258   2.794  1.0779  2.6411 -1.5295
   84DG     H16 1925   0.347   4.354   2.929  0.4113  0.9529 -1.8158
   84DG     C17 1926   0.255   3.936   3.021 -0.1817 -0.4430 -0.0585
   84DG     C18 1927   0.335   4.159   2.984 -0.3530  0.7586  0.4040
   84DG     O19 1928   0.312   4.035   2.923  0.0022  0.2478  0.2638
   84DG     H20 1929   0.317   3.930   3.110 -0.1051  1.0771  0.0167
   84DG     H21 1930   0.155   3.961   3.057 -0.4749 -3.1472  1.2863
   84DG     H22 1931   0.418   4.164   3.055 -1.4870  0.3067  1.8142
   84DG     H23 1932   0.245   4.178   3.043 -2.0859 -3.2800 -0.5995
   85DG      C1 1933   1.040   1.366   1.325  0.2230 -1.0847 -0.1513
   85DG      C2 1934   1.264   1.929   1.397  0.6174  0.1957 -0.0895
   85DG      H3 1935   1.130   1.332   1.376  0.5461 -1.6027 -1.0563
   85DG      H4 1936   0.993   1.275   1.290 -1.2931  0.1329 -1.4711
   85DG      H5 1937   0.975   1.414   1.398 -0.0407  2.2233 -2.3383
   85DG      H6 1938   1.334   1.963   1.473  0.9432 -1.5556  0.4447
   85DG      H7 1939   1.263   1.993   1.309 -2.0535  1.1487  0.5533
   85DG      H8 1940   1.162   1.934   1.435  0.0541  0.8872 -1.6003
   85DG      O9 1941   1.063   1.466   1.227 -0.1011 -0.2652 -0.0739
   85DG     O10 1942   1.301   1.790   1.372  0.8223 -0.2194  0.1999
   85DG     C11 1943   1.157   1.419   1.130 -0.7704 -0.5688 -0.2036
   85DG     C12 1944   1.401   1.786   1.270 -0.2185 -0.0195 -0.7738
   85DG     H13 1945   1.143   1.493   1.052 -1.3299 -0.2779  0.1657
   85DG     H14 1946   1.142   1.322   1.082  0.4419 -1.3349  0.8850
   85DG     H15 1947   1.494   1.826   1.310  1.0119 -2.9662 -0.4056
   85DG     H16 1948   1.367   1.836   1.179 -2.8393  0.7460  0.5178
   85DG     C17 1949   1.303   1.443   1.173 -0.2986 -0.0069  0.5045
   85DG     C18 1950   1.432   1.640   1.231 -0.0431  0.7371  0.4661
   85DG     O19 1951   1.303   1.579   1.219  0.2864  0.0585 -0.3048
   85DG     H20 1952   1.352   1.429   1.077 -1.5888 -2.2613  0.1072
   85DG     H21 1953   1.346   1.370   1.241 -0.4387 -1.1088 -0.5606
   85DG     H22 1954   1.483   1.640   1.134 -2.1077  1.3776 -0.6808
   85DG     H23 1955   1.491   1.575   1.295 -1.2263 -2.0719 -1.1305
   86DG      C1 1956   4.243   5.215   3.298  0.1447  0.1340 -0.3080
   86DG      C2 1957   4.945   5.584   3.430  0.0802 -0.3520 -0.2469
   86DG      H3 1958   4.223   5.110   3.279  1.2277 -0.3542  1.0732
   86DG      H4 1959   4.258   5.267   3.203  2.1340 -0.2488 -0.2603
   86DG      H5 1960   4.157   5.269   3.336  0.7551  1.2347 -0.4234
   86DG      H6 1961   4.941   5.629   3.529  2.1597  0.3220 -0.4163
   86DG      H7 1962   4.993   5.486   3.431  0.1206 -0.3279  0.6986
   86DG      H8 1963   5.001   5.665   3.382 -1.9647  0.6195 -1.1139
   86DG      O9 1964   4.358   5.227   3.378  0.0617 -0.2587 -0.3499
   86DG     O10 1965   4.818   5.585   3.366 -0.2840 -0.0385 -0.3695
   86DG     C11 1966   4.476   5.158   3.332  0.1112  0.3135 -0.7020
   86DG     C12 1967   4.715   5.513   3.438 -0.4240 -0.1416 -0.0805
   86DG     H13 1968   4.509   5.206   3.239  0.4045  0.5694 -0.4676
   86DG     H14 1969   4.464   5.050   3.324 -0.5445  0.3215  0.1164
   86DG     H15 1970   4.618   5.559   3.421 -0.4902  0.3370  1.4276
   86DG     H16 1971   4.721   5.511   3.547  1.5917 -0.1954 -0.1399
   86DG     C17 1972   4.579   5.167   3.444  0.3212  0.1956 -0.1260
   86DG     C18 1973   4.709   5.371   3.401  0.3010 -0.7940 -1.0243
   86DG     O19 1974   4.608   5.303   3.478 -0.7576  0.3322 -0.5774
   86DG     H20 1975   4.670   5.112   3.417 -0.6145 -1.5531  0.1227
   86DG     H21 1976   4.544   5.104   3.525  0.4973 -2.0472 -1.6961
   86DG     H22 1977   4.693   5.358   3.294 -0.3222 -0.1197 -1.0177
   86DG     H23 1978   4.806   5.324   3.413  0.0221 -1.2251 -0.3423
   87DG      C1 1979   4.140   4.781   1.509 -0.9539  0.3405 -0.3544
   87DG      C2 1980   4.505   4.197   1.714 -0.0727  0.1138  0.2768
   87DG      H3 1981   4.166   4.871   1.452  0.9180  0.4003  0.5176
   87DG      H4 1982   4.215   4.787   1.588 -0.1993  0.4694 -1.0631
   87DG      H5 1983   4.042   4.796   1.553 -0.6168  1.4444  0.0529
   87DG      H6 1984   4.518   4.090   1.697 -2.0126 -0.0119 -0.5467
   87DG      H7 1985   4.603   4.226   1.753  0.2039  0.1882 -0.4685
   87DG      H8 1986   4.424   4.221   1.782 -2.5430  2.2240 -3.1283
   87DG      O9 1987   4.146   4.664   1.424 -0.0912  0.3246 -0.1260
   87DG     O10 1988   4.473   4.263   1.594  0.1138  0.0100  0.3416
   87DG     C11 1989   4.274   4.637   1.365  0.2187  0.5126  0.0989
   87DG     C12 1990   4.361   4.197   1.531 -0.3562 -0.1963 -1.0886
   87DG     H13 1991   4.341   4.663   1.447 -0.1733  2.9444 -0.2804
   87DG     H14 1992   4.296   4.711   1.288 -0.7898  0.9394  0.2038
   87DG     H15 1993   4.271   4.203   1.592  2.1120  0.3379  2.8717
   87DG     H16 1994   4.394   4.095   1.515  1.2564  0.0274  0.4493
   87DG     C17 1995   4.285   4.491   1.323  0.9723 -0.3886 -0.2267
   87DG     C18 1996   4.326   4.273   1.397 -0.0719  0.8730  0.0057
   87DG     O19 1997   4.340   4.411   1.421  0.5423  0.5969  0.3242
   87DG     H20 1998   4.347   4.491   1.233 -0.3512  1.0837 -1.2006
   87DG     H21 1999   4.185   4.460   1.292 -0.1261 -0.0927  2.7239
   87DG     H22 2000   4.401   4.248   1.322 -0.3502  0.0370 -0.0005
   87DG     H23 2001   4.228   4.250   1.357 -0.4819  2.5700 -0.0160
   88DG      C1 2002   0.649   4.157   1.232 -0.0587 -0.8503  0.0850
   88DG      C2 2003  -0.007   4.267   1.085 -0.5851  0.0140  0.2793
   88DG      H3 2004   0.614   4.062   1.192 -1.1215  0.0810 -1.3092
   88DG      H4 2005   0.616   4.165   1.336 -0.8321  0.8490 -0.2542
   88DG      H5 2006   0.756   4.169   1.223 -0.1317 -0.8318 -0.8030
   88DG      H6 2007   0.028   4.172   1.125  0.2489  0.6650  1.1463
   88DG      H7 2008  -0.052   4.326   1.164 -0.5839  0.4180 -0.0197
   88DG      H8 2009  -0.073   4.260   0.999  0.4049 -0.0145 -0.4971
   88DG      O9 2010   0.599   4.270   1.164  0.0873 -0.3804 -0.4969
   88DG     O10 2011   0.119   4.329   1.071  0.1722  0.3314  0.4182
   88DG     C11 2012   0.613   4.254   1.025  0.6785  0.9041 -0.0467
   88DG     C12 2013   0.151   4.339   0.935 -0.1182  0.0344  0.3187
   88DG     H13 2014   0.584   4.154   0.993  0.3446  1.2938 -0.9907
   88DG     H14 2015   0.714   4.276   0.989  1.6197  0.0450  1.9109
   88DG     H15 2016   0.083   4.410   0.888 -0.1005  0.9022  1.5366
   88DG     H16 2017   0.146   4.243   0.884  0.1374 -0.3693  1.0315
   88DG     C17 2018   0.516   4.342   0.952  0.9520 -0.0061 -0.4485
   88DG     C18 2019   0.292   4.392   0.914 -0.1416  0.1154 -0.3832
   88DG     O19 2020   0.382   4.309   0.986 -0.4279 -0.0749 -0.3338
   88DG     H20 2021   0.530   4.330   0.844  0.7207 -1.4547 -0.3368
   88DG     H21 2022   0.536   4.446   0.980 -2.3892  0.3671  0.9964
   88DG     H22 2023   0.326   4.396   0.811 -1.8600 -1.1354 -1.0555
   88DG     H23 2024   0.296   4.490   0.961  2.5080 -0.3747  0.6120
   89DG      C1 2025   3.705   2.871   0.280  0.5483 -0.3352  0.5498
   89DG      C2 2026   3.622   2.100   0.650  0.2801  0.1325  0.5569
   89DG      H3 2027   3.675   2.972   0.255 -1.0502 -0.2896  2.3991
   89DG      H4 2028   3.639   2.793   0.241  0.3290 -0.3905  1.0156
   89DG      H5 2029   3.798   2.857   0.226 -0.1097  0.3246 -0.7987
   89DG      H6 2030   3.642   2.091   0.757  0.2421  0.2873  0.5760
   89DG      H7 2031   3.517   2.082   0.625  0.0634 -0.8021  2.0131
   89DG      H8 2032   3.679   2.022   0.600  0.3043 -0.6773  1.7974
   89DG      O9 2033   3.716   2.858   0.420 -0.1760  0.7568 -0.0568
   89DG     O10 2034   3.665   2.227   0.598  1.0363 -0.1260  0.6919
   89DG     C11 2035   3.752   2.722   0.461  0.7240 -0.2531  0.0760
   89DG     C12 2036   3.638   2.238   0.457 -0.3391 -0.6500 -0.3265
   89DG     H13 2037   3.784   2.721   0.565  1.6159  1.8307 -0.1424
   89DG     H14 2038   3.833   2.685   0.398 -0.8491 -1.7403 -1.2004
   89DG     H15 2039   3.573   2.162   0.413 -0.7591 -0.2453 -0.4129
   89DG     H16 2040   3.730   2.219   0.402 -0.7393  0.9139 -1.6007
   89DG     C17 2041   3.636   2.621   0.446  1.1267 -0.0562  0.0580
   89DG     C18 2042   3.608   2.384   0.407  0.4115 -0.2963 -0.9461
   89DG     O19 2043   3.686   2.486   0.474 -0.3718  0.3609  0.5181
   89DG     H20 2044   3.598   2.607   0.345 -0.3696  0.8087  0.4631
   89DG     H21 2045   3.554   2.649   0.512  1.3070  1.3992 -0.2994
   89DG     H22 2046   3.608   2.391   0.298  1.5878 -0.3314 -0.9605
   89DG     H23 2047   3.502   2.391   0.431  0.1670 -1.5142 -1.6096
   90DG      C1 2048   2.102   0.516   4.058  0.5946 -0.0115 -0.1715
   90DG      C2 2049   2.178   0.485   3.423  0.0727 -0.1885 -0.4483
   90DG      H3 2050   2.173   0.567   3.993  0.8869 -0.4302 -0.1852
   90DG      H4 2051   2.056   0.590   4.123 -0.8923 -0.2268 -0.9242
   90DG      H5 2052   2.025   0.480   3.989  1.0479 -0.8576 -0.2491
   90DG      H6 2053   2.163   0.405   3.351 -2.7458  0.4261 -0.6701
   90DG      H7 2054   2.088   0.546   3.424 -0.3217 -0.6192 -2.9309
   90DG      H8 2055   2.245   0.563   3.388  0.0998 -0.7660 -1.7273
   90DG      O9 2056   2.150   0.402   4.131 -0.3220 -0.9036 -0.2764
   90DG     O10 2057   2.227   0.447   3.550 -0.6210 -0.2242 -0.2237
   90DG     C11 2058   2.218   0.305   4.053  0.4578 -0.8716  0.1330
   90DG     C12 2059   2.128   0.381   3.628  0.3278 -0.2594 -0.0403
   90DG     H13 2060   2.249   0.234   4.129  0.4017 -0.6232  0.3896
   90DG     H14 2061   2.310   0.346   4.013 -0.4833  1.2048 -0.0295
   90DG     H15 2062   2.069   0.298   3.588 -2.0520  0.9674  0.6825
   90DG     H16 2063   2.048   0.450   3.654  0.2569 -0.3727  0.0436
   90DG     C17 2064   2.123   0.226   3.960 -0.4210 -0.1186 -0.5668
   90DG     C18 2065   2.189   0.320   3.756  0.6385  0.6869 -0.7176
   90DG     O19 2066   2.080   0.293   3.847 -0.0806  0.1586 -0.1264
   90DG     H20 2067   2.034   0.189   4.011 -0.0773  0.6244  0.6054
   90DG     H21 2068   2.183   0.144   3.919 -0.5401 -0.9219  0.8150
   90DG     H22 2069   2.242   0.230   3.725  0.4825  0.4129 -0.1862
   90DG     H23 2070   2.259   0.394   3.796  0.2150 -0.2897  2.0211
   91DG      C1 2071   1.501   1.303   2.906  0.1430 -1.4560 -0.5576
   91DG      C2 2072   0.998   1.126   3.434  0.4043 -0.2394  0.8015
   91DG      H3 2073   1.482   1.297   2.798  0.1317 -5.8133 -0.4858
   91DG      H4 2074   1.559   1.213   2.927  0.7914 -0.4781  2.3111
   91DG      H5 2075   1.562   1.389   2.932 -2.1968 -0.3378  1.6113
   91DG      H6 2076   1.091   1.088   3.477  0.1407 -0.4385  1.1972
   91DG      H7 2077   0.921   1.070   3.487  0.2391 -1.5112 -0.7137
   91DG      H8 2078   0.985   1.095   3.330  0.0235 -0.1800  0.8316
   91DG      O9 2079   1.382   1.291   2.976 -0.0158  0.0028 -0.6315
   91DG     O10 2080   0.982   1.269   3.454 -0.2172 -0.3228  0.1553
   91DG     C11 2081   1.300   1.402   2.959 -0.0003  0.4862 -0.7678
   91DG     C12 2082   1.074   1.347   3.380 -0.6101  0.2995 -0.5294
   91DG     H13 2083   1.300   1.435   2.855 -0.4329  2.4897 -0.1757
   91DG     H14 2084   1.340   1.495   3.001  0.7161 -0.2227  0.1745
   91DG     H15 2085   1.177   1.319   3.401 -0.6288  0.5692 -0.0786
   91DG     H16 2086   1.079   1.452   3.408  1.6727 -0.2628  1.4499
   91DG     C17 2087   1.160   1.385   3.025  0.3240  0.4111 -0.2649
   91DG     C18 2088   1.056   1.352   3.226 -0.9256 -0.5972  0.2202
   91DG     O19 2089   1.183   1.370   3.163  0.4828  0.2079 -0.5260
   91DG     H20 2090   1.102   1.305   2.979 -1.0979  1.8172 -1.0010
   91DG     H21 2091   1.107   1.478   3.007 -1.0301 -0.7671 -2.8869
   91DG     H22 2092   1.005   1.264   3.186 -1.6528 -0.0952  0.0229
   91DG     H23 2093   0.987   1.432   3.202  2.0935  2.2322  0.2599
   92DG      C1 2094   1.232   2.395   3.506 -0.3403  0.1773  0.4006
   92DG      C2 2095   0.812   1.850   3.291 -0.2428  0.8044 -0.5031
   92DG      H3 2096   1.142   2.451   3.480 -2.1653 -2.5977  0.2267
   92DG      H4 2097   1.321   2.456   3.494 -1.1828  1.3565 -0.0065
   92DG      H5 2098   1.212   2.379   3.612 -1.3483 -2.7089 -0.1212
   92DG      H6 2099   0.789   1.768   3.358  1.7995 -1.2116 -2.1354
   92DG      H7 2100   0.732   1.919   3.321 -0.5192  0.4075 -0.3184
   92DG      H8 2101   0.797   1.802   3.194  1.0750 -0.9324  0.1141
   92DG      O9 2102   1.226   2.281   3.418  0.4072  0.4828 -0.1383
   92DG     O10 2103   0.934   1.901   3.318 -0.1111  0.0263  0.1829
   92DG     C11 2104   1.328   2.187   3.439  0.3219  0.7023 -0.3404
   92DG     C12 2105   1.047   1.818   3.304  0.2697 -0.4139  0.0659
   92DG     H13 2106   1.320   2.167   3.546  1.2814  1.7965 -0.0343
   92DG     H14 2107   1.423   2.235   3.413  1.2284 -0.7354  0.1693
   92DG     H15 2108   1.039   1.745   3.223  0.9260 -1.8034  1.2070
   92DG     H16 2109   1.072   1.776   3.401  0.3287  0.4943  0.4526
   92DG     C17 2110   1.311   2.063   3.344  0.0483  0.1392  0.7125
   92DG     C18 2111   1.167   1.899   3.265  0.2199 -0.6571  0.1223
   92DG     O19 2112   1.177   2.008   3.354  0.8698  0.1446 -0.7269
   92DG     H20 2113   1.389   1.988   3.354  0.0206 -0.2674 -1.6664
   92DG     H21 2114   1.330   2.080   3.238 -0.5974  0.0220  0.5729
   92DG     H22 2115   1.255   1.836   3.268  0.8223  0.2003  0.8155
   92DG     H23 2116   1.149   1.935   3.163  0.0032 -3.1774 -0.8058
   93DG      C1 2117   0.641   4.972   4.734 -0.2140 -0.2635 -0.0648
   93DG      C2 2118   0.545   4.679   5.132 -0.0624  0.2264 -0.4504
   93DG      H3 2119   0.699   4.967   4.642 -0.8023  2.0154 -0.6267
   93DG      H4 2120   0.545   5.011   4.700 -1.6389 -4.2247 -1.1032
   93DG      H5 2121   0.635   4.874   4.781 -0.9939  0.3450  1.1542
   93DG      H6 2122   0.571   4.644   5.032 -0.6083  0.5446 -0.7103
   93DG      H7 2123   0.472   4.603   5.160 -1.3109  1.2633 -0.7875
   93DG      H8 2124   0.489   4.772   5.122  0.1560  0.2064 -2.1977
   93DG      O9 2125   0.712   5.050   4.826 -0.3788 -0.0194 -0.4147
   93DG     O10 2126   0.643   4.665   5.232 -0.0545  0.3602  0.3880
   93DG     C11 2127   0.640   5.109   4.926  0.2570 -0.1287  0.7102
   93DG     C12 2128   0.767   4.726   5.201 -0.4313  0.2039  0.2836
   93DG     H13 2129   0.533   5.094   4.929  0.1744  0.5033  2.2710
   93DG     H14 2130   0.652   5.217   4.912  5.2730 -0.2392  2.1863
   93DG     H15 2131   0.811   4.682   5.112  1.8207 -0.0454  1.4539
   93DG     H16 2132   0.837   4.708   5.282  0.1710 -0.4300 -0.3625
   93DG     C17 2133   0.708   5.054   5.048 -1.4751 -0.0496  0.4513
   93DG     C18 2134   0.754   4.880   5.181  0.1975  0.4770 -0.0944
   93DG     O19 2135   0.707   4.916   5.056  0.0219  0.3988  0.4899
   93DG     H20 2136   0.679   5.102   5.142 -1.1656 -1.1220  1.1119
   93DG     H21 2137   0.815   5.068   5.028 -1.0836 -2.3044  0.6824
   93DG     H22 2138   0.687   4.927   5.253  0.6739 -0.3627  0.9234
   93DG     H23 2139   0.856   4.919   5.184 -0.0686  1.2356 -0.4748
   94DG      C1 2140   2.011   3.858   0.727  0.0364 -0.2217 -0.2198
   94DG      C2 2141   2.120   4.288   1.089  0.5939  0.1140  0.5338
   94DG      H3 2142   2.035   3.762   0.771 -2.6928 -0.6651  0.5024
   94DG      H4 2143   2.086   3.926   0.768  1.8995 -1.0893 -2.0173
   94DG      H5 2144   2.017   3.849   0.619 -2.7648  0.8074 -0.5573
   94DG      H6 2145   2.208   4.353   1.086 -0.0548  1.0121  0.7406
   94DG      H7 2146   2.038   4.350   1.124 -2.6973 -4.2269  1.2450
   94DG      H8 2147   2.136   4.213   1.166  1.4728 -0.0851  0.1716
   94DG      O9 2148   1.873   3.883   0.769 -0.7293  0.2769  0.2130
   94DG     O10 2149   2.082   4.232   0.963  0.2959  0.4267 -0.4523
   94DG     C11 2150   1.802   3.956   0.684 -0.0990 -0.1385  0.0758
   94DG     C12 2151   2.036   4.325   0.864 -0.4757 -0.6856 -0.6149
   94DG     H13 2152   1.701   3.961   0.723  0.2576 -1.2994  1.2296
   94DG     H14 2153   1.781   3.903   0.591  1.9293  1.7687 -1.5763
   94DG     H15 2154   2.103   4.405   0.831  3.1937 -2.6440  1.3583
   94DG     H16 2155   1.945   4.367   0.907 -0.0176  0.9561 -1.2026
   94DG     C17 2156   1.852   4.090   0.648 -0.8026  0.0299  0.7070
   94DG     C18 2157   1.998   4.254   0.732 -0.5256  0.0816  0.0440
   94DG     O19 2158   1.906   4.147   0.762  0.3559 -0.2597 -0.4671
   94DG     H20 2159   1.772   4.156   0.617  0.4659  1.2874 -0.0393
   94DG     H21 2160   1.915   4.074   0.560 -4.0315 -4.6228 -1.1365
   94DG     H22 2161   1.956   4.331   0.668  1.3018  0.5538 -0.6615
   94DG     H23 2162   2.088   4.225   0.677  0.5718  1.6828  0.9264
   95DG      C1 2163   4.816   4.137   4.228  0.1019  0.1177  0.6592
   95DG      C2 2164   4.584   3.702   4.519 -1.0192 -0.3784  0.2119
   95DG      H3 2165   4.905   4.104   4.281 -0.2112  0.2867  1.3017
   95DG      H4 2166   4.841   4.224   4.167  0.7423 -1.4800 -1.4676
   95DG      H5 2167   4.785   4.055   4.163  1.7570  0.5175 -0.6959
   95DG      H6 2168   4.561   3.601   4.483  0.6865 -0.3671 -1.0226
   95DG      H7 2169   4.685   3.722   4.485 -0.6698 -0.8656  0.9197
   95DG      H8 2170   4.595   3.706   4.628 -1.0270  0.0490  0.1948
   95DG      O9 2171   4.720   4.171   4.325 -0.3891 -0.4086  0.2128
   95DG     O10 2172   4.485   3.794   4.481 -0.1290  0.0581 -0.1654
   95DG     C11 2173   4.594   4.208   4.275  0.2339 -0.4542 -1.1021
   95DG     C12 2174   4.514   3.931   4.509  0.2032 -0.1258  0.4020
   95DG     H13 2175   4.548   4.135   4.209 -2.0857 -0.4279  0.3682
   95DG     H14 2176   4.613   4.287   4.203  0.3841  1.7777  1.2233
   95DG     H15 2177   4.607   3.948   4.455 -0.3628  1.5627 -0.0985
   95DG     H16 2178   4.526   3.949   4.616 -1.9442  1.2971  0.4642
   95DG     C17 2179   4.479   4.244   4.381 -0.4217 -0.2997 -0.4178
   95DG     C18 2180   4.407   4.028   4.457 -0.4991 -0.4571 -0.5414
   95DG     O19 2181   4.467   4.153   4.493  0.3623  0.1341  0.0574
   95DG     H20 2182   4.382   4.258   4.334  0.0453  0.0101 -1.3235
   95DG     H21 2183   4.499   4.338   4.432  1.0182  0.5664 -2.4464
   95DG     H22 2184   4.381   4.012   4.352 -2.2506 -2.6824  0.1611
   95DG     H23 2185   4.309   4.008   4.500 -2.1114 -2.4905 -4.6086
   96DG      C1 2186   4.427   3.788   3.352  0.3181 -0.4901 -0.4658
   96DG      C2 2187   4.675   4.363   3.544  0.3351 -0.4253  0.2364
   96DG      H3 2188   4.443   3.833   3.254  1.1576 -0.4583 -0.3198
   96DG      H4 2189   4.325   3.750   3.341 -0.6245  1.4765  0.8714
   96DG      H5 2190   4.486   3.696   3.349  0.3700 -0.4421 -0.9134
   96DG      H6 2191   4.639   4.417   3.457 -0.1469 -1.0266  0.0568
   96DG      H7 2192   4.711   4.442   3.611  1.3692 -0.5603 -0.1376
   96DG      H8 2193   4.756   4.297   3.514  0.4875 -0.2103  0.1698
   96DG      O9 2194   4.458   3.873   3.457 -0.8538  0.5982  0.3468
   96DG     O10 2195   4.580   4.278   3.602  0.4887 -0.0905 -0.2495
   96DG     C11 2196   4.411   3.832   3.585 -0.1721  0.2543 -0.1191
   96DG     C12 2197   4.624   4.224   3.725  0.2596 -0.3945  0.3944
   96DG     H13 2198   4.485   3.759   3.616 -0.2818  0.8378  1.6441
   96DG     H14 2199   4.312   3.787   3.581  0.4368 -1.0857 -2.4985
   96DG     H15 2200   4.625   4.302   3.802  1.4273  1.7566 -1.6511
   96DG     H16 2201   4.730   4.200   3.720  0.1305 -0.7396 -1.0322
   96DG     C17 2202   4.411   3.935   3.695  0.1759  0.7097 -0.0620
   96DG     C18 2203   4.541   4.106   3.778 -0.7334 -0.3457 -0.4901
   96DG     O19 2204   4.516   4.023   3.671 -0.2558  0.0595  0.4687
   96DG     H20 2205   4.440   3.888   3.789  1.1313  0.6370 -0.3771
   96DG     H21 2206   4.312   3.975   3.716  0.2902 -0.1460  2.3349
   96DG     H22 2207   4.582   4.052   3.863  1.0858  0.3388 -0.8957
   96DG     H23 2208   4.449   4.152   3.815  0.4795 -0.0109  2.4052
   97DG      C1 2209   3.627   4.335   2.346 -0.3785 -0.2781  0.4814
   97DG      C2 2210   3.940   4.071   3.040  0.7843 -0.1333  0.1163
   97DG      H3 2211   3.667   4.408   2.275  0.0863  0.3073  1.3264
   97DG      H4 2212   3.589   4.403   2.423 -0.1897  1.5740 -0.9836
   97DG      H5 2213   3.541   4.288   2.298  1.3670  0.2619 -3.6527
   97DG      H6 2214   3.922   4.135   3.126 -0.0008 -0.6288  0.3297
   97DG      H7 2215   3.945   3.969   3.078  2.7069 -0.9392 -2.0352
   97DG      H8 2216   4.039   4.099   3.003  0.6502  0.0856 -0.0749
   97DG      O9 2217   3.721   4.234   2.391 -0.1368 -0.5508  0.1287
   97DG     O10 2218   3.823   4.085   2.959  0.1848  0.4103 -0.0751
   97DG     C11 2219   3.833   4.284   2.451  0.6553 -0.1164  0.3172
   97DG     C12 2220   3.824   4.001   2.850 -0.0914 -0.0429  0.5139
   97DG     H13 2221   3.810   4.362   2.523  0.7522  0.5457 -0.3534
   97DG     H14 2222   3.883   4.344   2.375  1.5751 -1.7932 -0.4592
   97DG     H15 2223   3.718   4.000   2.825 -0.5402  2.5643  1.9709
   97DG     H16 2224   3.848   3.898   2.874 -1.1497 -0.2739  0.5987
   97DG     C17 2225   3.922   4.188   2.527 -0.2770 -0.0715 -0.0960
   97DG     C18 2226   3.914   4.057   2.734 -0.3419  0.0778 -0.4164
   97DG     O19 2227   3.850   4.141   2.638  0.0831  0.1706  0.0509
   97DG     H20 2228   4.018   4.236   2.549 -0.1989  0.3642 -1.3002
   97DG     H21 2229   3.939   4.100   2.464 -1.3130  1.6525 -3.0116
   97DG     H22 2230   4.006   4.105   2.768 -1.0826  1.6513 -0.4961
   97DG     H23 2231   3.945   3.963   2.689  1.3766  0.6833 -0.5869
   98DG      C1 2232   0.854   5.180   3.225 -0.1681 -0.5384 -0.0553
   98DG      C2 2233   0.300   5.178   3.775  0.1947 -0.3275 -0.4115
   98DG      H3 2234   0.934   5.254   3.221 -0.2500 -0.4731 -0.6304
   98DG      H4 2235   0.763   5.235   3.204 -0.5314 -0.8750  0.5998
   98DG      H5 2236   0.880   5.107   3.148 -0.8540 -0.0626 -0.7569
   98DG      H6 2237   0.259   5.276   3.747  0.7648 -0.2177 -0.8989
   98DG      H7 2238   0.240   5.102   3.726 -2.4041 -0.0346  2.0722
   98DG      H8 2239   0.289   5.173   3.883 -3.8304 -0.3984 -0.6800
   98DG      O9 2240   0.846   5.119   3.349  0.8999 -0.3021 -0.2987
   98DG     O10 2241   0.441   5.164   3.745 -0.0312 -0.2923 -0.6961
   98DG     C11 2242   0.824   5.204   3.461  0.1709 -0.1324 -0.0169
   98DG     C12 2243   0.493   5.035   3.758  1.2386 -0.0363 -0.3142
   98DG     H13 2244   0.748   5.281   3.450  3.6108  3.4509 -0.9565
   98DG     H14 2245   0.913   5.267   3.469 -0.2131  0.8751 -2.6760
   98DG     H15 2246   0.462   4.965   3.681  0.5526  0.1845 -0.2419
   98DG     H16 2247   0.472   4.994   3.856  0.3763 -0.1833 -0.5568
   98DG     C17 2248   0.808   5.124   3.592 -0.2754 -0.0084 -1.1046
   98DG     C18 2249   0.639   5.040   3.747 -0.4795  0.0538 -0.5888
   98DG     O19 2250   0.674   5.102   3.626  0.3284 -0.1189  0.4387
   98DG     H20 2251   0.862   5.164   3.678 -1.4299 -1.0860  0.1728
   98DG     H21 2252   0.840   5.020   3.583 -0.0005 -0.1996  1.4399
   98DG     H22 2253   0.676   5.105   3.826 -0.1215  0.2120 -0.8865
   98DG     H23 2254   0.680   4.939   3.746 -0.6438 -0.0105 -0.8281
   99DG      C1 2255   4.977   2.302   2.765  0.7586 -0.1419 -0.5194
   99DG      C2 2256   5.018   2.425   1.984 -0.1325 -0.2772 -0.3693
   99DG      H3 2257   5.075   2.343   2.792  0.6729 -0.4630  0.3043
   99DG      H4 2258   4.964   2.206   2.814 -0.5608  0.0016 -0.5576
   99DG      H5 2259   4.909   2.373   2.812 -0.0415 -0.4124 -1.2442
   99DG      H6 2260   5.111   2.472   2.016 -0.9831  1.2232  0.0118
   99DG      H7 2261   5.037   2.354   1.904 -1.9350 -2.4581  1.0377
   99DG      H8 2262   4.956   2.509   1.951 -0.3095 -0.0800  0.4485
   99DG      O9 2263   4.935   2.303   2.634 -0.2431 -0.0622  0.9235
   99DG     O10 2264   4.953   2.356   2.093 -0.0917  0.0304 -0.0201
   99DG     C11 2265   4.800   2.258   2.599  0.9680 -1.0046 -0.1414
   99DG     C12 2266   4.987   2.408   2.220  0.2704 -0.2871 -0.2032
   99DG     H13 2267   4.743   2.351   2.592  0.7444 -1.2022 -1.0615
   99DG     H14 2268   4.759   2.188   2.672  1.0057  1.1688  2.0706
   99DG     H15 2269   4.928   2.498   2.238 -1.6003 -1.6763  0.9699
   99DG     H16 2270   5.093   2.430   2.226  1.2932 -2.4400 -5.2570
   99DG     C17 2271   4.790   2.196   2.460  0.0288  0.4843 -0.3198
   99DG     C18 2272   4.959   2.300   2.330 -0.5229 -0.0098  0.4619
   99DG     O19 2273   4.814   2.282   2.353 -0.5695 -0.2365 -0.3049
   99DG     H20 2274   4.684   2.173   2.449 -0.1234  0.4186  1.0173
   99DG     H21 2275   4.832   2.097   2.443  0.7804  0.7418 -0.0347
   99DG     H22 2276   5.003   2.206   2.297 -1.6307  0.3440 -2.2980
   99DG     H23 2277   5.007   2.343   2.418  1.1630  2.7489 -1.6492
  100DG      C1 2278   4.863   0.373   3.811  0.3457  0.0103  0.3604
  100DG      C2 2279   4.398  -0.101   4.339 -0.0848  0.0958  0.0900
  100DG      H3 2280   4.829   0.440   3.731  0.1609 -1.1209 -0.5451
  100DG      H4 2281   4.915   0.297   3.753 -0.1919 -1.1912  1.4019
  100DG      H5 2282   4.938   0.408   3.881  1.4778 -0.9744 -0.3228
  100DG      H6 2283   4.320  -0.129   4.409  0.3938 -0.7487  0.3067
  100DG      H7 2284   4.474  -0.180   4.332  0.8534  1.1220 -2.0730
  100DG      H8 2285   4.450  -0.027   4.400 -2.0964  2.3013 -0.7488
  100DG      O9 2286   4.745   0.323   3.873 -0.7113 -0.4390 -0.2356
  100DG     O10 2287   4.356  -0.043   4.214  0.1870 -0.0146 -0.3309
  100DG     C11 2288   4.664   0.248   3.787 -0.4110 -0.7478 -0.3863
  100DG     C12 2289   4.464  -0.006   4.130 -0.0659  0.2423  0.2051
  100DG     H13 2290   4.698   0.152   3.751 -0.1912 -1.0781  0.6609
  100DG     H14 2291   4.643   0.308   3.698 -3.4380 -1.6104 -0.3937
  100DG     H15 2292   4.495  -0.088   4.066 -0.0134 -1.8992  2.7870
  100DG     H16 2293   4.560   0.010   4.180 -0.0384 -1.6238  0.8263
  100DG     C17 2294   4.527   0.234   3.860  0.1527  0.1747  0.0213
  100DG     C18 2295   4.426   0.105   4.037 -0.3977  0.3517  0.2102
  100DG     O19 2296   4.544   0.131   3.961  0.0667 -0.7715  0.3284
  100DG     H20 2297   4.451   0.205   3.788 -1.6556 -0.1932  1.9798
  100DG     H21 2298   4.506   0.331   3.905  1.0421 -0.3194  1.6113
  100DG     H22 2299   4.345   0.063   3.979 -0.4296  0.7211 -0.0179
  100DG     H23 2300   4.386   0.190   4.093  0.9541  0.5985  0.8523
  101DG      C1 2301   5.430   0.813   3.799  0.1658 -0.4939 -0.2033
  101DG      C2 2302   5.516   1.267   4.251 -0.0350  0.5436  0.4835
  101DG      H3 2303   5.535   0.811   3.771  0.4575  3.2563  0.1492
  101DG      H4 2304   5.395   0.906   3.754  1.8685 -0.5150 -1.6766
  101DG      H5 2305   5.386   0.728   3.747  0.1035 -0.3015 -0.4719
  101DG      H6 2306   5.533   1.302   4.353  0.6206  0.5838  0.3644
  101DG      H7 2307   5.613   1.267   4.202 -0.8284 -2.4385 -1.3168
  101DG      H8 2308   5.440   1.333   4.209 -1.1177 -0.5090  0.7463
  101DG      O9 2309   5.398   0.797   3.938 -0.0522 -0.0536 -0.2602
  101DG     O10 2310   5.477   1.129   4.243  0.1745 -0.2204 -0.0269
  101DG     C11 2311   5.262   0.809   3.975 -0.1513  0.6979  0.8733
  101DG     C12 2312   5.353   1.116   4.317 -0.0766  0.4007  0.0288
  101DG     H13 2313   5.209   0.720   3.941  1.1310  0.4479 -0.6058
  101DG     H14 2314   5.222   0.889   3.914 -0.4964  0.0619  0.2506
  101DG     H15 2315   5.279   1.175   4.265 -2.1523 -1.0237  1.2342
  101DG     H16 2316   5.361   1.150   4.420  3.2231 -1.0474  0.4149
  101DG     C17 2317   5.245   0.835   4.122  0.4975  0.1787  0.1995
  101DG     C18 2318   5.301   0.970   4.298  0.0069  0.9618  0.7331
  101DG     O19 2319   5.301   0.955   4.161 -0.2322 -0.0091  0.4913
  101DG     H20 2320   5.307   0.758   4.169  2.2107  0.5100 -1.3931
  101DG     H21 2321   5.141   0.841   4.153  0.7150 -0.9049  1.2062
  101DG     H22 2322   5.382   0.906   4.333  1.4887  0.8488 -2.5433
  101DG     H23 2323   5.208   0.952   4.352  0.9314 -2.1226  1.5042
  102DG      C1 2324   0.638   1.425   2.344  0.5878  0.4674 -0.5492
  102DG      C2 2325   0.321   1.298   2.977  0.0252 -0.2464 -0.1143
  102DG      H3 2326   0.742   1.432   2.311  0.7916 -0.0104 -0.0088
  102DG      H4 2327   0.616   1.518   2.396  0.1483  0.6257 -1.0018
  102DG      H5 2328   0.569   1.419   2.259  0.7415 -2.1213 -0.5688
  102DG      H6 2329   0.251   1.379   2.994 -0.5261 -0.3551 -1.7583
  102DG      H7 2330   0.314   1.224   3.057  0.2033  0.3907  0.5041
  102DG      H8 2331   0.422   1.338   2.969  0.3918 -1.1907 -0.3948
  102DG      O9 2332   0.616   1.306   2.422 -0.3612  0.4540 -0.0943
  102DG     O10 2333   0.280   1.239   2.848 -0.2190 -0.2661  0.0203
  102DG     C11 2334   0.483   1.283   2.459 -0.4398  0.3030 -0.0224
  102DG     C12 2335   0.332   1.116   2.829  0.3006 -0.0652  0.1548
  102DG     H13 2336   0.420   1.271   2.372  1.3608 -0.1248 -1.3299
  102DG     H14 2337   0.429   1.363   2.509 -1.5662 -0.1025 -0.5660
  102DG     H15 2338   0.291   1.049   2.904  0.8091  2.9293  3.3484
  102DG     H16 2339   0.438   1.118   2.852  0.1954 -0.8639  0.7212
  102DG     C17 2340   0.475   1.164   2.562 -0.0021 -0.1696 -0.5044
  102DG     C18 2341   0.305   1.055   2.688  0.2519  0.6415 -0.3572
  102DG     O19 2342   0.336   1.144   2.582  0.0820  0.3195 -0.7332
  102DG     H20 2343   0.516   1.195   2.658  2.6600 -0.0235 -1.5998
  102DG     H21 2344   0.519   1.069   2.530 -0.8404 -1.0115  0.7304
  102DG     H22 2345   0.368   0.966   2.683 -0.7928 -0.1736  0.3676
  102DG     H23 2346   0.202   1.022   2.672  0.2980  0.3822 -0.1241
  103DG      C1 2347   1.186   3.629   2.909  0.6327 -0.1465  0.1139
  103DG      C2 2348   0.972   3.112   3.285  0.1483  0.0681 -0.5120
  103DG      H3 2349   1.084   3.663   2.928  0.5298  1.3475 -2.6145
  103DG      H4 2350   1.197   3.572   2.817 -0.6210  0.6622 -0.5653
  103DG      H5 2351   1.249   3.717   2.897  0.5548  0.3895  2.8826
  103DG      H6 2352   0.971   3.021   3.227  0.6050 -0.3038  0.0473
  103DG      H7 2353   0.982   3.079   3.389 -0.3159 -1.0597 -0.8122
  103DG      H8 2354   0.871   3.153   3.291 -0.9266 -2.3887 -0.5641
  103DG      O9 2355   1.228   3.558   3.019  0.5997  0.3039  0.0684
  103DG     O10 2356   1.079   3.204   3.266 -0.4315 -0.0221  0.1730
  103DG     C11 2357   1.366   3.520   3.012  0.5473 -0.3191  0.1748
  103DG     C12 2358   1.216   3.156   3.287  0.7024  0.3042 -0.1173
  103DG     H13 2359   1.417   3.616   3.014  1.8735 -0.9862 -0.3683
  103DG     H14 2360   1.412   3.469   2.927 -0.7599  0.7125 -1.1772
  103DG     H15 2361   1.246   3.084   3.212 -2.5204 -3.4578  1.8488
  103DG     H16 2362   1.231   3.107   3.383  1.0095 -3.3730 -1.8936
  103DG     C17 2363   1.405   3.434   3.134 -0.0780 -0.3259 -0.7725
  103DG     C18 2364   1.319   3.264   3.274 -0.0575 -0.2032  0.0705
  103DG     O19 2365   1.296   3.343   3.161 -0.0846 -0.4388 -0.1433
  103DG     H20 2366   1.411   3.491   3.227  1.2066 -0.3614 -0.8161
  103DG     H21 2367   1.504   3.394   3.113  0.4533  1.4388 -1.7465
  103DG     H22 2368   1.315   3.318   3.369  0.3564 -2.6917  1.6216
  103DG     H23 2369   1.418   3.217   3.275  0.0016 -0.2863 -2.5760
  104DG      C1 2370   2.215   2.554   3.212 -0.2133  0.6708 -0.2346
  104DG      C2 2371   1.596   2.172   2.969  0.0974 -0.1812  0.2633
  104DG      H3 2372   2.223   2.632   3.137 -3.0743  0.7793 -0.5408
  104DG      H4 2373   2.307   2.497   3.196 -0.2788  0.5036 -0.0349
  104DG      H5 2374   2.222   2.603   3.310 -0.3758  0.7485 -0.2615
  104DG      H6 2375   1.597   2.200   2.864  3.8423  0.7874  0.4346
  104DG      H7 2376   1.641   2.073   2.973  1.2477  0.2429 -1.3353
  104DG      H8 2377   1.495   2.148   3.002 -0.3998 -0.5949 -1.4627
  104DG      O9 2378   2.102   2.471   3.181  0.1991 -0.1729  0.4400
  104DG     O10 2379   1.660   2.268   3.055  0.3041 -0.5268  0.6784
  104DG     C11 2380   1.980   2.541   3.212 -0.5008  0.1055  0.9820
  104DG     C12 2381   1.572   2.380   3.093  0.0452  0.3829  0.3314
  104DG     H13 2382   1.968   2.640   3.168  0.3984 -0.2255 -0.0488
  104DG     H14 2383   2.008   2.570   3.313  1.0301 -1.0715  0.9247
  104DG     H15 2384   1.469   2.349   3.106 -0.0972  0.0872 -1.3055
  104DG     H16 2385   1.564   2.446   3.007 -2.9176 -1.7921 -1.2246
  104DG     C17 2386   1.867   2.446   3.190 -0.6065  0.4264  0.3737
  104DG     C18 2387   1.622   2.433   3.226  0.4036  0.3453  0.3583
  104DG     O19 2388   1.742   2.513   3.225 -0.3119  0.1051 -0.3871
  104DG     H20 2389   1.865   2.359   3.256 -1.3351 -0.6361 -1.0017
  104DG     H21 2390   1.852   2.404   3.091 -2.0076  0.9648  0.3225
  104DG     H22 2391   1.538   2.492   3.263 -0.5026 -0.2201 -0.7271
  104DG     H23 2392   1.640   2.354   3.300 -1.2138 -0.5582 -0.1714
  105DG      C1 2393   0.820   4.303   0.457  0.3131 -0.2583  0.1915
  105DG      C2 2394   0.874   3.697   0.648 -0.5116  0.3641 -0.3328
  105DG      H3 2395   0.849   4.343   0.555 -1.3582 -0.6344  0.8738
  105DG      H4 2396   0.712   4.296   0.460  0.2667  0.6164  1.4983
  105DG      H5 2397   0.851   4.361   0.370  2.7728  0.1811  1.2556
  105DG      H6 2398   0.769   3.721   0.662 -0.7256 -1.3293  1.3457
  105DG      H7 2399   0.869   3.589   0.636  0.0217  0.2475  0.4103
  105DG      H8 2400   0.932   3.722   0.737  0.1778  0.8370 -0.9049
  105DG      O9 2401   0.889   4.180   0.449  0.2255  0.4182  0.1225
  105DG     O10 2402   0.924   3.759   0.535 -0.0653 -0.0082  0.9681
  105DG     C11 2403   1.028   4.199   0.423 -0.3265  0.3386  0.4352
  105DG     C12 2404   1.062   3.734   0.526 -0.1955 -0.1416 -0.0009
  105DG     H13 2405   1.082   4.224   0.515  0.1845  0.4099  0.1142
  105DG     H14 2406   1.058   4.276   0.352  0.9652  0.7992  1.4413
  105DG     H15 2407   1.088   3.629   0.513 -0.5258 -0.1086 -1.0003
  105DG     H16 2408   1.101   3.764   0.623 -2.1025 -1.4090  1.2113
  105DG     C17 2409   1.091   4.066   0.380  0.2243 -0.3959 -0.2944
  105DG     C18 2410   1.117   3.832   0.423  0.1551  0.1646 -0.2713
  105DG     O19 2411   1.074   3.960   0.470 -0.0469 -0.3234 -0.1958
  105DG     H20 2412   1.200   4.065   0.379  0.2571 -0.4633  1.3626
  105DG     H21 2413   1.061   4.019   0.286 -2.0444  2.5053 -1.1606
  105DG     H22 2414   1.223   3.814   0.409  0.8801  0.4593  3.6540
  105DG     H23 2415   1.066   3.802   0.331  0.0380 -2.2897  0.5308
  106DG      C1 2416   4.339   1.361   0.345 -0.6740  0.8567  0.3874
  106DG      C2 2417   4.219   1.716  -0.204  0.6323 -0.5934 -0.1034
  106DG      H3 2418   4.365   1.438   0.418 -0.0443 -1.1721  2.4203
  106DG      H4 2419   4.373   1.270   0.394 -1.7228  0.1421 -0.1811
  106DG      H5 2420   4.232   1.355   0.326 -0.2458 -2.2993 -1.7881
  106DG      H6 2421   4.126   1.662  -0.223  0.2959 -0.5363  1.3359
  106DG      H7 2422   4.228   1.785  -0.121  0.7828  0.3585 -0.8944
  106DG      H8 2423   4.237   1.772  -0.296  1.4653  2.5590  1.8515
  106DG      O9 2424   4.395   1.394   0.214 -0.4785 -0.3226 -0.5654
  106DG     O10 2425   4.326   1.614  -0.176  0.0850 -0.2541  0.1789
  106DG     C11 2426   4.539   1.403   0.217 -0.2738  1.1472 -0.3391
  106DG     C12 2427   4.458   1.682  -0.153 -0.4447  0.5603 -0.9347
  106DG     H13 2428   4.581   1.311   0.257  0.7257  0.7177 -2.2861
  106DG     H14 2429   4.571   1.484   0.284  0.3280  2.3137 -1.9771
  106DG     H15 2430   4.449   1.759  -0.076 -0.4593  0.5389 -0.9147
  106DG     H16 2431   4.494   1.730  -0.243  3.2193  0.1044  0.1308
  106DG     C17 2432   4.587   1.421   0.075  0.1662  0.2784  0.1476
  106DG     C18 2433   4.553   1.580  -0.099 -0.2373 -0.7580 -0.1562
  106DG     O19 2434   4.508   1.522   0.019  0.0386 -0.3717 -0.1969
  106DG     H20 2435   4.560   1.333   0.016  1.0341  0.6417 -0.8175
  106DG     H21 2436   4.693   1.437   0.057  0.1488  2.1462  1.3877
  106DG     H22 2437   4.574   1.500  -0.170  1.1543  0.0470 -0.7170
  106DG     H23 2438   4.657   1.615  -0.094 -0.9735  2.1968 -2.2834
  107DG      C1 2439   0.171   2.520   2.745 -0.0741  0.0174 -0.4247
  107DG      C2 2440  -0.352   2.699   2.320 -0.7516 -0.7181 -0.0459
  107DG      H3 2441   0.234   2.459   2.681 -0.7968 -0.5555 -0.6128
  107DG      H4 2442   0.142   2.460   2.831 -0.7582 -0.7197 -1.1449
  107DG      H5 2443   0.224   2.610   2.776 -1.2825  0.9562 -0.9443
  107DG      H6 2444  -0.256   2.647   2.324 -0.4455 -0.0753  1.3984
  107DG      H7 2445  -0.394   2.670   2.224 -0.5762  2.3301 -1.1563
  107DG      H8 2446  -0.334   2.806   2.322 -4.5334  0.0668 -0.4652
  107DG      O9 2447   0.068   2.546   2.655 -0.0977  0.2268 -0.5303
  107DG     O10 2448  -0.433   2.670   2.436  0.4569  0.2608  0.3947
  107DG     C11 2449  -0.026   2.437   2.643 -0.1214 -0.0914 -0.5542
  107DG     C12 2450  -0.375   2.694   2.561 -0.4460  0.4358  0.2010
  107DG     H13 2451  -0.082   2.421   2.735  0.7715 -0.2374 -0.0202
  107DG     H14 2452   0.033   2.345   2.632  0.4395  0.2341 -0.2876
  107DG     H15 2453  -0.466   2.698   2.622 -0.1716  3.4523  0.5683
  107DG     H16 2454  -0.338   2.795   2.541  0.6280 -0.5681 -3.8287
  107DG     C17 2455  -0.103   2.464   2.515 -0.0263  0.0145 -0.1023
  107DG     C18 2456  -0.285   2.584   2.617  0.1761 -0.4104 -0.4930
  107DG     O19 2457  -0.169   2.588   2.535 -0.0216  0.3227  0.3939
  107DG     H20 2458  -0.172   2.386   2.484 -0.6153  0.4338  0.1056
  107DG     H21 2459  -0.033   2.471   2.432 -0.2861  1.4879 -0.2393
  107DG     H22 2460  -0.268   2.605   2.723  2.1751  0.4152 -0.9358
  107DG     H23 2461  -0.333   2.487   2.604 -1.7883  0.7090 -1.9588
  108DG      C1 2462   4.092   1.434   5.069  0.3485  0.7873 -0.7607
  108DG      C2 2463   3.416   1.440   5.508  0.1094  0.0099 -0.3397
  108DG      H3 2464   4.147   1.506   5.009  2.7727 -1.3548 -1.3241
  108DG      H4 2465   4.040   1.368   5.000 -0.7191  0.6730  0.1432
  108DG      H5 2466   4.157   1.370   5.128 -1.9082 -0.6640  0.2771
  108DG      H6 2467   3.354   1.511   5.563  0.0805  0.4436 -0.9205
  108DG      H7 2468   3.354   1.385   5.437  2.5275 -0.1951 -2.4127
  108DG      H8 2469   3.469   1.372   5.575  0.7469 -1.8264 -2.5677
  108DG      O9 2470   3.998   1.491   5.162  0.0754  0.0979 -0.1853
  108DG     O10 2471   3.511   1.505   5.423 -0.1125  0.1004  0.4028
  108DG     C11 2472   3.903   1.585   5.111  0.1233 -0.2567  0.2864
  108DG     C12 2473   3.619   1.559   5.498  0.1611 -0.1288  0.1730
  108DG     H13 2474   3.822   1.544   5.051  0.9364  1.8197 -2.4123
  108DG     H14 2475   3.950   1.646   5.034 -0.3933 -1.7866 -1.3197
  108DG     H15 2476   3.693   1.489   5.536  0.8218  1.0686  1.1756
  108DG     H16 2477   3.586   1.599   5.593 -0.6555  0.0135 -0.1599
  108DG     C17 2478   3.844   1.680   5.220 -0.0941  0.4068 -1.0442
  108DG     C18 2479   3.698   1.663   5.418 -0.0962 -0.0963 -0.2431
  108DG     O19 2480   3.776   1.599   5.318  0.2951  0.1512  0.0599
  108DG     H20 2481   3.768   1.748   5.183 -1.0273 -0.7197 -1.2534
  108DG     H21 2482   3.923   1.740   5.265  0.5360 -0.6121 -0.7584
  108DG     H22 2483   3.644   1.742   5.366 -2.0411  0.1217  1.9341
  108DG     H23 2484   3.777   1.709   5.476 -0.3628  2.4369 -1.7407
  109DG      C1 2485   4.852   4.013   3.350  0.4413 -0.4103 -0.1900
  109DG      C2 2486   4.226   4.237   3.506 -0.4882  0.2960 -0.7240
  109DG      H3 2487   4.859   3.905   3.356  0.5449 -0.3892  0.0650
  109DG      H4 2488   4.873   4.055   3.448 -1.5082 -1.0861  0.5670
  109DG      H5 2489   4.926   4.040   3.274 -0.2465 -1.2140 -1.1743
  109DG      H6 2490   4.255   4.235   3.611  1.9523  0.9245 -1.3193
  109DG      H7 2491   4.158   4.321   3.491 -0.5293  0.6813  1.3502
  109DG      H8 2492   4.167   4.147   3.489  1.4945 -0.9376 -1.4249
  109DG      O9 2493   4.736   4.071   3.295 -0.6529 -0.2691  0.0999
  109DG     O10 2494   4.335   4.242   3.417  0.0416 -0.0488 -0.6440
  109DG     C11 2495   4.700   4.025   3.161 -0.0604  0.2427  0.1924
  109DG     C12 2496   4.303   4.276   3.285  0.1016 -0.7455 -0.0854
  109DG     H13 2497   4.661   3.923   3.164  0.4520 -0.0315 -1.4108
  109DG     H14 2498   4.787   4.017   3.096 -1.0894 -0.0990 -1.1658
  109DG     H15 2499   4.256   4.373   3.273  0.1440 -0.4616  1.8198
  109DG     H16 2500   4.224   4.210   3.248  0.9677  0.2807 -4.2801
  109DG     C17 2501   4.592   4.123   3.117  0.4072  0.6361 -0.3556
  109DG     C18 2502   4.430   4.269   3.200  0.9536 -1.1572 -0.2655
  109DG     O19 2503   4.496   4.146   3.225 -0.4659 -0.6309  0.3859
  109DG     H20 2504   4.546   4.102   3.020  2.2929  1.7055 -1.5616
  109DG     H21 2505   4.639   4.220   3.099  0.0010  1.0002  0.5070
  109DG     H22 2506   4.400   4.280   3.096 -0.9971 -1.6409  0.2126
  109DG     H23 2507   4.492   4.345   3.248 -0.6206  0.3204 -0.4930
  110DG      C1 2508   4.954   3.330   4.058 -0.7080  0.5838 -0.6052
  110DG      C2 2509   4.946   3.112   3.394  0.0549 -0.2396  0.4046
  110DG      H3 2510   4.887   3.413   4.035  0.3399  2.3639  2.2013
  110DG      H4 2511   5.016   3.345   4.147  1.2981 -1.9181 -1.4635
  110DG      H5 2512   4.889   3.243   4.067 -0.4971  0.3714 -1.1205
  110DG      H6 2513   4.930   3.005   3.393 -0.0433 -0.2195 -0.4060
  110DG      H7 2514   4.856   3.174   3.398  1.6856  2.2498  1.4762
  110DG      H8 2515   4.982   3.140   3.295 -3.3533 -1.3498 -1.2822
  110DG      O9 2516   5.041   3.308   3.955  0.4679  0.2266 -0.6304
  110DG     O10 2517   5.038   3.162   3.490 -0.0389 -0.5989  0.7245
  110DG     C11 2518   5.147   3.217   3.976 -0.0090 -0.9390  0.3047
  110DG     C12 2519   5.151   3.080   3.506  0.3387 -0.2191 -0.0297
  110DG     H13 2520   5.101   3.121   4.000 -1.2249 -0.2891  0.6653
  110DG     H14 2521   5.204   3.256   4.059 -0.8675  1.9772 -0.3674
  110DG     H15 2522   5.213   3.073   3.417  0.2147 -0.6416 -0.0876
  110DG     H16 2523   5.106   2.987   3.542 -1.9527  1.1781  0.9135
  110DG     C17 2524   5.245   3.198   3.858 -0.0944 -0.5414  0.4230
  110DG     C18 2525   5.241   3.127   3.621 -0.2892 -0.0318 -0.2017
  110DG     O19 2526   5.168   3.140   3.745  0.3336  0.1310 -0.3348
  110DG     H20 2527   5.324   3.130   3.888 -0.4755 -0.0480  2.7617
  110DG     H21 2528   5.283   3.295   3.824  0.1066 -0.6408  0.3688
  110DG     H22 2529   5.309   3.043   3.638 -2.1455 -2.1657 -2.6150
  110DG     H23 2530   5.312   3.207   3.597  0.9994 -1.4737 -1.4471
  111DG      C1 2531   4.467   5.414   3.733  0.1655  0.4057  0.1736
  111DG      C2 2532   4.322   6.113   3.358  0.5123 -0.7330  0.1717
  111DG      H3 2533   4.549   5.482   3.710 -0.3761 -0.0581 -3.7103
  111DG      H4 2534   4.475   5.324   3.673 -1.5010  1.3775 -1.6155
  111DG      H5 2535   4.477   5.388   3.838 -0.1921 -2.5750 -0.4596
  111DG      H6 2536   4.380   6.102   3.266 -0.0210 -0.6342 -0.1819
  111DG      H7 2537   4.226   6.146   3.318  1.0340  0.7744  0.0881
  111DG      H8 2538   4.352   6.192   3.426 -1.4736 -1.3202  1.8302
  111DG      O9 2539   4.352   5.486   3.699 -1.3306  0.4083 -0.2174
  111DG     O10 2540   4.315   5.980   3.418 -0.1137 -0.1281  0.6132
  111DG     C11 2541   4.343   5.518   3.560  1.1605 -0.3047 -0.2098
  111DG     C12 2542   4.240   5.959   3.534  0.3129 -0.2994 -0.3596
  111DG     H13 2543   4.332   5.426   3.502 -1.9074  0.9931 -1.9604
  111DG     H14 2544   4.416   5.585   3.516 -2.0812  1.4901 -3.3764
  111DG     H15 2545   4.133   5.977   3.529  0.0743 -1.2279  0.9036
  111DG     H16 2546   4.274   6.031   3.609  1.4500  0.2477 -1.3672
  111DG     C17 2547   4.204   5.588   3.538 -0.0110  0.3377  0.2219
  111DG     C18 2548   4.270   5.823   3.580  0.2155  0.4326 -0.0984
  111DG     O19 2549   4.201   5.726   3.495  0.5273 -0.0802 -0.1756
  111DG     H20 2550   4.139   5.581   3.626  0.9090  1.8142  1.0521
  111DG     H21 2551   4.151   5.540   3.456  0.3627  3.0909 -1.7636
  111DG     H22 2552   4.377   5.809   3.569  0.4607  2.2816 -0.4635
  111DG     H23 2553   4.254   5.819   3.688 -0.6281 -2.5269 -0.2506
  112DG      C1 2554   4.016   1.768   2.333  0.6437 -0.2522  0.3140
  112DG      C2 2555   4.501   1.372   2.389 -0.4029 -0.2254 -0.0440
  112DG      H3 2556   3.998   1.701   2.417  1.5368 -1.7848 -0.6691
  112DG      H4 2557   3.977   1.706   2.252  0.2380  1.9459 -1.2697
  112DG      H5 2558   3.944   1.848   2.347 -1.5321 -2.2921  1.6107
  112DG      H6 2559   4.435   1.318   2.322 -1.1430 -0.6106  0.9714
  112DG      H7 2560   4.586   1.418   2.338 -1.0634  1.8691  0.6271
  112DG      H8 2561   4.543   1.310   2.468 -1.5756 -0.2304  0.5889
  112DG      O9 2562   4.142   1.824   2.315 -0.0349  0.0126 -0.1099
  112DG     O10 2563   4.435   1.476   2.449 -0.2917  0.0012 -1.0125
  112DG     C11 2564   4.191   1.895   2.432  0.2104  0.5920  0.6208
  112DG     C12 2565   4.313   1.444   2.515  0.3892 -0.6991 -0.3882
  112DG     H13 2566   4.122   1.973   2.465 -0.9406 -1.1687  2.6462
  112DG     H14 2567   4.288   1.936   2.401  0.7524 -1.2895 -0.2759
  112DG     H15 2568   4.336   1.366   2.588  0.6598 -1.3469 -1.1522
  112DG     H16 2569   4.226   1.407   2.460  0.4616  0.4036 -1.2991
  112DG     C17 2570   4.223   1.795   2.550  0.4318 -0.1816  0.2165
  112DG     C18 2571   4.287   1.577   2.588  0.3121 -0.3139 -0.7622
  112DG     O19 2572   4.267   1.676   2.488 -0.0235 -0.0081 -0.3516
  112DG     H20 2573   4.134   1.768   2.606  0.3473  0.1833  0.2578
  112DG     H21 2574   4.310   1.835   2.603  1.7707 -0.3227 -1.7605
  112DG     H22 2575   4.206   1.571   2.661  0.8358 -1.0780 -0.2286
  112DG     H23 2576   4.379   1.610   2.635  1.2184 -0.5564 -2.2763
  113DG      C1 2577   5.107   4.665   4.799  0.4366 -0.7863  0.7415
  113DG      C2 2578   5.672   4.436   4.342 -0.5218  0.3058 -0.3463
  113DG      H3 2579   5.010   4.634   4.761  0.0797  2.6669 -1.5915
  113DG      H4 2580   5.154   4.728   4.724 -1.0065 -0.4912  0.0490
  113DG      H5 2581   5.091   4.711   4.897  0.9748  1.3804 -0.1307
  113DG      H6 2582   5.727   4.345   4.322 -1.2685 -0.1611 -0.2994
  113DG      H7 2583   5.588   4.440   4.274 -0.8277 -1.1740 -0.0882
  113DG      H8 2584   5.737   4.523   4.334  0.2659 -0.2349  0.0263
  113DG      O9 2585   5.175   4.544   4.799 -0.4435 -0.3668 -0.0513
  113DG     O10 2586   5.618   4.430   4.478 -0.4868 -0.3448  0.1221
  113DG     C11 2587   5.300   4.544   4.874  0.0419 -0.0083 -0.8707
  113DG     C12 2588   5.518   4.333   4.502  0.3562  0.3180 -0.4819
  113DG     H13 2589   5.278   4.536   4.981  1.7386  1.1580 -0.3884
  113DG     H14 2590   5.368   4.628   4.858  2.2253 -1.2283  1.2733
  113DG     H15 2591   5.552   4.236   4.466 -1.6747  0.3893 -2.8442
  113DG     H16 2592   5.439   4.368   4.435  0.0021 -0.3437 -0.4176
  113DG     C17 2593   5.378   4.417   4.833 -0.8344  0.2827 -0.6353
  113DG     C18 2594   5.475   4.311   4.654 -0.0262 -0.2611 -0.4179
  113DG     O19 2595   5.415   4.431   4.700  0.5173  0.1310 -0.5707
  113DG     H20 2596   5.312   4.331   4.845 -1.9777  1.2184 -0.0475
  113DG     H21 2597   5.471   4.402   4.888 -0.6175 -0.1725 -1.1107
  113DG     H22 2598   5.393   4.240   4.659 -1.3425  1.2584  0.7272
  113DG     H23 2599   5.566   4.284   4.709  0.7516 -0.3886 -1.7295
  114DG      C1 2600   4.370   5.420   5.257  0.9086  0.4271  0.5810
  114DG      C2 2601   4.516   6.103   5.243  0.8800  0.4395  0.0182
  114DG      H3 2602   4.305   5.368   5.327  0.4338  1.2450  0.7554
  114DG      H4 2603   4.466   5.368   5.261  1.2312  1.0818  1.4749
  114DG      H5 2604   4.321   5.411   5.160  1.2687 -1.8019  0.5316
  114DG      H6 2605   4.487   6.205   5.272  2.0565  0.4399  1.2692
  114DG      H7 2606   4.613   6.088   5.290  0.3851 -0.4904  0.7673
  114DG      H8 2607   4.506   6.107   5.134 -1.1011  0.1117  0.1443
  114DG      O9 2608   4.399   5.552   5.299 -0.0752  0.5103  0.4031
  114DG     O10 2609   4.422   6.008   5.293 -0.1790 -0.1675 -1.0968
  114DG     C11 2610   4.423   5.566   5.439 -0.7675  0.4551  0.6445
  114DG     C12 2611   4.409   6.014   5.438  1.0674 -0.2577  0.1893
  114DG     H13 2612   4.513   5.519   5.478  0.0217  0.5265 -1.0185
  114DG     H14 2613   4.336   5.541   5.500 -0.8533  1.7633  1.0835
  114DG     H15 2614   4.379   6.113   5.472 -2.6330 -0.8173 -0.9048
  114DG     H16 2615   4.510   6.001   5.477  1.3026  1.1575  0.1039
  114DG     C17 2616   4.446   5.712   5.467  0.6515  0.4217 -0.4719
  114DG     C18 2617   4.315   5.906   5.495 -0.7528 -0.7278 -0.5156
  114DG     O19 2618   4.329   5.781   5.435 -0.1805  0.5398  0.0403
  114DG     H20 2619   4.534   5.757   5.421  1.8940 -1.0465  0.3733
  114DG     H21 2620   4.466   5.712   5.574  1.1103 -0.4005 -0.5568
  114DG     H22 2621   4.327   5.906   5.604 -0.0051  3.4206 -0.4342
  114DG     H23 2622   4.212   5.932   5.473 -1.9732 -1.7453  3.1986
  115DG      C1 2623   1.743   0.589   3.578 -0.4193  0.3017  0.3855
  115DG      C2 2624   1.853   0.361   4.280 -0.4695  0.4257  0.1885
  115DG      H3 2625   1.664   0.550   3.512  1.0487 -1.0819 -0.6460
  115DG      H4 2626   1.824   0.516   3.568  0.5262  1.2807  0.7972
  115DG      H5 2627   1.760   0.688   3.536 -4.5995  1.1082  0.0911
  115DG      H6 2628   1.869   0.451   4.222  3.3091 -1.9786 -3.0615
  115DG      H7 2629   1.852   0.385   4.386 -1.5425  0.8006  0.1035
  115DG      H8 2630   1.939   0.294   4.271 -1.9664 -1.9212  2.1765
  115DG      O9 2631   1.694   0.600   3.708  0.7610  0.0935  0.0353
  115DG     O10 2632   1.755   0.278   4.231 -0.4660 -0.2182 -0.3142
  115DG     C11 2633   1.679   0.475   3.780 -0.2718  0.3319 -0.6685
  115DG     C12 2634   1.628   0.325   4.219  0.5443  0.0872  0.1009
  115DG     H13 2635   1.773   0.422   3.784  1.4352  3.0767 -1.3902
  115DG     H14 2636   1.600   0.419   3.731 -0.3421  0.6433 -0.9171
  115DG     H15 2637   1.601   0.361   4.318 -1.2757 -2.8761  0.8039
  115DG     H16 2638   1.566   0.238   4.199  1.9489 -1.5160  2.1663
  115DG     C17 2639   1.655   0.515   3.917  0.0729 -0.2029 -0.1228
  115DG     C18 2640   1.601   0.439   4.123 -0.5268  0.2929 -0.4065
  115DG     O19 2641   1.643   0.399   3.995 -0.5094 -0.0574 -0.2059
  115DG     H20 2642   1.572   0.585   3.927 -1.0874 -1.6054  0.5223
  115DG     H21 2643   1.740   0.574   3.953  0.7212 -0.1321 -1.7069
  115DG     H22 2644   1.494   0.458   4.121 -0.8694 -0.7977  2.4032
  115DG     H23 2645   1.648   0.536   4.142 -1.9418  1.0192 -0.4736
  116DG      C1 2646   3.861   2.333   4.431 -0.4135  0.8609  0.3145
  116DG      C2 2647   4.480   2.422   4.176 -0.0395  0.8687 -0.0840
  116DG      H3 2648   3.754   2.329   4.411 -0.4461 -0.4009  0.6892
  116DG      H4 2649   3.868   2.343   4.539 -3.0252  2.2269  0.4442
  116DG      H5 2650   3.904   2.238   4.400 -1.6320  0.4151 -0.0663
  116DG      H6 2651   4.487   2.329   4.233  3.4187  0.9587 -0.1613
  116DG      H7 2652   4.514   2.402   4.074  0.8167 -0.4324  0.4269
  116DG      H8 2653   4.551   2.489   4.224  1.2586  0.6678 -1.6182
  116DG      O9 2654   3.912   2.448   4.362 -0.7916  0.5790  0.9078
  116DG     O10 2655   4.346   2.470   4.178 -0.0441 -0.2048 -0.1223
  116DG     C11 2656   3.892   2.451   4.225 -0.4446  0.3109  0.5834
  116DG     C12 2657   4.329   2.591   4.106 -0.1720 -0.2418 -0.3337
  116DG     H13 2658   3.785   2.471   4.223 -0.5409 -0.1277  0.9903
  116DG     H14 2659   3.908   2.351   4.185 -0.7739  0.0257  1.1521
  116DG     H15 2660   4.372   2.587   4.006 -2.5017 -0.6749 -1.3912
  116DG     H16 2661   4.387   2.671   4.151  0.2840 -1.3245  1.0834
  116DG     C17 2662   3.964   2.562   4.145 -0.3205 -0.2814 -0.5036
  116DG     C18 2663   4.182   2.628   4.092 -0.8482 -0.0947 -0.3262
  116DG     O19 2664   4.103   2.548   4.176  0.7538  0.0221  0.1917
  116DG     H20 2665   3.930   2.657   4.186 -1.9337 -1.3342  0.7166
  116DG     H21 2666   3.936   2.566   4.040 -2.6353 -1.6715 -0.0089
  116DG     H22 2667   4.171   2.736   4.100  0.3098  0.0907 -1.0259
  116DG     H23 2668   4.155   2.600   3.990 -0.4769 -1.0705 -0.1723
  117DG      C1 2669   4.730   4.284   1.225 -0.3394  0.6481 -0.4593
  117DG      C2 2670   4.449   4.556   1.814 -0.0507 -0.1321  0.6125
  117DG      H3 2671   4.743   4.179   1.201 -1.9148  0.5270 -0.8917
  117DG      H4 2672   4.785   4.348   1.157  0.7008  0.2972  0.0392
  117DG      H5 2673   4.628   4.299   1.188 -0.1067  0.6093 -1.1153
  117DG      H6 2674   4.360   4.589   1.760  0.8198  0.2050 -0.6550
  117DG      H7 2675   4.404   4.470   1.863 -0.7758 -1.0568 -1.5336
  117DG      H8 2676   4.472   4.626   1.894  0.1008 -0.2932  0.7098
  117DG      O9 2677   4.732   4.327   1.358 -0.3680 -0.4643 -0.3392
  117DG     O10 2678   4.559   4.539   1.731  0.2537  0.4444 -0.7022
  117DG     C11 2679   4.864   4.310   1.411  0.1200  0.5488  0.0327
  117DG     C12 2680   4.678   4.538   1.801 -0.2929 -0.0601  0.0342
  117DG     H13 2681   4.947   4.331   1.343  0.2329  0.7359  0.2263
  117DG     H14 2682   4.864   4.210   1.455 -0.3402  0.4360 -0.2102
  117DG     H15 2683   4.684   4.450   1.865 -0.6207  1.4641  2.2480
  117DG     H16 2684   4.683   4.620   1.872 -3.2865  0.0192  0.2766
  117DG     C17 2685   4.898   4.411   1.529 -0.9243  0.5848 -0.8753
  117DG     C18 2686   4.799   4.532   1.706 -0.4374 -0.1234 -0.0015
  117DG     O19 2687   4.789   4.420   1.621  0.5894 -0.3711 -0.6473
  117DG     H20 2688   4.902   4.504   1.473  0.6765 -0.0221 -1.8305
  117DG     H21 2689   4.993   4.387   1.576 -1.6590 -3.7745 -1.1452
  117DG     H22 2690   4.791   4.628   1.654 -2.6009  0.9721  2.1505
  117DG     H23 2691   4.887   4.519   1.769 -0.6793  0.9447  0.5833
  118DG      C1 2692   1.908   3.816   3.183 -0.2624 -0.3638 -0.4649
  118DG      C2 2693   2.436   4.190   3.207  0.2486  0.3873  0.7425
  118DG      H3 2694   1.881   3.731   3.120  0.4042  0.3848 -1.7809
  118DG      H4 2695   1.827   3.860   3.241 -0.5944 -0.5740 -0.7652
  118DG      H5 2696   1.975   3.769   3.255 -0.1079 -0.0845 -0.4258
  118DG      H6 2697   2.515   4.254   3.166  1.3783  0.2283  2.5729
  118DG      H7 2698   2.400   4.243   3.295 -1.5149 -2.3284  1.8089
  118DG      H8 2699   2.489   4.099   3.237 -1.0190  0.1166  2.2650
  118DG      O9 2700   1.989   3.900   3.100  0.1913 -0.0577 -0.4466
  118DG     O10 2701   2.339   4.167   3.106  0.3177  0.2915  0.4052
  118DG     C11 2702   1.912   3.957   2.992 -0.9540 -0.0535 -0.1977
  118DG     C12 2703   2.267   4.285   3.063  0.5670  1.0760 -0.1067
  118DG     H13 2704   1.826   4.010   3.033 -0.4060 -0.5573  1.7399
  118DG     H14 2705   1.868   3.874   2.938  0.2054 -0.5589 -0.4030
  118DG     H15 2706   2.344   4.346   3.015 -0.6133  3.0045  0.3295
  118DG     H16 2707   2.226   4.342   3.146 -1.0827 -0.6549  0.3422
  118DG     C17 2708   1.999   4.067   2.926  0.1214 -0.0581 -0.2542
  118DG     C18 2709   2.160   4.232   2.959 -0.1605  0.1550 -0.3181
  118DG     O19 2710   2.075   4.134   3.020  0.6738  0.0073 -0.1901
  118DG     H20 2711   1.937   4.124   2.857 -3.3305 -0.4948  2.1815
  118DG     H21 2712   2.072   4.018   2.862  0.1623 -0.4030  0.0523
  118DG     H22 2713   2.104   4.317   2.922  1.5976  1.3990 -0.2512
  118DG     H23 2714   2.213   4.179   2.880 -1.4884  0.6826 -1.6095
  119DG      C1 2715   3.305   3.440   0.663  0.1069  0.9797  0.0764
  119DG      C2 2716   3.640   3.701   0.357  0.2166  0.5031  0.3282
  119DG      H3 2717   3.322   3.528   0.601  2.0126  0.5023 -0.1516
  119DG      H4 2718   3.206   3.425   0.704  0.5994 -1.2777  0.6302
  119DG      H5 2719   3.324   3.365   0.585 -2.1516  1.6065 -1.1454
  119DG      H6 2720   3.641   3.597   0.324  3.0596  0.5463  0.0107
  119DG      H7 2721   3.617   3.757   0.266 -2.1867 -0.1679  0.4578
  119DG      H8 2722   3.738   3.715   0.403  0.3734  2.5307 -0.5091
  119DG      O9 2723   3.406   3.427   0.765  0.6072 -0.4422  0.2009
  119DG     O10 2724   3.536   3.710   0.457 -0.0677 -0.2885  0.1088
  119DG     C11 2725   3.375   3.525   0.871 -0.2548  0.1224  0.2681
  119DG     C12 2726   3.544   3.821   0.547  0.0050 -0.3809  0.8670
  119DG     H13 2727   3.457   3.509   0.940  0.6198 -2.6877 -1.2346
  119DG     H14 2728   3.285   3.501   0.928  0.2765  0.3517  1.2235
  119DG     H15 2729   3.536   3.916   0.494 -2.1800 -0.9068  0.1363
  119DG     H16 2730   3.643   3.821   0.592  0.6123  1.9491 -0.3200
  119DG     C17 2731   3.354   3.668   0.830 -0.3382 -0.6663  0.2765
  119DG     C18 2732   3.425   3.815   0.645  0.1097  0.0943  0.4595
  119DG     O19 2733   3.445   3.695   0.720 -0.1674 -0.3383  0.0684
  119DG     H20 2734   3.358   3.738   0.914 -1.1659 -1.4295  0.9741
  119DG     H21 2735   3.253   3.674   0.789 -0.7438  0.0280  1.3117
  119DG     H22 2736   3.415   3.905   0.706 -2.8582 -0.3057  0.7377
  119DG     H23 2737   3.338   3.811   0.580  1.2839 -0.5801 -1.1370
  120DG      C1 2738   0.502   5.307   2.656 -0.5065 -0.2197  0.1971
  120DG      C2 2739   0.535   5.485   3.372  0.1565  0.5035 -0.1226
  120DG      H3 2740   0.421   5.309   2.582 -1.8953  1.3191  1.6753
  120DG      H4 2741   0.501   5.203   2.689 -2.2487 -0.3304 -0.1177
  120DG      H5 2742   0.600   5.333   2.617  0.2941 -0.7943  1.7384
  120DG      H6 2743   0.501   5.546   3.455 -0.9848 -0.5503  0.2046
  120DG      H7 2744   0.521   5.379   3.393  2.8914  0.0877  0.0008
  120DG      H8 2745   0.644   5.484   3.370  0.1634  0.4358  0.3038
  120DG      O9 2746   0.461   5.388   2.766 -0.6116  0.2382  0.5839
  120DG     O10 2747   0.473   5.530   3.255  0.6977 -0.0946  0.3373
  120DG     C11 2748   0.327   5.371   2.805  0.1172 -0.0095  0.3156
  120DG     C12 2749   0.328   5.525   3.253 -0.6078  0.1990 -0.8449
  120DG     H13 2750   0.313   5.268   2.839 -1.2757 -0.2021 -0.7634
  120DG     H14 2751   0.264   5.386   2.718  1.4976 -0.9675 -0.9072
  120DG     H15 2752   0.289   5.600   3.322  0.8505  0.1713  0.0408
  120DG     H16 2753   0.297   5.429   3.293 -1.1291  0.5768 -0.3259
  120DG     C17 2754   0.284   5.475   2.900  0.5414 -0.6289  0.0834
  120DG     C18 2755   0.280   5.547   3.111 -0.5554 -0.1273  0.2324
  120DG     O19 2756   0.351   5.465   3.026  0.1853 -0.0926  0.1223
  120DG     H20 2757   0.176   5.466   2.913  0.8621 -1.3472  3.1411
  120DG     H21 2758   0.300   5.570   2.850 -2.3470  1.0525  2.0391
  120DG     H22 2759   0.173   5.529   3.108 -0.4842 -0.4893 -0.5820
  120DG     H23 2760   0.301   5.650   3.080  0.3738 -0.9076 -1.9483
  121DG      C1 2761   3.259   2.793   5.141  0.5768 -0.0140 -0.0587
  121DG      C2 2762   2.942   2.476   5.724 -0.3801 -0.5174 -0.3587
  121DG      H3 2763   3.233   2.875   5.075  1.6516  0.5850  0.2488
  121DG      H4 2764   3.231   2.708   5.078 -0.5536  1.4879 -1.6830
  121DG      H5 2765   3.366   2.782   5.156  0.5004 -2.0896 -0.6955
  121DG      H6 2766   2.866   2.482   5.802  1.3231 -0.1259  1.3499
  121DG      H7 2767   2.908   2.428   5.632 -0.1990 -1.5735  0.1084
  121DG      H8 2768   3.027   2.411   5.746  1.6792  1.1159 -2.8795
  121DG      O9 2769   3.182   2.797   5.259  0.3242  0.1974 -0.2938
  121DG     O10 2770   2.993   2.602   5.687 -0.2149 -0.0712 -0.2964
  121DG     C11 2771   3.209   2.903   5.346 -0.3210 -0.4910 -0.4504
  121DG     C12 2772   2.890   2.696   5.644 -0.0098  0.3064 -0.4603
  121DG     H13 2773   3.257   2.996   5.316 -1.4044  0.0597 -0.5359
  121DG     H14 2774   3.286   2.861   5.410 -0.8236  0.1383  0.6087
  121DG     H15 2775   2.829   2.710   5.733 -0.3496  4.0172 -1.1551
  121DG     H16 2776   2.828   2.659   5.562 -0.5723  1.3539 -0.5276
  121DG     C17 2777   3.080   2.935   5.433  0.7599  0.0351 -0.2349
  121DG     C18 2778   2.946   2.830   5.606  0.3316  0.0945 -0.3993
  121DG     O19 2779   3.059   2.819   5.516  0.1194 -0.3898  0.4530
  121DG     H20 2780   3.000   2.944   5.359  0.4232  0.1390  0.1385
  121DG     H21 2781   3.084   3.026   5.493  2.5737 -0.0899 -0.1119
  121DG     H22 2782   2.862   2.889   5.569  0.3967 -0.0971 -0.8584
  121DG     H23 2783   2.981   2.883   5.695 -1.5771 -1.4435  1.3896
  122DG      C1 2784   0.667   4.648   4.093 -0.0431 -0.0268 -0.6396
  122DG      C2 2785  -0.188   4.517   4.215  0.0795  0.0608  0.4149
  122DG      H3 2786   0.679   4.544   4.064 -0.2483 -0.3619  0.4357
  122DG      H4 2787   0.674   4.665   4.201  1.0916  2.0228 -0.9897
  122DG      H5 2788   0.744   4.707   4.043  0.8440 -0.0364  0.6450
  122DG      H6 2789  -0.285   4.537   4.169 -0.1311  1.8993  1.6046
  122DG      H7 2790  -0.170   4.409   4.223  0.6989  0.1412  0.1670
  122DG      H8 2791  -0.212   4.532   4.320 -3.8015 -2.9005  0.1778
  122DG      O9 2792   0.540   4.687   4.037 -0.4259  0.1528  0.1612
  122DG     O10 2793  -0.079   4.590   4.170  0.4306  0.2114  0.2329
  122DG     C11 2794   0.430   4.612   4.077  0.4665  0.4564 -0.4438
  122DG     C12 2795  -0.046   4.531   4.039 -0.4488 -0.0090  0.0898
  122DG     H13 2796   0.422   4.632   4.184 -1.0764 -0.9440 -0.2504
  122DG     H14 2797   0.444   4.505   4.062 -1.5995  0.1448 -0.4923
  122DG     H15 2798  -0.129   4.539   3.969 -1.0128 -0.0281  0.7416
  122DG     H16 2799  -0.014   4.427   4.037 -0.5228 -0.0956 -3.9494
  122DG     C17 2800   0.299   4.661   4.010 -0.1343 -0.4854 -0.6252
  122DG     C18 2801   0.079   4.603   3.976  0.1294 -0.7208 -0.5375
  122DG     O19 2802   0.183   4.596   4.063 -0.6229  0.2178 -0.3693
  122DG     H20 2803   0.299   4.660   3.901  2.2018  1.9691 -0.7639
  122DG     H21 2804   0.281   4.767   4.027 -3.8421 -1.2367  1.0704
  122DG     H22 2805   0.096   4.565   3.875 -1.0203  2.3476 -2.0015
  122DG     H23 2806   0.057   4.709   3.962 -0.5530 -0.4794  1.9130
  123DG      C1 2807   5.261   0.419   3.938  0.3529  0.2008  0.4794
  123DG      C2 2808   4.687   0.508   3.282  0.1764  0.2385  0.3412
  123DG      H3 2809   5.205   0.454   4.025 -0.1915 -0.2596  0.3188
  123DG      H4 2810   5.358   0.468   3.946 -0.1558  0.9252  4.3253
  123DG      H5 2811   5.273   0.311   3.952 -1.3040  0.1265  1.5236
  123DG      H6 2812   4.666   0.405   3.251 -0.7795  0.7630 -0.8461
  123DG      H7 2813   4.630   0.543   3.367  0.8302  0.7782  0.5623
  123DG      H8 2814   4.672   0.562   3.188  2.0164  1.1379  0.5222
  123DG      O9 2815   5.195   0.450   3.815  0.5905  0.1097  0.4538
  123DG     O10 2816   4.829   0.504   3.302 -0.0551  0.3293  0.3243
  123DG     C11 2817   5.248   0.384   3.706 -0.3594 -0.4200 -0.4235
  123DG     C12 2818   4.860   0.441   3.426 -0.8462 -0.2849 -0.3527
  123DG     H13 2819   5.222   0.278   3.710  3.0035 -1.3226  1.5538
  123DG     H14 2820   5.356   0.398   3.705 -0.5372  1.5063  1.0896
  123DG     H15 2821   4.836   0.335   3.439  0.7492 -0.8982 -1.9467
  123DG     H16 2822   4.808   0.479   3.514 -0.1080 -1.2211  0.5190
  123DG     C17 2823   5.202   0.446   3.573  0.2148 -0.0850 -0.4444
  123DG     C18 2824   5.014   0.465   3.436 -0.0410 -0.0259 -1.5029
  123DG     O19 2825   5.066   0.411   3.557 -0.1129 -0.5247  0.5083
  123DG     H20 2826   5.257   0.402   3.490  0.6648  0.9617 -0.7258
  123DG     H21 2827   5.223   0.553   3.579 -0.0705 -0.1125  1.6230
  123DG     H22 2828   5.063   0.427   3.347 -0.9182  1.2470 -2.5731
  123DG     H23 2829   5.029   0.573   3.440  0.7446 -0.1547 -0.4670
  124DG      C1 2830   3.860   4.656   2.325  0.8234  0.2840  0.5613
  124DG      C2 2831   3.693   5.245   2.152  0.4409 -0.1956  0.0590
  124DG      H3 2832   3.959   4.665   2.281  0.6687  1.3690  0.3961
  124DG      H4 2833   3.776   4.678   2.258 -0.9321 -2.2123  1.7825
  124DG      H5 2834   3.856   4.551   2.351  0.0603  0.3320  0.6661
  124DG      H6 2835   3.597   5.205   2.121  0.4642 -0.7595  0.6752
  124DG      H7 2836   3.669   5.332   2.214  2.3114 -0.6127  1.4566
  124DG      H8 2837   3.766   5.267   2.075  0.2285  0.2838 -0.0078
  124DG      O9 2838   3.863   4.735   2.443  0.3972  0.2500 -0.4240
  124DG     O10 2839   3.750   5.161   2.247 -0.2053 -0.6758 -0.6139
  124DG     C11 2840   3.740   4.720   2.517  0.3579 -0.5784 -0.2595
  124DG     C12 2841   3.666   5.105   2.343  0.3290 -0.3300 -1.0572
  124DG     H13 2842   3.747   4.624   2.568  1.7114 -0.6018 -0.4524
  124DG     H14 2843   3.654   4.716   2.452 -2.3470  1.1537  2.8971
  124DG     H15 2844   3.578   5.051   2.307 -0.9367  1.3313 -0.5831
  124DG     H16 2845   3.614   5.186   2.394 -0.0138 -2.0939  1.6146
  124DG     C17 2846   3.735   4.843   2.609 -0.4907 -0.8614  0.3365
  124DG     C18 2847   3.746   5.023   2.444 -0.1251 -0.1947  0.1497
  124DG     O19 2848   3.661   4.943   2.531  0.2934 -0.5617  0.5235
  124DG     H20 2849   3.837   4.868   2.636 -0.4709 -0.0298 -0.4556
  124DG     H21 2850   3.679   4.822   2.700 -0.9926 -2.0953 -0.2297
  124DG     H22 2851   3.819   4.959   2.395  0.5974  0.4826  0.3171
  124DG     H23 2852   3.787   5.096   2.514  0.0928  0.2554 -0.4434
  125DG      C1 2853   3.178   3.981   1.616  0.4017 -0.5400 -0.4069
  125DG      C2 2854   2.610   4.418   1.568  0.3827 -0.0323 -0.9090
  125DG      H3 2855   3.111   3.898   1.640 -0.0042 -0.0251  0.2667
  125DG      H4 2856   3.196   4.034   1.709 -2.0401  0.9581 -0.7136
  125DG      H5 2857   3.276   3.942   1.588  0.9530  1.2222 -1.0221
  125DG      H6 2858   2.521   4.395   1.509  0.3920 -0.5040 -0.7434
  125DG      H7 2859   2.608   4.360   1.660  0.3103  0.6993 -0.4369
  125DG      H8 2860   2.600   4.523   1.595  1.1925 -0.0912 -0.3392
  125DG      O9 2861   3.114   4.056   1.519  0.2792 -0.2671 -0.4520
  125DG     O10 2862   2.735   4.398   1.508 -0.0195 -0.1179  0.4458
  125DG     C11 2863   3.188   4.166   1.474  0.7330  0.0395  0.1335
  125DG     C12 2864   2.737   4.269   1.439 -0.4630 -0.0037 -0.6108
  125DG     H13 2865   3.285   4.159   1.424  0.5127  1.0004 -0.4579
  125DG     H14 2866   3.200   4.229   1.562  1.4509 -2.3185  1.8250
  125DG     H15 2867   2.734   4.275   1.330 -0.0803 -2.9760 -0.8836
  125DG     H16 2868   2.656   4.200   1.464 -0.2627 -0.4875 -1.2725
  125DG     C17 2869   3.099   4.242   1.372 -0.3837  0.5936  0.0403
  125DG     C18 2870   2.876   4.207   1.465  0.9052  0.1419 -0.9878
  125DG     O19 2871   2.978   4.299   1.431 -0.6006  0.7873 -0.4094
  125DG     H20 2872   3.075   4.173   1.291  1.6018  1.5026 -1.4286
  125DG     H21 2873   3.157   4.325   1.330 -1.3624  1.2971  0.0233
  125DG     H22 2874   2.882   4.172   1.568 -0.6824  3.9963  0.5881
  125DG     H23 2875   2.883   4.117   1.403  0.4664 -0.4923 -0.1300
  126DG      C1 2876   3.286   1.182   3.693  0.0911 -0.2030 -0.4069
  126DG      C2 2877   3.062   1.132   2.930 -0.3784  0.4386  0.6398
  126DG      H3 2878   3.285   1.258   3.771 -0.3677 -1.2843  0.6650
  126DG      H4 2879   3.343   1.094   3.723  0.6060 -0.6589 -2.5608
  126DG      H5 2880   3.184   1.143   3.687 -0.2893  0.9276 -4.3016
  126DG      H6 2881   3.162   1.134   2.887  0.8584 -1.9920  3.0414
  126DG      H7 2882   2.998   1.077   2.862 -0.9588 -1.0776  2.3191
  126DG      H8 2883   3.032   1.236   2.940 -1.7901  0.1051  0.0607
  126DG      O9 2884   3.302   1.229   3.554 -0.2541 -0.1378 -0.3114
  126DG     O10 2885   3.074   1.062   3.054 -0.2564  0.3552  0.1497
  126DG     C11 2886   3.194   1.310   3.507 -0.1945 -0.0451  0.0751
  126DG     C12 2887   3.008   1.104   3.166 -0.3251 -0.6232 -0.0678
  126DG     H13 2888   3.188   1.396   3.575  1.5982 -1.1254  1.7342
  126DG     H14 2889   3.093   1.270   3.508  0.0288 -0.6633 -0.9358
  126DG     H15 2890   3.032   1.026   3.239  0.1714 -1.2733 -0.9050
  126DG     H16 2891   2.900   1.104   3.158 -0.7898 -1.1390  4.0382
  126DG     C17 2892   3.222   1.348   3.357 -0.0388 -0.3299 -0.3815
  126DG     C18 2893   3.050   1.233   3.236  0.6111 -0.6111  0.4928
  126DG     O19 2894   3.192   1.245   3.264 -0.0769  0.0182  0.5381
  126DG     H20 2895   3.327   1.371   3.343 -0.0829 -0.8820 -1.8365
  126DG     H21 2896   3.159   1.434   3.333  1.1379  0.4991 -0.5809
  126DG     H22 2897   3.009   1.313   3.174 -0.7177 -1.5609  0.1073
  126DG     H23 2898   2.993   1.242   3.328  1.8728 -2.2311  1.4967
  127DG      C1 2899   2.248   2.956   0.633  0.4997  0.4092 -0.2997
  127DG      C2 2900   2.157   2.597   1.307  0.7351  0.0227 -0.3637
  127DG      H3 2901   2.348   2.975   0.670  0.4438 -0.3073  0.2112
  127DG      H4 2902   2.191   3.045   0.603 -0.4154  0.5708  1.7607
  127DG      H5 2903   2.259   2.887   0.549  0.8039 -0.0484  0.1191
  127DG      H6 2904   2.212   2.513   1.349 -1.8113 -1.2130  0.7519
  127DG      H7 2905   2.168   2.690   1.361  0.3006  1.2666 -2.3092
  127DG      H8 2906   2.052   2.568   1.308  0.4949  0.6980 -2.0824
  127DG      O9 2907   2.158   2.890   0.719  0.0908 -0.7349  0.0861
  127DG     O10 2908   2.191   2.629   1.172  0.0711 -0.6632  0.6637
  127DG     C11 2909   2.161   2.938   0.849 -0.0429 -0.4067 -0.1372
  127DG     C12 2910   2.327   2.673   1.162 -0.4803  0.2127  0.1349
  127DG     H13 2911   2.060   2.938   0.889  0.8364  0.8170  2.3113
  127DG     H14 2912   2.181   3.045   0.850  2.2505 -0.7500 -1.5217
  127DG     H15 2913   2.393   2.604   1.214 -1.5333  0.1796  1.4921
  127DG     H16 2914   2.351   2.772   1.202 -1.0156  0.8091 -0.9962
  127DG     C17 2915   2.262   2.878   0.947 -0.8772 -0.0089  0.1061
  127DG     C18 2916   2.370   2.671   1.016 -0.1016 -0.0442  0.0688
  127DG     O19 2917   2.265   2.733   0.934  0.5702 -0.0008  0.3930
  127DG     H20 2918   2.244   2.901   1.052 -0.0353  0.5007  0.1464
  127DG     H21 2919   2.363   2.913   0.927 -0.7787  0.2722  1.0458
  127DG     H22 2920   2.474   2.695   0.992  0.2512 -1.6542 -0.1424
  127DG     H23 2921   2.361   2.565   0.992  0.7202  0.0167 -0.5685
  128DG      C1 2922   0.678   4.407   1.895 -0.5386  0.4483  0.5479
  128DG      C2 2923   1.299   4.504   2.105  1.0670  0.2490 -0.1558
  128DG      H3 2924   0.689   4.505   1.942 -0.4877 -0.1767  1.8707
  128DG      H4 2925   0.598   4.356   1.949  0.1384 -0.8852  0.3277
  128DG      H5 2926   0.662   4.431   1.789  2.1660 -0.0746 -0.0566
  128DG      H6 2927   1.387   4.473   2.162  0.4565 -0.9441  0.1731
  128DG      H7 2928   1.327   4.508   2.000  0.8768 -1.7441 -0.3314
  128DG      H8 2929   1.265   4.603   2.134  0.5179  0.0069  0.0487
  128DG      O9 2930   0.796   4.339   1.928  0.2321 -0.3104  0.0774
  128DG     O10 2931   1.190   4.412   2.121  0.4474  0.0730  0.1359
  128DG     C11 2932   0.818   4.208   1.871  0.1636  0.5004 -0.0588
  128DG     C12 2933   1.241   4.276   2.106 -0.0082  1.0464  0.2132
  128DG     H13 2934   0.836   4.222   1.764 -0.8344 -2.5810 -0.7439
  128DG     H14 2935   0.724   4.154   1.874 -1.1501  2.7352  2.0934
  128DG     H15 2936   1.288   4.240   2.197  1.2323 -0.0686 -0.8195
  128DG     H16 2937   1.306   4.266   2.019 -0.9452  0.1219 -0.3971
  128DG     C17 2938   0.926   4.141   1.961 -0.0353 -0.9019  0.2526
  128DG     C18 2939   1.128   4.178   2.073 -0.2330  0.5544  0.3727
  128DG     O19 2940   1.043   4.220   1.967  0.0059 -0.1472  0.0089
  128DG     H20 2941   0.940   4.035   1.939 -0.8837 -0.6865 -1.4924
  128DG     H21 2942   0.880   4.148   2.059  0.6737 -1.6462  0.6562
  128DG     H22 2943   1.163   4.077   2.050 -1.2036  0.2636  0.1339
  128DG     H23 2944   1.069   4.165   2.163 -0.2965 -1.0804  0.1304
  129DG      C1 2945   3.100   4.944   5.338  0.0491  0.4860  0.6194
  129DG      C2 2946   3.334   4.194   5.325  0.4615  0.0071  0.7869
  129DG      H3 2947   3.088   4.967   5.232 -0.1105  0.7886  0.7013
  129DG      H4 2948   3.196   4.988   5.363  1.2731 -0.9972 -1.1849
  129DG      H5 2949   3.028   5.003   5.396  1.6540  0.8903  2.2864
  129DG      H6 2950   3.415   4.209   5.254 -1.0755 -0.3183 -1.1080
  129DG      H7 2951   3.380   4.209   5.423  0.7630  3.7994  0.2320
  129DG      H8 2952   3.281   4.101   5.308 -0.0093  0.6918 -2.0436
  129DG      O9 2953   3.089   4.805   5.357  0.3624 -0.1348  0.1178
  129DG     O10 2954   3.230   4.286   5.300  0.1386  0.3367  0.1508
  129DG     C11 2955   2.975   4.748   5.294 -0.3633 -0.0937 -0.1152
  129DG     C12 2956   3.139   4.299   5.409  0.7708 -0.2840 -0.4850
  129DG     H13 2957   3.000   4.757   5.188 -0.5357 -0.5740 -0.2013
  129DG     H14 2958   2.883   4.805   5.309  0.6784  2.3751 -2.3085
  129DG     H15 2959   3.184   4.355   5.491 -1.2925  2.5499 -1.1110
  129DG     H16 2960   3.106   4.198   5.434  0.5627 -0.3187 -0.8822
  129DG     C17 2961   2.949   4.609   5.334 -0.2435  0.7156  0.5400
  129DG     C18 2962   3.024   4.389   5.353  0.0117 -0.0209 -0.0143
  129DG     O19 2963   3.063   4.523   5.326 -0.7787 -0.6420  0.7584
  129DG     H20 2964   2.867   4.565   5.277  1.4267  1.3262 -2.5592
  129DG     H21 2965   2.899   4.609   5.431  0.0330  0.0824  0.6852
  129DG     H22 2966   2.986   4.348   5.259 -0.9152 -0.3128  0.4694
  129DG     H23 2967   2.952   4.389   5.434  0.7440  0.4019  0.6453
  130DG      C1 2968   3.879   1.332   4.408 -0.8499 -0.1961 -0.1314
  130DG      C2 2969   4.513   1.489   4.258  0.2935 -0.1779 -0.1034
  130DG      H3 2970   3.821   1.243   4.434  2.5699 -2.1366  1.5770
  130DG      H4 2971   3.828   1.427   4.396  0.4613  0.8093  1.6529
  130DG      H5 2972   3.930   1.343   4.504 -2.3624 -0.8332  0.7944
  130DG      H6 2973   4.484   1.464   4.156 -1.8319  1.6515 -0.0022
  130DG      H7 2974   4.523   1.597   4.268 -4.9770  0.6977 -1.3292
  130DG      H8 2975   4.611   1.443   4.272  0.3002  0.2426  1.4580
  130DG      O9 2976   3.965   1.297   4.302 -0.1884  0.3495  0.5601
  130DG     O10 2977   4.415   1.453   4.353 -0.0594 -0.1982 -0.0677
  130DG     C11 2978   4.020   1.166   4.323 -0.3680 -0.6384 -1.0891
  130DG     C12 2979   4.462   1.337   4.422 -0.6674 -0.0155  0.6367
  130DG     H13 2980   4.064   1.148   4.224  2.3197  0.1896 -0.1309
  130DG     H14 2981   3.948   1.088   4.348  1.0349 -1.4703  0.5676
  130DG     H15 2982   4.526   1.379   4.500  0.7179 -0.2618 -0.3154
  130DG     H16 2983   4.529   1.273   4.363 -2.7924 -0.0867 -1.8836
  130DG     C17 2984   4.146   1.156   4.416  0.5303 -0.6235  0.4777
  130DG     C18 2985   4.350   1.253   4.468 -0.0816  0.0965 -0.9460
  130DG     O19 2986   4.250   1.242   4.369 -0.3588 -0.4782 -0.1322
  130DG     H20 2987   4.190   1.057   4.430 -0.5706 -1.0897  0.7667
  130DG     H21 2988   4.123   1.186   4.518 -0.6156  0.3166 -0.0431
  130DG     H22 2989   4.384   1.165   4.522 -0.8447 -0.1093 -0.7937
  130DG     H23 2990   4.304   1.318   4.542  0.6662 -2.7780  2.2622
  131DG      C1 2991   2.191   2.775   5.126  0.8449  0.1715 -0.4975
  131DG      C2 2992   1.874   2.716   5.683  0.2844 -0.1681  0.1800
  131DG      H3 2993   2.177   2.871   5.176  1.2028  0.6495 -1.2896
  131DG      H4 2994   2.142   2.778   5.029 -1.5048  1.0976  0.6455
  131DG      H5 2995   2.300   2.770   5.131  0.8084 -0.5155 -0.3297
  131DG      H6 2996   1.957   2.725   5.753 -1.5776  1.5280  2.3595
  131DG      H7 2997   1.838   2.818   5.668  1.1316  0.1145 -0.0112
  131DG      H8 2998   1.784   2.671   5.725  0.3064 -2.1708 -1.7275
  131DG      O9 2999   2.151   2.655   5.191  0.3094 -0.3737  0.0787
  131DG     O10 3000   1.911   2.651   5.556  1.0143 -0.1208 -0.0387
  131DG     C11 3001   2.035   2.587   5.133 -0.1416  0.2693 -0.0140
  131DG     C12 3002   1.920   2.511   5.576 -0.3633  0.8747  0.2896
  131DG     H13 3003   2.067   2.564   5.032  2.1204 -0.0169  0.7040
  131DG     H14 3004   1.948   2.653   5.130 -0.2229  0.2224  0.9503
  131DG     H15 3005   1.835   2.465   5.627 -0.2205 -0.3871 -0.5620
  131DG     H16 3006   2.007   2.494   5.639  0.8261 -0.5284 -1.6343
  131DG     C17 3007   2.005   2.470   5.227  0.1069  0.5218  0.3860
  131DG     C18 3008   1.945   2.438   5.448  0.4603  0.0453  0.3271
  131DG     O19 3009   2.010   2.527   5.355 -0.1892  0.1301 -0.1344
  131DG     H20 3010   2.079   2.391   5.213  2.5349  2.5604  0.9256
  131DG     H21 3011   1.902   2.445   5.205  0.0975  1.1274 -0.2770
  131DG     H22 3012   2.004   2.348   5.465 -0.7384 -1.6486 -3.4161
  131DG     H23 3013   1.850   2.401   5.411 -0.2010  0.4237  1.5790
  132DG      C1 3014   0.064   3.812   2.318 -0.0510 -0.2442 -0.4251
  132DG      C2 3015   0.107   3.168   1.887  0.8470 -0.1445  0.6085
  132DG      H3 3016   0.073   3.904   2.261 -0.2296  1.5563  2.2760
  132DG      H4 3017   0.161   3.767   2.340 -0.0559 -0.1407 -0.1863
  132DG      H5 3018   0.007   3.841   2.406 -1.1011  1.1631 -1.5182
  132DG      H6 3019   0.179   3.247   1.867  0.2334 -0.0296 -1.3172
  132DG      H7 3020   0.156   3.090   1.945  0.8999 -0.7939 -0.2993
  132DG      H8 3021   0.055   3.138   1.796  1.0329 -0.5428  0.6336
  132DG      O9 3022  -0.020   3.724   2.241  0.2687 -0.0564  0.2492
  132DG     O10 3023   0.024   3.226   1.986  0.3600 -0.2880  0.3846
  132DG     C11 3024  -0.070   3.618   2.318  0.0839  0.7161  0.1231
  132DG     C12 3025  -0.068   3.321   1.938  0.2442 -0.3131  0.7049
  132DG     H13 3026  -0.136   3.668   2.389  1.4038  0.1776  1.7850
  132DG     H14 3027   0.005   3.569   2.379 -0.3871  0.2892  0.3721
  132DG     H15 3028  -0.140   3.282   1.865 -2.0599 -0.4707  2.9104
  132DG     H16 3029  -0.018   3.407   1.893 -1.4874  0.3631 -0.0177
  132DG     C17 3030  -0.152   3.515   2.243  0.2090 -0.1437 -0.1185
  132DG     C18 3031  -0.152   3.378   2.052  0.4261  0.4238 -0.9338
  132DG     O19 3032  -0.079   3.465   2.133  0.1314 -0.3074 -0.1252
  132DG     H20 3033  -0.252   3.546   2.211  0.1019 -1.2650 -0.9335
  132DG     H21 3034  -0.176   3.438   2.316 -1.7391  0.7666  0.2550
  132DG     H22 3035  -0.243   3.423   2.012 -1.7674 -1.2266  1.8077
  132DG     H23 3036  -0.191   3.300   2.118 -0.3595  0.8026 -0.9437
  133DG      C1 3037   4.822   4.011   2.764  0.6888  0.3458 -0.3830
  133DG      C2 3038   4.671   3.455   2.397 -0.5390  0.1459  0.2244
  133DG      H3 3039   4.733   4.023   2.825  0.9346  0.4609 -0.0388
  133DG      H4 3040   4.877   4.105   2.757 -0.7401  1.2778  0.3896
  133DG      H5 3041   4.878   3.937   2.821 -1.4061  0.2219  1.6151
  133DG      H6 3042   4.684   3.390   2.484  3.1946  0.9912  0.4796
  133DG      H7 3043   4.616   3.397   2.324  0.4317 -2.2574  1.2885
  133DG      H8 3044   4.760   3.473   2.337 -0.8206  1.1613  0.1030
  133DG      O9 3045   4.783   3.954   2.640 -0.2846 -0.3428 -0.2054
  133DG     O10 3046   4.601   3.575   2.425  0.3239 -0.4698  0.3428
  133DG     C11 3047   4.752   4.034   2.531  0.0135  0.1597 -0.1625
  133DG     C12 3048   4.574   3.653   2.308  0.3985  0.5875 -0.3606
  133DG     H13 3049   4.838   4.039   2.464  0.1292 -0.6037 -0.0812
  133DG     H14 3050   4.739   4.138   2.562 -1.7920 -0.2515  0.5891
  133DG     H15 3051   4.493   3.600   2.259  1.1819  0.2255 -1.3018
  133DG     H16 3052   4.659   3.665   2.241  2.0629 -1.2680  1.2839
  133DG     C17 3053   4.619   3.990   2.465  0.5472  0.3841  0.7008
  133DG     C18 3054   4.524   3.798   2.345 -0.5777 -0.4794  0.8160
  133DG     O19 3055   4.634   3.858   2.414 -0.1391  0.2535  0.0138
  133DG     H20 3056   4.609   4.064   2.386  0.5230 -0.4101 -0.0501
  133DG     H21 3057   4.544   4.008   2.542 -1.3405  1.6165 -1.2843
  133DG     H22 3058   4.502   3.866   2.262  0.0882 -0.1718  0.8842
  133DG     H23 3059   4.440   3.796   2.415 -0.0903 -2.8412  1.4102
  134DG      C1 3060   3.727   4.429   5.136 -0.0917  0.4909  0.0135
  134DG      C2 3061   3.885   4.945   5.528  0.2217 -0.0618 -0.1539
  134DG      H3 3062   3.743   4.362   5.052 -1.5235  0.5870 -0.3750
  134DG      H4 3063   3.623   4.414   5.167  0.0290  0.3768  0.3630
  134DG      H5 3064   3.774   4.400   5.230 -1.6867 -1.4463  0.2674
  134DG      H6 3065   3.882   5.052   5.551  1.9869  0.1633 -0.7945
  134DG      H7 3066   3.839   4.876   5.598  1.4946 -0.1720  0.6077
  134DG      H8 3067   3.987   4.907   5.534  0.3691  0.3115 -0.2448
  134DG      O9 3068   3.736   4.569   5.112  0.5785 -0.1484  0.1144
  134DG     O10 3069   3.843   4.921   5.392  0.1156 -0.3898 -0.8968
  134DG     C11 3070   3.827   4.605   5.012 -0.8686 -0.0180 -0.1740
  134DG     C12 3071   3.899   4.993   5.285  0.6537  0.5184 -0.2531
  134DG     H13 3072   3.794   4.576   4.912  0.4603 -0.8717 -0.3869
  134DG     H14 3073   3.918   4.546   5.027 -0.2039  1.6453  3.2370
  134DG     H15 3074   4.008   4.987   5.289  0.6108 -0.6802 -0.4344
  134DG     H16 3075   3.873   5.098   5.299 -2.1599  0.0277 -1.1744
  134DG     C17 3076   3.855   4.757   5.015 -0.1072 -0.1809 -0.1163
  134DG     C18 3077   3.848   4.947   5.148  0.4166 -0.5375  0.0333
  134DG     O19 3078   3.872   4.802   5.143 -0.0124 -0.1044 -0.2696
  134DG     H20 3079   3.767   4.807   4.974 -0.0962  0.0218  0.1079
  134DG     H21 3080   3.945   4.783   4.959  0.2315  1.4142  1.1209
  134DG     H22 3081   3.740   4.965   5.148  0.4843 -0.1334  0.3844
  134DG     H23 3082   3.900   5.003   5.070 -1.2607 -0.0787 -0.8239
  135DG      C1 3083   1.346   0.293   3.516  0.6419 -0.5602 -0.0813
  135DG      C2 3084   0.513   0.295   3.575 -0.9617  0.0853 -0.5751
  135DG      H3 3085   1.371   0.371   3.589 -1.4025 -2.3132  2.6960
  135DG      H4 3086   1.356   0.344   3.420 -0.2131  0.0561  0.1461
  135DG      H5 3087   1.415   0.209   3.513  1.0671 -0.2743  1.0904
  135DG      H6 3088   0.458   0.296   3.480 -1.4101  0.2902 -0.3158
  135DG      H7 3089   0.455   0.246   3.653 -0.4970  0.4505  0.0077
  135DG      H8 3090   0.526   0.397   3.612  0.9770 -0.4434  0.2979
  135DG      O9 3091   1.217   0.245   3.549  0.5471 -0.6652 -0.2849
  135DG     O10 3092   0.640   0.234   3.551 -0.2253  0.5090 -0.3674
  135DG     C11 3093   1.151   0.164   3.453  0.7705  0.1399  0.6218
  135DG     C12 3094   0.728   0.238   3.666 -0.0855  0.6218 -0.7695
  135DG     H13 3095   1.226   0.096   3.413  0.1641  0.1093 -0.5117
  135DG     H14 3096   1.114   0.225   3.371  0.3550 -0.6011  0.2432
  135DG     H15 3097   0.675   0.203   3.754  1.4143  2.4789  0.9821
  135DG     H16 3098   0.741   0.340   3.702 -1.1704  0.6696 -0.4883
  135DG     C17 3099   1.029   0.083   3.506  0.3459  0.1140 -0.2241
  135DG     C18 3100   0.846   0.141   3.646 -1.1131  0.3027 -0.5641
  135DG     O19 3101   0.925   0.177   3.533  0.5709  0.4046  0.1506
  135DG     H20 3102   1.049   0.026   3.597  0.0483  1.6871  0.8820
  135DG     H21 3103   0.994   0.016   3.428  0.7704 -1.7519  1.1142
  135DG     H22 3104   0.908   0.135   3.735 -1.8811  0.9265  0.0223
  135DG     H23 3105   0.806   0.040   3.637 -2.0889  0.7107 -0.8264
  136DG      C1 3106   0.008   1.733   1.801 -0.2987 -0.1041  0.4121
  136DG      C2 3107   0.504   2.043   1.400  0.3428 -0.1038  0.2205
  136DG      H3 3108  -0.098   1.722   1.780 -0.1169 -0.8593 -0.1613
  136DG      H4 3109   0.026   1.816   1.869 -1.7585  1.0013 -0.5083
  136DG      H5 3110   0.061   1.644   1.834  0.5204 -0.0687 -0.7456
  136DG      H6 3111   0.492   2.123   1.473 -1.0510 -0.3385  0.2723
  136DG      H7 3112   0.565   1.978   1.463 -0.6954  1.3206  2.8145
  136DG      H8 3113   0.555   2.076   1.309 -0.0827  1.2819  0.4623
  136DG      O9 3114   0.051   1.779   1.671 -0.2306 -0.1155 -0.1062
  136DG     O10 3115   0.374   1.983   1.367 -0.2988  0.3530 -0.0487
  136DG     C11 3116   0.038   1.672   1.579  0.2119  0.4042 -0.2434
  136DG     C12 3117   0.365   1.875   1.272 -0.8313 -0.6622 -0.6292
  136DG     H13 3118  -0.061   1.628   1.593  0.8413 -1.4283 -1.1566
  136DG     H14 3119   0.116   1.598   1.599 -0.5170 -0.9072 -1.9519
  136DG     H15 3120   0.437   1.798   1.299  0.5548  0.4102 -1.1622
  136DG     H16 3121   0.379   1.913   1.171 -1.5598 -1.0928 -0.9040
  136DG     C17 3122   0.061   1.710   1.436  0.2750  0.6511 -0.7709
  136DG     C18 3123   0.218   1.824   1.287 -1.0934 -0.2014 -0.0212
  136DG     O19 3124   0.188   1.783   1.421  0.6849 -0.7447  0.6096
  136DG     H20 3125  -0.022   1.776   1.409 -1.8040 -0.1584  2.8899
  136DG     H21 3126   0.058   1.617   1.380 -0.1219 -0.4547  0.9992
  136DG     H22 3127   0.155   1.909   1.260  0.0854  1.4480  2.0627
  136DG     H23 3128   0.206   1.741   1.217  1.4920  0.1776 -1.0620
  137DG      C1 3129   0.311   1.683   2.175 -0.1632  0.3397 -0.2917
  137DG      C2 3130  -0.476   1.447   2.255  0.1989  0.4380 -0.2135
  137DG      H3 3131   0.383   1.652   2.099  0.7422 -1.9102  1.3453
  137DG      H4 3132   0.331   1.635   2.271 -0.9792  1.6668  0.5785
  137DG      H5 3133   0.340   1.784   2.203  1.5684 -0.9151  3.0632
  137DG      H6 3134  -0.493   1.552   2.232  1.4238  0.0363 -3.3240
  137DG      H7 3135  -0.537   1.384   2.190  0.2998  0.6004 -0.4626
  137DG      H8 3136  -0.497   1.427   2.360  0.6027  1.0461 -0.0111
  137DG      O9 3137   0.186   1.674   2.119  0.3234  0.2552 -0.3966
  137DG     O10 3138  -0.337   1.408   2.253 -0.0894  0.1647 -0.5050
  137DG     C11 3139   0.091   1.698   2.221  0.1814  0.3486 -0.0567
  137DG     C12 3140  -0.283   1.427   2.129 -0.2862  0.1814  0.5098
  137DG     H13 3141   0.111   1.792   2.272  0.5666  1.3963 -2.0159
  137DG     H14 3142   0.107   1.622   2.297 -0.4171  0.3036  0.0297
  137DG     H15 3143  -0.353   1.402   2.049 -0.8227 -3.3281  1.9046
  137DG     H16 3144  -0.194   1.367   2.114 -0.6436  0.0086 -1.0984
  137DG     C17 3145  -0.052   1.715   2.158  0.2880  0.1707 -0.8781
  137DG     C18 3146  -0.232   1.577   2.103  0.3253 -0.1976 -0.3533
  137DG     O19 3147  -0.095   1.584   2.143 -0.1198  0.4726 -0.4118
  137DG     H20 3148  -0.063   1.783   2.074 -0.7714 -0.2405 -1.0796
  137DG     H21 3149  -0.117   1.751   2.239 -1.1740 -1.5901 -1.2149
  137DG     H22 3150  -0.226   1.599   1.996 -0.2483  2.4125  0.0702
  137DG     H23 3151  -0.299   1.659   2.129  1.3195  0.4674  0.1574
  138DG      C1 3152   0.330   0.312   4.877 -0.4647  0.2004  1.2208
  138DG      C2 3153   0.050   0.563   5.377 -0.0700 -0.2527 -0.3256
  138DG      H3 3154   0.380   0.222   4.912  0.7955  0.0963 -0.7228
  138DG      H4 3155   0.380   0.329   4.782  0.2842  1.2083  1.7834
  138DG      H5 3156   0.226   0.297   4.848 -0.6583 -1.2069  2.4740
  138DG      H6 3157  -0.022   0.514   5.312 -1.6403  1.6777 -0.1183
  138DG      H7 3158   0.093   0.485   5.440 -0.6967 -1.9878 -1.9431
  138DG      H8 3159  -0.013   0.633   5.431 -0.3566  0.2321 -1.2668
  138DG      O9 3160   0.329   0.429   4.952 -0.6639 -0.3057  0.0615
  138DG     O10 3161   0.141   0.629   5.290  0.4113  0.2981 -0.1623
  138DG     C11 3162   0.459   0.465   4.988 -0.5088 -0.2599  0.0170
  138DG     C12 3163   0.252   0.695   5.345 -0.0120 -0.3576  0.4001
  138DG     H13 3164   0.532   0.459   4.908  1.2254 -1.4110  1.6078
  138DG     H14 3165   0.503   0.400   5.064 -0.4123 -1.0585 -0.6986
  138DG     H15 3166   0.305   0.649   5.429  0.6529 -1.8020 -0.7815
  138DG     H16 3167   0.217   0.795   5.371  0.8470 -0.3685  1.7328
  138DG     C17 3168   0.462   0.602   5.052 -0.7573  0.0788 -0.8142
  138DG     C18 3169   0.361   0.715   5.234 -0.7892 -0.0086  0.5752
  138DG     O19 3170   0.380   0.590   5.162 -0.5321  0.1230 -0.5638
  138DG     H20 3171   0.429   0.674   4.977 -0.3612  0.2513 -0.8258
  138DG     H21 3172   0.564   0.634   5.075  0.4209 -1.7686 -3.0011
  138DG     H22 3173   0.319   0.780   5.157  1.2867  1.0225  0.2637
  138DG     H23 3174   0.454   0.759   5.270  0.3188 -1.8110  0.0762
  139DG      C1 3175   1.348   5.261   1.186  1.2148  0.3408 -0.4359
  139DG      C2 3176   1.877   5.811   0.884  0.0649 -0.2671  0.3831
  139DG      H3 3177   1.386   5.222   1.280 -0.7025  1.1538  0.7455
  139DG      H4 3178   1.367   5.191   1.105 -0.9982 -0.8321 -0.0131
  139DG      H5 3179   1.240   5.250   1.193  1.3561 -0.1119  2.2288
  139DG      H6 3180   1.933   5.788   0.975  3.3184  1.0048 -1.1406
  139DG      H7 3181   1.946   5.779   0.807 -1.6278 -0.7061 -1.0197
  139DG      H8 3182   1.874   5.918   0.860  0.6335 -0.5995 -1.2749
  139DG      O9 3183   1.381   5.396   1.143 -0.5705 -0.3351  0.1472
  139DG     O10 3184   1.749   5.757   0.873 -0.1626 -0.6909  0.2388
  139DG     C11 3185   1.515   5.413   1.101  0.3076 -0.3508 -0.4583
  139DG     C12 3186   1.654   5.809   0.967  0.1321 -0.3029 -0.8498
  139DG     H13 3187   1.539   5.377   1.001  0.6387  3.1237 -1.7791
  139DG     H14 3188   1.588   5.362   1.163 -0.2926  1.3974  1.8116
  139DG     H15 3189   1.640   5.917   0.963  0.4044 -0.2458 -0.2258
  139DG     H16 3190   1.680   5.783   1.070 -0.0073 -3.0584 -1.4312
  139DG     C17 3191   1.544   5.561   1.082  0.8190  1.0454  0.2987
  139DG     C18 3192   1.518   5.743   0.947  0.4125  0.1656  0.5352
  139DG     O19 3193   1.512   5.605   0.949  0.5916  0.0983 -0.2357
  139DG     H20 3194   1.653   5.570   1.086  1.1264 -1.2306 -1.0810
  139DG     H21 3195   1.496   5.620   1.160  0.9344  0.1774  1.0427
  139DG     H22 3196   1.455   5.794   1.021  1.4214  1.8156  0.3218
  139DG     H23 3197   1.483   5.767   0.847  0.9253  0.7758  0.4942
  140DG      C1 3198   2.478   0.404   0.021  0.4546 -0.2049  0.3090
  140DG      C2 3199   2.072  -0.036  -0.098  0.7802 -0.6813 -0.5268
  140DG      H3 3200   2.548   0.320   0.019 -0.1358 -0.6953 -0.2130
  140DG      H4 3201   2.513   0.473   0.097  0.1521  0.3560 -0.0557
  140DG      H5 3202   2.483   0.455  -0.075  1.2554  1.4088  1.1663
  140DG      H6 3203   1.981  -0.095  -0.103 -1.6218  2.3716  2.5198
  140DG      H7 3204   2.100   0.003  -0.196  1.0131 -0.1614 -0.2566
  140DG      H8 3205   2.152  -0.099  -0.061  2.0866  0.4995 -1.2292
  140DG      O9 3206   2.345   0.365   0.037 -0.0268 -0.0514 -0.3178
  140DG     O10 3207   2.062   0.064  -0.005 -0.2629  0.0604  0.2513
  140DG     C11 3208   2.257   0.468   0.083 -0.4206 -0.4511  0.1038
  140DG     C12 3209   1.939   0.133  -0.009 -0.1461 -0.6041  0.3492
  140DG     H13 3210   2.241   0.536   0.000  0.3544 -0.2657  0.0962
  140DG     H14 3211   2.304   0.521   0.166  0.7948 -1.3048 -0.0078
  140DG     H15 3212   1.851   0.071   0.007 -0.8452 -0.2679 -1.8670
  140DG     H16 3213   1.925   0.164  -0.112  1.9934 -2.9467 -0.7457
  140DG     C17 3214   2.118   0.414   0.119 -0.0515 -0.3165 -0.0252
  140DG     C18 3215   1.957   0.254   0.086  0.1252  0.7429  0.1865
  140DG     O19 3216   2.068   0.315   0.032  0.6000 -0.1054  0.3191
  140DG     H20 3217   2.047   0.495   0.134 -0.1558 -0.5564  0.8157
  140DG     H21 3218   2.142   0.365   0.213  2.5602  4.7193  2.3709
  140DG     H22 3219   1.876   0.324   0.067 -0.1795 -0.0984 -1.7931
  140DG     H23 3220   1.959   0.233   0.193 -0.5897 -0.2605  0.0172
  141DG      C1 3221   5.060   1.329   3.484  0.3324 -0.0347  0.3056
  141DG      C2 3222   5.042   1.779   3.132 -0.4138 -0.1318 -0.4164
  141DG      H3 3223   5.104   1.249   3.424 -0.0705 -0.9157  1.1695
  141DG      H4 3224   5.038   1.308   3.589 -0.9802 -1.0161 -0.1325
  141DG      H5 3225   5.128   1.414   3.484 -1.2688  1.2939  0.3013
  141DG      H6 3226   5.101   1.852   3.188 -2.3095 -0.4008  2.1174
  141DG      H7 3227   5.060   1.688   3.189 -1.1283  0.8143  1.3855
  141DG      H8 3228   5.077   1.774   3.029  1.2831 -0.4842  0.1391
  141DG      O9 3229   4.953   1.386   3.413  0.1956  0.0480 -0.3447
  141DG     O10 3230   4.906   1.832   3.124 -0.0423  0.5686 -1.3362
  141DG     C11 3231   4.899   1.498   3.481  0.6070 -0.2996  0.7244
  141DG     C12 3232   4.803   1.749   3.071  0.3535  0.7547  0.1316
  141DG     H13 3233   4.973   1.577   3.492  1.1513 -0.8631  1.2100
  141DG     H14 3234   4.872   1.468   3.583  0.5513  2.5394  1.6271
  141DG     H15 3235   4.843   1.682   2.995 -0.7612 -1.1188  1.1398
  141DG     H16 3236   4.717   1.804   3.033 -0.3042 -0.4333 -0.1418
  141DG     C17 3237   4.782   1.558   3.403  0.2706  0.1624  0.5032
  141DG     C18 3238   4.746   1.675   3.192  0.4593  0.8728  0.2776
  141DG     O19 3239   4.842   1.618   3.280  0.0864 -0.0273  0.0769
  141DG     H20 3240   4.735   1.641   3.455  0.3108 -0.5216  1.6582
  141DG     H21 3241   4.708   1.487   3.365  1.2258 -0.1416 -0.8527
  141DG     H22 3242   4.694   1.755   3.245 -0.6532  0.7023 -0.5213
  141DG     H23 3243   4.671   1.602   3.162  2.4774  0.1555 -3.5648
  142DG      C1 3244   0.470   0.408   3.124  0.5267 -0.1184  0.1029
  142DG      C2 3245   0.793  -0.174   2.900  0.3714 -0.3180  0.2307
  142DG      H3 3246   0.441   0.454   3.218 -1.0927 -0.7109 -0.0803
  142DG      H4 3247   0.380   0.362   3.081  1.4847 -2.4597  0.4540
  142DG      H5 3248   0.511   0.484   3.058  2.3198  0.7672  2.1419
  142DG      H6 3249   0.845  -0.268   2.921 -0.1403 -0.7274 -0.3050
  142DG      H7 3250   0.689  -0.203   2.886  0.2188  1.2643 -2.6684
  142DG      H8 3251   0.841  -0.144   2.807  0.3180 -1.6578 -0.2559
  142DG      O9 3252   0.568   0.309   3.144  0.6139 -0.3664  0.4035
  142DG     O10 3253   0.797  -0.073   3.005 -0.1752 -0.4118  0.3394
  142DG     C11 3254   0.671   0.359   3.224 -0.5279 -0.1301  0.6071
  142DG     C12 3255   0.922  -0.007   3.028  0.2339 -0.1572  0.1922
  142DG     H13 3256   0.635   0.398   3.320 -0.1160 -0.6876  0.9929
  142DG     H14 3257   0.725   0.436   3.170 -0.0175 -1.2519 -0.5247
  142DG     H15 3258   0.945   0.057   2.943  3.3923 -1.0914  0.1932
  142DG     H16 3259   1.005  -0.076   3.047 -1.0112 -2.3070 -1.6800
  142DG     C17 3260   0.771   0.250   3.243 -0.3317  0.2894 -0.0306
  142DG     C18 3261   0.903   0.085   3.149 -0.3203 -0.2210 -0.2927
  142DG     O19 3262   0.797   0.173   3.128 -0.5414  0.0726 -0.1490
  142DG     H20 3263   0.744   0.179   3.321 -4.0636  1.0006 -0.4695
  142DG     H21 3264   0.867   0.294   3.271  0.3441 -1.2591  0.1668
  142DG     H22 3265   0.879   0.020   3.232  3.1045 -1.2178  0.0731
  142DG     H23 3266   0.991   0.139   3.183 -0.6252  0.6534 -0.8569
  143DG      C1 3267   1.831   2.797   0.827 -0.1249  0.3935  0.0845
  143DG      C2 3268   2.243   2.304   1.068  0.0311 -0.3248 -0.4107
  143DG      H3 3269   1.729   2.804   0.791  0.7951 -0.6896 -3.0145
  143DG      H4 3270   1.897   2.811   0.741 -1.2878  0.3390 -0.8341
  143DG      H5 3271   1.857   2.888   0.882 -0.4184  1.9943 -2.3098
  143DG      H6 3272   2.227   2.346   1.168  0.1113 -1.5408  0.1295
  143DG      H7 3273   2.266   2.199   1.088  0.2275 -0.2821 -0.4015
  143DG      H8 3274   2.341   2.343   1.040 -0.0937  1.1692  1.0542
  143DG      O9 3275   1.855   2.672   0.894  0.6262  0.1355  0.3241
  143DG     O10 3276   2.142   2.329   0.976  0.0968 -0.0585 -0.5004
  143DG     C11 3277   1.747   2.623   0.972 -0.9982 -0.5172  1.0595
  143DG     C12 3278   2.019   2.260   1.004  0.0632 -0.6488  0.6247
  143DG     H13 3279   1.651   2.655   0.931  0.0723  0.4794 -0.7602
  143DG     H14 3280   1.760   2.675   1.067  0.3412 -0.0415  0.6303
  143DG     H15 3281   2.041   2.155   1.027  1.3629 -0.5064  0.1159
  143DG     H16 3282   1.965   2.241   0.911  2.4122  1.5101 -1.3222
  143DG     C17 3283   1.782   2.472   0.990  0.8764  0.2358 -0.8796
  143DG     C18 3284   1.926   2.325   1.114 -0.1251  0.2642  0.2391
  143DG     O19 3285   1.895   2.459   1.071  0.2140  1.0326 -0.0029
  143DG     H20 3286   1.791   2.405   0.904  1.4632 -0.9593  0.0863
  143DG     H21 3287   1.696   2.429   1.041  0.2590  0.9237 -1.3068
  143DG     H22 3288   1.841   2.263   1.142 -1.3059  0.6933 -2.1299
  143DG     H23 3289   1.981   2.321   1.208 -0.2199 -2.5674  0.2540
  144DG      C1 3290   5.054   4.081   4.966 -0.4080  0.3864 -0.1643
  144DG      C2 3291   4.614   4.380   5.475 -0.3097  0.8683 -0.0375
  144DG      H3 3292   5.155   4.055   4.997 -1.1175 -2.6599 -0.0940
  144DG      H4 3293   5.055   4.186   4.938 -1.3148  1.1745  2.4965
  144DG      H5 3294   5.026   4.026   4.876 -0.5737  0.9897 -0.4830
  144DG      H6 3295   4.511   4.342   5.472  0.3956 -1.1341 -2.1325
  144DG      H7 3296   4.641   4.406   5.578 -1.3949 -1.3355  0.8787
  144DG      H8 3297   4.638   4.465   5.412  3.9951  0.6443  1.0324
  144DG      O9 3298   4.966   4.074   5.086 -0.0903 -0.2489 -0.7434
  144DG     O10 3299   4.686   4.274   5.418 -0.6274  0.0068  0.1804
  144DG     C11 3300   4.964   3.943   5.154  0.1145 -0.2764 -0.1710
  144DG     C12 3301   4.665   4.149   5.478  0.5376 -0.0402 -0.0460
  144DG     H13 3302   5.039   3.938   5.233  1.8828  0.2376 -1.7562
  144DG     H14 3303   4.977   3.862   5.083  0.6985 -1.9994  1.7774
  144DG     H15 3304   4.569   4.142   5.527  1.2922 -0.1318  1.4675
  144DG     H16 3305   4.742   4.134   5.554 -0.6249 -1.3107  0.9096
  144DG     C17 3306   4.829   3.936   5.224  0.6343  0.2423 -0.0207
  144DG     C18 3307   4.666   4.036   5.378 -0.3385  0.4841  0.8497
  144DG     O19 3308   4.802   4.040   5.322  0.0064 -0.3158  0.5238
  144DG     H20 3309   4.811   3.837   5.268 -2.9138  0.4134 -0.7831
  144DG     H21 3310   4.753   3.940   5.146  1.5356 -1.7119 -1.0669
  144DG     H22 3311   4.647   3.946   5.436  0.1286  2.4958  4.4786
  144DG     H23 3312   4.592   4.055   5.301  0.0381 -2.2456 -0.2977
  145DG      C1 3313   2.795   1.811   0.082 -0.5500 -0.5194  0.4105
  145DG      C2 3314   3.120   1.469  -0.276 -0.6916  0.3420 -0.2728
  145DG      H3 3315   2.723   1.875   0.131  0.2881  0.1765  0.7590
  145DG      H4 3316   2.851   1.882   0.021  1.3825  0.2887  2.9249
  145DG      H5 3317   2.864   1.789   0.164  2.5135 -0.4898 -1.9807
  145DG      H6 3318   3.147   1.383  -0.336 -1.7740  0.2545 -0.6534
  145DG      H7 3319   3.095   1.557  -0.335  1.0564  2.0113  1.3398
  145DG      H8 3320   3.203   1.496  -0.210 -0.8402  0.5998 -0.1903
  145DG      O9 3321   2.753   1.695   0.014 -0.1800  0.3869 -0.1493
  145DG     O10 3322   3.016   1.440  -0.183  0.1041  0.2395  0.5017
  145DG     C11 3323   2.676   1.607   0.086  0.7236  0.4736 -0.0217
  145DG     C12 3324   2.895   1.395  -0.249 -0.5178  0.1325  0.0124
  145DG     H13 3325   2.582   1.656   0.110  0.3840  0.1644 -0.6998
  145DG     H14 3326   2.727   1.576   0.178 -2.3166 -0.0630  1.6314
  145DG     H15 3327   2.932   1.325  -0.324  2.1682  3.3686 -1.9610
  145DG     H16 3328   2.857   1.474  -0.314  0.6919  0.1639 -0.6790
  145DG     C17 3329   2.666   1.480  -0.011 -0.7200 -0.8364  0.3907
  145DG     C18 3330   2.789   1.345  -0.152  0.1191  0.1875  0.6616
  145DG     O19 3331   2.790   1.433  -0.042 -0.4662 -0.4463  0.1951
  145DG     H20 3332   2.610   1.511  -0.099  0.7126 -0.8667 -0.5810
  145DG     H21 3333   2.600   1.400   0.021  0.0155 -2.2026 -1.3553
  145DG     H22 3334   2.692   1.345  -0.202  0.7288  0.2893 -0.5613
  145DG     H23 3335   2.810   1.244  -0.116 -0.7526  0.3027  1.5100
  146DG      C1 3336   0.578   5.442   1.205  0.3966 -0.5377  0.8135
  146DG      C2 3337   0.720   5.620   2.017 -0.1429  0.0729  0.0845
  146DG      H3 3338   0.621   5.456   1.105 -2.2773 -0.7687 -0.4506
  146DG      H4 3339   0.473   5.434   1.178  0.4373  0.5740  0.2739
  146DG      H5 3340   0.617   5.348   1.244  2.7302 -0.0548 -0.1343
  146DG      H6 3341   0.634   5.588   2.076  0.9312  0.4637  1.9627
  146DG      H7 3342   0.801   5.549   2.037 -2.4442 -2.5632  0.6419
  146DG      H8 3343   0.762   5.713   2.055  4.1553 -1.1487 -1.0923
  146DG      O9 3344   0.602   5.566   1.278  0.4330  0.7436  0.4563
  146DG     O10 3345   0.689   5.629   1.878 -0.3113  0.2532  0.2749
  146DG     C11 3346   0.546   5.552   1.413 -0.3274  0.2271 -0.1463
  146DG     C12 3347   0.576   5.711   1.868  0.0235 -0.2644  0.5298
  146DG     H13 3348   0.601   5.476   1.469 -0.1652  0.5675  0.1576
  146DG     H14 3349   0.447   5.506   1.417 -0.5335  0.6143 -0.6870
  146DG     H15 3350   0.584   5.798   1.933  0.5871 -0.6116  0.9278
  146DG     H16 3351   0.485   5.663   1.903  0.9429 -2.0297  0.6050
  146DG     C17 3352   0.571   5.676   1.501  0.2398  0.3534  0.2734
  146DG     C18 3353   0.555   5.757   1.720 -0.1822 -0.1993  0.6204
  146DG     O19 3354   0.537   5.645   1.636  0.0356 -0.5368  0.5991
  146DG     H20 3355   0.518   5.760   1.455  1.7586  0.7590 -0.8536
  146DG     H21 3356   0.679   5.692   1.503  0.7843 -2.7750  0.2675
  146DG     H22 3357   0.468   5.823   1.716 -0.0187 -0.0262 -0.9163
  146DG     H23 3358   0.649   5.811   1.705  0.4022 -1.4667 -0.5360
  147DG      C1 3359   1.452   1.825   2.269 -0.2017  0.8355  0.3282
  147DG      C2 3360   2.211   1.575   2.209  0.2010 -0.4182 -1.1100
  147DG      H3 3361   1.467   1.932   2.253  0.6742  0.4493 -1.6771
  147DG      H4 3362   1.423   1.803   2.372  1.4422  1.6656  1.0025
  147DG      H5 3363   1.369   1.799   2.203  0.9946 -0.2507 -0.8138
  147DG      H6 3364   2.198   1.534   2.309 -0.9465 -1.8160 -1.7871
  147DG      H7 3365   2.266   1.498   2.153  0.3744 -0.0228 -1.4888
  147DG      H8 3366   2.276   1.662   2.212  1.3370 -1.2383  1.9775
  147DG      O9 3367   1.563   1.742   2.237 -1.1156  0.5127 -0.5641
  147DG     O10 3368   2.092   1.620   2.142  0.4640  0.5713  0.3924
  147DG     C11 3369   1.617   1.771   2.115  0.4600 -0.0531 -0.3183
  147DG     C12 3370   2.017   1.501   2.121  0.2447 -0.4858 -0.4549
  147DG     H13 3371   1.697   1.844   2.134 -1.6807  2.4568 -0.3482
  147DG     H14 3372   1.539   1.814   2.052 -0.2353 -2.3160 -1.1035
  147DG     H15 3373   1.998   1.450   2.215  1.4887 -0.1624 -0.0137
  147DG     H16 3374   2.066   1.420   2.066 -0.8198 -1.7589  0.4002
  147DG     C17 3375   1.674   1.645   2.052 -0.3374 -0.3096 -0.3069
  147DG     C18 3376   1.883   1.517   2.052 -0.0814 -0.1383  0.0242
  147DG     O19 3377   1.798   1.624   2.107  0.1603 -0.3627 -0.4995
  147DG     H20 3378   1.679   1.657   1.944 -2.9663  0.5362 -0.3908
  147DG     H21 3379   1.613   1.557   2.074 -0.7688 -0.4732 -2.0690
  147DG     H22 3380   1.897   1.548   1.949 -0.4690 -1.0693 -0.3191
  147DG     H23 3381   1.839   1.417   2.052 -0.1693 -0.1035 -0.7662
  148DG      C1 3382   2.360   2.280   1.961 -0.5369 -0.1837 -0.4052
  148DG      C2 3383   2.918   1.857   2.160 -0.1515 -0.0872 -0.4904
  148DG      H3 3384   2.274   2.229   2.004  1.6952 -1.4857  2.8892
  148DG      H4 3385   2.319   2.359   1.897 -2.5629 -2.4430 -2.1054
  148DG      H5 3386   2.400   2.324   2.052 -0.0927 -2.0462  0.3244
  148DG      H6 3387   2.962   1.886   2.254 -2.9364 -1.2770  1.3299
  148DG      H7 3388   2.963   1.767   2.118  1.3551  0.0846  0.6974
  148DG      H8 3389   2.945   1.939   2.093  1.0172  0.7544  0.9643
  148DG      O9 3390   2.454   2.204   1.893 -0.1430  0.7859  0.4989
  148DG     O10 3391   2.777   1.854   2.152  0.9074  0.0638 -0.4417
  148DG     C11 3392   2.590   2.246   1.891  0.2865 -0.2912 -0.6115
  148DG     C12 3393   2.722   1.802   2.026 -0.1541  0.6444 -0.5275
  148DG     H13 3394   2.636   2.281   1.984  0.4144 -0.3014 -0.6713
  148DG     H14 3395   2.589   2.329   1.821  0.1901  0.1729 -0.0700
  148DG     H15 3396   2.616   1.784   2.038  0.1760 -0.4861  0.9415
  148DG     H16 3397   2.763   1.706   1.993  1.3253  0.4351  1.7237
  148DG     C17 3398   2.670   2.126   1.848 -0.0464  0.8467  0.2753
  148DG     C18 3399   2.737   1.907   1.911  0.2174 -0.6105 -0.6209
  148DG     O19 3400   2.668   2.027   1.951 -0.1525 -0.2726 -1.0636
  148DG     H20 3401   2.776   2.144   1.831 -0.1355 -0.4463 -2.0728
  148DG     H21 3402   2.630   2.086   1.754 -0.7068  2.0793  0.0087
  148DG     H22 3403   2.842   1.920   1.888 -0.1803  1.3114 -1.5446
  148DG     H23 3404   2.696   1.880   1.813  1.6949 -0.3636 -1.3327
  149DG      C1 3405   1.745   3.808   1.640 -0.4732  0.2505 -0.0243
  149DG      C2 3406   1.762   3.375   1.330 -0.3069 -0.2634  1.0616
  149DG      H3 3407   1.726   3.910   1.674  0.4553  0.9989 -1.6394
  149DG      H4 3408   1.761   3.806   1.533 -2.6701  1.6746 -0.4489
  149DG      H5 3409   1.821   3.750   1.693 -0.8588  0.1609  0.4392
  149DG      H6 3410   1.865   3.390   1.364 -0.7098  1.1416  1.7219
  149DG      H7 3411   1.739   3.269   1.323  0.5115 -0.3508 -0.7487
  149DG      H8 3412   1.754   3.419   1.230 -0.8757 -0.9451  0.7981
  149DG      O9 3413   1.629   3.739   1.667 -0.2498 -0.3671  0.4230
  149DG     O10 3414   1.673   3.446   1.413  0.0570 -0.5416  0.6080
  149DG     C11 3415   1.514   3.801   1.616  0.4449  0.4957  0.3895
  149DG     C12 3416   1.535   3.429   1.376 -0.5243  0.1624  0.6467
  149DG     H13 3417   1.531   3.867   1.532 -1.1771  0.3320 -0.1076
  149DG     H14 3418   1.467   3.858   1.696 -3.1319 -0.4214 -0.8810
  149DG     H15 3419   1.518   3.322   1.383  1.1814 -0.1360  0.6152
  149DG     H16 3420   1.518   3.458   1.272 -0.1304 -0.2130  0.4812
  149DG     C17 3421   1.407   3.699   1.581 -0.0023 -0.2630  0.3856
  149DG     C18 3422   1.439   3.496   1.476 -0.3664 -0.7235 -0.3534
  149DG     O19 3423   1.459   3.633   1.468  0.3657 -0.2703  0.0700
  149DG     H20 3424   1.322   3.759   1.547  0.5972  0.2180 -0.3045
  149DG     H21 3425   1.381   3.645   1.672 -0.1054  1.1597  1.2268
  149DG     H22 3426   1.338   3.473   1.442 -1.0120  1.7820 -0.3609
  149DG     H23 3427   1.460   3.451   1.573  1.9091 -2.4757 -1.5544
  150DG      C1 3428   3.162   4.631   4.493 -0.5271  0.0269 -0.2820
  150DG      C2 3429   3.714   4.329   4.683 -0.0890 -0.3048 -0.0456
  150DG      H3 3430   3.192   4.735   4.488 -1.3158  0.3369  1.0892
  150DG      H4 3431   3.174   4.604   4.598  0.7414  0.2696 -0.3473
  150DG      H5 3432   3.057   4.622   4.465 -0.8185 -0.4040  0.8982
  150DG      H6 3433   3.734   4.434   4.706 -1.1835 -0.1022  0.0323
  150DG      H7 3434   3.693   4.271   4.772 -2.7605  0.1081 -0.3297
  150DG      H8 3435   3.805   4.296   4.633  0.7622 -0.0377  1.2786
  150DG      O9 3436   3.244   4.539   4.421 -0.4632 -0.7732  0.4692
  150DG     O10 3437   3.590   4.331   4.614  0.1128 -0.6917  0.0356
  150DG     C11 3438   3.202   4.403   4.431  0.3356  0.0836 -0.2829
  150DG     C12 3439   3.559   4.204   4.564  0.2693  0.2939  0.2400
  150DG     H13 3440   3.099   4.400   4.393  0.1943 -2.5648  0.1836
  150DG     H14 3441   3.199   4.383   4.538  2.2514  0.8036 -0.0539
  150DG     H15 3442   3.579   4.129   4.641 -1.3998 -0.7492 -0.2822
  150DG     H16 3443   3.629   4.193   4.482 -0.5177  0.5147 -0.4798
  150DG     C17 3444   3.282   4.303   4.342 -0.3488 -0.0367 -0.4508
  150DG     C18 3445   3.414   4.205   4.509 -0.1029  0.4464  0.1806
  150DG     O19 3446   3.408   4.298   4.405 -0.5044  0.5682  0.5803
  150DG     H20 3447   3.304   4.327   4.238  0.1097 -2.6043 -1.0112
  150DG     H21 3448   3.235   4.205   4.337 -0.3617 -0.2047  1.8120
  150DG     H22 3449   3.395   4.110   4.458  1.4125  0.1395  0.1392
  150DG     H23 3450   3.333   4.222   4.580  1.0213 -1.0931  1.9499
  151DG      C1 3451   1.567   5.161   4.064 -0.5872 -0.0807 -0.2786
  151DG      C2 3452   1.497   4.507   3.679 -0.5845 -0.3417  0.1743
  151DG      H3 3453   1.463   5.193   4.062 -1.0470 -1.5008 -0.8166
  151DG      H4 3454   1.626   5.248   4.037  0.4864 -0.9194 -0.7275
  151DG      H5 3455   1.596   5.131   4.165 -0.6976 -0.9076 -0.4855
  151DG      H6 3456   1.396   4.466   3.672  0.3486 -2.6734 -0.9072
  151DG      H7 3457   1.567   4.443   3.625 -1.4030  0.2234 -1.6540
  151DG      H8 3458   1.521   4.512   3.785 -0.3848 -1.6766  0.2083
  151DG      O9 3459   1.597   5.071   3.959  0.8741 -0.6513 -0.3636
  151DG     O10 3460   1.503   4.634   3.611 -0.1717  0.0311 -0.0529
  151DG     C11 3461   1.536   5.109   3.840  0.3071  0.5683  1.1268
  151DG     C12 3462   1.645   4.681   3.606 -0.2145  0.6667 -0.1720
  151DG     H13 3463   1.559   5.211   3.811  0.7572 -0.2473 -1.6406
  151DG     H14 3464   1.428   5.096   3.834  0.0795  1.7664  2.3021
  151DG     H15 3465   1.690   4.647   3.513  0.5436  1.3915 -0.0890
  151DG     H16 3466   1.698   4.643   3.694  0.1338 -2.9852 -1.8156
  151DG     C17 3467   1.603   5.036   3.723 -0.3308 -0.2727  0.5885
  151DG     C18 3468   1.653   4.834   3.612 -0.1101 -0.2104  0.3309
  151DG     O19 3469   1.602   4.894   3.730  0.0363 -0.4185 -0.5244
  151DG     H20 3470   1.704   5.077   3.722 -0.7128  0.8307  2.1811
  151DG     H21 3471   1.549   5.060   3.632 -3.1147 -0.5617  2.0618
  151DG     H22 3472   1.758   4.854   3.592 -0.0038 -0.5678  0.5135
  151DG     H23 3473   1.598   4.873   3.526  0.0812 -0.3969  0.1222
  152DG      C1 3474   4.397   2.369   2.642  0.1678 -0.3017 -0.1990
  152DG      C2 3475   3.823   1.817   2.638  0.0520  0.4345  0.0527
  152DG      H3 3476   4.375   2.445   2.567 -0.0180  0.8544  0.9995
  152DG      H4 3477   4.504   2.377   2.662  0.0566 -2.4242  1.6492
  152DG      H5 3478   4.344   2.391   2.734 -0.8223 -0.5654 -0.6950
  152DG      H6 3479   3.809   1.841   2.533 -0.5205 -0.4676 -0.0949
  152DG      H7 3480   3.841   1.710   2.654  1.4725  0.5509 -0.6495
  152DG      H8 3481   3.731   1.833   2.694  0.3911  2.5292  0.0629
  152DG      O9 3482   4.358   2.249   2.570  0.1811 -0.0832 -0.1629
  152DG     O10 3483   3.939   1.867   2.702 -0.1340 -0.1394 -0.1101
  152DG     C11 3484   4.391   2.130   2.634  0.1601  0.2222 -0.3917
  152DG     C12 3485   3.935   2.003   2.723  0.0055 -0.6389  0.2455
  152DG     H13 3486   4.486   2.143   2.686 -1.0506  0.6415  1.8344
  152DG     H14 3487   4.384   2.063   2.549  1.7067  1.2437 -1.3819
  152DG     H15 3488   3.856   2.034   2.791 -3.1148 -1.1455 -2.8753
  152DG     H16 3489   3.917   2.063   2.634  0.1111  0.2830  0.8417
  152DG     C17 3490   4.293   2.092   2.737  0.1914 -0.0036  0.0794
  152DG     C18 3491   4.063   2.030   2.788  0.5003  0.1305  0.3113
  152DG     O19 3492   4.163   2.070   2.692  0.3719 -0.7832 -0.2376
  152DG     H20 3493   4.300   2.175   2.806 -0.6719  2.1063 -2.2155
  152DG     H21 3494   4.311   2.006   2.801 -0.6552 -0.7607 -0.6629
  152DG     H22 3495   4.029   2.118   2.843 -0.4861  0.4069 -0.6824
  152DG     H23 3496   4.084   1.948   2.856  0.1945 -1.3058 -1.2695
  153DG      C1 3497   4.147   4.596   2.522  0.2370 -0.0470  0.6068
  153DG      C2 3498   4.669   4.869   2.825  0.6509 -0.5777 -0.2987
  153DG      H3 3499   4.133   4.704   2.520 -0.0118 -0.0167  2.6532
  153DG      H4 3500   4.076   4.560   2.596 -1.9711  1.0521 -0.8622
  153DG      H5 3501   4.124   4.552   2.424  0.0292  0.3841  0.4600
  153DG      H6 3502   4.628   4.900   2.921  0.8784 -1.4746  0.0992
  153DG      H7 3503   4.778   4.867   2.829  0.6464 -2.6818 -0.2076
  153DG      H8 3504   4.640   4.951   2.760  2.3425  2.5818  2.5932
  153DG      O9 3505   4.278   4.580   2.570 -0.8470  0.0852  0.7365
  153DG     O10 3506   4.610   4.744   2.782  0.0946 -0.2909  0.4746
  153DG     C11 3507   4.300   4.436   2.604 -0.4577 -0.1920  0.5973
  153DG     C12 3508   4.672   4.626   2.841 -0.9840 -0.2783 -0.2050
  153DG     H13 3509   4.271   4.368   2.524 -0.1751 -1.2016  1.3312
  153DG     H14 3510   4.239   4.390   2.681 -0.9368  0.2268  0.4722
  153DG     H15 3511   4.634   4.618   2.943  1.2382 -0.8087  0.6386
  153DG     H16 3512   4.781   4.630   2.845 -0.9852 -0.1875 -0.2559
  153DG     C17 3513   4.452   4.425   2.636  0.2297 -0.1515  0.5838
  153DG     C18 3514   4.628   4.507   2.760 -0.2051 -0.8137  0.3226
  153DG     O19 3515   4.491   4.514   2.732 -0.1309  0.4350 -0.1863
  153DG     H20 3516   4.508   4.446   2.544  0.6949 -1.7891  0.4642
  153DG     H21 3517   4.489   4.329   2.672  0.8891 -0.7656 -1.5507
  153DG     H22 3518   4.677   4.508   2.662  0.5220  0.9930  0.6687
  153DG     H23 3519   4.652   4.411   2.805  1.1227 -0.5252  0.2758
  154DG      C1 3520   4.717   1.630   4.562  0.5011  0.1507 -0.1491
  154DG      C2 3521   4.937   2.181   4.797 -0.2746 -0.8462 -0.9172
  154DG      H3 3522   4.611   1.652   4.564  0.4136 -0.1514 -0.9725
  154DG      H4 3523   4.707   1.531   4.517 -0.6878  1.2108 -2.3929
  154DG      H5 3524   4.777   1.698   4.500  2.4418 -1.7256 -0.4702
  154DG      H6 3525   4.953   2.227   4.894  0.0574  1.7098 -2.0840
  154DG      H7 3526   4.964   2.250   4.717 -2.4688  1.9127  0.5589
  154DG      H8 3527   4.832   2.154   4.789 -0.6190 -0.2670  1.1655
  154DG      O9 3528   4.775   1.606   4.690  0.4106  0.1900  0.2769
  154DG     O10 3529   5.001   2.063   4.813 -0.4958 -0.2056 -0.0208
  154DG     C11 3530   4.908   1.545   4.678 -0.0881  0.4310 -0.4930
  154DG     C12 3531   5.013   2.005   4.680  0.4096  0.0393 -0.5751
  154DG     H13 3532   4.914   1.465   4.605  0.0856  0.3331 -0.3739
  154DG     H14 3533   4.930   1.492   4.772 -0.2022 -0.0991 -0.7587
  154DG     H15 3534   5.094   2.062   4.634  0.8693 -0.4174 -0.3479
  154DG     H16 3535   4.923   2.006   4.618  0.5395  0.6068 -0.7613
  154DG     C17 3536   5.028   1.642   4.661  0.2347 -0.2082 -0.5792
  154DG     C18 3537   5.076   1.866   4.684  0.9799 -0.0525 -0.1948
  154DG     O19 3538   4.973   1.764   4.701 -0.1314  0.3564 -0.3383
  154DG     H20 3539   5.067   1.644   4.560  2.1515  1.3610  0.1262
  154DG     H21 3540   5.105   1.611   4.732  0.7564  1.4172 -0.3941
  154DG     H22 3541   5.125   1.857   4.587  0.1922 -1.7242 -0.4790
  154DG     H23 3542   5.151   1.852   4.762 -0.0905 -0.7789  0.7250
  155DG      C1 3543   3.335   1.255   1.334  0.3689  0.5391  0.5210
  155DG      C2 3544   2.982   1.706   1.692  0.6222 -0.1709 -0.4792
  155DG      H3 3545   3.433   1.236   1.377  1.6905  3.7022 -0.7389
  155DG      H4 3546   3.330   1.241   1.226 -2.7516 -0.0433  0.6319
  155DG      H5 3547   3.274   1.172   1.368  1.5406 -0.7996 -0.5332
  155DG      H6 3548   2.900   1.635   1.675  1.4468 -1.3841  0.3961
  155DG      H7 3549   3.027   1.674   1.786 -0.7109 -0.8145 -0.0290
  155DG      H8 3550   2.939   1.804   1.714  0.8161 -0.2316  0.1983
  155DG      O9 3551   3.278   1.382   1.361 -0.0275 -0.1681  0.4194
  155DG     O10 3552   3.066   1.709   1.580  0.0436  0.3504  0.5294
  155DG     C11 3553   3.343   1.484   1.286  0.4451 -0.5009  0.2736
  155DG     C12 3554   3.178   1.792   1.602 -0.2900 -0.2535 -1.3385
  155DG     H13 3555   3.334   1.459   1.180 -0.9807 -0.6792  0.4178
  155DG     H14 3556   3.447   1.480   1.318  0.6874 -1.4283 -0.5834
  155DG     H15 3557   3.220   1.766   1.699 -0.2353  2.9690 -0.3635
  155DG     H16 3558   3.154   1.895   1.628  2.2511  0.2296 -0.7076
  155DG     C17 3559   3.282   1.620   1.309  0.2210 -0.8036 -0.3398
  155DG     C18 3560   3.267   1.775   1.477 -0.1104 -0.4846  0.1903
  155DG     O19 3561   3.276   1.640   1.448 -0.1030 -0.0345 -0.3319
  155DG     H20 3562   3.181   1.640   1.271  1.3756  0.7677 -2.8133
  155DG     H21 3563   3.350   1.689   1.259 -0.0665 -0.1236  0.1956
  155DG     H22 3564   3.219   1.827   1.393  0.9940 -0.9941 -0.7817
  155DG     H23 3565   3.363   1.822   1.496 -0.7665  0.6135  0.9052
  156DG      C1 3566   2.456   4.230   2.013  0.0348 -0.2544  0.5563
  156DG      C2 3567   2.066   4.005   2.111  0.1643 -0.2903  0.0484
  156DG      H3 3568   2.552   4.180   2.028 -0.2685 -0.4030  2.1609
  156DG      H4 3569   2.373   4.165   2.041  0.1812 -0.4329  0.5796
  156DG      H5 3570   2.462   4.316   2.080  0.9196  1.5374 -1.7077
  156DG      H6 3571   2.050   4.087   2.181 -4.4259  0.4366 -1.5627
  156DG      H7 3572   1.974   3.949   2.124 -0.0544 -0.1436 -0.8141
  156DG      H8 3573   2.138   3.931   2.146  0.5403 -0.5744 -1.2405
  156DG      O9 3574   2.433   4.272   1.877  0.0286 -0.6324 -0.1332
  156DG     O10 3575   2.093   4.050   1.977 -0.2461  0.1556  0.2457
  156DG     C11 3576   2.335   4.371   1.853  0.1639  0.0899 -0.1414
  156DG     C12 3577   1.987   4.121   1.912 -0.0475  0.2156  0.1431
  156DG     H13 3578   2.357   4.428   1.763 -0.1926  2.3025  1.0852
  156DG     H14 3579   2.348   4.450   1.928  2.3605  0.3536 -0.7172
  156DG     H15 3580   1.952   4.213   1.959  1.7821  1.6069 -1.0853
  156DG     H16 3581   1.902   4.057   1.885  0.8693 -0.5824 -0.9327
  156DG     C17 3582   2.191   4.321   1.844 -0.3422  0.0608 -0.3357
  156DG     C18 3583   2.039   4.163   1.771 -0.3962 -0.1048 -0.3911
  156DG     O19 3584   2.174   4.208   1.763 -0.3507  0.3939  0.0406
  156DG     H20 3585   2.123   4.404   1.824 -0.2168  0.3033  0.1996
  156DG     H21 3586   2.180   4.298   1.950  3.3596  0.2899  0.2292
  156DG     H22 3587   2.029   4.081   1.700 -1.4415 -1.1082  0.8498
  156DG     H23 3588   1.973   4.248   1.755 -0.3205  0.2629  1.0879
  157DG      C1 3589   2.737   0.179   5.022  0.7596 -0.1060  0.0565
  157DG      C2 3590   3.133   0.666   5.086 -0.1988 -0.0619 -0.0642
  157DG      H3 3591   2.707   0.283   5.035 -0.1201 -0.5796  2.2783
  157DG      H4 3592   2.773   0.151   5.121 -0.6124  2.4469  1.3858
  157DG      H5 3593   2.659   0.108   4.993  0.1266 -0.0186  1.4745
  157DG      H6 3594   3.042   0.725   5.074  0.3528  0.6302 -0.9899
  157DG      H7 3595   3.147   0.626   5.186 -0.9964 -1.6670 -0.5649
  157DG      H8 3596   3.217   0.735   5.074 -0.1999  0.2794  1.6497
  157DG      O9 3597   2.848   0.186   4.930 -0.1511  0.0815  0.1798
  157DG     O10 3598   3.124   0.562   4.995 -0.0023  0.3234  0.0156
  157DG     C11 3599   2.806   0.245   4.796  0.0525  0.3465 -0.4940
  157DG     C12 3600   3.105   0.606   4.860  0.4253  0.0396 -0.2874
  157DG     H13 3601   2.728   0.320   4.812 -1.4796 -1.1498 -0.6209
  157DG     H14 3602   2.752   0.171   4.737 -0.3143 -0.3109  0.6323
  157DG     H15 3603   3.186   0.671   4.829 -0.6954  1.0140 -1.3324
  157DG     H16 3604   3.014   0.666   4.853  0.4167 -0.0277 -0.8403
  157DG     C17 3605   2.921   0.320   4.728  0.0541  0.4606  0.1433
  157DG     C18 3606   3.089   0.491   4.770  0.0691 -0.1205  0.5693
  157DG     O19 3607   2.966   0.422   4.817  0.4725  0.1756  0.2913
  157DG     H20 3608   2.887   0.362   4.633 -1.9245 -2.8236 -0.7791
  157DG     H21 3609   2.999   0.247   4.706 -1.1868 -0.8613 -0.0616
  157DG     H22 3610   3.073   0.512   4.664  0.2972 -0.3071  0.4965
  157DG     H23 3611   3.176   0.425   4.771  0.5968  0.5271  2.6016
  158DG      C1 3612   2.092   1.045   2.617  0.0840 -0.5282 -0.4981
  158DG      C2 3613   1.713   0.451   2.673 -0.4156 -0.1928  0.3182
  158DG      H3 3614   2.060   1.058   2.720  0.7804 -1.5245 -0.1462
  158DG      H4 3615   2.013   1.087   2.554 -0.9532  1.0111  1.7187
  158DG      H5 3616   2.175   1.112   2.591 -0.0835  0.8422  2.1859
  158DG      H6 3617   1.622   0.487   2.624 -1.1977 -1.5427  0.7254
  158DG      H7 3618   1.695   0.344   2.664  0.3068 -0.3442  0.6300
  158DG      H8 3619   1.709   0.475   2.779  0.5667  0.9309  0.1300
  158DG      O9 3620   2.119   0.911   2.580 -0.0173 -0.1244  0.0013
  158DG     O10 3621   1.837   0.512   2.632  0.1700  0.6120 -0.1147
  158DG     C11 3622   2.139   0.878   2.443 -0.8300 -0.8591 -0.1864
  158DG     C12 3623   1.843   0.515   2.493 -0.0169 -0.6985  0.1253
  158DG     H13 3624   2.231   0.924   2.406 -0.6815 -0.5407  0.5448
  158DG     H14 3625   2.052   0.903   2.382 -1.5307 -0.8714  0.7860
  158DG     H15 3626   1.785   0.599   2.454  1.5098 -0.5692 -2.0357
  158DG     H16 3627   1.817   0.421   2.445 -0.9181 -0.1917 -0.4088
  158DG     C17 3628   2.140   0.728   2.423  0.2242  1.0353 -0.0604
  158DG     C18 3629   1.989   0.542   2.452  0.1045 -0.6087  0.4490
  158DG     O19 3630   2.033   0.673   2.496  0.1283 -0.0421  0.0366
  158DG     H20 3631   2.239   0.704   2.461 -0.3012 -0.2880  0.4926
  158DG     H21 3632   2.151   0.701   2.318  0.1112 -0.5201  0.3173
  158DG     H22 3633   2.059   0.463   2.480 -0.1384 -0.9078  0.2244
  158DG     H23 3634   1.995   0.547   2.343 -0.6357 -0.7724  0.3951
  159DG      C1 3635   0.900   2.939   1.942  0.4195  0.1567  0.2274
  159DG      C2 3636   0.229   3.012   1.466  0.1412  0.1302 -0.7739
  159DG      H3 3637   0.850   2.860   1.999  0.4873 -1.4502 -1.8218
  159DG      H4 3638   0.872   3.039   1.975  0.2289 -0.5196  2.2748
  159DG      H5 3639   1.005   2.920   1.963 -0.2606 -2.4844  1.7726
  159DG      H6 3640   0.203   3.081   1.386 -2.7911 -1.4771 -1.3552
  159DG      H7 3641   0.194   2.914   1.433 -0.8188 -0.4774  1.8293
  159DG      H8 3642   0.167   3.032   1.553  0.9451 -1.1709  0.1232
  159DG      O9 3643   0.884   2.940   1.802  0.0541 -0.2913  0.0110
  159DG     O10 3644   0.366   3.008   1.496 -0.3873  0.1899  0.1101
  159DG     C11 3645   0.751   2.948   1.756 -0.8239 -0.6072  0.2384
  159DG     C12 3646   0.465   3.009   1.394 -0.4961  0.2132 -0.0140
  159DG     H13 3647   0.692   3.021   1.812 -0.6848 -0.0492 -0.3272
  159DG     H14 3648   0.696   2.855   1.770 -1.0248 -0.4802  0.3103
  159DG     H15 3649   0.426   3.071   1.313 -0.6709 -0.4375 -0.4469
  159DG     H16 3650   0.461   2.914   1.340 -0.0371  0.6994 -0.9317
  159DG     C17 3651   0.748   3.003   1.611  0.2544 -0.2411  0.8626
  159DG     C18 3652   0.601   3.053   1.445  0.8122 -0.3059  0.1036
  159DG     O19 3653   0.614   3.004   1.574 -0.1929  0.5638 -0.6368
  159DG     H20 3654   0.808   2.938   1.547  1.2629  0.7649  0.7567
  159DG     H21 3655   0.798   3.100   1.609  2.4727 -1.2842  2.2839
  159DG     H22 3656   0.673   3.016   1.372 -0.2742 -2.0069 -0.1681
  159DG     H23 3657   0.598   3.161   1.449 -0.7231 -0.2759 -0.8575
  160DG      C1 3658   1.994   2.747   2.425  0.4671  0.2823 -0.7388
  160DG      C2 3659   1.554   3.157   2.917  0.2674  0.1362  0.3029
  160DG      H3 3660   1.986   2.788   2.324 -0.2892 -0.4952 -1.0088
  160DG      H4 3661   2.029   2.644   2.423  0.9601  0.3807  1.0943
  160DG      H5 3662   2.078   2.796   2.474  0.2324  1.3387 -1.3611
  160DG      H6 3663   1.469   3.220   2.891 -1.5784 -2.8000 -1.4477
  160DG      H7 3664   1.522   3.110   3.010 -0.7361  2.6811  1.3243
  160DG      H8 3665   1.640   3.215   2.950  0.4140 -0.3551  0.7988
  160DG      O9 3666   1.871   2.764   2.499  0.0371 -0.0809  0.1237
  160DG     O10 3667   1.603   3.068   2.813  0.8663  0.3770 -0.1199
  160DG     C11 3668   1.870   2.709   2.626  0.2769  0.4797 -0.4094
  160DG     C12 3669   1.498   2.996   2.755  0.4092  0.1292  0.1469
  160DG     H13 3670   1.950   2.753   2.685  1.4780 -1.2012 -0.6813
  160DG     H14 3671   1.903   2.605   2.624  0.8146  0.6375  0.0935
  160DG     H15 3672   1.469   3.037   2.658  0.1238  0.1423  0.2383
  160DG     H16 3673   1.413   2.985   2.822  0.5946  0.8554  0.5161
  160DG     C17 3674   1.726   2.721   2.685 -0.3464 -0.2002 -0.0297
  160DG     C18 3675   1.541   2.852   2.738 -0.3025 -0.6150  0.6480
  160DG     O19 3676   1.661   2.841   2.659  0.2204 -0.3604 -0.0397
  160DG     H20 3677   1.741   2.721   2.793  1.6312  0.3878 -0.2548
  160DG     H21 3678   1.673   2.627   2.677  2.5132 -2.2875  2.7063
  160DG     H22 3679   1.553   2.811   2.838  3.1747 -0.0940  0.5881
  160DG     H23 3680   1.460   2.800   2.687  1.2327 -2.1073 -0.4211
  161DG      C1 3681   0.196   4.654   2.034  0.0315 -0.2813  0.0634
  161DG      C2 3682   0.395   5.178   1.536  0.1410 -0.0623 -0.0707
  161DG      H3 3683   0.130   4.568   2.042 -2.9474  1.5913 -2.0183
  161DG      H4 3684   0.204   4.710   2.126 -1.7582  2.0042 -1.0545
  161DG      H5 3685   0.295   4.628   1.995 -0.2747 -0.0532 -0.9115
  161DG      H6 3686   0.479   5.147   1.474 -0.7286  1.7343 -2.2545
  161DG      H7 3687   0.362   5.274   1.499  0.5669 -0.1048 -0.5662
  161DG      H8 3688   0.440   5.200   1.633 -2.4354  2.7333  0.6050
  161DG      O9 3689   0.144   4.751   1.940  0.5849  0.3688  0.2708
  161DG     O10 3690   0.297   5.083   1.556 -0.9393 -0.1872  0.3285
  161DG     C11 3691   0.131   4.695   1.808 -0.3885 -0.3170 -1.0126
  161DG     C12 3692   0.179   5.134   1.612  0.0139 -0.0414  0.1757
  161DG     H13 3693   0.068   4.607   1.798 -0.6150 -0.1103 -1.4266
  161DG     H14 3694   0.232   4.668   1.777 -0.6481 -2.6872  0.0146
  161DG     H15 3695   0.128   5.199   1.541 -1.9632 -1.9387 -0.2568
  161DG     H16 3696   0.200   5.200   1.696  0.6890 -0.3225  0.2296
  161DG     C17 3697   0.073   4.804   1.721 -0.5289  0.6038  0.0633
  161DG     C18 3698   0.081   5.016   1.644  0.0343 -0.6850 -0.3282
  161DG     O19 3699   0.156   4.918   1.710  0.0530  0.1214 -0.0061
  161DG     H20 3700  -0.027   4.816   1.764 -1.0761 -0.6406 -0.8203
  161DG     H21 3701   0.065   4.760   1.622  0.6593  1.9852 -0.6898
  161DG     H22 3702  -0.004   5.060   1.696  0.9108  0.3106  0.3200
  161DG     H23 3703   0.051   4.984   1.545 -1.1655 -2.3747  0.5321
  162DG      C1 3704   5.355   4.976   4.727 -0.6499 -0.0232 -0.0254
  162DG      C2 3705   5.703   5.252   4.202  1.0105  0.1703 -0.4926
  162DG      H3 3706   5.371   5.072   4.776 -0.6737 -0.1780  0.2874
  162DG      H4 3707   5.374   4.895   4.797 -3.1819 -0.5395  0.1306
  162DG      H5 3708   5.249   4.972   4.702 -0.7609 -1.2410  0.5575
  162DG      H6 3709   5.689   5.322   4.285 -0.5369 -0.3774 -0.2554
  162DG      H7 3710   5.808   5.235   4.178  1.4395  1.4455  0.3667
  162DG      H8 3711   5.651   5.291   4.115 -0.2376 -0.7748 -0.1972
  162DG      O9 3712   5.443   4.954   4.612  0.2092 -0.4921 -0.3435
  162DG     O10 3713   5.653   5.131   4.255 -0.1922 -0.3418  0.2324
  162DG     C11 3714   5.430   4.823   4.555 -0.1651  0.1901 -0.4532
  162DG     C12 3715   5.629   5.014   4.166 -0.1488  1.1122  0.3016
  162DG     H13 3716   5.331   4.798   4.518 -0.2525  0.7670 -0.6284
  162DG     H14 3717   5.446   4.749   4.633  1.1972  0.6454 -0.2644
  162DG     H15 3718   5.718   5.003   4.103 -0.5981 -0.6237 -0.0662
  162DG     H16 3719   5.542   5.036   4.104  0.3467 -2.1258 -1.7902
  162DG     C17 3720   5.529   4.792   4.442 -0.0698 -0.9975  0.4900
  162DG     C18 3721   5.614   4.881   4.235 -0.0149 -0.4044  0.2516
  162DG     O19 3722   5.532   4.901   4.354  0.0890 -0.1516  0.0048
  162DG     H20 3723   5.504   4.699   4.391 -1.0203 -0.2129 -0.5070
  162DG     H21 3724   5.626   4.788   4.492 -0.2361 -3.0235  0.7418
  162DG     H22 3725   5.549   4.826   4.167 -0.7740  0.2875  0.4069
  162DG     H23 3726   5.709   4.833   4.259  0.7216  0.3865 -0.9548
  163DG      C1 3727   3.715   0.009   2.513  0.4313  0.1868  0.1421
  163DG      C2 3728   4.357   0.324   2.524 -0.0709 -0.6644 -0.2655
  163DG      H3 3729   3.658   0.076   2.577  2.3442 -0.1208  2.2615
  163DG      H4 3730   3.675  -0.092   2.528 -1.9538  1.2062  1.1855
  163DG      H5 3731   3.707   0.017   2.405 -2.7726 -1.0983  0.1741
  163DG      H6 3732   4.436   0.335   2.449  0.5863  1.1581  0.6182
  163DG      H7 3733   4.309   0.420   2.544  2.3462  0.2834  1.4893
  163DG      H8 3734   4.397   0.307   2.624  2.4323  3.1819 -0.3911
  163DG      O9 3735   3.848   0.017   2.554 -0.4178  0.3546 -0.0961
  163DG     O10 3736   4.264   0.225   2.478 -0.1273  0.0202  0.6854
  163DG     C11 3737   3.909  -0.115   2.554 -0.2177  0.3925 -1.1145
  163DG     C12 3738   4.309   0.098   2.441  0.4913  0.0327 -0.2142
  163DG     H13 3739   3.907  -0.176   2.464  2.8961 -1.1942 -0.2629
  163DG     H14 3740   3.861  -0.180   2.627  1.9657 -1.2190 -1.0117
  163DG     H15 3741   4.417   0.082   2.438  0.1953 -2.0657 -1.0408
  163DG     H16 3742   4.271   0.074   2.342 -0.5226  1.7809 -0.3015
  163DG     C17 3743   4.049  -0.096   2.609  0.2444  0.6137  0.4183
  163DG     C18 3744   4.246  -0.007   2.528  0.1814 -1.1582  0.5965
  163DG     O19 3745   4.110  -0.023   2.506  0.5136  0.0419  0.1733
  163DG     H20 3746   4.095  -0.195   2.614 -1.4740 -0.3418 -1.3158
  163DG     H21 3747   4.066  -0.050   2.706 -0.0390  0.3595  0.5906
  163DG     H22 3748   4.296  -0.104   2.523  0.1819 -1.1055 -1.6372
  163DG     H23 3749   4.261   0.036   2.627  0.9082  1.9369 -0.7043
  164DG      C1 3750   5.136   0.083   0.606  0.2666  0.1145 -0.1239
  164DG      C2 3751   4.583   0.461   0.312  0.2787 -0.1475 -0.7684
  164DG      H3 3752   5.214   0.158   0.621 -0.3080  1.1420 -1.9845
  164DG      H4 3753   5.189  -0.012   0.611 -0.9678 -0.6316 -0.8128
  164DG      H5 3754   5.059   0.100   0.682  1.1203  0.8279  0.6203
  164DG      H6 3755   4.532   0.494   0.221  0.8479  2.8110 -0.1093
  164DG      H7 3756   4.521   0.469   0.401  2.8838  2.9074  0.9448
  164DG      H8 3757   4.660   0.535   0.333 -0.2198 -0.0742  0.9300
  164DG      O9 3758   5.088   0.109   0.475 -0.0947  0.3061  0.2496
  164DG     O10 3759   4.643   0.340   0.297  0.1134 -0.2201  0.0701
  164DG     C11 3760   4.988   0.016   0.435  0.0786  0.4121  0.2841
  164DG     C12 3761   4.734   0.332   0.194  0.1358  0.3690 -0.7519
  164DG     H13 3762   4.899   0.008   0.497 -1.2345 -4.9110 -1.7850
  164DG     H14 3763   5.023  -0.086   0.445 -0.8716  0.1141  0.6822
  164DG     H15 3764   4.813   0.403   0.213 -0.3599  1.1538 -1.5601
  164DG     H16 3765   4.696   0.370   0.099 -1.8251  0.8625  0.1772
  164DG     C17 3766   4.945   0.046   0.290  0.8309  0.0245  0.5244
  164DG     C18 3767   4.790   0.192   0.185 -0.4332 -1.0466 -0.9665
  164DG     O19 3768   4.845   0.148   0.308 -0.4615  0.3968 -0.2576
  164DG     H20 3769   4.905  -0.046   0.247 -0.6429 -0.1641  2.1654
  164DG     H21 3770   5.021   0.083   0.222 -1.5035 -0.1160 -2.3265
  164DG     H22 3771   4.702   0.133   0.162 -0.9025 -0.9715  0.5447
  164DG     H23 3772   4.878   0.205   0.122 -0.0286  1.3488 -0.0293
  165DG      C1 3773   1.095   4.855   0.083 -0.2556 -1.1895  0.0078
  165DG      C2 3774   1.650   5.040   0.547  0.3901  0.9917  0.4458
  165DG      H3 3775   1.026   4.812   0.156 -0.6981  0.0121  0.3279
  165DG      H4 3776   1.045   4.843  -0.013  3.0723  1.5937 -2.3115
  165DG      H5 3777   1.091   4.963   0.094  3.5984 -1.0311  1.3159
  165DG      H6 3778   1.549   5.054   0.585 -1.4484 -2.4127 -2.5980
  165DG      H7 3779   1.701   4.963   0.605 -0.0587  0.9216  0.7566
  165DG      H8 3780   1.689   5.141   0.539 -1.4413  1.6940 -0.1940
  165DG      O9 3781   1.222   4.805   0.094 -0.4237 -0.0588  0.5292
  165DG     O10 3782   1.623   4.994   0.420 -0.3706  0.8117  0.1740
  165DG     C11 3783   1.323   4.877   0.032 -0.7880 -0.5967  0.5313
  165DG     C12 3784   1.629   4.855   0.405 -0.1225 -0.9024  0.2827
  165DG     H13 3785   1.324   4.981   0.064  1.1555 -0.3591 -0.1719
  165DG     H14 3786   1.319   4.864  -0.077 -0.8045  2.1795  0.1317
  165DG     H15 3787   1.549   4.801   0.456  0.2385 -2.3925 -0.6849
  165DG     H16 3788   1.713   4.803   0.451 -0.8169 -0.4532  2.1808
  165DG     C17 3789   1.466   4.833   0.081 -0.2784  0.5244 -0.3210
  165DG     C18 3790   1.625   4.820   0.250 -0.2786  0.8421 -0.2938
  165DG     O19 3791   1.489   4.850   0.219  0.2498 -0.4659  0.2617
  165DG     H20 3792   1.540   4.893   0.028  0.0580  0.6442  0.2689
  165DG     H21 3793   1.492   4.736   0.038 -1.2464  0.7974 -1.5710
  165DG     H22 3794   1.689   4.886   0.191  1.7609  0.1380  1.0412
  165DG     H23 3795   1.653   4.715   0.238  0.8409  0.8844  1.5329
  166DG      C1 3796   1.145   1.552   2.479 -0.3770  0.3694  0.7069
  166DG      C2 3797   0.652   1.517   1.955 -1.2733 -0.3568  0.6938
  166DG      H3 3798   1.123   1.658   2.475  0.6879  0.6522  1.7015
  166DG      H4 3799   1.252   1.540   2.497 -0.4760 -0.9960  0.5054
  166DG      H5 3800   1.099   1.503   2.566  1.5579 -2.5553  0.2476
  166DG      H6 3801   0.671   1.446   1.874  1.5991  0.9818  0.0633
  166DG      H7 3802   0.626   1.456   2.042  0.1906  1.9232  2.8428
  166DG      H8 3803   0.575   1.590   1.929 -0.1600  0.6572  0.1507
  166DG      O9 3804   1.108   1.485   2.360  0.3413  0.2086 -0.4603
  166DG     O10 3805   0.781   1.589   1.958 -0.1960 -0.3358 -0.2433
  166DG     C11 3806   1.175   1.518   2.243 -0.4388 -0.2075  0.3474
  166DG     C12 3807   0.790   1.700   2.044 -0.0155 -0.5506 -0.5387
  166DG     H13 3808   1.156   1.436   2.174  0.2548 -1.1179  1.2136
  166DG     H14 3809   1.283   1.530   2.254 -0.3290  0.8216 -1.4898
  166DG     H15 3810   0.735   1.678   2.136 -2.8861  2.7964 -1.2246
  166DG     H16 3811   0.746   1.793   2.008  2.0297  1.9252  2.7218
  166DG     C17 3812   1.128   1.649   2.183  0.6046  0.2960 -0.0062
  166DG     C18 3813   0.939   1.739   2.078  0.5727  0.2053 -0.1867
  166DG     O19 3814   0.998   1.627   2.139 -0.2709  0.1050 -0.3548
  166DG     H20 3815   1.187   1.672   2.095  1.6275  2.2255  1.1441
  166DG     H21 3816   1.138   1.730   2.254  0.4215 -1.6020  2.3178
  166DG     H22 3817   0.986   1.767   1.983  1.8077 -0.0006  0.3456
  166DG     H23 3818   0.954   1.824   2.144 -0.6140  1.2053 -1.1455
  167DG      C1 3819   0.702   4.144   3.454  0.5385  0.1119  0.5364
  167DG      C2 3820   0.241   4.624   3.618 -0.6417  1.2144  0.3284
  167DG      H3 3821   0.802   4.100   3.453  1.3193  1.8331  0.5119
  167DG      H4 3822   0.665   4.158   3.353  1.6994  2.0288  0.3359
  167DG      H5 3823   0.640   4.058   3.481  2.0645 -2.3976 -3.1428
  167DG      H6 3824   0.197   4.672   3.705  2.0212  1.2861  1.7401
  167DG      H7 3825   0.234   4.684   3.528 -2.3981 -0.8650 -1.0281
  167DG      H8 3826   0.184   4.535   3.588 -1.0528  1.3778  0.6024
  167DG      O9 3827   0.687   4.255   3.539 -0.5132 -0.6252 -0.0478
  167DG     O10 3828   0.373   4.581   3.647 -0.1281  0.4190 -0.5866
  167DG     C11 3829   0.774   4.366   3.503  0.4932  0.4140  0.4464
  167DG     C12 3830   0.472   4.679   3.672  0.0208 -0.4212  0.0136
  167DG     H13 3831   0.770   4.400   3.400  1.6315 -0.8041 -0.0298
  167DG     H14 3832   0.880   4.341   3.514  0.8269  0.6458 -1.7168
  167DG     H15 3833   0.443   4.747   3.752  1.8440  0.9788 -0.4500
  167DG     H16 3834   0.498   4.740   3.586 -0.5999 -0.9563 -0.5568
  167DG     C17 3835   0.766   4.473   3.619  0.3149 -0.0459 -0.2418
  167DG     C18 3836   0.596   4.614   3.718 -0.2495 -0.1276  0.1399
  167DG     O19 3837   0.632   4.519   3.615  0.4020 -0.2039  0.0505
  167DG     H20 3838   0.823   4.559   3.582 -2.3756  1.6566 -0.6977
  167DG     H21 3839   0.793   4.434   3.718  3.0941  0.6926 -0.6226
  167DG     H22 3840   0.665   4.695   3.743 -2.0067  2.1827 -2.0479
  167DG     H23 3841   0.587   4.568   3.817  1.1522 -0.2781  0.2207
  168DG      C1 3842   3.361   4.487   1.394  0.1071  0.4478 -0.1692
  168DG      C2 3843   2.765   4.843   1.407  0.3323 -0.5312 -0.4829
  168DG      H3 3844   3.400   4.586   1.371 -2.7256  1.4789 -0.9205
  168DG      H4 3845   3.361   4.419   1.309 -0.3008  0.1229  0.0862
  168DG      H5 3846   3.425   4.441   1.469  1.0637  0.1574 -1.1432
  168DG      H6 3847   2.807   4.943   1.400  2.3917 -1.2645  0.6819
  168DG      H7 3848   2.746   4.808   1.306 -2.4968 -0.5212 -0.0361
  168DG      H8 3849   2.663   4.843   1.445  0.5513  0.4998  0.1479
  168DG      O9 3850   3.234   4.505   1.465 -0.1409 -0.4369 -0.1460
  168DG     O10 3851   2.826   4.747   1.477 -0.6952 -0.1162  0.6257
  168DG     C11 3852   3.252   4.572   1.591  0.4876 -0.4319 -0.1885
  168DG     C12 3853   2.828   4.766   1.617 -0.2332 -0.4750 -0.6050
  168DG     H13 3854   3.270   4.678   1.577  3.8697 -0.8558  0.1268
  168DG     H14 3855   3.334   4.524   1.646 -0.4753 -2.9162 -0.7594
  168DG     H15 3856   2.725   4.760   1.651 -0.2984 -1.3919 -0.9335
  168DG     H16 3857   2.874   4.861   1.642  1.2010 -1.4745  0.7219
  168DG     C17 3858   3.131   4.564   1.683  0.0082 -0.2989 -0.1720
  168DG     C18 3859   2.907   4.653   1.690  0.1796 -0.2276  0.4828
  168DG     O19 3860   3.032   4.641   1.624  0.4868 -0.1167  0.4907
  168DG     H20 3861   3.157   4.597   1.783  0.7621  0.5650 -0.6314
  168DG     H21 3862   3.114   4.456   1.683 -1.5203 -0.0886  1.3452
  168DG     H22 3863   2.923   4.678   1.795  1.5083 -2.7898  0.9880
  168DG     H23 3864   2.846   4.563   1.680  0.8646 -1.0412  2.9401
  169DG      C1 3865   1.708   1.401   4.289  0.6902 -0.2630  0.1970
  169DG      C2 3866   1.380   1.803   3.657  0.3482 -0.1297  0.0061
  169DG      H3 3867   1.797   1.345   4.317  0.4786 -0.8742 -0.3191
  169DG      H4 3868   1.660   1.335   4.217 -0.5082  0.1304  0.6064
  169DG      H5 3869   1.643   1.420   4.374 -1.2641 -0.1668 -1.2393
  169DG      H6 3870   1.409   1.881   3.587  0.3747 -0.1931 -0.0547
  169DG      H7 3871   1.375   1.711   3.598  0.2901 -0.8287  1.0807
  169DG      H8 3872   1.289   1.828   3.710  0.1663 -2.5508  1.0036
  169DG      O9 3873   1.749   1.530   4.240  0.2621 -0.1900 -0.2219
  169DG     O10 3874   1.490   1.792   3.748 -0.0815 -0.5106 -0.5236
  169DG     C11 3875   1.636   1.604   4.198  0.6643  0.1082  0.2611
  169DG     C12 3876   1.512   1.908   3.825 -0.2683 -0.3081 -0.2597
  169DG     H13 3877   1.572   1.621   4.285  2.3261  0.8769  1.4048
  169DG     H14 3878   1.582   1.540   4.129 -0.8138  0.1516  1.3321
  169DG     H15 3879   1.424   1.949   3.875  0.3447  0.5081  0.1817
  169DG     H16 3880   1.555   1.992   3.771 -0.3102  1.1930  1.8956
  169DG     C17 3881   1.668   1.738   4.129 -0.1105 -0.2782  0.2093
  169DG     C18 3882   1.611   1.874   3.940  0.5773  0.2482  0.0869
  169DG     O19 3883   1.587   1.751   4.009  0.2451  0.5501 -0.4804
  169DG     H20 3884   1.773   1.738   4.100 -0.2247 -1.9833 -0.2938
  169DG     H21 3885   1.668   1.817   4.205  3.1102 -1.1412  1.2639
  169DG     H22 3886   1.712   1.869   3.900 -0.0710  1.2494 -1.7885
  169DG     H23 3887   1.613   1.956   4.012  0.5892 -0.8823  1.4004
  170DG      C1 3888   0.862   1.301   5.201  0.5714 -0.4979  0.2297
  170DG      C2 3889   0.166   1.116   4.862  0.3285 -0.0949  0.0962
  170DG      H3 3890   0.944   1.256   5.256  0.5138 -1.3673 -0.3678
  170DG      H4 3891   0.838   1.393   5.255  3.4101  1.2906 -1.3350
  170DG      H5 3892   0.891   1.329   5.100 -2.5169  2.9090  0.0632
  170DG      H6 3893   0.140   1.133   4.758  0.8808  0.0462 -0.0233
  170DG      H7 3894   0.103   1.045   4.916  0.5425  0.1041  0.6189
  170DG      H8 3895   0.160   1.212   4.912 -0.7198  0.5235 -1.1708
  170DG      O9 3896   0.756   1.208   5.200 -0.3386 -0.0183 -0.1949
  170DG     O10 3897   0.301   1.081   4.878  0.4960  0.0464  0.6269
  170DG     C11 3898   0.760   1.089   5.128  0.2153  0.1592  0.1250
  170DG     C12 3899   0.353   1.115   5.007  0.1829  0.2001 -0.4101
  170DG     H13 3900   0.857   1.049   5.158  0.2398 -1.9366 -2.4227
  170DG     H14 3901   0.765   1.102   5.020 -0.0198 -0.2898  0.0616
  170DG     H15 3902   0.281   1.087   5.084 -0.6085  2.8018 -0.1023
  170DG     H16 3903   0.357   1.224   5.009 -0.1640  0.2017  1.0255
  170DG     C17 3904   0.651   0.997   5.181  0.5426  0.0215 -0.3270
  170DG     C18 3905   0.490   1.047   5.021 -0.1775 -0.7731 -0.0692
  170DG     O19 3906   0.524   1.048   5.155  0.1124 -0.2029  0.6035
  170DG     H20 3907   0.672   0.984   5.287 -0.2343  1.5725  0.0555
  170DG     H21 3908   0.671   0.909   5.120  1.7462  0.0235  0.0428
  170DG     H22 3909   0.478   0.941   4.997  0.1981 -0.8801  0.2054
  170DG     H23 3910   0.565   1.088   4.954 -2.6376  4.4698 -0.1016
  171DG      C1 3911   5.236   3.811   0.598 -0.7393  0.4246  0.4808
  171DG      C2 3912   4.969   4.398   0.154 -0.0069 -0.3123  0.3218
  171DG      H3 3913   5.283   3.854   0.687  1.5877 -1.1365  0.1140
  171DG      H4 3914   5.290   3.721   0.569 -1.8621  0.6184 -2.6573
  171DG      H5 3915   5.142   3.770   0.635 -0.7142 -0.9708 -0.9243
  171DG      H6 3916   4.869   4.355   0.150 -0.4166  0.5899  0.6118
  171DG      H7 3917   4.961   4.498   0.196 -0.6897  0.1718 -0.9034
  171DG      H8 3918   5.011   4.409   0.053  0.1892 -2.5684  0.0918
  171DG      O9 3919   5.229   3.903   0.491 -0.0705  0.3841 -0.0900
  171DG     O10 3920   5.064   4.305   0.218 -0.3018  0.5514  0.3308
  171DG     C11 3921   5.353   3.968   0.457 -0.3706 -0.1525  0.3624
  171DG     C12 3922   5.023   4.263   0.345 -0.0975  0.0321  0.1834
  171DG     H13 3923   5.422   3.888   0.429 -1.5630 -1.3229  0.7265
  171DG     H14 3924   5.396   4.022   0.542 -0.1344 -0.1395  0.2377
  171DG     H15 3925   4.920   4.226   0.348  0.2425 -1.1455 -1.1860
  171DG     H16 3926   5.027   4.347   0.414  0.5456 -1.2882  1.8091
  171DG     C17 3927   5.328   4.070   0.343 -0.3354  0.5969  0.7580
  171DG     C18 3928   5.110   4.147   0.394  0.6716  0.2624 -0.0236
  171DG     O19 3929   5.242   4.182   0.372 -0.2234 -0.2188  0.2229
  171DG     H20 3930   5.306   4.025   0.246  0.2727 -0.4793  1.1037
  171DG     H21 3931   5.425   4.115   0.325 -0.1698 -0.5398 -1.6525
  171DG     H22 3932   5.102   4.129   0.501  2.9110  1.0618  0.3323
  171DG     H23 3933   5.075   4.055   0.346 -0.7436 -0.7737  2.7540
  172DG      C1 3934   4.325   1.791   4.286 -0.4965  0.1982 -0.5210
  172DG      C2 3935   4.340   1.239   4.006  0.1865 -0.1417  0.5926
  172DG      H3 3936   4.403   1.801   4.210 -1.4327 -1.0003 -1.7040
  172DG      H4 3937   4.367   1.753   4.379 -0.9885 -2.7599 -1.3934
  172DG      H5 3938   4.287   1.888   4.316  0.9627  0.9827 -1.0756
  172DG      H6 3939   4.371   1.191   4.099  0.0230 -0.0592  0.6898
  172DG      H7 3940   4.291   1.154   3.958 -0.1169 -0.5790  1.6231
  172DG      H8 3941   4.425   1.273   3.948 -0.5798  1.2033  0.2169
  172DG      O9 3942   4.221   1.708   4.231  0.1924  0.1698  0.1055
  172DG     O10 3943   4.256   1.351   4.009 -0.2289 -0.7531  0.3849
  172DG     C11 3944   4.154   1.764   4.114  0.0245  0.6676 -0.0833
  172DG     C12 3945   4.207   1.392   3.875  0.3168  0.2681 -0.0620
  172DG     H13 3946   4.234   1.782   4.042  1.6383  0.7934  1.6493
  172DG     H14 3947   4.103   1.858   4.130  0.8048  1.1253 -0.2312
  172DG     H15 3948   4.134   1.323   3.833 -0.1898  0.1960  0.9173
  172DG     H16 3949   4.290   1.397   3.804  2.8472 -2.3028  2.4489
  172DG     C17 3950   4.047   1.670   4.060 -0.1753  0.1265 -0.0244
  172DG     C18 3951   4.156   1.532   3.891  0.9137  0.5358  0.5298
  172DG     O19 3952   4.101   1.548   4.020  0.9420  1.0043  0.0635
  172DG     H20 3953   3.994   1.711   3.974  1.1470 -0.2209 -1.0353
  172DG     H21 3954   3.981   1.643   4.143 -0.3783 -1.8897 -0.7992
  172DG     H22 3955   4.244   1.594   3.874 -0.4627  2.2208 -0.9125
  172DG     H23 3956   4.095   1.564   3.806  2.1202  1.4571 -0.0227
  173DG      C1 3957   0.074   2.962   3.320  0.0883 -0.3976  0.5288
  173DG      C2 3958  -0.180   3.522   3.689 -0.1016 -0.0418  0.0129
  173DG      H3 3959   0.176   3.001   3.316 -0.2778  0.4769 -1.5957
  173DG      H4 3960   0.075   2.897   3.232  0.4239 -2.1231  1.7386
  173DG      H5 3961   0.062   2.890   3.401 -4.0830 -2.3067 -1.4869
  173DG      H6 3962  -0.089   3.493   3.741  0.7859  0.1334 -1.4050
  173DG      H7 3963  -0.175   3.629   3.670  0.3386 -0.1508 -0.4841
  173DG      H8 3964  -0.257   3.504   3.765  0.0319 -3.2010 -0.4867
  173DG      O9 3965  -0.027   3.058   3.314  0.5275 -0.6201  0.1845
  173DG     O10 3966  -0.204   3.443   3.577 -0.2929 -0.5118 -0.1278
  173DG     C11 3967  -0.036   3.120   3.187  0.2478 -0.3050 -0.6824
  173DG     C12 3968  -0.147   3.509   3.460  0.4849 -0.3407 -0.5139
  173DG     H13 3969  -0.069   3.054   3.106 -3.2375  0.0478  0.2924
  173DG     H14 3970   0.062   3.162   3.164  0.6794  0.4640  2.2002
  173DG     H15 3971  -0.042   3.535   3.476  0.3310 -0.6106  1.1051
  173DG     H16 3972  -0.200   3.604   3.448 -0.4579 -0.7470  0.2806
  173DG     C17 3973  -0.125   3.238   3.208  0.2042  0.1428 -0.8475
  173DG     C18 3974  -0.184   3.432   3.336 -0.0091  0.1595  0.2526
  173DG     O19 3975  -0.088   3.333   3.311 -0.0919  0.8291  0.1364
  173DG     H20 3976  -0.223   3.197   3.231  0.0673  0.3660 -1.0282
  173DG     H21 3977  -0.144   3.291   3.114  1.2956  0.1904 -1.0502
  173DG     H22 3978  -0.280   3.383   3.350 -0.8156  1.0772 -1.6204
  173DG     H23 3979  -0.186   3.496   3.248  0.8700 -2.0192 -1.4562
  174DG      C1 3980   0.318   5.394   1.938  0.2049 -0.4934 -0.6852
  174DG      C2 3981   0.605   4.780   2.418 -0.4768 -0.8245  0.3897
  174DG      H3 3982   0.355   5.335   1.853  4.0811  2.1744 -1.1397
  174DG      H4 3983   0.376   5.487   1.941  2.0447 -1.5724 -0.8835
  174DG      H5 3984   0.213   5.420   1.934  0.0263 -1.1101 -0.0837
  174DG      H6 3985   0.703   4.829   2.417 -1.6799  1.7702  0.2850
  174DG      H7 3986   0.561   4.771   2.517  1.5346  0.2020  1.4444
  174DG      H8 3987   0.605   4.685   2.364 -0.4195 -1.0781  0.8339
  174DG      O9 3988   0.329   5.310   2.053  0.0639  0.0838 -0.2540
  174DG     O10 3989   0.508   4.864   2.359  0.0224 -0.3154  0.0819
  174DG     C11 3990   0.300   5.374   2.171  0.6471 -0.2551  0.0769
  174DG     C12 3991   0.518   5.002   2.392 -0.5793  0.2204 -0.3207
  174DG     H13 3992   0.209   5.434   2.172  0.5150 -0.4563  0.6051
  174DG     H14 3993   0.379   5.432   2.220 -0.5926 -0.0913  1.9936
  174DG     H15 3994   0.598   5.060   2.345  0.8993 -1.3141  0.2185
  174DG     H16 3995   0.525   5.012   2.501  0.3214 -2.9047 -0.0014
  174DG     C17 3996   0.275   5.261   2.275  0.0796  0.1546  0.6793
  174DG     C18 3997   0.384   5.057   2.342 -0.2251  0.1315 -0.1298
  174DG     O19 3998   0.394   5.200   2.322 -0.3093  0.0277  0.4490
  174DG     H20 3999   0.208   5.195   2.220 -0.2115  1.1859 -0.2514
  174DG     H21 4000   0.215   5.301   2.358  0.3350  0.7257  0.5894
  174DG     H22 4001   0.367   5.024   2.240  0.5913 -1.8642  0.3238
  174DG     H23 4002   0.300   5.028   2.405 -1.7781  0.7386 -1.8604
  175DG      C1 4003   2.178   3.156   1.878 -0.3705 -0.1600  0.3316
  175DG      C2 4004   1.864   3.505   2.396 -0.2005 -0.1626 -0.4681
  175DG      H3 4005   2.234   3.067   1.850  0.3870 -0.5237  2.7580
  175DG      H4 4006   2.253   3.234   1.870 -2.4200  2.1501  2.1675
  175DG      H5 4007   2.093   3.176   1.812 -0.2232  2.7733  0.9165
  175DG      H6 4008   1.879   3.490   2.503  1.8544  1.4443 -0.4840
  175DG      H7 4009   1.935   3.583   2.370 -0.9457  0.5546 -0.3750
  175DG      H8 4010   1.756   3.520   2.392 -0.4569 -0.1610  3.2231
  175DG      O9 4011   2.130   3.135   2.007 -0.6091  0.1770  0.2025
  175DG     O10 4012   1.908   3.379   2.344  0.7530 -0.3475 -0.2404
  175DG     C11 4013   2.054   3.016   2.022 -0.4397  0.3878 -0.0076
  175DG     C12 4014   1.823   3.265   2.364 -0.1707  0.8209 -0.1262
  175DG     H13 4015   2.116   2.927   2.020  0.1037  0.7748 -1.2998
  175DG     H14 4016   1.975   3.013   1.946  0.7148 -1.6213 -1.2238
  175DG     H15 4017   1.732   3.271   2.304 -0.5724  1.2469  0.5102
  175DG     H16 4018   1.785   3.266   2.466 -1.6724  0.9670 -0.6563
  175DG     C17 4019   1.988   3.014   2.161  0.2249  0.0632  0.2273
  175DG     C18 4020   1.896   3.134   2.342 -0.5522 -0.0631 -0.3983
  175DG     O19 4021   1.932   3.139   2.203 -0.4703  0.1911 -0.5327
  175DG     H20 4022   2.067   2.990   2.233 -0.6443 -1.2486  0.7818
  175DG     H21 4023   1.921   2.928   2.164  1.2459 -0.7509  0.5247
  175DG     H22 4024   1.968   3.116   2.422 -0.7909 -0.9549 -0.3788
  175DG     H23 4025   1.828   3.052   2.363 -0.7727 -0.4431 -2.4358
  176DG      C1 4026   4.481   0.730   0.984  0.7315 -0.0530 -0.4511
  176DG      C2 4027   4.744   0.012   1.164  0.2169  0.2464  0.0552
  176DG      H3 4028   4.529   0.827   0.995  0.9527 -0.3035  0.8991
  176DG      H4 4029   4.429   0.708   1.076  0.1105  1.4489 -0.4161
  176DG      H5 4030   4.416   0.718   0.897  0.6150  0.7001 -0.4746
  176DG      H6 4031   4.763  -0.017   1.267 -1.9912 -2.4627 -0.1587
  176DG      H7 4032   4.637   0.008   1.141  0.3413 -0.5480 -0.4347
  176DG      H8 4033   4.768  -0.065   1.090 -2.8584 -1.5520  0.7483
  176DG      O9 4034   4.589   0.640   0.965 -0.0414  0.5922  0.0558
  176DG     O10 4035   4.784   0.145   1.142 -0.0511 -1.0119  0.5194
  176DG     C11 4036   4.697   0.637   1.062 -0.4932 -0.2208  0.2958
  176DG     C12 4037   4.785   0.176   1.002 -0.0267 -0.2692 -0.0025
  176DG     H13 4038   4.661   0.615   1.162  2.9900  2.1085  2.2627
  176DG     H14 4039   4.735   0.738   1.081 -2.5534  0.5569  0.5531
  176DG     H15 4040   4.689   0.170   0.951 -0.6231  0.8720  0.9326
  176DG     H16 4041   4.835   0.094   0.950  1.0442 -0.5424  1.3872
  176DG     C17 4042   4.813   0.543   1.027 -0.8726  0.7269  0.2352
  176DG     C18 4043   4.857   0.308   0.973 -0.1522  0.3692 -0.1968
  176DG     O19 4044   4.770   0.412   1.013 -0.2569  0.3154  0.3470
  176DG     H20 4045   4.893   0.553   1.101  1.4171 -3.9610 -1.2379
  176DG     H21 4046   4.862   0.565   0.932  0.0182 -1.6665  0.0716
  176DG     H22 4047   4.951   0.307   1.028  0.6462  0.2318 -1.5126
  176DG     H23 4048   4.884   0.324   0.868  0.3407 -0.9928 -0.3028
  177DG      C1 4049   0.422   5.172   3.090  0.0954  0.6671 -0.0003
  177DG      C2 4050   0.091   4.644   2.896  0.8947  0.2360  0.5148
  177DG      H3 4051   0.319   5.201   3.071  0.6317  1.5636 -1.7336
  177DG      H4 4052   0.489   5.248   3.051  0.2539  0.2940 -0.4527
  177DG      H5 4053   0.442   5.159   3.197  0.1041  1.7636  0.1499
  177DG      H6 4054   0.042   4.688   2.983  0.8496  0.6723  0.2687
  177DG      H7 4055   0.038   4.681   2.808  0.7661  1.1645  0.9708
  177DG      H8 4056   0.098   4.535   2.899 -0.7093 -0.0057 -1.8181
  177DG      O9 4057   0.439   5.057   3.000  0.1320  0.3625 -0.2429
  177DG     O10 4058   0.224   4.709   2.895 -0.0408 -0.0215 -0.3924
  177DG     C11 4059   0.565   4.988   3.024 -0.4230  0.1444 -0.2971
  177DG     C12 4060   0.321   4.648   2.815 -0.4429 -0.1908 -0.0094
  177DG     H13 4061   0.568   4.925   3.113  0.0605 -0.0082 -0.4198
  177DG     H14 4062   0.652   5.052   3.025 -0.6961  0.5414 -1.1893
  177DG     H15 4063   0.280   4.625   2.716 -1.1433 -1.3200  0.5278
  177DG     H16 4064   0.348   4.554   2.863 -1.4504  0.1652  1.3103
  177DG     C17 4065   0.572   4.890   2.907 -0.1822  0.0629 -0.2329
  177DG     C18 4066   0.435   4.746   2.790  0.4204  0.1677 -0.4641
  177DG     O19 4067   0.455   4.817   2.910 -0.7678 -0.3058 -0.1394
  177DG     H20 4068   0.653   4.818   2.914  0.7926  1.2222  0.7043
  177DG     H21 4069   0.596   4.957   2.824  2.5698  0.3898  0.7349
  177DG     H22 4070   0.522   4.690   2.757 -0.2922 -0.9701 -0.4614
  177DG     H23 4071   0.422   4.811   2.704  0.4727  0.9216  0.0913
  178DG      C1 4072   1.759   3.321   4.931 -0.3825 -0.2355  0.2862
  178DG      C2 4073   1.894   4.212   4.817  0.3031 -0.5599 -0.1532
  178DG      H3 4074   1.856   3.296   4.887 -0.5916 -1.6556  0.5766
  178DG      H4 4075   1.683   3.299   4.856 -1.3257  0.1503  1.1167
  178DG      H5 4076   1.741   3.255   5.016  2.0984  0.6931  1.6252
  178DG      H6 4077   1.965   4.188   4.738  0.2564 -1.8357  0.1712
  178DG      H7 4078   1.837   4.301   4.790  0.0671 -0.6153  0.1599
  178DG      H8 4079   1.957   4.241   4.901 -2.4671 -2.5012  2.8447
  178DG      O9 4080   1.772   3.464   4.960 -0.6248  0.4236  0.4339
  178DG     O10 4081   1.805   4.114   4.873  0.1230  0.2276  0.4126
  178DG     C11 4082   1.650   3.530   4.990  0.0954 -0.9377 -0.3568
  178DG     C12 4083   1.844   3.978   4.867 -0.1647 -0.7015 -0.3582
  178DG     H13 4084   1.585   3.483   5.064 -0.3925 -0.3506 -0.3987
  178DG     H14 4085   1.588   3.528   4.901 -0.5528 -1.3252  0.1001
  178DG     H15 4086   1.927   3.968   4.937 -0.1360 -1.6493 -0.5178
  178DG     H16 4087   1.890   3.946   4.774  0.5995  1.1213 -0.6563
  178DG     C17 4088   1.673   3.686   5.010 -0.0094 -0.0185  0.1647
  178DG     C18 4089   1.727   3.889   4.905  0.1563  0.4989  0.9903
  178DG     O19 4090   1.739   3.745   4.891  0.6038  0.3403 -0.2723
  178DG     H20 4091   1.728   3.698   5.103  0.0930  1.4012 -0.0598
  178DG     H21 4092   1.571   3.719   5.027  0.2708  0.3618  1.1257
  178DG     H22 4093   1.707   3.917   5.008 -1.3235 -1.0747  1.1802
  178DG     H23 4094   1.640   3.918   4.846 -1.5921 -0.4060  2.9938
  179DG      C1 4095   0.489   4.144   0.628 -0.7709  0.4844  0.4181
  179DG      C2 4096   0.668   3.819  -0.098 -0.0918 -0.9796  0.0465
  179DG      H3 4097   0.429   4.202   0.558 -1.7647 -0.4490  0.4704
  179DG      H4 4098   0.582   4.200   0.639  1.5797 -2.8521 -0.7234
  179DG      H5 4099   0.441   4.148   0.726 -1.3348  2.6117  0.0945
  179DG      H6 4100   0.752   3.875  -0.138 -2.5365  1.9142 -1.3804
  179DG      H7 4101   0.670   3.710  -0.106  0.6312 -0.8677 -1.6053
  179DG      H8 4102   0.578   3.865  -0.140  0.3131 -0.2071  0.0151
  179DG      O9 4103   0.508   4.010   0.580  0.2025  0.2992 -0.3784
  179DG     O10 4104   0.657   3.864   0.031 -0.0787  0.5185  0.0608
  179DG     C11 4105   0.567   4.000   0.452 -0.4355 -0.9322  0.8889
  179DG     C12 4106   0.770   3.821   0.112 -0.5445  0.1105  0.3361
  179DG     H13 4107   0.668   4.041   0.445 -1.4075  1.3826 -0.2418
  179DG     H14 4108   0.508   4.057   0.380  0.6117 -2.6854 -1.4970
  179DG     H15 4109   0.861   3.868   0.075 -0.5631  0.5267  0.8073
  179DG     H16 4110   0.785   3.713   0.111  2.4583  0.3537 -3.0443
  179DG     C17 4111   0.571   3.851   0.417  0.3756 -0.5466 -0.0065
  179DG     C18 4112   0.751   3.859   0.252  0.4443  0.2246  0.9054
  179DG     O19 4113   0.611   3.845   0.281  0.3888 -0.2001  0.3606
  179DG     H20 4114   0.472   3.806   0.428 -1.0173  1.3042 -3.5108
  179DG     H21 4115   0.628   3.788   0.485 -0.9169 -1.0580  0.6614
  179DG     H22 4116   0.813   3.800   0.319  1.5664  0.1131 -0.1970
  179DG     H23 4117   0.772   3.965   0.269 -1.8846  0.7967  0.5721
  180DG      C1 4118   0.106   4.122   4.076  0.7053  0.7524 -0.2348
  180DG      C2 4119   0.263   4.147   3.353 -0.3254 -0.0146 -0.2871
  180DG      H3 4120   0.026   4.163   4.015 -0.6819 -0.1135  0.9476
  180DG      H4 4121   0.097   4.161   4.177 -2.0659  1.3555 -0.6398
  180DG      H5 4122   0.077   4.017   4.080  0.1935  0.9432  1.7441
  180DG      H6 4123   0.242   4.233   3.289 -2.9129 -0.1934  0.2056
  180DG      H7 4124   0.355   4.105   3.313  1.5106  1.8822  1.6013
  180DG      H8 4125   0.182   4.076   3.342 -1.8700  1.3755  1.3491
  180DG      O9 4126   0.236   4.149   4.018 -0.2218 -0.0040  0.3339
  180DG     O10 4127   0.285   4.196   3.479  0.1727  0.0188 -0.4614
  180DG     C11 4128   0.245   4.282   3.971 -0.0014  0.2286 -0.4380
  180DG     C12 4129   0.260   4.085   3.572 -0.5434 -0.6933  0.3285
  180DG     H13 4130   0.272   4.336   4.061 -1.6233  0.6797 -0.1931
  180DG     H14 4131   0.149   4.322   3.937 -0.0567  1.2370  0.8291
  180DG     H15 4132   0.310   3.993   3.543  0.0927 -0.2211 -0.1169
  180DG     H16 4133   0.156   4.059   3.590 -0.4610 -0.4957  1.1796
  180DG     C17 4134   0.345   4.303   3.862  0.0847 -0.3487 -0.7170
  180DG     C18 4135   0.324   4.115   3.712  0.7680 -0.6376  0.3701
  180DG     O19 4136   0.304   4.259   3.734 -0.1648 -0.0587 -0.0147
  180DG     H20 4137   0.438   4.252   3.884 -0.5092 -1.5879 -0.9913
  180DG     H21 4138   0.356   4.411   3.859 -0.2463 -0.2837  0.1787
  180DG     H22 4139   0.280   4.055   3.792  0.7418  1.0792  1.7011
  180DG     H23 4140   0.432   4.106   3.713  0.8282 -0.0262  1.6389
  181DG      C1 4141   2.699   1.087   1.921  0.4727 -0.0377 -0.5473
  181DG      C2 4142   2.720   1.001   2.670 -0.0169 -0.9005  0.2478
  181DG      H3 4143   2.733   1.039   1.829  1.1625  0.7345 -0.7041
  181DG      H4 4144   2.768   1.167   1.948  1.4237 -0.9177 -0.2955
  181DG      H5 4145   2.601   1.126   1.897  1.4374  1.4390 -2.3755
  181DG      H6 4146   2.790   1.083   2.685 -1.1725 -0.1839  2.0755
  181DG      H7 4147   2.617   1.038   2.679  0.4197  0.5022 -0.2067
  181DG      H8 4148   2.727   0.927   2.749  1.0694 -2.1913 -0.9983
  181DG      O9 4149   2.687   0.992   2.017  0.3908  0.3134  0.0641
  181DG     O10 4150   2.724   0.934   2.544  0.3452  0.6968 -0.3063
  181DG     C11 4151   2.807   0.915   2.033  0.2160  0.0601  0.2055
  181DG     C12 4152   2.833   0.848   2.525 -0.3428 -0.1727 -0.4275
  181DG     H13 4153   2.898   0.973   2.046  0.2217  0.0182  0.3576
  181DG     H14 4154   2.820   0.843   1.952  1.3278  1.1301 -0.5908
  181DG     H15 4155   2.827   0.766   2.596  1.1909 -1.0906 -1.2975
  181DG     H16 4156   2.927   0.903   2.524 -0.5396  0.1821  0.2483
  181DG     C17 4157   2.797   0.822   2.149 -0.1084  0.2459 -0.1753
  181DG     C18 4158   2.800   0.787   2.380  0.0333 -0.6362 -0.4143
  181DG     O19 4159   2.821   0.882   2.273  0.1357 -0.1256  0.1434
  181DG     H20 4160   2.865   0.738   2.137 -1.2559 -0.4583 -2.3637
  181DG     H21 4161   2.698   0.775   2.147 -0.2913  0.6341 -1.9725
  181DG     H22 4162   2.839   0.688   2.359 -1.1393 -1.9241  2.8040
  181DG     H23 4163   2.696   0.755   2.385 -0.3960  0.5959 -0.9174
  182DG      C1 4164   3.732   0.665   0.403  0.2063  0.1331  0.3614
  182DG      C2 4165   3.891   0.876   0.975  0.6953 -0.3397 -0.2218
  182DG      H3 4166   3.743   0.586   0.329 -1.2433 -1.3745  1.6616
  182DG      H4 4167   3.764   0.760   0.362  1.9063 -0.2885  0.6356
  182DG      H5 4168   3.627   0.675   0.429 -0.0216 -0.4525 -0.2933
  182DG      H6 4169   3.861   0.922   0.880  0.4863 -1.3944 -0.6819
  182DG      H7 4170   3.799   0.862   1.032  0.2953  1.0908 -0.4685
  182DG      H8 4171   3.935   0.952   1.040 -1.7135 -0.2939  1.4838
  182DG      O9 4172   3.811   0.637   0.522 -0.6625  0.6696  0.3326
  182DG     O10 4173   3.955   0.756   0.964 -0.2630  0.3741 -0.1026
  182DG     C11 4174   3.949   0.635   0.488  0.1888  0.8312 -0.3123
  182DG     C12 4175   4.096   0.753   0.933  0.2241 -0.0260  0.4903
  182DG     H13 4176   3.980   0.733   0.451  1.8182 -0.0628 -1.4527
  182DG     H14 4177   3.970   0.565   0.407 -0.5247 -0.3503  0.4920
  182DG     H15 4178   4.142   0.718   1.025  1.2636  3.0257  1.2502
  182DG     H16 4179   4.131   0.853   0.907 -2.4695  0.7916 -0.3512
  182DG     C17 4180   4.043   0.587   0.603  0.2566  0.1810  0.2362
  182DG     C18 4181   4.121   0.660   0.814  0.8218  0.2140  0.1924
  182DG     O19 4182   4.026   0.680   0.712  0.7281  0.1415  0.0165
  182DG     H20 4183   4.145   0.583   0.566 -0.5068  0.5284 -2.0891
  182DG     H21 4184   3.999   0.492   0.632 -1.5178  0.9164  0.1023
  182DG     H22 4185   4.224   0.675   0.783  1.2506  0.2141  1.5372
  182DG     H23 4186   4.107   0.557   0.847  1.3757  0.6778  2.0336
  183DG      C1 4187   2.834   3.205   1.594 -0.4086  0.0519  0.0172
  183DG      C2 4188   2.840   2.584   1.703  0.2687  0.3176 -0.6945
  183DG      H3 4189   2.765   3.210   1.679 -0.5030 -1.5831  0.0686
  183DG      H4 4190   2.771   3.173   1.511 -1.6215  1.9715  0.1324
  183DG      H5 4191   2.864   3.306   1.567 -0.3177  0.8269  2.6749
  183DG      H6 4192   2.870   2.538   1.797  0.2880  0.5632 -0.5800
  183DG      H7 4193   2.733   2.604   1.697  0.2536  0.7460  0.6892
  183DG      H8 4194   2.841   2.503   1.630 -3.1867 -1.3785  0.8816
  183DG      O9 4195   2.942   3.113   1.602  0.0149  0.4213 -0.1964
  183DG     O10 4196   2.909   2.702   1.667  0.3466 -0.2868 -0.8202
  183DG     C11 4197   3.050   3.161   1.677 -0.2751  0.2310  0.4128
  183DG     C12 4198   3.048   2.688   1.655  0.0553  0.0609  0.1881
  183DG     H13 4199   3.010   3.168   1.779 -1.0045 -2.3650  0.3714
  183DG     H14 4200   3.101   3.249   1.638 -1.9519  2.0035  1.9668
  183DG     H15 4201   3.077   2.613   1.581 -0.6456 -0.7289  0.6983
  183DG     H16 4202   3.101   2.642   1.739  0.3327  1.3612  0.7587
  183DG     C17 4203   3.148   3.049   1.691  0.6459  0.4840 -0.1124
  183DG     C18 4204   3.111   2.827   1.618 -0.1289  0.5491 -0.3787
  183DG     O19 4205   3.095   2.919   1.724  0.1953 -0.6343  0.7092
  183DG     H20 4206   3.212   3.071   1.777 -0.7712  0.3934  1.0100
  183DG     H21 4207   3.205   3.050   1.598  0.9337 -1.9019 -0.0200
  183DG     H22 4208   3.218   2.818   1.599 -0.3063 -0.8078 -0.8049
  183DG     H23 4209   3.054   2.859   1.530 -0.8868  0.9862  0.2519
  184DG      C1 4210   4.126   4.441   2.952 -0.4314  0.0621 -0.4991
  184DG      C2 4211   4.378   4.960   2.547 -0.1375  0.2570  0.1215
  184DG      H3 4212   4.098   4.442   3.057  1.4334 -0.2743  0.0533
  184DG      H4 4213   4.223   4.391   2.941  1.2125  2.9852 -0.3865
  184DG      H5 4214   4.050   4.380   2.903 -0.7033  0.6803 -0.8530
  184DG      H6 4215   4.476   4.914   2.536 -0.2582  0.5678 -3.4400
  184DG      H7 4216   4.330   4.925   2.456 -1.7725  0.3447  0.9173
  184DG      H8 4217   4.392   5.067   2.532 -1.6029  0.2442 -1.7516
  184DG      O9 4218   4.126   4.572   2.904  0.3486 -0.3858 -0.0204
  184DG     O10 4219   4.314   4.926   2.670 -0.3656 -0.3371 -0.1528
  184DG     C11 4220   4.001   4.628   2.892  0.2004 -0.1684  0.4057
  184DG     C12 4221   4.184   4.973   2.664 -0.1178  0.0563  0.1537
  184DG     H13 4222   3.924   4.580   2.953  0.5798 -1.5383 -0.1628
  184DG     H14 4223   3.959   4.599   2.796 -3.1916  1.2345  1.3113
  184DG     H15 4224   4.131   4.917   2.587  0.0816  0.5620 -0.3556
  184DG     H16 4225   4.180   5.079   2.640 -0.3989  0.5069  2.0229
  184DG     C17 4226   4.000   4.777   2.897 -0.1892 -0.0672  0.1588
  184DG     C18 4227   4.107   4.944   2.792  0.1892 -0.5755  0.3048
  184DG     O19 4228   4.098   4.806   2.804  0.0922 -0.9833  0.3566
  184DG     H20 4229   4.015   4.818   2.997 -1.4756  0.8215  0.0093
  184DG     H21 4230   3.903   4.820   2.875 -0.4645 -1.4690 -1.5934
  184DG     H22 4231   4.168   4.990   2.870  1.3102 -0.6249 -0.5243
  184DG     H23 4232   4.006   4.986   2.787  1.2997  2.1091 -1.7080
  185DG      C1 4233   5.052   3.470   0.605 -0.0783 -0.1647  0.6746
  185DG      C2 4234   4.585   3.267   0.766  0.5130 -0.1810 -0.1415
  185DG      H3 4235   5.078   3.487   0.501  1.8916 -1.6661  0.8676
  185DG      H4 4236   5.148   3.473   0.657  0.2247 -3.8296  0.5322
  185DG      H5 4237   4.992   3.557   0.635  0.9538  0.5288  0.7780
  185DG      H6 4238   4.527   3.337   0.706  0.2312 -1.4814 -1.4428
  185DG      H7 4239   4.554   3.278   0.869 -0.1428 -1.0285 -0.2384
  185DG      H8 4240   4.690   3.295   0.756  0.0952  2.1204  1.3427
  185DG      O9 4241   4.968   3.360   0.635 -0.1731 -0.0277  0.2874
  185DG     O10 4242   4.546   3.137   0.722  0.6047 -0.5442 -0.1597
  185DG     C11 4243   5.046   3.245   0.625 -0.0587  0.6795  0.4155
  185DG     C12 4244   4.636   3.036   0.770 -0.4520 -0.1166 -0.7808
  185DG     H13 4245   5.106   3.218   0.713  0.1413 -1.1123 -0.2386
  185DG     H14 4246   5.108   3.248   0.535 -0.0186 -2.9153  0.1948
  185DG     H15 4247   4.583   2.940   0.768  1.2956 -1.1637  0.3551
  185DG     H16 4248   4.668   3.054   0.873  1.0381 -0.4212 -1.1712
  185DG     C17 4249   4.958   3.128   0.598 -0.0672 -0.6927  0.1284
  185DG     C18 4250   4.756   3.006   0.684 -0.0596  0.0891 -0.2168
  185DG     O19 4251   4.866   3.108   0.705  0.0971  0.1652 -0.1530
  185DG     H20 4252   5.016   3.036   0.596 -1.0699 -1.3719  1.1774
  185DG     H21 4253   4.906   3.152   0.505  1.0835  0.2464 -0.3119
  185DG     H22 4254   4.798   2.908   0.705  2.1101  1.1166  0.5350
  185DG     H23 4255   4.725   3.005   0.579  0.5970 -1.7126 -0.4246
  186DG      C1 4256   3.553   1.935   3.652  0.4114 -0.6703 -0.3882
  186DG      C2 4257   4.003   2.483   3.637  0.3859 -0.0993  0.3201
  186DG      H3 4258   3.496   2.010   3.708  1.0100 -1.0957  0.8293
  186DG      H4 4259   3.577   1.863   3.730 -1.7595  1.4057  2.4494
  186DG      H5 4260   3.491   1.895   3.572 -0.0574  0.6829 -0.7364
  186DG      H6 4261   3.988   2.485   3.745 -1.2282  1.2837  0.1031
  186DG      H7 4262   4.097   2.517   3.593 -0.6088  1.9608 -0.3409
  186DG      H8 4263   3.936   2.552   3.587 -0.6381  0.8453  2.8617
  186DG      O9 4264   3.683   1.985   3.609  0.0178 -0.0687  0.7691
  186DG     O10 4265   3.973   2.348   3.589 -0.4460  0.0851  0.3530
  186DG     C11 4266   3.774   1.883   3.581 -0.6239  0.6081 -0.2692
  186DG     C12 4267   4.075   2.258   3.632  0.2873  0.3350  0.0242
  186DG     H13 4268   3.741   1.807   3.510 -0.6167  0.9462 -0.6368
  186DG     H14 4269   3.794   1.821   3.668  0.9196 -1.3906 -1.9382
  186DG     H15 4270   4.062   2.243   3.739  1.8416 -0.9760  0.0714
  186DG     H16 4271   4.168   2.303   3.599  0.5680 -0.4738 -0.3238
  186DG     C17 4272   3.906   1.937   3.520 -0.4267 -1.1820  0.2954
  186DG     C18 4273   4.061   2.123   3.554  0.1592 -0.3402 -0.1075
  186DG     O19 4274   3.950   2.053   3.594  0.4408 -0.2763 -0.2610
  186DG     H20 4275   3.909   1.965   3.414  3.2268  0.2761  0.6601
  186DG     H21 4276   3.989   1.867   3.520  1.0430  0.4544 -0.8219
  186DG     H22 4277   4.079   2.146   3.449  1.4599 -0.0253  0.1666
  186DG     H23 4278   4.150   2.068   3.585  2.1006  2.0058 -1.1913
  187DG      C1 4279   2.462   3.697   1.131  0.2010 -0.3673 -0.2973
  187DG      C2 4280   3.124   3.705   1.103  0.6424  0.0959 -0.1662
  187DG      H3 4281   2.481   3.591   1.110  1.1073  0.1175 -2.1440
  187DG      H4 4282   2.431   3.745   1.038 -0.7360  3.0458  1.6380
  187DG      H5 4283   2.375   3.698   1.197  0.9382  0.9655  0.6985
  187DG      H6 4284   3.200   3.780   1.082 -0.2761  0.8683 -0.7554
  187DG      H7 4285   3.176   3.621   1.150 -2.1192 -1.3575  0.5018
  187DG      H8 4286   3.088   3.661   1.010 -0.3317  0.8235 -0.1422
  187DG      O9 4287   2.571   3.751   1.202  0.2032  0.2124 -0.1511
  187DG     O10 4288   3.016   3.755   1.189 -0.0842 -0.1103  0.5773
  187DG     C11 4289   2.578   3.728   1.344  0.0636 -0.7713  0.6707
  187DG     C12 4290   3.041   3.758   1.325  0.4672 -0.5306 -0.2542
  187DG     H13 4291   2.592   3.621   1.361 -2.6290 -0.9051  2.8022
  187DG     H14 4292   2.480   3.744   1.389 -0.7990 -0.1838 -1.3151
  187DG     H15 4293   3.126   3.820   1.354 -1.6662  2.8291 -0.6995
  187DG     H16 4294   3.055   3.658   1.366  0.6168 -0.3014  0.2633
  187DG     C17 4295   2.690   3.802   1.412  0.0565 -0.1414  0.3845
  187DG     C18 4296   2.917   3.808   1.406 -0.3709  0.3063 -0.4382
  187DG     O19 4297   2.804   3.749   1.363 -0.5394  0.4990 -0.1338
  187DG     H20 4298   2.687   3.775   1.517 -0.6776 -0.6749  0.2388
  187DG     H21 4299   2.686   3.910   1.408  1.8566 -0.0207  0.9463
  187DG     H22 4300   2.928   3.806   1.514 -0.8634  1.9815 -0.3279
  187DG     H23 4301   2.901   3.915   1.393 -0.9422  0.1818 -0.7908
  188DG      C1 4302   4.164   1.114   1.241  0.0317  0.1156 -0.1354
  188DG      C2 4303   3.629   1.693   1.356 -0.2188  0.7512  0.6547
  188DG      H3 4304   4.127   1.061   1.329  2.2878 -0.1829  0.7030
  188DG      H4 4305   4.271   1.129   1.260  0.4416 -1.8064 -0.7291
  188DG      H5 4306   4.161   1.040   1.161  1.6491 -2.6573  2.1724
  188DG      H6 4307   3.608   1.643   1.450  1.6522 -0.3905  0.5239
  188DG      H7 4308   3.558   1.775   1.349 -1.1690 -0.1998 -1.7899
  188DG      H8 4309   3.602   1.628   1.273  1.0236  1.6097 -0.4680
  188DG      O9 4310   4.098   1.238   1.226  0.5605  0.7582 -0.4612
  188DG     O10 4311   3.762   1.733   1.353  0.2292 -0.2313 -0.1225
  188DG     C11 4312   4.154   1.323   1.127 -0.3997  0.0008 -0.1838
  188DG     C12 4313   3.867   1.639   1.362  0.1717 -0.6945 -0.4182
  188DG     H13 4314   4.160   1.265   1.035  0.8214  1.1169 -0.8471
  188DG     H14 4315   4.255   1.336   1.166  0.1245 -1.6191 -0.9300
  188DG     H15 4316   3.856   1.559   1.435  1.8014  0.8924  1.6865
  188DG     H16 4317   3.946   1.699   1.408  1.6682  0.4362 -4.1196
  188DG     C17 4318   4.082   1.455   1.101  0.7924  0.2535  0.4758
  188DG     C18 4319   3.911   1.581   1.223  0.4345  0.3864 -0.4021
  188DG     O19 4320   4.031   1.498   1.231  0.1477  0.4142  0.1114
  188DG     H20 4321   3.998   1.443   1.032 -0.1132 -2.8723  1.9418
  188DG     H21 4322   4.146   1.535   1.063 -0.4579  1.3443  0.5502
  188DG     H22 4323   3.829   1.520   1.185 -0.0787  0.7259  0.1506
  188DG     H23 4324   3.936   1.662   1.154  1.1369  1.6959  1.3297
  189DG      C1 4325   3.913   4.513   5.500  0.3185 -0.3196  0.1314
  189DG      C2 4326   3.436   4.812   5.058  0.7195 -0.0176 -0.8080
  189DG      H3 4327   3.965   4.601   5.461  1.0932 -1.4759 -1.5300
  189DG      H4 4328   3.919   4.448   5.413 -1.2872 -1.7784  1.0448
  189DG      H5 4329   3.966   4.468   5.584  2.2860 -1.3437 -1.5977
  189DG      H6 4330   3.429   4.755   4.965  1.0253 -0.6156 -0.4729
  189DG      H7 4331   3.333   4.840   5.083  0.6449 -0.5831 -0.4623
  189DG      H8 4332   3.497   4.902   5.051  0.2513  0.3719 -0.1051
  189DG      O9 4333   3.778   4.555   5.523 -0.3396 -0.3722  0.4297
  189DG     O10 4334   3.481   4.743   5.169  0.3337  0.3867 -0.3057
  189DG     C11 4335   3.686   4.450   5.548  0.1627  0.2703 -0.3141
  189DG     C12 4336   3.403   4.629   5.204  0.3346  0.6064  0.6489
  189DG     H13 4337   3.705   4.416   5.650  1.4029  2.3955  0.2201
  189DG     H14 4338   3.697   4.365   5.481 -0.2212  0.6205 -0.8278
  189DG     H15 4339   3.437   4.545   5.143 -0.1834 -0.0131  1.1828
  189DG     H16 4340   3.297   4.638   5.183 -0.0959 -1.8069  1.4045
  189DG     C17 4341   3.549   4.514   5.525  0.6671  0.1786 -0.7443
  189DG     C18 4342   3.417   4.611   5.358  0.4637  0.0702 -0.2239
  189DG     O19 4343   3.548   4.559   5.390  0.4297  0.2016 -0.3146
  189DG     H20 4344   3.529   4.590   5.599  2.1762 -0.7057  0.6311
  189DG     H21 4345   3.471   4.441   5.546 -0.0161  1.5797  1.9705
  189DG     H22 4346   3.387   4.700   5.412 -1.4050 -0.3869 -0.4302
  189DG     H23 4347   3.339   4.540   5.386 -0.4228  2.0542  2.7829
  190DG      C1 4348   4.248   2.680   2.221 -0.0064 -0.3439  0.0066
  190DG      C2 4349   4.872   2.937   2.255  0.0949 -0.0995  0.0766
  190DG      H3 4350   4.257   2.685   2.329  0.2879 -2.1958  0.1015
  190DG      H4 4351   4.189   2.591   2.197  1.1819 -1.3527  0.7414
  190DG      H5 4352   4.186   2.761   2.181  1.7654  0.1356 -1.9480
  190DG      H6 4353   4.957   2.976   2.198  0.5417 -0.9969  0.1054
  190DG      H7 4354   4.836   3.028   2.302 -2.1201 -1.1045  0.4765
  190DG      H8 4355   4.917   2.866   2.324  1.1439  2.3211  2.0324
  190DG      O9 4356   4.369   2.679   2.149  0.3253  0.3320  0.0459
  190DG     O10 4357   4.766   2.893   2.174  0.2100 -0.4072  0.4097
  190DG     C11 4358   4.353   2.748   2.028 -0.8988 -0.6733 -0.0227
  190DG     C12 4359   4.792   2.771   2.101 -0.8230  0.1371  0.5903
  190DG     H13 4360   4.340   2.855   2.035  1.2566 -0.1405 -2.5361
  190DG     H14 4361   4.265   2.708   1.977 -1.5039  0.2848  0.2497
  190DG     H15 4362   4.845   2.700   2.164 -1.8987  0.0885  1.4663
  190DG     H16 4363   4.867   2.788   2.023  0.7839 -2.5131  1.4438
  190DG     C17 4364   4.470   2.724   1.933  0.1716 -0.6284  0.1994
  190DG     C18 4365   4.669   2.689   2.065 -0.5309 -0.5866 -0.4759
  190DG     O19 4366   4.597   2.774   1.980 -0.0127 -0.8870 -0.2845
  190DG     H20 4367   4.452   2.776   1.839 -0.9491 -0.3118  0.5751
  190DG     H21 4368   4.471   2.618   1.904  0.6639 -0.4638 -0.4259
  190DG     H22 4369   4.689   2.590   2.022  0.5300 -0.8718  0.6170
  190DG     H23 4370   4.620   2.674   2.162  0.7765  0.3768  0.3633
  191DG      C1 4371   5.064   2.294   0.107 -0.0322 -0.9528 -0.9554
  191DG      C2 4372   5.777   2.132  -0.070  0.0772 -0.0730  0.5187
  191DG      H3 4373   5.088   2.228   0.190  2.4865 -0.9061 -1.5482
  191DG      H4 4374   5.011   2.230   0.037 -0.2875 -1.1217 -0.6096
  191DG      H5 4375   4.994   2.371   0.138  1.0699 -0.2404 -0.1569
  191DG      H6 4376   5.724   2.048  -0.116 -2.8430  1.2001  1.3303
  191DG      H7 4377   5.871   2.169  -0.111 -0.2418  0.6248  0.3961
  191DG      H8 4378   5.799   2.094   0.029  0.0043 -0.0215  0.5551
  191DG      O9 4379   5.186   2.360   0.070 -0.0701  0.3138  0.1088
  191DG     O10 4380   5.689   2.245  -0.049  0.0793  0.5512 -0.3388
  191DG     C11 4381   5.190   2.438  -0.050  0.2083 -0.2174  0.5731
  191DG     C12 4382   5.632   2.295  -0.173  0.1655 -0.6778 -0.5191
  191DG     H13 4383   5.117   2.518  -0.033  0.6729  0.5118 -0.7300
  191DG     H14 4384   5.164   2.369  -0.130  1.0259 -0.0305  0.1314
  191DG     H15 4385   5.581   2.214  -0.225  2.5188 -1.4637 -1.7673
  191DG     H16 4386   5.709   2.316  -0.248  0.3599  0.6054  0.0248
  191DG     C17 4387   5.335   2.494  -0.069 -1.0860 -0.2585  0.8416
  191DG     C18 4388   5.544   2.418  -0.139 -0.9220  0.4200  0.0591
  191DG     O19 4389   5.409   2.381  -0.118  0.0360  0.2842 -0.2216
  191DG     H20 4390   5.376   2.530   0.026  0.7079  1.3048 -0.4429
  191DG     H21 4391   5.340   2.575  -0.142  5.4371 -2.2405 -1.6510
  191DG     H22 4392   5.588   2.469  -0.053 -0.0867 -0.2543  0.0447
  191DG     H23 4393   5.541   2.488  -0.223  1.0826  2.2959  1.4346
  192DG      C1 4394   5.449   2.975   4.711  0.0249 -0.1520 -0.4738
  192DG      C2 4395   4.866   2.678   4.703  0.4178  0.5435  0.0271
  192DG      H3 4396   5.445   3.065   4.649  1.0554  1.4534  1.6392
  192DG      H4 4397   5.552   2.949   4.738 -0.4892 -0.3849  1.4212
  192DG      H5 4398   5.395   2.996   4.803 -3.4847  0.0545 -2.4120
  192DG      H6 4399   4.823   2.774   4.675 -0.5127 -0.1872 -1.1345
  192DG      H7 4400   4.802   2.596   4.670 -0.1229  1.8000 -2.2613
  192DG      H8 4401   4.866   2.668   4.812 -1.9633  0.7896  0.0956
  192DG      O9 4402   5.386   2.870   4.645  0.2980  0.9097 -0.2198
  192DG     O10 4403   4.996   2.655   4.662 -0.2757 -0.9850 -0.1250
  192DG     C11 4404   5.446   2.827   4.520  0.1274 -0.0984 -0.1678
  192DG     C12 4405   5.008   2.645   4.515 -0.3850  0.6385 -0.9681
  192DG     H13 4406   5.553   2.807   4.526  0.6870  2.9796  3.0798
  192DG     H14 4407   5.428   2.896   4.437  1.9523  0.9481  0.2591
  192DG     H15 4408   4.975   2.733   4.460  0.6929  0.4497 -1.9569
  192DG     H16 4409   4.940   2.564   4.490 -2.4662  1.9700  0.1298
  192DG     C17 4410   5.365   2.696   4.482 -0.0432  0.2757 -0.0314
  192DG     C18 4411   5.153   2.612   4.473  0.1237 -0.1763  0.3083
  192DG     O19 4412   5.229   2.725   4.501 -0.2900 -0.2756 -0.5414
  192DG     H20 4413   5.407   2.616   4.542  1.0341 -0.6728 -1.9365
  192DG     H21 4414   5.383   2.672   4.377 -1.7366  0.5269 -0.4042
  192DG     H22 4415   5.183   2.519   4.522  0.0960 -0.4188 -0.1299
  192DG     H23 4416   5.164   2.593   4.366  1.3485 -2.4886  0.7692
  193DG      C1 4417   5.462   0.996   3.347  0.1822  0.4904 -0.0258
  193DG      C2 4418   5.923   1.480   3.702  0.8439 -0.1029  0.4468
  193DG      H3 4419   5.461   0.921   3.426 -1.3379  0.7793  0.2524
  193DG      H4 4420   5.557   0.991   3.294 -0.2428  0.6769 -0.8287
  193DG      H5 4421   5.384   0.984   3.272  1.3270  0.5849 -1.2899
  193DG      H6 4422   5.973   1.399   3.754  0.1704 -0.9434 -0.1748
  193DG      H7 4423   5.976   1.490   3.607  0.1309 -0.1453  0.0327
  193DG      H8 4424   5.926   1.583   3.738 -2.4167  0.6610 -1.0785
  193DG      O9 4425   5.440   1.118   3.418  0.1111  0.1617  0.1686
  193DG     O10 4426   5.792   1.441   3.656  0.3399  0.1885 -0.3320
  193DG     C11 4427   5.411   1.226   3.333  0.1148  0.5587 -0.1869
  193DG     C12 4428   5.732   1.532   3.560  0.2636  0.6615  0.0845
  193DG     H13 4429   5.308   1.223   3.299 -0.3327 -0.5081  1.1833
  193DG     H14 4430   5.478   1.213   3.248  0.8835  1.2558  0.2888
  193DG     H15 4431   5.792   1.540   3.470 -0.7823  2.2079 -0.5206
  193DG     H16 4432   5.731   1.629   3.609 -3.7463  1.5102 -1.2996
  193DG     C17 4433   5.439   1.354   3.412  0.7807  1.0013 -0.4956
  193DG     C18 4434   5.581   1.499   3.539 -0.2347 -0.6843 -0.7617
  193DG     O19 4435   5.569   1.380   3.456  0.0373 -0.1158  0.0629
  193DG     H20 4436   5.383   1.370   3.504 -1.5067 -1.8601 -1.2565
  193DG     H21 4437   5.399   1.437   3.352 -1.9650  0.2696  0.1900
  193DG     H22 4438   5.538   1.480   3.637  2.1806  1.2086  0.7808
  193DG     H23 4439   5.534   1.587   3.495  0.2737  0.6404  1.2053
  194DG      C1 4440   3.463   2.267   4.355 -0.1718  0.0690 -0.5460
  194DG      C2 4441   2.916   2.551   3.952  0.0089  0.3226 -0.1896
  194DG      H3 4442   3.492   2.184   4.419 -1.3512 -0.3374 -0.5059
  194DG      H4 4443   3.516   2.357   4.387  0.4150 -0.3805 -0.2541
  194DG      H5 4444   3.507   2.250   4.257  0.2166 -0.7471 -0.2316
  194DG      H6 4445   3.003   2.560   3.887  2.0537  1.2083  2.5251
  194DG      H7 4446   2.857   2.470   3.909 -1.2177  0.2300  1.6045
  194DG      H8 4447   2.865   2.647   3.952 -1.5175 -0.4467 -0.3803
  194DG      O9 4448   3.327   2.284   4.330 -0.2853 -0.5165 -0.5379
  194DG     O10 4449   2.950   2.507   4.087  0.9029  0.2250 -0.0860
  194DG     C11 4450   3.262   2.338   4.446  0.7238 -0.5705  0.6580
  194DG     C12 4451   3.030   2.600   4.160 -0.3780 -0.2756 -0.7183
  194DG     H13 4452   3.300   2.433   4.483  0.7316  0.2506 -1.3265
  194DG     H14 4453   3.273   2.273   4.532  2.3050 -1.2006  0.0127
  194DG     H15 4454   3.002   2.705   4.151  2.4402  0.4499 -2.3352
  194DG     H16 4455   3.128   2.608   4.113 -0.9672  0.5248 -1.8639
  194DG     C17 4456   3.111   2.348   4.418  0.0712 -0.5856 -0.3911
  194DG     C18 4457   3.053   2.559   4.303 -0.4084  0.2517 -0.8247
  194DG     O19 4458   3.085   2.419   4.297 -0.1308 -0.4648  0.3594
  194DG     H20 4459   3.055   2.395   4.499 -0.3123 -0.6880 -0.5944
  194DG     H21 4460   3.069   2.250   4.397  0.8291 -0.9536 -0.1970
  194DG     H22 4461   3.145   2.599   4.345  0.8780 -2.0790 -1.2250
  194DG     H23 4462   2.962   2.585   4.357  0.1050 -0.5375  0.4751
  195DG      C1 4463   1.933   3.092   1.160 -0.0802 -0.4134  0.0089
  195DG      C2 4464   1.429   2.703   1.507 -0.0232 -0.0627 -0.1390
  195DG      H3 4465   1.991   3.177   1.198 -0.4162  1.5896 -3.4719
  195DG      H4 4466   1.852   3.141   1.106  0.7506  1.3748  0.2995
  195DG      H5 4467   1.998   3.037   1.092 -0.3806 -0.3439 -0.3360
  195DG      H6 4468   1.359   2.712   1.425 -1.1459  1.8152  0.9658
  195DG      H7 4469   1.405   2.614   1.566 -2.7746 -0.4442 -1.6828
  195DG      H8 4470   1.400   2.781   1.577  0.8491 -1.2428  1.6239
  195DG      O9 4471   1.897   3.012   1.275 -0.3313  0.4832 -0.0599
  195DG     O10 4472   1.571   2.700   1.483  0.4604  0.8603  0.6116
  195DG     C11 4473   1.894   2.868   1.242 -0.5994 -0.6402  0.3232
  195DG     C12 4474   1.609   2.574   1.424 -0.1095 -0.0729 -1.4891
  195DG     H13 4475   1.998   2.836   1.231 -0.5176 -0.4954  0.6752
  195DG     H14 4476   1.830   2.852   1.154 -3.6304 -1.2699  2.4709
  195DG     H15 4477   1.570   2.580   1.323 -1.4531 -1.8707 -1.1171
  195DG     H16 4478   1.574   2.488   1.481  3.4118 -0.8166 -0.1935
  195DG     C17 4479   1.846   2.787   1.363 -0.0345 -0.9076  0.3013
  195DG     C18 4480   1.765   2.561   1.420 -0.1948  0.3557 -0.2685
  195DG     O19 4481   1.818   2.654   1.323  0.1036  0.7081  0.0277
  195DG     H20 4482   1.763   2.842   1.405  0.9721  0.5539  0.4689
  195DG     H21 4483   1.924   2.787   1.439  2.2882  0.7119 -1.9008
  195DG     H22 4484   1.802   2.581   1.520 -1.3595 -1.6350  0.6427
  195DG     H23 4485   1.781   2.457   1.392  0.1972  0.0770  0.9190
  196DG      C1 4486   4.206   1.554   3.421 -0.3894  0.3254 -0.5676
  196DG      C2 4487   4.832   1.503   3.955  0.1769  0.5822  0.6251
  196DG      H3 4488   4.295   1.569   3.362  1.2103  0.1744  1.6697
  196DG      H4 4489   4.117   1.613   3.397 -1.3578 -0.9118 -0.1770
  196DG      H5 4490   4.177   1.449   3.412 -1.8152  0.6568 -0.2148
  196DG      H6 4491   4.759   1.461   4.025 -0.9820  0.8171 -0.4044
  196DG      H7 4492   4.917   1.438   3.935  0.4729  0.8934  0.8438
  196DG      H8 4493   4.878   1.583   4.014 -1.6419  0.7610  1.8832
  196DG      O9 4494   4.241   1.593   3.552  0.6611 -0.0147  0.2490
  196DG     O10 4495   4.776   1.544   3.830  0.4348 -0.2469  0.2847
  196DG     C11 4496   4.284   1.728   3.555  0.7252 -0.0539 -0.4308
  196DG     C12 4497   4.638   1.584   3.847 -0.2109 -0.5137 -0.5294
  196DG     H13 4498   4.234   1.792   3.627  0.1810 -0.2647 -0.6170
  196DG     H14 4499   4.264   1.791   3.469  1.4904 -0.5615 -0.9982
  196DG     H15 4500   4.619   1.651   3.931  0.1129 -0.3166 -0.6117
  196DG     H16 4501   4.593   1.487   3.868 -0.8204 -0.4635 -1.5032
  196DG     C17 4502   4.435   1.742   3.579 -0.2715  0.4765 -0.2256
  196DG     C18 4503   4.592   1.643   3.717  0.3615  0.2241  0.2230
  196DG     O19 4504   4.453   1.674   3.705 -0.4845  0.0189 -0.1607
  196DG     H20 4505   4.449   1.850   3.588 -3.0056  0.7527  2.9533
  196DG     H21 4506   4.481   1.698   3.491  2.3760  0.8812  0.8825
  196DG     H22 4507   4.648   1.733   3.690  1.1109 -0.9904 -2.6823
  196DG     H23 4508   4.617   1.577   3.633  3.7883  1.1743  0.3576
  197DG      C1 4509   0.318   2.836   1.745 -0.0287  0.1838 -0.1754
  197DG      C2 4510  -0.405   2.479   1.400 -0.6815 -0.3117 -0.2794
  197DG      H3 4511   0.396   2.829   1.820 -0.1323  2.7504  0.2503
  197DG      H4 4512   0.290   2.940   1.727  0.7573  0.4710  0.2106
  197DG      H5 4513   0.373   2.812   1.654  0.2676 -1.3668  0.3922
  197DG      H6 4514  -0.398   2.587   1.392 -0.1288 -0.1162  2.0551
  197DG      H7 4515  -0.399   2.430   1.303  3.9577 -2.0640  0.6172
  197DG      H8 4516  -0.505   2.461   1.440  0.2260  0.0605  2.3500
  197DG      O9 4517   0.207   2.758   1.784 -0.1293 -0.1921 -0.1942
  197DG     O10 4518  -0.298   2.435   1.480 -0.7330  0.0913 -0.0471
  197DG     C11 4519   0.140   2.717   1.667  0.0273 -1.2150  0.9702
  197DG     C12 4520  -0.299   2.494   1.612  0.0080 -0.4844 -0.0428
  197DG     H13 4521   0.207   2.672   1.593 -0.5775 -3.3325  1.6234
  197DG     H14 4522   0.088   2.807   1.633  1.0412 -0.7015  0.7478
  197DG     H15 4523  -0.369   2.439   1.675 -2.6624  0.5231 -1.9996
  197DG     H16 4524  -0.331   2.598   1.618  3.2678  0.5669  4.2846
  197DG     C17 4525   0.044   2.613   1.714 -0.6309  0.1662 -0.1870
  197DG     C18 4526  -0.163   2.486   1.673  0.0032 -0.9686 -0.3101
  197DG     O19 4527  -0.083   2.604   1.641  0.1101 -0.0807 -0.8212
  197DG     H20 4528   0.006   2.647   1.811  1.7058  1.5660  0.3013
  197DG     H21 4529   0.084   2.512   1.716  0.5901  0.6262 -0.6418
  197DG     H22 4530  -0.175   2.483   1.781  0.2222 -1.0555 -0.2872
  197DG     H23 4531  -0.110   2.397   1.638  1.2239 -0.1353 -0.6472
  198DG      C1 4532   0.826   1.022   1.457  0.2220 -0.2723  0.1461
  198DG      C2 4533   0.332   0.601   1.604  0.1216 -0.3794  0.2171
  198DG      H3 4534   0.900   1.099   1.482  1.3707 -1.9544  2.3692
  198DG      H4 4535   0.727   1.066   1.444  0.1445 -1.0488 -2.3627
  198DG      H5 4536   0.840   0.979   1.358  0.8308  2.2051 -0.9020
  198DG      H6 4537   0.274   0.691   1.627 -1.2398 -0.9760 -0.7427
  198DG      H7 4538   0.313   0.580   1.499  1.3732  1.7138 -0.4907
  198DG      H8 4539   0.291   0.521   1.664 -0.9823  1.0526  1.4461
  198DG      O9 4540   0.811   0.922   1.555 -0.1035 -0.0135  0.1284
  198DG     O10 4541   0.468   0.612   1.645 -0.1222  0.1796 -0.1730
  198DG     C11 4542   0.808   0.983   1.692  0.7969  0.0588  0.6425
  198DG     C12 4543   0.478   0.643   1.781  0.3201  0.5009 -0.7323
  198DG     H13 4544   0.733   1.062   1.688  0.9351  0.1544 -2.2141
  198DG     H14 4545   0.905   1.026   1.716  0.6261 -0.1644  1.8193
  198DG     H15 4546   0.438   0.562   1.842  0.4030  0.8559 -0.1949
  198DG     H16 4547   0.400   0.716   1.801 -0.9228 -1.2253  1.1503
  198DG     C17 4548   0.757   0.869   1.788  0.1055 -0.2087 -0.0181
  198DG     C18 4549   0.613   0.701   1.817 -0.2838  0.4960  0.4064
  198DG     O19 4550   0.637   0.809   1.735 -0.2004 -0.2290  0.5954
  198DG     H20 4551   0.740   0.907   1.889 -2.0511  0.5892 -0.6304
  198DG     H21 4552   0.837   0.794   1.782  0.5196  0.1151  1.0801
  198DG     H22 4553   0.612   0.723   1.924 -0.0346 -0.4885  0.6213
  198DG     H23 4554   0.693   0.627   1.803  0.4487  1.2168  0.6781
  199DG      C1 4555   2.440   4.753   1.791 -0.0507 -0.1487  0.6014
  199DG      C2 4556   2.456   5.396   1.490  0.2273  0.3305  0.0453
  199DG      H3 4557   2.464   4.844   1.846  1.1764 -0.8597  1.2960
  199DG      H4 4558   2.523   4.685   1.811 -1.4300 -1.8135  0.8400
  199DG      H5 4559   2.357   4.703   1.841  1.3114 -1.9193  1.2101
  199DG      H6 4560   2.379   5.454   1.541 -0.5845 -0.6905  0.0060
  199DG      H7 4561   2.536   5.373   1.561 -0.6902 -3.2641  0.0921
  199DG      H8 4562   2.507   5.458   1.416  3.0405  0.0187  1.5702
  199DG      O9 4563   2.426   4.766   1.654  0.0529 -0.7028  0.2920
  199DG     O10 4564   2.389   5.275   1.444  0.1291 -1.1298 -0.5436
  199DG     C11 4565   2.307   4.825   1.620  0.4150 -0.9504  0.0796
  199DG     C12 4566   2.473   5.191   1.361 -0.4969 -0.2643 -0.0800
  199DG     H13 4567   2.277   4.908   1.684 -0.4398  0.3378 -1.8725
  199DG     H14 4568   2.232   4.745   1.618 -0.8327  0.0788  2.2457
  199DG     H15 4569   2.562   5.172   1.421 -0.7873 -2.7453 -0.3317
  199DG     H16 4570   2.500   5.237   1.267  2.4582  1.7516  1.5700
  199DG     C17 4571   2.315   4.876   1.480 -0.1491  0.1337 -0.5722
  199DG     C18 4572   2.405   5.056   1.352 -0.0458 -0.6779 -0.5277
  199DG     O19 4573   2.393   4.993   1.481 -0.1724  0.6006  0.1538
  199DG     H20 4574   2.217   4.886   1.434 -0.3647 -0.1936 -0.1956
  199DG     H21 4575   2.350   4.788   1.427 -1.0584 -1.3720  1.1989
  199DG     H22 4576   2.311   5.068   1.298  0.2923  1.7938 -0.6621
  199DG     H23 4577   2.480   5.002   1.294  0.2498 -1.9460  0.9667
  200DG      C1 4578   0.523   4.956   1.280  0.2370 -0.1824 -0.4213
  200DG      C2 4579   0.422   5.015   1.896 -0.2427 -0.6202  0.1453
  200DG      H3 4580   0.597   4.921   1.208  0.9473  1.1546 -0.3811
  200DG      H4 4581   0.532   5.065   1.273 -0.0196 -0.0402  1.1154
  200DG      H5 4582   0.423   4.926   1.248 -1.9114  3.3064  2.2982
  200DG      H6 4583   0.322   5.050   1.872  0.1125 -0.1744 -0.7502
  200DG      H7 4584   0.418   4.982   2.000 -2.1699 -0.4909  0.1416
  200DG      H8 4585   0.491   5.098   1.877  0.7653 -2.1538 -3.8940
  200DG      O9 4586   0.547   4.902   1.408  0.7312  0.0190 -0.0163
  200DG     O10 4587   0.462   4.901   1.818 -0.7818 -0.9432  0.3862
  200DG     C11 4588   0.677   4.856   1.426  0.5663  0.6186 -0.0846
  200DG     C12 4589   0.576   4.832   1.864  0.0853  0.2504  0.7223
  200DG     H13 4590   0.752   4.922   1.383  1.9826 -2.1255 -2.1385
  200DG     H14 4591   0.706   4.782   1.351  0.7115 -1.7183  2.1546
  200DG     H15 4592   0.550   4.784   1.959 -0.2910 -0.6234  0.1952
  200DG     H16 4593   0.657   4.901   1.888  0.1331  0.0412  1.1931
  200DG     C17 4594   0.712   4.831   1.572  0.3852  0.4201 -0.6455
  200DG     C18 4595   0.614   4.715   1.772  0.5678 -0.9728 -0.4446
  200DG     O19 4596   0.606   4.751   1.633  0.2009 -0.1501 -0.1142
  200DG     H20 4597   0.714   4.908   1.650  0.1335 -0.5818  0.3775
  200DG     H21 4598   0.805   4.776   1.583  0.2632  0.3873  0.3975
  200DG     H22 4599   0.718   4.685   1.785  1.7551  0.6496 -4.5541
  200DG     H23 4600   0.554   4.626   1.788  0.7555 -1.1425 -0.6636
  201DG      C1 4601   1.180   3.816   3.853 -0.1854  0.3673  0.2486
  201DG      C2 4602   0.576   3.195   3.844  0.1076  0.0364  0.8543
  201DG      H3 4603   1.241   3.884   3.912  0.1566  0.3281 -0.0529
  201DG      H4 4604   1.111   3.887   3.807  1.6005  1.3915 -0.9580
  201DG      H5 4605   1.240   3.758   3.783  0.8537 -0.4520  1.7699
  201DG      H6 4606   0.473   3.189   3.880 -0.6380 -0.9814 -1.3103
  201DG      H7 4607   0.561   3.228   3.741 -0.9335 -1.7346  0.3859
  201DG      H8 4608   0.616   3.094   3.838  0.5995  0.3024 -3.7605
  201DG      O9 4609   1.122   3.710   3.933 -0.6084  0.5302  0.1979
  201DG     O10 4610   0.664   3.279   3.923  0.5020  0.1360 -0.3796
  201DG     C11 4611   1.014   3.639   3.875  0.5010  0.4608 -0.1546
  201DG     C12 4612   0.609   3.416   3.923 -0.5999 -0.0245 -0.2537
  201DG     H13 4613   1.039   3.576   3.790  2.1702  1.2483 -0.3024
  201DG     H14 4614   0.944   3.720   3.856  0.1124  0.8620  2.5373
  201DG     H15 4615   0.516   3.426   3.979  0.7359  0.4078  2.0341
  201DG     H16 4616   0.602   3.461   3.824 -1.6205  0.4774  0.0349
  201DG     C17 4617   0.942   3.558   3.987  0.3883 -0.4162 -0.6724
  201DG     C18 4618   0.711   3.491   4.008  0.1015 -0.6386 -0.5427
  201DG     O19 4619   0.823   3.510   3.922  0.1507  0.2670  0.2386
  201DG     H20 4620   0.921   3.623   4.072 -1.0867 -0.1457 -1.2246
  201DG     H21 4621   1.008   3.477   4.019  0.0189 -1.2455 -1.9202
  201DG     H22 4622   0.679   3.591   4.036 -0.0198 -0.8615  0.1350
  201DG     H23 4623   0.741   3.431   4.094 -1.4177  0.4284  0.8018
  202DG      C1 4624   1.516   4.658   3.239  0.1570 -0.1217 -0.3338
  202DG      C2 4625   1.385   4.035   3.034 -0.5177  0.5972  0.2468
  202DG      H3 4626   1.487   4.763   3.240  0.5740 -0.0052  1.0480
  202DG      H4 4627   1.606   4.639   3.180  0.9509  0.9585  0.4824
  202DG      H5 4628   1.547   4.638   3.341 -0.1247 -1.6483 -0.5237
  202DG      H6 4629   1.447   4.011   3.120  0.6591  0.1550 -0.6930
  202DG      H7 4630   1.309   3.959   3.017  0.1739  0.0698 -0.5287
  202DG      H8 4631   1.446   4.036   2.944 -0.6064  0.8221  0.1881
  202DG      O9 4632   1.417   4.557   3.221 -0.2421 -0.3622  0.2961
  202DG     O10 4633   1.339   4.173   3.052  0.1134 -0.4881  0.1348
  202DG     C11 4634   1.308   4.577   3.313  0.3298 -0.2457  0.2316
  202DG     C12 4635   1.208   4.167   3.110  0.1326 -0.4733  0.6545
  202DG     H13 4636   1.270   4.678   3.319 -1.0960 -0.8064  1.1230
  202DG     H14 4637   1.335   4.545   3.414 -0.2564 -0.1989  0.4047
  202DG     H15 4638   1.211   4.107   3.201  3.2102 -2.4689 -0.5786
  202DG     H16 4639   1.136   4.115   3.046  1.1471 -0.9386 -0.1412
  202DG     C17 4640   1.192   4.498   3.276  0.4709 -0.1855  0.4693
  202DG     C18 4641   1.140   4.303   3.145  0.1495  0.5675 -0.2535
  202DG     O19 4642   1.240   4.376   3.220  0.0268 -0.0331 -0.8918
  202DG     H20 4643   1.129   4.552   3.205 -1.0764 -1.9976  0.4143
  202DG     H21 4644   1.129   4.485   3.364  1.2769  0.9570  1.2559
  202DG     H22 4645   1.110   4.358   3.056 -1.3612  0.8642  0.4024
  202DG     H23 4646   1.057   4.295   3.215  1.9724  3.3541  2.4863
  203DG      C1 4647   0.407   4.780   0.976 -0.1396  0.1925 -0.5215
  203DG      C2 4648   0.128   4.249   0.562  0.8977 -0.3575  0.0228
  203DG      H3 4649   0.410   4.724   1.070  2.7897  1.6714  0.3904
  203DG      H4 4650   0.332   4.858   0.989 -0.1803 -0.1662  1.9728
  203DG      H5 4651   0.506   4.826   0.976  1.3612 -2.6596  1.6097
  203DG      H6 4652   0.189   4.168   0.524  2.5505  0.4455  0.8330
  203DG      H7 4653   0.092   4.206   0.655 -0.7816 -2.1398 -1.3590
  203DG      H8 4654   0.046   4.291   0.504 -0.0084 -0.8455  0.9305
  203DG      O9 4655   0.391   4.697   0.861  0.2560  0.1381 -0.3688
  203DG     O10 4656   0.221   4.349   0.590  0.6121 -0.4606  0.4838
  203DG     C11 4657   0.408   4.788   0.748 -0.7537 -0.2762  0.7952
  203DG     C12 4658   0.238   4.436   0.477 -0.4772  0.6932 -0.2923
  203DG     H13 4659   0.491   4.857   0.762 -0.3190 -0.6973  0.2840
  203DG     H14 4660   0.311   4.836   0.735  0.1013  0.8977 -1.8821
  203DG     H15 4661   0.146   4.493   0.475 -1.2271 -0.4018  1.0521
  203DG     H16 4662   0.258   4.384   0.383 -0.4784  1.1731 -0.5587
  203DG     C17 4663   0.435   4.712   0.616  0.9382 -0.5188 -0.5691
  203DG     C18 4664   0.359   4.526   0.488  0.2825 -0.5541 -0.2514
  203DG     O19 4665   0.336   4.609   0.600 -0.0975 -0.6359 -0.4973
  203DG     H20 4666   0.532   4.662   0.612  0.4712 -1.5791  0.6396
  203DG     H21 4667   0.437   4.780   0.532 -0.5102  0.4026  0.1140
  203DG     H22 4668   0.437   4.451   0.496 -0.2958 -1.4629 -2.3959
  203DG     H23 4669   0.369   4.589   0.400  0.6452  0.5164  0.5399
  204DG      C1 4670   0.136   0.801   0.206  0.0067 -0.0934 -0.1452
  204DG      C2 4671  -0.116   1.456   0.346  0.2003 -1.3088  0.0359
  204DG      H3 4672   0.111   0.695   0.201 -1.6998  0.3368 -1.6550
  204DG      H4 4673   0.137   0.823   0.313  0.1802 -0.3223 -0.0987
  204DG      H5 4674   0.234   0.816   0.161  0.1354  1.1974  0.5056
  204DG      H6 4675  -0.115   1.461   0.455 -0.4620  0.2927  0.0083
  204DG      H7 4676  -0.021   1.484   0.302 -0.1685  2.0684  1.0969
  204DG      H8 4677  -0.183   1.536   0.313 -0.5434 -1.3047  1.4663
  204DG      O9 4678   0.034   0.865   0.135 -0.1081  0.1196 -0.2941
  204DG     O10 4679  -0.173   1.331   0.305  0.2152 -0.1885 -0.1161
  204DG     C11 4680  -0.097   0.841   0.179  0.4131  0.0228  0.0818
  204DG     C12 4681  -0.202   1.324   0.166  0.0568 -0.0629 -0.3283
  204DG     H13 4682  -0.115   0.831   0.286 -0.4490 -1.5826 -0.1781
  204DG     H14 4683  -0.123   0.737   0.158  1.4944 -0.4281  0.8562
  204DG     H15 4684  -0.116   1.344   0.103  0.4419  2.9959  0.9917
  204DG     H16 4685  -0.269   1.406   0.140 -0.2620  0.1726  1.1640
  204DG     C17 4686  -0.183   0.948   0.108  0.8569  0.9293  0.0580
  204DG     C18 4687  -0.245   1.175   0.129 -0.0908  0.2216  0.6211
  204DG     O19 4688  -0.140   1.078   0.154 -0.0415 -0.1876 -0.5288
  204DG     H20 4689  -0.288   0.931   0.134  1.5073  0.6794  2.8279
  204DG     H21 4690  -0.174   0.936   0.000  0.6400  0.4370  0.0921
  204DG     H22 4691  -0.333   1.143   0.184  0.0595 -2.2133 -0.4055
  204DG     H23 4692  -0.268   1.163   0.023 -3.1879  1.2449  1.0919
  205DG      C1 4693   3.668   3.884   2.468  0.1780  0.1134 -0.3756
  205DG      C2 4694   3.974   3.315   2.504  0.2764 -0.0775  0.2747
  205DG      H3 4695   3.595   3.962   2.446  0.1704  0.4323  0.7107
  205DG      H4 4696   3.745   3.875   2.391  1.2587  0.5377  0.6184
  205DG      H5 4697   3.727   3.916   2.554 -0.5099 -0.2441  0.2459
  205DG      H6 4698   4.064   3.361   2.544 -0.3994 -0.1773  1.9832
  205DG      H7 4699   3.963   3.220   2.557 -0.2996  0.0414  0.3739
  205DG      H8 4700   3.984   3.276   2.402  0.6150 -0.2752  0.3827
  205DG      O9 4701   3.623   3.751   2.493 -0.3891  0.0367 -0.3254
  205DG     O10 4702   3.862   3.399   2.525  0.5065  1.0436 -0.0193
  205DG     C11 4703   3.523   3.715   2.409  0.7657  0.3531 -0.1233
  205DG     C12 4704   3.742   3.333   2.547  0.4009 -0.3402  0.1615
  205DG     H13 4705   3.557   3.712   2.305 -0.1055  0.4965 -0.4169
  205DG     H14 4706   3.440   3.783   2.426  0.4222 -0.1055  0.0458
  205DG     H15 4707   3.751   3.261   2.629  1.9136 -0.1376  0.1934
  205DG     H16 4708   3.722   3.280   2.454 -1.6718  1.2059 -0.3346
  205DG     C17 4709   3.486   3.571   2.452 -0.2496 -0.2498  0.9253
  205DG     C18 4710   3.635   3.435   2.573  0.8815 -0.1322 -0.7990
  205DG     O19 4711   3.604   3.493   2.454 -0.6274  0.8353  0.2420
  205DG     H20 4712   3.425   3.543   2.366  0.6350  2.3561 -0.6965
  205DG     H21 4713   3.414   3.565   2.533 -2.6811 -0.5906 -1.1428
  205DG     H22 4714   3.554   3.383   2.625  1.6988  0.2386  0.9446
  205DG     H23 4715   3.668   3.512   2.644 -2.2135 -1.2915  2.2194
  206DG      C1 4716   1.354   4.134   3.457 -0.3913 -0.3852 -0.4347
  206DG      C2 4717   1.646   4.310   2.863  0.1000 -0.1411 -0.9795
  206DG      H3 4718   1.331   4.123   3.563  2.0205 -0.5445  0.1135
  206DG      H4 4719   1.378   4.038   3.411 -1.3213 -0.2460 -1.2583
  206DG      H5 4720   1.264   4.176   3.410 -1.6851 -2.4640  0.0659
  206DG      H6 4721   1.544   4.306   2.825  0.4101  2.7548 -2.3757
  206DG      H7 4722   1.685   4.392   2.803 -1.2800  1.8322  0.6434
  206DG      H8 4723   1.693   4.213   2.852  0.4347 -0.5482  2.6209
  206DG      O9 4724   1.453   4.237   3.425  0.1882  0.2359  0.1352
  206DG     O10 4725   1.644   4.340   3.009  0.0005  0.0933 -0.2168
  206DG     C11 4726   1.581   4.193   3.470 -0.0327 -0.4376 -0.0665
  206DG     C12 4727   1.785   4.341   3.044 -0.5580 -0.1153  0.8677
  206DG     H13 4728   1.614   4.092   3.444  1.4633  0.0208 -0.0238
  206DG     H14 4729   1.601   4.194   3.577 -1.0857  0.9054  0.1468
  206DG     H15 4730   1.843   4.411   2.984  0.0840 -0.9085  0.5505
  206DG     H16 4731   1.839   4.247   3.030 -0.7060 -0.6599  3.4435
  206DG     C17 4732   1.686   4.288   3.398 -0.7499  0.0310  0.1583
  206DG     C18 4733   1.785   4.367   3.194  0.3277  0.1414  0.7665
  206DG     O19 4734   1.677   4.290   3.257 -0.1482 -0.3064  0.2740
  206DG     H20 4735   1.786   4.256   3.426 -0.9233  0.6110  1.5428
  206DG     H21 4736   1.675   4.392   3.432  0.2381 -0.1934  1.2181
  206DG     H22 4737   1.885   4.334   3.219  0.2103 -0.6842  0.1712
  206DG     H23 4738   1.768   4.473   3.215 -0.3245 -0.1549  1.7532
  207DG      C1 4739   5.105   2.516   0.675 -0.6236  0.9167  0.5009
  207DG      C2 4740   5.734   2.287   0.552 -0.1825  0.4027 -0.7603
  207DG      H3 4741   5.046   2.583   0.613  0.9609  1.3165 -0.6410
  207DG      H4 4742   5.076   2.524   0.780 -0.2556 -0.0458  0.6894
  207DG      H5 4743   5.088   2.413   0.643  1.6697  0.8965 -0.8717
  207DG      H6 4744   5.835   2.306   0.517  0.4895  0.5392  1.0981
  207DG      H7 4745   5.759   2.230   0.642 -2.4381 -0.2698 -0.4733
  207DG      H8 4746   5.674   2.221   0.489 -0.6247 -0.6601  0.6850
  207DG      O9 4747   5.242   2.535   0.649 -0.2424 -0.1634 -0.0873
  207DG     O10 4748   5.669   2.407   0.571 -0.3438  0.0545 -0.5634
  207DG     C11 4749   5.274   2.656   0.716  0.3672  0.1282  0.4839
  207DG     C12 4750   5.734   2.494   0.665 -0.0103  0.4050 -0.0700
  207DG     H13 4751   5.271   2.648   0.825 -0.7353 -2.0171  0.3593
  207DG     H14 4752   5.204   2.736   0.696 -0.3584 -0.8185 -0.8745
  207DG     H15 4753   5.836   2.518   0.634 -0.1614 -0.3103 -1.1737
  207DG     H16 4754   5.734   2.462   0.769  2.8143 -0.5194 -0.2794
  207DG     C17 4755   5.422   2.701   0.686 -0.0966  0.2379 -0.4428
  207DG     C18 4756   5.649   2.625   0.664  0.2492  0.7545  0.2876
  207DG     O19 4757   5.505   2.589   0.689 -0.4804 -0.4925  0.9502
  207DG     H20 4758   5.453   2.774   0.761  1.7622  0.4571 -1.3656
  207DG     H21 4759   5.428   2.755   0.591  2.7756  2.3190  0.7652
  207DG     H22 4760   5.686   2.700   0.733 -1.0170  1.0214  0.7044
  207DG     H23 4761   5.647   2.671   0.565  3.0235 -1.1156 -0.7678
  208DG      C1 4762   0.668   3.339   2.030  0.0278 -0.1347 -0.0454
  208DG      C2 4763   0.735   3.284   1.216 -0.5828 -0.1089 -0.2774
  208DG      H3 4764   0.705   3.384   2.122 -0.4945  0.8281 -0.2946
  208DG      H4 4765   0.656   3.231   2.041 -2.3067 -0.0466 -1.1852
  208DG      H5 4766   0.565   3.363   2.007 -0.0288 -0.7455 -0.4844
  208DG      H6 4767   0.752   3.329   1.119  0.8472 -1.4907 -0.7065
  208DG      H7 4768   0.831   3.263   1.262 -1.4310 -2.2923  0.6037
  208DG      H8 4769   0.684   3.190   1.196 -0.8068 -0.0440 -0.0155
  208DG      O9 4770   0.758   3.375   1.924  0.3677 -0.1482 -0.1585
  208DG     O10 4771   0.657   3.365   1.305 -0.4276  0.2568 -0.2055
  208DG     C11 4772   0.700   3.363   1.793 -0.4131 -0.0328  0.2196
  208DG     C12 4773   0.722   3.485   1.339 -0.0874 -0.1462 -0.2580
  208DG     H13 4774   0.604   3.415   1.788  1.5517  3.9812  0.0599
  208DG     H14 4775   0.684   3.259   1.765  2.7564 -0.3054 -0.9037
  208DG     H15 4776   0.642   3.558   1.350  0.4097  0.3986 -0.2271
  208DG     H16 4777   0.772   3.513   1.247  2.8153 -1.0312  0.9376
  208DG     C17 4778   0.798   3.426   1.692  0.2380  0.4526  0.8104
  208DG     C18 4779   0.816   3.470   1.453 -0.2430 -0.4724 -1.0599
  208DG     O19 4780   0.731   3.428   1.560  0.1610  0.4134 -0.1399
  208DG     H20 4781   0.885   3.361   1.686  1.0548  1.6369 -3.4838
  208DG     H21 4782   0.838   3.520   1.732 -2.0007  2.1071 -0.6200
  208DG     H22 4783   0.896   3.395   1.448 -0.6383 -1.2302  2.0467
  208DG     H23 4784   0.860   3.569   1.466 -1.4886  0.1567 -1.5290
  209DG      C1 4785   4.367   1.129   5.500  0.2505  0.2854 -0.0225
  209DG      C2 4786   4.243   1.695   5.785  0.1580 -0.7667  0.2659
  209DG      H3 4787   4.445   1.181   5.445 -0.1561 -0.0845 -0.9682
  209DG      H4 4788   4.367   1.025   5.465  1.8791  0.1863  0.1587
  209DG      H5 4789   4.398   1.131   5.604  0.0457 -2.5873  0.1839
  209DG      H6 4790   4.337   1.723   5.738 -0.6841 -0.7623 -1.5106
  209DG      H7 4791   4.186   1.786   5.804  2.5671  0.7798  0.5341
  209DG      H8 4792   4.258   1.647   5.882  1.2292 -0.6888  0.1460
  209DG      O9 4793   4.252   1.203   5.474  0.1521  0.4071  0.2810
  209DG     O10 4794   4.180   1.621   5.683 -0.2509  0.3524 -0.2614
  209DG     C11 4795   4.126   1.147   5.511  0.7113 -0.3228 -0.0219
  209DG     C12 4796   4.053   1.570   5.709  0.4090  0.4137 -0.5045
  209DG     H13 4797   4.133   1.112   5.613  0.6125 -1.3997 -0.3766
  209DG     H14 4798   4.097   1.062   5.449 -1.0888 -0.2202  0.6387
  209DG     H15 4799   3.990   1.658   5.724  1.2968  0.9134  0.3909
  209DG     H16 4800   4.059   1.512   5.801  0.7908  0.5033 -0.4735
  209DG     C17 4801   4.022   1.262   5.500  0.5982  0.0514  0.5910
  209DG     C18 4802   3.985   1.484   5.595 -0.1190  0.4708 -0.1710
  209DG     O19 4803   4.068   1.373   5.581 -0.5283 -0.0888 -0.3803
  209DG     H20 4804   3.927   1.228   5.541 -2.2633  2.8021 -3.0102
  209DG     H21 4805   4.001   1.283   5.394  2.0846  2.4689  0.6899
  209DG     H22 4806   3.883   1.452   5.613  0.0081 -0.4079 -0.9166
  209DG     H23 4807   3.983   1.530   5.496 -1.1330 -1.3453 -1.0598
  210DG      C1 4808   5.057   0.927   3.092 -0.0953 -0.5467  0.1288
  210DG      C2 4809   4.642   0.552   2.788  0.9230 -0.0476  0.3347
  210DG      H3 4810   5.081   0.957   3.195  0.0095  0.0751 -0.0736
  210DG      H4 4811   5.115   0.989   3.025 -0.9660 -0.0026 -0.1287
  210DG      H5 4812   5.096   0.827   3.074 -2.4957 -1.7530  1.1274
  210DG      H6 4813   4.706   0.621   2.733  0.2399  1.1978  1.0620
  210DG      H7 4814   4.690   0.550   2.886  1.8101  0.2610 -0.0834
  210DG      H8 4815   4.633   0.457   2.735 -1.1784  0.7515 -0.8574
  210DG      O9 4816   4.919   0.926   3.055  0.1607 -0.3017 -0.6347
  210DG     O10 4817   4.506   0.594   2.798  0.2733 -0.4759  0.1637
  210DG     C11 4818   4.827   0.857   3.135  0.1880  0.0448 -0.2920
  210DG     C12 4819   4.488   0.736   2.807 -0.2573 -0.1610 -0.0612
  210DG     H13 4820   4.837   0.882   3.241  3.3761 -1.9705  0.0227
  210DG     H14 4821   4.855   0.752   3.138  0.7675  0.1721 -1.0440
  210DG     H15 4822   4.383   0.752   2.785 -0.6761  0.3762  2.1136
  210DG     H16 4823   4.541   0.791   2.729  0.5465  1.2387  1.4142
  210DG     C17 4824   4.686   0.879   3.076  0.0973  0.1917  0.1996
  210DG     C18 4825   4.521   0.784   2.944  0.2179 -0.7178  0.7470
  210DG     O19 4826   4.661   0.797   2.966  0.6260 -0.3439 -0.5070
  210DG     H20 4827   4.676   0.985   3.051 -1.3513 -0.2260 -1.1443
  210DG     H21 4828   4.621   0.839   3.153 -0.5606 -0.3855 -0.6426
  210DG     H22 4829   4.480   0.885   2.953 -2.1467 -1.6072  0.6404
  210DG     H23 4830   4.468   0.722   3.016 -1.7748 -1.0116 -0.8569
  211DG      C1 4831   0.517   4.939   3.374  0.4215 -0.0718 -0.4715
  211DG      C2 4832   0.159   5.029   2.831 -0.2533  0.8813  0.1650
  211DG      H3 4833   0.574   4.856   3.332  0.6453 -0.4128  0.4877
  211DG      H4 4834   0.550   4.936   3.478 -1.0498 -0.9485  0.0008
  211DG      H5 4835   0.549   5.037   3.337 -2.1932  0.9835 -0.1491
  211DG      H6 4836   0.128   5.134   2.831 -0.3011  0.8789 -1.1555
  211DG      H7 4837   0.258   4.997   2.799 -1.1781 -2.2831  0.1703
  211DG      H8 4838   0.106   4.977   2.752  0.7915  0.7353 -0.4569
  211DG      O9 4839   0.384   4.909   3.343 -0.0255 -0.1456  0.2956
  211DG     O10 4840   0.153   4.980   2.967  0.4634 -0.1416 -0.5242
  211DG     C11 4841   0.297   4.993   3.421 -0.4262 -0.2533  0.1779
  211DG     C12 4842   0.023   5.000   3.026 -0.4966 -0.2240  0.3306
  211DG     H13 4843   0.322   5.094   3.389  0.1894 -0.5071 -0.1603
  211DG     H14 4844   0.316   4.997   3.528 -1.6732  0.5911  0.3869
  211DG     H15 4845  -0.042   4.943   2.960 -1.0025  1.4058 -0.6544
  211DG     H16 4846   0.001   5.106   3.011 -2.0667 -0.3866  1.3438
  211DG     C17 4847   0.151   4.957   3.371 -0.0733  0.2435 -0.2468
  211DG     C18 4848   0.019   4.953   3.167 -0.4913 -0.6482 -0.1460
  211DG     O19 4849   0.144   4.992   3.231  0.8191 -0.5871  0.4551
  211DG     H20 4850   0.069   5.009   3.421 -1.2759 -2.1979  0.4832
  211DG     H21 4851   0.138   4.849   3.382 -0.5565  0.2371 -0.8512
  211DG     H22 4852  -0.065   5.001   3.217 -0.0107  0.8005 -0.6645
  211DG     H23 4853   0.012   4.845   3.175  2.0906 -0.9889 -1.3431
  212DG      C1 4854   1.370   0.925   3.019  0.0878 -0.6281 -0.4464
  212DG      C2 4855   1.396   0.359   3.130 -1.0296  0.3620 -0.6228
  212DG      H3 4856   1.387   1.002   2.944 -2.7043  0.5653  0.0179
  212DG      H4 4857   1.426   0.929   3.112 -0.3680  0.7236 -0.2100
  212DG      H5 4858   1.267   0.941   3.053 -0.1052 -2.0489 -0.2851
  212DG      H6 4859   1.443   0.418   3.208 -0.2444 -2.0111  0.8170
  212DG      H7 4860   1.396   0.253   3.155  2.1405 -0.1983 -2.4861
  212DG      H8 4861   1.456   0.366   3.040  1.2676 -0.1838  0.7838
  212DG      O9 4862   1.388   0.799   2.961  0.4223  0.2795  0.1054
  212DG     O10 4863   1.258   0.386   3.117 -0.5565  0.5257 -0.0628
  212DG     C11 4864   1.308   0.778   2.849  0.0810 -0.4055  0.5478
  212DG     C12 4865   1.197   0.331   2.999 -0.1478 -0.0302 -0.5582
  212DG     H13 4866   1.337   0.845   2.768  1.4650 -0.1526  1.2222
  212DG     H14 4867   1.209   0.816   2.876 -0.5061 -1.1894 -0.4361
  212DG     H15 4868   1.089   0.334   3.017 -0.1438 -1.5553 -0.1448
  212DG     H16 4869   1.212   0.224   2.986  1.8685  0.4063 -2.3219
  212DG     C17 4870   1.304   0.633   2.807 -0.0976  0.5937 -0.2814
  212DG     C18 4871   1.240   0.406   2.870 -0.7228  0.9870  0.0058
  212DG     O19 4872   1.254   0.546   2.903  0.2013 -0.0097 -0.1515
  212DG     H20 4873   1.408   0.607   2.784  0.3423  0.5839  1.5453
  212DG     H21 4874   1.243   0.630   2.717  1.6832  0.6579 -1.5408
  212DG     H22 4875   1.340   0.374   2.841  0.5329  3.6750  1.0202
  212DG     H23 4876   1.165   0.395   2.792 -1.1332  0.4271  0.4657
  213DG      C1 4877   2.764   5.221   3.163  0.9652 -0.6085 -0.4552
  213DG      C2 4878   2.132   5.428   3.168  0.5364  0.4176  0.0441
  213DG      H3 4879   2.713   5.125   3.162 -0.1424 -0.2306  3.2054
  213DG      H4 4880   2.821   5.231   3.256  0.9856 -0.5033 -0.4789
  213DG      H5 4881   2.836   5.220   3.081  1.3352  0.1795 -0.1456
  213DG      H6 4882   2.142   5.320   3.158  2.7429  0.3762  1.7304
  213DG      H7 4883   2.092   5.436   3.269  1.1533 -1.3727  0.4780
  213DG      H8 4884   2.072   5.463   3.085  0.7424 -0.8792 -0.6858
  213DG      O9 4885   2.680   5.327   3.137  0.6760 -0.0786  0.1024
  213DG     O10 4886   2.268   5.474   3.144  0.2321 -0.1551  0.2167
  213DG     C11 4887   2.741   5.455   3.143 -0.3816  0.2508 -0.0361
  213DG     C12 4888   2.285   5.617   3.170 -0.2418 -0.1652  0.5043
  213DG     H13 4889   2.840   5.453   3.098 -0.0189 -1.0932  0.7888
  213DG     H14 4890   2.766   5.479   3.246 -0.2101  2.8128 -0.6001
  213DG     H15 4891   2.278   5.634   3.277 -0.6629  2.1742  0.1541
  213DG     H16 4892   2.205   5.667   3.115  0.7584 -0.6868 -1.5275
  213DG     C17 4893   2.649   5.567   3.092  0.2022 -0.3679 -0.1563
  213DG     C18 4894   2.427   5.646   3.102 -0.2168  0.3977 -0.1959
  213DG     O19 4895   2.523   5.561   3.162  0.3038 -0.0005  0.4583
  213DG     H20 4896   2.619   5.578   2.988 -2.7903  1.2691  0.7532
  213DG     H21 4897   2.697   5.664   3.103  0.8434 -0.7602  0.5932
  213DG     H22 4898   2.416   5.651   2.993  3.1830 -1.7663 -0.7711
  213DG     H23 4899   2.455   5.749   3.127  0.9099 -0.2934  1.4925
  214DG      C1 4900   0.061   2.185   3.439  0.3836 -0.7053  0.2485
  214DG      C2 4901   0.397   1.886   3.819 -0.4370  0.1178  0.2332
  214DG      H3 4902  -0.010   2.128   3.500 -0.1646 -2.0121 -1.5314
  214DG      H4 4903   0.016   2.180   3.340 -1.5407  2.0847  0.8688
  214DG      H5 4904   0.054   2.291   3.462 -1.5683 -0.7329 -0.0641
  214DG      H6 4905   0.388   1.993   3.839 -0.5144  0.5988 -2.0692
  214DG      H7 4906   0.299   1.839   3.809 -0.8113  0.9605 -0.1278
  214DG      H8 4907   0.437   1.836   3.908  1.1724  0.8401 -0.0451
  214DG      O9 4908   0.196   2.129   3.454  0.0755 -0.5300 -0.1892
  214DG     O10 4909   0.477   1.861   3.707  0.3377 -0.0282  0.4100
  214DG     C11 4910   0.284   2.168   3.354  0.6157  0.2573  0.9319
  214DG     C12 4911   0.403   1.897   3.584 -0.3903 -0.4906  0.0830
  214DG     H13 4912   0.289   2.277   3.363 -0.8924  0.3164  1.4588
  214DG     H14 4913   0.233   2.142   3.261  1.3852  1.5988  0.1018
  214DG     H15 4914   0.362   1.996   3.604  1.1424 -0.1064  1.4718
  214DG     H16 4915   0.319   1.829   3.568  0.0099 -0.9536 -0.0577
  214DG     C17 4916   0.427   2.112   3.365  0.1166 -0.7978 -0.2466
  214DG     C18 4917   0.480   1.899   3.452 -0.1124  0.0630  0.7846
  214DG     O19 4918   0.411   1.969   3.350 -0.3587 -0.2736 -0.1093
  214DG     H20 4919   0.465   2.152   3.458 -0.7708  0.3781 -0.3608
  214DG     H21 4920   0.490   2.133   3.279 -0.3654 -2.0601 -0.9428
  214DG     H22 4921   0.570   1.953   3.482  0.8738 -1.1992  0.1719
  214DG     H23 4922   0.521   1.800   3.431 -0.8865  0.0939 -1.1171
  215DG      C1 4923   1.318   0.130   0.438 -0.0377 -0.1835 -0.2951
  215DG      C2 4924   0.842  -0.320   0.363 -0.0104 -0.0451  0.5686
  215DG      H3 4925   1.376   0.214   0.478  0.3120 -1.4089  1.9815
  215DG      H4 4926   1.328   0.128   0.330  2.0080  0.0056 -0.1509
  215DG      H5 4927   1.364   0.037   0.472 -0.9420 -1.2551 -1.8865
  215DG      H6 4928   0.764  -0.298   0.436 -0.9856 -2.6701  0.4334
  215DG      H7 4929   0.798  -0.382   0.285  1.9877  1.0487 -1.5529
  215DG      H8 4930   0.910  -0.391   0.410  0.4473  2.2747  3.7547
  215DG      O9 4931   1.186   0.127   0.487  0.5763  0.1616  0.1346
  215DG     O10 4932   0.919  -0.207   0.327  0.0172 -0.5792 -0.4076
  215DG     C11 4933   1.109   0.234   0.437  0.4206 -0.0065  0.2668
  215DG     C12 4934   0.828  -0.119   0.268 -0.1884  0.3259  0.4120
  215DG     H13 4935   1.163   0.324   0.408 -2.3213  1.5541 -0.3118
  215DG     H14 4936   1.026   0.258   0.503  1.9527  0.4045  2.1586
  215DG     H15 4937   0.753  -0.091   0.342 -1.2418 -0.5363 -0.2954
  215DG     H16 4938   0.784  -0.175   0.185 -0.6723  0.8552  0.3042
  215DG     C17 4939   1.052   0.188   0.306  0.0172 -0.2277 -0.4225
  215DG     C18 4940   0.896   0.017   0.217  0.3292  0.3733  0.4397
  215DG     O19 4941   0.976   0.069   0.325  0.1795  0.1616  0.3615
  215DG     H20 4942   1.122   0.165   0.225  2.6029 -3.1007  2.3352
  215DG     H21 4943   0.989   0.266   0.265 -1.9478 -1.3404  0.3223
  215DG     H22 4944   0.960  -0.006   0.132  1.3739  1.1606  0.9815
  215DG     H23 4945   0.826   0.091   0.179  1.7354  1.5475  0.0470
  216DG      C1 4946   4.885   0.623   4.754  0.1489 -0.4008 -0.0373
  216DG      C2 4947   4.222   0.965   5.166  0.2551  0.0950  0.0949
  216DG      H3 4948   4.811   0.626   4.675  0.0994  1.0954  0.0320
  216DG      H4 4949   4.892   0.535   4.818  1.3718 -0.1164  0.2433
  216DG      H5 4950   4.977   0.616   4.696 -1.4224 -0.3042 -2.6823
  216DG      H6 4951   4.176   0.885   5.224  0.7420 -0.0509  0.2826
  216DG      H7 4952   4.220   1.046   5.239  4.7021  0.7699 -0.3167
  216DG      H8 4953   4.148   0.978   5.087  1.3060 -2.0284 -1.3276
  216DG      O9 4954   4.874   0.745   4.834 -0.1156 -0.0906  0.3452
  216DG     O10 4955   4.351   0.932   5.128  0.1372 -0.1429  0.0987
  216DG     C11 4956   4.748   0.751   4.906 -0.4995 -0.5330  0.2741
  216DG     C12 4957   4.430   1.042   5.090  0.6190 -0.1553  0.1193
  216DG     H13 4958   4.733   0.664   4.969  0.3209 -0.3551  0.7325
  216DG     H14 4959   4.660   0.745   4.843  0.0881  0.1760 -0.6461
  216DG     H15 4960   4.418   1.127   5.158 -3.7924  0.1780 -0.7687
  216DG     H16 4961   4.387   1.084   4.999  0.9247 -0.1004 -0.0013
  216DG     C17 4962   4.745   0.881   4.991  0.1703 -0.1091 -0.8345
  216DG     C18 4963   4.578   1.009   5.096 -0.4055 -0.5144  0.0470
  216DG     O19 4964   4.605   0.899   5.014 -0.3313  0.3557  0.1946
  216DG     H20 4965   4.785   0.971   4.945 -0.6042  1.7167  1.8220
  216DG     H21 4966   4.799   0.862   5.084 -1.5888  1.1780  0.5320
  216DG     H22 4967   4.627   1.092   5.045  1.5032 -1.0911  0.8359
  216DG     H23 4968   4.619   0.993   5.196  0.2582  0.0997 -0.1192
  217DG      C1 4969   0.382   3.221   4.993 -0.3535 -0.4551  0.4024
  217DG      C2 4970   0.916   3.192   4.681 -0.3486  0.0966 -0.4678
  217DG      H3 4971   0.384   3.113   5.009 -0.5586 -0.6021 -0.4849
  217DG      H4 4972   0.330   3.246   4.901  0.8302  3.0971  0.5633
  217DG      H5 4973   0.331   3.268   5.076  1.2867  0.8817  0.7159
  217DG      H6 4974   0.880   3.283   4.729 -1.1552 -1.3885  1.9059
  217DG      H7 4975   1.022   3.213   4.673 -0.0455 -0.0408  2.2505
  217DG      H8 4976   0.865   3.181   4.586 -0.0889 -0.9451 -0.4955
  217DG      O9 4977   0.517   3.258   4.984 -0.4969  0.0517 -0.4981
  217DG     O10 4978   0.878   3.076   4.757 -0.3259  0.8796  0.0918
  217DG     C11 4979   0.584   3.275   5.113 -0.2127 -0.1622  0.3626
  217DG     C12 4980   0.950   3.082   4.882  0.6789  0.1917  0.1151
  217DG     H13 4981   0.559   3.190   5.177  0.1540  1.3905  2.6726
  217DG     H14 4982   0.555   3.370   5.158  0.9418  0.2968  0.1762
  217DG     H15 4983   1.056   3.076   4.857  0.9403  0.4855  1.1030
  217DG     H16 4984   0.929   2.990   4.936 -0.3966  1.2870  1.6434
  217DG     C17 4985   0.738   3.290   5.100  0.9349  0.2021 -0.2544
  217DG     C18 4986   0.916   3.193   4.978  0.7153 -0.2260 -0.4358
  217DG     O19 4987   0.778   3.179   5.013  0.4181 -0.0483  0.0072
  217DG     H20 4988   0.787   3.284   5.197  1.5921  0.6567 -0.5498
  217DG     H21 4989   0.759   3.386   5.053  0.5137 -1.2855 -3.7750
  217DG     H22 4990   0.976   3.201   5.069 -1.8720  0.3603  1.3453
  217DG     H23 4991   0.941   3.286   4.928  1.2109  0.4514  1.0113
  218DG      C1 4992   4.308   3.244   4.327 -0.4689  0.0386 -0.4149
  218DG      C2 4993   4.702   3.620   4.913 -0.8367 -0.0778  0.0969
  218DG      H3 4994   4.208   3.277   4.355 -1.0834 -1.0842 -1.1778
  218DG      H4 4995   4.297   3.138   4.305 -2.4180  0.2153 -0.4473
  218DG      H5 4996   4.333   3.313   4.246 -0.4886 -0.9050 -1.2501
  218DG      H6 4997   4.713   3.726   4.890 -2.6422  0.0476 -0.3870
  218DG      H7 4998   4.598   3.627   4.946 -0.9165 -0.3317 -0.0987
  218DG      H8 4999   4.767   3.586   4.994 -0.0127 -1.2786 -1.0366
  218DG      O9 5000   4.401   3.268   4.432  0.3280  0.2110  0.0484
  218DG     O10 5001   4.722   3.534   4.800  0.4080 -0.2016  0.0394
  218DG     C11 5002   4.532   3.276   4.376  0.8802 -0.0692 -0.2403
  218DG     C12 5003   4.680   3.405   4.830 -0.9021 -0.0045 -0.0624
  218DG     H13 5004   4.544   3.375   4.331  0.0123  0.8339  1.4368
  218DG     H14 5005   4.543   3.212   4.288  1.9906  1.4703 -1.2886
  218DG     H15 5006   4.573   3.409   4.852 -0.3499  2.0531  2.7217
  218DG     H16 5007   4.736   3.354   4.908  1.3295  0.7632 -1.0689
  218DG     C17 5008   4.634   3.266   4.490  0.5980 -0.4712 -0.8637
  218DG     C18 5009   4.694   3.323   4.702 -0.1022 -0.4414 -0.5642
  218DG     O19 5010   4.600   3.358   4.590 -0.0137 -0.3127  0.3542
  218DG     H20 5011   4.729   3.298   4.447  0.8216  0.4992  0.3200
  218DG     H21 5012   4.643   3.161   4.520 -1.7315 -0.0036  1.8516
  218DG     H22 5013   4.799   3.329   4.673  0.6126  0.9007  1.9921
  218DG     H23 5014   4.671   3.222   4.734 -0.6695  0.1928  1.1275
  219DG      C1 5015   0.329   1.665   3.178  0.1974 -0.0705 -0.5158
  219DG      C2 5016   0.373   1.213   3.409  0.5215  0.2142 -0.1311
  219DG      H3 5017   0.234   1.651   3.229 -0.2330 -0.7329 -1.4714
  219DG      H4 5018   0.315   1.641   3.073  2.4875 -0.1616 -0.8541
  219DG      H5 5019   0.359   1.769   3.190  1.5849 -0.4061 -0.8481
  219DG      H6 5020   0.307   1.198   3.494  1.5788  0.4075  0.7415
  219DG      H7 5021   0.404   1.317   3.415  3.4493 -0.4807 -1.2005
  219DG      H8 5022   0.315   1.184   3.321 -1.9834 -1.5744  1.9470
  219DG      O9 5023   0.434   1.594   3.247 -0.4009 -0.2772  0.2343
  219DG     O10 5024   0.482   1.122   3.424  0.3313 -0.7159  0.2974
  219DG     C11 5025   0.553   1.588   3.168  0.6821 -0.1720  0.4022
  219DG     C12 5026   0.583   1.139   3.330 -0.5068  0.2918 -0.6184
  219DG     H13 5027   0.591   1.690   3.154  1.6976 -0.5003  0.6427
  219DG     H14 5028   0.526   1.548   3.071  0.3869 -2.0289  1.2092
  219DG     H15 5029   0.551   1.128   3.227  1.9733 -0.5717 -1.3743
  219DG     H16 5030   0.652   1.055   3.339  0.8863  1.4029 -0.4712
  219DG     C17 5031   0.657   1.494   3.230 -0.1900 -0.3637 -0.9740
  219DG     C18 5032   0.659   1.274   3.319  0.2106 -0.4354 -0.1999
  219DG     O19 5033   0.588   1.370   3.243 -0.3369  0.0473  0.3275
  219DG     H20 5034   0.686   1.545   3.323 -1.6968 -1.7946  0.3442
  219DG     H21 5035   0.733   1.487   3.152  0.3162  0.0271 -0.5266
  219DG     H22 5036   0.679   1.309   3.420 -1.4998  1.3913 -0.4341
  219DG     H23 5037   0.756   1.250   3.276  0.3364 -2.6653  1.1620
  220DG      C1 5038   3.683   3.203   3.705 -0.0857 -0.3587 -0.0202
  220DG      C2 5039   3.887   2.882   3.126  0.2206  0.3038 -0.0699
  220DG      H3 5040   3.689   3.311   3.693 -0.5265 -0.4407 -1.0930
  220DG      H4 5041   3.692   3.176   3.810 -1.4542  0.4668  0.3416
  220DG      H5 5042   3.582   3.180   3.669 -0.2553  1.6670 -0.9579
  220DG      H6 5043   3.845   2.784   3.150 -1.7859  1.6075  2.1867
  220DG      H7 5044   3.796   2.938   3.101  0.7933  1.6463  0.7483
  220DG      H8 5045   3.963   2.865   3.050 -0.4222  1.4307 -1.0118
  220DG      O9 5046   3.783   3.149   3.624 -0.7008 -0.4490 -0.7437
  220DG     O10 5047   3.934   2.953   3.242  0.1888  0.2309 -0.0564
  220DG     C11 5048   3.915   3.197   3.667 -0.1241  0.1748  0.0720
  220DG     C12 5049   4.026   2.880   3.326  0.0808  0.7283 -0.3047
  220DG     H13 5050   3.945   3.140   3.755 -0.4543  0.8067  0.5926
  220DG     H14 5051   3.931   3.303   3.683  2.5402 -0.6619  4.8688
  220DG     H15 5052   4.109   2.835   3.271  0.4681 -0.1300  0.9389
  220DG     H16 5053   3.974   2.802   3.380 -1.9159  0.7496 -2.0840
  220DG     C17 5054   4.026   3.164   3.559 -0.3707  0.3152  0.1532
  220DG     C18 5055   4.087   2.990   3.411 -0.1313 -0.2100 -0.5312
  220DG     O19 5056   3.993   3.038   3.502 -0.1617  0.1382  0.6131
  220DG     H20 5057   4.130   3.176   3.588 -0.6318  1.2614  0.7660
  220DG     H21 5058   4.020   3.238   3.479 -0.7730 -0.2328 -0.3323
  220DG     H22 5059   4.175   2.948   3.461 -0.0957 -0.8258 -1.1007
  220DG     H23 5060   4.123   3.072   3.349 -0.9037 -0.4100 -1.2499
  221DG      C1 5061   3.896   0.270   4.288  0.0365  0.0531 -0.3856
  221DG      C2 5062   3.760   0.106   4.921  0.9500  0.0853  0.1876
  221DG      H3 5063   3.791   0.263   4.257  0.3153 -0.6487 -1.2401
  221DG      H4 5064   3.944   0.172   4.282  1.8214  0.7400  1.5720
  221DG      H5 5065   3.945   0.326   4.209  2.9134 -0.8230  0.6614
  221DG      H6 5066   3.660   0.101   4.876  0.1255  0.5278  1.8918
  221DG      H7 5067   3.774   0.000   4.942 -0.4634  0.3159  2.6486
  221DG      H8 5068   3.742   0.158   5.015  0.1787  0.1247  0.0298
  221DG      O9 5069   3.907   0.314   4.416 -0.4686 -0.1677  0.0197
  221DG     O10 5070   3.843   0.163   4.823 -0.2466  0.0455 -0.3082
  221DG     C11 5071   4.033   0.374   4.436  0.9967 -0.5079  0.3311
  221DG     C12 5072   3.980   0.170   4.864 -1.2172 -0.4959  0.3081
  221DG     H13 5073   4.037   0.467   4.379  0.9295 -0.7765 -0.1185
  221DG     H14 5074   4.114   0.318   4.389 -0.4209 -1.4146 -1.1493
  221DG     H15 5075   4.020   0.076   4.828  1.0714  0.5772 -0.1540
  221DG     H16 5076   3.991   0.171   4.973 -0.4937 -0.2418  0.2386
  221DG     C17 5077   4.054   0.399   4.586 -0.0220 -0.0699 -0.3486
  221DG     C18 5078   4.041   0.296   4.795 -1.0033 -0.1438 -0.5704
  221DG     O19 5079   4.018   0.286   4.656  0.5455  0.3476 -0.1704
  221DG     H20 5080   3.985   0.477   4.617  1.3148  0.0520  2.6240
  221DG     H21 5081   4.150   0.443   4.613 -0.9148  0.9658  1.3040
  221DG     H22 5082   3.998   0.386   4.838  0.7775  0.6020 -0.2568
  221DG     H23 5083   4.149   0.296   4.808 -0.9179 -0.9043 -1.2225
  222DG      C1 5084   3.090   3.338   3.881 -0.5792 -0.2517  0.3473
  222DG      C2 5085   2.612   3.758   3.679  0.4528  0.5675  0.2094
  222DG      H3 5086   3.148   3.246   3.880  1.6079  0.9891 -3.2762
  222DG      H4 5087   3.051   3.334   3.983 -0.4994 -1.5529  0.3432
  222DG      H5 5088   3.160   3.421   3.867 -0.5241 -0.6155 -1.8313
  222DG      H6 5089   2.524   3.721   3.731  1.0267 -1.3959 -0.1434
  222DG      H7 5090   2.658   3.828   3.749  1.0579  0.4805 -0.0914
  222DG      H8 5091   2.576   3.817   3.595  1.1551  0.5896 -0.0880
  222DG      O9 5092   2.991   3.332   3.781  0.0186 -0.0928 -0.6678
  222DG     O10 5093   2.702   3.659   3.637 -0.7648 -0.1502 -1.0267
  222DG     C11 5094   3.036   3.298   3.651 -0.0772 -0.0333  0.0549
  222DG     C12 5095   2.651   3.574   3.541 -0.2188  0.1243  1.0262
  222DG     H13 5096   3.084   3.201   3.641  0.0144  0.0572 -0.4342
  222DG     H14 5097   3.106   3.376   3.622  1.6589 -0.0757  3.6192
  222DG     H15 5098   2.618   3.625   3.450  1.9543  1.4961  0.9508
  222DG     H16 5099   2.559   3.527   3.576 -1.2345 -0.9568 -2.5887
  222DG     C17 5100   2.917   3.312   3.548 -0.0543  0.0227 -1.0083
  222DG     C18 5101   2.758   3.476   3.487 -0.0083 -0.0882 -0.2328
  222DG     O19 5102   2.829   3.418   3.594 -0.0852 -0.1573 -0.3047
  222DG     H20 5103   2.849   3.228   3.537  0.1230  0.0070 -2.1133
  222DG     H21 5104   2.959   3.323   3.447  1.2342  0.5202 -0.4459
  222DG     H22 5105   2.703   3.400   3.431 -0.1549  0.0870 -0.3263
  222DG     H23 5106   2.835   3.529   3.432  1.4132 -2.1878 -0.3815
  223DG      C1 5107   4.843   1.674   5.094 -0.4182 -0.2331  0.5770
  223DG      C2 5108   5.201   1.826   5.609 -0.4615 -0.3023 -0.0934
  223DG      H3 5109   4.815   1.669   4.989  2.0479 -1.1232 -0.1091
  223DG      H4 5110   4.754   1.685   5.156 -1.4654  3.4472 -1.2911
  223DG      H5 5111   4.896   1.579   5.096 -0.1010 -0.0440  1.2340
  223DG      H6 5112   5.308   1.817   5.628 -0.2915  2.2474  0.4946
  223DG      H7 5113   5.166   1.898   5.684  0.2984  0.6484 -0.6341
  223DG      H8 5114   5.149   1.736   5.643 -1.2858  0.8285  1.7955
  223DG      O9 5115   4.922   1.787   5.129 -0.5874  0.6120  0.0144
  223DG     O10 5116   5.175   1.847   5.469  0.3623  0.1310 -0.0366
  223DG     C11 5117   5.006   1.836   5.029  0.3188  0.2586  0.0438
  223DG     C12 5118   5.262   1.943   5.408  0.0028  0.0813 -0.5527
  223DG     H13 5119   4.938   1.863   4.948  0.2853 -0.3206 -0.1252
  223DG     H14 5120   5.069   1.753   4.997  0.3850  1.3453 -3.0397
  223DG     H15 5121   5.359   1.896   5.393 -0.5890 -1.9723  1.5733
  223DG     H16 5122   5.273   2.019   5.485  1.0538 -1.3796  0.7878
  223DG     C17 5123   5.085   1.951   5.091 -0.8035 -0.0857  0.4900
  223DG     C18 5124   5.193   2.005   5.286 -1.2989  0.3798 -0.4529
  223DG     O19 5125   5.155   1.901   5.205  0.6480  0.0164 -0.1012
  223DG     H20 5126   5.013   2.028   5.119  0.4325  1.4010 -0.2815
  223DG     H21 5127   5.166   1.987   5.029  0.2024  0.4718  2.0525
  223DG     H22 5128   5.103   2.060   5.315 -1.8603 -0.3317 -0.8372
  223DG     H23 5129   5.260   2.067   5.226 -1.0365 -0.5788 -1.1625
  224DG      C1 5130   1.926   0.424   1.801 -0.6876 -0.0479 -0.1998
  224DG      C2 5131   2.440   0.594   2.289 -0.1789 -0.6347 -0.2149
  224DG      H3 5132   1.994   0.376   1.730  1.9830  0.5650  1.8157
  224DG      H4 5133   1.933   0.532   1.789 -0.8748  0.2122  1.8102
  224DG      H5 5134   1.822   0.396   1.784 -0.0447 -3.6397  0.8596
  224DG      H6 5135   2.438   0.581   2.397  1.0979  1.0172  0.0487
  224DG      H7 5136   2.533   0.576   2.235 -0.1843 -2.1937  0.2254
  224DG      H8 5137   2.414   0.699   2.281 -1.1151 -0.4823  3.2348
  224DG      O9 5138   1.973   0.387   1.929  0.3152 -0.4098  0.5056
  224DG     O10 5139   2.336   0.512   2.237 -0.2668  0.0975 -0.3351
  224DG     C11 5140   2.027   0.252   1.947  0.6650 -0.0554  0.1456
  224DG     C12 5141   2.369   0.376   2.260 -0.7267 -0.7949 -0.3061
  224DG     H13 5142   2.102   0.228   1.873  0.6616 -0.9003  0.4133
  224DG     H14 5143   1.949   0.180   1.923 -0.9417  1.4614  0.5877
  224DG     H15 5144   2.409   0.368   2.361  1.0243 -1.5290 -1.0301
  224DG     H16 5145   2.445   0.355   2.185 -2.0524 -0.4503 -1.8058
  224DG     C17 5146   2.094   0.219   2.079  0.5327 -0.0717  0.6925
  224DG     C18 5147   2.245   0.288   2.242  0.2741 -0.8929  0.5350
  224DG     O19 5148   2.198   0.303   2.114  0.5156 -0.3985  0.1522
  224DG     H20 5149   2.147   0.124   2.082 -0.9397 -0.9174  1.1020
  224DG     H21 5150   2.020   0.221   2.160  1.0300  0.5587  1.1413
  224DG     H22 5151   2.265   0.182   2.260  0.4567 -0.9264  0.1383
  224DG     H23 5152   2.169   0.315   2.315  1.0917  0.0732  1.0529
  225DG      C1 5153   0.232   5.152   4.597  0.1957 -0.2371  0.6771
  225DG      C2 5154  -0.150   5.329   4.172 -0.4196  0.3218 -0.0638
  225DG      H3 5155   0.315   5.222   4.609 -0.0716  0.4929 -1.3370
  225DG      H4 5156   0.260   5.087   4.514  0.3757  1.3715 -0.5846
  225DG      H5 5157   0.214   5.097   4.689  2.5802  0.7181  1.7738
  225DG      H6 5158  -0.121   5.241   4.115  1.3498  0.7075  0.1672
  225DG      H7 5159  -0.224   5.380   4.111 -0.2044  0.9404  0.1857
  225DG      H8 5160  -0.059   5.389   4.181  0.0169 -0.6557  3.6477
  225DG      O9 5161   0.111   5.229   4.556 -0.2011 -0.3819  0.1785
  225DG     O10 5162  -0.194   5.295   4.301 -0.6540  0.1195 -0.2140
  225DG     C11 5163   0.081   5.320   4.661 -0.4413  0.4738 -0.3144
  225DG     C12 5164  -0.241   5.413   4.367  0.3091  0.3534  0.8229
  225DG     H13 5165   0.162   5.392   4.670 -0.1844  0.3400 -1.3405
  225DG     H14 5166   0.061   5.270   4.756 -0.1378 -1.6125 -1.2924
  225DG     H15 5167  -0.333   5.447   4.320  1.0701 -0.1971 -1.2156
  225DG     H16 5168  -0.165   5.491   4.361  1.3335 -0.6722 -0.1560
  225DG     C17 5169  -0.048   5.394   4.610 -1.1178  0.2212 -0.5108
  225DG     C18 5170  -0.261   5.371   4.513 -0.5568 -0.0267 -0.0336
  225DG     O19 5171  -0.152   5.303   4.578  0.4106 -0.2120  0.1284
  225DG     H20 5172  -0.016   5.452   4.524  1.0908 -1.0270 -0.6202
  225DG     H21 5173  -0.090   5.458   4.687 -0.0580  1.7057 -1.1325
  225DG     H22 5174  -0.274   5.453   4.583 -1.9870 -0.7023  0.5227
  225DG     H23 5175  -0.353   5.314   4.518 -0.8147  0.1832 -1.7526
  226DG      C1 5176   3.185   2.368   5.095 -0.3016  0.1150  0.5843
  226DG      C2 5177   2.432   2.360   5.105 -0.3797 -0.5002  0.0105
  226DG      H3 5178   3.147   2.463   5.132 -1.1534 -0.9916  2.7486
  226DG      H4 5179   3.271   2.385   5.031 -1.6714  1.8030 -0.9414
  226DG      H5 5180   3.216   2.305   5.178  0.7223  0.6148  0.5997
  226DG      H6 5181   2.460   2.349   5.210  0.0931  2.0048  0.2146
  226DG      H7 5182   2.399   2.462   5.090  1.0653 -0.1213 -0.8150
  226DG      H8 5183   2.351   2.293   5.079 -1.0939  1.0449 -1.9212
  226DG      O9 5184   3.086   2.289   5.024  0.7506  0.6995  0.3067
  226DG     O10 5185   2.534   2.336   5.007 -0.3895  0.0734 -0.3095
  226DG     C11 5186   3.051   2.320   4.892 -0.1611 -0.0161  0.5925
  226DG     C12 5187   2.593   2.205   5.010  0.0062 -0.6357 -0.4802
  226DG     H13 5188   3.131   2.298   4.821 -0.6423 -1.1582  0.3851
  226DG     H14 5189   3.026   2.425   4.877 -0.6252 -0.1425  0.4700
  226DG     H15 5190   2.524   2.123   4.992  1.2360 -1.3639 -2.1959
  226DG     H16 5191   2.645   2.198   5.106  1.1812  0.3691 -1.0208
  226DG     C17 5192   2.927   2.247   4.847  0.0306  0.5288  0.5382
  226DG     C18 5193   2.702   2.183   4.903 -0.0889  0.5579 -0.4393
  226DG     O19 5194   2.812   2.272   4.931 -0.2935 -0.0358  0.3792
  226DG     H20 5195   2.952   2.142   4.836 -3.3791 -0.1654 -2.3218
  226DG     H21 5196   2.903   2.276   4.745  0.8757  0.1033  0.2088
  226DG     H22 5197   2.727   2.077   4.910  0.0925  0.6891  1.0727
  226DG     H23 5198   2.657   2.207   4.806  1.1438  0.5455 -1.0333
  227DG      C1 5199   2.972   4.965   0.197 -0.4187 -0.2288  0.3264
  227DG      C2 5200   3.003   5.026   0.820  0.1368  0.2739  0.2479
  227DG      H3 5201   3.025   4.946   0.103 -0.3285  1.1188  0.0782
  227DG      H4 5202   2.916   5.058   0.186 -0.3889 -0.4338 -2.2112
  227DG      H5 5203   2.913   4.875   0.214  1.4982 -1.7832 -0.7480
  227DG      H6 5204   2.932   5.096   0.779  1.2159  1.4840  0.3844
  227DG      H7 5205   2.954   4.931   0.841  1.3368 -0.5122 -0.4051
  227DG      H8 5206   3.024   5.065   0.920 -0.7375 -0.8357  0.8883
  227DG      O9 5207   3.078   4.953   0.290 -0.1806 -1.0687  0.0021
  227DG     O10 5208   3.109   5.001   0.738 -0.3097  0.3897 -0.0417
  227DG     C11 5209   3.192   5.030   0.253  1.0250 -0.4311 -0.1479
  227DG     C12 5210   3.182   5.120   0.713 -0.0371 -0.3631 -0.6885
  227DG     H13 5211   3.148   5.127   0.230 -0.8455 -0.8519  1.4604
  227DG     H14 5212   3.233   4.991   0.160 -1.7146 -1.8882 -0.8344
  227DG     H15 5213   3.231   5.150   0.806 -1.0756 -0.3485 -0.1292
  227DG     H16 5214   3.124   5.203   0.674  0.8091  0.3616 -0.4375
  227DG     C17 5215   3.284   5.046   0.370  0.1460  0.3475  0.1330
  227DG     C18 5216   3.283   5.089   0.602  0.0909  0.0941 -0.2831
  227DG     O19 5217   3.207   5.066   0.486  0.1888 -0.1297  0.2272
  227DG     H20 5218   3.359   5.120   0.338  0.4607 -0.9433 -2.4148
  227DG     H21 5219   3.342   4.957   0.396  1.1180  0.8748 -0.1463
  227DG     H22 5220   3.359   5.167   0.601  0.9165 -0.6935 -0.8674
  227DG     H23 5221   3.338   4.996   0.621  0.6473  0.6722  1.1024
  228DG      C1 5222   2.898   1.450   4.861  0.4997 -0.8211 -0.0252
  228DG      C2 5223   3.437   0.982   5.104  0.3053 -0.4062  0.2354
  228DG      H3 5224   2.831   1.367   4.882 -0.1223 -0.2624  0.2476
  228DG      H4 5225   2.877   1.484   4.760  0.3461  0.6882  0.4878
  228DG      H5 5226   2.891   1.527   4.938  2.2127 -1.3410  0.6932
  228DG      H6 5227   3.389   0.898   5.053 -4.7755  1.0961  1.9441
  228DG      H7 5228   3.541   0.973   5.072  0.8998 -0.9184  2.1843
  228DG      H8 5229   3.425   0.981   5.212  1.7712  0.0757  0.4324
  228DG      O9 5230   3.036   1.403   4.855 -0.2436 -0.4512  0.0529
  228DG     O10 5231   3.377   1.097   5.055 -0.5747  0.2655 -0.3348
  228DG     C11 5232   3.131   1.510   4.844  0.5783  0.4462  0.3752
  228DG     C12 5233   3.445   1.216   5.081  0.2510 -0.1776  0.1805
  228DG     H13 5234   3.106   1.571   4.931 -2.1043  0.0778 -0.0551
  228DG     H14 5235   3.121   1.574   4.757  1.2492 -0.7377 -0.6041
  228DG     H15 5236   3.551   1.190   5.077  0.1537 -0.4648 -1.4523
  228DG     H16 5237   3.411   1.261   5.174 -1.9564 -1.6340  0.1487
  228DG     C17 5238   3.271   1.460   4.856  0.0082  0.3637  0.1779
  228DG     C18 5239   3.428   1.312   4.968  0.6647 -1.2416 -0.1968
  228DG     O19 5240   3.295   1.371   4.968 -0.0476 -0.1765 -0.1849
  228DG     H20 5241   3.345   1.539   4.863  1.0123 -0.2092 -2.8502
  228DG     H21 5242   3.298   1.409   4.764 -0.1669  0.6914 -0.0570
  228DG     H22 5243   3.501   1.392   4.972 -0.2757 -0.3363 -0.6128
  228DG     H23 5244   3.436   1.257   4.875  0.4019  0.1506 -1.0713
  229DG      C1 5245   3.642   5.245   0.963  0.0078  0.5061 -0.4152
  229DG      C2 5246   4.375   5.003   0.881 -0.4410  0.0008 -0.1701
  229DG      H3 5247   3.576   5.287   1.038 -0.1969  1.3420 -1.0467
  229DG      H4 5248   3.583   5.179   0.899 -0.4926 -0.2177  0.7650
  229DG      H5 5249   3.693   5.320   0.902  0.1633  2.2021  1.6894
  229DG      H6 5250   4.348   4.911   0.830  1.2458 -0.3404 -0.5252
  229DG      H7 5251   4.400   5.069   0.797 -0.8792 -0.1778 -0.4415
  229DG      H8 5252   4.462   4.983   0.945 -2.2728 -0.0028  2.4762
  229DG      O9 5253   3.731   5.159   1.028 -0.5126 -0.0076 -0.0591
  229DG     O10 5254   4.270   5.049   0.964  0.0992  0.2186 -0.4714
  229DG     C11 5255   3.821   5.089   0.931  0.4236 -0.3816 -0.4663
  229DG     C12 5256   4.227   4.955   1.059  0.2585  0.0631  0.0497
  229DG     H13 5257   3.832   5.131   0.831 -0.6991  0.1931 -0.3616
  229DG     H14 5258   3.778   4.990   0.917  0.0369 -0.4497  1.0023
  229DG     H15 5259   4.312   4.952   1.128 -0.1620  0.5185  0.6049
  229DG     H16 5260   4.209   4.854   1.023  1.8831  0.6320 -2.6267
  229DG     C17 5261   3.970   5.076   0.971 -0.6146  0.6034  0.0627
  229DG     C18 5262   4.117   4.997   1.154 -0.0407  0.2947  0.0075
  229DG     O19 5263   3.989   4.989   1.084  0.1669  0.3635 -0.4372
  229DG     H20 5264   4.014   5.174   0.994  0.2889 -0.3329  2.7632
  229DG     H21 5265   4.032   5.032   0.893  1.5671 -0.4010  2.2212
  229DG     H22 5266   4.119   4.940   1.247 -2.6985  0.7326  0.4185
  229DG     H23 5267   4.125   5.099   1.191  2.6258 -0.7524  2.8102
  230DG      C1 5268   4.721   3.202   5.257  0.1180 -0.3233  0.3981
  230DG      C2 5269   4.174   3.142   4.723 -0.3774  0.0596 -0.5211
  230DG      H3 5270   4.795   3.127   5.229  1.6077  0.7123  1.4027
  230DG      H4 5271   4.744   3.231   5.359 -0.6695 -0.7561  0.7068
  230DG      H5 5272   4.739   3.294   5.201  2.2802  0.5622  2.3677
  230DG      H6 5273   4.075   3.099   4.705 -0.7186  0.6381 -0.0611
  230DG      H7 5274   4.196   3.237   4.674  0.6449  1.4184  2.3757
  230DG      H8 5275   4.237   3.067   4.676  0.2526  1.1848 -1.5261
  230DG      O9 5276   4.587   3.160   5.240  0.1035 -0.0357 -0.1198
  230DG     O10 5277   4.206   3.157   4.865 -0.5817 -0.2014  0.0401
  230DG     C11 5278   4.485   3.257   5.256 -0.0592 -0.2237 -0.2943
  230DG     C12 5279   4.179   3.045   4.941 -0.0441  0.5514 -0.6137
  230DG     H13 5280   4.504   3.335   5.183 -0.5288  1.2403  1.0817
  230DG     H14 5281   4.490   3.308   5.352  0.6264  1.5273 -1.2273
  230DG     H15 5282   4.243   2.961   4.912  0.6438  0.5018  0.9545
  230DG     H16 5283   4.072   3.027   4.949  0.1661 -0.2191  0.9024
  230DG     C17 5284   4.346   3.192   5.237 -0.2518  0.4415 -0.5385
  230DG     C18 5285   4.209   3.092   5.083 -0.3493  0.3815 -0.1444
  230DG     O19 5286   4.334   3.143   5.107  0.0381 -0.6796 -0.2087
  230DG     H20 5287   4.269   3.267   5.256 -1.6263 -1.3086  1.2617
  230DG     H21 5288   4.327   3.111   5.307 -0.0993  1.8004  1.1650
  230DG     H22 5289   4.133   3.168   5.103 -1.7716 -1.0956  0.3255
  230DG     H23 5290   4.188   3.008   5.149  1.5227  0.5554  0.7493
  231DG      C1 5291   2.273   0.101   0.288 -0.0313  0.3865 -0.9014
  231DG      C2 5292   2.531  -0.200  -0.438  0.2529  0.2250 -0.0190
  231DG      H3 5293   2.266   0.209   0.300 -0.6410  0.2161  0.4072
  231DG      H4 5294   2.299   0.057   0.384  1.7025  2.0038 -0.5488
  231DG      H5 5295   2.172   0.070   0.264  0.5752 -1.8139 -0.8283
  231DG      H6 5296   2.536  -0.292  -0.379  2.6486  1.4113  1.7695
  231DG      H7 5297   2.427  -0.178  -0.460  0.5384  2.4893  0.7121
  231DG      H8 5298   2.586  -0.218  -0.531 -0.6500 -0.7836 -0.3806
  231DG      O9 5299   2.353   0.057   0.184 -0.4712  0.2543 -1.0235
  231DG     O10 5300   2.583  -0.095  -0.354  0.0966 -0.2922  0.1842
  231DG     C11 5301   2.494   0.092   0.194  0.2295  0.4029 -0.3450
  231DG     C12 5302   2.536  -0.082  -0.224 -0.1114 -0.1299  1.0867
  231DG     H13 5303   2.526   0.053   0.291 -1.2356  0.0275  0.0183
  231DG     H14 5304   2.497   0.200   0.207  0.1155  0.3881 -0.1892
  231DG     H15 5305   2.548  -0.174  -0.167 -0.2105 -0.6236  0.3196
  231DG     H16 5306   2.431  -0.064  -0.247  0.6509  0.6160 -2.2776
  231DG     C17 5307   2.577   0.028   0.081  0.6944 -0.4860 -0.2239
  231DG     C18 5308   2.604   0.041  -0.159  0.4716 -1.0904 -0.3219
  231DG     O19 5309   2.526   0.080  -0.040  0.4308 -0.3419  0.3433
  231DG     H20 5310   2.560  -0.079   0.088  3.7559 -1.3193 -2.9054
  231DG     H21 5311   2.683   0.047   0.097 -0.0777  3.3054  1.5815
  231DG     H22 5312   2.709   0.021  -0.135  0.6828  0.5749  0.3364
  231DG     H23 5313   2.599   0.118  -0.236  1.5694 -0.9213 -0.2466
  232DG      C1 5314   1.059   1.623   0.266 -0.1769  0.3034  0.2130
  232DG      C2 5315   0.801   1.851   0.674 -0.2085 -0.3365 -0.7227
  232DG      H3 5316   0.990   1.671   0.196 -1.2474 -0.9848  0.3362
  232DG      H4 5317   1.159   1.649   0.231 -0.2927  3.2824  1.8046
  232DG      H5 5318   1.048   1.666   0.365  0.9972 -0.5589  0.7440
  232DG      H6 5319   0.870   1.922   0.629  0.2985  0.7819  1.6733
  232DG      H7 5320   0.708   1.855   0.617 -0.4658 -1.2356 -0.3782
  232DG      H8 5321   0.791   1.876   0.780  3.3119 -1.5028  0.0154
  232DG      O9 5322   1.042   1.486   0.285  0.6462  0.5172 -0.2053
  232DG     O10 5323   0.843   1.726   0.655 -0.0274 -0.2161 -0.2671
  232DG     C11 5324   1.139   1.432   0.377  0.1888  0.1205 -0.2272
  232DG     C12 5325   0.954   1.689   0.742 -0.2060  0.2139 -0.2621
  232DG     H13 5326   1.229   1.493   0.382 -0.5185  1.2345 -0.6381
  232DG     H14 5327   1.158   1.328   0.351 -0.8478 -0.3548  0.8440
  232DG     H15 5328   0.928   1.705   0.847  0.3511 -1.1475  0.1041
  232DG     H16 5329   1.032   1.760   0.714 -2.5022  2.9092 -0.3001
  232DG     C17 5330   1.079   1.417   0.520 -0.0679 -0.3119  0.3615
  232DG     C18 5331   0.984   1.546   0.712 -0.4273  0.2814  0.0408
  232DG     O19 5332   1.029   1.542   0.574  0.0069  0.3216  0.5272
  232DG     H20 5333   1.164   1.374   0.573 -0.2149 -1.4466 -0.2892
  232DG     H21 5334   0.996   1.346   0.513 -0.1967 -0.1498  0.2247
  232DG     H22 5335   1.065   1.513   0.776  0.7876  0.9310 -1.1115
  232DG     H23 5336   0.897   1.480   0.725  0.4978 -1.0937 -0.5705
  233DG      C1 5337   2.852   2.505   5.158 -1.3635 -0.7119  0.0722
  233DG      C2 5338   3.404   2.616   5.600 -0.3028  0.0872  0.5609
  233DG      H3 5339   2.886   2.471   5.060 -1.9757  0.7612 -0.6774
  233DG      H4 5340   2.837   2.612   5.169  0.0416 -0.5704  0.7930
  233DG      H5 5341   2.747   2.478   5.172 -0.9876 -1.9463  0.7087
  233DG      H6 5342   3.401   2.608   5.709  2.6425 -3.2366  0.5841
  233DG      H7 5343   3.505   2.581   5.577  0.1097  1.0992  0.7787
  233DG      H8 5344   3.397   2.721   5.571  0.5535  0.6475  2.2255
  233DG      O9 5345   2.937   2.456   5.265  0.1564  0.0887 -0.1311
  233DG     O10 5346   3.304   2.547   5.532  0.4771  0.4583  0.2375
  233DG     C11 5347   2.886   2.330   5.308  0.7125  0.1270  0.0811
  233DG     C12 5348   3.279   2.420   5.588  0.7051 -0.5703 -0.1596
  233DG     H13 5349   2.865   2.260   5.227  1.5629  0.7296 -0.6680
  233DG     H14 5350   2.798   2.361   5.365  1.5525  1.2933  0.7971
  233DG     H15 5351   3.225   2.437   5.681  2.6950  0.4169  0.8947
  233DG     H16 5352   3.372   2.372   5.618  1.8986  0.3780 -2.0981
  233DG     C17 5353   2.994   2.270   5.397  1.4880  1.0874  0.5300
  233DG     C18 5354   3.206   2.314   5.499  0.1678  0.2710  0.5882
  233DG     O19 5355   3.080   2.370   5.459 -0.5318  0.6366  0.1799
  233DG     H20 5356   3.044   2.208   5.324 -0.6757 -2.5957  1.9140
  233DG     H21 5357   2.949   2.189   5.454 -0.8562  1.0992 -1.1789
  233DG     H22 5358   3.273   2.291   5.416 -0.6748  0.6450 -0.2124
  233DG     H23 5359   3.196   2.224   5.559  0.1567 -1.8568 -2.3662
  234DG      C1 5360   0.158   4.043   2.603  0.0587  0.3052  0.4608
  234DG      C2 5361   0.788   3.741   2.770  0.3993 -1.3587  0.5416
  234DG      H3 5362   0.094   4.060   2.516 -1.3077 -0.5833  1.2568
  234DG      H4 5363   0.161   4.135   2.662 -0.4929 -0.5479  1.8788
  234DG      H5 5364   0.101   3.975   2.667 -1.2182  3.1374  2.5625
  234DG      H6 5365   0.765   3.696   2.673  0.8167  0.9003 -0.6608
  234DG      H7 5366   0.897   3.738   2.769  0.6266  1.2416 -2.7440
  234DG      H8 5367   0.739   3.687   2.851 -0.7779  2.4001  2.5276
  234DG      O9 5368   0.281   3.973   2.573  0.1352 -0.1757  0.5099
  234DG     O10 5369   0.745   3.879   2.774  0.0427 -0.0275  0.0612
  234DG     C11 5370   0.363   4.037   2.480  0.9122  0.1644  0.2741
  234DG     C12 5371   0.797   3.963   2.670  0.3134 -0.1956 -0.3085
  234DG     H13 5372   0.373   4.141   2.512 -0.2160  1.0130 -1.9704
  234DG     H14 5373   0.304   4.035   2.389  1.0355  1.4675  0.1399
  234DG     H15 5374   0.903   3.942   2.653  0.7508 -0.7039  2.5710
  234DG     H16 5375   0.782   4.065   2.704 -0.1781 -0.1098 -0.7641
  234DG     C17 5376   0.501   3.980   2.448  0.3264  0.6285 -0.4534
  234DG     C18 5377   0.724   3.948   2.538 -0.0248  0.3257 -0.1966
  234DG     O19 5378   0.586   3.984   2.563 -0.1517 -0.3137  0.9691
  234DG     H20 5379   0.554   4.035   2.369  0.5761  3.3725  1.4861
  234DG     H21 5380   0.490   3.876   2.416 -0.2465  0.8882 -1.1173
  234DG     H22 5381   0.764   4.011   2.459  1.1241  1.9207  1.5524
  234DG     H23 5382   0.732   3.845   2.504  0.5445 -0.4509  2.1142
  235DG      C1 5383   2.852   2.164   3.230  0.2927 -0.0846  0.1164
  235DG      C2 5384   2.609   1.849   2.766  0.1135 -0.8591  0.2249
  235DG      H3 5385   2.952   2.201   3.208 -0.6487  2.1294 -0.7042
  235DG      H4 5386   2.864   2.057   3.250 -2.7777 -0.7557 -1.0217
  235DG      H5 5387   2.815   2.222   3.315 -0.0832 -1.5334  0.9822
  235DG      H6 5388   2.640   1.745   2.779 -1.1320 -1.4368 -1.1941
  235DG      H7 5389   2.571   1.881   2.863  2.6294  0.8157  0.7677
  235DG      H8 5390   2.533   1.848   2.688  1.2964 -3.2107 -1.0245
  235DG      O9 5391   2.770   2.164   3.115  0.1477  0.2648 -0.4062
  235DG     O10 5392   2.719   1.917   2.705  0.4251 -0.4647 -0.0359
  235DG     C11 5393   2.774   2.291   3.038 -0.1813  0.1186 -0.7093
  235DG     C12 5394   2.696   2.051   2.646  0.6859 -0.4138  0.0836
  235DG     H13 5395   2.876   2.323   3.018  0.3034 -0.6495  0.3736
  235DG     H14 5396   2.730   2.365   3.105 -2.3123 -1.6483 -0.0274
  235DG     H15 5397   2.629   2.048   2.560  0.2847 -0.6470  0.4031
  235DG     H16 5398   2.790   2.087   2.603 -0.0218  1.4663  0.0164
  235DG     C17 5399   2.669   2.283   2.928  0.3477  0.0496 -0.2546
  235DG     C18 5400   2.630   2.146   2.743  0.1253  0.7017  0.3106
  235DG     O19 5401   2.715   2.174   2.849  0.5211  0.5941 -0.4882
  235DG     H20 5402   2.654   2.367   2.861 -0.1712 -0.4867 -0.8308
  235DG     H21 5403   2.573   2.264   2.974  0.3806  1.8780  0.6297
  235DG     H22 5404   2.596   2.242   2.703  0.2905  1.0886  1.0806
  235DG     H23 5405   2.531   2.114   2.776  0.1277  0.3504 -0.0184
  236DG      C1 5406   1.602   3.661   4.073  0.1196  0.1089  0.1280
  236DG      C2 5407   1.714   3.091   3.754 -0.6325  0.0747  0.3325
  236DG      H3 5408   1.703   3.680   4.035  0.0994 -0.7653 -0.3875
  236DG      H4 5409   1.618   3.594   4.158 -0.2961 -2.4692 -1.7127
  236DG      H5 5410   1.548   3.748   4.111  0.4821 -0.7534  2.8365
  236DG      H6 5411   1.817   3.127   3.755 -0.8150  0.8052 -1.6957
  236DG      H7 5412   1.702   3.034   3.846 -0.3962  0.4979  0.6263
  236DG      H8 5413   1.705   3.027   3.666 -0.2604  0.7135 -0.1751
  236DG      O9 5414   1.536   3.587   3.975 -0.4487  0.0451  0.1953
  236DG     O10 5415   1.612   3.195   3.740  0.2658  0.1210  0.2907
  236DG     C11 5416   1.406   3.548   4.015  0.4105 -0.2488 -0.2720
  236DG     C12 5417   1.481   3.156   3.751  0.0416  0.1946  0.2270
  236DG     H13 5418   1.356   3.640   4.044  1.2580  0.4092 -0.8582
  236DG     H14 5419   1.402   3.483   4.103 -1.8577 -2.7311 -2.0448
  236DG     H15 5420   1.462   3.090   3.835 -1.1892 -0.3874 -0.4807
  236DG     H16 5421   1.447   3.097   3.666 -1.2626 -0.7289  1.3520
  236DG     C17 5422   1.345   3.469   3.902  0.2380 -0.5047 -0.5124
  236DG     C18 5423   1.394   3.283   3.760  0.0228 -0.3476  0.3648
  236DG     O19 5424   1.437   3.373   3.863 -0.4153 -0.6703  0.5487
  236DG     H20 5425   1.343   3.536   3.816  2.5084  0.6671  0.2486
  236DG     H21 5426   1.242   3.436   3.913  0.2923 -0.2520  0.9308
  236DG     H22 5427   1.390   3.341   3.668 -1.2905  2.4935  2.0825
  236DG     H23 5428   1.290   3.254   3.775  0.3929 -0.8251  2.3566
  237DG      C1 5429   3.156   1.079   4.399 -0.4295  1.0369  0.1918
  237DG      C2 5430   3.310   1.569   3.873 -0.3982  0.3565 -0.4335
  237DG      H3 5431   3.250   1.028   4.378 -0.8244  0.8515 -1.2192
  237DG      H4 5432   3.073   1.034   4.345 -0.7387  1.8122 -0.0021
  237DG      H5 5433   3.144   1.067   4.506  0.9697  1.6699  0.4477
  237DG      H6 5434   3.411   1.528   3.865 -0.5592 -1.3808  4.0207
  237DG      H7 5435   3.244   1.551   3.788  0.1477  0.0133 -0.7941
  237DG      H8 5436   3.327   1.676   3.866 -2.8669  0.7471 -1.2533
  237DG      O9 5437   3.172   1.217   4.362 -0.1488  0.7451 -0.1838
  237DG     O10 5438   3.255   1.532   4.006  0.1480 -0.4928  0.7065
  237DG     C11 5439   3.069   1.301   4.405 -0.0721 -0.3869 -0.4141
  237DG     C12 5440   3.148   1.613   4.053  0.5345  0.0169 -0.6190
  237DG     H13 5441   3.068   1.298   4.514  2.0120  1.7299 -0.2432
  237DG     H14 5442   2.976   1.262   4.364 -1.1439  1.4400  0.1699
  237DG     H15 5443   3.057   1.587   3.999  0.0734  2.6183 -1.2462
  237DG     H16 5444   3.166   1.719   4.030 -0.0438  0.1564 -0.4536
  237DG     C17 5445   3.115   1.454   4.380  0.0612 -0.2160 -0.0405
  237DG     C18 5446   3.135   1.608   4.198 -0.2930  0.3146  0.1670
  237DG     O19 5447   3.133   1.470   4.240 -0.2766 -0.3203  0.6347
  237DG     H20 5448   3.212   1.473   4.424 -0.8587  2.3517  1.0623
  237DG     H21 5449   3.040   1.520   4.423  0.6216 -0.5565  1.5395
  237DG     H22 5450   3.222   1.657   4.242 -0.1331 -0.5273  0.8100
  237DG     H23 5451   3.041   1.656   4.223 -0.1364  0.6579  0.0919
  238DG      C1 5452   2.624   0.562   1.371 -0.0099 -0.5304 -0.1543
  238DG      C2 5453   2.214   1.142   1.292  0.1731 -0.6325  0.0480
  238DG      H3 5454   2.577   0.464   1.367 -0.2555 -0.4438  0.5346
  238DG      H4 5455   2.621   0.583   1.478 -1.3482 -2.0385  0.1285
  238DG      H5 5456   2.730   0.548   1.350 -0.2813 -1.4460 -0.9815
  238DG      H6 5457   2.210   1.235   1.236 -2.1399 -2.0296 -2.3306
  238DG      H7 5458   2.117   1.102   1.323  0.1500 -0.8035 -0.2515
  238DG      H8 5459   2.265   1.177   1.382  0.5451 -3.1591  0.8787
  238DG      O9 5460   2.559   0.667   1.301  0.5098  0.1099 -0.3012
  238DG     O10 5461   2.306   1.050   1.233 -0.2537 -0.1227 -0.3874
  238DG     C11 5462   2.565   0.638   1.161 -0.4803  0.4666  0.0969
  238DG     C12 5463   2.251   0.989   1.117  0.1093  0.5320  0.0540
  238DG     H13 5464   2.494   0.559   1.135 -1.3821  1.1639  0.3676
  238DG     H14 5465   2.665   0.611   1.129 -0.3180  0.5022  0.5687
  238DG     H15 5466   2.202   1.061   1.052 -0.2646 -0.4286 -0.7447
  238DG     H16 5467   2.187   0.906   1.145  1.5904 -0.2338  1.3428
  238DG     C17 5468   2.530   0.754   1.070  0.1631 -0.3048  0.2953
  238DG     C18 5469   2.368   0.923   1.037  0.1591 -0.0493  0.6354
  238DG     O19 5470   2.408   0.815   1.112 -0.3468 -0.7875  0.1291
  238DG     H20 5471   2.520   0.728   0.964  2.2866  1.8336 -0.5212
  238DG     H21 5472   2.606   0.831   1.075  0.3383 -0.5708  2.1911
  238DG     H22 5473   2.329   0.879   0.945 -0.8357  1.2058  0.4313
  238DG     H23 5474   2.453   0.990   1.023  1.3336 -1.5061  0.5348
  239DG      C1 5475   0.643   3.682   1.051 -0.3924 -0.2973  0.1524
  239DG      C2 5476  -0.061   3.889   0.982  0.6711  0.5842  0.4892
  239DG      H3 5477   0.634   3.573   1.048  1.0867 -0.4413  0.2002
  239DG      H4 5478   0.644   3.723   1.152  1.0761  2.5495 -0.9144
  239DG      H5 5479   0.736   3.722   1.013 -0.2634  1.0734  1.7836
  239DG      H6 5480  -0.129   3.822   0.930  2.9404 -1.4969  0.0117
  239DG      H7 5481  -0.072   3.868   1.088 -1.8745 -0.5599  0.0696
  239DG      H8 5482  -0.103   3.988   0.962  1.3450  0.2687 -3.3564
  239DG      O9 5483   0.540   3.741   0.977  0.2520  0.4712  0.0413
  239DG     O10 5484   0.076   3.864   0.935  0.1374  0.0375  0.0602
  239DG     C11 5485   0.517   3.671   0.854 -0.3455  0.3909  0.8183
  239DG     C12 5486   0.090   3.881   0.797 -0.2894 -0.3815 -0.0382
  239DG     H13 5487   0.461   3.580   0.873 -0.6216 -0.0731 -1.9311
  239DG     H14 5488   0.609   3.646   0.801 -1.0827  0.3030 -0.4488
  239DG     H15 5489   0.059   3.984   0.782  0.0004  0.1891  2.6941
  239DG     H16 5490   0.033   3.809   0.738  0.3243  0.4043 -1.6555
  239DG     C17 5491   0.448   3.752   0.750 -0.4165 -0.8053  0.2973
  239DG     C18 5492   0.239   3.882   0.747  0.2865  0.5187  0.1742
  239DG     O19 5493   0.312   3.767   0.793  0.5297  0.5748 -0.0056
  239DG     H20 5494   0.446   3.699   0.655 -0.0881  0.8922 -0.7007
  239DG     H21 5495   0.497   3.849   0.736 -2.0489 -0.0272 -0.2869
  239DG     H22 5496   0.233   3.893   0.639  2.6160  0.6584  0.0118
  239DG     H23 5497   0.288   3.971   0.786  3.3261 -1.1610  0.4501
  240DG      C1 5498   3.922   2.122   3.125 -0.1358 -0.1401  0.2391
  240DG      C2 5499   3.291   2.322   3.304  0.4324 -0.0598 -0.2355
  240DG      H3 5500   3.951   2.082   3.222  2.1429 -0.2820 -0.4451
  240DG      H4 5501   3.933   2.230   3.123  0.9608 -0.1934 -3.1215
  240DG      H5 5502   3.998   2.086   3.055 -1.8591  1.1370 -2.4556
  240DG      H6 5503   3.274   2.309   3.411  1.2081  0.4976 -0.0380
  240DG      H7 5504   3.343   2.414   3.277  5.3291 -2.1053  1.0801
  240DG      H8 5505   3.190   2.336   3.266 -0.2796 -4.4611 -0.5137
  240DG      O9 5506   3.787   2.091   3.087  0.6859  0.0224  0.6070
  240DG     O10 5507   3.354   2.220   3.237  0.2423  0.3074 -0.3786
  240DG     C11 5508   3.744   1.963   3.123 -0.4410 -0.0450  0.8957
  240DG     C12 5509   3.303   2.089   3.267  0.0299  0.7177 -0.0324
  240DG     H13 5510   3.753   1.942   3.230 -0.7553 -1.6794  0.6178
  240DG     H14 5511   3.797   1.889   3.064  0.0171  1.0417 -0.1039
  240DG     H15 5512   3.195   2.078   3.261  0.2424 -1.8212 -0.2994
  240DG     H16 5513   3.323   2.054   3.369  0.6329  0.5360 -0.2050
  240DG     C17 5514   3.595   1.935   3.092 -0.1738 -0.4046  0.1942
  240DG     C18 5515   3.377   1.993   3.176 -0.5179  0.0785  0.3503
  240DG     O19 5516   3.514   2.029   3.156  0.2379 -0.1926 -0.4431
  240DG     H20 5517   3.569   1.838   3.135  1.7974 -0.5972  1.0868
  240DG     H21 5518   3.584   1.927   2.984 -0.3545  0.2518  0.1568
  240DG     H22 5519   3.363   1.891   3.212 -3.1261  0.3809  0.4466
  240DG     H23 5520   3.326   1.990   3.080  0.5317 -0.8036 -0.1856
  241DG      C1 5521   2.764   1.892   5.242  0.2421 -0.7180 -0.4916
  241DG      C2 5522   3.119   1.642   5.637  0.6700 -0.0314  0.0767
  241DG      H3 5523   2.671   1.854   5.285 -0.6977  2.8117  0.9593
  241DG      H4 5524   2.728   1.963   5.167 -0.7777 -2.0715 -1.3496
  241DG      H5 5525   2.814   1.938   5.326 -1.9115  0.4011  0.2568
  241DG      H6 5526   3.040   1.569   5.654 -0.4823  1.5264  1.7320
  241DG      H7 5527   3.208   1.618   5.695  0.7425  1.5589  0.6709
  241DG      H8 5528   3.085   1.731   5.689  1.3942  0.6933 -0.6666
  241DG      O9 5529   2.838   1.787   5.184  0.0970 -0.1330 -0.1183
  241DG     O10 5530   3.121   1.698   5.505 -0.4487  0.8238  0.3744
  241DG     C11 5531   2.934   1.819   5.086 -0.0513 -0.3867 -0.3460
  241DG     C12 5532   3.223   1.786   5.491  0.2984  0.2021  0.3252
  241DG     H13 5533   2.906   1.898   5.017 -1.7039 -0.6519 -0.0258
  241DG     H14 5534   2.949   1.730   5.025 -0.1441 -0.7223  0.1139
  241DG     H15 5535   3.320   1.742   5.512  0.7563  1.4028  0.8327
  241DG     H16 5536   3.202   1.876   5.550  0.0441 -0.8017  1.8233
  241DG     C17 5537   3.069   1.861   5.160 -0.4029 -0.2359 -0.4934
  241DG     C18 5538   3.223   1.822   5.342  0.0078  0.2303 -0.9645
  241DG     O19 5539   3.095   1.785   5.282  0.0439  0.3461  0.5296
  241DG     H20 5540   3.080   1.965   5.191  0.0816 -1.0088  2.1370
  241DG     H21 5541   3.143   1.832   5.086  0.2770 -0.7084  0.3608
  241DG     H22 5542   3.241   1.929   5.334 -0.6365  0.4192 -0.0937
  241DG     H23 5543   3.308   1.772   5.296 -0.0284  0.1449 -0.9383
  242DG      C1 5544   3.534   2.987   0.647  0.8112  0.4059 -0.3357
  242DG      C2 5545   3.225   2.582   1.111 -0.6334 -0.8347 -0.0320
  242DG      H3 5546   3.587   3.063   0.705  0.3013 -0.8903  1.9533
  242DG      H4 5547   3.520   3.033   0.550 -0.5677  0.8828  0.0686
  242DG      H5 5548   3.601   2.901   0.643 -0.3187 -0.4665 -0.8415
  242DG      H6 5549   3.314   2.522   1.091  0.2196 -0.0179  1.0839
  242DG      H7 5550   3.246   2.635   1.205 -0.4489 -0.1352 -0.4552
  242DG      H8 5551   3.138   2.525   1.142 -1.6875  1.6527  1.9876
  242DG      O9 5552   3.400   2.946   0.692  0.3024 -0.2929  0.0615
  242DG     O10 5553   3.202   2.671   1.005  0.2501  0.0252  0.4475
  242DG     C11 5554   3.302   3.047   0.718  0.3651 -0.1867 -0.2728
  242DG     C12 5555   3.107   2.772   1.048 -0.2356  0.1831 -0.0142
  242DG     H13 5556   3.287   3.098   0.623 -0.3908 -0.2669 -0.1970
  242DG     H14 5557   3.335   3.114   0.798  1.8064 -0.1913 -0.8235
  242DG     H15 5558   3.149   2.827   1.133 -1.5235  0.0119  0.7487
  242DG     H16 5559   3.016   2.720   1.079 -0.3377  0.1876 -0.3014
  242DG     C17 5560   3.169   2.985   0.759  0.1655  0.3243  0.4750
  242DG     C18 5561   3.062   2.865   0.936 -0.1198 -0.1508  0.2683
  242DG     O19 5562   3.185   2.933   0.890 -0.0170  0.2198 -0.2456
  242DG     H20 5563   3.139   2.909   0.686  1.2303 -1.2266  1.5756
  242DG     H21 5564   3.092   3.062   0.761 -2.0004 -1.6515 -1.1279
  242DG     H22 5565   3.018   2.792   0.868  0.7285 -3.2738  2.8128
  242DG     H23 5566   2.990   2.939   0.969  0.5748  0.2448  0.9154
  243DG      C1 5567   3.311   5.444   0.465  0.4100 -0.8399  0.0571
  243DG      C2 5568   3.486   6.122  -0.099  0.4887  0.7925  0.2538
  243DG      H3 5569   3.239   5.515   0.505  2.1450 -0.4249  2.6949
  243DG      H4 5570   3.395   5.440   0.533  1.1870  0.2174 -0.8051
  243DG      H5 5571   3.268   5.343   0.465  1.2328 -1.2202  1.5384
  243DG      H6 5572   3.477   6.196  -0.019  0.2174 -1.3450  2.3081
  243DG      H7 5573   3.580   6.140  -0.150  0.4640 -1.8934 -0.9334
  243DG      H8 5574   3.412   6.134  -0.178 -0.6668 -2.3333  0.7228
  243DG      O9 5575   3.355   5.486   0.335 -0.2094 -0.2125 -0.1587
  243DG     O10 5576   3.481   5.984  -0.055 -0.0040  0.0295  0.1310
  243DG     C11 5577   3.387   5.623   0.326  0.5184  0.1538  0.0225
  243DG     C12 5578   3.583   5.968   0.037 -0.3744 -0.0101 -0.3512
  243DG     H13 5579   3.451   5.660   0.407 -0.7265 -0.5277  1.3627
  243DG     H14 5580   3.291   5.672   0.335  0.5986 -0.0452  3.6841
  243DG     H15 5581   3.581   6.032   0.126  4.7696  0.0193  0.0801
  243DG     H16 5582   3.681   5.987  -0.008 -0.4132 -1.8836 -1.3413
  243DG     C17 5583   3.455   5.650   0.192  0.0135 -1.0966  0.0752
  243DG     C18 5584   3.582   5.818   0.081 -0.2377  0.7925 -0.4325
  243DG     O19 5585   3.477   5.787   0.176  0.7041  0.2484 -0.0915
  243DG     H20 5586   3.393   5.612   0.111  0.7502  0.2903 -1.1986
  243DG     H21 5587   3.549   5.594   0.201 -0.2195 -1.6982 -1.0509
  243DG     H22 5588   3.568   5.760  -0.010 -0.5156 -0.0099  0.1107
  243DG     H23 5589   3.682   5.809   0.121 -1.0824  0.0221  1.6036
  244DG      C1 5590   3.397   2.463   4.008 -0.0754  0.0823 -0.0647
  244DG      C2 5591   2.845   2.071   4.116 -0.4089 -0.2518  0.1086
  244DG      H3 5592   3.379   2.454   4.115  0.1199  1.6854  0.1249
  244DG      H4 5593   3.417   2.564   3.972  2.1250 -0.8711 -1.7792
  244DG      H5 5594   3.484   2.400   3.989  0.8441  0.7865  1.6428
  244DG      H6 5595   2.905   1.983   4.140 -0.0612  0.4094  1.7342
  244DG      H7 5596   2.828   2.116   4.213 -1.8811  1.9597 -1.0812
  244DG      H8 5597   2.751   2.040   4.070 -2.1952  3.5940  0.7648
  244DG      O9 5598   3.279   2.413   3.948 -0.1023 -0.0437  0.6404
  244DG     O10 5599   2.913   2.161   4.031  0.0283 -0.5044  0.0427
  244DG     C11 5600   3.295   2.390   3.805 -0.0068 -0.0846  0.0529
  244DG     C12 5601   2.931   2.095   3.907 -0.7744 -0.6956  0.1081
  244DG     H13 5602   3.374   2.317   3.789 -0.8098 -1.8241  3.1534
  244DG     H14 5603   3.318   2.485   3.757  1.3710 -0.0945  0.6296
  244DG     H15 5604   2.831   2.060   3.879 -0.9351  0.4420 -0.8292
  244DG     H16 5605   2.987   2.002   3.915 -0.0935 -0.4273 -1.2097
  244DG     C17 5606   3.165   2.326   3.743 -0.2956 -0.6708 -0.0069
  244DG     C18 5607   2.990   2.180   3.793 -0.0475 -0.2392  0.5709
  244DG     O19 5608   3.104   2.243   3.841 -0.8223 -0.4251 -0.3248
  244DG     H20 5609   3.179   2.276   3.647  1.7279  1.2833 -0.8015
  244DG     H21 5610   3.089   2.401   3.722 -1.0209 -1.0363  1.1928
  244DG     H22 5611   2.994   2.113   3.707 -0.6472  0.8162 -0.3039
  244DG     H23 5612   2.921   2.260   3.769  0.0890  0.4073  2.2427
  245DG      C1 5613   3.219   0.696   3.185 -0.6020 -0.0993  0.2399
  245DG      C2 5614   2.736   0.236   3.865  0.4101  0.1327  0.1408
  245DG      H3 5615   3.211   0.794   3.137 -0.9141 -0.0604  0.3726
  245DG      H4 5616   3.208   0.618   3.109 -1.5222 -3.3624  3.4638
  245DG      H5 5617   3.319   0.687   3.227 -0.3899 -1.1829 -0.4562
  245DG      H6 5618   2.740   0.136   3.823  0.4805  0.1520  0.1016
  245DG      H7 5619   2.803   0.253   3.950  2.1889 -3.5499 -0.3487
  245DG      H8 5620   2.634   0.242   3.905  0.5504 -0.2375  0.5557
  245DG      O9 5621   3.115   0.694   3.275  0.4719 -0.0423 -0.0759
  245DG     O10 5622   2.743   0.334   3.762 -0.2396 -0.1242  0.2111
  245DG     C11 5623   3.103   0.565   3.340 -0.7471  0.5005 -0.4342
  245DG     C12 5624   2.857   0.329   3.690  0.8818 -0.0708 -0.1726
  245DG     H13 5625   3.187   0.534   3.402 -1.4649 -1.5169 -0.3964
  245DG     H14 5626   3.078   0.482   3.274 -0.3940  0.3460 -0.3731
  245DG     H15 5627   2.874   0.234   3.639  2.0742  0.2686 -0.4464
  245DG     H16 5628   2.942   0.340   3.757  0.2337  1.0012  0.5078
  245DG     C17 5629   2.982   0.576   3.434  0.1845 -0.1082 -0.1144
  245DG     C18 5630   2.847   0.449   3.587 -0.5261 -0.4304  0.1997
  245DG     O19 5631   2.974   0.466   3.522  0.1466  0.1517 -0.5140
  245DG     H20 5632   2.891   0.589   3.376  0.0581 -1.3764 -0.2129
  245DG     H21 5633   2.978   0.668   3.493 -3.1464 -1.3124  1.7482
  245DG     H22 5634   2.784   0.437   3.499  0.1298 -1.3759 -0.1578
  245DG     H23 5635   2.814   0.538   3.639  1.5635  0.1723  0.5762
  246DG      C1 5636   2.996   3.840   0.336 -0.1509 -0.7078  0.1405
  246DG      C2 5637   3.264   3.890   0.006 -0.0644  0.3913  0.5506
  246DG      H3 5638   3.053   3.829   0.244 -0.8027 -0.0948 -0.3454
  246DG      H4 5639   3.061   3.885   0.411 -1.1588  0.7622  0.1680
  246DG      H5 5640   2.907   3.901   0.321 -0.1481 -0.6923  0.1886
  246DG      H6 5641   3.185   3.965   0.001 -0.7939 -0.3518  0.6700
  246DG      H7 5642   3.352   3.937   0.050  0.9112 -0.3626 -0.5425
  246DG      H8 5643   3.292   3.868  -0.097 -0.8860 -0.4257  0.4890
  246DG      O9 5644   2.934   3.725   0.385  0.8014 -0.1987 -0.3198
  246DG     O10 5645   3.227   3.763   0.065  0.8501 -0.2582  0.2667
  246DG     C11 5646   3.031   3.629   0.455  0.3264  0.2544 -1.1939
  246DG     C12 5647   3.335   3.682   0.105  0.1565 -0.2671 -0.3602
  246DG     H13 5648   2.968   3.556   0.505 -0.3218  0.1751 -2.1120
  246DG     H14 5649   3.096   3.687   0.522  2.9692 -0.1959 -3.2038
  246DG     H15 5650   3.410   3.746   0.151  0.8661 -1.8305  0.7328
  246DG     H16 5651   3.383   3.641   0.016 -0.1369 -0.2935 -0.5091
  246DG     C17 5652   3.117   3.550   0.360  0.3628  0.0098 -0.1616
  246DG     C18 5653   3.282   3.571   0.192 -0.3976 -0.5955  0.4294
  246DG     O19 5654   3.223   3.628   0.308 -0.0224 -0.2585  0.7205
  246DG     H20 5655   3.053   3.510   0.283 -0.1727 -0.6501  0.6121
  246DG     H21 5656   3.169   3.468   0.410  2.4557  2.0230  1.2045
  246DG     H22 5657   3.207   3.520   0.132 -0.4688  0.7510 -0.6742
  246DG     H23 5658   3.364   3.503   0.218  1.4801  1.5947  0.5969
  247DG      C1 5659   1.283   5.258   2.214  0.4858  0.3206  0.7055
  247DG      C2 5660   1.420   5.303   1.560 -0.1079  0.1225 -0.0328
  247DG      H3 5661   1.370   5.193   2.204 -0.1541 -0.3953 -0.4205
  247DG      H4 5662   1.198   5.195   2.243 -0.5737  1.1339 -0.4835
  247DG      H5 5663   1.305   5.315   2.304 -0.0197  0.1266  0.9602
  247DG      H6 5664   1.416   5.361   1.468  1.3205  1.4085  0.6774
  247DG      H7 5665   1.525   5.308   1.588  0.3341 -0.6814 -1.4740
  247DG      H8 5666   1.394   5.205   1.521  1.8208  0.2513 -1.8149
  247DG      O9 5667   1.264   5.331   2.095 -0.1239 -0.3030 -0.5876
  247DG     O10 5668   1.340   5.349   1.662  0.3499  0.2076  0.1773
  247DG     C11 5669   1.137   5.398   2.097 -0.3001  0.8184  0.9935
  247DG     C12 5670   1.207   5.381   1.628  0.0878  0.3976 -0.0350
  247DG     H13 5671   1.140   5.465   2.183  3.7987  1.4710  0.5342
  247DG     H14 5672   1.061   5.321   2.105  0.4884 -0.3938 -1.9332
  247DG     H15 5673   1.156   5.298   1.577  0.1644  0.7562 -0.7035
  247DG     H16 5674   1.205   5.456   1.549 -2.5316 -1.2257 -1.6638
  247DG     C17 5675   1.115   5.469   1.968 -0.3703  0.8721  0.8304
  247DG     C18 5676   1.142   5.459   1.739 -0.3201  0.7445 -0.1347
  247DG     O19 5677   1.151   5.386   1.863 -0.2786 -0.5427  0.5268
  247DG     H20 5678   1.154   5.571   1.969 -1.2770  1.2491 -0.0011
  247DG     H21 5679   1.008   5.485   1.954 -0.4942 -0.0701  0.6420
  247DG     H22 5680   1.191   5.557   1.746 -0.3028  0.7309 -0.0695
  247DG     H23 5681   1.037   5.467   1.711 -0.9589 -0.8986  1.6193
  248DG      C1 5682   1.429   0.624   2.461  0.2634  0.5771  0.2580
  248DG      C2 5683   1.549   0.431   2.021 -0.6955 -0.0125  0.0464
  248DG      H3 5684   1.507   0.655   2.530  0.0010  1.8981 -0.0092
  248DG      H4 5685   1.434   0.515   2.470  4.5016  0.6219  0.0945
  248DG      H5 5686   1.327   0.655   2.487 -0.2340  0.7331 -1.7464
  248DG      H6 5687   1.452   0.382   2.029 -0.0137 -1.7200 -1.3782
  248DG      H7 5688   1.627   0.359   2.042  0.8927  1.9365  1.1464
  248DG      H8 5689   1.571   0.504   2.098 -0.2351 -1.6164  1.5044
  248DG      O9 5690   1.448   0.638   2.321  0.1209  0.5249 -0.3208
  248DG     O10 5691   1.549   0.479   1.885  0.3485 -0.8880 -0.0911
  248DG     C11 5692   1.408   0.753   2.261  0.2931  0.1806 -0.0020
  248DG     C12 5693   1.549   0.624   1.867 -0.2205  0.3517 -0.5157
  248DG     H13 5694   1.450   0.833   2.321  1.2779 -1.1772  1.1826
  248DG     H14 5695   1.303   0.783   2.267  0.5911  1.1859  0.3290
  248DG     H15 5696   1.559   0.649   1.761  0.3516  0.9616 -0.3265
  248DG     H16 5697   1.633   0.675   1.914 -1.8697  2.4184  0.3450
  248DG     C17 5698   1.443   0.763   2.111  0.2566 -0.2427 -0.2909
  248DG     C18 5699   1.406   0.679   1.892  0.0088  0.3771 -0.3034
  248DG     O19 5700   1.374   0.662   2.037 -0.1094 -0.3235  0.3824
  248DG     H20 5701   1.551   0.763   2.100  0.5298 -0.3352  1.9202
  248DG     H21 5702   1.416   0.861   2.071  0.0421 -0.1470  0.0781
  248DG     H22 5703   1.406   0.784   1.861  1.7759  0.3853 -0.3510
  248DG     H23 5704   1.335   0.617   1.838  0.5327  0.0887 -0.6694
  249DG      C1 5705   0.006   0.678   5.035  0.0936  0.3740 -0.3426
  249DG      C2 5706   0.369   0.252   5.323 -0.3294 -0.3969  0.3796
  249DG      H3 5707   0.097   0.737   5.021  1.4472 -1.9915 -2.4659
  249DG      H4 5708  -0.047   0.698   5.128 -0.1956 -1.5244 -0.0635
  249DG      H5 5709  -0.064   0.727   4.968 -0.3606  2.7862  1.7549
  249DG      H6 5710   0.324   0.252   5.422  0.0671 -0.1508  0.5640
  249DG      H7 5711   0.431   0.163   5.323 -1.6457 -1.3719 -1.0373
  249DG      H8 5712   0.434   0.339   5.313  0.4338 -1.0565 -0.6770
  249DG      O9 5713   0.014   0.536   5.009 -0.4471 -0.6749 -0.5218
  249DG     O10 5714   0.285   0.248   5.209  0.1377 -0.1757 -0.2210
  249DG     C11 5715  -0.106   0.464   5.034  0.0430  0.2691 -0.0222
  249DG     C12 5716   0.207   0.132   5.205  0.2635  0.5337 -0.4569
  249DG     H13 5717  -0.181   0.502   4.965  0.7509  1.4572 -0.1763
  249DG     H14 5718  -0.142   0.483   5.136 -0.6522  0.2215 -0.2525
  249DG     H15 5719   0.177   0.105   5.306  2.3617 -1.6463 -0.3317
  249DG     H16 5720   0.261   0.042   5.178 -1.7344 -1.4015  1.5325
  249DG     C17 5721  -0.077   0.313   5.027 -0.0372  0.1719 -0.0415
  249DG     C18 5722   0.086   0.156   5.107  0.8016  0.3565  0.1972
  249DG     O19 5723   0.021   0.286   5.132  0.3169  0.1608  0.1801
  249DG     H20 5724  -0.044   0.284   4.927  1.0860 -2.3020  0.9696
  249DG     H21 5725  -0.167   0.260   5.058  0.4766 -0.5699  0.2135
  249DG     H22 5726   0.133   0.166   5.009 -1.6217  2.2323 -0.8857
  249DG     H23 5727   0.008   0.080   5.101  0.9735  0.0373  1.6770
  250DG      C1 5728   1.898   0.771   2.132 -0.2264 -0.9572 -0.2928
  250DG      C2 5729   2.566   0.496   1.959  0.1927 -0.7193  0.1712
  250DG      H3 5730   1.893   0.676   2.184  0.7000 -0.7728  0.1621
  250DG      H4 5731   1.832   0.766   2.046 -1.2348 -1.7032  0.5068
  250DG      H5 5732   1.858   0.845   2.201  3.4477  0.4828  0.5511
  250DG      H6 5733   2.571   0.481   1.851 -0.6789  0.3233 -0.0315
  250DG      H7 5734   2.670   0.507   1.991  0.3265  0.9097 -0.7331
  250DG      H8 5735   2.528   0.401   1.998  0.3112 -0.1376  1.8070
  250DG      O9 5736   2.040   0.781   2.111  0.5113 -0.4891  0.0624
  250DG     O10 5737   2.476   0.599   2.004 -0.0141 -0.6022 -0.4727
  250DG     C11 5738   2.069   0.907   2.045  0.2779  0.8922 -0.6055
  250DG     C12 5739   2.509   0.717   1.928  0.5832  1.1870  0.5338
  250DG     H13 5740   2.013   0.984   2.099 -0.6669 -0.4497  0.4218
  250DG     H14 5741   2.022   0.909   1.947 -1.2943  0.1521  0.0915
  250DG     H15 5742   2.478   0.695   1.826 -2.3790  1.2159  1.3242
  250DG     H16 5743   2.616   0.730   1.937  1.0002 -1.4892  0.0771
  250DG     C17 5744   2.219   0.930   2.039  0.1147  0.3201  0.3429
  250DG     C18 5745   2.425   0.838   1.971 -0.7175 -0.2594 -0.5685
  250DG     O19 5746   2.286   0.808   1.990 -0.1444 -0.8088 -0.3150
  250DG     H20 5747   2.251   0.954   2.140 -2.7150  0.8347  1.1881
  250DG     H21 5748   2.235   1.017   1.975  0.6122  0.1401  0.2161
  250DG     H22 5749   2.469   0.875   2.064  1.1816  0.1205 -1.5687
  250DG     H23 5750   2.431   0.918   1.898  0.6611 -0.0849 -0.2918
  251DG      C1 5751   1.684   1.945   2.658  0.0353 -0.2393 -0.6651
  251DG      C2 5752   2.044   1.414   2.516 -0.0234  0.1408  0.7163
  251DG      H3 5753   1.600   2.001   2.699  1.3126  1.0700  0.2909
  251DG      H4 5754   1.666   1.938   2.551 -0.2110  0.6413 -0.6942
  251DG      H5 5755   1.764   2.009   2.695 -0.7026 -0.9634  2.4575
  251DG      H6 5756   2.029   1.376   2.617  0.9754  0.6676  1.0718
  251DG      H7 5757   2.039   1.336   2.441 -0.3275 -0.3616  1.2502
  251DG      H8 5758   2.140   1.465   2.518 -0.9692  2.0127  0.3450
  251DG      O9 5759   1.710   1.826   2.731  0.3620 -0.3961  0.4181
  251DG     O10 5760   1.933   1.507   2.505  0.0685  0.6148 -0.0094
  251DG     C11 5761   1.587   1.753   2.750 -0.8244  0.5171 -0.4858
  251DG     C12 5762   1.812   1.435   2.479 -0.3548 -0.3352  0.0018
  251DG     H13 5763   1.508   1.826   2.767  1.5192  3.3712 -1.0956
  251DG     H14 5764   1.598   1.701   2.845  0.3474  3.4681  1.1143
  251DG     H15 5765   1.786   1.357   2.551  0.2042 -2.2032 -1.7405
  251DG     H16 5766   1.823   1.388   2.382  0.0305  1.7288 -1.0025
  251DG     C17 5767   1.569   1.647   2.638  0.0556 -0.1576  0.8207
  251DG     C18 5768   1.704   1.535   2.473  0.3079 -0.1070  0.1886
  251DG     O19 5769   1.697   1.602   2.603 -0.7545  0.8822  0.1252
  251DG     H20 5770   1.524   1.699   2.554 -0.1770  0.1540  1.1379
  251DG     H21 5771   1.513   1.560   2.672  0.3268 -0.2484  1.0449
  251DG     H22 5772   1.715   1.607   2.392  1.4749 -1.8454 -1.2898
  251DG     H23 5773   1.612   1.479   2.457 -1.3631  2.0964  1.5312
  252DG      C1 5774   3.621   2.267   2.730 -0.3610  0.2778  0.5226
  252DG      C2 5775   3.619   2.201   3.404 -0.3857 -0.0377  0.0861
  252DG      H3 5776   3.517   2.244   2.710  0.2349 -1.5736 -0.7231
  252DG      H4 5777   3.669   2.171   2.748 -0.2465  0.4536  1.1698
  252DG      H5 5778   3.655   2.323   2.643 -0.9933 -1.3580 -0.8311
  252DG      H6 5779   3.661   2.226   3.501  1.0554 -0.3758 -0.4260
  252DG      H7 5780   3.517   2.163   3.419 -0.7375 -0.3538 -2.5522
  252DG      H8 5781   3.687   2.119   3.380  1.3559  1.5873 -0.7674
  252DG      O9 5782   3.653   2.336   2.849 -0.0585 -0.2901  0.5866
  252DG     O10 5783   3.627   2.309   3.312 -0.4354 -0.4444  0.0728
  252DG     C11 5784   3.767   2.426   2.841  0.2139 -0.9266  0.5433
  252DG     C12 5785   3.754   2.374   3.318 -0.1008 -0.3229  0.7333
  252DG     H13 5786   3.732   2.494   2.763 -2.4468 -2.3430  0.3870
  252DG     H14 5787   3.856   2.367   2.822  0.5718 -0.0240 -0.6960
  252DG     H15 5788   3.831   2.298   3.304 -0.1742 -0.3497  0.4747
  252DG     H16 5789   3.764   2.421   3.416 -1.9568 -0.3025  0.9462
  252DG     C17 5790   3.787   2.505   2.972  0.3287 -0.0844  0.8969
  252DG     C18 5791   3.771   2.480   3.204  0.1700  0.1408 -0.6273
  252DG     O19 5792   3.762   2.420   3.079  0.1309  0.1475  0.0865
  252DG     H20 5793   3.704   2.575   2.967  0.0781 -0.4441 -0.5058
  252DG     H21 5794   3.877   2.566   2.967 -0.5983  1.3485  1.0236
  252DG     H22 5795   3.700   2.562   3.210  1.4687  1.2914 -0.6161
  252DG     H23 5796   3.863   2.535   3.220  0.9746 -1.7335  1.7309
  253DG      C1 5797   0.370   3.544   4.319 -0.6165 -0.0276 -0.5109
  253DG      C2 5798   0.374   2.975   4.647 -0.0975 -0.0318  0.3616
  253DG      H3 5799   0.296   3.546   4.399 -0.3286 -1.0873 -0.2095
  253DG      H4 5800   0.356   3.630   4.253 -1.6042  0.0419 -0.2318
  253DG      H5 5801   0.469   3.534   4.363 -0.9203 -2.0067 -0.1946
  253DG      H6 5802   0.442   2.902   4.602 -3.0037 -2.4695 -0.3993
  253DG      H7 5803   0.368   2.965   4.755 -1.8787 -1.0647  0.2045
  253DG      H8 5804   0.273   2.950   4.615 -0.0139 -1.1206  0.9132
  253DG      O9 5805   0.353   3.429   4.240 -0.2445 -0.2019  0.4755
  253DG     O10 5806   0.396   3.109   4.606 -0.1955  0.0354 -0.9132
  253DG     C11 5807   0.323   3.310   4.316 -0.2006  0.3016 -0.4383
  253DG     C12 5808   0.535   3.146   4.615  0.2773  0.1669 -0.6559
  253DG     H13 5809   0.258   3.241   4.263 -1.0135 -0.0425  0.9565
  253DG     H14 5810   0.280   3.328   4.414  0.8841 -0.9977  0.3233
  253DG     H15 5811   0.594   3.064   4.576 -1.1988 -1.7794  1.0062
  253DG     H16 5812   0.562   3.163   4.720 -3.2619  0.4333  0.3469
  253DG     C17 5813   0.452   3.224   4.332  0.2666 -1.0468 -0.1023
  253DG     C18 5814   0.544   3.290   4.547  1.0385  0.6358  0.5945
  253DG     O19 5815   0.559   3.281   4.406  0.4781 -0.4156  0.8911
  253DG     H20 5816   0.494   3.199   4.234 -0.6590 -0.8410 -0.5569
  253DG     H21 5817   0.428   3.130   4.382  2.8575 -1.6689  0.1187
  253DG     H22 5818   0.457   3.350   4.574  0.4871  0.2753 -0.3463
  253DG     H23 5819   0.629   3.353   4.575  0.5069  1.7637 -0.2402
  254DG      C1 5820   2.312   1.982   4.623  0.2086 -0.0161  0.0948
  254DG      C2 5821   2.425   2.054   5.353  0.3295 -0.0851  0.2172
  254DG      H3 5822   2.346   1.935   4.531 -0.4503  0.9861 -0.6821
  254DG      H4 5823   2.375   2.067   4.649  1.2028 -0.6670 -0.1256
  254DG      H5 5824   2.217   2.026   4.593  0.2907  0.9631  1.2302
  254DG      H6 5825   2.319   2.063   5.375  0.5763  0.8563  1.1058
  254DG      H7 5826   2.461   2.006   5.444 -2.4939 -0.6379  1.1409
  254DG      H8 5827   2.468   2.154   5.348 -0.5850  0.2530 -1.2863
  254DG      O9 5828   2.313   1.890   4.722  0.2974  0.5254 -0.1927
  254DG     O10 5829   2.453   1.983   5.238 -0.6921  0.4382  0.3959
  254DG     C11 5830   2.443   1.833   4.744 -0.3512 -0.4332  0.0563
  254DG     C12 5831   2.393   1.855   5.248 -0.4147  0.1783  0.3542
  254DG     H13 5832   2.531   1.897   4.734 -0.8370  0.1728 -0.3965
  254DG     H14 5833   2.469   1.763   4.666  0.4538  0.0048 -0.0810
  254DG     H15 5834   2.285   1.863   5.261 -0.2180  1.3644  1.4348
  254DG     H16 5835   2.430   1.802   5.336 -0.9601 -2.8053 -1.0774
  254DG     C17 5836   2.443   1.771   4.886 -0.2046  0.1134 -0.0344
  254DG     C18 5837   2.435   1.779   5.119 -0.4735  0.2160 -0.7272
  254DG     O19 5838   2.417   1.855   5.000 -0.0732 -0.4252 -0.1378
  254DG     H20 5839   2.537   1.716   4.893 -0.9771 -1.4623 -1.1951
  254DG     H21 5840   2.369   1.691   4.893 -0.5995  0.6003  1.7152
  254DG     H22 5841   2.542   1.758   5.123 -0.4229  0.5494 -0.2675
  254DG     H23 5842   2.374   1.688   5.114  0.5299 -0.3785 -3.2125
  255DG      C1 5843   1.335   4.513   1.272 -0.2035 -0.0014  0.0775
  255DG      C2 5844   0.935   3.896   1.635  0.3570  0.2761  0.1425
  255DG      H3 5845   1.436   4.509   1.233 -1.2719  1.3035 -3.0670
  255DG      H4 5846   1.320   4.612   1.315 -1.2251 -0.7494  1.5394
  255DG      H5 5847   1.269   4.503   1.186  0.3642  0.9386 -0.4850
  255DG      H6 5848   0.912   3.792   1.610  0.4257 -0.1928  1.9103
  255DG      H7 5849   0.897   3.902   1.737 -0.9709 -0.7899 -0.2466
  255DG      H8 5850   0.866   3.957   1.577  0.5016  0.0367 -0.2891
  255DG      O9 5851   1.316   4.411   1.375  0.9796  0.1531 -0.0109
  255DG     O10 5852   1.061   3.947   1.603 -0.2042 -0.0805  0.4077
  255DG     C11 5853   1.319   4.278   1.317  0.9428 -0.1437 -0.3997
  255DG     C12 5854   1.107   4.052   1.685 -0.0198 -0.1416  0.1325
  255DG     H13 5855   1.396   4.266   1.241  0.0318 -2.1760 -1.0683
  255DG     H14 5856   1.229   4.247   1.263 -0.1264  1.5244  0.3273
  255DG     H15 5857   1.106   4.021   1.789 -0.6735  0.4072  0.2992
  255DG     H16 5858   1.048   4.145   1.685  0.0208 -0.1140 -0.1482
  255DG     C17 5859   1.341   4.161   1.419  0.0649 -0.0189  0.0177
  255DG     C18 5860   1.241   4.088   1.625 -0.4033 -0.1804 -0.5394
  255DG     O19 5861   1.226   4.145   1.497  0.0092 -0.2397  0.1682
  255DG     H20 5862   1.431   4.182   1.477  0.2077  2.4915 -0.9628
  255DG     H21 5863   1.357   4.074   1.356 -0.3418  0.8679 -1.3461
  255DG     H22 5864   1.309   4.148   1.684 -1.0891 -0.0637  0.1474
  255DG     H23 5865   1.302   3.998   1.611 -0.7961 -0.5154 -0.1416
  256DG      C1 5866   3.274   0.345   1.663  0.3490 -0.4963 -0.1254
  256DG      C2 5867   3.229  -0.376   2.174  0.3889 -0.1164 -0.2603
  256DG      H3 5868   3.279   0.255   1.602 -3.8217 -0.6396 -0.5846
  256DG      H4 5869   3.376   0.383   1.668  0.2879  0.5973 -4.1576
  256DG      H5 5870   3.231   0.425   1.604  0.9006  0.1592  0.3549
  256DG      H6 5871   3.196  -0.465   2.120 -2.0424 -1.3416  2.9111
  256DG      H7 5872   3.334  -0.391   2.197  1.0369  2.1308 -1.4868
  256DG      H8 5873   3.176  -0.376   2.270  1.1125 -0.8298  0.1525
  256DG      O9 5874   3.207   0.306   1.779  0.3714  0.0487  0.1176
  256DG     O10 5875   3.212  -0.257   2.096 -0.2311 -0.0430 -0.0303
  256DG     C11 5876   3.269   0.200   1.853  0.3882 -0.8090 -0.2353
  256DG     C12 5877   3.271  -0.271   1.969 -0.2234 -0.0383  0.0552
  256DG     H13 5878   3.237   0.226   1.954 -0.3645 -0.9937 -0.4214
  256DG     H14 5879   3.375   0.213   1.875  0.6966  0.1787 -2.1528
  256DG     H15 5880   3.254  -0.365   1.918 -1.0629  0.0364  0.1942
  256DG     H16 5881   3.379  -0.267   1.988 -0.3686  1.5513  0.6970
  256DG     C17 5882   3.218   0.057   1.814 -0.0224  0.8258 -0.2698
  256DG     C18 5883   3.224  -0.164   1.867  0.1647 -0.1556 -0.1063
  256DG     O19 5884   3.264  -0.037   1.909  0.2679  0.0592 -0.2237
  256DG     H20 5885   3.248   0.035   1.712 -1.5434 -0.1813 -0.5300
  256DG     H21 5886   3.110   0.071   1.818 -0.1464 -0.2209  1.5688
  256DG     H22 5887   3.278  -0.175   1.773 -0.2186  2.6392 -0.7232
  256DG     H23 5888   3.122  -0.188   1.837 -0.9943 -0.7152  3.7948
  257DG      C1 5889   5.405   3.895   5.101 -0.8183  0.2701  0.7350
  257DG      C2 5890   6.066   3.677   4.674  0.3100 -0.0716  0.5463
  257DG      H3 5891   5.378   3.936   5.004 -4.0100  2.6708  2.4272
  257DG      H4 5892   5.370   3.964   5.178 -0.9606  1.2514 -0.1984
  257DG      H5 5893   5.368   3.792   5.112 -0.6543 -0.2759 -2.7302
  257DG      H6 5894   6.137   3.602   4.639  2.1074  0.7008  2.3416
  257DG      H7 5895   6.050   3.763   4.609  0.7300 -0.0554  0.4622
  257DG      H8 5896   6.122   3.727   4.753 -0.1209  1.6059 -0.1624
  257DG      O9 5897   5.550   3.880   5.102  0.0037 -0.2314  0.1992
  257DG     O10 5898   5.941   3.621   4.711  0.4379  0.3323  0.3694
  257DG     C11 5899   5.597   3.801   5.000 -0.0944  0.1739 -0.0296
  257DG     C12 5900   5.955   3.543   4.835  0.7900 -0.2598 -0.2946
  257DG     H13 5901   5.599   3.853   4.904 -0.9416 -1.7107 -1.1274
  257DG     H14 5902   5.531   3.717   4.980  1.0926 -0.2097 -2.8876
  257DG     H15 5903   6.046   3.483   4.837  0.6135 -0.6320 -2.0600
  257DG     H16 5904   5.883   3.462   4.826 -0.5901  0.9690 -0.5572
  257DG     C17 5905   5.736   3.753   5.048 -0.1900  0.0035  0.0016
  257DG     C18 5906   5.921   3.631   4.958  0.6334 -0.1844  0.2665
  257DG     O19 5907   5.782   3.665   4.944  0.2346 -0.1194  0.4523
  257DG     H20 5908   5.742   3.712   5.149  2.2535  1.4737  0.5118
  257DG     H21 5909   5.801   3.839   5.054 -1.9518  1.5617 -1.7862
  257DG     H22 5910   5.933   3.573   5.050 -0.7382  0.3078  0.7878
  257DG     H23 5911   5.991   3.714   4.972  1.0166 -0.2531 -1.1199
  258DG      C1 5912   3.870   0.864   4.484  0.1579 -0.6468 -0.8740
  258DG      C2 5913   3.619   1.576   4.614 -0.1832  0.2640 -0.0993
  258DG      H3 5914   3.967   0.860   4.437 -0.4587 -2.6353 -2.0966
  258DG      H4 5915   3.798   0.897   4.409  1.6130  0.8096 -1.6831
  258DG      H5 5916   3.839   0.763   4.513  1.7746 -0.8404  0.3018
  258DG      H6 5917   3.520   1.588   4.570 -0.5873 -0.6796  0.5158
  258DG      H7 5918   3.649   1.666   4.668  0.8793  0.2925 -0.7069
  258DG      H8 5919   3.681   1.562   4.525  0.8715  1.3138  0.4398
  258DG      O9 5920   3.867   0.958   4.597 -0.0106 -0.3031 -0.0926
  258DG     O10 5921   3.627   1.459   4.702  0.2158  0.0708  0.3861
  258DG     C11 5922   3.756   0.953   4.682  0.1972  0.2819  0.6886
  258DG     C12 5923   3.756   1.435   4.768 -0.2106 -0.5087 -0.0174
  258DG     H13 5924   3.731   0.852   4.716  1.1643 -0.3945 -0.5107
  258DG     H14 5925   3.668   0.977   4.624  0.7961  1.7321  0.3414
  258DG     H15 5926   3.786   1.512   4.839 -0.4455 -0.1118 -0.3454
  258DG     H16 5927   3.833   1.429   4.691 -0.8878  2.8185 -1.1287
  258DG     C17 5928   3.764   1.061   4.795 -0.1154  0.3854 -0.3624
  258DG     C18 5929   3.760   1.289   4.830 -0.3833 -0.5271  0.1484
  258DG     O19 5930   3.754   1.188   4.733  0.6168  0.0285 -0.0408
  258DG     H20 5931   3.857   1.053   4.851 -0.9687 -2.2197  0.8127
  258DG     H21 5932   3.685   1.052   4.868 -1.0678  0.6385 -1.3396
  258DG     H22 5933   3.854   1.278   4.883  0.2469  0.7492 -0.6498
  258DG     H23 5934   3.682   1.268   4.903 -1.0207  1.8167  0.2424
  259DG      C1 5935   3.434   1.364   1.675  0.2758  0.3472 -0.7757
  259DG      C2 5936   2.895   1.435   1.312  0.0502 -0.3590 -0.3680
  259DG      H3 5937   3.442   1.470   1.651  0.7085  0.4925 -0.0166
  259DG      H4 5938   3.467   1.300   1.594  0.6114 -0.5483  0.0467
  259DG      H5 5939   3.509   1.356   1.754  1.5610  2.3103 -1.6993
  259DG      H6 5940   2.894   1.349   1.245  0.6634 -0.9567  0.3530
  259DG      H7 5941   2.789   1.459   1.319 -0.1638 -1.1644 -0.7177
  259DG      H8 5942   2.947   1.519   1.267 -1.9599  1.1074 -0.0602
  259DG      O9 5943   3.299   1.340   1.714 -0.6932 -0.5770 -0.1825
  259DG     O10 5944   2.958   1.387   1.432  0.1423  0.0649  0.1608
  259DG     C11 5945   3.280   1.207   1.748  0.3658  0.1866 -0.3432
  259DG     C12 5946   2.884   1.284   1.499 -0.1254  0.5670  0.5548
  259DG     H13 5947   3.327   1.190   1.845  1.0331  0.7113 -0.5676
  259DG     H14 5948   3.327   1.145   1.672  0.6451  0.0183 -0.0352
  259DG     H15 5949   2.896   1.190   1.446 -0.3117  0.9468 -0.1824
  259DG     H16 5950   2.777   1.303   1.487 -0.3440 -0.3491  1.0101
  259DG     C17 5951   3.128   1.212   1.762  0.3043 -0.3087 -0.6456
  259DG     C18 5952   2.929   1.262   1.643  0.2029 -0.2059 -0.1959
  259DG     O19 5953   3.071   1.271   1.647  0.0041  0.0424  0.1326
  259DG     H20 5954   3.100   1.269   1.850 -1.2268 -1.0395 -0.6174
  259DG     H21 5955   3.101   1.109   1.786  0.9350 -0.1396  0.8329
  259DG     H22 5956   2.908   1.344   1.712  0.8503 -0.4922  0.3543
  259DG     H23 5957   2.901   1.165   1.684 -0.7320 -0.2818 -0.9931
  260DG      C1 5958   0.083   0.096   0.101 -1.2906 -0.0645  0.6899
  260DG      C2 5959   0.645   0.313   0.150 -0.0130 -0.6260  0.0072
  260DG      H3 5960   0.129   0.107   0.199 -0.7833 -2.1632  0.7226
  260DG      H4 5961  -0.020   0.130   0.110 -0.4686  2.8379  0.2186
  260DG      H5 5962   0.134   0.158   0.027  0.2076 -2.2748 -0.2349
  260DG      H6 5963   0.588   0.391   0.099  0.1447 -0.9495 -0.6792
  260DG      H7 5964   0.688   0.351   0.242  2.3752  1.5498 -1.8748
  260DG      H8 5965   0.728   0.307   0.080 -0.3129  0.7596 -0.4997
  260DG      O9 5966   0.088  -0.037   0.057  0.7493  0.5172 -0.9113
  260DG     O10 5967   0.587   0.188   0.167 -0.2792  0.0463  0.3561
  260DG     C11 5968   0.211  -0.103   0.044 -0.4073  0.1967  0.8908
  260DG     C12 5969   0.498   0.188   0.279 -0.5652  0.6055 -0.1172
  260DG     H13 5970   0.262  -0.056  -0.040 -1.7294 -0.4256 -0.3288
  260DG     H14 5971   0.183  -0.206   0.020 -0.6133  0.7893 -1.7169
  260DG     H15 5972   0.413   0.252   0.255 -0.7554  0.2915 -0.2778
  260DG     H16 5973   0.561   0.221   0.363  1.3733 -2.9680  0.0140
  260DG     C17 5974   0.307  -0.105   0.173 -0.5468  0.2847  0.2512
  260DG     C18 5975   0.439   0.050   0.295  0.2386 -1.0986 -0.7535
  260DG     O19 5976   0.367   0.027   0.176  0.1911 -0.0239 -0.0938
  260DG     H20 5977   0.374  -0.191   0.170 -1.1793 -0.2234  0.1556
  260DG     H21 5978   0.242  -0.138   0.254 -0.4205  1.4924  0.8698
  260DG     H22 5979   0.523  -0.019   0.303  1.3255  0.2187 -0.1993
  260DG     H23 5980   0.369   0.034   0.377 -0.5094  0.2782 -1.0945
  261DG      C1 5981   4.153   0.749   0.155  0.0849  0.4637  0.0632
  261DG      C2 5982   3.719   1.302  -0.202 -0.6054  0.0421 -0.0383
  261DG      H3 5983   4.148   0.643   0.181 -1.5800  0.3716 -0.4878
  261DG      H4 5984   4.159   0.819   0.238 -2.2789  0.2682  0.4840
  261DG      H5 5985   4.248   0.772   0.108  1.1745  1.0769  2.4209
  261DG      H6 5986   3.742   1.352  -0.109  1.3502  1.3390 -1.1468
  261DG      H7 5987   3.792   1.332  -0.277  0.3114  3.2219  1.9552
  261DG      H8 5988   3.626   1.349  -0.234 -0.7592 -0.1498  0.1269
  261DG      O9 5989   4.057   0.790   0.058  0.6084  0.0713 -0.4494
  261DG     O10 5990   3.696   1.163  -0.173  0.0343  0.2397  0.6096
  261DG     C11 5991   3.934   0.807   0.127 -0.2715 -0.4039 -0.3973
  261DG     C12 5992   3.776   1.078  -0.247  0.4692  1.1268  0.2131
  261DG     H13 5993   3.931   0.887   0.201 -2.7887  1.8557 -2.6910
  261DG     H14 5994   3.912   0.718   0.186 -1.5143 -1.0147 -1.7216
  261DG     H15 5995   3.881   1.108  -0.244  0.7928  0.4175 -1.9885
  261DG     H16 5996   3.745   1.067  -0.351 -0.0472  0.4917  0.4253
  261DG     C17 5997   3.824   0.826   0.028  0.0076  0.7443  0.8212
  261DG     C18 5998   3.767   0.940  -0.178  0.2702 -0.0398 -0.1433
  261DG     O19 5999   3.830   0.948  -0.054  0.5850  0.2294  0.0609
  261DG     H20 6000   3.736   0.836   0.091  0.4135 -0.9532  1.7003
  261DG     H21 6001   3.818   0.734  -0.030  0.2096  1.4555 -0.3619
  261DG     H22 6002   3.662   0.914  -0.170  0.5979 -1.2614  0.3876
  261DG     H23 6003   3.811   0.866  -0.245  1.8053 -1.8371  2.6774
  262DG      C1 6004   0.975   5.455   4.350  0.7160 -0.4054  0.1423
  262DG      C2 6005   1.331   5.406   4.903 -0.3148 -0.2210 -0.2921
  262DG      H3 6006   0.994   5.559   4.376  2.1744 -1.7191  5.5453
  262DG      H4 6007   0.884   5.451   4.290  2.2006 -1.0373 -2.2111
  262DG      H5 6008   1.060   5.415   4.295  0.6036  0.5159 -0.7375
  262DG      H6 6009   1.377   5.345   4.981 -0.1231 -1.1034 -1.0810
  262DG      H7 6010   1.403   5.423   4.824 -0.4870 -2.2660 -0.9453
  262DG      H8 6011   1.285   5.500   4.934 -0.3529  0.4058 -2.1341
  262DG      O9 6012   0.969   5.388   4.466  0.0131  0.6442 -0.3701
  262DG     O10 6013   1.225   5.330   4.855 -0.1872  0.2534  0.3160
  262DG     C11 6014   0.848   5.408   4.549  0.1177  0.1837 -0.6675
  262DG     C12 6015   1.113   5.289   4.933  0.2674  0.7667 -0.1796
  262DG     H13 6016   0.755   5.406   4.492 -0.7917  1.3724  0.6911
  262DG     H14 6017   0.852   5.512   4.583 -3.2509  0.6523 -1.3032
  262DG     H15 6018   1.084   5.373   4.996  0.5533  2.1860 -1.8262
  262DG     H16 6019   1.146   5.211   5.001 -0.2265  0.6725 -0.0421
  262DG     C17 6020   0.845   5.330   4.671  0.3668  0.7885 -0.3963
  262DG     C18 6021   0.976   5.266   4.856 -0.1269 -0.2868  0.1500
  262DG     O19 6022   0.974   5.322   4.733  0.1816  0.0395 -0.3909
  262DG     H20 6023   0.818   5.225   4.657 -0.7795  0.9125  0.7007
  262DG     H21 6024   0.769   5.367   4.740  2.3912  0.9908  1.8613
  262DG     H22 6025   0.957   5.159   4.851 -4.0988  0.3084 -0.9141
  262DG     H23 6026   0.892   5.306   4.914  0.2135  0.7847 -0.0663
  263DG      C1 6027   1.123   2.307   0.200  0.3333  0.3183 -0.3886
  263DG      C2 6028   0.966   2.617   0.752  0.0156 -0.2682 -0.1486
  263DG      H3 6029   1.128   2.295   0.092 -0.1129  0.4455 -0.4225
  263DG      H4 6030   1.065   2.225   0.241  1.4684 -0.8383 -1.0113
  263DG      H5 6031   1.226   2.298   0.236  0.9775  1.0659 -1.9190
  263DG      H6 6032   0.938   2.522   0.797 -2.1278  0.2201 -0.3191
  263DG      H7 6033   1.062   2.642   0.798 -1.0070  0.0507  1.9448
  263DG      H8 6034   0.890   2.682   0.796  0.2313 -0.0976 -0.0273
  263DG      O9 6035   1.065   2.431   0.225 -0.0852 -0.4806  0.1446
  263DG     O10 6036   0.966   2.621   0.608  0.7794  0.1352 -0.1053
  263DG     C11 6037   1.149   2.536   0.178  0.6070  0.1335  0.1656
  263DG     C12 6038   1.019   2.744   0.560  0.1282 -0.3188 -0.2641
  263DG     H13 6039   1.189   2.513   0.079  1.4541 -1.4811  0.8514
  263DG     H14 6040   1.239   2.531   0.240  0.1350 -1.0776  0.7807
  263DG     H15 6041   1.092   2.784   0.632 -0.9396  1.5453 -0.1489
  263DG     H16 6042   0.946   2.825   0.557  0.6442  0.2595  1.4016
  263DG     C17 6043   1.077   2.672   0.193  0.5880 -0.3121 -0.6177
  263DG     C18 6044   1.093   2.732   0.425  0.1261  0.0888 -0.1464
  263DG     O19 6045   1.011   2.687   0.317 -0.1031  0.9302  0.0487
  263DG     H20 6046   0.997   2.664   0.119 -1.1296 -1.8966  1.2979
  263DG     H21 6047   1.144   2.756   0.173  0.0644  0.1692 -0.3898
  263DG     H22 6048   1.158   2.817   0.403  1.6521 -1.1103 -0.4641
  263DG     H23 6049   1.168   2.655   0.442  1.1922  1.4136  1.4232
  264DG      C1 6050   3.887   5.031   0.380  0.3735  0.0067 -0.5243
  264DG      C2 6051   4.137   5.502   0.742  0.0830  0.4318 -0.7376
  264DG      H3 6052   3.992   5.029   0.352  1.2661  1.8454  2.2296
  264DG      H4 6053   3.821   5.018   0.294 -0.5749 -3.2424  0.5559
  264DG      H5 6054   3.873   4.958   0.461 -3.8102 -0.8134 -1.7378
  264DG      H6 6055   4.136   5.597   0.797 -1.7606 -1.0575  2.0465
  264DG      H7 6056   4.146   5.424   0.818 -1.6040 -0.0921 -1.0502
  264DG      H8 6057   4.224   5.494   0.677  0.4685  0.0514 -0.1878
  264DG      O9 6058   3.853   5.164   0.429  0.0014  0.2097 -0.0090
  264DG     O10 6059   4.025   5.474   0.662  0.0984 -0.2503 -0.0391
  264DG     C11 6060   3.717   5.164   0.480  0.0160  0.2836  0.2037
  264DG     C12 6061   3.905   5.524   0.723 -0.3581 -0.2655 -0.1561
  264DG     H13 6062   3.706   5.095   0.564  0.8859 -0.7466 -0.4823
  264DG     H14 6063   3.646   5.126   0.407 -0.2414  0.7088  0.2297
  264DG     H15 6064   3.911   5.627   0.757 -3.3330 -0.1134  0.1712
  264DG     H16 6065   3.877   5.472   0.815 -1.9072 -1.1145 -1.0599
  264DG     C17 6066   3.680   5.310   0.517  0.3833 -0.2038  0.0866
  264DG     C18 6067   3.777   5.502   0.631 -0.1896  0.5416 -0.2416
  264DG     O19 6068   3.792   5.361   0.585  0.3747 -0.2604 -0.4312
  264DG     H20 6069   3.594   5.315   0.584 -0.2088  0.3920 -0.7008
  264DG     H21 6070   3.654   5.364   0.426 -0.9013 -1.4856 -0.3559
  264DG     H22 6071   3.684   5.524   0.684  0.5492  0.2210  1.2668
  264DG     H23 6072   3.788   5.568   0.545  0.9059 -0.7915 -1.1632
  265DG      C1 6073   2.332   4.841   2.557  0.2331 -0.3064 -0.5544
  265DG      C2 6074   3.198   4.750   2.545 -0.5204  0.4418  0.2826
  265DG      H3 6075   2.279   4.825   2.463  0.6741 -1.3496 -0.6398
  265DG      H4 6076   2.309   4.939   2.597  0.1105 -0.3121 -0.6080
  265DG      H5 6077   2.298   4.766   2.628  1.3165 -1.2052 -0.9531
  265DG      H6 6078   3.155   4.757   2.445  0.3473  0.5222 -0.0932
  265DG      H7 6079   3.210   4.845   2.598  2.0439 -0.5211  1.6292
  265DG      H8 6080   3.299   4.713   2.525 -0.4165  1.1207 -0.5320
  265DG      O9 6081   2.468   4.832   2.540 -0.0606  0.1768 -0.2255
  265DG     O10 6082   3.124   4.651   2.617 -0.2602 -0.2882 -0.8282
  265DG     C11 6083   2.510   4.701   2.515  0.2043  0.8087  0.2393
  265DG     C12 6084   2.991   4.704   2.647  0.1546  0.5380 -0.0942
  265DG     H13 6085   2.457   4.667   2.426 -1.8284  1.9785  0.9340
  265DG     H14 6086   2.471   4.644   2.599 -2.8278  1.0930 -0.8755
  265DG     H15 6087   2.994   4.812   2.654 -1.8414  0.6156 -0.0125
  265DG     H16 6088   2.964   4.664   2.745  0.8497  3.3214  1.3251
  265DG     C17 6089   2.659   4.684   2.480 -0.1438  0.3193 -0.2385
  265DG     C18 6090   2.884   4.656   2.546  0.3160 -0.4543 -0.1476
  265DG     O19 6091   2.754   4.698   2.590  0.3955 -0.5715  0.2952
  265DG     H20 6092   2.693   4.762   2.412  1.8348  0.9968  1.4496
  265DG     H21 6093   2.681   4.590   2.429 -1.1936  1.2965 -2.6562
  265DG     H22 6094   2.906   4.705   2.451 -3.2904  2.1129  0.1113
  265DG     H23 6095   2.878   4.549   2.523 -2.2545 -0.1010 -1.5301
  266DG      C1 6096   2.022   0.742   1.389 -0.1865  0.4351 -0.0192
  266DG      C2 6097   2.661   0.974   1.328  0.1563  0.3931 -0.7882
  266DG      H3 6098   1.923   0.785   1.403 -0.3043  0.1944 -0.0993
  266DG      H4 6099   2.025   0.644   1.437 -1.5852  1.0778  1.4411
  266DG      H5 6100   2.043   0.711   1.286  0.1936 -0.8392  0.4198
  266DG      H6 6101   2.597   1.028   1.259 -0.4333  0.8819  0.1194
  266DG      H7 6102   2.737   1.047   1.358 -1.6844  2.5403 -1.1331
  266DG      H8 6103   2.716   0.890   1.285 -0.0660  0.8984 -2.1031
  266DG      O9 6104   2.131   0.827   1.434  0.1921  0.0296 -1.0865
  266DG     O10 6105   2.577   0.934   1.442 -0.3896 -0.6084  0.4658
  266DG     C11 6106   2.088   0.898   1.551 -0.1441  0.7019  0.1019
  266DG     C12 6107   2.529   1.048   1.517  0.1662  0.1186 -0.6846
  266DG     H13 6108   2.014   0.849   1.614  0.2795 -2.0233 -1.4089
  266DG     H14 6109   2.020   0.977   1.518 -0.4551  0.7303  0.7959
  266DG     H15 6110   2.488   1.124   1.451 -1.9466  0.0781  0.4775
  266DG     H16 6111   2.611   1.097   1.570 -0.7569  1.5815 -0.5473
  266DG     C17 6112   2.205   0.925   1.636 -0.1883  0.4453  0.2005
  266DG     C18 6113   2.423   1.008   1.621 -0.3251  0.4596  0.1068
  266DG     O19 6114   2.304   0.974   1.550 -0.7418 -0.1659 -0.4318
  266DG     H20 6115   2.234   0.834   1.688  0.6695  0.8515  0.4661
  266DG     H21 6116   2.181   1.011   1.700  2.0935  0.9444  0.4779
  266DG     H22 6117   2.468   0.930   1.683  1.2610 -0.4912 -2.1013
  266DG     H23 6118   2.394   1.095   1.680  1.0278  0.2705  1.0919
  267DG      C1 6119   1.455   5.043   4.818 -0.3813 -0.2968 -0.6405
  267DG      C2 6120   1.267   5.627   4.591 -0.2985 -0.2405  0.1472
  267DG      H3 6121   1.457   4.934   4.824 -0.0921 -0.4429 -2.6211
  267DG      H4 6122   1.401   5.100   4.894  2.2395  1.0828  0.2892
  267DG      H5 6123   1.554   5.087   4.829 -0.8498  0.6787 -0.2070
  267DG      H6 6124   1.289   5.632   4.698  2.1016 -0.8887 -0.2640
  267DG      H7 6125   1.331   5.706   4.552  0.1736 -0.1751  1.0167
  267DG      H8 6126   1.162   5.652   4.578 -0.2916 -0.1762  0.2165
  267DG      O9 6127   1.407   5.089   4.697 -0.3015 -0.3982  0.1943
  267DG     O10 6128   1.292   5.496   4.548 -0.2167  0.3869  1.0540
  267DG     C11 6129   1.502   5.071   4.593  0.0079 -0.1302 -0.3821
  267DG     C12 6130   1.347   5.485   4.414 -0.2963 -0.1163 -0.9544
  267DG     H13 6131   1.532   4.966   4.587 -0.1059 -0.4884  3.0778
  267DG     H14 6132   1.595   5.121   4.619  0.4420 -0.4350 -1.3028
  267DG     H15 6133   1.446   5.532   4.413  0.0575 -0.7446  0.8223
  267DG     H16 6134   1.275   5.528   4.345 -0.5217  0.5534 -0.3058
  267DG     C17 6135   1.462   5.134   4.462  0.0833  0.9962  0.2766
  267DG     C18 6136   1.371   5.336   4.377 -0.0920  0.5998  0.2788
  267DG     O19 6137   1.429   5.269   4.489 -0.1929 -0.1948  0.2365
  267DG     H20 6138   1.383   5.075   4.415  0.6752 -0.4655  1.0390
  267DG     H21 6139   1.552   5.116   4.402  0.3661  1.0816  0.6744
  267DG     H22 6140   1.277   5.287   4.352 -0.4267  1.0383  0.6548
  267DG     H23 6141   1.438   5.324   4.293 -1.0105  3.6219 -1.0271
  268DG      C1 6142   5.339   1.030   0.517 -0.0483  0.4750  0.1195
  268DG      C2 6143   4.842   1.003   0.983  0.7415  0.0923 -0.0161
  268DG      H3 6144   5.374   1.090   0.600 -0.3074  0.4800  0.2260
  268DG      H4 6145   5.351   1.088   0.426 -1.2370 -1.0451 -1.0719
  268DG      H5 6146   5.410   0.950   0.496 -0.7799  0.3311 -2.0262
  268DG      H6 6147   4.741   1.030   1.013  0.1637 -1.0223 -0.9021
  268DG      H7 6148   4.864   0.907   1.031  1.7461  0.1792 -0.2879
  268DG      H8 6149   4.910   1.074   1.031  1.9198 -0.6632 -0.5122
  268DG      O9 6150   5.198   1.006   0.544 -0.5768  0.2847 -0.4548
  268DG     O10 6151   4.861   0.997   0.842  0.0158 -0.4490  0.5247
  268DG     C11 6152   5.141   0.917   0.449 -0.1976 -0.6210 -0.3379
  268DG     C12 6153   4.800   0.871   0.791 -0.5492 -0.5024  0.4879
  268DG     H13 6154   5.179   0.815   0.456 -0.9474 -0.7959  1.9137
  268DG     H14 6155   5.172   0.955   0.351  0.0537 -1.5791 -0.6449
  268DG     H15 6156   4.697   0.888   0.820 -0.1709  0.8722  1.1463
  268DG     H16 6157   4.848   0.778   0.823 -0.2204 -0.6463 -0.3993
  268DG     C17 6158   4.988   0.887   0.459  0.6186 -0.2538 -0.1291
  268DG     C18 6159   4.821   0.858   0.638 -0.1350 -0.5683 -0.1376
  268DG     O19 6160   4.963   0.870   0.600 -0.2487 -0.3802 -0.1145
  268DG     H20 6161   4.947   0.803   0.403 -0.8238 -0.3537  0.9981
  268DG     H21 6162   4.941   0.981   0.431 -1.4019 -1.0815  0.3279
  268DG     H22 6163   4.786   0.759   0.607  0.7510 -1.8041  2.4723
  268DG     H23 6164   4.763   0.942   0.600 -0.4410 -0.5236  0.4184
  269DG      C1 6165   2.626   2.355   1.428 -0.1649  0.1657 -0.1150
  269DG      C2 6166   2.170   3.001   1.553  0.1567 -0.0877 -0.0557
  269DG      H3 6167   2.557   2.334   1.347  0.0774  2.4849 -1.0238
  269DG      H4 6168   2.678   2.261   1.447 -0.7215  0.1377  1.3685
  269DG      H5 6169   2.696   2.435   1.403 -1.4968  2.0620  1.8801
  269DG      H6 6170   2.182   2.942   1.462 -2.7816  1.9960 -1.9935
  269DG      H7 6171   2.067   3.037   1.559  0.1257  0.3924 -2.3040
  269DG      H8 6172   2.228   3.093   1.548 -0.9755  0.7826  1.9278
  269DG      O9 6173   2.553   2.399   1.539  1.2913  0.7928 -0.7419
  269DG     O10 6174   2.228   2.920   1.657 -0.5059 -0.3603 -0.6305
  269DG     C11 6175   2.472   2.520   1.530 -0.0015 -0.3030 -0.5786
  269DG     C12 6176   2.155   2.802   1.698 -0.6014 -0.2317 -1.0549
  269DG     H13 6177   2.403   2.493   1.450 -1.3609  0.0015  0.4685
  269DG     H14 6178   2.527   2.609   1.501 -1.9140  1.6970  1.6069
  269DG     H15 6179   2.106   2.768   1.607 -1.0068 -1.4445 -0.4073
  269DG     H16 6180   2.082   2.825   1.775 -1.0701 -0.5783 -1.3899
  269DG     C17 6181   2.410   2.543   1.673  0.0689  0.5994 -0.5773
  269DG     C18 6182   2.250   2.695   1.751 -0.4209  0.3111 -0.0602
  269DG     O19 6183   2.327   2.648   1.647  0.2502  0.1373 -0.4135
  269DG     H20 6184   2.481   2.575   1.750 -1.3824  0.4618  0.8563
  269DG     H21 6185   2.354   2.453   1.699  1.4372 -1.0121 -2.8496
  269DG     H22 6186   2.317   2.741   1.823 -0.9539 -1.7009  1.8061
  269DG     H23 6187   2.192   2.621   1.806 -0.3287 -0.4239 -0.9418
  270DG      C1 6188   2.941   5.278   1.512  0.1899 -0.5469 -0.4124
  270DG      C2 6189   2.917   4.737   2.167 -0.0944  0.0804  0.4930
  270DG      H3 6190   2.881   5.352   1.459 -0.6377 -1.1087 -0.2745
  270DG      H4 6191   2.991   5.227   1.430  1.7562  0.8967 -0.4115
  270DG      H5 6192   3.014   5.323   1.579 -0.1283 -1.5684  0.6473
  270DG      H6 6193   2.853   4.674   2.229 -1.5139  0.0981 -0.8846
  270DG      H7 6194   3.016   4.703   2.138 -0.1951  1.2709 -1.3981
  270DG      H8 6195   2.940   4.816   2.239  1.1958  0.0586  0.1196
  270DG      O9 6196   2.856   5.197   1.591 -0.2222  0.0313 -0.0137
  270DG     O10 6197   2.859   4.787   2.051 -0.0103  0.3442 -0.4984
  270DG     C11 6198   2.801   5.267   1.704  1.1502 -0.4489 -0.0125
  270DG     C12 6199   2.913   4.905   1.997 -0.2543 -0.0106  0.5447
  270DG     H13 6200   2.731   5.344   1.674 -0.6908 -1.7067  0.8870
  270DG     H14 6201   2.886   5.325   1.739  0.3855  2.1709 -2.2159
  270DG     H15 6202   3.005   4.888   1.940 -0.3516 -1.3064  0.7305
  270DG     H16 6203   2.937   4.979   2.073  2.0399 -0.5182  0.4031
  270DG     C17 6204   2.735   5.173   1.810 -0.3632  0.0746 -0.6096
  270DG     C18 6205   2.797   4.962   1.917 -0.1096 -0.6803 -0.7746
  270DG     O19 6206   2.841   5.090   1.864  0.1725  0.0191  0.4748
  270DG     H20 6207   2.662   5.106   1.764 -0.6501 -0.7444  0.9756
  270DG     H21 6208   2.685   5.226   1.891 -2.0978  0.0104 -1.5903
  270DG     H22 6209   2.756   4.888   1.849  1.0676 -1.3294 -0.8054
  270DG     H23 6210   2.710   4.982   1.980  1.3397 -1.8690  1.7563
  271DG      C1 6211   1.621   1.144   3.825 -0.4134 -0.4988 -0.2167
  271DG      C2 6212   1.638   0.781   3.264 -0.7520 -0.2760  0.0623
  271DG      H3 6213   1.639   1.092   3.919 -1.1162 -1.3552 -0.5413
  271DG      H4 6214   1.564   1.236   3.840 -1.6859 -1.5420  1.8934
  271DG      H5 6215   1.711   1.181   3.776  0.0203 -0.1133  0.8430
  271DG      H6 6216   1.600   0.862   3.201 -1.8848 -1.8727 -1.4081
  271DG      H7 6217   1.744   0.803   3.279 -0.1812 -2.5596 -0.2956
  271DG      H8 6218   1.619   0.686   3.214 -1.0738 -1.5176  2.4297
  271DG      O9 6219   1.551   1.069   3.736 -0.0828 -0.3379 -0.1939
  271DG     O10 6220   1.572   0.796   3.394  0.0434  0.0044  0.1036
  271DG     C11 6221   1.430   1.012   3.791  0.1932  0.7668 -0.8508
  271DG     C12 6222   1.443   0.740   3.402  0.6126 -0.0286 -0.0668
  271DG     H13 6223   1.356   1.082   3.752  0.3045 -0.0078 -2.5466
  271DG     H14 6224   1.413   1.013   3.899  0.2188 -0.4018 -0.8303
  271DG     H15 6225   1.443   0.648   3.343 -2.1555  1.3611 -2.5198
  271DG     H16 6226   1.379   0.807   3.344  0.4020  1.7834  2.1099
  271DG     C17 6227   1.409   0.874   3.741 -0.2303  0.6169 -0.3126
  271DG     C18 6228   1.410   0.736   3.551  0.5356 -0.2529  0.5544
  271DG     O19 6229   1.416   0.864   3.599  0.1916  0.2393  0.1198
  271DG     H20 6230   1.313   0.832   3.770  0.2421  0.0993  0.5331
  271DG     H21 6231   1.486   0.813   3.788  1.0950 -0.0419 -3.1269
  271DG     H22 6232   1.310   0.694   3.566  0.4668 -0.2678  0.0753
  271DG     H23 6233   1.485   0.673   3.600  0.4847 -0.7931 -0.0400
  272DG      C1 6234   1.993   4.664   2.910 -0.2087  0.8213 -0.3786
  272DG      C2 6235   2.079   4.437   2.211 -0.1605  0.2568 -1.0605
  272DG      H3 6236   2.092   4.674   2.955  0.5680 -2.2593 -1.1770
  272DG      H4 6237   1.925   4.636   2.991 -0.2163  0.3441 -0.5483
  272DG      H5 6238   1.964   4.765   2.882  1.0606  1.0316 -1.0036
  272DG      H6 6239   2.076   4.352   2.143 -1.6126  0.5041 -1.3475
  272DG      H7 6240   1.982   4.441   2.261 -0.2369 -0.1003 -1.1779
  272DG      H8 6241   2.077   4.526   2.148  2.1919  1.5314  0.5246
  272DG      O9 6242   1.983   4.567   2.809 -0.0420  0.1518  1.1491
  272DG     O10 6243   2.190   4.444   2.306 -0.3724  0.1208  0.7944
  272DG     C11 6244   2.099   4.583   2.722 -0.0050  0.3983  0.4628
  272DG     C12 6245   2.203   4.330   2.387 -0.1562  0.4715  0.0181
  272DG     H13 6246   2.184   4.620   2.780  0.3887  1.0159 -0.4710
  272DG     H14 6247   2.089   4.650   2.635  1.0577 -0.3811 -0.2881
  272DG     H15 6248   2.248   4.244   2.337 -0.7317  1.2009 -1.8437
  272DG     H16 6249   2.103   4.303   2.420  0.7593  0.4260  3.1331
  272DG     C17 6250   2.153   4.450   2.664 -0.3776 -0.2907 -0.0281
  272DG     C18 6251   2.302   4.361   2.502  0.0157  0.5964 -0.2317
  272DG     O19 6252   2.265   4.485   2.578  0.4635 -0.1466 -0.2233
  272DG     H20 6253   2.067   4.406   2.614 -1.2846  1.4248 -0.0517
  272DG     H21 6254   2.186   4.395   2.752 -1.7516  0.7867  1.1944
  272DG     H22 6255   2.313   4.276   2.569 -0.3898 -2.6060 -3.9251
  272DG     H23 6256   2.400   4.383   2.459 -0.3575  0.4710 -1.1655
  273DG      C1 6257   0.022   3.822   3.803  0.1647  0.2361 -0.2906
  273DG      C2 6258   0.710   3.785   3.513 -0.7613  0.4801  0.3157
  273DG      H3 6259  -0.038   3.789   3.718 -0.0577  0.5846 -0.2702
  273DG      H4 6260   0.033   3.929   3.791  0.9047  0.2540  0.4486
  273DG      H5 6261  -0.022   3.786   3.896  1.3991  0.2258  0.2984
  273DG      H6 6262   0.720   3.709   3.590  1.3351 -0.2788 -0.6200
  273DG      H7 6263   0.739   3.739   3.418 -0.1615 -0.8429  1.1131
  273DG      H8 6264   0.771   3.869   3.548 -0.6141  0.4346  0.1685
  273DG      O9 6265   0.152   3.768   3.795 -0.0309 -0.2547 -0.1998
  273DG     O10 6266   0.571   3.821   3.513 -0.1624  0.1604 -1.0234
  273DG     C11 6267   0.148   3.626   3.761  0.1218 -0.4535  0.6815
  273DG     C12 6268   0.491   3.723   3.450  0.1187 -0.4082 -0.5538
  273DG     H13 6269   0.101   3.610   3.664  0.5097 -2.1072  0.7361
  273DG     H14 6270   0.114   3.561   3.841 -1.3580 -1.6404 -0.8449
  273DG     H15 6271   0.540   3.662   3.375  1.0276 -1.4510  0.8191
  273DG     H16 6272   0.408   3.782   3.411  2.8562  4.3202 -0.0792
  273DG     C17 6273   0.293   3.595   3.724  1.0412  0.5357  0.5163
  273DG     C18 6274   0.445   3.618   3.555 -0.4799  0.1799  0.4851
  273DG     O19 6275   0.340   3.678   3.623 -0.1961  0.6808  0.3471
  273DG     H20 6276   0.294   3.496   3.678 -0.3745  0.8909 -0.3461
  273DG     H21 6277   0.351   3.591   3.816  0.6373 -1.4826  0.7265
  273DG     H22 6278   0.427   3.526   3.499  3.1097  0.6968 -1.7963
  273DG     H23 6279   0.528   3.595   3.622  0.3352 -0.3785 -0.6830
  274DG      C1 6280   1.016   1.399   1.699  0.3264 -0.5267 -0.3506
  274DG      C2 6281   0.892   1.725   1.169  0.2915  0.6773  0.3868
  274DG      H3 6282   1.051   1.381   1.800 -2.0749 -1.0925  0.4415
  274DG      H4 6283   1.054   1.314   1.642 -1.5219 -1.5987 -0.0518
  274DG      H5 6284   0.909   1.384   1.687  0.2415 -0.8870  0.7423
  274DG      H6 6285   0.987   1.775   1.152 -0.1782  1.7613  0.8817
  274DG      H7 6286   0.884   1.628   1.119 -0.4623  1.2042 -0.5622
  274DG      H8 6287   0.818   1.793   1.126  2.4289  2.6995 -0.2743
  274DG      O9 6288   1.055   1.529   1.656  0.4970  0.4598  0.7610
  274DG     O10 6289   0.872   1.720   1.310 -0.0105  0.1639  0.5097
  274DG     C11 6290   0.989   1.631   1.729 -0.5544 -0.7702 -0.9001
  274DG     C12 6291   0.861   1.853   1.357 -0.2750 -0.4216  0.6706
  274DG     H13 6292   1.031   1.613   1.828 -0.7285  0.9943 -0.4787
  274DG     H14 6293   0.881   1.615   1.734 -0.8059  1.0275  0.5609
  274DG     H15 6294   0.773   1.904   1.319 -1.1652 -1.9250  0.6514
  274DG     H16 6295   0.943   1.913   1.317 -1.0708 -0.1195 -0.5515
  274DG     C17 6296   1.025   1.774   1.683 -0.4483 -0.2993  1.0156
  274DG     C18 6297   0.876   1.853   1.512  0.2136  0.5666  0.3257
  274DG     O19 6298   0.998   1.793   1.541 -0.3094  0.1126  0.4958
  274DG     H20 6299   1.133   1.781   1.697 -0.3026  1.5076 -0.5085
  274DG     H21 6300   0.976   1.851   1.741  2.3049  1.2605  1.4475
  274DG     H22 6301   0.884   1.958   1.542 -0.4003  0.6543  0.2018
  274DG     H23 6302   0.794   1.802   1.563 -0.4548  0.4024 -0.8676
  275DG      C1 6303   1.352   3.586   4.661 -0.4696  0.8541 -0.4019
  275DG      C2 6304   1.188   4.140   4.167 -0.2141  0.1338 -0.6236
  275DG      H3 6305   1.433   3.532   4.710 -0.4444 -1.0148 -2.3585
  275DG      H4 6306   1.280   3.508   4.637  2.2658 -1.5012 -1.5734
  275DG      H5 6307   1.316   3.651   4.741  0.8963 -0.8489  1.6957
  275DG      H6 6308   1.096   4.106   4.121 -2.2680  0.6250  2.7907
  275DG      H7 6309   1.166   4.191   4.261  0.8221 -2.1274  0.9341
  275DG      H8 6310   1.243   4.214   4.109  0.3876 -1.0028 -1.5544
  275DG      O9 6311   1.397   3.654   4.544  0.1123  0.5270 -0.0501
  275DG     O10 6312   1.274   4.033   4.203 -0.2679 -0.2190 -0.0045
  275DG     C11 6313   1.499   3.749   4.573 -0.1910 -0.5080  0.2074
  275DG     C12 6314   1.205   3.926   4.264 -0.3994 -0.0888 -0.1857
  275DG     H13 6315   1.592   3.704   4.608  0.4830  0.9736  0.3490
  275DG     H14 6316   1.474   3.835   4.635  3.8500  1.6469 -0.8326
  275DG     H15 6317   1.143   3.878   4.188  0.6799  0.8360 -1.7030
  275DG     H16 6318   1.146   3.974   4.343  0.5230  1.8907 -0.6341
  275DG     C17 6319   1.527   3.800   4.430  0.8186  0.6730 -0.3037
  275DG     C18 6320   1.310   3.824   4.318 -0.0384  0.0450  0.1812
  275DG     O19 6321   1.424   3.885   4.374  0.2677 -0.3149 -0.2824
  275DG     H20 6322   1.539   3.709   4.371  0.3623 -0.0240  0.6485
  275DG     H21 6323   1.619   3.857   4.414  0.7075  0.7649 -0.6062
  275DG     H22 6324   1.259   3.765   4.395 -0.6749 -1.4295 -1.3006
  275DG     H23 6325   1.336   3.752   4.241 -0.8596 -0.3754  0.2854
  276DG      C1 6326   3.894   0.401   1.795  0.1333 -0.9570  0.7226
  276DG      C2 6327   3.466   0.475   2.465 -0.9671 -0.3326 -0.2057
  276DG      H3 6328   3.901   0.461   1.704  0.9270 -0.2854  1.2105
  276DG      H4 6329   3.905   0.297   1.764 -0.0019 -0.9332  0.5935
  276DG      H5 6330   3.982   0.428   1.854  0.7392  0.9780 -0.9411
  276DG      H6 6331   3.524   0.537   2.534 -0.0175 -2.8427  1.3966
  276DG      H7 6332   3.359   0.476   2.488 -1.2814 -1.3361 -1.5410
  276DG      H8 6333   3.507   0.375   2.480 -0.4953 -0.3062 -1.2830
  276DG      O9 6334   3.768   0.428   1.860 -0.5047  0.2204  0.1773
  276DG     O10 6335   3.480   0.518   2.328 -0.4378  0.0198  0.6894
  276DG     C11 6336   3.732   0.567   1.869 -0.5441 -0.2549 -0.6887
  276DG     C12 6337   3.451   0.418   2.232 -0.3216  0.4339  0.3758
  276DG     H13 6338   3.736   0.617   1.772 -1.0768  3.1444  0.8626
  276DG     H14 6339   3.803   0.617   1.935  0.3742 -0.4326 -1.5263
  276DG     H15 6340   3.354   0.373   2.256 -0.8100  1.7795  1.0401
  276DG     H16 6341   3.528   0.341   2.238 -0.8346 -0.0585  0.8457
  276DG     C17 6342   3.589   0.578   1.923 -0.5424 -0.1494 -0.1510
  276DG     C18 6343   3.451   0.476   2.089  0.7918 -0.4255  0.2736
  276DG     O19 6344   3.585   0.504   2.044 -0.0238  0.2122 -0.1368
  276DG     H20 6345   3.522   0.527   1.853  1.4274  0.2272 -2.4211
  276DG     H21 6346   3.554   0.681   1.929 -0.4480 -0.1904  1.3221
  276DG     H22 6347   3.417   0.397   2.023  1.9679 -1.1506  0.5023
  276DG     H23 6348   3.377   0.555   2.074 -1.8796 -2.5723  1.4154
  277DG      C1 6349   0.230   2.311   1.453  0.2358  0.1719 -0.7329
  277DG      C2 6350   0.396   1.697   1.730  0.2679  0.4533  0.1243
  277DG      H3 6351   0.335   2.315   1.422  0.6896 -1.3863  0.4809
  277DG      H4 6352   0.189   2.411   1.467 -0.5829  0.3696 -3.7627
  277DG      H5 6353   0.170   2.262   1.377 -0.4172  0.6129 -0.5107
  277DG      H6 6354   0.360   1.629   1.808 -2.6541  2.0302  0.2617
  277DG      H7 6355   0.366   1.651   1.636  0.9179 -0.6867  0.4466
  277DG      H8 6356   0.504   1.700   1.715  0.0837 -0.5240 -1.6811
  277DG      O9 6357   0.217   2.245   1.573 -0.0146  0.0581  0.5820
  277DG     O10 6358   0.340   1.829   1.744 -0.5007 -0.1853  0.3262
  277DG     C11 6359   0.299   2.302   1.675 -0.1167 -0.1817  0.3388
  277DG     C12 6360   0.343   1.875   1.880 -0.0279 -0.5807 -0.7209
  277DG     H13 6361   0.262   2.404   1.684 -0.1686  0.0025 -1.5809
  277DG     H14 6362   0.406   2.294   1.658 -0.2364 -1.4171  0.0578
  277DG     H15 6363   0.446   1.879   1.915 -1.2127 -0.0364  3.3439
  277DG     H16 6364   0.289   1.816   1.955 -0.8215  2.3432  1.1992
  277DG     C17 6365   0.263   2.220   1.799  0.9414  0.4640 -0.1037
  277DG     C18 6366   0.273   2.009   1.887 -0.3419  0.0268  0.2317
  277DG     O19 6367   0.332   2.093   1.792 -0.7810  0.1053  0.6511
  277DG     H20 6368   0.155   2.209   1.805  0.9825  0.8690  1.8692
  277DG     H21 6369   0.300   2.282   1.881 -2.2439  0.7189  1.2681
  277DG     H22 6370   0.171   1.995   1.852 -0.6127 -0.9412  1.3369
  277DG     H23 6371   0.262   2.062   1.981  0.8039  0.2543  0.2506
  278DG      C1 6372   1.739   3.315   3.384 -0.3873 -0.4959  0.2693
  278DG      C2 6373   1.333   2.814   3.575  0.0696 -0.8418 -0.3381
  278DG      H3 6374   1.744   3.284   3.488  0.3780 -2.8287 -0.4092
  278DG      H4 6375   1.677   3.404   3.374  1.5588  0.7199 -2.0902
  278DG      H5 6376   1.844   3.341   3.368 -0.2928 -1.3207 -0.5097
  278DG      H6 6377   1.358   2.838   3.678 -0.4779  0.9329 -0.5870
  278DG      H7 6378   1.252   2.881   3.547 -0.1485 -0.0545  2.0163
  278DG      H8 6379   1.310   2.707   3.566 -0.4627 -0.8500  1.0112
  278DG      O9 6380   1.694   3.209   3.300 -0.2803  0.0373 -0.1032
  278DG     O10 6381   1.443   2.835   3.495  0.3019  0.4362  0.6709
  278DG     C11 6382   1.770   3.092   3.317 -0.2882  0.1891  0.0636
  278DG     C12 6383   1.422   2.792   3.361  0.3256 -0.2563 -0.2535
  278DG     H13 6384   1.769   3.062   3.422 -1.6516 -1.2091 -0.3146
  278DG     H14 6385   1.874   3.117   3.295 -0.8768  2.1415 -0.7044
  278DG     H15 6386   1.338   2.847   3.316  1.1220  0.4755 -0.8873
  278DG     H16 6387   1.398   2.686   3.365 -0.0447 -0.1411  1.3129
  278DG     C17 6388   1.713   2.988   3.225 -0.2354  0.3055 -0.0698
  278DG     C18 6389   1.554   2.816   3.286  0.0398 -0.5916 -0.3654
  278DG     O19 6390   1.594   2.951   3.297  0.3264  0.0471 -0.1522
  278DG     H20 6391   1.781   2.903   3.223  0.8429  1.1640 -1.3409
  278DG     H21 6392   1.699   3.008   3.118 -1.1046 -1.0858 -0.2508
  278DG     H22 6393   1.629   2.753   3.336 -2.1131 -0.8336  2.8972
  278DG     H23 6394   1.552   2.786   3.182  1.1975  0.2402 -0.6463
  279DG      C1 6395   4.035   0.038   4.051  0.2200  0.2210  0.3036
  279DG      C2 6396   4.343   0.684   4.278  0.5345 -0.1600  0.1448
  279DG      H3 6397   3.935  -0.004   4.066  0.0283 -0.2191 -1.9096
  279DG      H4 6398   4.085   0.021   4.146  1.1261 -0.3969 -0.2716
  279DG      H5 6399   4.096  -0.016   3.979  1.2242 -0.2600  1.4833
  279DG      H6 6400   4.449   0.668   4.261  0.1371 -1.4111 -1.5151
  279DG      H7 6401   4.302   0.766   4.218 -0.1586 -0.6394 -0.0470
  279DG      H8 6402   4.339   0.701   4.385 -0.1017  1.5576 -0.1166
  279DG      O9 6403   4.042   0.180   4.032 -0.1177  0.1088  0.3890
  279DG     O10 6404   4.269   0.565   4.237 -0.1038 -0.6966  0.5433
  279DG     C11 6405   4.045   0.221   3.893 -0.3123  0.3875  0.3790
  279DG     C12 6406   4.290   0.541   4.098 -0.1131 -0.1050 -0.3744
  279DG     H13 6407   3.951   0.188   3.850 -0.2132  0.4338  0.1234
  279DG     H14 6408   4.130   0.176   3.840 -0.2768 -0.5606  1.2021
  279DG     H15 6409   4.396   0.522   4.081  0.1288  0.1238  0.7859
  279DG     H16 6410   4.259   0.633   4.049  0.9300  0.8945  0.7903
  279DG     C17 6411   4.056   0.377   3.882  0.1684  0.9598 -0.2926
  279DG     C18 6412   4.190   0.441   4.050 -0.5906 -0.6543 -0.4074
  279DG     O19 6413   4.179   0.447   3.912  0.5236 -0.2810 -0.3281
  279DG     H20 6414   3.968   0.427   3.922  0.1878  0.1721  0.7561
  279DG     H21 6415   4.047   0.388   3.774  0.0548 -0.9329 -0.5260
  279DG     H22 6416   4.218   0.342   4.087  0.8274  0.0711  0.5502
  279DG     H23 6417   4.095   0.465   4.098 -0.4718 -1.2616  0.1539
  280DG      C1 6418   2.884   5.176   0.468  0.5846  0.2378  0.0229
  280DG      C2 6419   3.206   4.625   0.717 -0.1768  0.4105  0.5193
  280DG      H3 6420   2.863   5.231   0.560 -2.8579  1.7302 -1.5013
  280DG      H4 6421   2.811   5.217   0.399  1.6070  0.0526 -1.2102
  280DG      H5 6422   2.978   5.206   0.421 -0.6719 -0.7726 -3.4476
  280DG      H6 6423   3.289   4.616   0.646 -1.4194 -1.4110 -0.8135
  280DG      H7 6424   3.245   4.682   0.801 -0.6611  0.0696  0.9825
  280DG      H8 6425   3.196   4.519   0.741 -1.4652  0.0968 -1.2632
  280DG      O9 6426   2.870   5.040   0.497 -0.0152  0.2342  0.1077
  280DG     O10 6427   3.083   4.682   0.676 -0.3205  0.0857 -0.2675
  280DG     C11 6428   2.745   5.008   0.555  0.1898 -0.3457 -0.1392
  280DG     C12 6429   2.970   4.653   0.758  0.0715 -0.0242  0.7104
  280DG     H13 6430   2.670   5.046   0.487  0.6082  0.5987 -0.0846
  280DG     H14 6431   2.734   5.049   0.655  1.6880  0.0313 -0.0943
  280DG     H15 6432   2.970   4.703   0.855  3.0477 -0.3786  0.9795
  280DG     H16 6433   2.985   4.554   0.801 -1.0304 -0.3184  0.4579
  280DG     C17 6434   2.739   4.858   0.556  0.4721  0.3984 -0.3401
  280DG     C18 6435   2.838   4.677   0.679  0.5135 -0.0615  0.2539
  280DG     O19 6436   2.850   4.804   0.624  0.2229 -0.0671  0.4732
  280DG     H20 6437   2.746   4.812   0.457  1.5583  1.6609 -0.8887
  280DG     H21 6438   2.648   4.828   0.608  0.1027  1.3109 -0.4206
  280DG     H22 6439   2.816   4.605   0.600 -1.4581 -1.4950  1.9914
  280DG     H23 6440   2.766   4.689   0.760 -0.2090  0.4091 -0.4451
  281DG      C1 6441   4.838   0.039   4.352  0.2508  0.2102  0.9090
  281DG      C2 6442   5.174  -0.271   4.899  0.5509  0.1112  0.1336
  281DG      H3 6443   4.940   0.008   4.331  0.5680  0.1057  2.4939
  281DG      H4 6444   4.807   0.121   4.287 -1.0158 -0.6693  0.3505
  281DG      H5 6445   4.768  -0.043   4.334  0.0394  0.2231  1.6621
  281DG      H6 6446   5.166  -0.287   5.007  1.3510 -1.6079 -0.0326
  281DG      H7 6447   5.166  -0.370   4.854  1.0996 -0.2050  0.7086
  281DG      H8 6448   5.277  -0.245   4.872  0.7469 -1.4879 -0.7658
  281DG      O9 6449   4.846   0.058   4.487 -0.0585  0.4846 -0.0590
  281DG     O10 6450   5.079  -0.170   4.857  0.0741 -0.0708  0.3338
  281DG     C11 6451   4.923   0.170   4.531  0.0582  0.0039 -0.2761
  281DG     C12 6452   5.112  -0.046   4.921  0.3628 -0.2916  0.6422
  281DG     H13 6453   4.873   0.260   4.493 -0.7662  1.0242  2.8999
  281DG     H14 6454   5.024   0.170   4.491  0.0089  0.7645 -0.4218
  281DG     H15 6455   5.218  -0.021   4.906  0.3424 -0.2934  0.4917
  281DG     H16 6456   5.096  -0.056   5.028 -1.0752 -1.0381  0.3745
  281DG     C17 6457   4.917   0.166   4.688 -0.2067  0.2446 -0.4441
  281DG     C18 6458   5.017   0.063   4.870 -0.0385 -0.0929 -1.2308
  281DG     O19 6459   5.000   0.058   4.731  0.3642 -0.6188 -0.1571
  281DG     H20 6460   4.815   0.150   4.724  0.2256  0.6792  1.0280
  281DG     H21 6461   4.957   0.261   4.725 -1.4744 -0.0594  1.8738
  281DG     H22 6462   4.920   0.048   4.918  1.8959 -0.5728  2.9757
  281DG     H23 6463   5.056   0.160   4.901  0.9704 -0.7472 -0.3968
  282DG      C1 6464   1.814   3.009   4.448  0.3645 -0.9864 -0.6818
  282DG      C2 6465   1.176   3.178   4.128  0.7202  0.1778 -0.7578
  282DG      H3 6466   1.819   2.963   4.349  0.5989 -1.2291 -0.5603
  282DG      H4 6467   1.783   2.941   4.527  2.1189 -0.0546  0.8792
  282DG      H5 6468   1.915   3.042   4.470 -0.1760 -0.6697  1.4740
  282DG      H6 6469   1.071   3.209   4.136 -0.0684 -2.6326  1.7026
  282DG      H7 6470   1.217   3.199   4.029  1.1533 -1.0890 -0.8686
  282DG      H8 6471   1.193   3.074   4.155 -1.1940  0.2853  1.1838
  282DG      O9 6472   1.720   3.108   4.432  0.1776 -0.4534  0.4904
  282DG     O10 6473   1.249   3.261   4.218 -0.1415  0.2755  0.6090
  282DG     C11 6474   1.672   3.157   4.563  0.2751 -0.4790  0.3379
  282DG     C12 6475   1.240   3.216   4.356  0.2217 -0.3751 -0.1035
  282DG     H13 6476   1.754   3.195   4.625  0.3505 -1.8575  1.1203
  282DG     H14 6477   1.629   3.076   4.621  1.0841 -0.8796  0.3945
  282DG     H15 6478   1.274   3.113   4.357  0.6843 -0.2362  1.9394
  282DG     H16 6479   1.138   3.237   4.391 -0.4859 -2.2373 -0.9122
  282DG     C17 6480   1.564   3.269   4.549 -0.0098  0.1120 -0.0068
  282DG     C18 6481   1.347   3.294   4.440 -0.0533 -0.3081  0.3137
  282DG     O19 6482   1.464   3.220   4.454 -0.4965  0.4420  0.1032
  282DG     H20 6483   1.604   3.365   4.516 -2.1631  0.2494 -2.4877
  282DG     H21 6484   1.512   3.293   4.641  0.5799  0.5184  0.2302
  282DG     H22 6485   1.366   3.397   4.408  0.7961 -0.0368  1.6286
  282DG     H23 6486   1.293   3.299   4.534 -1.4122 -0.3005 -0.4470
  283DG      C1 6487   5.150   2.023   3.434 -0.1478 -0.0009  0.4457
  283DG      C2 6488   5.615   2.134   2.952 -0.7798 -0.3736  0.0560
  283DG      H3 6489   5.162   1.947   3.356  0.6384  1.1300 -0.5709
  283DG      H4 6490   5.044   2.025   3.458 -0.0721 -0.5724  0.8346
  283DG      H5 6491   5.213   1.999   3.519  1.0824  0.4043 -0.3153
  283DG      H6 6492   5.656   2.100   3.047 -0.4441  0.6283  0.2840
  283DG      H7 6493   5.604   2.045   2.890  1.2282 -0.0487 -0.8573
  283DG      H8 6494   5.684   2.197   2.896 -0.8091  1.6047  2.1235
  283DG      O9 6495   5.182   2.154   3.382 -0.6687  0.0858 -0.0867
  283DG     O10 6496   5.489   2.195   2.971 -0.6113 -0.7185 -0.0974
  283DG     C11 6497   5.111   2.179   3.264  0.2953 -0.4945 -0.1362
  283DG     C12 6498   5.505   2.308   3.063 -0.3039  0.3845  0.0511
  283DG     H13 6499   5.010   2.201   3.298  0.2952  2.0034 -1.5444
  283DG     H14 6500   5.095   2.089   3.204  2.0572 -2.2683  1.8642
  283DG     H15 6501   5.566   2.379   3.008 -2.4187  1.6182 -0.8172
  283DG     H16 6502   5.559   2.271   3.150 -0.2168  0.9471  0.2366
  283DG     C17 6503   5.171   2.310   3.200  0.2248 -0.1334 -0.4153
  283DG     C18 6504   5.372   2.372   3.104 -0.4275 -0.3166 -0.1901
  283DG     O19 6505   5.299   2.266   3.161  0.2097 -0.0121 -0.2761
  283DG     H20 6506   5.173   2.394   3.268  0.7550  0.9508 -1.7268
  283DG     H21 6507   5.123   2.329   3.104  1.6383 -0.0860 -1.1370
  283DG     H22 6508   5.383   2.442   3.187  0.0906  0.5160 -0.9542
  283DG     H23 6509   5.326   2.418   3.017  2.8020  0.4055 -1.6500
  284DG      C1 6510   1.474   2.758   0.230  0.6379  0.8652 -0.4745
  284DG      C2 6511   1.420   2.979  -0.453  0.3494  0.0482  0.2315
  284DG      H3 6512   1.429   2.764   0.329 -0.9190 -4.0101 -0.6217
  284DG      H4 6513   1.577   2.792   0.231  0.5171  1.4361 -2.4896
  284DG      H5 6514   1.470   2.652   0.206  1.6457  0.9734 -1.2086
  284DG      H6 6515   1.354   3.037  -0.518  0.2691  0.5429  0.7489
  284DG      H7 6516   1.521   3.021  -0.464  0.1815  0.5001  0.3672
  284DG      H8 6517   1.414   2.874  -0.481  0.9168  0.2136 -0.5853
  284DG      O9 6518   1.391   2.820   0.136  0.0147  0.3397  0.0152
  284DG     O10 6519   1.370   2.999  -0.327  0.4577 -0.3042  0.0638
  284DG     C11 6520   1.388   2.961   0.172 -0.3064  0.1157  0.0110
  284DG     C12 6521   1.397   3.131  -0.270 -0.3979  0.6791 -0.0125
  284DG     H13 6522   1.491   2.996   0.174  0.3707 -1.7837 -0.4552
  284DG     H14 6523   1.344   2.984   0.269 -1.4258 -0.3354 -0.3765
  284DG     H15 6524   1.376   3.221  -0.328 -0.3251  0.9612  0.3902
  284DG     H16 6525   1.504   3.134  -0.249 -0.6529  0.9394  1.4015
  284DG     C17 6526   1.296   3.032   0.068 -0.5251 -0.4954 -0.2401
  284DG     C18 6527   1.313   3.137  -0.143  0.0372  0.3627 -0.1934
  284DG     O19 6528   1.375   3.048  -0.048  0.1025  0.0590  0.2424
  284DG     H20 6529   1.272   3.132   0.105  0.4883 -0.4486  0.3464
  284DG     H21 6530   1.208   2.968   0.064  0.0369 -1.2398 -0.9322
  284DG     H22 6531   1.317   3.239  -0.107 -1.3076  1.4196 -2.7812
  284DG     H23 6532   1.211   3.102  -0.155  0.7678 -1.0226 -3.3033
  285DG      C1 6533   2.870   3.443   4.854  0.5362  0.0958 -0.2846
  285DG      C2 6534   2.277   3.636   4.698  0.9040 -0.0116  0.7102
  285DG      H3 6535   2.963   3.414   4.903  0.1078  2.2988  2.0452
  285DG      H4 6536   2.898   3.503   4.767  3.1246 -1.8339 -0.9071
  285DG      H5 6537   2.821   3.353   4.818 -0.1602  0.7912 -1.0930
  285DG      H6 6538   2.260   3.531   4.675 -1.9419  0.0231  2.1577
  285DG      H7 6539   2.176   3.675   4.708  0.8877 -0.1546  1.1310
  285DG      H8 6540   2.323   3.689   4.614 -0.3181 -0.5620 -0.3440
  285DG      O9 6541   2.779   3.513   4.941  0.3933  0.0044 -0.3681
  285DG     O10 6542   2.345   3.630   4.818 -0.1214 -0.5465 -0.3883
  285DG     C11 6543   2.734   3.444   5.056 -0.2224 -0.5230  0.6822
  285DG     C12 6544   2.280   3.556   4.921  0.5229 -0.9552 -0.1418
  285DG     H13 6545   2.809   3.467   5.131 -0.3552 -0.3861  0.7734
  285DG     H14 6546   2.738   3.336   5.040  0.6009 -0.2832 -0.9330
  285DG     H15 6547   2.243   3.457   4.894  0.0931 -0.1851 -2.6380
  285DG     H16 6548   2.186   3.610   4.935  2.1560  1.6322  1.5501
  285DG     C17 6549   2.597   3.492   5.109  0.8262  0.6914 -0.1743
  285DG     C18 6550   2.373   3.550   5.040  0.3367 -0.5741 -0.3444
  285DG     O19 6551   2.496   3.479   5.009 -0.2620  0.0690  0.2573
  285DG     H20 6552   2.597   3.598   5.137 -3.4268  0.7467  0.4036
  285DG     H21 6553   2.561   3.440   5.198 -0.3555  1.6653 -0.0399
  285DG     H22 6554   2.391   3.651   5.076 -0.3133 -0.0044 -1.5449
  285DG     H23 6555   2.324   3.501   5.124 -1.1146 -0.7701 -1.2672
  286DG      C1 6556   0.174   0.958   1.784  0.4137 -0.4863  0.6172
  286DG      C2 6557  -0.058   1.252   2.331  0.1887  0.3253  0.1594
  286DG      H3 6558   0.191   0.862   1.736 -1.7621 -0.1886 -0.9059
  286DG      H4 6559   0.271   1.007   1.790  1.3939 -2.2287 -0.3893
  286DG      H5 6560   0.097   1.002   1.720  0.7965 -2.1720 -1.0675
  286DG      H6 6561  -0.162   1.253   2.298 -0.4179  0.4064  1.9833
  286DG      H7 6562  -0.058   1.274   2.437 -0.2076  1.0366  0.0160
  286DG      H8 6563  -0.011   1.333   2.275  1.4125 -0.3312  0.1803
  286DG      O9 6564   0.131   0.942   1.920 -0.5326  0.5095  0.3521
  286DG     O10 6565   0.002   1.126   2.300 -0.5866  0.3967  0.2113
  286DG     C11 6566   0.224   0.858   1.989  0.5271 -0.8138 -0.2454
  286DG     C12 6567   0.120   1.095   2.373  0.1394 -0.4051  0.7042
  286DG     H13 6568   0.323   0.902   2.002 -0.6068  1.9157 -0.1980
  286DG     H14 6569   0.229   0.754   1.956  1.3967 -1.6220  2.1763
  286DG     H15 6570   0.094   1.082   2.478 -0.5778 -1.5057  0.4117
  286DG     H16 6571   0.190   1.178   2.367 -0.8490  0.4639  0.9703
  286DG     C17 6572   0.173   0.830   2.129  0.2240  0.6598  0.1704
  286DG     C18 6573   0.184   0.962   2.334 -0.6032 -0.1135 -0.1372
  286DG     O19 6574   0.185   0.959   2.195 -0.0036 -0.1879  0.8801
  286DG     H20 6575   0.233   0.757   2.182  1.2707  1.4300  0.0870
  286DG     H21 6576   0.068   0.799   2.131  0.2540  0.4922 -0.7179
  286DG     H22 6577   0.284   0.956   2.377 -0.1052  0.9443 -1.0806
  286DG     H23 6578   0.133   0.878   2.380 -0.3950 -0.3336 -0.3001
  287DG      C1 6579   3.217   2.805   0.427  0.2152 -0.2672  0.0691
  287DG      C2 6580   3.642   2.559   0.796 -0.3091  0.5600  0.1689
  287DG      H3 6581   3.216   2.758   0.329  0.0795 -1.6088  0.6922
  287DG      H4 6582   3.306   2.868   0.439  0.0421  0.1449 -0.7543
  287DG      H5 6583   3.121   2.854   0.442 -1.1833 -2.0626 -2.3162
  287DG      H6 6584   3.694   2.646   0.756 -0.6057  0.2467 -0.9321
  287DG      H7 6585   3.642   2.558   0.905  2.5742  3.6691  0.3655
  287DG      H8 6586   3.708   2.476   0.773 -0.5268 -0.6830  3.4689
  287DG      O9 6587   3.222   2.718   0.542 -0.0054  0.0847 -0.0761
  287DG     O10 6588   3.513   2.540   0.737 -0.7523 -0.5956 -0.0947
  287DG     C11 6589   3.130   2.616   0.522  0.3952  0.1895  0.3781
  287DG     C12 6590   3.443   2.422   0.785  0.0316 -0.4116  0.5646
  287DG     H13 6591   3.165   2.557   0.437  2.0056  1.0161  0.4284
  287DG     H14 6592   3.034   2.651   0.486  0.4936 -0.3076 -0.4036
  287DG     H15 6593   3.413   2.429   0.889  0.3837 -0.6797  0.6853
  287DG     H16 6594   3.499   2.329   0.776  0.3345 -0.0899 -1.3665
  287DG     C17 6595   3.112   2.532   0.644  0.4036  0.2447 -0.4287
  287DG     C18 6596   3.326   2.419   0.687 -0.4505  0.8264  0.5856
  287DG     O19 6597   3.235   2.523   0.718 -0.3439  0.5624  0.0352
  287DG     H20 6598   3.071   2.433   0.626 -1.2249  0.9628 -0.8288
  287DG     H21 6599   3.037   2.586   0.702  0.0945  1.2170 -1.6839
  287DG     H22 6600   3.352   2.441   0.583 -2.9767  0.8337 -0.0982
  287DG     H23 6601   3.274   2.324   0.683 -1.6265  1.2872  3.1924
  288DG      C1 6602   4.938   3.683   2.518 -0.5223  0.5639  0.8362
  288DG      C2 6603   4.361   3.520   2.601  1.0779  0.5543 -0.6012
  288DG      H3 6604   5.009   3.607   2.484 -0.9492  0.0838  1.0017
  288DG      H4 6605   4.999   3.763   2.559 -0.1052  0.0549  1.2407
  288DG      H5 6606   4.873   3.703   2.433 -0.5364 -2.4087  0.0278
  288DG      H6 6607   4.266   3.516   2.654  2.5279  0.6272  2.1778
  288DG      H7 6608   4.350   3.593   2.521 -2.5942 -0.3331 -1.0812
  288DG      H8 6609   4.380   3.420   2.563 -0.8642  0.0389 -0.3593
  288DG      O9 6610   4.839   3.639   2.607  0.2265 -0.2796  0.5371
  288DG     O10 6611   4.456   3.567   2.691 -0.9137 -0.3269  0.6575
  288DG     C11 6612   4.898   3.582   2.723 -0.1005 -0.4184  0.1155
  288DG     C12 6613   4.472   3.487   2.809 -0.2759 -0.1638  0.1362
  288DG     H13 6614   4.940   3.664   2.781 -0.3929  0.2589 -0.6281
  288DG     H14 6615   4.982   3.514   2.706  0.3606  0.1500  0.0656
  288DG     H15 6616   4.499   3.382   2.795  0.5819 -0.1865  1.7596
  288DG     H16 6617   4.374   3.491   2.858 -1.5602  3.8444 -2.2327
  288DG     C17 6618   4.790   3.505   2.800 -0.5498 -0.1491 -0.0653
  288DG     C18 6619   4.572   3.564   2.898 -1.1849  0.2815 -0.1566
  288DG     O19 6620   4.690   3.605   2.831 -0.0407 -0.1291  0.0759
  288DG     H20 6621   4.821   3.451   2.889 -0.1927 -1.5504 -1.0112
  288DG     H21 6622   4.746   3.448   2.719 -0.9704  0.5402 -0.3343
  288DG     H22 6623   4.528   3.650   2.948  0.5607  1.7220 -0.9820
  288DG     H23 6624   4.607   3.499   2.978  1.3169 -0.3463 -1.6341
  289DG      C1 6625   3.917   2.017   1.508 -0.2360 -0.7607  0.0620
  289DG      C2 6626   3.343   2.536   1.454  0.4954  0.2929 -0.3185
  289DG      H3 6627   3.890   2.008   1.402 -1.1734 -0.7677  0.2970
  289DG      H4 6628   3.899   1.919   1.552  1.5398 -0.8684  0.6517
  289DG      H5 6629   4.026   2.016   1.506 -0.0560  2.5716  1.8423
  289DG      H6 6630   3.298   2.634   1.438  0.3245  0.1519 -0.7181
  289DG      H7 6631   3.419   2.518   1.378 -0.0964  0.0147 -0.8606
  289DG      H8 6632   3.263   2.464   1.433  1.5079 -0.9875  0.0532
  289DG      O9 6633   3.859   2.123   1.571 -0.2989 -0.0011  0.2766
  289DG     O10 6634   3.387   2.528   1.591 -0.2321  0.7524 -0.0111
  289DG     C11 6635   3.886   2.253   1.508 -0.2227 -0.4238 -0.1184
  289DG     C12 6636   3.476   2.415   1.613  0.1620  0.8183  0.3816
  289DG     H13 6637   3.830   2.260   1.416  1.2530  1.8834 -0.9397
  289DG     H14 6638   3.993   2.267   1.494 -0.3669  0.0996 -0.7211
  289DG     H15 6639   3.451   2.322   1.562  2.6863  1.4147 -2.2404
  289DG     H16 6640   3.478   2.404   1.721  0.9267  1.2138  0.4194
  289DG     C17 6641   3.841   2.364   1.602  0.4640  0.0060  0.1104
  289DG     C18 6642   3.617   2.457   1.566  1.0706  0.0325  0.2238
  289DG     O19 6643   3.702   2.367   1.638  0.8070 -0.3515 -0.5801
  289DG     H20 6644   3.865   2.469   1.585 -0.8032  0.4408  0.8654
  289DG     H21 6645   3.885   2.331   1.696 -1.0663 -0.1360  0.8026
  289DG     H22 6646   3.629   2.441   1.459 -0.3130  1.0759 -0.1206
  289DG     H23 6647   3.651   2.558   1.590  0.4709 -0.0321  1.3870
  290DG      C1 6648   1.577   4.387   0.262  0.2778  0.2639  0.5447
  290DG      C2 6649   2.126   4.656   0.674  0.6350  0.2460 -0.6028
  290DG      H3 6650   1.554   4.442   0.171  1.1385  2.1966  1.4393
  290DG      H4 6651   1.497   4.314   0.274  1.2215 -1.4906 -2.8188
  290DG      H5 6652   1.667   4.330   0.237 -1.4947 -1.9180 -1.2272
  290DG      H6 6653   2.112   4.667   0.567 -1.3771  1.5804 -0.2565
  290DG      H7 6654   2.140   4.756   0.715  0.0067 -0.7357  2.2496
  290DG      H8 6655   2.207   4.586   0.692 -0.3300 -0.5236  0.9727
  290DG      O9 6656   1.601   4.477   0.372 -0.3947 -0.3664  0.2229
  290DG     O10 6657   2.003   4.601   0.725 -0.2113  0.0717 -0.1360
  290DG     C11 6658   1.656   4.425   0.494  0.6087  0.0697 -0.0552
  290DG     C12 6659   1.894   4.686   0.736  0.7208  1.1006 -0.1362
  290DG     H13 6660   1.752   4.377   0.473 -0.6305 -1.9228 -1.5883
  290DG     H14 6661   1.585   4.358   0.542 -0.0652  0.0553 -1.0464
  290DG     H15 6662   1.873   4.715   0.633 -1.1126  1.2170  0.2292
  290DG     H16 6663   1.913   4.774   0.797 -0.5773  0.7341  0.8412
  290DG     C17 6664   1.672   4.538   0.592  0.0660  0.2342  0.0205
  290DG     C18 6665   1.766   4.619   0.788 -0.5275  0.0185 -0.0079
  290DG     O19 6666   1.720   4.498   0.717 -0.4772  0.1120  0.9223
  290DG     H20 6667   1.580   4.594   0.611 -0.1724 -0.5025  1.1293
  290DG     H21 6668   1.745   4.603   0.545  1.5060 -1.4278 -0.1483
  290DG     H22 6669   1.774   4.590   0.892  1.5227  1.3750  0.2690
  290DG     H23 6670   1.679   4.684   0.794 -0.7759 -0.4178  1.2946
  291DG      C1 6671   1.888   1.930   0.615 -0.2915 -0.1366  0.3993
  291DG      C2 6672   2.090   1.760  -0.026  0.2410  0.6169 -0.4641
  291DG      H3 6673   1.811   1.948   0.690  1.0624  1.9055  1.3808
  291DG      H4 6674   1.970   2.000   0.624 -1.4773  1.3620 -0.0183
  291DG      H5 6675   1.917   1.827   0.634  0.2794 -0.1861 -0.6449
  291DG      H6 6676   2.169   1.712   0.031 -0.1418 -0.1959 -0.6111
  291DG      H7 6677   2.044   1.700  -0.105 -4.5792  2.6231  0.4636
  291DG      H8 6678   2.135   1.850  -0.069 -0.6808  1.3534  0.0904
  291DG      O9 6679   1.835   1.919   0.488  0.3341 -0.3630  0.1985
  291DG     O10 6680   1.983   1.798   0.065 -0.3912  0.5197 -0.4481
  291DG     C11 6681   1.773   2.040   0.443  0.0851 -0.4254  0.1759
  291DG     C12 6682   1.882   1.868  -0.005  0.0897  0.3890 -0.4779
  291DG     H13 6683   1.856   2.111   0.452 -0.1603 -0.1627  0.4176
  291DG     H14 6684   1.693   2.071   0.511 -0.4796 -0.0800 -0.6346
  291DG     H15 6685   1.842   1.807  -0.086  0.0545 -0.5673  0.2476
  291DG     H16 6686   1.930   1.962  -0.034  1.2613  0.0241  0.2448
  291DG     C17 6687   1.735   2.028   0.297  0.2486 -0.3200 -0.0481
  291DG     C18 6688   1.764   1.912   0.083 -0.7173 -0.4632  0.0508
  291DG     O19 6689   1.823   1.957   0.205 -0.4580  0.5272 -0.5435
  291DG     H20 6690   1.701   2.124   0.258 -0.4000 -0.4123  0.2654
  291DG     H21 6691   1.640   1.976   0.293  0.7681 -1.2049 -1.3735
  291DG     H22 6692   1.714   1.997   0.037 -1.2674 -1.3281 -1.0261
  291DG     H23 6693   1.693   1.832   0.102 -3.3150  1.4232 -1.1349
  292DG      C1 6694   5.460   1.289   4.664 -0.2672 -0.5199 -0.0988
  292DG      C2 6695   5.272   0.928   5.243  0.4398  0.0833 -0.0623
  292DG      H3 6696   5.553   1.346   4.668 -0.6268  0.0327  0.7518
  292DG      H4 6697   5.390   1.330   4.592 -1.9463 -2.6656  0.2263
  292DG      H5 6698   5.490   1.197   4.614  0.2508 -0.9652  0.9844
  292DG      H6 6699   5.180   0.966   5.288  0.2836 -0.6545  0.2568
  292DG      H7 6700   5.292   0.822   5.258 -1.4204 -0.3302 -0.1642
  292DG      H8 6701   5.355   0.988   5.279  0.5798 -0.2933  0.2485
  292DG      O9 6702   5.390   1.260   4.779 -0.3320 -0.2270  0.0367
  292DG     O10 6703   5.261   0.953   5.107 -0.1668  0.3199 -0.1717
  292DG     C11 6704   5.272   1.181   4.766  0.8615 -0.0491 -0.7310
  292DG     C12 6705   5.143   0.898   5.050 -0.4825 -0.4485 -0.0638
  292DG     H13 6706   5.303   1.084   4.726  0.5630  0.0204 -1.1320
  292DG     H14 6707   5.194   1.205   4.694 -2.3835 -2.6807  1.5844
  292DG     H15 6708   5.055   0.921   5.110 -1.2277  0.9890 -1.6135
  292DG     H16 6709   5.141   0.789   5.048  0.1534 -0.4609  0.0047
  292DG     C17 6710   5.213   1.183   4.909  0.6536  0.4238  0.3143
  292DG     C18 6711   5.120   0.963   4.918  0.1685 -0.2378  0.2361
  292DG     O19 6712   5.101   1.104   4.933 -0.2262  0.6937  0.0362
  292DG     H20 6713   5.196   1.281   4.953 -1.7882  0.3185 -0.2502
  292DG     H21 6714   5.288   1.142   4.977  2.8152  2.5829 -0.6180
  292DG     H22 6715   5.203   0.931   4.855  0.1007  0.8869 -0.4626
  292DG     H23 6716   5.028   0.926   4.871 -0.2309 -0.1112  0.9062
  293DG      C1 6717   0.469   3.710   2.091 -0.5223  0.2453  0.2943
  293DG      C2 6718   0.379   3.307   1.573  0.1587 -0.3873  0.2737
  293DG      H3 6719   0.479   3.612   2.139  2.0389  1.1131  1.7440
  293DG      H4 6720   0.431   3.769   2.175 -0.4309 -0.0812  0.5649
  293DG      H5 6721   0.563   3.740   2.046 -1.4113  2.1999 -0.3763
  293DG      H6 6722   0.469   3.355   1.612 -1.3014  1.1653  1.9503
  293DG      H7 6723   0.392   3.214   1.627  2.7666 -0.3943 -0.2236
  293DG      H8 6724   0.377   3.302   1.464  2.0693  0.1851  0.1783
  293DG      O9 6725   0.369   3.717   1.986 -0.5895 -0.1421 -0.0878
  293DG     O10 6726   0.258   3.361   1.622  0.0683 -0.1147 -0.2352
  293DG     C11 6727   0.245   3.658   2.011 -0.8314  0.7354 -0.8169
  293DG     C12 6728   0.228   3.494   1.581  0.1681  0.0680 -0.0820
  293DG     H13 6729   0.209   3.707   2.102  2.1836  1.6022  0.0149
  293DG     H14 6730   0.273   3.556   2.039  1.6777  2.0721  2.2713
  293DG     H15 6731   0.192   3.494   1.478  1.0618  1.0625 -0.4160
  293DG     H16 6732   0.316   3.559   1.581 -0.3041  0.7952 -2.0358
  293DG     C17 6733   0.147   3.656   1.901  0.0818 -0.0290  0.6876
  293DG     C18 6734   0.130   3.559   1.688 -0.6695 -0.1851  1.0483
  293DG     O19 6735   0.202   3.569   1.808  0.5493  0.8346 -0.0400
  293DG     H20 6736   0.143   3.753   1.852 -0.5750  0.3304  1.4312
  293DG     H21 6737   0.046   3.631   1.932 -1.0206  2.6131 -0.4883
  293DG     H22 6738   0.103   3.660   1.655  1.2931 -0.5262 -2.0040
  293DG     H23 6739   0.034   3.508   1.689 -1.6706  1.2327 -2.8077
  294DG      C1 6740   4.560   2.593   3.737  0.3042  0.0405  0.3811
  294DG      C2 6741   5.201   2.196   3.834 -0.1889 -0.3931  0.2476
  294DG      H3 6742   4.631   2.637   3.667 -1.1071  1.5885 -0.1411
  294DG      H4 6743   4.495   2.675   3.767  0.4164 -0.1243  1.0839
  294DG      H5 6744   4.503   2.517   3.683 -0.8809  2.6258 -2.2591
  294DG      H6 6745   5.207   2.095   3.875  0.3407 -0.7818 -0.7461
  294DG      H7 6746   5.190   2.197   3.725 -0.2808 -0.2166  0.2580
  294DG      H8 6747   5.287   2.254   3.867  1.8370 -1.9280 -1.9820
  294DG      O9 6748   4.624   2.524   3.843  0.0521 -0.2222 -0.4542
  294DG     O10 6749   5.086   2.259   3.894 -0.1145  0.0546 -0.3923
  294DG     C11 6750   4.694   2.600   3.942  0.2650 -0.0345  0.1341
  294DG     C12 6751   5.022   2.338   3.791  0.3343 -0.4323  1.1780
  294DG     H13 6752   4.621   2.647   4.007 -1.3462 -0.0322 -1.5976
  294DG     H14 6753   4.765   2.676   3.906  0.8221 -1.0134 -0.9173
  294DG     H15 6754   4.970   2.268   3.726 -2.4537  0.8685  1.8811
  294DG     H16 6755   5.098   2.383   3.726 -0.3544 -0.5891  0.2536
  294DG     C17 6756   4.777   2.491   4.018  0.2215  0.4298  0.0884
  294DG     C18 6757   4.939   2.450   3.855  0.0181 -0.1068 -1.5080
  294DG     O19 6758   4.835   2.393   3.936  0.0620 -0.5487  1.0360
  294DG     H20 6759   4.729   2.429   4.093  2.7039  0.6778  2.0061
  294DG     H21 6760   4.854   2.544   4.075  2.2506  0.4823 -2.5096
  294DG     H22 6761   5.006   2.513   3.914 -3.6960  1.2115  1.6963
  294DG     H23 6762   4.887   2.503   3.774 -1.3311  0.0710 -0.5547
  295DG      C1 6763   4.018   3.989   4.922 -0.5348 -0.5371  1.1238
  295DG      C2 6764   3.873   3.371   4.682 -0.0929 -0.0876 -0.1347
  295DG      H3 6765   4.025   3.915   5.001  0.3556  0.2766  1.8200
  295DG      H4 6766   3.995   4.075   4.984  0.4094 -1.7295  3.2123
  295DG      H5 6767   4.116   4.001   4.875 -1.7096  1.2021 -1.0615
  295DG      H6 6768   3.883   3.338   4.785 -2.0173  1.0704  0.4924
  295DG      H7 6769   3.807   3.304   4.628 -0.0678  0.6377 -1.0916
  295DG      H8 6770   3.970   3.349   4.637 -0.1390 -2.9671  1.0283
  295DG      O9 6771   3.916   3.946   4.839 -0.2612  0.0124  0.3831
  295DG     O10 6772   3.833   3.508   4.682 -0.0192 -0.1695  0.1521
  295DG     C11 6773   3.799   3.949   4.905  0.2366 -0.9978 -0.1882
  295DG     C12 6774   3.700   3.507   4.741 -0.1265  0.2801  0.9403
  295DG     H13 6775   3.771   4.048   4.941 -0.4470 -1.6108  1.0340
  295DG     H14 6776   3.806   3.894   4.999 -1.8155 -0.9872  0.0228
  295DG     H15 6777   3.710   3.458   4.838  0.8857 -0.6773  0.3742
  295DG     H16 6778   3.631   3.448   4.681  1.6431 -1.4033  0.4789
  295DG     C17 6779   3.683   3.874   4.838  0.3301 -0.2959  0.2275
  295DG     C18 6780   3.637   3.645   4.762  0.0548 -0.1355  0.4861
  295DG     O19 6781   3.728   3.740   4.822  0.2000 -0.0451  0.0037
  295DG     H20 6782   3.632   3.918   4.752 -1.9827 -3.1827 -0.0130
  295DG     H21 6783   3.608   3.877   4.917  1.4898 -1.9776  1.4712
  295DG     H22 6784   3.602   3.687   4.668  2.4761 -1.3068 -1.0418
  295DG     H23 6785   3.541   3.638   4.814 -0.7522 -1.1653 -1.0576
  296DG      C1 6786   4.742   0.478   2.337  0.5015  0.3130 -0.1191
  296DG      C2 6787   5.173   0.665   2.852 -0.0468  0.5686 -0.9074
  296DG      H3 6788   4.676   0.498   2.421 -0.7215 -1.5477 -0.5624
  296DG      H4 6789   4.781   0.376   2.345 -0.8026 -0.2446 -0.5884
  296DG      H5 6790   4.696   0.491   2.239  0.9205 -1.9833 -0.6797
  296DG      H6 6791   5.251   0.590   2.857 -0.0239  0.5884 -0.9644
  296DG      H7 6792   5.216   0.765   2.851  1.3438  0.0738  1.5755
  296DG      H8 6793   5.114   0.643   2.941 -1.2549  0.4085 -1.7221
  296DG      O9 6794   4.859   0.556   2.354  0.0612  0.3056 -0.2183
  296DG     O10 6795   5.093   0.642   2.736 -0.2535 -0.4041  0.0015
  296DG     C11 6796   4.841   0.696   2.334 -0.3984  0.3918  0.5277
  296DG     C12 6797   4.985   0.739   2.741  0.7771 -0.0301  0.1474
  296DG     H13 6798   4.756   0.721   2.398 -2.7454 -3.2531 -0.7941
  296DG     H14 6799   4.821   0.719   2.229  1.5803  0.5281  0.1479
  296DG     H15 6800   5.017   0.839   2.770  2.0645 -0.5437  0.5737
  296DG     H16 6801   4.903   0.709   2.806  1.4008  0.6850  1.3077
  296DG     C17 6802   4.969   0.769   2.366 -0.1230  0.3631 -0.3596
  296DG     C18 6803   4.922   0.767   2.609 -0.4779 -0.1161  0.6396
  296DG     O19 6804   5.006   0.733   2.500 -0.1653  0.0575 -0.2951
  296DG     H20 6805   4.979   0.876   2.347 -0.0444  0.2378 -1.0515
  296DG     H21 6806   5.046   0.731   2.298  0.1419 -0.0213  0.1501
  296DG     H22 6807   4.821   0.725   2.611 -0.9934  1.0123  3.7316
  296DG     H23 6808   4.908   0.875   2.606 -0.2001 -0.0927 -2.1132
  297DG      C1 6809   0.305   3.411   1.088  0.0240 -0.0872  0.4670
  297DG      C2 6810  -0.186   4.042   1.412  0.0461  0.2340  0.2355
  297DG      H3 6811   0.383   3.454   1.151 -0.9806 -0.2542  1.8905
  297DG      H4 6812   0.313   3.467   0.995  0.4900 -1.2167 -0.1941
  297DG      H5 6813   0.331   3.308   1.063 -0.6778  0.1405 -1.3036
  297DG      H6 6814  -0.218   4.094   1.322  1.4689 -0.0778 -0.4938
  297DG      H7 6815  -0.271   4.032   1.479 -0.1668 -1.2183 -0.2140
  297DG      H8 6816  -0.104   4.093   1.462  1.2952 -0.8820 -0.5847
  297DG      O9 6817   0.177   3.426   1.150  0.0281  0.0786 -0.3642
  297DG     O10 6818  -0.148   3.914   1.362 -0.0984  0.2235  0.5076
  297DG     C11 6819   0.152   3.566   1.188 -0.4156  0.5306  0.4996
  297DG     C12 6820  -0.135   3.820   1.466  0.2134  0.2558  0.2048
  297DG     H13 6821   0.173   3.633   1.106  2.2867 -0.5538  0.2101
  297DG     H14 6822   0.221   3.610   1.260  0.8503  0.8950 -0.8798
  297DG     H15 6823  -0.224   3.818   1.528 -1.2065  0.4458 -1.7268
  297DG     H16 6824  -0.057   3.861   1.530  0.3384  3.9015 -2.0059
  297DG     C17 6825   0.019   3.568   1.246 -0.5992 -0.3240  0.0147
  297DG     C18 6826  -0.116   3.679   1.407 -0.0083 -0.2095  0.0075
  297DG     O19 6827   0.008   3.674   1.340  0.2760 -0.0972  0.3391
  297DG     H20 6828   0.002   3.473   1.297 -1.3020  0.5336  1.4273
  297DG     H21 6829  -0.048   3.583   1.161  0.2129  2.0125 -0.2790
  297DG     H22 6830  -0.118   3.597   1.479  0.0838 -0.6719 -0.5091
  297DG     H23 6831  -0.192   3.659   1.333 -2.3247  0.4944  2.0622
  298DG      C1 6832   5.139   0.802   1.081  0.1754  0.1997  0.0260
  298DG      C2 6833   4.926   1.354   0.878 -0.3023 -0.2395 -0.3972
  298DG      H3 6834   5.192   0.712   1.050  0.9652 -0.0686  1.9831
  298DG      H4 6835   5.034   0.775   1.088 -0.1263  1.5058  0.9663
  298DG      H5 6836   5.165   0.831   1.183  0.3554  0.4624 -0.0921
  298DG      H6 6837   4.841   1.291   0.851 -0.9498 -0.4672  1.9169
  298DG      H7 6838   4.929   1.344   0.987  2.6872 -0.9551 -0.4675
  298DG      H8 6839   4.905   1.457   0.848 -0.6463  0.0132  0.6486
  298DG      O9 6840   5.166   0.901   0.983 -0.1346  0.3921 -0.2383
  298DG     O10 6841   5.046   1.304   0.820 -0.2462  0.1509  0.5471
  298DG     C11 6842   5.293   0.959   0.991 -0.5166  0.1499 -0.3585
  298DG     C12 6843   5.159   1.371   0.864 -0.4318  0.2173 -0.0925
  298DG     H13 6844   5.353   0.908   0.916  0.2057  0.4640 -0.0017
  298DG     H14 6845   5.342   0.937   1.086 -0.1481  0.3645 -0.4998
  298DG     H15 6846   5.153   1.403   0.968  0.2505  1.6795 -0.4704
  298DG     H16 6847   5.170   1.469   0.817  2.0500 -0.3191 -0.7492
  298DG     C17 6848   5.301   1.115   0.980 -0.0118 -0.3707  0.1889
  298DG     C18 6849   5.283   1.296   0.829 -0.0194  1.0602 -0.0095
  298DG     O19 6850   5.273   1.152   0.843  0.4171  0.2652 -0.5258
  298DG     H20 6851   5.401   1.145   1.012 -0.5774  0.4610  1.2178
  298DG     H21 6852   5.234   1.158   1.055 -0.2502  1.0665 -0.8009
  298DG     H22 6853   5.290   1.304   0.721 -0.6543 -2.7147 -0.4901
  298DG     H23 6854   5.369   1.333   0.885 -1.0093 -1.5273  3.6314
  299DG      C1 6855   0.029   1.872   3.836  0.4470  0.3450  0.9223
  299DG      C2 6856   0.024   2.570   3.435  0.6033  0.3885 -0.4337
  299DG      H3 6857   0.115   1.851   3.899  0.1348 -1.3264  0.8459
  299DG      H4 6858   0.013   1.804   3.753 -0.7365  0.7460  0.8065
  299DG      H5 6859  -0.062   1.857   3.895 -0.4498 -1.8634 -0.8784
  299DG      H6 6860  -0.021   2.538   3.341 -0.4902 -0.0196  0.2142
  299DG      H7 6861   0.052   2.669   3.399  0.5620  0.1812 -1.0442
  299DG      H8 6862   0.110   2.505   3.449  0.6334  0.3178 -0.9272
  299DG      O9 6863   0.036   1.997   3.786  0.2481 -0.7635  0.1272
  299DG     O10 6864  -0.076   2.580   3.544  0.1527 -0.1531  0.3110
  299DG     C11 6865   0.046   2.101   3.883  0.1990 -0.3780  0.1186
  299DG     C12 6866  -0.110   2.465   3.619  0.4744 -0.1065  0.4655
  299DG     H13 6867   0.112   2.055   3.958  0.4990  0.1989  0.2156
  299DG     H14 6868  -0.054   2.119   3.921  0.0800 -0.7146 -0.0338
  299DG     H15 6869  -0.145   2.380   3.561 -3.2639  1.5445 -0.0198
  299DG     H16 6870  -0.194   2.505   3.677 -0.7369 -1.2856 -0.4063
  299DG     C17 6871   0.095   2.242   3.823  0.1466  0.6117  0.3260
  299DG     C18 6872  -0.006   2.428   3.715  0.4086  0.2505  0.2265
  299DG     O19 6873  -0.010   2.289   3.744  0.4114 -0.3944  0.4789
  299DG     H20 6874   0.189   2.225   3.772  0.3579  0.8652  0.6256
  299DG     H21 6875   0.128   2.309   3.902  1.1777  0.9270 -0.3535
  299DG     H22 6876   0.094   2.453   3.678 -1.0694  2.8728 -2.5222
  299DG     H23 6877  -0.013   2.478   3.811  0.2846 -1.6053  1.2182
  300DG      C1 6878   2.407   4.506   0.913  0.1984 -0.8371 -0.1640
  300DG      C2 6879   2.613   3.770   0.506 -0.1912 -0.1081  0.0318
  300DG      H3 6880   2.489   4.544   0.851  0.8332 -3.2692 -0.9387
  300DG      H4 6881   2.410   4.562   1.006 -0.8329 -1.0477  0.0065
  300DG      H5 6882   2.318   4.535   0.858  1.5721 -0.0349 -2.0945
  300DG      H6 6883   2.714   3.797   0.474 -0.7174 -1.0732 -2.6348
  300DG      H7 6884   2.624   3.669   0.543  0.4944 -0.4167 -0.9782
  300DG      H8 6885   2.561   3.775   0.411  2.3642  0.6604 -1.4402
  300DG      O9 6886   2.420   4.365   0.933 -0.0874  0.2411 -0.4996
  300DG     O10 6887   2.553   3.863   0.604 -0.0984 -0.0151  0.0521
  300DG     C11 6888   2.415   4.282   0.821 -0.5194 -0.7588  0.0664
  300DG     C12 6889   2.424   3.820   0.653 -0.2526  0.3794  0.8453
  300DG     H13 6890   2.494   4.320   0.757 -1.0017  0.3551  0.1025
  300DG     H14 6891   2.314   4.281   0.781 -1.4451  0.0935  2.2189
  300DG     H15 6892   2.412   3.721   0.696  0.0700 -0.6764 -1.3640
  300DG     H16 6893   2.359   3.811   0.565  0.7399 -0.1194  0.1432
  300DG     C17 6894   2.448   4.138   0.850  1.2216 -0.2304  0.1071
  300DG     C18 6895   2.389   3.925   0.760 -0.4835  0.4412  0.1564
  300DG     O19 6896   2.418   4.056   0.732 -0.3419 -0.0997 -0.3048
  300DG     H20 6897   2.399   4.099   0.939  0.1282  1.7414  0.4087
  300DG     H21 6898   2.554   4.131   0.877  1.0171 -0.9654  0.7467
  300DG     H22 6899   2.292   3.910   0.808  1.1689  1.4203  4.1847
  300DG     H23 6900   2.464   3.898   0.834  0.2718 -0.1546 -0.8051
  301DG      C1 6901   0.520   0.568   4.550 -0.1056  0.1908 -0.5194
  301DG      C2 6902  -0.292   0.774   4.582  0.1147  0.2591 -0.0195
  301DG      H3 6903   0.440   0.495   4.539  1.2201 -1.4395  0.1824
  301DG      H4 6904   0.582   0.530   4.631 -2.7629  0.2210  1.6898
  301DG      H5 6905   0.564   0.583   4.452 -0.9482  1.3969 -0.7348
  301DG      H6 6906  -0.367   0.851   4.565 -1.2896 -1.2744 -1.0449
  301DG      H7 6907  -0.278   0.716   4.491 -0.5276  0.1259 -0.0361
  301DG      H8 6908  -0.324   0.707   4.662 -0.3261  0.8182  0.2818
  301DG      O9 6909   0.456   0.696   4.582  0.2090  0.3798  0.6191
  301DG     O10 6910  -0.172   0.836   4.614  0.2083 -0.5461  0.1948
  301DG     C11 6911   0.418   0.709   4.716  0.2457  0.2875 -1.2130
  301DG     C12 6912  -0.063   0.747   4.647 -0.4520 -0.2193  0.4346
  301DG     H13 6913   0.499   0.753   4.774 -0.1776  0.7733 -0.9843
  301DG     H14 6914   0.387   0.613   4.759 -1.2117  0.9697 -0.6703
  301DG     H15 6915  -0.049   0.679   4.563 -2.4249 -1.3495  0.9434
  301DG     H16 6916  -0.073   0.682   4.734  3.3888 -1.7314 -0.0485
  301DG     C17 6917   0.296   0.804   4.724 -0.5881 -0.0744  0.2641
  301DG     C18 6918   0.074   0.822   4.667  0.3700 -0.5843 -0.4182
  301DG     O19 6919   0.184   0.734   4.676  0.1632 -0.2357  0.0628
  301DG     H20 6920   0.324   0.896   4.672  1.3790 -0.3934  0.6814
  301DG     H21 6921   0.296   0.832   4.829  0.8951  0.9404  0.0194
  301DG     H22 6922   0.096   0.894   4.588  0.3844 -0.3583 -0.2103
  301DG     H23 6923   0.073   0.869   4.766 -1.6860 -1.5424  0.0737
  302DG      C1 6924   1.425   1.036   0.133  0.1260 -0.3678 -0.1081
  302DG      C2 6925   1.673   0.840  -0.406 -0.1076 -0.1926  0.5272
  302DG      H3 6926   1.340   1.080   0.185  1.1078 -0.3128  1.5388
  302DG      H4 6927   1.474   1.125   0.094 -0.4954  0.9849  2.0127
  302DG      H5 6928   1.476   0.971   0.205 -2.3253 -1.0727  1.1088
  302DG      H6 6929   1.747   0.774  -0.452  0.3073  0.8522 -0.3285
  302DG      H7 6930   1.617   0.890  -0.484 -0.6018  1.6278  1.9706
  302DG      H8 6931   1.748   0.913  -0.374 -1.0682  1.6432 -1.1855
  302DG      O9 6932   1.393   0.947   0.024  0.1050 -0.5066  0.6066
  302DG     O10 6933   1.587   0.804  -0.303  0.0409  0.2710  0.9598
  302DG     C11 6934   1.277   0.868   0.048  0.2615 -0.5085  0.2826
  302DG     C12 6935   1.502   0.698  -0.328  0.0540  0.1872  0.2727
  302DG     H13 6936   1.191   0.936   0.051  0.5649 -0.1586  1.9477
  302DG     H14 6937   1.284   0.817   0.144  0.2522  1.5644  1.4508
  302DG     H15 6938   1.564   0.614  -0.360 -0.5944  0.0221 -0.6266
  302DG     H16 6939   1.441   0.722  -0.416 -0.2730 -3.1487 -0.5321
  302DG     C17 6940   1.264   0.757  -0.064  0.1225 -0.1979 -0.5780
  302DG     C18 6941   1.405   0.649  -0.217 -0.1258 -0.2536  0.2413
  302DG     O19 6942   1.393   0.757  -0.124 -0.1449 -0.0556  0.2934
  302DG     H20 6943   1.197   0.778  -0.148  0.3280  1.4948 -0.3425
  302DG     H21 6944   1.228   0.667  -0.015  2.9680 -0.9814  0.2097
  302DG     H22 6945   1.307   0.627  -0.258 -0.6570  1.2976  0.6168
  302DG     H23 6946   1.460   0.569  -0.167  0.8438 -0.2573 -0.7714
  303DG      C1 6947   2.344   0.960   0.532 -0.5946 -0.3573 -0.2381
  303DG      C2 6948   2.864   1.763   0.482  0.5577  0.1166  0.4815
  303DG      H3 6949   2.259   0.904   0.492 -1.1466  1.3346 -1.5158
  303DG      H4 6950   2.329   0.975   0.639  0.3587  0.6687 -0.2283
  303DG      H5 6951   2.442   0.911   0.527 -0.2073  0.5034 -1.4645
  303DG      H6 6952   2.913   1.743   0.387 -1.6096  0.8307 -0.8672
  303DG      H7 6953   2.849   1.871   0.483  1.9454  0.3264  0.3296
  303DG      H8 6954   2.927   1.739   0.568  0.6738 -0.8457  0.1355
  303DG      O9 6955   2.336   1.091   0.467 -0.7375 -0.5471  0.3078
  303DG     O10 6956   2.731   1.712   0.489  0.1836 -0.5202  0.7559
  303DG     C11 6957   2.449   1.172   0.511  0.5671  0.4504 -0.4726
  303DG     C12 6958   2.724   1.565   0.478  0.5796  0.5493 -0.8122
  303DG     H13 6959   2.539   1.126   0.470  0.0579  0.1324 -1.2538
  303DG     H14 6960   2.440   1.158   0.618  1.8582 -2.1569 -0.6291
  303DG     H15 6961   2.763   1.510   0.564 -2.7572  0.5115  0.8511
  303DG     H16 6962   2.765   1.518   0.389  1.0173 -1.8380  0.5448
  303DG     C17 6963   2.445   1.319   0.454  0.2890 -0.6106  0.3223
  303DG     C18 6964   2.580   1.516   0.483 -0.0160  0.1549  0.2123
  303DG     O19 6965   2.568   1.379   0.502 -0.4258 -0.4850  0.2482
  303DG     H20 6966   2.351   1.362   0.489 -0.6067 -0.5561 -1.9749
  303DG     H21 6967   2.444   1.327   0.345 -1.0806  3.3418  0.4732
  303DG     H22 6968   2.514   1.566   0.554 -0.2131  0.4175 -0.1460
  303DG     H23 6969   2.529   1.534   0.388 -0.2564  1.8173  0.6257
  304DG      C1 6970   1.067   2.479   4.747  0.6330  0.2754  0.1986
  304DG      C2 6971   0.611   2.639   4.184 -0.2483 -0.4963 -0.3322
  304DG      H3 6972   1.066   2.453   4.853 -0.0951 -1.2964 -0.1709
  304DG      H4 6973   1.131   2.562   4.715  0.0008  0.1581 -1.4557
  304DG      H5 6974   1.121   2.396   4.703  1.8396  2.4559 -2.8214
  304DG      H6 6975   0.503   2.626   4.189 -0.1942 -1.0628 -0.5898
  304DG      H7 6976   0.626   2.744   4.160  1.5917 -0.3545  1.1648
  304DG      H8 6977   0.634   2.582   4.094 -0.2780  0.5937 -1.0489
  304DG      O9 6978   0.939   2.480   4.693 -0.0971  0.3533  0.0978
  304DG     O10 6979   0.688   2.608   4.303 -0.7788 -0.3588 -0.0502
  304DG     C11 6980   0.868   2.349   4.702  0.2731 -0.8377 -0.0308
  304DG     C12 6981   0.646   2.645   4.431 -0.2164 -0.3398 -0.7787
  304DG     H13 6982   0.866   2.307   4.803 -3.2260 -1.2115 -0.1178
  304DG     H14 6983   0.926   2.270   4.654  0.1136  0.6482 -2.9123
  304DG     H15 6984   0.562   2.713   4.416 -0.5872 -1.0129 -1.8786
  304DG     H16 6985   0.724   2.700   4.483  0.1227  0.5528 -2.2003
  304DG     C17 6986   0.724   2.362   4.642 -0.2537  0.0472  0.6919
  304DG     C18 6987   0.611   2.521   4.513  0.2227  0.2757  0.2472
  304DG     O19 6988   0.729   2.470   4.545  0.0786 -0.4134 -0.2669
  304DG     H20 6989   0.655   2.395   4.720 -0.6609  0.6853  0.0769
  304DG     H21 6990   0.689   2.272   4.592  0.8832  1.0462 -2.1094
  304DG     H22 6991   0.552   2.548   4.600 -0.2605  0.7512 -0.2214
  304DG     H23 6992   0.554   2.444   4.461  0.7086 -1.3320  1.9374
  305DG      C1 6993   3.669   3.440   3.417 -0.6667  0.6237 -0.5616
  305DG      C2 6994   3.729   2.828   3.574  0.5464  0.6175  0.4223
  305DG      H3 6995   3.631   3.505   3.338  1.2497  0.1212 -1.9590
  305DG      H4 6996   3.775   3.455   3.435 -0.7643  0.3832  0.2551
  305DG      H5 6997   3.624   3.476   3.510 -1.2439  0.1428 -0.6462
  305DG      H6 6998   3.822   2.874   3.608  0.3328  0.8998  0.6247
  305DG      H7 6999   3.653   2.851   3.648 -0.0285 -0.3599  0.1536
  305DG      H8 7000   3.729   2.719   3.577 -1.5210  0.5543 -0.5575
  305DG      O9 7001   3.644   3.309   3.387  0.0047 -0.8377  0.0477
  305DG     O10 7002   3.700   2.863   3.437 -0.2616  0.5632 -0.3828
  305DG     C11 7003   3.506   3.272   3.359 -0.3427  0.4416 -0.1960
  305DG     C12 7004   3.561   2.835   3.400 -0.6338 -0.2661 -0.1171
  305DG     H13 7005   3.492   3.301   3.255  1.6612 -0.6947 -0.8353
  305DG     H14 7006   3.427   3.323   3.415  1.2805  0.9358  1.7748
  305DG     H15 7007   3.493   2.861   3.480  0.0275  3.2351 -0.5556
  305DG     H16 7008   3.549   2.730   3.373  0.6960 -0.6007  0.5057
  305DG     C17 7009   3.483   3.121   3.369 -0.1892  0.1342  0.1157
  305DG     C18 7010   3.544   2.915   3.270 -0.5704 -0.2289 -0.2531
  305DG     O19 7011   3.583   3.052   3.293  0.5226  0.8232 -0.4315
  305DG     H20 7012   3.377   3.106   3.347 -1.1231  3.1570  1.8357
  305DG     H21 7013   3.497   3.096   3.474  1.9968  2.1075  0.3739
  305DG     H22 7014   3.609   2.877   3.192  0.8353  1.7005 -0.1097
  305DG     H23 7015   3.440   2.914   3.240 -0.7957 -0.3366  0.5044
  306DG      C1 7016   2.008   1.596   1.654 -0.2477 -0.1550 -0.9037
  306DG      C2 7017   2.060   2.217   1.598 -0.4088  0.0516 -1.1073
  306DG      H3 7018   1.991   1.496   1.615  0.7571 -0.3972 -0.7357
  306DG      H4 7019   1.909   1.633   1.683 -1.2994 -1.9276 -2.0048
  306DG      H5 7020   2.069   1.597   1.744 -0.6253 -1.1884 -0.6330
  306DG      H6 7021   2.109   2.233   1.694 -0.7833 -1.9075 -0.5483
  306DG      H7 7022   2.051   2.303   1.532  1.3446 -1.5836 -3.6755
  306DG      H8 7023   1.961   2.190   1.634 -0.5611  2.6502  0.6803
  306DG      O9 7024   2.064   1.678   1.553 -0.5070 -0.3764 -0.0157
  306DG     O10 7025   2.115   2.106   1.529  0.3726  0.0844 -0.0730
  306DG     C11 7026   2.204   1.657   1.514  0.4113  0.2556  0.3145
  306DG     C12 7027   2.257   2.109   1.508  0.0073  0.6253 -0.3227
  306DG     H13 7028   2.215   1.563   1.460  0.3789  0.0393  0.6825
  306DG     H14 7029   2.268   1.645   1.601  0.0499  0.8489  0.6656
  306DG     H15 7030   2.307   2.096   1.604 -0.9605  1.9555  0.3855
  306DG     H16 7031   2.293   2.200   1.460 -3.1742  0.3522 -3.6479
  306DG     C17 7032   2.258   1.760   1.424 -0.2022  0.0904  0.9196
  306DG     C18 7033   2.306   1.994   1.418 -0.5314 -0.5190  0.2198
  306DG     O19 7034   2.257   1.875   1.489  0.2839 -0.6279 -0.1575
  306DG     H20 7035   2.198   1.759   1.334  0.2899  0.5978  0.5825
  306DG     H21 7036   2.356   1.732   1.386 -1.5395  0.4469 -3.3290
  306DG     H22 7037   2.277   2.006   1.313  1.2551 -1.6600 -0.4678
  306DG     H23 7038   2.415   1.993   1.412 -0.3653  2.8427  0.8539
  307DG      C1 7039   3.883   2.025   5.115 -0.2716  0.3471 -0.4040
  307DG      C2 7040   4.594   1.950   4.674 -0.1964 -0.1443  0.1675
  307DG      H3 7041   3.788   2.077   5.106 -0.3196  0.0134 -2.3421
  307DG      H4 7042   3.912   2.017   5.219 -0.6976 -0.8385 -0.3608
  307DG      H5 7043   3.867   1.925   5.074  0.8331 -0.9388  2.0608
  307DG      H6 7044   4.651   1.959   4.767 -1.5691  0.4695  0.9838
  307DG      H7 7045   4.590   1.845   4.646 -1.9326  0.1139 -0.6679
  307DG      H8 7046   4.628   2.011   4.590 -1.2883  1.8257  1.0740
  307DG      O9 7047   3.980   2.096   5.036 -0.1433  0.1777  0.2655
  307DG     O10 7048   4.462   1.989   4.702  0.3776  0.3686  0.2296
  307DG     C11 7049   3.961   2.090   4.903 -0.3052  0.0933  0.5929
  307DG     C12 7050   4.394   1.922   4.811  0.3480 -0.2349 -1.1263
  307DG     H13 7051   3.868   2.129   4.861 -0.3124 -1.6228 -1.1393
  307DG     H14 7052   3.960   1.990   4.860  0.3078  0.0592  0.6411
  307DG     H15 7053   4.439   1.956   4.905  1.5517  2.7578 -2.6386
  307DG     H16 7054   4.390   1.814   4.795 -0.8302 -0.8880  2.6002
  307DG     C17 7055   4.090   2.152   4.841  0.5485  0.1390 -0.4325
  307DG     C18 7056   4.250   1.968   4.800  0.4262 -0.6139 -0.1440
  307DG     O19 7057   4.220   2.096   4.864  0.3678 -0.1730  0.0089
  307DG     H20 7058   4.096   2.259   4.858 -0.0977  0.2036 -0.6118
  307DG     H21 7059   4.082   2.151   4.732  0.0054 -0.1002 -0.3911
  307DG     H22 7060   4.218   1.973   4.696 -0.5419 -1.3393  0.1057
  307DG     H23 7061   4.193   1.897   4.860 -2.0003  1.9198  0.7730
  308DG      C1 7062   4.874   2.854   0.334  0.9337 -0.5036  0.9062
  308DG      C2 7063   5.420   3.013  -0.050  0.3955 -0.4934  0.4226
  308DG      H3 7064   4.838   2.954   0.357 -1.0968 -1.1329  0.6691
  308DG      H4 7065   4.828   2.785   0.404  0.4526 -1.7920 -0.6206
  308DG      H5 7066   4.838   2.820   0.237 -0.0090  0.3530  0.9407
  308DG      H6 7067   5.527   3.017  -0.070  0.7682 -1.8272  1.9336
  308DG      H7 7068   5.372   2.977  -0.141  0.6730  2.2562 -0.9195
  308DG      H8 7069   5.382   3.115  -0.059  1.2730 -0.2990 -1.5159
  308DG      O9 7070   5.014   2.854   0.336  0.0038  0.7200  0.4782
  308DG     O10 7071   5.385   2.953   0.070 -0.4825 -0.1309  0.1067
  308DG     C11 7072   5.063   2.717   0.333 -0.1559  0.1738 -0.2205
  308DG     C12 7073   5.451   2.828   0.068  0.0793  0.6499 -0.1821
  308DG     H13 7074   5.015   2.659   0.253 -3.4468 -2.2447  3.1644
  308DG     H14 7075   5.024   2.666   0.421  1.0810 -1.2271 -0.4347
  308DG     H15 7076   5.559   2.838   0.077  0.5289 -1.0174 -2.7068
  308DG     H16 7077   5.435   2.768  -0.022  2.1854  0.0097 -0.1788
  308DG     C17 7078   5.212   2.707   0.339 -0.2401 -0.0653 -0.6177
  308DG     C18 7079   5.414   2.757   0.196  0.0338 -0.1295  0.0500
  308DG     O19 7080   5.269   2.762   0.217 -0.3202 -0.1091  0.1091
  308DG     H20 7081   5.243   2.603   0.351  3.5432  1.1229  1.4930
  308DG     H21 7082   5.261   2.761   0.420 -0.2967 -1.4711  0.3895
  308DG     H22 7083   5.437   2.652   0.181  3.1402  0.5168 -0.3705
  308DG     H23 7084   5.461   2.788   0.290 -1.7234 -0.2024  0.9896
  309DG      C1 7085   1.269   5.063   1.889  0.4844 -0.3477  0.2595
  309DG      C2 7086   1.560   5.619   1.818  0.6080  0.0360 -0.0205
  309DG      H3 7087   1.224   5.112   1.803  2.3652  0.9856 -0.0221
  309DG      H4 7088   1.205   5.093   1.973 -1.2204 -0.5124 -0.9325
  309DG      H5 7089   1.248   4.956   1.889 -3.6419  0.2355  2.2991
  309DG      H6 7090   1.494   5.663   1.892  0.9089 -0.3554  0.4860
  309DG      H7 7091   1.621   5.701   1.780  0.4524 -0.3113 -1.0680
  309DG      H8 7092   1.486   5.605   1.739 -0.8546  1.0338  1.1130
  309DG      O9 7093   1.402   5.106   1.911  0.4521  0.1423  0.3880
  309DG     O10 7094   1.626   5.495   1.855  0.4657 -0.4885 -0.5173
  309DG     C11 7095   1.480   5.033   1.820 -0.2737 -0.2195  0.4858
  309DG     C12 7096   1.708   5.449   1.751  0.5988 -0.1618 -0.1289
  309DG     H13 7097   1.436   5.030   1.721  2.1905  0.4430 -0.6897
  309DG     H14 7098   1.490   4.927   1.846 -0.3438 -0.4761 -0.4950
  309DG     H15 7099   1.796   5.513   1.743 -1.3100  2.4953 -1.2660
  309DG     H16 7100   1.652   5.450   1.658  0.5442 -0.0274 -0.0937
  309DG     C17 7101   1.621   5.097   1.796  0.0666  0.9736  0.1112
  309DG     C18 7102   1.735   5.303   1.785 -0.0824  0.1014  0.5769
  309DG     O19 7103   1.609   5.234   1.796  0.2084  0.1153 -0.9605
  309DG     H20 7104   1.674   5.058   1.709  1.3982 -0.9802  1.7130
  309DG     H21 7105   1.691   5.069   1.875  1.4295  2.7421 -0.4122
  309DG     H22 7106   1.808   5.259   1.717  0.0014  0.6681  0.2989
  309DG     H23 7107   1.781   5.294   1.884 -0.7033  0.0781  0.8699
  310DG      C1 7108   2.042   4.063   3.496 -0.6673  0.3014  0.3255
  310DG      C2 7109   2.444   3.841   3.002 -0.1495 -0.0940  0.2383
  310DG      H3 7110   1.952   4.041   3.552 -1.6489  1.3783 -0.7483
  310DG      H4 7111   2.021   4.137   3.418 -1.1854  0.4798  0.6326
  310DG      H5 7112   2.124   4.106   3.553  0.3878 -1.9043  0.5680
  310DG      H6 7113   2.472   3.938   2.962  1.5385 -0.5297  0.3070
  310DG      H7 7114   2.496   3.793   3.085  0.9422  0.1110 -0.3172
  310DG      H8 7115   2.457   3.762   2.927 -0.1297 -0.6195  0.7897
  310DG      O9 7116   2.100   3.949   3.431  0.4423  0.1417 -0.6304
  310DG     O10 7117   2.313   3.836   3.055  0.3250  0.4551  0.2786
  310DG     C11 7118   2.144   3.856   3.530  0.1888  0.5667  0.6127
  310DG     C12 7119   2.264   3.705   3.082 -0.5975 -0.4031  0.3390
  310DG     H13 7120   2.079   3.823   3.611  1.9863 -2.7930  0.8734
  310DG     H14 7121   2.216   3.914   3.587  0.3610  1.5996 -0.6167
  310DG     H15 7122   2.307   3.637   3.009  1.2223 -0.4452  1.3606
  310DG     H16 7123   2.159   3.713   3.056  0.3447  0.4874 -3.8122
  310DG     C17 7124   2.209   3.734   3.456  0.6161  0.5391 -0.3085
  310DG     C18 7125   2.277   3.666   3.232  0.3136 -0.0296  0.0540
  310DG     O19 7126   2.226   3.770   3.312 -0.0035 -0.5756  0.2697
  310DG     H20 7127   2.145   3.646   3.459 -1.2183  1.8456  1.1912
  310DG     H21 7128   2.309   3.724   3.496  0.3483  0.0473  0.2542
  310DG     H22 7129   2.208   3.584   3.250 -1.8535  1.8239  0.4750
  310DG     H23 7130   2.379   3.637   3.259 -0.3224 -2.0308  0.5015
  311DG      C1 7131   1.617   3.355   5.399 -0.0390 -0.3873  0.7282
  311DG      C2 7132   1.573   3.462   6.103 -0.3159  0.0885  0.8550
  311DG      H3 7133   1.527   3.392   5.349  1.1918  2.0147  0.1194
  311DG      H4 7134   1.637   3.248   5.398 -0.3512 -0.4467 -0.4737
  311DG      H5 7135   1.703   3.398   5.347 -0.6078  2.8384  2.2376
  311DG      H6 7136   1.644   3.461   6.020 -2.2551 -1.0456 -0.9031
  311DG      H7 7137   1.596   3.547   6.167 -2.2528  1.3654 -0.0281
  311DG      H8 7138   1.592   3.384   6.176 -3.0311 -1.0835  0.4369
  311DG      O9 7139   1.637   3.401   5.531  0.0851  0.2220 -0.1049
  311DG     O10 7140   1.440   3.474   6.042 -0.4919  0.4661 -0.1469
  311DG     C11 7141   1.571   3.317   5.624 -0.1926 -0.0277 -0.7176
  311DG     C12 7142   1.425   3.574   5.942 -0.8014 -0.0775  0.0385
  311DG     H13 7143   1.608   3.215   5.637 -0.5453  0.2063  3.2993
  311DG     H14 7144   1.463   3.319   5.611 -0.1873  1.6738 -0.6478
  311DG     H15 7145   1.485   3.662   5.962  1.1000 -1.0274 -1.1179
  311DG     H16 7146   1.318   3.593   5.946 -1.5858 -3.3287 -1.7986
  311DG     C17 7147   1.607   3.375   5.759 -0.0862  0.4979  0.3624
  311DG     C18 7148   1.445   3.533   5.794  0.6185  0.5485 -0.1531
  311DG     O19 7149   1.580   3.512   5.762  0.8097 -0.4202 -0.0423
  311DG     H20 7150   1.712   3.352   5.779  0.1404  0.3438 -0.8777
  311DG     H21 7151   1.555   3.314   5.833 -0.6248  1.1950  0.5684
  311DG     H22 7152   1.379   3.451   5.768  0.6005  0.9240 -1.3266
  311DG     H23 7153   1.413   3.618   5.734  1.8122 -0.2906 -2.0395
  312DG      C1 7154   4.023   2.441   2.464 -0.5837  0.2581 -0.4399
  312DG      C2 7155   4.250   3.015   3.035  0.0422 -0.0326 -0.6055
  312DG      H3 7156   3.943   2.375   2.433  1.8464 -2.8658 -0.5041
  312DG      H4 7157   4.117   2.387   2.457  0.1386  1.1140  1.6168
  312DG      H5 7158   4.023   2.518   2.388  1.3638 -1.7796 -2.6448
  312DG      H6 7159   4.240   3.123   3.026  0.2418  0.0173 -0.2485
  312DG      H7 7160   4.221   2.990   3.137  1.2677  1.6953  0.2371
  312DG      H8 7161   4.356   2.991   3.019 -0.0776 -0.0093 -1.4960
  312DG      O9 7162   3.988   2.491   2.594  0.4061 -0.7132  0.0129
  312DG     O10 7163   4.171   2.955   2.932  0.1085 -0.0446 -0.3062
  312DG     C11 7164   4.082   2.574   2.652  0.3580 -0.4001 -0.2453
  312DG     C12 7165   4.221   2.976   2.799 -0.5093  0.4495  0.2789
  312DG     H13 7166   4.190   2.567   2.633  0.9606  0.9949  2.2355
  312DG     H14 7167   4.068   2.562   2.759 -0.0658  0.1861 -0.2313
  312DG     H15 7168   4.314   2.923   2.776 -2.0647 -2.2783 -0.1888
  312DG     H16 7169   4.239   3.082   2.783 -1.2971  0.8195  1.6606
  312DG     C17 7170   4.031   2.716   2.635  0.8697 -0.7995 -0.0837
  312DG     C18 7171   4.133   2.929   2.690  0.6127 -0.2111 -0.3729
  312DG     O19 7172   4.132   2.788   2.712  0.3849  0.0376  0.2550
  312DG     H20 7173   3.936   2.735   2.686  0.0953 -1.3392 -1.2695
  312DG     H21 7174   4.035   2.748   2.531 -0.3040  1.7656  0.5763
  312DG     H22 7175   4.034   2.972   2.702  1.1984  0.7689  1.3776
  312DG     H23 7176   4.170   2.944   2.589 -1.1807 -1.2422 -1.2246
  313DG      C1 7177   0.955   2.951   2.860  0.4560  0.5237  0.2434
  313DG      C2 7178   1.256   2.289   2.775  0.5562 -0.2054  0.0941
  313DG      H3 7179   0.945   3.020   2.776 -1.6806 -0.6720 -0.5643
  313DG      H4 7180   0.901   3.004   2.939 -1.5606 -0.1875 -0.5920
  313DG      H5 7181   0.906   2.855   2.839  0.5189  0.0727  1.9622
  313DG      H6 7182   1.353   2.257   2.735  0.2157  0.0809 -0.9712
  313DG      H7 7183   1.198   2.199   2.797  0.7780 -0.1326  1.0010
  313DG      H8 7184   1.194   2.340   2.702  1.5892 -0.2758 -0.8669
  313DG      O9 7185   1.088   2.927   2.899  0.0456 -0.3061  0.3824
  313DG     O10 7186   1.257   2.377   2.883 -0.7678 -0.8996 -0.5059
  313DG     C11 7187   1.101   2.837   3.009  0.0787  0.4241 -0.1636
  313DG     C12 7188   1.300   2.516   2.854 -0.5298  0.0620  0.0111
  313DG     H13 7189   1.056   2.741   2.982  0.5075  0.0102  0.5622
  313DG     H14 7190   1.062   2.889   3.096 -2.8457 -2.0710  0.2147
  313DG     H15 7191   1.231   2.568   2.789  0.1925 -0.4918 -1.2270
  313DG     H16 7192   1.402   2.519   2.814  0.2349  0.6177  1.8862
  313DG     C17 7193   1.252   2.819   3.027  0.4942 -0.2796 -0.0796
  313DG     C18 7194   1.302   2.594   2.978  0.5232 -0.0634 -0.1822
  313DG     O19 7195   1.320   2.729   2.939  0.2253  0.6895 -0.0279
  313DG     H20 7196   1.271   2.782   3.128  1.2279 -0.6428 -0.3438
  313DG     H21 7197   1.310   2.911   3.030  1.0865 -0.6180  3.1805
  313DG     H22 7198   1.202   2.578   3.019  0.1061 -0.3418 -1.2794
  313DG     H23 7199   1.383   2.571   3.047 -0.3223 -1.3426  0.4209
  314DG      C1 7200   0.988   4.671   2.309 -0.0604 -0.0883 -0.1700
  314DG      C2 7201   1.249   4.463   1.727 -0.4537  0.1659 -0.6974
  314DG      H3 7202   1.049   4.754   2.345 -0.2348  0.5657 -1.3216
  314DG      H4 7203   1.013   4.566   2.324 -0.2007 -0.3392 -1.5261
  314DG      H5 7204   0.893   4.686   2.359  0.5476 -1.9578  1.6850
  314DG      H6 7205   1.312   4.411   1.798  0.3710  0.4022 -1.2385
  314DG      H7 7206   1.268   4.412   1.632  1.7837 -0.8830  0.2425
  314DG      H8 7207   1.287   4.565   1.716  1.1672 -0.2366  0.8562
  314DG      O9 7208   0.982   4.680   2.159 -0.0890 -0.3503 -0.0101
  314DG     O10 7209   1.114   4.459   1.770 -0.1455  0.9465  0.4077
  314DG     C11 7210   0.928   4.803   2.113  0.1780  0.2052 -0.0668
  314DG     C12 7211   1.030   4.555   1.712  0.2022  0.1043  0.3173
  314DG     H13 7212   0.952   4.886   2.178 -3.6077  1.2976  0.1992
  314DG     H14 7213   0.819   4.795   2.116  0.2832 -1.6939  0.2046
  314DG     H15 7214   0.926   4.527   1.728  0.1580  1.2468  2.3085
  314DG     H16 7215   1.036   4.547   1.603  1.4573  0.1731  0.3670
  314DG     C17 7216   0.973   4.824   1.972 -0.4874  0.1305 -0.3998
  314DG     C18 7217   1.034   4.699   1.769 -0.3099  0.4100 -0.3403
  314DG     O19 7218   0.981   4.702   1.902  0.4769  0.4875 -1.0887
  314DG     H20 7219   1.071   4.871   1.972 -0.1473 -0.5545 -0.1408
  314DG     H21 7220   0.895   4.889   1.933  1.2521  1.2527 -2.1894
  314DG     H22 7221   1.138   4.732   1.764 -0.2933  0.6737  1.1040
  314DG     H23 7222   0.964   4.757   1.709 -2.6466 -1.9722 -0.0951
  315DG      C1 7223   3.127   3.523   3.186  0.0615  0.0418 -0.6541
  315DG      C2 7224   3.723   3.645   3.728  0.5192  0.3590 -0.3181
  315DG      H3 7225   3.031   3.515   3.238  0.6330 -1.0501  0.2885
  315DG      H4 7226   3.148   3.431   3.132  0.5693 -0.1536 -0.1318
  315DG      H5 7227   3.126   3.608   3.118  2.1857  0.7294  0.0875
  315DG      H6 7228   3.788   3.566   3.692 -0.2039  0.8223 -2.8316
  315DG      H7 7229   3.732   3.733   3.665 -0.7409  1.1527  0.5496
  315DG      H8 7230   3.761   3.660   3.829 -1.1181  0.1407  0.3743
  315DG      O9 7231   3.232   3.524   3.277  0.2691  0.5121 -0.0798
  315DG     O10 7232   3.597   3.587   3.724  0.0449 -0.3970  0.3700
  315DG     C11 7233   3.213   3.617   3.379 -0.0463 -0.2812  0.2564
  315DG     C12 7234   3.490   3.675   3.747 -0.1368 -0.0045  0.1709
  315DG     H13 7235   3.130   3.596   3.447 -0.5178 -0.8070 -0.4508
  315DG     H14 7236   3.183   3.713   3.337  1.8031  0.4456  0.5017
  315DG     H15 7237   3.517   3.746   3.825  1.2363 -0.2639 -0.0392
  315DG     H16 7238   3.411   3.609   3.783 -0.2239  0.5759  1.0608
  315DG     C17 7239   3.342   3.623   3.457  0.3022  0.4805  0.1298
  315DG     C18 7240   3.439   3.762   3.627 -0.2006 -0.5405 -0.2150
  315DG     O19 7241   3.320   3.707   3.567  0.2920 -0.5159  0.2796
  315DG     H20 7242   3.421   3.664   3.393 -1.4042  2.2069 -0.9744
  315DG     H21 7243   3.379   3.524   3.484  0.3459  0.1156 -1.1991
  315DG     H22 7244   3.409   3.861   3.661  0.1899 -0.3037 -0.5631
  315DG     H23 7245   3.509   3.765   3.544 -0.2011  0.4773 -0.1876
  316DG      C1 7246   0.215   1.513   3.974 -0.0182 -0.3847 -0.6658
  316DG      C2 7247   0.369   1.167   4.550 -0.8021  0.0768 -0.0805
  316DG      H3 7248   0.124   1.455   3.969 -0.6663  0.4076  1.1868
  316DG      H4 7249   0.288   1.450   3.922 -0.9203  0.0785 -2.5904
  316DG      H5 7250   0.202   1.601   3.911  0.0194 -0.5695 -0.9372
  316DG      H6 7251   0.469   1.168   4.507 -0.4674  1.5224  0.6760
  316DG      H7 7252   0.373   1.131   4.653 -2.8506  1.0567  0.4026
  316DG      H8 7253   0.308   1.090   4.502 -1.0196 -0.3734  0.8794
  316DG      O9 7254   0.266   1.548   4.108 -0.6136  0.0250 -0.1703
  316DG     O10 7255   0.291   1.279   4.535 -0.2120 -0.3536  0.0356
  316DG     C11 7256   0.175   1.615   4.188 -0.3366 -1.2811 -0.2158
  316DG     C12 7257   0.344   1.404   4.589 -0.5334  0.9123 -0.3245
  316DG     H13 7258   0.080   1.563   4.199 -0.9477 -0.3792 -1.0884
  316DG     H14 7259   0.143   1.715   4.160 -0.4076 -1.0609  0.6336
  316DG     H15 7260   0.447   1.418   4.555  0.0771 -0.1234  1.0107
  316DG     H16 7261   0.351   1.408   4.697  0.7573  0.0982 -0.3589
  316DG     C17 7262   0.248   1.633   4.325  0.8963  0.4871 -1.0061
  316DG     C18 7263   0.278   1.522   4.530  0.3189  0.2791 -0.0400
  316DG     O19 7264   0.253   1.512   4.395 -0.1627  0.3571 -0.1267
  316DG     H20 7265   0.195   1.719   4.367  1.6009  0.2168  0.5162
  316DG     H21 7266   0.345   1.682   4.335  1.5132 -0.9293  0.2628
  316DG     H22 7267   0.184   1.533   4.584  0.5825  0.2627  0.4280
  316DG     H23 7268   0.345   1.607   4.549 -0.7318  1.1499 -0.1237
  317DG      C1 7269   2.513   1.693   3.199  0.2575  0.2732  0.1241
  317DG      C2 7270   2.155   2.244   3.489 -0.0439 -0.1425 -0.7197
  317DG      H3 7271   2.448   1.612   3.164  3.2713 -2.4566  0.3934
  317DG      H4 7272   2.530   1.685   3.307  1.5764 -2.3094 -0.1951
  317DG      H5 7273   2.607   1.676   3.148  1.3072  3.3222  0.8495
  317DG      H6 7274   2.144   2.222   3.595 -0.8804 -1.5068 -1.0688
  317DG      H7 7275   2.253   2.287   3.468  0.3933  0.3397  1.9039
  317DG      H8 7276   2.082   2.324   3.481 -0.5374 -0.4818  0.2478
  317DG      O9 7277   2.460   1.822   3.167  0.3880 -0.3060  0.0878
  317DG     O10 7278   2.120   2.125   3.426  0.1683 -0.2814  0.0756
  317DG     C11 7279   2.528   1.930   3.233  0.0914  0.2657 -0.2763
  317DG     C12 7280   2.104   2.140   3.287 -0.9612  0.1773  0.1256
  317DG     H13 7281   2.634   1.945   3.210  0.4521 -0.9642  0.4989
  317DG     H14 7282   2.516   1.904   3.338  0.1494  0.9669 -0.0916
  317DG     H15 7283   2.034   2.219   3.264 -0.1838  1.2887  1.4430
  317DG     H16 7284   2.058   2.044   3.260 -1.9043  1.0215 -1.3981
  317DG     C17 7285   2.450   2.067   3.205 -0.1509 -0.0124 -0.4004
  317DG     C18 7286   2.233   2.151   3.211  0.3352  0.1556 -0.8173
  317DG     O19 7287   2.314   2.052   3.258 -0.0635 -0.3360 -0.4804
  317DG     H20 7288   2.452   2.087   3.098  1.0256 -0.6713 -0.5218
  317DG     H21 7289   2.503   2.146   3.258  0.2417 -0.3970 -0.2182
  317DG     H22 7290   2.217   2.152   3.103  0.6952 -0.3295 -0.8806
  317DG     H23 7291   2.273   2.247   3.243 -0.2240  0.8247 -2.0748
  318DG      C1 7292   0.999   3.129   3.737  0.0150 -0.0603 -0.4516
  318DG      C2 7293   1.065   2.707   3.354 -0.5513  0.3220 -0.4042
  318DG      H3 7294   0.934   3.205   3.694  1.9766  0.7122 -2.2095
  318DG      H4 7295   1.097   3.164   3.706  0.7693 -2.7209 -1.3596
  318DG      H5 7296   0.989   3.134   3.846  2.7303  1.1880 -0.1667
  318DG      H6 7297   1.094   2.806   3.318 -0.6360  0.9232  1.1229
  318DG      H7 7298   1.079   2.707   3.462  2.1878  0.3293 -0.6803
  318DG      H8 7299   1.147   2.643   3.321 -0.9750 -0.4800  0.0705
  318DG      O9 7300   0.965   2.995   3.692 -0.4499  0.5222 -0.3733
  318DG     O10 7301   0.947   2.656   3.305 -0.0093  0.3435  0.7461
  318DG     C11 7302   0.826   2.960   3.733 -0.9137  0.3320 -0.2835
  318DG     C12 7303   0.832   2.721   3.331  0.0616 -0.4043 -0.2322
  318DG     H13 7304   0.763   3.042   3.699  1.1567  1.8147 -0.7600
  318DG     H14 7305   0.825   2.948   3.842 -1.0913  3.3176  0.1271
  318DG     H15 7306   0.755   2.698   3.257 -1.5039  0.2548  1.1374
  318DG     H16 7307   0.850   2.825   3.304 -0.3017 -0.3955 -0.4411
  318DG     C17 7308   0.775   2.826   3.677 -0.7348 -1.1177  0.4289
  318DG     C18 7309   0.784   2.701   3.476  0.0868  0.4569 -0.5901
  318DG     O19 7310   0.805   2.825   3.538  0.0173 -0.3997  0.5582
  318DG     H20 7311   0.668   2.809   3.691 -0.7496 -0.4951  1.1667
  318DG     H21 7312   0.830   2.745   3.724 -0.1048 -0.9759 -0.0603
  318DG     H22 7313   0.678   2.674   3.477  0.5502 -1.5048 -0.4726
  318DG     H23 7314   0.829   2.618   3.530 -1.9864  0.3911  1.2057
  319DG      C1 7315   3.604   0.812   2.366 -0.4575  0.0339  0.9718
  319DG      C2 7316   4.254   1.092   2.397 -0.0727 -0.4077 -0.1670
  319DG      H3 7317   3.629   0.772   2.268  0.4540  1.0222  0.7715
  319DG      H4 7318   3.581   0.917   2.345  1.1817  0.4193  0.8959
  319DG      H5 7319   3.516   0.766   2.410 -1.5515  0.5361 -0.6121
  319DG      H6 7320   4.214   1.193   2.387 -0.5926 -0.6107 -0.1651
  319DG      H7 7321   4.350   1.089   2.449 -1.3023  0.9799  2.3990
  319DG      H8 7322   4.277   1.062   2.295 -2.6065  2.9332 -1.9256
  319DG      O9 7323   3.715   0.805   2.448 -0.2313  0.3653 -0.1088
  319DG     O10 7324   4.153   1.008   2.458 -0.6411  0.1820 -0.6778
  319DG     C11 7325   3.702   0.842   2.579  0.2507  0.4087 -0.3893
  319DG     C12 7326   4.153   1.024   2.598 -0.0042 -0.3402  0.3059
  319DG     H13 7327   3.633   0.768   2.618 -0.9629  1.9262  0.4448
  319DG     H14 7328   3.651   0.938   2.581  1.0608  0.8477  0.1799
  319DG     H15 7329   4.123   1.122   2.635  0.3213 -0.1676  0.1151
  319DG     H16 7330   4.254   1.001   2.634 -0.2623 -0.7573  0.7792
  319DG     C17 7331   3.839   0.840   2.650 -0.1587 -0.4211  0.6135
  319DG     C18 7332   4.060   0.924   2.666  0.0298 -0.4466 -0.4057
  319DG     O19 7333   3.941   0.924   2.590 -0.8425 -0.5274 -0.4795
  319DG     H20 7334   3.865   0.735   2.650  0.1843 -0.3382  0.1664
  319DG     H21 7335   3.841   0.859   2.757 -1.1593 -1.1430  0.7757
  319DG     H22 7336   4.101   0.825   2.648 -0.2163 -0.4860 -0.7773
  319DG     H23 7337   4.035   0.943   2.770  0.5677  0.7550 -0.4790
  320DG      C1 7338   2.431   5.266   0.365  0.8002 -0.0844 -0.0886
  320DG      C2 7339   2.234   5.353   1.065  0.2945  0.0633 -0.4865
  320DG      H3 7340   2.485   5.328   0.293  2.1636 -1.3640 -0.2276
  320DG      H4 7341   2.327   5.251   0.336  0.1988  0.5766  1.6365
  320DG      H5 7342   2.483   5.170   0.361 -1.9182 -1.6228 -1.4307
  320DG      H6 7343   2.236   5.245   1.078  1.2393  0.0856 -0.3321
  320DG      H7 7344   2.273   5.392   1.159  0.3139  0.8199 -0.8030
  320DG      H8 7345   2.132   5.386   1.048 -0.0873  0.6915  2.4926
  320DG      O9 7346   2.429   5.330   0.491  0.0403  0.3250 -0.2331
  320DG     O10 7347   2.318   5.386   0.959 -0.7530  0.3746  0.4342
  320DG     C11 7348   2.565   5.353   0.529  0.4676  0.1193 -0.3444
  320DG     C12 7349   2.458   5.380   0.998  0.2338  0.4829 -0.0099
  320DG     H13 7350   2.622   5.405   0.452  0.3936  0.5368 -0.1246
  320DG     H14 7351   2.611   5.260   0.560  0.2479  0.4181  0.9246
  320DG     H15 7352   2.491   5.284   1.038  0.8953  1.1260  1.0321
  320DG     H16 7353   2.488   5.448   1.078  0.8062 -0.3711  0.5271
  320DG     C17 7354   2.583   5.431   0.653  0.1046 -0.8357 -0.4615
  320DG     C18 7355   2.543   5.427   0.881 -0.6353 -1.0879  0.2785
  320DG     O19 7356   2.517   5.358   0.758 -0.1859 -0.2959 -0.3664
  320DG     H20 7357   2.541   5.529   0.630 -0.6549 -1.0303  0.0617
  320DG     H21 7358   2.690   5.430   0.674 -0.1023  1.4391  1.1146
  320DG     H22 7359   2.541   5.536   0.875 -0.6836 -1.0452  0.9191
  320DG     H23 7360   2.649   5.414   0.899 -0.4010 -0.3701 -0.5157
  321DG      C1 7361   3.201   0.023   4.753 -0.4025 -0.9660  0.2290
  321DG      C2 7362   2.999   0.271   5.286  0.3559 -0.3004  0.4650
  321DG      H3 7363   3.104  -0.024   4.768 -0.2478 -1.0010  1.1855
  321DG      H4 7364   3.272  -0.056   4.729 -0.3026 -0.6941 -0.3891
  321DG      H5 7365   3.182   0.086   4.666  0.0083 -1.4740 -0.2392
  321DG      H6 7366   3.002   0.171   5.244 -1.0296 -0.3367  0.4105
  321DG      H7 7367   3.022   0.258   5.392 -1.3715  0.4355  0.9613
  321DG      H8 7368   2.899   0.312   5.274  0.3523 -0.4038  0.1224
  321DG      O9 7369   3.233   0.114   4.858 -0.2837 -0.6419 -0.4444
  321DG     O10 7370   3.095   0.351   5.220  0.3121 -0.2296 -0.1206
  321DG     C11 7371   3.366   0.159   4.871  0.4054 -0.2057  0.3230
  321DG     C12 7372   3.219   0.326   5.289  0.2785 -0.4304 -0.2730
  321DG     H13 7373   3.405   0.197   4.776 -0.4468  1.9836  0.7880
  321DG     H14 7374   3.414   0.065   4.897 -1.2238 -1.2463 -0.2849
  321DG     H15 7375   3.237   0.223   5.319  1.5390 -0.0351  0.3948
  321DG     H16 7376   3.249   0.392   5.371  0.0970  0.8244 -1.1869
  321DG     C17 7377   3.385   0.265   4.979  0.3301  0.3897 -0.1517
  321DG     C18 7378   3.329   0.346   5.187 -0.2445  0.6562  0.0702
  321DG     O19 7379   3.296   0.249   5.089 -0.1679  0.2858  0.1894
  321DG     H20 7380   3.356   0.361   4.936  1.7055  0.9195  0.0522
  321DG     H21 7381   3.489   0.274   5.011 -0.6828  0.9240  3.4803
  321DG     H22 7382   3.316   0.447   5.147  0.7782  0.2508 -1.3487
  321DG     H23 7383   3.422   0.329   5.240 -0.2141 -1.0873 -0.4816
  322DG      C1 7384   5.086   4.166   2.344  0.2767 -0.1436 -0.5720
  322DG      C2 7385   5.327   4.347   2.926 -0.2872 -1.0302 -0.9158
  322DG      H3 7386   5.144   4.252   2.311 -0.5086  1.0256  0.9964
  322DG      H4 7387   4.985   4.204   2.359  0.8500  0.7187  1.4325
  322DG      H5 7388   5.076   4.086   2.271  0.6398 -1.5379  0.8436
  322DG      H6 7389   5.431   4.333   2.955 -0.3267 -1.1434 -0.8246
  322DG      H7 7390   5.331   4.406   2.835  1.2252  0.8117  0.2892
  322DG      H8 7391   5.257   4.402   2.990  0.5105 -1.5318  0.4421
  322DG      O9 7392   5.119   4.104   2.466 -0.6930 -0.0464 -0.2040
  322DG     O10 7393   5.256   4.227   2.892  0.5196  0.3132  0.5804
  322DG     C11 7394   5.213   4.000   2.446 -0.3603 -0.0875  0.2177
  322DG     C12 7395   5.338   4.114   2.894 -0.3777 -0.0296  1.0329
  322DG     H13 7396   5.307   4.041   2.407 -1.2647  1.3109 -0.6007
  322DG     H14 7397   5.182   3.923   2.375 -1.7614  1.3667 -0.8357
  322DG     H15 7398   5.348   4.070   2.993 -0.9231 -0.8964  0.7117
  322DG     H16 7399   5.443   4.121   2.866  0.1109 -2.7891  1.9521
  322DG     C17 7400   5.239   3.943   2.579 -0.0287 -0.0709 -0.0009
  322DG     C18 7401   5.287   4.006   2.805 -0.7420  0.2577 -0.2736
  322DG     O19 7402   5.270   4.051   2.672 -0.7712  0.4472  0.4734
  322DG     H20 7403   5.320   3.870   2.570  0.3526  0.4026 -0.5027
  322DG     H21 7404   5.159   3.880   2.618 -1.1355 -0.6603 -2.9943
  322DG     H22 7405   5.355   3.921   2.815  0.1251  1.0061  0.2869
  322DG     H23 7406   5.191   3.977   2.847 -2.2225  2.8188 -1.6198
  323DG      C1 7407   2.054   4.793   3.999  0.1725 -0.0251 -0.3714
  323DG      C2 7408   2.453   5.329   3.949 -0.0089 -0.1334  0.5679
  323DG      H3 7409   2.083   4.781   4.103 -3.0196  1.9791  0.9289
  323DG      H4 7410   2.120   4.737   3.933  0.1250 -0.7018  0.1463
  323DG      H5 7411   1.953   4.752   3.988  0.4869 -0.9257 -0.0131
  323DG      H6 7412   2.464   5.435   3.926  0.0267 -0.1710  0.4130
  323DG      H7 7413   2.518   5.290   4.027  1.9075  0.8570 -0.4606
  323DG      H8 7414   2.487   5.281   3.858  2.7654  2.9285 -0.2170
  323DG      O9 7415   2.050   4.940   3.970  0.1258 -0.6236  0.1739
  323DG     O10 7416   2.326   5.275   3.981 -0.2330 -0.2814  0.4244
  323DG     C11 7417   1.951   5.000   4.053  0.3039 -0.2840 -0.0112
  323DG     C12 7418   2.249   5.361   4.061 -0.0196 -0.6498 -0.4575
  323DG     H13 7419   1.966   4.974   4.157  0.0403 -1.7531 -0.3255
  323DG     H14 7420   1.847   4.973   4.034 -0.3764  2.1611 -0.1198
  323DG     H15 7421   2.273   5.467   4.061 -1.0509 -0.3933  0.9434
  323DG     H16 7422   2.263   5.333   4.165  0.5065 -0.0636 -0.3712
  323DG     C17 7423   1.947   5.147   4.029 -0.7856  0.0877 -0.1253
  323DG     C18 7424   2.098   5.341   4.030 -0.3900 -0.5216 -0.2628
  323DG     O19 7425   2.078   5.203   4.061  0.4496  0.4493  0.3203
  323DG     H20 7426   1.864   5.189   4.086 -1.7785 -1.0458 -0.6874
  323DG     H21 7427   1.921   5.176   3.927 -3.0045 -1.1646  0.0247
  323DG     H22 7428   2.036   5.404   4.095 -0.1818 -0.5463 -0.0400
  323DG     H23 7429   2.091   5.358   3.923  0.5510 -2.4173 -0.6499
  324DG      C1 7430   3.378   5.430   3.026 -0.6143  0.4493  0.0769
  324DG      C2 7431   2.679   5.737   2.575  0.0337 -0.5945  0.3143
  324DG      H3 7432   3.401   5.334   3.072  2.2256  1.5747  1.2556
  324DG      H4 7433   3.371   5.501   3.107 -0.1732  0.4515  0.1172
  324DG      H5 7434   3.463   5.443   2.959 -0.8803  0.0162 -0.3545
  324DG      H6 7435   2.662   5.702   2.677 -1.4918  1.6071  0.9159
  324DG      H7 7436   2.711   5.841   2.576 -1.4279 -0.1221  1.0310
  324DG      H8 7437   2.582   5.738   2.524  0.4322 -0.8452 -0.4576
  324DG      O9 7438   3.258   5.408   2.958  0.3441 -0.4472  0.1691
  324DG     O10 7439   2.783   5.654   2.505  0.3958 -0.5079  0.3339
  324DG     C11 7440   3.206   5.519   2.887  0.2255  0.5867 -0.4553
  324DG     C12 7441   2.916   5.651   2.562  0.0358  0.0954  0.4521
  324DG     H13 7442   3.260   5.545   2.796 -0.8802  0.2484 -1.2408
  324DG     H14 7443   3.215   5.616   2.937 -0.9795 -0.0447  1.0699
  324DG     H15 7444   2.953   5.751   2.586  1.6240 -0.4631  0.4416
  324DG     H16 7445   2.978   5.611   2.482  0.8417  1.0912  0.5577
  324DG     C17 7446   3.069   5.485   2.839  0.2130  0.0580  0.2410
  324DG     C18 7447   2.911   5.555   2.676  0.0135  0.2302 -0.3061
  324DG     O19 7448   3.043   5.552   2.718  0.1741  0.0007 -0.0460
  324DG     H20 7449   2.995   5.517   2.911  1.0596  1.0661  0.6873
  324DG     H21 7450   3.053   5.377   2.830  1.1074 -0.0781  0.1303
  324DG     H22 7451   2.842   5.602   2.746  0.8180 -1.2860  1.5769
  324DG     H23 7452   2.883   5.451   2.660  2.5046 -0.9041  1.9584
  325DG      C1 7453   2.396   1.607   1.102 -0.0129 -0.2001  0.0852
  325DG      C2 7454   3.002   1.103   1.092 -0.1574 -0.1374 -0.2697
  325DG      H3 7455   2.305   1.547   1.115 -0.4846  0.2136 -1.1713
  325DG      H4 7456   2.392   1.643   0.999  0.2225  0.1525  0.1969
  325DG      H5 7457   2.399   1.687   1.176  1.4108 -0.3124  0.1773
  325DG      H6 7458   3.022   1.105   1.199 -0.7635  2.0058 -0.1563
  325DG      H7 7459   2.985   0.997   1.077  0.8508 -0.2069 -1.1047
  325DG      H8 7460   3.091   1.132   1.036  0.4905 -0.3465  0.6326
  325DG      O9 7461   2.505   1.525   1.117 -0.4728  0.1649  0.0799
  325DG     O10 7462   2.901   1.187   1.041 -0.4735 -0.0456 -0.2439
  325DG     C11 7463   2.544   1.459   0.995 -0.1523  1.1333  0.5126
  325DG     C12 7464   2.903   1.212   0.899  0.5177  0.7073 -0.0671
  325DG     H13 7465   2.598   1.530   0.933  0.0172  1.4014  0.9634
  325DG     H14 7466   2.459   1.411   0.946  0.7189 -1.8666  1.7058
  325DG     H15 7467   2.910   1.125   0.834  2.0765  1.2545 -0.6750
  325DG     H16 7468   2.988   1.270   0.863  0.6117 -0.2920 -1.5783
  325DG     C17 7469   2.637   1.336   1.038 -0.2265  0.0792 -0.2142
  325DG     C18 7470   2.770   1.277   0.861  0.0014 -0.4385  0.2807
  325DG     O19 7471   2.653   1.245   0.937 -0.1072  0.4178 -0.1743
  325DG     H20 7472   2.604   1.278   1.124  3.6957 -1.9213  0.1809
  325DG     H21 7473   2.732   1.377   1.071 -0.4181 -0.2442  0.7646
  325DG     H22 7474   2.774   1.384   0.844 -0.8676 -0.5412 -0.6356
  325DG     H23 7475   2.751   1.252   0.757  2.0779  2.1380 -0.8420
  326DG      C1 7476   5.424   3.009   2.268  0.0952 -0.0463  0.2289
  326DG      C2 7477   6.056   2.836   2.603 -0.1899 -0.9062 -0.2656
  326DG      H3 7478   5.412   3.033   2.162  1.6955  2.0101  0.4542
  326DG      H4 7479   5.452   3.103   2.314  2.6349 -1.4622  1.7758
  326DG      H5 7480   5.340   2.955   2.312  0.1871 -1.5769 -1.3454
  326DG      H6 7481   6.138   2.817   2.534  0.8369 -0.7708  0.8906
  326DG      H7 7482   6.059   2.935   2.649  0.0255 -1.0752  0.0887
  326DG      H8 7483   6.073   2.766   2.684  0.5863  0.3973  0.7384
  326DG      O9 7484   5.535   2.923   2.262 -0.5107  0.2769 -0.0425
  326DG     O10 7485   5.933   2.813   2.531  0.4044  0.1081 -0.2181
  326DG     C11 7486   5.511   2.781   2.258  0.1416  0.4290  0.2118
  326DG     C12 7487   5.923   2.679   2.489 -0.4452  0.1159  0.2625
  326DG     H13 7488   5.449   2.751   2.174  0.0440 -1.4721  0.9174
  326DG     H14 7489   5.454   2.746   2.345 -0.3909 -2.5671 -1.2450
  326DG     H15 7490   5.880   2.612   2.564  0.5609 -0.8012  0.0459
  326DG     H16 7491   6.020   2.631   2.477 -0.1694  0.0293  2.4479
  326DG     C17 7492   5.648   2.716   2.250  0.1784 -0.9263  0.0586
  326DG     C18 7493   5.847   2.667   2.358  0.7762 -0.2428 -0.0609
  326DG     O19 7494   5.725   2.738   2.369  0.3907 -0.0234  0.0061
  326DG     H20 7495   5.703   2.745   2.160  2.4501  3.2794  2.4450
  326DG     H21 7496   5.621   2.611   2.242 -2.1505 -0.2798 -1.4486
  326DG     H22 7497   5.911   2.700   2.275  1.1209  0.6231  0.5378
  326DG     H23 7498   5.823   2.563   2.336  0.8285 -0.0123 -1.3259
  327DG      C1 7499   4.124   4.363   0.623  0.0797 -0.4433 -0.3458
  327DG      C2 7500   3.427   4.362   0.588  0.1835  0.3061 -0.9029
  327DG      H3 7501   4.220   4.312   0.607 -0.4601 -1.0853 -1.7279
  327DG      H4 7502   4.113   4.375   0.730  2.0901  0.4574 -0.1982
  327DG      H5 7503   4.151   4.462   0.587  1.1626  0.0460  1.6886
  327DG      H6 7504   3.416   4.370   0.696 -1.7952 -0.5333 -1.0022
  327DG      H7 7505   3.428   4.463   0.546  1.4732  0.7163  0.0540
  327DG      H8 7506   3.342   4.307   0.549  0.5948 -1.8177  0.9837
  327DG      O9 7507   4.012   4.299   0.559 -0.4413 -0.0882  0.5542
  327DG     O10 7508   3.543   4.292   0.543  0.1440  0.2941  0.3440
  327DG     C11 7509   4.034   4.292   0.421  0.6361  0.5423 -0.0909
  327DG     C12 7510   3.562   4.302   0.403  0.6948 -0.4238 -0.2082
  327DG     H13 7511   4.124   4.240   0.388  0.9937  1.6244 -0.9101
  327DG     H14 7512   4.022   4.390   0.374  0.3221  0.0222 -1.1403
  327DG     H15 7513   3.563   4.407   0.372  3.4601  0.5366  2.6355
  327DG     H16 7514   3.479   4.251   0.354  0.7634 -1.2754  0.5444
  327DG     C17 7515   3.911   4.226   0.362 -0.5207  0.1304  0.1304
  327DG     C18 7516   3.678   4.220   0.355  0.0116  0.2188  1.3755
  327DG     O19 7517   3.791   4.276   0.419 -0.0733 -0.0969  0.2903
  327DG     H20 7518   3.913   4.117   0.367 -3.1071 -0.0338 -0.9041
  327DG     H21 7519   3.911   4.253   0.256  1.1243 -1.9090 -0.4648
  327DG     H22 7520   3.666   4.120   0.397 -2.2465 -0.8952 -1.5201
  327DG     H23 7521   3.681   4.224   0.246 -0.8418  3.0386  1.3807
  328DG      C1 7522   4.297   2.274   2.208 -0.2299 -0.5771 -0.8542
  328DG      C2 7523   4.492   1.813   1.710  0.1572 -0.6782 -0.5073
  328DG      H3 7524   4.218   2.202   2.232  1.0670 -1.9795 -0.6731
  328DG      H4 7525   4.261   2.340   2.129  0.9352  0.9162 -0.1831
  328DG      H5 7526   4.305   2.326   2.303  0.5269 -0.5628 -0.9273
  328DG      H6 7527   4.394   1.770   1.731  1.8304 -4.0726  1.1273
  328DG      H7 7528   4.470   1.894   1.640  0.6665 -0.1387 -0.0428
  328DG      H8 7529   4.551   1.731   1.668  0.6216 -1.1925  1.0727
  328DG      O9 7530   4.418   2.197   2.185  0.2321  0.2903 -0.4877
  328DG     O10 7531   4.545   1.879   1.827  0.5286 -0.1945  0.9081
  328DG     C11 7532   4.534   2.273   2.166 -0.1173  0.1513 -0.2124
  328DG     C12 7533   4.650   1.966   1.804 -0.4593 -0.3767 -0.2084
  328DG     H13 7534   4.581   2.316   2.254  0.4038  1.0085 -0.8928
  328DG     H14 7535   4.505   2.359   2.106  0.4248 -0.2928 -1.1386
  328DG     H15 7536   4.635   2.045   1.731  0.8717  1.3525  1.3052
  328DG     H16 7537   4.738   1.906   1.785  0.8042  1.6888 -1.1984
  328DG     C17 7538   4.633   2.189   2.097  0.3473  0.4276 -0.7478
  328DG     C18 7539   4.699   2.030   1.932  0.4238  0.3860 -0.4184
  328DG     O19 7540   4.592   2.107   1.989  0.1900  0.0479  0.3811
  328DG     H20 7541   4.671   2.123   2.174  0.6702  0.3241 -0.9954
  328DG     H21 7542   4.714   2.254   2.064  1.1917 -0.1230  0.1744
  328DG     H22 7543   4.735   1.962   2.009  1.7880  1.7925  0.2721
  328DG     H23 7544   4.786   2.095   1.917  0.5972  0.7307  1.6849
  329DG      C1 7545   2.799   3.044   3.765  1.1155  0.3118 -0.2282
  329DG      C2 7546   2.388   2.565   3.606  0.3416  0.8316 -0.5600
  329DG      H3 7547   2.855   3.003   3.848 -0.7878  0.1560  1.0339
  329DG      H4 7548   2.809   3.153   3.761 -3.9892  1.0590  0.5145
  329DG      H5 7549   2.842   3.011   3.670  0.5545  1.0312 -0.7512
  329DG      H6 7550   2.317   2.483   3.619 -1.8007  2.7499  0.6714
  329DG      H7 7551   2.410   2.564   3.499 -3.1012  0.8528 -1.3834
  329DG      H8 7552   2.477   2.552   3.667  0.6154 -0.2393 -1.1646
  329DG      O9 7553   2.666   2.999   3.771  0.4702  0.5755 -0.0302
  329DG     O10 7554   2.336   2.690   3.639 -0.0343  0.2951  0.5568
  329DG     C11 7555   2.600   3.010   3.902 -0.6245  0.1386 -0.6692
  329DG     C12 7556   2.285   2.686   3.768  0.6926  0.4727 -0.7471
  329DG     H13 7557   2.621   3.104   3.951 -0.0288 -1.3920  2.2364
  329DG     H14 7558   2.650   2.936   3.965  0.2043 -0.0780 -1.5655
  329DG     H15 7559   2.344   2.623   3.834  1.9205  1.1564 -1.1718
  329DG     H16 7560   2.185   2.643   3.775  0.5101  1.1212  1.7187
  329DG     C17 7561   2.449   2.997   3.885  0.6676 -0.6295  0.5234
  329DG     C18 7562   2.293   2.826   3.833  0.0004  0.1131 -0.4988
  329DG     O19 7563   2.429   2.874   3.825 -0.2029 -0.4777  0.2841
  329DG     H20 7564   2.411   3.083   3.830  0.7913 -0.4909  0.6542
  329DG     H21 7565   2.405   3.006   3.984  0.9119  1.7359  0.4794
  329DG     H22 7566   2.218   2.888   3.786 -0.8414  2.2427  3.2339
  329DG     H23 7567   2.264   2.828   3.938  2.7532  1.6946  0.3377
  330DG      C1 7568   3.607   0.424   4.644 -0.6128 -0.0656 -0.1562
  330DG      C2 7569   4.042  -0.114   4.448  0.1585 -0.3200 -0.7080
  330DG      H3 7570   3.502   0.435   4.670 -1.2757 -1.6549 -1.9214
  330DG      H4 7571   3.629   0.498   4.566 -1.9038  0.7698  0.2383
  330DG      H5 7572   3.668   0.443   4.732 -2.3904 -1.3821  1.4367
  330DG      H6 7573   4.061  -0.220   4.468  0.1563 -0.0666  0.7470
  330DG      H7 7574   4.059  -0.087   4.344 -0.4188 -1.1420 -1.0291
  330DG      H8 7575   4.108  -0.056   4.513  1.5089 -0.6258 -1.7486
  330DG      O9 7576   3.610   0.292   4.594  0.1957 -0.2628  0.0159
  330DG     O10 7577   3.908  -0.079   4.474 -0.3469  0.5421  0.3844
  330DG     C11 7578   3.557   0.286   4.463 -0.0864  0.9447 -0.1731
  330DG     C12 7579   3.809  -0.133   4.380  0.0774  0.7642 -0.0969
  330DG     H13 7580   3.619   0.330   4.385  2.7872 -1.5109  0.5258
  330DG     H14 7581   3.462   0.337   4.449 -0.4705  0.3489  0.2478
  330DG     H15 7582   3.796  -0.241   4.381  0.5197  0.7076 -0.5266
  330DG     H16 7583   3.838  -0.113   4.277  2.0636 -0.1207  0.2583
  330DG     C17 7584   3.538   0.137   4.430  0.3587 -0.4189 -0.6676
  330DG     C18 7585   3.665  -0.076   4.407 -0.6564  0.7034  0.4520
  330DG     O19 7586   3.666   0.065   4.434 -0.0463 -0.3629  0.1977
  330DG     H20 7587   3.514   0.136   4.324 -0.5449  1.2010 -0.5126
  330DG     H21 7588   3.460   0.088   4.489  0.0599  1.2260  0.3526
  330DG     H22 7589   3.601  -0.106   4.324  2.3667 -0.3568 -1.6655
  330DG     H23 7590   3.632  -0.124   4.500  2.4992 -0.1403  1.2574
  331DG      C1 7591   4.932   4.686   0.886 -0.6921 -0.3040 -0.4014
  331DG      C2 7592   5.521   4.779   0.580 -0.4563  0.2537  0.4298
  331DG      H3 7593   4.926   4.755   0.802 -2.8026 -0.3990 -0.3785
  331DG      H4 7594   4.877   4.720   0.973 -1.3642 -2.5047  0.1143
  331DG      H5 7595   4.900   4.588   0.849  0.6430 -0.6324 -0.7755
  331DG      H6 7596   5.460   4.845   0.519 -1.4119  0.8018  1.9126
  331DG      H7 7597   5.624   4.815   0.581 -0.1943 -0.4037  2.3478
  331DG      H8 7598   5.525   4.673   0.556  4.1319  0.2791  0.1702
  331DG      O9 7599   5.074   4.688   0.918  0.5768 -0.0084 -0.1685
  331DG     O10 7600   5.463   4.789   0.709 -0.4533  0.3459  0.4134
  331DG     C11 7601   5.116   4.597   1.012 -0.7184 -0.0071 -0.4220
  331DG     C12 7602   5.533   4.720   0.813  0.0169  0.2725 -0.4356
  331DG     H13 7603   5.121   4.496   0.973 -0.0814 -0.2574  0.2855
  331DG     H14 7604   5.053   4.602   1.101  0.2216 -1.1935  0.3401
  331DG     H15 7605   5.622   4.767   0.857  0.8997  0.4250 -2.2739
  331DG     H16 7606   5.559   4.619   0.779  2.7456  1.0045 -0.7685
  331DG     C17 7607   5.259   4.639   1.042  0.2738  0.0086  0.4973
  331DG     C18 7608   5.451   4.721   0.942 -0.3865  0.3206  0.4775
  331DG     O19 7609   5.322   4.675   0.913  0.6161 -0.1658 -0.2668
  331DG     H20 7610   5.309   4.554   1.088 -0.0281 -0.1241  0.5784
  331DG     H21 7611   5.267   4.715   1.120  0.9638 -0.9545  1.3790
  331DG     H22 7612   5.500   4.656   1.015  0.6118 -3.6083 -3.2495
  331DG     H23 7613   5.432   4.821   0.982 -1.4343  1.4616 -2.5769
  332DG      C1 7614   3.057   1.169   4.026  0.7461 -0.1630  0.1146
  332DG      C2 7615   3.471   1.245   4.507  0.0614  0.0002 -0.6383
  332DG      H3 7616   3.006   1.128   3.938 -1.1831  1.5683  0.3616
  332DG      H4 7617   3.048   1.277   4.020  2.7834  0.0678  0.5782
  332DG      H5 7618   3.005   1.121   4.109  1.3478 -1.6666 -0.3394
  332DG      H6 7619   3.415   1.336   4.527 -1.1951 -1.0167  0.6962
  332DG      H7 7620   3.414   1.183   4.576 -0.9660  1.9563  0.3449
  332DG      H8 7621   3.568   1.263   4.554 -0.2362 -1.2134  0.5092
  332DG      O9 7622   3.186   1.125   4.029 -0.6862  0.4556 -0.1396
  332DG     O10 7623   3.485   1.206   4.373 -0.2171 -0.2530  0.6079
  332DG     C11 7624   3.220   0.982   4.032  0.5121 -0.8451  0.6353
  332DG     C12 7625   3.538   1.074   4.356 -0.2319 -0.4378 -0.2552
  332DG     H13 7626   3.207   0.933   3.936  1.2098 -1.8936  1.0542
  332DG     H14 7627   3.156   0.932   4.106  0.0395  2.8723  2.9941
  332DG     H15 7628   3.482   1.001   4.415 -1.4298 -1.0434 -2.0393
  332DG     H16 7629   3.644   1.063   4.380  0.5675 -0.7085 -3.4447
  332DG     C17 7630   3.366   0.957   4.060 -0.0944 -0.2930  0.6428
  332DG     C18 7631   3.531   1.034   4.211 -0.9825 -0.2393  0.6183
  332DG     O19 7632   3.396   1.035   4.168  0.3347 -0.1297 -0.3057
  332DG     H20 7633   3.426   1.012   3.988 -0.4133 -1.8828 -0.9012
  332DG     H21 7634   3.395   0.852   4.064 -1.3765 -0.6892 -0.0259
  332DG     H22 7635   3.589   1.096   4.142  0.4442 -1.7525  0.3901
  332DG     H23 7636   3.579   0.938   4.191  1.3833  0.8740  0.6075
  333DG      C1 7637   0.177   1.907   0.761  0.3534  0.5967 -0.0847
  333DG      C2 7638   0.188   1.665   0.042 -0.3278 -0.0945  0.4115
  333DG      H3 7639   0.115   1.984   0.805 -0.7388  0.3446 -1.1333
  333DG      H4 7640   0.206   1.835   0.838 -1.1121  1.6039  1.4547
  333DG      H5 7641   0.109   1.853   0.695 -0.1215 -1.3370  1.8789
  333DG      H6 7642   0.223   1.757  -0.005  0.3995 -0.2857  0.5670
  333DG      H7 7643   0.248   1.587  -0.004  0.8029  0.3954  1.0107
  333DG      H8 7644   0.084   1.670   0.010 -0.1268  0.7139 -0.1427
  333DG      O9 7645   0.290   1.968   0.696 -0.0682  0.5119  0.4019
  333DG     O10 7646   0.206   1.680   0.179  0.1723  0.0415 -0.2601
  333DG     C11 7647   0.380   1.868   0.640  0.3000  0.5205  1.0792
  333DG     C12 7648   0.131   1.794   0.241 -0.2982  0.1932  0.2105
  333DG     H13 7649   0.436   1.808   0.711  0.1963 -0.9390 -0.0317
  333DG     H14 7650   0.460   1.913   0.581  1.5375 -0.7587  1.7329
  333DG     H15 7651   0.033   1.787   0.194  0.7813 -1.7474 -1.9560
  333DG     H16 7652   0.170   1.891   0.210  0.9306  0.1808  1.6066
  333DG     C17 7653   0.309   1.769   0.550 -0.0149  0.7966  0.1409
  333DG     C18 7654   0.117   1.780   0.396 -0.4261 -0.6625  0.1695
  333DG     O19 7655   0.237   1.841   0.454  0.1282  0.3054 -0.2138
  333DG     H20 7656   0.247   1.700   0.607 -1.6185  0.9876 -1.2692
  333DG     H21 7657   0.381   1.701   0.505 -0.2035  1.5267 -1.3320
  333DG     H22 7658   0.020   1.820   0.427 -0.8084 -0.3627 -1.2994
  333DG     H23 7659   0.128   1.675   0.420  1.8759 -0.5214 -0.0811
  334DG      C1 7660   2.896   3.237   2.015 -0.0992  0.0475 -0.0469
  334DG      C2 7661   2.701   2.882   1.483 -0.1958 -0.1686  0.0600
  334DG      H3 7662   2.870   3.297   1.928 -0.1007  0.0242 -0.0623
  334DG      H4 7663   3.000   3.205   2.020 -0.1950 -0.2299  0.1899
  334DG      H5 7664   2.875   3.290   2.109  2.1135 -0.1999  0.6302
  334DG      H6 7665   2.786   2.930   1.434 -1.3235  0.4342 -1.3830
  334DG      H7 7666   2.715   2.774   1.477 -0.1405 -0.1030 -1.2647
  334DG      H8 7667   2.613   2.901   1.423 -1.5316  0.0638  2.0098
  334DG      O9 7668   2.805   3.127   2.001 -0.0328  0.4148 -0.4004
  334DG     O10 7669   2.678   2.922   1.619  0.1280 -0.6288 -0.7143
  334DG     C11 7670   2.664   3.167   2.009 -0.7036 -0.2520 -0.0859
  334DG     C12 7671   2.553   2.875   1.675 -0.1788  0.6047 -0.2912
  334DG     H13 7672   2.646   3.252   1.942 -2.1373  0.3137  0.9733
  334DG     H14 7673   2.648   3.207   2.109  0.2914 -1.7919  0.7192
  334DG     H15 7674   2.561   2.768   1.696 -3.8442  0.1018 -0.8612
  334DG     H16 7675   2.473   2.881   1.601  0.0803 -0.4069 -0.6793
  334DG     C17 7676   2.573   3.048   1.997 -0.3505  0.0920 -0.5198
  334DG     C18 7677   2.516   2.966   1.787 -0.9359  0.5176 -0.0048
  334DG     O19 7678   2.622   2.969   1.891 -0.0582 -1.1094 -0.6263
  334DG     H20 7679   2.468   3.073   1.983 -0.5629 -1.8178 -3.1922
  334DG     H21 7680   2.575   2.984   2.085  0.4370 -1.2459 -1.4731
  334DG     H22 7681   2.508   3.063   1.739  1.8695  0.2840 -1.1804
  334DG     H23 7682   2.418   2.935   1.824 -1.2317  1.7484  0.2805
  335DG      C1 7683   5.012   3.624   3.561 -0.0468 -0.4521  0.2431
  335DG      C2 7684   4.789   2.991   3.759  0.0836  0.1170  0.3503
  335DG      H3 7685   5.068   3.710   3.597  0.3225 -1.6773  2.8204
  335DG      H4 7686   4.926   3.654   3.501 -1.5242 -2.7226  1.1101
  335DG      H5 7687   5.074   3.559   3.499  0.1974 -0.1047  0.1214
  335DG      H6 7688   4.695   2.937   3.748 -1.3222  1.7742  2.9526
  335DG      H7 7689   4.870   2.946   3.702  0.2671  1.9159 -0.8864
  335DG      H8 7690   4.824   2.985   3.862  2.4342  1.6460 -0.2676
  335DG      O9 7691   4.963   3.538   3.667 -0.5532  0.1979 -0.5612
  335DG     O10 7692   4.764   3.127   3.716 -0.0452  0.9261  0.0856
  335DG     C11 7693   4.863   3.604   3.750  0.2739 -0.0617  0.2658
  335DG     C12 7694   4.653   3.188   3.778  0.4202  0.5633 -0.2453
  335DG     H13 7695   4.852   3.709   3.725  1.1279 -0.4382 -1.8674
  335DG     H14 7696   4.894   3.600   3.855 -1.4792  1.2234  0.8739
  335DG     H15 7697   4.654   3.187   3.887  0.4304 -2.1898 -0.2196
  335DG     H16 7698   4.569   3.119   3.764  0.0076  0.8783  0.6183
  335DG     C17 7699   4.733   3.528   3.727  0.2347  0.0612 -0.0493
  335DG     C18 7700   4.627   3.323   3.718 -0.9384 -0.8061 -0.5889
  335DG     O19 7701   4.751   3.387   3.737 -0.3121  0.0967 -0.5616
  335DG     H20 7702   4.689   3.552   3.630 -0.0020 -2.5493 -0.6515
  335DG     H21 7703   4.669   3.556   3.811 -0.9933 -1.1884 -0.5457
  335DG     H22 7704   4.614   3.316   3.610  0.0470  1.3101 -0.9104
  335DG     H23 7705   4.543   3.382   3.753 -0.9329 -1.3468  0.3585
  336DG      C1 7706   0.267   0.585   0.539  0.5115 -0.3722  0.0999
  336DG      C2 7707   1.050   0.534   0.246  0.1232 -0.4390  0.6376
  336DG      H3 7708   0.199   0.574   0.623 -0.5824  0.2375 -0.6786
  336DG      H4 7709   0.220   0.555   0.445  0.2085  1.5622 -0.4158
  336DG      H5 7710   0.265   0.694   0.531 -2.2209 -0.3768 -0.2670
  336DG      H6 7711   1.002   0.457   0.186  1.7560 -1.5922  0.7433
  336DG      H7 7712   1.029   0.625   0.188  0.5610 -1.1199 -0.6388
  336DG      H8 7713   1.156   0.512   0.256  0.2014 -0.1193  0.5451
  336DG      O9 7714   0.393   0.536   0.550 -0.5552 -0.0892  0.5017
  336DG     O10 7715   1.008   0.546   0.382  0.7229 -0.0012  0.2618
  336DG     C11 7716   0.472   0.578   0.661 -0.0998  0.7335 -0.0430
  336DG     C12 7717   0.870   0.560   0.390 -0.1990 -0.3718 -0.6374
  336DG     H13 7718   0.439   0.546   0.760  1.3892  1.8026  0.8478
  336DG     H14 7719   0.488   0.686   0.668 -0.1512  0.7050  0.6369
  336DG     H15 7720   0.824   0.494   0.315 -0.2111  0.5424 -1.4513
  336DG     H16 7721   0.847   0.661   0.358  0.1505  0.0797  0.5143
  336DG     C17 7722   0.615   0.523   0.648 -0.1774 -0.1743 -0.9423
  336DG     C18 7723   0.813   0.529   0.529 -0.4732  0.0654 -0.0401
  336DG     O19 7724   0.678   0.572   0.534 -0.5043  0.0431 -0.5578
  336DG     H20 7725   0.604   0.415   0.652  0.8583 -0.2879 -0.8443
  336DG     H21 7726   0.676   0.549   0.735 -0.6163  2.8140 -1.4250
  336DG     H22 7727   0.826   0.423   0.547 -0.2849 -0.1707 -1.4677
  336DG     H23 7728   0.870   0.592   0.597 -2.0771  0.1487  1.2736
  337DG      C1 7729   3.080   1.018   4.939  0.2255  0.0285 -0.3220
  337DG      C2 7730   2.904   0.762   4.277 -0.0756  0.7172  0.4138
  337DG      H3 7731   3.141   1.099   4.900  1.0135 -0.8004 -0.8319
  337DG      H4 7732   3.155   0.944   4.968  1.8385  2.0173  0.7902
  337DG      H5 7733   3.026   1.060   5.024  0.7174  0.8539 -0.4120
  337DG      H6 7734   2.799   0.741   4.255  0.3557 -0.2817 -0.8392
  337DG      H7 7735   2.954   0.834   4.212  0.5305 -0.7428 -0.7977
  337DG      H8 7736   2.971   0.677   4.262  3.4673  2.8444  2.7527
  337DG      O9 7737   2.985   0.959   4.855 -0.7393  0.0618  0.2663
  337DG     O10 7738   2.917   0.812   4.407  0.3091  0.3190 -0.0895
  337DG     C11 7739   2.896   1.052   4.807  0.8214  0.0549 -0.2281
  337DG     C12 7740   2.857   0.728   4.503 -0.0189  0.3183  0.4994
  337DG     H13 7741   2.943   1.111   4.728  2.0574  0.3034  0.6579
  337DG     H14 7742   2.855   1.116   4.885  0.6727  1.1919 -1.2121
  337DG     H15 7743   2.925   0.643   4.507  1.1109  1.1041 -0.8784
  337DG     H16 7744   2.755   0.700   4.477  0.4244  0.4885 -1.6122
  337DG     C17 7745   2.764   0.991   4.754 -0.1369 -0.2161  0.3099
  337DG     C18 7746   2.862   0.802   4.637  0.5680  0.6365  0.0131
  337DG     O19 7747   2.788   0.926   4.627 -0.3029 -0.2310 -0.2528
  337DG     H20 7748   2.686   1.063   4.729  1.2184  0.9027 -0.8706
  337DG     H21 7749   2.723   0.918   4.823 -1.6798  0.5163  0.2096
  337DG     H22 7750   2.827   0.738   4.718  1.9427  0.1392  0.2411
  337DG     H23 7751   2.965   0.829   4.658  0.6866 -0.2083  0.5774
  338DG      C1 7752   0.566   0.745   3.340 -0.6478  0.3593  0.2735
  338DG      C2 7753   0.970   0.763   2.744 -0.6107  0.2679  0.0049
  338DG      H3 7754   0.527   0.645   3.319  0.7512 -0.5148  1.6163
  338DG      H4 7755   0.482   0.799   3.383 -1.6173 -0.3193 -0.7186
  338DG      H5 7756   0.657   0.728   3.398 -1.4729 -2.0040  0.9951
  338DG      H6 7757   1.052   0.834   2.749 -1.5579  1.3356  1.2111
  338DG      H7 7758   0.974   0.699   2.832 -1.2754  1.0148  0.5995
  338DG      H8 7759   0.984   0.705   2.653  2.3151 -1.8828  1.6626
  338DG      O9 7760   0.595   0.810   3.211  0.2191 -0.3135 -0.1535
  338DG     O10 7761   0.846   0.829   2.749  0.1976 -0.2029  0.0802
  338DG     C11 7762   0.485   0.804   3.127  0.3113 -0.0829 -0.6381
  338DG     C12 7763   0.743   0.738   2.731  0.8369 -0.0586  0.0470
  338DG     H13 7764   0.400   0.857   3.168 -0.8091 -1.9271 -0.4474
  338DG     H14 7765   0.458   0.701   3.102  0.9994  0.0290 -1.9673
  338DG     H15 7766   0.750   0.640   2.777 -0.3051 -1.1131 -1.8574
  338DG     H16 7767   0.737   0.710   2.625  2.0245 -0.5425  0.0842
  338DG     C17 7768   0.518   0.872   2.995  0.8508 -0.0376  0.2477
  338DG     C18 7769   0.616   0.809   2.789  0.0555 -0.2771  0.2338
  338DG     O19 7770   0.614   0.797   2.923  0.3002 -0.1474  0.1477
  338DG     H20 7771   0.547   0.976   3.011 -2.0913  0.5292  2.9066
  338DG     H21 7772   0.428   0.881   2.934  0.7643  0.4793  0.4446
  338DG     H22 7773   0.599   0.907   2.746  0.9436 -0.6953 -1.1400
  338DG     H23 7774   0.536   0.746   2.751 -1.8719  1.8081  0.6832
  339DG      C1 7775   2.588   2.366   4.326  0.5465  0.4781 -0.4527
  339DG      C2 7776   2.189   2.779   4.687  0.1377 -0.1516  0.3894
  339DG      H3 7777   2.630   2.266   4.326 -0.5686 -0.0383 -1.7817
  339DG      H4 7778   2.656   2.401   4.249  2.6493 -0.4683  0.8884
  339DG      H5 7779   2.491   2.350   4.277 -1.0255  0.8145  2.3174
  339DG      H6 7780   2.121   2.732   4.616  0.6433  0.0754 -0.2660
  339DG      H7 7781   2.148   2.769   4.787  1.4414 -1.2125  0.8513
  339DG      H8 7782   2.205   2.885   4.665 -2.1170  0.6254  2.1427
  339DG      O9 7783   2.573   2.430   4.452  0.0533 -0.2138 -0.3624
  339DG     O10 7784   2.302   2.695   4.703 -0.1802  0.3075  0.8084
  339DG     C11 7785   2.695   2.448   4.523 -0.0290 -1.0523 -0.1246
  339DG     C12 7786   2.406   2.752   4.777 -0.5304  0.0312 -0.2033
  339DG     H13 7787   2.767   2.512   4.473 -2.5018  0.5530 -1.9058
  339DG     H14 7788   2.752   2.356   4.534  1.0900 -0.5826 -1.6523
  339DG     H15 7789   2.391   2.786   4.880 -0.2299  0.6245 -0.3521
  339DG     H16 7790   2.451   2.835   4.723  1.0537  0.7404  2.0572
  339DG     C17 7791   2.657   2.510   4.659 -0.5159  0.3212  0.3436
  339DG     C18 7792   2.512   2.646   4.778  0.6678  0.2113 -0.7683
  339DG     O19 7793   2.550   2.604   4.652 -0.5239 -0.3008 -0.2967
  339DG     H20 7794   2.751   2.538   4.708  1.7014 -2.8726 -1.7253
  339DG     H21 7795   2.608   2.425   4.706 -1.5403  0.1981 -0.9117
  339DG     H22 7796   2.598   2.680   4.835 -0.0916  2.4030 -0.8633
  339DG     H23 7797   2.470   2.565   4.837  0.8865  0.6703  0.0317
  340DG      C1 7798   3.903   5.455   1.150  0.3453  0.0691  0.2583
  340DG      C2 7799   4.468   5.615   1.466  0.5447 -0.4633  0.1510
  340DG      H3 7800   3.812   5.502   1.114 -1.2250 -1.6342  1.8056
  340DG      H4 7801   3.886   5.348   1.162  0.5550  0.0236  0.1630
  340DG      H5 7802   3.977   5.456   1.070  0.4341 -0.0704  0.3374
  340DG      H6 7803   4.477   5.508   1.445  0.2979 -0.0530 -2.4670
  340DG      H7 7804   4.493   5.657   1.368 -0.6580 -1.0202 -0.4270
  340DG      H8 7805   4.544   5.642   1.539  0.9456  0.4516 -0.5884
  340DG      O9 7806   3.954   5.522   1.270 -0.2266  0.4975 -0.0619
  340DG     O10 7807   4.333   5.655   1.497 -0.0883  0.5504  0.1632
  340DG     C11 7808   3.882   5.489   1.388 -0.3410 -0.0925  0.0874
  340DG     C12 7809   4.290   5.612   1.623  0.3088  0.0072 -0.3778
  340DG     H13 7810   3.884   5.380   1.398 -2.3353 -0.0884  0.9088
  340DG     H14 7811   3.776   5.516   1.387 -0.2984  0.1613 -1.9784
  340DG     H15 7812   4.359   5.645   1.701  1.9416 -0.6913 -1.4527
  340DG     H16 7813   4.297   5.503   1.619  0.0631 -0.0330  0.2321
  340DG     C17 7814   3.942   5.563   1.507  0.6156 -0.3999 -0.3444
  340DG     C18 7815   4.140   5.632   1.632 -0.2471 -0.0561  0.8360
  340DG     O19 7816   4.081   5.556   1.520 -0.0436  0.2451  0.2764
  340DG     H20 7817   3.893   5.535   1.600  0.7206 -0.1031 -0.2002
  340DG     H21 7818   3.919   5.668   1.488 -0.0118 -0.4605  0.0725
  340DG     H22 7819   4.107   5.592   1.728  0.0001 -0.7382  0.6450
  340DG     H23 7820   4.132   5.740   1.642  0.8515  0.2057 -0.7442
  341DG      C1 7821   4.428   0.027   0.307 -0.0839 -0.3854 -0.2619
  341DG      C2 7822   4.865   0.407   0.559 -0.2225  0.4044  0.2844
  341DG      H3 7823   4.359  -0.050   0.343  1.3190 -1.1983  0.8181
  341DG      H4 7824   4.520  -0.021   0.273 -0.2203 -1.1877  0.4473
  341DG      H5 7825   4.390   0.088   0.225 -1.7805 -0.6069  0.3300
  341DG      H6 7826   4.895   0.507   0.591  1.0755  0.5282 -1.1997
  341DG      H7 7827   4.954   0.352   0.529 -1.7318 -2.4299  0.6244
  341DG      H8 7828   4.826   0.437   0.462 -0.5564  2.2713  0.9558
  341DG      O9 7829   4.457   0.101   0.426  0.8207  0.5838 -0.3770
  341DG     O10 7830   4.767   0.345   0.651  0.2386  0.2129  0.0604
  341DG     C11 7831   4.348   0.179   0.478 -0.3487  0.0947 -0.1821
  341DG     C12 7832   4.674   0.441   0.699 -0.4006 -0.2349  0.1682
  341DG     H13 7833   4.252   0.130   0.466 -1.3705  1.9494  0.0224
  341DG     H14 7834   4.334   0.264   0.411 -0.0124  1.3595  1.2701
  341DG     H15 7835   4.646   0.501   0.612 -1.2935 -0.7349  0.1034
  341DG     H16 7836   4.722   0.497   0.779 -0.3102  1.9490 -1.3348
  341DG     C17 7837   4.380   0.227   0.616 -0.5288  0.2993 -0.2105
  341DG     C18 7838   4.545   0.358   0.737 -0.5598  0.4766 -0.2871
  341DG     O19 7839   4.503   0.296   0.619 -0.8232 -0.6186 -0.5240
  341DG     H20 7840   4.375   0.132   0.670 -1.7689 -0.8176 -2.1438
  341DG     H21 7841   4.304   0.285   0.668 -2.3600 -0.2790 -2.0777
  341DG     H22 7842   4.558   0.285   0.817  1.4759  0.4017 -0.6231
  341DG     H23 7843   4.463   0.419   0.775 -0.0898  0.7154  0.3598
  342DG      C1 7844   2.743   3.211   0.623 -0.1367  0.0916 -0.1593
  342DG      C2 7845   3.530   3.284   0.302  0.2934  0.3256 -0.2965
  342DG      H3 7846   2.785   3.164   0.712  1.4461  1.7990  0.0683
  342DG      H4 7847   2.635   3.193   0.625  0.1287 -1.8052 -1.1050
  342DG      H5 7848   2.748   3.317   0.648  0.3931  0.2647 -0.9870
  342DG      H6 7849   3.592   3.204   0.340  0.1031  0.0531 -0.5535
  342DG      H7 7850   3.541   3.288   0.193 -0.1279  1.2207 -0.3156
  342DG      H8 7851   3.572   3.376   0.343  0.8373  0.1032 -0.3580
  342DG      O9 7852   2.790   3.168   0.496 -0.0723 -1.0558  0.1035
  342DG     O10 7853   3.397   3.253   0.340 -0.5264  0.2987  0.3631
  342DG     C11 7854   2.932   3.163   0.501  0.1412 -0.8878 -0.2761
  342DG     C12 7855   3.350   3.128   0.280 -0.2436 -0.6854 -0.4532
  342DG     H13 7856   2.961   3.067   0.544  1.4506  0.2084  1.4293
  342DG     H14 7857   2.971   3.241   0.566  0.6633 -0.8368 -0.6501
  342DG     H15 7858   3.367   3.054   0.358 -2.5154  0.5193  1.3354
  342DG     H16 7859   3.408   3.098   0.193  1.5546  0.2606  0.3610
  342DG     C17 7860   2.993   3.169   0.362  0.6579  0.2238 -0.6502
  342DG     C18 7861   3.200   3.133   0.256 -0.1241 -0.1698 -0.4066
  342DG     O19 7862   3.134   3.180   0.376 -0.2868  0.3406 -0.0543
  342DG     H20 7863   2.941   3.245   0.304 -2.4239 -2.0827 -1.1464
  342DG     H21 7864   2.951   3.079   0.318  1.1200 -0.8005  0.9042
  342DG     H22 7865   3.182   3.190   0.165  0.9015  1.0603  0.1318
  342DG     H23 7866   3.167   3.029   0.255 -2.2834  0.4680 -0.5104
  343DG      C1 7867   3.459   3.110   2.805  0.2388  0.1819  0.6146
  343DG      C2 7868   3.279   3.337   2.188  0.7066 -0.3877  0.9100
  343DG      H3 7869   3.394   3.084   2.721  2.7442 -0.7079 -1.1831
  343DG      H4 7870   3.444   3.211   2.844 -0.9717 -0.1322  0.9879
  343DG      H5 7871   3.440   3.042   2.888  1.3833  0.4597  1.1233
  343DG      H6 7872   3.353   3.416   2.195  1.3970 -0.7160 -1.6221
  343DG      H7 7873   3.247   3.337   2.084  0.9671  2.8483  0.7306
  343DG      H8 7874   3.200   3.358   2.259 -0.6290 -0.4300 -0.5209
  343DG      O9 7875   3.591   3.100   2.757 -0.0729 -0.2487  0.3372
  343DG     O10 7876   3.339   3.212   2.216  0.3456  0.3516  0.1831
  343DG     C11 7877   3.627   2.976   2.694  0.3487  0.4363  0.2570
  343DG     C12 7878   3.419   3.212   2.334  0.4163 -0.1618 -0.1061
  343DG     H13 7879   3.601   2.893   2.760 -0.8862  0.8595  0.3341
  343DG     H14 7880   3.735   2.966   2.689  0.3089  0.1810 -0.1738
  343DG     H15 7881   3.372   3.270   2.414  1.4186 -0.8688  1.0432
  343DG     H16 7882   3.505   3.275   2.310  1.9219 -1.2007  2.1762
  343DG     C17 7883   3.557   2.958   2.553  0.3238 -0.8085  0.5720
  343DG     C18 7884   3.461   3.073   2.375 -0.6677  0.3627  0.2329
  343DG     O19 7885   3.551   3.084   2.484  0.4502  0.1897 -0.3383
  343DG     H20 7886   3.462   2.905   2.564 -1.4974  1.9759 -0.5721
  343DG     H21 7887   3.620   2.891   2.494  2.8380  1.2359  0.7838
  343DG     H22 7888   3.370   3.014   2.387  0.7880 -2.0231  0.1361
  343DG     H23 7889   3.506   3.022   2.290  1.3171 -0.6849  1.8154
  344DG      C1 7890   1.502   1.704   5.275  0.3068 -0.1579  0.9316
  344DG      C2 7891   1.712   1.784   4.483  0.5234 -0.4344 -0.4834
  344DG      H3 7892   1.496   1.609   5.222  2.9735 -0.4419  0.9848
  344DG      H4 7893   1.399   1.727   5.302  0.2448  2.5022 -1.1444
  344DG      H5 7894   1.551   1.700   5.372  0.9773  0.4998  0.6361
  344DG      H6 7895   1.740   1.871   4.423 -1.6634 -0.4280 -1.5824
  344DG      H7 7896   1.782   1.704   4.459 -1.3045 -2.1848 -0.2013
  344DG      H8 7897   1.615   1.770   4.436 -0.3323  1.5062  0.5671
  344DG      O9 7898   1.530   1.817   5.192 -0.0776  0.6182 -0.2226
  344DG     O10 7899   1.701   1.821   4.618  1.0293 -0.8207  0.2873
  344DG     C11 7900   1.495   1.806   5.057  0.4218 -0.4158 -0.1720
  344DG     C12 7901   1.633   1.946   4.631 -0.0850 -0.6786  1.1539
  344DG     H13 7902   1.391   1.773   5.051  0.4412 -0.3700 -0.9047
  344DG     H14 7903   1.547   1.719   5.018 -0.4419 -2.0501  2.0949
  344DG     H15 7904   1.532   1.926   4.595  0.3922 -2.8333  0.9002
  344DG     H16 7905   1.666   2.031   4.571  0.5939 -1.8598 -0.2168
  344DG     C17 7906   1.525   1.934   4.981  0.2290 -0.7476 -0.3481
  344DG     C18 7907   1.611   1.990   4.773 -1.0563  0.3890  0.0816
  344DG     O19 7908   1.546   1.889   4.847 -0.2785 -0.8183  0.1455
  344DG     H20 7909   1.611   1.981   5.030 -1.2322  3.1423 -1.1708
  344DG     H21 7910   1.450   2.012   4.979  1.4896  0.5625 -4.0462
  344DG     H22 7911   1.707   2.016   4.818 -0.6171  1.4952 -1.4366
  344DG     H23 7912   1.542   2.074   4.771 -2.8489 -0.9695  1.4479
  345DG      C1 7913   2.605   3.915   4.121  0.0324 -0.8740 -0.0536
  345DG      C2 7914   2.221   3.132   4.255  0.4387  0.2079  0.1819
  345DG      H3 7915   2.564   4.012   4.149  1.3435 -0.3870  0.2071
  345DG      H4 7916   2.627   3.911   4.014  0.9497 -0.0963  0.0969
  345DG      H5 7917   2.701   3.898   4.168  0.8990  0.2688 -1.3337
  345DG      H6 7918   2.177   3.064   4.328  0.6114 -0.1405 -0.0350
  345DG      H7 7919   2.187   3.098   4.158 -0.1529  0.9312  0.1336
  345DG      H8 7920   2.329   3.112   4.254 -0.0397 -3.3847  2.2620
  345DG      O9 7921   2.512   3.812   4.157 -0.5882  0.1858 -0.1862
  345DG     O10 7922   2.184   3.270   4.281 -0.5289  0.1421  0.8125
  345DG     C11 7923   2.402   3.801   4.070 -0.5369 -0.6092 -0.4309
  345DG     C12 7924   2.241   3.346   4.174 -0.2927 -0.3079 -1.0053
  345DG     H13 7925   2.434   3.764   3.972 -1.1033  2.3679 -1.8700
  345DG     H14 7926   2.367   3.903   4.054  2.6659  0.4494 -1.4369
  345DG     H15 7927   2.199   3.328   4.075  0.2898  0.4422 -1.4038
  345DG     H16 7928   2.349   3.327   4.170 -0.0282  0.8703 -0.0101
  345DG     C17 7929   2.292   3.722   4.133  0.6455  0.0143  0.0210
  345DG     C18 7930   2.230   3.493   4.202  0.3114 -0.6545 -0.5519
  345DG     O19 7931   2.317   3.584   4.125  0.3423 -0.4910 -0.2811
  345DG     H20 7932   2.194   3.735   4.087  0.2718 -1.7390  0.2565
  345DG     H21 7933   2.289   3.751   4.238 -0.6305  1.9925 -0.5154
  345DG     H22 7934   2.126   3.525   4.188 -0.7054 -3.5372 -0.1192
  345DG     H23 7935   2.244   3.509   4.309 -0.3993 -1.5193 -0.3251
  346DG      C1 7936   2.558   0.576   2.680 -0.4008  0.4058  0.4888
  346DG      C2 7937   1.956   0.091   2.496 -0.1284 -0.3192 -0.1273
  346DG      H3 7938   2.664   0.561   2.655 -0.4684  1.0283 -0.1889
  346DG      H4 7939   2.556   0.612   2.783 -0.3453  1.0267  0.2709
  346DG      H5 7940   2.520   0.649   2.609 -0.0302  0.1079 -0.0255
  346DG      H6 7941   1.925   0.133   2.400 -0.7929  0.0368  0.2353
  346DG      H7 7942   1.939  -0.016   2.483  0.1238 -0.4311  0.4615
  346DG      H8 7943   1.886   0.139   2.564 -1.3706 -1.9604 -0.1808
  346DG      O9 7944   2.488   0.452   2.672 -0.1083  0.1917 -0.4532
  346DG     O10 7945   2.088   0.131   2.512 -0.1448 -0.1787  0.5952
  346DG     C11 7946   2.345   0.469   2.678  0.2597  0.8289 -0.3205
  346DG     C12 7947   2.153   0.077   2.622 -0.4026 -0.3238 -0.5126
  346DG     H13 7948   2.297   0.512   2.591 -0.7990 -0.0974 -0.2128
  346DG     H14 7949   2.316   0.521   2.770  1.2317  2.6171 -0.9721
  346DG     H15 7950   2.140  -0.031   2.629 -1.0966 -0.2661 -0.8788
  346DG     H16 7951   2.115   0.122   2.714 -1.7478  0.4354 -1.3938
  346DG     C17 7952   2.285   0.325   2.692  0.1446 -0.1847  0.2147
  346DG     C18 7953   2.309   0.102   2.619  0.2565 -0.6587 -0.2676
  346DG     O19 7954   2.332   0.236   2.589 -0.7240 -0.1941  0.0120
  346DG     H20 7955   2.176   0.335   2.685  0.2310 -0.1093 -1.3613
  346DG     H21 7956   2.322   0.283   2.786 -0.4002  0.3565  0.6892
  346DG     H22 7957   2.358   0.087   2.716 -0.7188  0.3539  0.4132
  346DG     H23 7958   2.355   0.034   2.547 -0.7475 -1.4056 -0.2210
  347DG      C1 7959   5.143   1.145   2.516  0.5565 -0.0016  0.5131
  347DG      C2 7960   5.631   0.693   3.191  0.6221 -0.0810  0.2218
  347DG      H3 7961   5.048   1.148   2.569 -0.9044  1.7188 -2.0234
  347DG      H4 7962   5.148   1.046   2.470  0.7607 -0.1587  0.8663
  347DG      H5 7963   5.137   1.230   2.448  0.4517 -0.8775 -0.5912
  347DG      H6 7964   5.603   0.604   3.135 -1.4968  0.9471 -0.4747
  347DG      H7 7965   5.735   0.702   3.222  0.7098  0.7144 -0.2682
  347DG      H8 7966   5.568   0.699   3.280 -0.4729 -0.4616 -0.5010
  347DG      O9 7967   5.250   1.161   2.608  0.4273  0.0160  0.0044
  347DG     O10 7968   5.611   0.814   3.118  0.2031 -0.6374 -0.5016
  347DG     C11 7969   5.238   1.063   2.707 -0.3874  0.2754  0.1411
  347DG     C12 7970   5.492   0.827   3.042  0.3674  0.0878 -0.3588
  347DG     H13 7971   5.221   0.967   2.660  0.5439  0.9021 -1.5782
  347DG     H14 7972   5.160   1.075   2.782 -0.9490  0.2499 -0.4332
  347DG     H15 7973   5.416   0.841   3.119  0.8083 -1.5360  0.4079
  347DG     H16 7974   5.473   0.736   2.987 -0.3240 -0.6066  0.9894
  347DG     C17 7975   5.374   1.054   2.782 -0.5909 -0.6069 -0.0876
  347DG     C18 7976   5.494   0.951   2.947 -0.4945  0.2924  0.2151
  347DG     O19 7977   5.365   0.962   2.886 -0.8766  0.0077  0.0064
  347DG     H20 7978   5.400   1.150   2.826 -0.9626  0.0811 -1.3282
  347DG     H21 7979   5.451   1.013   2.717 -0.2239 -0.2748  0.1333
  347DG     H22 7980   5.516   1.048   2.993 -1.3087  0.2183  0.7934
  347DG     H23 7981   5.570   0.927   2.874 -1.3100  0.4634 -0.7074
  348DG      C1 7982   3.984   4.018   4.477  0.1291  0.6302 -0.0983
  348DG      C2 7983   4.272   3.648   4.886  0.3724 -0.0150 -0.5774
  348DG      H3 7984   3.948   4.043   4.377 -0.3608  2.5857  0.5188
  348DG      H4 7985   4.092   4.006   4.478 -0.0106 -0.8101 -0.5165
  348DG      H5 7986   3.958   4.110   4.530 -2.2184  0.2601 -0.4903
  348DG      H6 7987   4.211   3.688   4.967  0.5282 -0.3354 -0.3023
  348DG      H7 7988   4.337   3.571   4.926  0.4851  0.2530 -0.2345
  348DG      H8 7989   4.347   3.722   4.857  1.0325 -1.3043 -2.2674
  348DG      O9 7990   3.915   3.909   4.545  0.1471  0.0902 -0.1787
  348DG     O10 7991   4.196   3.601   4.772 -0.5385  0.2534 -0.0067
  348DG     C11 7992   3.883   3.802   4.454  0.2480  0.6635 -0.3865
  348DG     C12 7993   4.273   3.608   4.653  0.3498  0.3394 -0.7656
  348DG     H13 7994   3.835   3.847   4.367 -0.2709  0.9559  0.0403
  348DG     H14 7995   3.816   3.732   4.503  2.2220 -0.7357  0.4478
  348DG     H15 7996   4.352   3.533   4.654 -1.4514 -1.6655 -0.8518
  348DG     H16 7997   4.318   3.707   4.646  0.9092  0.3311  1.6881
  348DG     C17 7998   3.999   3.715   4.411 -0.3381  0.2638 -0.8997
  348DG     C18 7999   4.174   3.595   4.525  0.1635 -0.1352 -0.0353
  348DG     O19 8000   4.068   3.687   4.535 -0.9653 -0.4609 -0.0232
  348DG     H20 8001   4.070   3.769   4.347 -0.9632  2.3563  0.0640
  348DG     H21 8002   3.970   3.627   4.354  0.9390 -0.4473 -0.4960
  348DG     H22 8003   4.225   3.596   4.429 -1.5652  1.8809 -1.0026
  348DG     H23 8004   4.135   3.493   4.533  0.0657 -0.0430  0.7676
  349DG      C1 8005   0.307   1.371   0.504 -0.0565 -0.1032 -0.1812
  349DG      C2 8006   0.548   1.389  -0.124  0.5210 -0.3363 -0.2728
  349DG      H3 8007   0.400   1.426   0.521 -0.4251  0.7986 -0.9902
  349DG      H4 8008   0.288   1.298   0.583  0.9459 -0.0864  0.0897
  349DG      H5 8009   0.221   1.437   0.494  0.7235  0.8701 -0.6626
  349DG      H6 8010   0.620   1.453  -0.073 -0.4396 -1.1428  2.2651
  349DG      H7 8011   0.584   1.351  -0.220  1.4859  0.1389 -0.1076
  349DG      H8 8012   0.469   1.457  -0.157  0.2751 -0.9830 -1.0598
  349DG      O9 8013   0.312   1.300   0.381 -0.3645  0.2142  0.4967
  349DG     O10 8014   0.505   1.287  -0.035  0.1339 -0.6418 -0.5529
  349DG     C11 8015   0.195   1.241   0.325  0.0439 -0.2914  0.2433
  349DG     C12 8016   0.409   1.198  -0.101  0.5964  0.5887  0.8222
  349DG     H13 8017   0.096   1.252   0.370 -2.0108  0.5631 -3.9654
  349DG     H14 8018   0.218   1.134   0.316 -0.1246 -0.2187 -1.5839
  349DG     H15 8019   0.443   1.095  -0.088  2.0105  0.9306  0.0692
  349DG     H16 8020   0.391   1.215  -0.207 -0.7836  2.0575  1.2591
  349DG     C17 8021   0.173   1.268   0.177 -0.4647 -1.0561 -0.5867
  349DG     C18 8022   0.279   1.219  -0.027 -0.3638  0.6199 -0.0618
  349DG     O19 8023   0.298   1.236   0.112  0.1325  0.5171  0.0893
  349DG     H20 8024   0.155   1.374   0.164  1.9726 -0.3822  0.7891
  349DG     H21 8025   0.091   1.208   0.139 -0.1307 -1.0600 -1.3063
  349DG     H22 8026   0.223   1.305  -0.063  0.8358  0.5477 -2.2345
  349DG     H23 8027   0.215   1.138  -0.063  0.3067  0.5737 -1.1810
  350DG      C1 8028   2.494   1.650   2.471 -0.1143 -0.6086 -0.5745
  350DG      C2 8029   2.093   2.257   2.484 -0.0664  0.0634 -0.1525
  350DG      H3 8030   2.567   1.663   2.551  0.4040 -0.7385 -1.0169
  350DG      H4 8031   2.524   1.586   2.389 -0.1346 -1.2239 -0.1087
  350DG      H5 8032   2.415   1.596   2.522  0.0564 -0.2344  0.0997
  350DG      H6 8033   2.063   2.361   2.495  0.5898  0.0380  2.4977
  350DG      H7 8034   2.095   2.236   2.377  3.4963 -1.1127  0.0097
  350DG      H8 8035   2.028   2.186   2.534 -0.3315 -1.9205 -3.0524
  350DG      O9 8036   2.437   1.777   2.429  0.2721  0.2639  0.0130
  350DG     O10 8037   2.224   2.232   2.529 -0.2315 -0.0258  0.0111
  350DG     C11 8038   2.522   1.851   2.345  0.2672 -0.4440 -0.0369
  350DG     C12 8039   2.320   2.286   2.442  0.1756  0.2212  1.0501
  350DG     H13 8040   2.539   1.781   2.263 -0.5591 -0.6576 -0.0283
  350DG     H14 8041   2.618   1.876   2.390  0.1120 -0.9818  0.6137
  350DG     H15 8042   2.416   2.291   2.494 -0.5064 -0.7822  2.4807
  350DG     H16 8043   2.293   2.387   2.413  0.4380  0.1645  0.5982
  350DG     C17 8044   2.446   1.970   2.294 -0.0294  0.5047  0.9669
  350DG     C18 8045   2.342   2.183   2.330 -0.0113 -0.1417 -0.0169
  350DG     O19 8046   2.403   2.062   2.385  0.4417 -0.1695 -0.1814
  350DG     H20 8047   2.358   1.933   2.241  1.1689 -0.7832 -0.1697
  350DG     H21 8048   2.511   2.008   2.216  0.5364 -1.0166  0.6483
  350DG     H22 8049   2.257   2.158   2.267  1.2389 -0.5668 -1.6090
  350DG     H23 8050   2.415   2.228   2.263  0.1031 -1.5625 -0.8873
  351DG      C1 8051   1.628   3.657   3.571 -0.4007 -0.0788  0.6522
  351DG      C2 8052   1.660   3.291   4.168 -0.2764 -0.2703  0.2530
  351DG      H3 8053   1.538   3.596   3.573 -0.3331 -0.2500 -0.6852
  351DG      H4 8054   1.683   3.625   3.482 -0.8108  1.4758 -0.1961
  351DG      H5 8055   1.598   3.760   3.550 -1.4564 -0.1606  1.6785
  351DG      H6 8056   1.679   3.184   4.153 -1.5684 -0.2627 -1.8442
  351DG      H7 8057   1.707   3.298   4.266  1.9979  0.7680 -0.8444
  351DG      H8 8058   1.555   3.317   4.177 -0.2396 -0.2009  0.5023
  351DG      O9 8059   1.695   3.647   3.697 -0.7108 -0.3806  0.5285
  351DG     O10 8060   1.736   3.370   4.069 -0.4719 -0.0669 -0.2549
  351DG     C11 8061   1.834   3.673   3.692  0.0065  0.4262  0.6307
  351DG     C12 8062   1.878   3.352   4.053 -0.3281 -0.4084 -0.4567
  351DG     H13 8063   1.847   3.777   3.664  0.0000  0.2192 -0.1696
  351DG     H14 8064   1.873   3.605   3.616 -0.0118 -0.2579  1.2175
  351DG     H15 8065   1.918   3.268   3.997 -0.1611 -0.0086 -0.9417
  351DG     H16 8066   1.926   3.340   4.151 -1.3699  2.1428  0.4430
  351DG     C17 8067   1.911   3.639   3.816 -0.1719 -0.2398 -0.0010
  351DG     C18 8068   1.938   3.481   3.991  0.2960  0.4406 -0.0234
  351DG     O19 8069   1.872   3.514   3.872  0.1098  0.3773  0.2895
  351DG     H20 8070   1.890   3.722   3.884  2.1017 -0.3238  0.8993
  351DG     H21 8071   2.019   3.646   3.804 -0.3244  0.8136 -0.8894
  351DG     H22 8072   1.926   3.570   4.053  0.7866  0.6035 -0.1631
  351DG     H23 8073   2.044   3.470   3.970 -0.2141 -0.9162 -2.2377
  352DG      C1 8074   2.656   1.318   4.518 -0.4954  0.5056  0.2124
  352DG      C2 8075   2.361   1.431   3.902 -0.1418 -0.3697 -0.6127
  352DG      H3 8076   2.595   1.364   4.595  0.7018  2.7472 -0.1069
  352DG      H4 8077   2.747   1.275   4.560 -1.3532 -0.9145  0.6955
  352DG      H5 8078   2.596   1.232   4.484 -2.0601  1.4540  0.4721
  352DG      H6 8079   2.335   1.326   3.891 -2.0053  0.0502 -0.6292
  352DG      H7 8080   2.266   1.484   3.909  0.7464  1.3909 -1.2938
  352DG      H8 8081   2.413   1.461   3.811  0.3992 -1.6432 -0.7381
  352DG      O9 8082   2.667   1.401   4.401  0.4871 -0.0893 -0.1885
  352DG     O10 8083   2.461   1.458   4.004 -0.0995 -0.4205  0.1867
  352DG     C11 8084   2.727   1.529   4.427  0.1266  0.2816 -0.5537
  352DG     C12 8085   2.483   1.601   4.018  0.3182  0.4981 -0.5900
  352DG     H13 8086   2.816   1.513   4.487 -0.5762 -1.6622  0.0627
  352DG     H14 8087   2.661   1.578   4.498  1.8030  0.2333  1.1060
  352DG     H15 8088   2.386   1.625   4.062  0.6461 -1.6524  1.5134
  352DG     H16 8089   2.487   1.644   3.918  0.6348  0.6675 -0.5051
  352DG     C17 8090   2.729   1.598   4.295 -0.2503  0.1204  0.3553
  352DG     C18 8091   2.606   1.646   4.104 -0.1761  0.1054  0.2805
  352DG     O19 8092   2.612   1.567   4.223  0.2550 -0.5436  0.0652
  352DG     H20 8093   2.815   1.549   4.248  0.1308  0.5992  0.5440
  352DG     H21 8094   2.745   1.706   4.302 -0.9132  0.6493 -3.7119
  352DG     H22 8095   2.698   1.623   4.051 -0.1337 -1.2781  0.9165
  352DG     H23 8096   2.600   1.754   4.123 -0.2423  0.5076 -1.7392
  353DG      C1 8097   4.223   5.301   1.396  0.2539 -0.3551  0.5917
  353DG      C2 8098   4.403   5.969   1.327  0.4455 -0.4148  0.1972
  353DG      H3 8099   4.151   5.336   1.471  0.0145 -0.6375  0.4927
  353DG      H4 8100   4.318   5.284   1.446  0.2579  0.1459  0.7668
  353DG      H5 8101   4.189   5.204   1.362  0.1166 -0.6904  1.6467
  353DG      H6 8102   4.500   5.930   1.355  0.0493 -1.1774  0.5478
  353DG      H7 8103   4.420   6.057   1.265  0.6532 -1.2707 -1.0040
  353DG      H8 8104   4.351   5.999   1.418 -1.0614 -3.2872  0.4281
  353DG      O9 8105   4.247   5.393   1.295  0.1044 -0.5002 -0.3447
  353DG     O10 8106   4.327   5.866   1.256 -0.3141  0.0116  0.0558
  353DG     C11 8107   4.331   5.351   1.191 -0.4832 -0.2536  0.2533
  353DG     C12 8108   4.407   5.825   1.137  0.1804 -0.5290  0.4123
  353DG     H13 8109   4.304   5.259   1.140  0.9422  0.2424 -1.4831
  353DG     H14 8110   4.426   5.352   1.244 -1.4291  1.6623  2.0604
  353DG     H15 8111   4.515   5.834   1.148  0.5214 -0.7625 -2.1156
  353DG     H16 8112   4.373   5.908   1.074 -1.5118  0.7747  2.8651
  353DG     C17 8113   4.348   5.455   1.080 -0.1756 -0.0645 -0.4370
  353DG     C18 8114   4.372   5.690   1.062  0.0594 -0.0868  0.5777
  353DG     O19 8115   4.372   5.580   1.146 -0.0367  0.3158  0.6572
  353DG     H20 8116   4.263   5.451   1.013 -0.3983 -0.7190 -0.1252
  353DG     H21 8117   4.436   5.428   1.023 -0.3085  0.0768 -0.7088
  353DG     H22 8118   4.287   5.713   0.998 -0.9046  1.8703  2.4385
  353DG     H23 8119   4.454   5.678   0.991 -1.4969  0.7865 -1.4910
  354DG      C1 8120   1.211   5.010   5.218  0.1479  0.0213 -0.0985
  354DG      C2 8121   0.805   4.421   4.953  0.3254 -0.4378 -0.6791
  354DG      H3 8122   1.213   5.119   5.219  0.3335  0.1123  3.7620
  354DG      H4 8123   1.317   4.986   5.227  0.3826  1.0991  0.0251
  354DG      H5 8124   1.162   4.991   5.313  1.2832  1.5034  0.8327
  354DG      H6 8125   0.802   4.331   4.891  0.9475 -0.3549 -0.8371
  354DG      H7 8126   0.736   4.428   5.037  0.8366  0.8219 -0.3365
  354DG      H8 8127   0.795   4.513   4.896  0.4730  0.0921  0.1281
  354DG      O9 8128   1.149   4.951   5.102  0.5244  0.7552 -0.4014
  354DG     O10 8129   0.931   4.422   5.020  0.0310 -0.0740 -0.2970
  354DG     C11 8130   1.167   4.807   5.099 -0.5811  0.1095 -0.1572
  354DG     C12 8131   1.036   4.403   4.927 -0.5585 -0.6133 -0.7691
  354DG     H13 8132   1.106   4.745   5.165 -1.9152  0.8289 -0.6940
  354DG     H14 8133   1.270   4.792   5.133 -0.0086 -2.7292 -2.7037
  354DG     H15 8134   1.022   4.324   4.854  2.0504  0.2967 -2.3500
  354DG     H16 8135   1.115   4.360   4.989 -0.5003 -0.8888 -1.0345
  354DG     C17 8136   1.146   4.755   4.963  0.4652  0.0649 -0.7584
  354DG     C18 8137   1.087   4.539   4.866  0.2198 -0.2819 -0.1287
  354DG     O19 8138   1.169   4.613   4.963  0.5152  0.1544 -0.8007
  354DG     H20 8139   1.223   4.800   4.900  3.4067 -1.1835  1.6858
  354DG     H21 8140   1.045   4.782   4.931 -0.8839 -2.3651  1.0753
  354DG     H22 8141   1.144   4.503   4.781  1.1069 -0.3428  0.4803
  354DG     H23 8142   0.996   4.588   4.832  0.8390  0.3143 -0.9748
  355DG      C1 8143   1.274   3.835   2.588 -0.3104 -0.1740 -0.4725
  355DG      C2 8144   1.647   3.460   2.720  0.2744 -0.0138  0.1410
  355DG      H3 8145   1.308   3.876   2.684  3.4026 -0.1925 -1.6350
  355DG      H4 8146   1.239   3.922   2.533  2.2164  0.7986 -0.6767
  355DG      H5 8147   1.371   3.796   2.557 -0.5826 -1.3932  0.1700
  355DG      H6 8148   1.708   3.516   2.649  1.9116 -1.7844  0.0543
  355DG      H7 8149   1.648   3.520   2.810 -1.5105  0.8273 -0.3522
  355DG      H8 8150   1.700   3.369   2.748  2.4647  0.6332 -1.6061
  355DG      O9 8151   1.177   3.736   2.597  0.2104 -0.0369  0.1651
  355DG     O10 8152   1.515   3.428   2.673  0.2588  0.5916 -0.7694
  355DG     C11 8153   1.146   3.669   2.474 -0.1799  0.7764  0.0474
  355DG     C12 8154   1.510   3.361   2.549 -0.6428  0.0713 -0.1464
  355DG     H13 8155   1.195   3.702   2.382 -1.6214 -1.7748 -1.7540
  355DG     H14 8156   1.038   3.670   2.462 -0.2884 -2.0819  0.0377
  355DG     H15 8157   1.546   3.261   2.571  1.7484  0.9232  0.0373
  355DG     H16 8158   1.574   3.419   2.482 -0.8517 -0.9200 -1.2420
  355DG     C17 8159   1.178   3.515   2.488 -0.7920  0.0276  0.4433
  355DG     C18 8160   1.365   3.369   2.486  0.2371 -1.1576  0.0035
  355DG     O19 8161   1.318   3.504   2.502 -0.1230 -0.6040 -0.0731
  355DG     H20 8162   1.151   3.471   2.392 -1.9158 -0.0189  0.7676
  355DG     H21 8163   1.113   3.465   2.559 -0.6354  1.1368  1.4093
  355DG     H22 8164   1.367   3.322   2.388 -2.7132 -4.0476  1.1536
  355DG     H23 8165   1.305   3.291   2.532 -1.5421  0.5021  0.6421
  356DG      C1 8166   2.159   3.367   1.283  0.0455 -1.0215  0.4732
  356DG      C2 8167   2.272   3.516   1.704  0.7052  0.2997 -0.1109
  356DG      H3 8168   2.171   3.376   1.175 -0.2138 -0.8463  0.4587
  356DG      H4 8169   2.175   3.461   1.334  0.0713 -1.1881  0.7725
  356DG      H5 8170   2.052   3.360   1.301 -0.1735  2.2669  0.9984
  356DG      H6 8171   2.207   3.477   1.782 -0.0081  1.5134 -0.0689
  356DG      H7 8172   2.226   3.615   1.696  0.9304  0.5108  1.0818
  356DG      H8 8173   2.268   3.468   1.606 -1.0685 -0.8053  0.4637
  356DG      O9 8174   2.238   3.257   1.332  0.3130  0.1478 -0.5335
  356DG     O10 8175   2.403   3.524   1.759  0.2756  0.3343 -0.6944
  356DG     C11 8176   2.370   3.264   1.295  0.6475 -0.3056  0.2985
  356DG     C12 8177   2.508   3.553   1.662  0.8456  0.2445 -0.1192
  356DG     H13 8178   2.386   3.356   1.238 -1.4514 -0.6878 -1.0212
  356DG     H14 8179   2.380   3.180   1.227 -2.5049 -1.7725  1.4818
  356DG     H15 8180   2.592   3.580   1.726  1.3324 -1.3814 -0.0176
  356DG     H16 8181   2.489   3.636   1.594  1.8916  1.2099  0.7272
  356DG     C17 8182   2.470   3.278   1.413 -0.1905 -0.5160  0.0174
  356DG     C18 8183   2.543   3.424   1.592 -0.1224 -0.1281  0.1790
  356DG     O19 8184   2.462   3.406   1.478 -0.0826 -0.0111 -0.5591
  356DG     H20 8185   2.568   3.268   1.367  0.8933  3.4598  1.0630
  356DG     H21 8186   2.455   3.201   1.488 -0.7897  0.5675  1.0578
  356DG     H22 8187   2.647   3.439   1.564 -0.5421  1.7437 -0.5233
  356DG     H23 8188   2.549   3.341   1.662  0.3391  0.5362  0.9396
  357DG      C1 8189   2.683   3.858   4.786  0.3475  0.6004  0.2291
  357DG      C2 8190   2.551   3.214   4.702 -0.1348  0.1230  0.4674
  357DG      H3 8191   2.773   3.802   4.812  0.9636  1.9270  1.0509
  357DG      H4 8192   2.610   3.871   4.867  0.7553 -0.8532  0.8596
  357DG      H5 8193   2.710   3.959   4.755  1.0952  0.0280 -1.0537
  357DG      H6 8194   2.568   3.243   4.805  1.1438 -2.3992  1.0581
  357DG      H7 8195   2.449   3.175   4.695 -0.1465  0.0810  0.8583
  357DG      H8 8196   2.627   3.142   4.671  0.5723 -0.2441  2.8435
  357DG      O9 8197   2.614   3.783   4.691  0.0742 -0.5057  0.1203
  357DG     O10 8198   2.586   3.329   4.635  0.2504 -0.2530  0.3797
  357DG     C11 8199   2.685   3.771   4.571 -0.4385 -0.1787 -0.0199
  357DG     C12 8200   2.567   3.323   4.493  0.1415 -0.2654 -0.2427
  357DG     H13 8201   2.777   3.713   4.584 -0.7786 -1.6092 -3.0738
  357DG     H14 8202   2.696   3.867   4.520 -2.2498  0.1438  0.1201
  357DG     H15 8203   2.496   3.248   4.457  0.8178 -0.1271 -1.9651
  357DG     H16 8204   2.669   3.302   4.460  1.3339  2.6592  1.1866
  357DG     C17 8205   2.602   3.687   4.466  0.3602  0.7045 -0.0922
  357DG     C18 8206   2.523   3.460   4.437  0.0127  0.1092  0.0413
  357DG     O19 8207   2.614   3.547   4.501  0.1786 -0.2301  0.4394
  357DG     H20 8208   2.649   3.690   4.368 -0.3868 -1.0886 -0.5518
  357DG     H21 8209   2.500   3.725   4.453 -0.2591 -1.0104 -0.4978
  357DG     H22 8210   2.554   3.462   4.332 -0.0393 -1.9956 -0.0569
  357DG     H23 8211   2.420   3.494   4.442  0.0782  0.4800 -0.8525
  358DG      C1 8212   3.421   2.805   1.785  0.1122 -0.7748 -0.3061
  358DG      C2 8213   3.450   3.347   1.837  0.5996  0.0978 -0.2393
  358DG      H3 8214   3.414   2.719   1.719 -0.3325 -0.6997 -0.3573
  358DG      H4 8215   3.331   2.811   1.847  0.8047 -0.0324  0.6760
  358DG      H5 8216   3.509   2.790   1.848  1.0460  1.4692 -0.9511
  358DG      H6 8217   3.422   3.437   1.783 -0.1511  0.6279  0.9972
  358DG      H7 8218   3.415   3.254   1.793 -0.1038  0.2262  0.0356
  358DG      H8 8219   3.399   3.352   1.934 -0.6509  0.1789 -0.8883
  358DG      O9 8220   3.437   2.927   1.715  0.2960  0.7308  0.3269
  358DG     O10 8221   3.595   3.348   1.854 -0.2459 -0.0835  0.5426
  358DG     C11 8222   3.532   2.912   1.601 -0.5799  0.5454 -0.4054
  358DG     C12 8223   3.683   3.353   1.732  0.1641  0.6311  0.9954
  358DG     H13 8224   3.496   2.847   1.521  0.8503  1.3347 -1.7644
  358DG     H14 8225   3.625   2.871   1.639  0.2728  1.1820 -1.7181
  358DG     H15 8226   3.782   3.326   1.770 -0.1496 -3.4218 -0.4896
  358DG     H16 8227   3.684   3.458   1.703 -0.1931  0.9199  1.9887
  358DG     C17 8228   3.566   3.047   1.543 -0.0806  0.5807 -0.8173
  358DG     C18 8229   3.633   3.265   1.615 -0.4283 -0.0630  0.3531
  358DG     O19 8230   3.624   3.126   1.651  0.6313 -0.1385  0.4376
  358DG     H20 8231   3.472   3.088   1.506 -0.3107  0.5351 -0.3041
  358DG     H21 8232   3.637   3.037   1.461 -1.1703  0.8710 -1.8133
  358DG     H22 8233   3.541   3.301   1.569 -0.9464  0.5727  1.8450
  358DG     H23 8234   3.706   3.275   1.534 -2.4383 -0.3389 -1.5744
  359DG      C1 8235   4.139   3.880   0.490  0.6744  0.0554 -1.0220
  359DG      C2 8236   4.211   4.334  -0.248  0.0459 -0.1691  0.1309
  359DG      H3 8237   4.125   3.961   0.562  2.3226  0.0918 -0.6968
  359DG      H4 8238   4.233   3.827   0.507 -0.2537 -1.3561 -0.0807
  359DG      H5 8239   4.067   3.802   0.516 -1.4444  1.2300 -2.9924
  359DG      H6 8240   4.313   4.370  -0.238 -0.3984  1.5799 -1.1121
  359DG      H7 8241   4.181   4.357  -0.351  0.6216  1.8972  0.3915
  359DG      H8 8242   4.138   4.386  -0.187  0.0505  3.2055 -2.4425
  359DG      O9 8243   4.130   3.923   0.355  0.2520 -0.0985 -0.5303
  359DG     O10 8244   4.205   4.191  -0.233  0.2125  0.4134 -0.1097
  359DG     C11 8245   4.138   3.821   0.251  0.0288 -0.1395  0.4150
  359DG     C12 8246   4.257   4.145  -0.107  0.6771 -0.3478 -0.6045
  359DG     H13 8247   4.073   3.739   0.280  0.2942 -0.8477 -0.9296
  359DG     H14 8248   4.236   3.776   0.234 -0.0413  0.0932 -0.6479
  359DG     H15 8249   4.229   4.219  -0.032 -1.6234  1.0599 -2.6882
  359DG     H16 8250   4.364   4.127  -0.104  0.9896  1.4298  0.5348
  359DG     C17 8251   4.099   3.874   0.111 -0.1159  0.3357  0.5314
  359DG     C18 8252   4.165   4.026  -0.069  0.5387 -0.0192  1.2547
  359DG     O19 8253   4.191   3.975   0.061  0.1104  0.0344  0.6338
  359DG     H20 8254   4.002   3.923   0.107 -0.3881 -0.0198  2.2822
  359DG     H21 8255   4.106   3.798   0.033  2.0900  2.3229 -1.3809
  359DG     H22 8256   4.062   4.060  -0.079  1.1006  1.7788  1.2190
  359DG     H23 8257   4.199   3.949  -0.139 -2.8971  0.3540 -1.1000
  360DG      C1 8258   1.773   1.129   5.476 -0.4229 -0.2191  0.2225
  360DG      C2 8259   1.259   0.955   5.098  0.0132 -0.0297  0.6688
  360DG      H3 8260   1.857   1.074   5.434 -1.9310 -1.2241 -1.6164
  360DG      H4 8261   1.719   1.057   5.537 -0.8696  0.4259  0.6045
  360DG      H5 8262   1.811   1.204   5.546  2.7357 -2.8108  1.5474
  360DG      H6 8263   1.246   0.900   5.191 -0.2079  0.9387  1.2239
  360DG      H7 8264   1.172   1.020   5.089  0.1809  0.2983  1.3459
  360DG      H8 8265   1.261   0.890   5.010  2.0443 -0.1121  0.7204
  360DG      O9 8266   1.701   1.176   5.365  0.2989  0.4437  0.0243
  360DG     O10 8267   1.380   1.037   5.095  0.1058 -0.0600  0.4236
  360DG     C11 8268   1.782   1.246   5.266 -0.6593 -0.6657  0.5227
  360DG     C12 8269   1.414   1.096   4.974  0.7759 -0.3727  0.1271
  360DG     H13 8270   1.862   1.184   5.227 -0.6619  0.6549 -1.7734
  360DG     H14 8271   1.832   1.335   5.304 -0.9480 -0.9137  1.5233
  360DG     H15 8272   1.331   1.141   4.920 -0.6258 -3.2292 -0.3332
  360DG     H16 8273   1.467   1.020   4.916  0.7448 -1.7556  1.8187
  360DG     C17 8274   1.685   1.283   5.150  0.0372 -0.2811  0.0887
  360DG     C18 8275   1.512   1.211   5.019  0.4575  0.0533  0.6479
  360DG     O19 8276   1.612   1.169   5.108  0.2151 -0.1155 -0.0080
  360DG     H20 8277   1.756   1.320   5.076  0.8135  1.0853  1.4482
  360DG     H21 8278   1.612   1.358   5.182 -1.0990 -0.6543 -1.5096
  360DG     H22 8279   1.547   1.265   4.931  3.8875  0.6608  2.2413
  360DG     H23 8280   1.445   1.277   5.075 -1.3518  0.0558 -1.4078
  361DG      C1 8281   2.236   5.068   4.306 -0.3350  0.3843  0.1640
  361DG      C2 8282   2.220   4.883   3.677  0.6275 -0.2568  0.2853
  361DG      H3 8283   2.278   5.108   4.399 -1.4393  1.0515  0.3944
  361DG      H4 8284   2.203   4.965   4.317  1.7419 -0.4796 -1.1649
  361DG      H5 8285   2.144   5.120   4.278 -1.0408 -1.3301 -0.8359
  361DG      H6 8286   2.169   4.978   3.660  1.9449  0.3952 -0.1869
  361DG      H7 8287   2.274   4.858   3.585 -1.5299  0.8094 -1.3661
  361DG      H8 8288   2.167   4.797   3.718  2.8195 -1.7584  0.1423
  361DG      O9 8289   2.323   5.066   4.197 -0.6238  0.0776  0.2581
  361DG     O10 8290   2.320   4.911   3.776  0.2539 -0.0736  0.3622
  361DG     C11 8291   2.429   4.980   4.230 -0.7847 -0.1511  0.2089
  361DG     C12 8292   2.431   4.826   3.766 -0.3888 -0.2129  0.2724
  361DG     H13 8293   2.394   4.884   4.267  1.2202 -0.6325  1.0367
  361DG     H14 8294   2.502   5.017   4.303 -0.6024 -2.6030  1.3773
  361DG     H15 8295   2.487   4.843   3.674 -1.5980  1.6640 -0.1921
  361DG     H16 8296   2.396   4.724   3.780  0.4575 -0.6347 -0.5915
  361DG     C17 8297   2.514   4.947   4.110  0.1057  0.1416  0.3416
  361DG     C18 8298   2.521   4.859   3.884 -0.5980  0.5334 -0.5857
  361DG     O19 8299   2.440   4.902   3.997 -0.4395  0.1000  0.7184
  361DG     H20 8300   2.580   4.865   4.140  0.3925  0.4118  0.4487
  361DG     H21 8301   2.577   5.033   4.089 -0.1896  0.7562  1.8509
  361DG     H22 8302   2.580   4.773   3.915 -0.1552  0.5275 -1.4081
  361DG     H23 8303   2.589   4.940   3.855 -0.9939  0.5150 -1.6345
  362DG      C1 8304   5.470   2.381   0.934  0.2443 -0.5617 -0.1795
  362DG      C2 8305   5.497   2.324   0.254 -0.5295 -0.5603 -0.5928
  362DG      H3 8306   5.431   2.348   1.031 -0.8117  1.1565  0.0137
  362DG      H4 8307   5.431   2.480   0.914  0.1020 -0.8784 -1.5771
  362DG      H5 8308   5.579   2.386   0.942  0.1562 -0.7951  1.7565
  362DG      H6 8309   5.583   2.392   0.255  0.5845 -1.9015  1.1411
  362DG      H7 8310   5.516   2.241   0.187 -1.2675 -1.4992  0.3307
  362DG      H8 8311   5.402   2.364   0.218 -1.1389 -1.0569  0.4062
  362DG      O9 8312   5.433   2.283   0.836 -0.1774  0.0494  0.3188
  362DG     O10 8313   5.461   2.265   0.379  0.0134  0.2494  0.2630
  362DG     C11 8314   5.293   2.258   0.828 -0.5442 -0.4589 -0.4274
  362DG     C12 8315   5.358   2.162   0.374  0.3259 -0.2254  0.4396
  362DG     H13 8316   5.250   2.354   0.800  0.7865 -0.2844 -2.0522
  362DG     H14 8317   5.242   2.214   0.914 -0.3761 -2.5985 -1.3463
  362DG     H15 8318   5.385   2.082   0.305 -1.1147  0.9309 -1.5672
  362DG     H16 8319   5.270   2.212   0.333 -0.5954 -0.8306  1.6371
  362DG     C17 8320   5.253   2.153   0.724 -0.0001  0.3042  0.1940
  362DG     C18 8321   5.327   2.101   0.506  0.3778  0.0999  0.3185
  362DG     O19 8322   5.289   2.201   0.602  0.3022 -0.3669 -0.6514
  362DG     H20 8323   5.146   2.134   0.732 -0.5547  0.5169 -4.3664
  362DG     H21 8324   5.292   2.054   0.746 -2.0814 -0.4929  0.5091
  362DG     H22 8325   5.247   2.027   0.505  1.3461 -1.1270  2.7865
  362DG     H23 8326   5.413   2.038   0.528 -2.1613 -3.1594  1.6971
  363DG      C1 8327   5.148   5.187   0.769 -0.4174  0.7891 -0.0998
  363DG      C2 8328   5.250   4.463   0.621 -0.5688  0.3307  0.2653
  363DG      H3 8329   5.072   5.165   0.843  2.1804 -2.2332  1.9224
  363DG      H4 8330   5.111   5.276   0.718 -0.8896  0.5330 -0.2143
  363DG      H5 8331   5.241   5.212   0.820 -0.5369 -1.2996  1.2562
  363DG      H6 8332   5.172   4.387   0.625 -0.2090 -0.2036 -1.8195
  363DG      H7 8333   5.325   4.428   0.550  0.5069  2.5876  0.1799
  363DG      H8 8334   5.304   4.456   0.716  0.6152 -0.2494 -0.4331
  363DG      O9 8335   5.152   5.088   0.667 -0.1448  0.6264 -0.5700
  363DG     O10 8336   5.205   4.594   0.598 -0.8092  0.6271  0.2539
  363DG     C11 8337   5.024   5.052   0.618 -0.2015 -0.1363  0.2374
  363DG     C12 8338   5.146   4.609   0.469  0.1508  0.4759  0.6524
  363DG     H13 8339   4.975   5.143   0.582  0.8171  0.0005 -0.8924
  363DG     H14 8340   4.966   5.005   0.697  0.6690  2.5556  2.6710
  363DG     H15 8341   5.048   4.561   0.466 -0.3308  1.4293  0.6294
  363DG     H16 8342   5.204   4.557   0.394 -3.1629 -1.7541 -0.5976
  363DG     C17 8343   5.038   4.959   0.498 -0.1314  0.7235 -0.1564
  363DG     C18 8344   5.128   4.754   0.431 -0.9162 -0.0977  0.0694
  363DG     O19 8345   5.070   4.822   0.538 -0.0063  0.3213  0.5308
  363DG     H20 8346   5.108   4.994   0.422  0.8430  0.5343  0.6239
  363DG     H21 8347   4.945   4.957   0.443 -0.3235 -0.6334  0.1724
  363DG     H22 8348   5.228   4.796   0.425 -0.1915 -1.5245  1.3227
  363DG     H23 8349   5.072   4.746   0.337  2.6267  1.5281 -2.4010
  364DG      C1 8350   5.031   2.808   5.452 -0.1592 -0.0971  0.4231
  364DG      C2 8351   5.453   3.275   5.693  0.2000  0.4406  0.4410
  364DG      H3 8352   5.042   2.790   5.346 -1.0437 -0.6095  0.4070
  364DG      H4 8353   4.932   2.770   5.478  0.1440 -0.1734  1.5450
  364DG      H5 8354   5.108   2.753   5.507  0.4014  1.0691  0.8433
  364DG      H6 8355   5.506   3.313   5.606 -3.4869  3.1537 -0.8360
  364DG      H7 8356   5.477   3.335   5.781 -1.8011 -0.5145  1.7003
  364DG      H8 8357   5.502   3.178   5.705  1.7301  0.7422 -2.3518
  364DG      O9 8358   5.053   2.945   5.486  0.1166 -0.6495 -0.2425
  364DG     O10 8359   5.314   3.235   5.677  0.0155  0.5269 -0.4501
  364DG     C11 8360   4.937   3.018   5.471  0.3664 -0.2035 -0.2512
  364DG     C12 8361   5.217   3.335   5.657  0.2845 -0.2951  0.5115
  364DG     H13 8362   4.856   2.979   5.532 -0.7597  0.8068 -1.0720
  364DG     H14 8363   4.888   3.021   5.373 -1.3737 -0.0807  0.5920
  364DG     H15 8364   5.216   3.370   5.554  0.9444  0.1995  0.6665
  364DG     H16 8365   5.232   3.424   5.718  0.6261  0.7467 -1.0289
  364DG     C17 8366   4.973   3.164   5.505  0.8623 -0.2716  0.4241
  364DG     C18 8367   5.077   3.283   5.691 -0.0611  0.4245  0.0738
  364DG     O19 8368   5.033   3.160   5.633 -0.1312 -0.0264 -0.3297
  364DG     H20 8369   4.883   3.226   5.505  0.7391 -0.4204 -0.7917
  364DG     H21 8370   5.029   3.207   5.421 -0.7959  0.8618 -0.1584
  364DG     H22 8371   5.061   3.278   5.798 -0.0484 -1.8197  0.0108
  364DG     H23 8372   4.995   3.353   5.673  0.5328  1.1622  0.1789
  365DG      C1 8373   2.143   3.727   0.350 -0.4786  0.1868  0.0668
  365DG      C2 8374   1.496   4.067   0.535 -0.0578  0.6339 -0.1420
  365DG      H3 8375   2.208   3.792   0.408  0.1035 -0.1983 -0.1454
  365DG      H4 8376   2.207   3.686   0.271  1.4642  1.0246  1.1481
  365DG      H5 8377   2.116   3.644   0.416 -3.7399 -1.8840 -3.4412
  365DG      H6 8378   1.495   3.962   0.564  2.4171  0.6354  0.2430
  365DG      H7 8379   1.523   4.128   0.622  2.1525 -2.0864  1.2538
  365DG      H8 8380   1.396   4.098   0.506  0.6438  1.3947 -1.8801
  365DG      O9 8381   2.041   3.812   0.301  0.1034  0.6405  0.0692
  365DG     O10 8382   1.577   4.085   0.425 -0.5562 -0.3901 -0.3031
  365DG     C11 8383   1.936   3.744   0.232  0.0930 -0.7284 -0.4256
  365DG     C12 8384   1.554   4.013   0.310 -0.2649  0.6514 -0.6377
  365DG     H13 8385   1.874   3.672   0.286  1.5397 -1.8791 -0.2429
  365DG     H14 8386   1.991   3.677   0.166  1.3718 -1.3682  1.2141
  365DG     H15 8387   1.465   4.048   0.257 -0.6286 -0.6858 -0.9387
  365DG     H16 8388   1.537   3.912   0.346  1.3124  0.1734 -1.1520
  365DG     C17 8389   1.838   3.838   0.159 -0.4055  0.6233 -0.0761
  365DG     C18 8390   1.674   4.009   0.207 -0.9014  0.2496 -0.2236
  365DG     O19 8391   1.777   3.929   0.257  0.4555 -0.2338  0.2110
  365DG     H20 8392   1.760   3.776   0.116  1.5036 -0.0088 -2.8793
  365DG     H21 8393   1.887   3.900   0.085  1.6261 -0.4641  0.2744
  365DG     H22 8394   1.643   3.965   0.112 -1.7196  1.0110 -0.3152
  365DG     H23 8395   1.708   4.109   0.181  0.2179 -0.2592 -0.8121
  366DG      C1 8396   1.179   5.098   0.579 -0.3504 -0.0114 -0.1735
  366DG      C2 8397   0.774   5.611   0.620  0.4660 -1.2622 -0.9145
  366DG      H3 8398   1.139   5.090   0.478 -0.8499 -1.5001  0.1094
  366DG      H4 8399   1.102   5.048   0.639  1.8689 -2.9086  0.5256
  366DG      H5 8400   1.273   5.042   0.580 -1.2324 -1.5988 -1.3318
  366DG      H6 8401   0.762   5.631   0.514 -0.5967 -1.4047 -0.8277
  366DG      H7 8402   0.689   5.549   0.649  0.8268 -2.2471 -1.8938
  366DG      H8 8403   0.754   5.707   0.667 -0.0528 -1.0899 -1.4774
  366DG      O9 8404   1.195   5.239   0.616  1.2421 -0.1119  0.1249
  366DG     O10 8405   0.897   5.553   0.671 -0.3456 -0.2076  0.0410
  366DG     C11 8406   1.255   5.249   0.737 -0.2180  0.7334  0.1381
  366DG     C12 8407   0.914   5.566   0.811 -0.4230 -0.2968 -0.4337
  366DG     H13 8408   1.361   5.225   0.730 -0.4312 -0.4644  0.7762
  366DG     H14 8409   1.211   5.171   0.800 -1.3287 -0.8157 -2.3680
  366DG     H15 8410   0.839   5.509   0.867  0.5072 -0.4245  0.7223
  366DG     H16 8411   0.904   5.669   0.845  2.9332  0.2597 -0.8026
  366DG     C17 8412   1.241   5.385   0.804 -0.2115 -0.0931 -0.0617
  366DG     C18 8413   1.051   5.519   0.858  0.2181  0.2828 -0.1309
  366DG     O19 8414   1.111   5.433   0.766  0.2622  0.0920  0.4703
  366DG     H20 8415   1.314   5.458   0.770 -0.6097  0.6668  0.6900
  366DG     H21 8416   1.267   5.375   0.909 -1.0588  2.9993  0.5465
  366DG     H22 8417   1.122   5.602   0.864 -1.1898  1.4605  2.7851
  366DG     H23 8418   1.050   5.470   0.955  1.9418 -0.4507 -0.4501
  367DG      C1 8419   0.942   4.416   1.269 -0.3088  0.1381 -0.9970
  367DG      C2 8420   0.743   4.963   0.596 -0.5695  0.7947 -0.2035
  367DG      H3 8421   0.904   4.457   1.363 -1.1186 -1.5234 -0.5549
  367DG      H4 8422   1.049   4.435   1.264 -0.5875  1.6773 -1.8997
  367DG      H5 8423   0.929   4.308   1.280  2.2799 -0.1187  0.3620
  367DG      H6 8424   0.716   4.960   0.491  0.6140 -0.8008 -0.5026
  367DG      H7 8425   0.652   4.993   0.649 -1.3809 -0.8792 -0.5764
  367DG      H8 8426   0.832   5.023   0.615  0.0549 -0.3092  0.4743
  367DG      O9 8427   0.872   4.464   1.163 -0.5001  0.1528 -0.6299
  367DG     O10 8428   0.758   4.822   0.631 -0.8599  0.0350 -0.0819
  367DG     C11 8429   0.894   4.606   1.137  0.5091  0.2846  0.0294
  367DG     C12 8430   0.782   4.801   0.774 -0.0438 -0.1788 -0.4437
  367DG     H13 8431   0.996   4.624   1.101  0.4230  0.0513 -0.3385
  367DG     H14 8432   0.889   4.662   1.231 -1.9387 -0.4802  0.4152
  367DG     H15 8433   0.710   4.854   0.836 -1.5821 -1.2405 -1.2731
  367DG     H16 8434   0.884   4.839   0.787  0.4719 -0.2823 -3.3276
  367DG     C17 8435   0.797   4.661   1.030  0.4499  0.3789  0.9160
  367DG     C18 8436   0.752   4.650   0.801 -0.2241  0.2170 -0.0553
  367DG     O19 8437   0.829   4.599   0.907  0.1666  0.2066  0.0840
  367DG     H20 8438   0.793   4.770   1.029 -3.0803  0.3731  0.0657
  367DG     H21 8439   0.694   4.633   1.054  0.1671  0.4076 -0.2030
  367DG     H22 8440   0.647   4.628   0.818 -0.3426 -0.9544 -2.1222
  367DG     H23 8441   0.775   4.591   0.713 -0.8613  3.2102 -2.3796
  368DG      C1 8442   3.583   0.859   0.732  0.3133 -0.1160 -0.6927
  368DG      C2 8443   3.688   0.320   0.621  0.5855 -0.8081 -0.6779
  368DG      H3 8444   3.496   0.823   0.677 -0.7196  0.9725  0.2092
  368DG      H4 8445   3.658   0.883   0.657 -1.5293  0.0952 -2.5551
  368DG      H5 8446   3.559   0.957   0.771  0.1732 -0.2767 -0.3718
  368DG      H6 8447   3.696   0.370   0.525 -1.5031 -0.3372 -0.6522
  368DG      H7 8448   3.787   0.294   0.657  1.5232  2.1463 -0.8139
  368DG      H8 8449   3.625   0.232   0.608 -0.6150 -0.5508  2.3760
  368DG      O9 8450   3.633   0.770   0.824  0.3703  0.3921  0.3581
  368DG     O10 8451   3.643   0.411   0.720  0.0578  0.4599 -0.0767
  368DG     C11 8452   3.537   0.760   0.932 -0.3011 -0.1138 -0.6963
  368DG     C12 8453   3.585   0.337   0.827  0.4799 -0.2305 -0.5635
  368DG     H13 8454   3.435   0.743   0.898 -0.9878  2.2048  0.0060
  368DG     H14 8455   3.547   0.856   0.983 -1.5590  1.4038 -3.1028
  368DG     H15 8456   3.659   0.267   0.867 -0.8556 -0.9121  0.7982
  368DG     H16 8457   3.506   0.275   0.787 -0.3515 -0.2051  0.9570
  368DG     C17 8458   3.598   0.654   1.018 -0.7096  0.8744 -0.4868
  368DG     C18 8459   3.534   0.432   0.935  0.3749 -0.0040  0.5841
  368DG     O19 8460   3.635   0.541   0.946 -0.0814 -0.0186  0.3019
  368DG     H20 8461   3.531   0.618   1.095  0.3123 -0.6006 -0.2309
  368DG     H21 8462   3.684   0.691   1.074  0.0638 -0.0031 -1.0611
  368DG     H22 8463   3.437   0.470   0.903 -0.1672 -0.6776  1.3747
  368DG     H23 8464   3.529   0.382   1.032 -1.6522  0.9039  0.9959
  369DG      C1 8465   0.730   1.021   3.664 -0.4505  0.2962 -0.0446
  369DG      C2 8466   1.380   1.469   3.829  0.4939  0.1570 -0.5056
  369DG      H3 8467   0.655   0.973   3.726  0.5725 -0.0700  0.9360
  369DG      H4 8468   0.781   0.944   3.606 -0.5715 -0.8999  1.3907
  369DG      H5 8469   0.688   1.101   3.603 -0.4483 -0.4594 -1.0594
  369DG      H6 8470   1.349   1.573   3.824 -0.6969 -0.0359  1.5080
  369DG      H7 8471   1.459   1.449   3.902 -0.2422 -1.5485 -0.1323
  369DG      H8 8472   1.433   1.443   3.737 -2.1774 -0.9236 -1.8666
  369DG      O9 8473   0.830   1.069   3.758  0.5308  0.5642 -0.0368
  369DG     O10 8474   1.264   1.376   3.850 -0.3942  0.0350 -0.3265
  369DG     C11 8475   0.785   1.169   3.854 -0.3638  0.4693  0.2954
  369DG     C12 8476   1.156   1.376   3.755  0.0380  0.7289 -0.6181
  369DG     H13 8477   0.698   1.130   3.907 -0.0707  0.1761  0.5660
  369DG     H14 8478   0.761   1.261   3.801  1.1082  0.6344 -0.1368
  369DG     H15 8479   1.190   1.366   3.652  1.3942  0.3422 -0.1587
  369DG     H16 8480   1.105   1.472   3.761  1.1470  1.3156 -0.2924
  369DG     C17 8481   0.893   1.211   3.949 -0.0041 -0.4031 -0.2506
  369DG     C18 8482   1.055   1.262   3.793  0.2332  0.2145  0.8984
  369DG     O19 8483   0.983   1.310   3.905  0.2124 -0.2890  0.1640
  369DG     H20 8484   0.943   1.122   3.988  1.8022  1.3605  1.6919
  369DG     H21 8485   0.834   1.256   4.028 -0.4275 -2.0489  0.4124
  369DG     H22 8486   0.992   1.250   3.705  1.3348  0.7461  0.0035
  369DG     H23 8487   1.103   1.166   3.812  1.1810  0.4363 -0.2401
  370DG      C1 8488   1.774   1.896   1.442 -0.3580  0.1242 -0.1658
  370DG      C2 8489   2.333   1.877   1.824  1.2259  0.2803  0.0339
  370DG      H3 8490   1.845   1.954   1.384  1.3524  0.6647  2.2910
  370DG      H4 8491   1.681   1.945   1.411  0.8364  1.7811 -1.2889
  370DG      H5 8492   1.779   1.799   1.394 -2.6115  0.3782 -1.0476
  370DG      H6 8493   2.378   1.893   1.922 -0.7209  1.0255  0.8486
  370DG      H7 8494   2.360   1.776   1.792 -2.1524 -0.1653 -1.8904
  370DG      H8 8495   2.363   1.955   1.754 -0.6360  0.7577 -0.2658
  370DG      O9 8496   1.808   1.886   1.577 -0.5171 -0.1065 -0.1213
  370DG     O10 8497   2.191   1.861   1.843  0.1094 -0.1563 -0.1542
  370DG     C11 8498   1.738   1.980   1.662 -0.4131  0.1539 -0.0844
  370DG     C12 8499   2.142   1.954   1.936  0.6364  0.7771  0.5587
  370DG     H13 8500   1.630   1.973   1.669 -0.2588 -2.1590  0.9243
  370DG     H14 8501   1.759   2.079   1.622 -0.4829  0.0836 -0.2990
  370DG     H15 8502   2.162   2.053   1.895 -1.1532  1.1896  0.6209
  370DG     H16 8503   2.176   1.938   2.039  0.8653 -1.4699  0.1711
  370DG     C17 8504   1.796   1.979   1.802 -0.3318  0.2091 -0.2063
  370DG     C18 8505   1.986   1.952   1.944 -0.1891  0.5246 -0.5086
  370DG     O19 8506   1.934   1.964   1.814  0.2725 -0.0070  0.0313
  370DG     H20 8507   1.757   1.891   1.853  1.6226 -0.1526  0.7611
  370DG     H21 8508   1.775   2.073   1.854  0.6596  0.9365 -1.0708
  370DG     H22 8509   1.952   1.857   1.986  0.6561  0.1042 -0.7486
  370DG     H23 8510   1.940   2.027   2.008 -0.2818  1.2016 -1.3539
  371DG      C1 8511   2.828   3.938   1.769 -0.6197  0.5173  0.2868
  371DG      C2 8512   2.433   4.094   1.213 -0.0868  0.6316  0.1493
  371DG      H3 8513   2.915   3.961   1.709 -1.3172 -0.1419 -1.0261
  371DG      H4 8514   2.816   3.829   1.770 -1.0933  0.5121  3.1024
  371DG      H5 8515   2.852   3.976   1.868 -1.1574  3.9380 -0.7561
  371DG      H6 8516   2.358   4.166   1.179 -0.8711 -1.4825 -2.9515
  371DG      H7 8517   2.533   4.108   1.173  0.2851 -0.2884  0.7257
  371DG      H8 8518   2.399   3.991   1.209 -0.9754  0.8843  0.7886
  371DG      O9 8519   2.717   3.995   1.706  0.2774  0.8500 -0.0895
  371DG     O10 8520   2.469   4.121   1.350  0.6635 -0.1623  0.7981
  371DG     C11 8521   2.596   3.961   1.779  0.3098 -0.9709 -0.2217
  371DG     C12 8522   2.361   4.122   1.442 -0.1360 -0.2233  0.0660
  371DG     H13 8523   2.613   4.011   1.875  1.2250 -0.2750 -0.7321
  371DG     H14 8524   2.586   3.854   1.793 -0.2045 -0.6271  2.6386
  371DG     H15 8525   2.271   4.148   1.386  0.7143  0.6036 -0.9629
  371DG     H16 8526   2.384   4.199   1.516  0.1312 -1.4099  1.2422
  371DG     C17 8527   2.477   4.013   1.705  0.3239 -0.0588 -0.4104
  371DG     C18 8528   2.343   3.983   1.510  0.0964 -0.3035 -0.0850
  371DG     O19 8529   2.465   3.946   1.581  0.3893  0.2181 -0.4208
  371DG     H20 8530   2.495   4.120   1.688  1.1469 -0.3052 -1.1723
  371DG     H21 8531   2.387   4.004   1.765 -0.8100 -1.5916 -2.2017
  371DG     H22 8532   2.256   3.980   1.575 -0.9431 -0.9630 -1.4669
  371DG     H23 8533   2.326   3.908   1.432 -2.3652  1.3186 -1.2175
  372DG      C1 8534   5.430   4.444   1.620 -0.1550 -0.2045  0.3514
  372DG      C2 8535   4.692   4.128   2.028  0.3411 -0.2950  0.1308
  372DG      H3 8536   5.539   4.443   1.624 -0.1545  1.5399  1.1993
  372DG      H4 8537   5.392   4.527   1.678  2.4951  1.8464 -0.6572
  372DG      H5 8538   5.394   4.441   1.517 -0.1040  1.4744  0.2721
  372DG      H6 8539   4.611   4.194   2.000 -0.6044 -1.3681  0.2669
  372DG      H7 8540   4.699   4.043   1.960  2.2774 -1.5963  1.8314
  372DG      H8 8541   4.666   4.085   2.124 -1.1535 -0.6040 -0.3932
  372DG      O9 8542   5.397   4.309   1.656  0.3631 -0.3187  0.3531
  372DG     O10 8543   4.816   4.192   2.034 -0.2696  0.0489  0.7473
  372DG     C11 8544   5.259   4.288   1.661 -0.7110 -0.1432 -0.0244
  372DG     C12 8545   4.879   4.203   1.910 -0.2361 -0.3829  0.6425
  372DG     H13 8546   5.245   4.180   1.670 -0.4822 -0.0711  1.3483
  372DG     H14 8547   5.218   4.320   1.565 -1.1633  3.5893  1.2546
  372DG     H15 8548   4.819   4.244   1.828  1.7167  2.0442  0.3083
  372DG     H16 8549   4.905   4.103   1.877 -0.5966 -0.7084  1.3319
  372DG     C17 8550   5.200   4.349   1.793  0.9100  0.6403  0.6794
  372DG     C18 8551   5.005   4.289   1.923 -0.3146 -0.7291  0.4230
  372DG     O19 8552   5.075   4.282   1.796  0.2765  0.1024 -0.4663
  372DG     H20 8553   5.192   4.458   1.795 -1.5594  0.5922 -1.4501
  372DG     H21 8554   5.258   4.316   1.879  1.5824 -1.7293 -0.5922
  372DG     H22 8555   4.985   4.394   1.946  1.6650 -0.5493  1.5626
  372DG     H23 8556   5.055   4.239   2.006 -0.3428 -1.6304 -0.0885
  373DG      C1 8557   1.580   4.620   1.566 -0.0036 -0.4041  0.1301
  373DG      C2 8558   2.216   4.466   1.417  0.2024  0.1678 -0.3857
  373DG      H3 8559   1.587   4.531   1.628 -0.4374 -2.4511 -2.5716
  373DG      H4 8560   1.484   4.624   1.514  0.9689 -0.1248 -1.7122
  373DG      H5 8561   1.593   4.710   1.626 -1.2015  0.2462 -0.5357
  373DG      H6 8562   2.265   4.557   1.450 -1.3863  1.3066 -1.0521
  373DG      H7 8563   2.198   4.402   1.504 -0.1319  1.2077  0.3290
  373DG      H8 8564   2.276   4.421   1.338 -2.1125  0.4024 -2.3760
  373DG      O9 8565   1.686   4.612   1.478  0.1595 -0.0468  0.2637
  373DG     O10 8566   2.098   4.506   1.352  0.8561 -0.5421  0.1289
  373DG     C11 8567   1.700   4.731   1.400 -0.4335  0.5301  0.6343
  373DG     C12 8568   2.127   4.601   1.243  0.3637  0.4703 -0.1688
  373DG     H13 8569   1.747   4.813   1.454  1.4035  1.8429 -2.6682
  373DG     H14 8570   1.602   4.775   1.381 -0.9871 -0.5307  0.9651
  373DG     H15 8571   2.191   4.556   1.167  2.1031  1.1310  0.8451
  373DG     H16 8572   2.185   4.684   1.282 -1.3857  1.7969 -0.2795
  373DG     C17 8573   1.775   4.715   1.266 -0.2217  0.4124 -0.1399
  373DG     C18 8574   1.996   4.651   1.185  0.5440 -0.0691  0.5058
  373DG     O19 8575   1.910   4.677   1.298 -0.0949 -0.6698 -0.1558
  373DG     H20 8576   1.776   4.810   1.213  0.5197 -0.8302 -2.4632
  373DG     H21 8577   1.715   4.640   1.214  1.1257 -0.0233 -1.1177
  373DG     H22 8578   2.015   4.732   1.115 -0.3936 -0.0553  0.2543
  373DG     H23 8579   1.955   4.567   1.130 -0.7176  0.2072  0.9779
  374DG      C1 8580   4.726   0.465   1.519 -0.0146  0.6670 -0.2033
  374DG      C2 8581   5.198   0.224   1.893  0.3250  0.2142  0.5063
  374DG      H3 8582   4.635   0.433   1.569 -0.4949  0.0606 -1.4438
  374DG      H4 8583   4.698   0.483   1.415 -2.3185  0.9773  0.4165
  374DG      H5 8584   4.750   0.559   1.570 -0.7742  0.8949 -0.2592
  374DG      H6 8585   5.181   0.309   1.958 -1.1293 -1.1505  2.0043
  374DG      H7 8586   5.141   0.141   1.935  0.2033  0.1329  0.1792
  374DG      H8 8587   5.306   0.215   1.907  1.3426  3.9512 -2.9613
  374DG      O9 8588   4.844   0.385   1.543  0.5565 -0.0005  0.4321
  374DG     O10 8589   5.166   0.245   1.756 -0.5947  0.0239  0.0751
  374DG     C11 8590   4.848   0.274   1.442  0.2223 -0.0289  0.1579
  374DG     C12 8591   5.198   0.127   1.683  0.1902  0.1609  0.0904
  374DG     H13 8592   4.856   0.304   1.338 -0.4835  0.5096  0.2560
  374DG     H14 8593   4.764   0.205   1.455  0.3877 -0.1804  0.4427
  374DG     H15 8594   5.125   0.047   1.696  0.9144 -0.3481  1.1891
  374DG     H16 8595   5.288   0.077   1.718 -0.3561 -0.1059  1.1645
  374DG     C17 8596   4.966   0.182   1.485 -0.6194  0.1038  0.5599
  374DG     C18 8597   5.209   0.172   1.537 -0.0373  0.3494 -0.0666
  374DG     O19 8598   5.090   0.250   1.497 -0.2068  0.3517 -0.2396
  374DG     H20 8599   4.975   0.105   1.408 -3.4503  1.7576 -1.6666
  374DG     H21 8600   4.944   0.127   1.576 -0.6876 -2.7479 -1.0849
  374DG     H22 8601   5.291   0.243   1.523  0.9050 -0.9929 -1.7964
  374DG     H23 8602   5.239   0.087   1.475  0.7622  1.8987 -1.9064
  375DG      C1 8603   4.730   4.771   3.523  0.8251 -0.2429  0.5712
  375DG      C2 8604   4.796   4.536   4.229  0.0622 -0.4393 -0.2931
  375DG      H3 8605   4.767   4.771   3.420 -0.7257 -0.1966 -0.0047
  375DG      H4 8606   4.749   4.871   3.562 -1.3437 -0.2083  1.7014
  375DG      H5 8607   4.622   4.756   3.520  0.4857  1.9006  0.9830
  375DG      H6 8608   4.697   4.512   4.190 -0.3344 -0.9382  0.9537
  375DG      H7 8609   4.842   4.440   4.253  0.7954  0.0240  0.2049
  375DG      H8 8610   4.796   4.591   4.323  0.8369 -2.3136  0.8785
  375DG      O9 8611   4.802   4.667   3.598  0.2985  0.0327 -0.0702
  375DG     O10 8612   4.877   4.602   4.131 -0.2272 -0.5116  0.1576
  375DG     C11 8613   4.933   4.704   3.617  0.1963 -0.1530  0.2480
  375DG     C12 8614   4.866   4.551   4.001 -0.7850 -0.6797  0.1065
  375DG     H13 8615   4.943   4.789   3.685  2.6076  0.8626 -1.2505
  375DG     H14 8616   4.983   4.732   3.524 -1.2695  3.0545  0.2946
  375DG     H15 8617   4.772   4.580   3.956 -0.1506  0.4150 -0.5663
  375DG     H16 8618   4.865   4.442   4.009  1.8020 -1.0697 -2.6855
  375DG     C17 8619   5.014   4.586   3.675 -0.1770  0.3395 -0.1620
  375DG     C18 8620   4.985   4.588   3.906 -0.6626 -0.4801  0.3172
  375DG     O19 8621   4.948   4.528   3.786 -0.5164 -0.6417 -0.0821
  375DG     H20 8622   5.114   4.625   3.697  0.3830 -1.3817  0.5504
  375DG     H21 8623   5.029   4.502   3.608 -1.1335  0.5842 -0.6947
  375DG     H22 8624   4.987   4.697   3.901  2.3193 -0.4459  0.6033
  375DG     H23 8625   5.084   4.558   3.939  1.2878  3.5378 -1.2203
  376DG      C1 8626   2.540   1.378   2.633  0.3470  0.5181  0.2936
  376DG      C2 8627   3.195   1.819   2.461 -0.2547 -0.1279  0.1952
  376DG      H3 8628   2.477   1.389   2.545  1.1231  3.6494  0.0298
  376DG      H4 8629   2.492   1.445   2.705 -1.6029  0.2212 -0.6752
  376DG      H5 8630   2.554   1.280   2.680 -0.1300  1.1292  1.7852
  376DG      H6 8631   3.289   1.770   2.436 -1.0889 -1.9333  0.4150
  376DG      H7 8632   3.157   1.861   2.368 -1.6470 -0.5174  0.5624
  376DG      H8 8633   3.206   1.891   2.542  1.1576 -1.5684  1.3540
  376DG      O9 8634   2.675   1.407   2.602 -0.5082  0.1296  0.2143
  376DG     O10 8635   3.102   1.731   2.516  0.0888 -0.3871 -0.1364
  376DG     C11 8636   2.759   1.439   2.715 -0.0435 -0.5251  0.0721
  376DG     C12 8637   2.965   1.768   2.519 -0.0740  0.2256  0.4298
  376DG     H13 8638   2.744   1.367   2.796  1.4647 -0.8213  0.1031
  376DG     H14 8639   2.714   1.520   2.773 -3.4883 -3.0457  1.2845
  376DG     H15 8640   2.928   1.765   2.416 -0.1361 -1.3671  0.4706
  376DG     H16 8641   2.964   1.872   2.551 -2.7298  0.1639  0.8417
  376DG     C17 8642   2.907   1.445   2.681 -0.0036 -0.2789 -0.5081
  376DG     C18 8643   2.901   1.667   2.613 -0.1603  0.1228  0.0797
  376DG     O19 8644   2.946   1.533   2.579  0.3547 -0.6699 -0.0640
  376DG     H20 8645   2.939   1.350   2.639  0.1667 -0.5159  0.1438
  376DG     H21 8646   2.978   1.471   2.760  0.4044 -1.2806 -0.5250
  376DG     H22 8647   2.922   1.690   2.717  0.8067 -0.7397  0.0887
  376DG     H23 8648   2.792   1.676   2.616 -0.2495 -0.8536  3.0234
  377DG      C1 8649   4.998   0.228   2.636  0.4961 -0.8337 -0.3309
  377DG      C2 8650   5.388   0.745   2.451 -0.0696  0.3357 -0.0599
  377DG      H3 8651   4.952   0.130   2.621 -0.8258 -0.0693 -1.4204
  377DG      H4 8652   4.928   0.289   2.692 -1.0034 -0.2315 -2.7313
  377DG      H5 8653   5.095   0.232   2.687  0.6704  4.6370 -0.5309
  377DG      H6 8654   5.465   0.689   2.506 -2.2177 -2.2425  0.5189
  377DG      H7 8655   5.448   0.805   2.383  0.3693  0.0222  0.0419
  377DG      H8 8656   5.342   0.815   2.520 -1.3270  0.5298 -1.0732
  377DG      O9 8657   5.006   0.307   2.512  0.1954 -0.4060 -0.3063
  377DG     O10 8658   5.290   0.658   2.401 -0.3823 -0.1067  0.6020
  377DG     C11 8659   5.053   0.220   2.413  0.5167 -0.6945  0.0726
  377DG     C12 8660   5.350   0.603   2.290  0.1579  0.4033  0.3540
  377DG     H13 8661   4.970   0.166   2.367  1.1613 -0.1978 -1.7525
  377DG     H14 8662   5.130   0.149   2.441  1.6928  0.5132 -0.0021
  377DG     H15 8663   5.446   0.557   2.316  1.0060  0.9536 -1.6007
  377DG     H16 8664   5.374   0.675   2.212  1.6939  0.1371  0.5404
  377DG     C17 8665   5.108   0.313   2.294 -0.3034  0.2729  0.5316
  377DG     C18 8666   5.261   0.493   2.233  0.3299 -0.3051  0.2261
  377DG     O19 8667   5.198   0.416   2.339  0.0510  0.2042  0.2048
  377DG     H20 8668   5.030   0.357   2.232  1.2386 -1.0446 -2.5714
  377DG     H21 8669   5.160   0.256   2.217 -1.4948  0.7966 -0.7188
  377DG     H22 8670   5.180   0.541   2.178 -0.7770 -0.6726  1.4899
  377DG     H23 8671   5.323   0.434   2.165  0.5692 -0.4801  0.5946
  378DG      C1 8672   4.083   4.724   0.601  0.4510 -0.3626 -0.3617
  378DG      C2 8673   3.762   4.128   0.734 -0.3766 -0.0974  0.3018
  378DG      H3 8674   4.178   4.758   0.642 -0.0644  0.7431 -0.0637
  378DG      H4 8675   4.032   4.818   0.583  1.3862  0.0303 -1.0532
  378DG      H5 8676   4.099   4.669   0.508 -1.8666 -1.7568 -0.0083
  378DG      H6 8677   3.791   4.122   0.629  0.9511  0.3837  0.6225
  378DG      H7 8678   3.811   4.044   0.783  0.4981  0.8255  1.0317
  378DG      H8 8679   3.655   4.115   0.745  0.0265 -1.4271  3.9233
  378DG      O9 8680   4.012   4.630   0.691  0.0683 -0.0610 -0.2600
  378DG     O10 8681   3.810   4.250   0.790 -0.0444  0.0412  0.2193
  378DG     C11 8682   3.977   4.687   0.817  0.5579 -0.0759  0.1097
  378DG     C12 8683   3.743   4.286   0.907 -0.0186  0.3439 -0.5203
  378DG     H13 8684   3.877   4.730   0.804 -0.1365 -1.1961  1.4043
  378DG     H14 8685   4.049   4.763   0.848 -1.1668  1.9890 -0.6717
  378DG     H15 8686   3.726   4.202   0.975 -0.0794  0.6081 -0.2059
  378DG     H16 8687   3.649   4.341   0.897  0.5976  1.5257  0.0577
  378DG     C17 8688   3.951   4.579   0.928 -0.5265  0.8653  0.5729
  378DG     C18 8689   3.841   4.381   0.978 -0.0102  0.3259 -0.4416
  378DG     O19 8690   3.891   4.468   0.874  0.1208  0.3866 -0.1728
  378DG     H20 8691   3.884   4.621   1.002 -1.2249 -0.3378  0.6467
  378DG     H21 8692   4.044   4.554   0.981 -1.4395  1.4373  2.5303
  378DG     H22 8693   3.799   4.433   1.064 -0.1287 -1.6594  0.7620
  378DG     H23 8694   3.914   4.309   1.016 -0.2989 -1.2178 -2.6233
  379DG      C1 8695   4.999   3.912   1.210  0.4287  0.0092  0.6195
  379DG      C2 8696   4.606   4.128   0.837 -0.1909 -0.8124  0.0549
  379DG      H3 8697   5.078   3.971   1.256 -0.5618  0.0761  2.2925
  379DG      H4 8698   5.023   3.806   1.204 -0.2868 -0.1337  0.2023
  379DG      H5 8699   4.916   3.923   1.280  2.1569 -2.1299  3.1993
  379DG      H6 8700   4.544   4.215   0.858  0.0073 -0.3332 -1.2205
  379DG      H7 8701   4.533   4.058   0.796  0.1163 -1.2110  0.1720
  379DG      H8 8702   4.634   4.099   0.938 -0.4709 -0.1721  0.3150
  379DG      O9 8703   4.958   3.975   1.090  0.0050  0.3557  0.1031
  379DG     O10 8704   4.715   4.161   0.755 -0.2447  0.3184  0.5439
  379DG     C11 8705   5.069   4.009   0.999  0.6959  0.1480 -0.9318
  379DG     C12 8706   4.787   4.281   0.799  0.1976  0.9208  0.5113
  379DG     H13 8707   5.125   3.918   0.976 -1.2650 -0.8279 -2.1013
  379DG     H14 8708   5.132   4.086   1.045 -0.6915  0.1669  1.0826
  379DG     H15 8709   4.774   4.293   0.906 -1.2263  1.1267  0.3379
  379DG     H16 8710   4.738   4.367   0.752  1.3760  0.3145 -2.0220
  379DG     C17 8711   5.018   4.057   0.859 -0.1036  0.9310  0.2127
  379DG     C18 8712   4.938   4.265   0.764  0.9495  0.2986  0.2689
  379DG     O19 8713   5.012   4.196   0.866 -0.0012 -0.0429  0.0346
  379DG     H20 8714   4.924   4.004   0.843 -0.8887  1.5844  2.4087
  379DG     H21 8715   5.081   4.031   0.773 -1.0647 -2.1302  0.3168
  379DG     H22 8716   4.937   4.232   0.661  0.4254  1.7904 -0.2323
  379DG     H23 8717   4.979   4.363   0.788  2.6362 -0.4614  0.6294
  380DG      C1 8718   1.624   5.210   2.657 -0.5611  0.3421  0.5462
  380DG      C2 8719   1.584   4.778   2.147 -0.2130 -0.1707 -1.0361
  380DG      H3 8720   1.717   5.154   2.661 -2.1563 -2.9251 -2.4044
  380DG      H4 8721   1.602   5.256   2.754  0.5161  1.3903  0.3151
  380DG      H5 8722   1.633   5.292   2.586 -1.2623  0.3663  0.4712
  380DG      H6 8723   1.642   4.866   2.117 -2.8562  1.5720 -1.4218
  380DG      H7 8724   1.651   4.694   2.164  0.2503  0.3342 -0.3425
  380DG      H8 8725   1.511   4.754   2.069 -1.3009 -0.0852 -0.0644
  380DG      O9 8726   1.514   5.125   2.619 -0.4061  0.1650 -0.2564
  380DG     O10 8727   1.498   4.816   2.255 -0.3028  0.4702 -0.0347
  380DG     C11 8728   1.399   5.193   2.576  0.7019 -0.3211  0.9302
  380DG     C12 8729   1.376   4.874   2.223  1.3980 -0.1889  0.7045
  380DG     H13 8730   1.427   5.260   2.495  0.0244 -0.5879  0.4664
  380DG     H14 8731   1.348   5.251   2.653 -0.3660 -1.1775  0.8842
  380DG     H15 8732   1.307   4.815   2.163 -0.0251  1.7518  0.2888
  380DG     H16 8733   1.381   4.962   2.158  0.6165 -0.0934  0.7506
  380DG     C17 8734   1.307   5.083   2.520 -0.3767 -0.2978 -0.4049
  380DG     C18 8735   1.287   4.925   2.338 -0.1706 -0.7541 -0.3927
  380DG     O19 8736   1.367   5.022   2.407  0.2662  0.1387  0.2960
  380DG     H20 8737   1.210   5.128   2.495 -0.5892 -1.2641 -1.3854
  380DG     H21 8738   1.285   5.009   2.596  1.1905 -0.1293  0.2505
  380DG     H22 8739   1.189   4.960   2.306 -0.7508  0.8715  2.7676
  380DG     H23 8740   1.261   4.837   2.397 -3.4648 -0.1396 -0.7507
  381DG      C1 8741   2.533   3.728   2.021  0.5504  0.1345  0.3852
  381DG      C2 8742   2.152   3.705   2.681  0.1827  1.1989  0.0573
  381DG      H3 8743   2.620   3.786   1.992 -0.4372  0.0288 -3.2263
  381DG      H4 8744   2.470   3.712   1.933  1.8081 -0.2090 -0.4737
  381DG      H5 8745   2.557   3.626   2.050 -1.9169 -1.3855 -2.3531
  381DG      H6 8746   2.141   3.757   2.775  2.1616  0.1283  0.9289
  381DG      H7 8747   2.055   3.695   2.632  1.6650  0.3102 -2.9605
  381DG      H8 8748   2.178   3.602   2.708  0.5389  1.4342  0.6235
  381DG      O9 8749   2.462   3.773   2.139 -0.7008  1.1164  0.3239
  381DG     O10 8750   2.253   3.759   2.600 -0.2001  0.0821 -0.3179
  381DG     C11 8751   2.452   3.909   2.148 -0.3259 -0.6982  0.0472
  381DG     C12 8752   2.211   3.885   2.563  0.1236 -0.2724  0.7421
  381DG     H13 8753   2.363   3.935   2.090  0.3440  1.7121  0.0193
  381DG     H14 8754   2.528   3.965   2.094 -1.4348  0.7207 -0.0878
  381DG     H15 8755   2.196   3.949   2.649  1.9748 -0.3250  1.1409
  381DG     H16 8756   2.117   3.883   2.508  1.7539 -1.4028 -2.2277
  381DG     C17 8757   2.440   3.959   2.287  0.1717  0.0401 -0.9880
  381DG     C18 8758   2.311   3.957   2.474  0.0012 -0.3440 -0.0712
  381DG     O19 8759   2.328   3.894   2.353  0.2627 -0.3978  0.5863
  381DG     H20 8760   2.437   4.068   2.289  0.3619  0.0403 -0.5928
  381DG     H21 8761   2.536   3.925   2.327 -0.5410  0.5788  1.3329
  381DG     H22 8762   2.278   4.061   2.464 -1.0302 -0.6740 -0.2642
  381DG     H23 8763   2.398   3.967   2.538  0.0087  0.8466 -0.2414
  382DG      C1 8764   2.900   4.091   1.050 -0.5512  0.1135 -0.6450
  382DG      C2 8765   2.784   3.428   1.155 -0.0228  0.3337 -0.1232
  382DG      H3 8766   2.810   4.123   1.102 -1.3029  1.0262 -2.4537
  382DG      H4 8767   2.944   4.179   1.003  0.2199 -0.6430 -1.3810
  382DG      H5 8768   2.964   4.050   1.129  0.4700  1.1000 -0.9346
  382DG      H6 8769   2.731   3.477   1.237  0.1814  0.5843 -0.1406
  382DG      H7 8770   2.718   3.361   1.100  0.1923  0.6361 -0.7617
  382DG      H8 8771   2.868   3.367   1.189 -0.2699  0.4309  0.6912
  382DG      O9 8772   2.854   3.994   0.956  0.1718  0.2672 -0.9694
  382DG     O10 8773   2.811   3.532   1.060 -0.0522 -0.2751 -0.5355
  382DG     C11 8774   2.965   3.940   0.879  0.0516  0.2886 -0.6401
  382DG     C12 8775   2.807   3.496   0.928  0.0798  0.2501  0.3945
  382DG     H13 8776   3.046   3.904   0.942 -0.2573  1.2520  0.3537
  382DG     H14 8777   3.009   4.020   0.820  3.1527 -0.3459  0.6465
  382DG     H15 8778   2.728   3.422   0.912 -1.6112  1.8959  0.7188
  382DG     H16 8779   2.901   3.442   0.916  0.1931  0.2853  1.1011
  382DG     C17 8780   2.906   3.818   0.802  0.3540  0.7242  0.6704
  382DG     C18 8781   2.793   3.618   0.834 -0.3028  0.0152  0.1434
  382DG     O19 8782   2.868   3.723   0.892 -1.2255 -0.4128 -0.0817
  382DG     H20 8783   2.989   3.782   0.742  0.2078 -0.7102  1.3016
  382DG     H21 8784   2.831   3.853   0.731  0.7451  0.1926 -0.0251
  382DG     H22 8785   2.832   3.588   0.737  1.7223  0.0849  0.9045
  382DG     H23 8786   2.686   3.641   0.824 -0.5551 -0.9804  0.4620
  383DG      C1 8787   2.733   5.096   1.102 -0.6480 -0.5033  0.1387
  383DG      C2 8788   2.730   5.762   1.030 -0.2107  0.6163  0.3404
  383DG      H3 8789   2.640   5.081   1.157  0.4800 -0.6751  2.0916
  383DG      H4 8790   2.795   5.006   1.102  2.5129  1.5031 -0.1578
  383DG      H5 8791   2.695   5.126   1.005 -1.2732 -0.1208  0.4942
  383DG      H6 8792   2.700   5.781   0.927  0.3012  1.1853  0.2920
  383DG      H7 8793   2.733   5.856   1.085  1.3132 -0.5710  2.4709
  383DG      H8 8794   2.828   5.713   1.022 -0.5053 -0.1050  0.9423
  383DG      O9 8795   2.789   5.201   1.179  0.2385  0.2945 -0.8143
  383DG     O10 8796   2.644   5.673   1.105  0.0329 -0.0552 -0.0343
  383DG     C11 8797   2.885   5.274   1.111 -0.8234 -0.0840  0.4500
  383DG     C12 8798   2.678   5.673   1.244 -0.0427  0.8684  0.5386
  383DG     H13 8799   2.864   5.293   1.005  1.6366 -1.5369 -0.3701
  383DG     H14 8800   2.973   5.210   1.101 -0.9813 -0.0120 -2.4779
  383DG     H15 8801   2.594   5.615   1.283 -1.9098  1.7930 -1.8094
  383DG     H16 8802   2.666   5.768   1.296  2.2114  0.6720  1.5243
  383DG     C17 8803   2.911   5.413   1.177  0.1883  0.2199 -0.7562
  383DG     C18 8804   2.804   5.593   1.275 -0.4665  0.4784 -0.2575
  383DG     O19 8805   2.787   5.458   1.230  0.3951  0.0447  0.2151
  383DG     H20 8806   2.944   5.476   1.095 -0.0691  0.3752 -0.7421
  383DG     H21 8807   2.993   5.407   1.249 -0.6886  2.5380  0.5364
  383DG     H22 8808   2.889   5.633   1.220 -0.6518  1.7264  0.3318
  383DG     H23 8809   2.808   5.579   1.383 -0.8852 -1.4383 -0.4496
  384DG      C1 8810   1.735   2.194   3.621 -0.6480 -0.2157  0.6713
  384DG      C2 8811   1.400   1.559   3.318  0.7477  0.0520  0.3718
  384DG      H3 8812   1.670   2.280   3.636 -1.5212 -1.0009  1.5298
  384DG      H4 8813   1.839   2.227   3.621 -0.6064 -0.2383 -1.1619
  384DG      H5 8814   1.724   2.145   3.718  0.2532 -2.9211 -0.4925
  384DG      H6 8815   1.328   1.563   3.400  2.3501 -0.5345  1.8765
  384DG      H7 8816   1.347   1.534   3.226 -3.3082 -1.2947  2.7943
  384DG      H8 8817   1.474   1.482   3.335  1.0698  0.0602 -0.8850
  384DG      O9 8818   1.692   2.122   3.503 -0.3756  0.3430 -0.0083
  384DG     O10 8819   1.458   1.686   3.290  0.5446  0.5099 -0.1990
  384DG     C11 8820   1.792   2.034   3.450  0.3214  0.3273 -0.0493
  384DG     C12 8821   1.553   1.688   3.193 -0.4933 -0.0444 -0.3942
  384DG     H13 8822   1.822   1.962   3.526 -2.7250 -0.2361  0.7435
  384DG     H14 8823   1.880   2.096   3.431 -1.2776  2.4410 -1.0693
  384DG     H15 8824   1.512   1.651   3.099  0.0643 -0.7802 -0.3546
  384DG     H16 8825   1.631   1.614   3.212  1.5639  2.1295  0.1233
  384DG     C17 8826   1.755   1.980   3.313 -0.6805  0.3393  0.3498
  384DG     C18 8827   1.615   1.832   3.196 -0.0383 -0.6995  0.1545
  384DG     O19 8828   1.644   1.892   3.321 -0.1322  0.5313  0.0556
  384DG     H20 8829   1.844   1.926   3.281  1.0567  2.6852  0.9156
  384DG     H21 8830   1.739   2.057   3.238 -0.7066 -3.2285 -3.7166
  384DG     H22 8831   1.708   1.821   3.140 -0.5186  0.2279 -0.8584
  384DG     H23 8832   1.549   1.892   3.133  1.3901 -1.3636 -2.0837
  385DG      C1 8833   2.772   3.610   2.240  0.1258 -0.1341  0.1640
  385DG      C2 8834   2.985   3.936   2.732  0.1175 -0.3932  0.3152
  385DG      H3 8835   2.802   3.685   2.168 -1.3451  0.1880 -0.1588
  385DG      H4 8836   2.701   3.532   2.210 -1.4588  0.2850  2.5148
  385DG      H5 8837   2.867   3.562   2.260  1.9235  2.7212 -0.9352
  385DG      H6 8838   2.979   4.031   2.680 -1.3693 -0.7062 -0.1296
  385DG      H7 8839   3.001   3.949   2.839  0.9498 -0.4627  0.2045
  385DG      H8 8840   3.074   3.884   2.697  1.5395  2.0697  0.0489
  385DG      O9 8841   2.709   3.672   2.358  0.2984 -0.5313  0.0694
  385DG     O10 8842   2.862   3.853   2.711  0.2114 -0.1456  0.0804
  385DG     C11 8843   2.687   3.576   2.454  0.1334 -0.4597 -0.2013
  385DG     C12 8844   2.742   3.925   2.742  0.1483  0.2589  0.1758
  385DG     H13 8845   2.783   3.544   2.494 -0.2000 -1.2100  0.0058
  385DG     H14 8846   2.639   3.487   2.413  1.6150 -1.2709 -0.2462
  385DG     H15 8847   2.729   4.003   2.667  2.7288 -0.5930 -1.2701
  385DG     H16 8848   2.743   3.976   2.838  0.3282 -0.9635  0.8467
  385DG     C17 8849   2.598   3.647   2.561  0.2217  0.3901  0.8148
  385DG     C18 8850   2.635   3.814   2.729  0.1189 -0.6321  0.2142
  385DG     O19 8851   2.651   3.771   2.596  0.2920 -0.4430  0.1097
  385DG     H20 8852   2.583   3.573   2.639 -0.1095 -1.2482 -0.7190
  385DG     H21 8853   2.500   3.673   2.521 -0.2299 -2.1019  0.0829
  385DG     H22 8854   2.648   3.735   2.804 -0.9242 -1.1419 -0.1265
  385DG     H23 8855   2.534   3.847   2.752 -1.0285 -2.7774 -1.3527
  386DG      C1 8856   0.863   4.743   3.240  0.4404  0.7158 -0.5529
  386DG      C2 8857   1.097   4.276   3.699 -0.0974  0.6003 -0.0993
  386DG      H3 8858   0.877   4.691   3.145 -0.6274 -1.5250  0.4507
  386DG      H4 8859   0.835   4.848   3.226 -0.9721  0.3796 -0.4069
  386DG      H5 8860   0.776   4.703   3.292  1.7778 -0.5202  0.8329
  386DG      H6 8861   0.989   4.261   3.713 -0.0423  1.1776  1.1053
  386DG      H7 8862   1.119   4.218   3.610  1.0410  2.4266 -1.0655
  386DG      H8 8863   1.150   4.243   3.789  0.0481  0.4664 -0.2349
  386DG      O9 8864   0.960   4.730   3.347 -0.5270  0.1620  0.0047
  386DG     O10 8865   1.130   4.414   3.683  0.0446  0.8590  0.0032
  386DG     C11 8866   0.944   4.814   3.465 -0.2930 -0.5571  0.3277
  386DG     C12 8867   1.113   4.498   3.795 -0.4516  0.1358  0.8382
  386DG     H13 8868   0.847   4.810   3.515  0.3581 -0.4457  1.6547
  386DG     H14 8869   0.961   4.918   3.435 -0.2935 -1.1523 -1.9110
  386DG     H15 8870   1.200   4.485   3.859  0.1432 -0.9721 -0.1811
  386DG     H16 8871   1.021   4.484   3.852 -0.4272 -0.4198  0.7466
  386DG     C17 8872   1.055   4.784   3.567  0.1834 -0.2284 -0.3029
  386DG     C18 8873   1.136   4.641   3.739  0.7415 -0.1911 -0.4805
  386DG     O19 8874   1.042   4.658   3.632 -0.6416 -0.9863  0.4376
  386DG     H20 8875   1.064   4.859   3.645  0.3700  0.5568 -1.0619
  386DG     H21 8876   1.151   4.786   3.516  0.3896 -2.8181 -0.1364
  386DG     H22 8877   1.111   4.711   3.819 -1.5366  0.7943 -1.9545
  386DG     H23 8878   1.238   4.653   3.702  1.0943  0.8088  0.7459
  387DG      C1 8879   1.505   4.494   2.448 -0.2314  0.0756  0.1398
  387DG      C2 8880   1.784   5.111   2.306  0.0924 -0.1117  0.7236
  387DG      H3 8881   1.539   4.448   2.354 -2.1496  1.2829 -1.2227
  387DG      H4 8882   1.409   4.541   2.426  1.0059  1.8229 -1.9897
  387DG      H5 8883   1.493   4.408   2.513 -0.1353  0.9495  1.3314
  387DG      H6 8884   1.789   5.120   2.197  0.1443  1.8155  0.8482
  387DG      H7 8885   1.688   5.150   2.337  0.1310  0.6117 -0.0142
  387DG      H8 8886   1.863   5.172   2.351  1.4446 -0.2959 -1.2760
  387DG      O9 8887   1.590   4.599   2.502 -0.2354 -0.5496  0.3924
  387DG     O10 8888   1.786   4.980   2.358  0.5461  0.3781  0.1153
  387DG     C11 8889   1.711   4.557   2.554  0.9897 -0.3461  0.0073
  387DG     C12 8890   1.921   4.929   2.350 -0.8750 -0.0171 -0.4067
  387DG     H13 8891   1.715   4.448   2.566 -0.4423 -0.7725 -2.6590
  387DG     H14 8892   1.734   4.598   2.652  1.3582 -1.2040  0.2931
  387DG     H15 8893   1.977   4.968   2.435 -0.4659  0.9733 -1.1154
  387DG     H16 8894   1.976   4.958   2.261  1.0753 -1.6814  0.1774
  387DG     C17 8895   1.827   4.599   2.463 -0.0281 -0.9666 -0.6903
  387DG     C18 8896   1.913   4.776   2.343  0.0334 -1.3394  0.6010
  387DG     O19 8897   1.808   4.731   2.416  0.0391  0.3566  0.5457
  387DG     H20 8898   1.836   4.519   2.390 -2.6085 -1.0744 -0.9946
  387DG     H21 8899   1.917   4.597   2.524  0.0314  2.0752 -0.5229
  387DG     H22 8900   1.921   4.740   2.240  2.8525  0.1183  0.2085
  387DG     H23 8901   2.007   4.746   2.389  0.6255 -0.3864  0.0515
  388DG      C1 8902   5.397   2.718   1.318 -0.5665  0.3475 -0.1067
  388DG      C2 8903   6.139   2.693   0.964 -0.9178 -0.0926 -0.1246
  388DG      H3 8904   5.312   2.695   1.252  0.9382 -0.9230 -1.7086
  388DG      H4 8905   5.376   2.795   1.392 -1.1006 -1.1937  1.4085
  388DG      H5 8906   5.408   2.623   1.370  0.2890  0.2378 -0.4764
  388DG      H6 8907   6.216   2.634   1.013 -0.6345  1.7976  1.8212
  388DG      H7 8908   6.132   2.647   0.865  1.9312  0.3479 -0.6356
  388DG      H8 8909   6.179   2.793   0.948 -0.2690 -0.3663 -0.2444
  388DG      O9 8910   5.511   2.742   1.234  0.7758  0.3357 -0.1691
  388DG     O10 8911   6.022   2.690   1.049  0.1896 -0.1215  0.2120
  388DG     C11 8912   5.488   2.853   1.155 -0.2472 -0.2896  0.6330
  388DG     C12 8913   5.921   2.758   0.980 -0.3082  0.2147  0.5169
  388DG     H13 8914   5.501   2.950   1.202 -1.4673  0.2087 -0.0179
  388DG     H14 8915   5.386   2.843   1.117  0.3419  0.2161 -1.1930
  388DG     H15 8916   5.884   2.717   0.886 -1.8627 -1.0451  1.6150
  388DG     H16 8917   5.959   2.856   0.951  1.6027 -0.3710  0.9510
  388DG     C17 8918   5.576   2.847   1.022 -0.0845 -0.0222 -0.0560
  388DG     C18 8919   5.800   2.769   1.075 -0.3559 -0.3119 -0.3204
  388DG     O19 8920   5.714   2.869   1.019  0.0294  0.2856  0.3872
  388DG     H20 8921   5.525   2.923   0.964  1.3191  0.9645 -0.0325
  388DG     H21 8922   5.560   2.755   0.965 -0.8475  1.2137 -1.9255
  388DG     H22 8923   5.757   2.679   1.119  1.3363 -1.6089 -1.2143
  388DG     H23 8924   5.823   2.818   1.170 -1.6801 -0.5490  0.1392
  389DG      C1 8925   4.087   1.445   2.167  0.5066  0.7233  0.1059
  389DG      C2 8926   4.574   1.882   2.335 -0.0390 -0.1341 -0.1840
  389DG      H3 8927   4.027   1.450   2.076 -0.2678 -2.0354  0.3767
  389DG      H4 8928   4.045   1.514   2.239 -1.5805 -0.6885  0.3293
  389DG      H5 8929   4.071   1.345   2.207  1.9631  0.1987 -0.5425
  389DG      H6 8930   4.546   1.946   2.252  0.8223  0.4633 -0.0263
  389DG      H7 8931   4.510   1.894   2.423 -0.8099 -1.8954 -0.4550
  389DG      H8 8932   4.675   1.908   2.368 -0.0351 -0.3968  0.0177
  389DG      O9 8933   4.226   1.472   2.149  0.4919 -0.1184 -0.0424
  389DG     O10 8934   4.580   1.747   2.288 -0.5204 -0.0150  0.0775
  389DG     C11 8935   4.282   1.418   2.032 -0.0594  0.2277 -0.2712
  389DG     C12 8936   4.622   1.731   2.159  0.0689 -0.0680 -0.1742
  389DG     H13 8937   4.254   1.481   1.947  0.2306  0.6882 -0.0308
  389DG     H14 8938   4.254   1.315   2.011 -0.9461 -0.2567  2.8480
  389DG     H15 8939   4.730   1.744   2.161  0.0987 -0.3600  0.4780
  389DG     H16 8940   4.566   1.787   2.085 -1.0660 -0.2598  0.5186
  389DG     C17 8941   4.433   1.438   2.043  0.2099 -0.3711  0.0492
  389DG     C18 8942   4.611   1.586   2.110  0.0048 -0.1458  0.2151
  389DG     O19 8943   4.472   1.558   2.108 -0.1880  0.5328 -0.2397
  389DG     H20 8944   4.476   1.436   1.943 -1.0753  2.3193 -0.6650
  389DG     H21 8945   4.484   1.364   2.104  1.0087  0.1353  0.0197
  389DG     H22 8946   4.642   1.577   2.006  1.4777  0.3818  0.5777
  389DG     H23 8947   4.677   1.519   2.166  0.4446  1.0358  1.1657
  390DG      C1 8948   5.032   2.848   1.118 -0.2314 -0.8106 -0.1963
  390DG      C2 8949   5.427   3.232   1.537  0.3825  0.2483  0.2538
  390DG      H3 8950   4.937   2.888   1.082 -0.4379 -0.7833  0.3848
  390DG      H4 8951   5.055   2.887   1.217  4.1593  0.4068 -1.4636
  390DG      H5 8952   5.011   2.744   1.142  0.1666 -0.8627 -0.0683
  390DG      H6 8953   5.347   3.286   1.588  0.0473  0.7259 -0.7524
  390DG      H7 8954   5.427   3.132   1.581  0.2758  0.7056  1.3260
  390DG      H8 8955   5.519   3.280   1.571 -1.0969  1.5176  2.7704
  390DG      O9 8956   5.136   2.861   1.027  0.1779 -0.2919  0.7298
  390DG     O10 8957   5.415   3.238   1.396 -0.1844  0.1924  0.2638
  390DG     C11 8958   5.141   2.979   0.944 -0.1972  0.1173  0.3790
  390DG     C12 8959   5.292   3.191   1.348  0.9259  0.6444  0.8789
  390DG     H13 8960   5.049   3.036   0.942 -0.8741 -0.9699 -0.1387
  390DG     H14 8961   5.175   2.951   0.844 -1.4050  3.4344 -1.0857
  390DG     H15 8962   5.198   3.239   1.373  0.5949  0.5993 -0.2277
  390DG     H16 8963   5.293   3.087   1.380  0.8544  0.0999 -0.7868
  390DG     C17 8964   5.236   3.079   0.996  0.0232  0.1678 -0.3493
  390DG     C18 8965   5.302   3.187   1.196  0.0783 -0.2806 -0.2655
  390DG     O19 8966   5.205   3.094   1.140 -0.7745 -0.1072  0.5665
  390DG     H20 8967   5.224   3.169   0.937  2.0413 -1.0100 -2.7218
  390DG     H21 8968   5.335   3.039   0.975 -0.2875 -0.9853  0.3174
  390DG     H22 8969   5.295   3.292   1.165  0.6458 -0.2933 -0.4540
  390DG     H23 8970   5.397   3.146   1.162  0.6163  0.1024  0.7446
  391DG      C1 8971   3.466   4.384   4.894  0.2359 -0.8148  1.5003
  391DG      C2 8972   2.640   4.266   4.945 -0.2361 -0.3386  0.2270
  391DG      H3 8973   3.452   4.310   4.814  1.2491  0.3697  0.1726
  391DG      H4 8974   3.475   4.320   4.982 -0.6419 -2.0419  0.7418
  391DG      H5 8975   3.556   4.444   4.884 -1.5821  2.1555  1.9326
  391DG      H6 8976   2.650   4.161   4.920 -1.9659 -0.8189  1.3978
  391DG      H7 8977   2.618   4.265   5.052 -1.0935  0.4953  0.0739
  391DG      H8 8978   2.550   4.304   4.896 -1.8903 -3.0997  0.9309
  391DG      O9 8979   3.360   4.474   4.898 -0.5158 -0.3996 -0.7290
  391DG     O10 8980   2.755   4.338   4.914 -0.2397 -0.1555  0.6591
  391DG     C11 8981   3.235   4.411   4.923  0.7351  0.1996  0.1690
  391DG     C12 8982   2.752   4.467   4.973  0.0007 -0.1990  0.1513
  391DG     H13 8983   3.257   4.348   5.009 -0.7570  0.3307  0.6652
  391DG     H14 8984   3.200   4.348   4.842  1.0112 -0.6254  0.6822
  391DG     H15 8985   2.732   4.465   5.080 -1.3280  2.1927  0.0404
  391DG     H16 8986   2.671   4.523   4.927 -0.0799  0.2205  0.7879
  391DG     C17 8987   3.125   4.516   4.948  0.3153 -0.3440  0.7766
  391DG     C18 8988   2.877   4.548   4.942  0.0653  0.1621  1.3292
  391DG     O19 8989   2.991   4.461   4.972  0.6909 -0.0679 -0.2159
  391DG     H20 8990   3.116   4.586   4.865  1.8367  0.1113  0.9771
  391DG     H21 8991   3.167   4.581   5.025  1.5304 -0.2794  0.0852
  391DG     H22 8992   2.880   4.546   4.833  1.0956  0.0324  1.3485
  391DG     H23 8993   2.882   4.641   4.999 -0.5456  1.2946 -0.4046
  392DG      C1 8994   3.658   0.136   1.890 -0.2566 -0.3790  0.8604
  392DG      C2 8995   3.182  -0.485   1.627 -0.8770  0.5758  0.1820
  392DG      H3 8996   3.591   0.184   1.818 -1.3281 -0.2006  1.9297
  392DG      H4 8997   3.750   0.188   1.914 -0.9865  1.2029  0.3664
  392DG      H5 8998   3.608   0.117   1.986 -1.3880 -0.3267  0.2968
  392DG      H6 8999   3.165  -0.477   1.734 -1.8786  1.9013 -0.0465
  392DG      H7 9000   3.107  -0.434   1.565 -1.2767 -0.0703  0.1184
  392DG      H8 9001   3.169  -0.593   1.618 -1.6640  0.1615  4.3462
  392DG      O9 9002   3.690   0.005   1.839 -0.3269  0.2001 -0.1184
  392DG     O10 9003   3.316  -0.429   1.615  0.3651  0.1289 -0.2702
  392DG     C11 9004   3.575  -0.076   1.834  0.5530  0.1647  0.5946
  392DG     C12 9005   3.417  -0.501   1.686 -0.6383 -0.0284  0.4831
  392DG     H13 9006   3.504  -0.036   1.762  0.7137 -1.3973 -0.4778
  392DG     H14 9007   3.520  -0.096   1.926 -3.0079 -1.1512 -1.6180
  392DG     H15 9008   3.444  -0.593   1.633 -1.8146 -0.2712  0.2719
  392DG     H16 9009   3.387  -0.532   1.786  2.8056 -2.2447  1.0008
  392DG     C17 9010   3.614  -0.213   1.780 -0.2296 -0.1041 -0.4162
  392DG     C18 9011   3.532  -0.410   1.687 -0.7728 -0.0082 -0.8536
  392DG     O19 9012   3.505  -0.291   1.766  0.8535  0.1687  0.4799
  392DG     H20 9013   3.671  -0.268   1.855 -0.4463  2.6181  1.9119
  392DG     H21 9014   3.675  -0.218   1.689  0.6143  1.3780  0.0412
  392DG     H22 9015   3.616  -0.470   1.723 -1.0556 -0.7380 -1.3821
  392DG     H23 9016   3.543  -0.374   1.585 -2.0670 -2.8173 -2.0958
  393DG      C1 9017   0.856   4.344   4.588 -0.0329  0.2720 -0.5714
  393DG      C2 9018   1.466   4.162   4.998 -0.5071  0.1979 -1.0752
  393DG      H3 9019   0.926   4.423   4.613  1.0689 -0.2864 -1.7580
  393DG      H4 9020   0.763   4.355   4.644  1.0058  0.7811  1.1104
  393DG      H5 9021   0.833   4.353   4.481  1.3121 -2.5890 -1.2093
  393DG      H6 9022   1.559   4.195   4.951  0.3583  1.1887  1.1820
  393DG      H7 9023   1.417   4.235   5.062  0.4260  0.0483 -0.1644
  393DG      H8 9024   1.488   4.078   5.063 -3.2532  0.0057 -0.2923
  393DG      O9 9025   0.910   4.217   4.629 -0.0326  0.1031  0.4276
  393DG     O10 9026   1.380   4.125   4.897 -0.2511 -0.5660  0.5125
  393DG     C11 9027   1.024   4.181   4.542  0.4633 -0.0913  0.0175
  393DG     C12 9028   1.278   4.036   4.933  0.0913  0.0849 -0.5875
  393DG     H13 9029   1.101   4.253   4.517  0.6655 -0.8438 -1.6726
  393DG     H14 9030   0.984   4.135   4.451 -0.1677  0.2853  0.0956
  393DG     H15 9031   1.211   4.102   4.988  2.4178  1.3814  0.8571
  393DG     H16 9032   1.310   3.953   4.995  0.5088 -0.2379 -1.2214
  393DG     C17 9033   1.092   4.066   4.613  0.3476  0.1167  0.0112
  393DG     C18 9034   1.206   3.988   4.804 -0.1849  0.9307  0.3729
  393DG     O19 9035   1.158   4.105   4.732 -0.3536  0.3677 -0.3764
  393DG     H20 9036   1.167   4.028   4.543 -0.1261  0.5551 -0.7466
  393DG     H21 9037   1.016   3.991   4.635 -1.5106  1.4346 -1.5348
  393DG     H22 9038   1.279   3.933   4.746  1.0226  3.4498 -0.6598
  393DG     H23 9039   1.127   3.923   4.840 -0.1825 -0.1908 -1.5211
  394DG      C1 9040   0.819   1.615   3.599 -0.3432 -0.6559 -0.2806
  394DG      C2 9041   1.287   1.886   4.179  0.7062 -0.2485 -0.7498
  394DG      H3 9042   0.850   1.525   3.653  0.9151 -0.9078 -1.3607
  394DG      H4 9043   0.892   1.619   3.518  0.6362 -0.6166  0.5832
  394DG      H5 9044   0.720   1.595   3.559  0.5899 -2.8780 -1.6618
  394DG      H6 9045   1.330   1.955   4.106  0.5414 -0.4895 -1.0730
  394DG      H7 9046   1.289   1.926   4.281 -2.7670  0.1419 -0.7269
  394DG      H8 9047   1.345   1.794   4.179 -0.8941 -1.3469 -2.7484
  394DG      O9 9048   0.837   1.731   3.682  0.9220  0.4507  0.5119
  394DG     O10 9049   1.151   1.869   4.144 -0.0752  0.1488  0.4664
  394DG     C11 9050   0.767   1.716   3.801  0.3696  0.1080  0.0759
  394DG     C12 9051   1.147   1.805   4.015  0.3640 -0.1858  0.7783
  394DG     H13 9052   0.785   1.625   3.859 -0.5647  1.1297  2.0522
  394DG     H14 9053   0.664   1.717   3.765  0.2402  0.0273  0.4372
  394DG     H15 9054   1.212   1.718   4.010  0.0630 -0.3427 -0.7576
  394DG     H16 9055   1.187   1.867   3.934 -0.2832 -1.1890 -0.3403
  394DG     C17 9056   0.785   1.837   3.892  0.3914 -0.0066 -0.0212
  394DG     C18 9057   1.001   1.766   3.989  0.1307 -0.4497 -0.0692
  394DG     O19 9058   0.921   1.866   3.922 -0.0537 -0.2945 -0.1197
  394DG     H20 9059   0.734   1.821   3.987  1.1810 -0.5949  0.3127
  394DG     H21 9060   0.734   1.923   3.849 -1.6920 -1.7574 -1.2691
  394DG     H22 9061   0.989   1.671   3.937  0.5062  0.5139 -2.0392
  394DG     H23 9062   0.957   1.740   4.085  1.3125 -0.2932  0.5352
  395DG      C1 9063   2.055   4.890   4.645  0.3053  0.0557  0.1784
  395DG      C2 9064   2.192   5.000   5.300  0.4991 -0.3596 -0.4059
  395DG      H3 9065   2.144   4.941   4.610  0.0959  0.3288  0.0420
  395DG      H4 9066   1.983   4.874   4.565 -0.4920 -1.2742  1.1038
  395DG      H5 9067   2.091   4.787   4.657 -0.3362 -0.1403  0.5092
  395DG      H6 9068   2.191   5.089   5.364  2.0203 -0.3920 -0.3062
  395DG      H7 9069   2.182   4.913   5.364 -0.6763  1.4047  1.9902
  395DG      H8 9070   2.283   5.028   5.247 -1.3628  2.6537 -2.3123
  395DG      O9 9071   1.992   4.939   4.762  0.1592 -0.4444 -0.3241
  395DG     O10 9072   2.086   4.999   5.202  0.0364  0.1707  0.2431
  395DG     C11 9073   1.865   4.890   4.796  0.1254 -0.3052  0.1361
  395DG     C12 9074   1.973   4.930   5.255 -0.1944 -0.7209 -0.2948
  395DG     H13 9075   1.869   4.781   4.804 -0.3046 -0.2309  1.9073
  395DG     H14 9076   1.792   4.917   4.719  2.4318  1.7471 -1.4789
  395DG     H15 9077   1.943   4.966   5.353  0.9009  1.8517 -0.8293
  395DG     H16 9078   1.984   4.822   5.256  0.3269 -0.7049 -1.9622
  395DG     C17 9079   1.822   4.955   4.926  0.7814  0.1852  0.6702
  395DG     C18 9080   1.868   4.966   5.156 -0.4964 -0.1754  0.0558
  395DG     O19 9081   1.910   4.912   5.032  0.3384  0.2525  0.7129
  395DG     H20 9082   1.723   4.917   4.951  0.0776  0.2195 -1.7754
  395DG     H21 9083   1.806   5.063   4.925 -0.2805  0.0826  2.4557
  395DG     H22 9084   1.769   4.930   5.184 -0.7210  1.2565  1.2463
  395DG     H23 9085   1.865   5.074   5.138  1.6326  0.0234  0.6387
  396DG      C1 9086   1.720   0.923   2.507 -0.3533  0.4495 -0.4167
  396DG      C2 9087   2.272   0.834   2.897  0.1409  0.5502  0.0181
  396DG      H3 9088   1.797   0.905   2.432 -1.7440 -1.6925 -1.4622
  396DG      H4 9089   1.701   1.028   2.530 -1.4580  0.6518 -2.0162
  396DG      H5 9090   1.629   0.877   2.468 -1.3894 -0.2640  2.5872
  396DG      H6 9091   2.291   0.746   2.959 -0.7912  0.2876 -0.0446
  396DG      H7 9092   2.306   0.804   2.798  0.9220 -2.5034  1.0902
  396DG      H8 9093   2.314   0.922   2.945 -1.4278  0.4329  1.7176
  396DG      O9 9094   1.751   0.839   2.621  0.0286  0.1638 -0.0379
  396DG     O10 9095   2.139   0.869   2.889  0.6721  0.8724 -0.1811
  396DG     C11 9096   1.666   0.843   2.735 -0.5410  0.1378 -0.3277
  396DG     C12 9097   2.067   0.873   3.013 -0.1913 -0.0270 -0.3895
  396DG     H13 9098   1.655   0.746   2.782  0.6417 -0.6100 -1.4994
  396DG     H14 9099   1.570   0.891   2.718 -0.9818 -0.6377 -0.0673
  396DG     H15 9100   2.117   0.944   3.078 -2.7229  1.9285 -0.4317
  396DG     H16 9101   2.054   0.778   3.066  0.1845 -0.4959 -1.1308
  396DG     C17 9102   1.731   0.937   2.840 -0.4346 -0.5005 -0.3359
  396DG     C18 9103   1.920   0.927   2.982  0.0577 -0.7498  0.1183
  396DG     O19 9104   1.866   0.882   2.863 -0.7767 -0.0845  0.4002
  396DG     H20 9105   1.679   0.959   2.933 -2.0896  2.9070 -1.8659
  396DG     H21 9106   1.737   1.036   2.793 -1.8718 -0.6191 -0.8122
  396DG     H22 9107   1.850   0.923   3.066 -1.0376  1.0432 -0.6500
  396DG     H23 9108   1.926   1.034   2.960 -3.2387 -0.8507 -1.8323
  397DG      C1 9109   3.948   0.087   2.123 -0.0344  0.2887 -0.5778
  397DG      C2 9110   4.045   0.290   2.774  0.1523  0.4861 -0.8308
  397DG      H3 9111   3.889   0.006   2.165  1.7714 -0.5660  0.4157
  397DG      H4 9112   4.054   0.066   2.111 -0.6599 -3.0233 -1.0629
  397DG      H5 9113   3.924   0.112   2.019  0.9096  0.0496 -0.8548
  397DG      H6 9114   4.049   0.368   2.850 -1.4363  0.2704 -0.5025
  397DG      H7 9115   3.962   0.220   2.786  1.2467 -0.7674 -0.2842
  397DG      H8 9116   4.143   0.243   2.780 -0.0533  0.0793 -0.5973
  397DG      O9 9117   3.947   0.202   2.212  0.1122 -0.5197 -0.3595
  397DG     O10 9118   4.025   0.353   2.650  0.9940 -0.3398 -0.4225
  397DG     C11 9119   3.841   0.298   2.186  0.3285 -0.2871 -0.1454
  397DG     C12 9120   3.907   0.435   2.648  0.7575 -0.3877  0.2214
  397DG     H13 9121   3.747   0.249   2.209 -0.2036 -1.1964 -3.6628
  397DG     H14 9122   3.828   0.319   2.080 -0.7058  0.1736  0.0604
  397DG     H15 9123   3.918   0.521   2.713  0.1177  0.7142 -1.0736
  397DG     H16 9124   3.815   0.384   2.678  0.7659  0.7335  2.2654
  397DG     C17 9125   3.864   0.420   2.275 -0.0240 -0.2457  0.4096
  397DG     C18 9126   3.906   0.491   2.506  0.3664  0.3650  0.2322
  397DG     O19 9127   3.884   0.386   2.407  0.5052  0.0305  0.0021
  397DG     H20 9128   3.776   0.485   2.267  0.5692  0.5721  0.4465
  397DG     H21 9129   3.952   0.469   2.234 -0.1206 -0.5668 -0.1877
  397DG     H22 9130   3.836   0.572   2.485  0.0723 -0.1097 -0.6509
  397DG     H23 9131   3.999   0.537   2.475 -0.0225  1.9520  1.3077
  398DG      C1 9132   1.075   2.061   3.716  0.5194  0.7720  0.8416
  398DG      C2 9133   0.955   2.264   3.084  0.1179  0.5527  0.4838
  398DG      H3 9134   1.069   2.073   3.825  0.6417  1.1625  0.8049
  398DG      H4 9135   1.182   2.055   3.694  0.0272 -0.1840 -1.5606
  398DG      H5 9136   1.043   1.962   3.685 -1.1574  2.2478 -2.5879
  398DG      H6 9137   1.059   2.290   3.065 -0.0788  0.1589 -1.3695
  398DG      H7 9138   0.938   2.159   3.058 -0.4157  0.7676 -0.0580
  398DG      H8 9139   0.906   2.323   3.007 -0.1061  2.0823  1.7471
  398DG      O9 9140   0.998   2.152   3.649 -0.1150  0.2627  0.3008
  398DG     O10 9141   0.914   2.306   3.210  0.8033  0.2216  0.2853
  398DG     C11 9142   0.861   2.142   3.673 -0.0087 -0.3906  0.1377
  398DG     C12 9143   0.774   2.301   3.228 -0.3506  0.8583  0.3018
  398DG     H13 9144   0.848   2.143   3.781 -0.0821 -0.9433  0.1397
  398DG     H14 9145   0.827   2.046   3.633  2.9757 -0.5285 -2.5356
  398DG     H15 9146   0.736   2.202   3.202 -0.7495  1.5789 -2.0346
  398DG     H16 9147   0.723   2.362   3.154 -0.3563  0.4759 -0.0134
  398DG     C17 9148   0.783   2.256   3.595 -0.8080 -0.3585  0.2581
  398DG     C18 9149   0.739   2.339   3.371 -0.3580  0.5419  0.9580
  398DG     O19 9150   0.797   2.245   3.453  0.3016 -0.7180  0.1098
  398DG     H20 9151   0.831   2.349   3.625 -0.6822  0.0574 -1.1536
  398DG     H21 9152   0.679   2.249   3.626  0.1151  0.5073  4.1336
  398DG     H22 9153   0.772   2.435   3.410 -1.4563  0.3525  2.4250
  398DG     H23 9154   0.631   2.328   3.369 -0.5283  1.8549  1.9473
  399DG      C1 9155   2.539   3.415   3.874 -0.4612 -0.1278 -0.7423
  399DG      C2 9156   3.066   3.750   3.750 -0.1013 -0.3085  0.2180
  399DG      H3 9157   2.548   3.408   3.765 -1.1456 -1.1765 -0.7543
  399DG      H4 9158   2.488   3.508   3.899  3.1822  1.5383  1.0882
  399DG      H5 9159   2.477   3.332   3.908 -0.1979  0.6772  1.8546
  399DG      H6 9160   3.093   3.678   3.673  2.3015  0.3223  0.3967
  399DG      H7 9161   2.980   3.802   3.708 -1.3230 -1.7337  0.8831
  399DG      H8 9162   3.149   3.818   3.772  0.2735 -0.8501  0.4968
  399DG      O9 9163   2.660   3.431   3.943 -0.1149  0.1023 -0.4844
  399DG     O10 9164   3.021   3.686   3.872 -0.0649 -0.8855 -0.0730
  399DG     C11 9165   2.649   3.460   4.080  0.2188 -0.0483  0.2169
  399DG     C12 9166   2.994   3.769   3.988  0.4267  0.6940  0.3233
  399DG     H13 9167   2.607   3.376   4.135 -2.4677  1.4315  0.6659
  399DG     H14 9168   2.578   3.543   4.091  1.6582  1.8585 -3.3230
  399DG     H15 9169   2.921   3.842   3.952 -1.3187 -0.9893  0.2667
  399DG     H16 9170   3.082   3.822   4.023  1.8677  0.0033 -1.9983
  399DG     C17 9171   2.788   3.502   4.134  0.0583  0.7634  0.4357
  399DG     C18 9172   2.950   3.679   4.106 -0.0136  0.2777 -0.1656
  399DG     O19 9173   2.837   3.609   4.051  0.5729  0.1681 -0.5491
  399DG     H20 9174   2.869   3.430   4.119 -0.8553 -0.1231 -0.3075
  399DG     H21 9175   2.788   3.521   4.242  0.7275 -0.5420  0.6839
  399DG     H22 9176   3.031   3.609   4.125 -1.8703 -2.5311 -1.9249
  399DG     H23 9177   2.907   3.738   4.187 -2.4809  0.0388 -1.2175
  400DG      C1 9178   4.025   1.667   3.098  0.5035  0.5327 -0.2277
  400DG      C2 9179   3.787   1.084   2.996 -0.7362 -0.0743 -0.0395
  400DG      H3 9180   3.961   1.750   3.129 -0.2791  0.8858 -2.5773
  400DG      H4 9181   4.094   1.707   3.024 -1.5981  0.5533 -2.3044
  400DG      H5 9182   4.079   1.628   3.185  0.9910 -0.5335 -0.9936
  400DG      H6 9183   3.891   1.077   3.029 -0.5531 -2.3898 -0.9619
  400DG      H7 9184   3.723   1.089   3.085 -0.0857 -0.4503  0.4640
  400DG      H8 9185   3.752   0.987   2.963 -2.1919 -1.4021  4.5886
  400DG      O9 9186   3.932   1.574   3.038  0.2314  0.6941 -0.5050
  400DG     O10 9187   3.772   1.200   2.915 -0.2343 -0.0152  0.3199
  400DG     C11 9188   3.864   1.620   2.923  0.4826 -0.4828 -0.6288
  400DG     C12 9189   3.851   1.197   2.794 -0.7094  0.5653  0.1319
  400DG     H13 9190   3.939   1.651   2.851  1.0201 -1.1708 -0.3677
  400DG     H14 9191   3.803   1.708   2.947  0.8093 -0.4119 -0.0434
  400DG     H15 9192   3.822   1.115   2.728 -0.9000 -1.0370  2.0981
  400DG     H16 9193   3.956   1.179   2.814 -1.0440  0.5394  2.0932
  400DG     C17 9194   3.782   1.509   2.862  0.3343 -0.4135 -0.1987
  400DG     C18 9195   3.838   1.331   2.720  0.4966  0.1935 -0.8841
  400DG     O19 9196   3.888   1.428   2.810  0.3447 -0.1410 -0.1807
  400DG     H20 9197   3.718   1.551   2.785 -1.2850  1.2349  1.9296
  400DG     H21 9198   3.722   1.455   2.935 -0.7430  0.3037 -0.5287
  400DG     H22 9199   3.918   1.326   2.646 -0.6059 -0.2215 -2.0873
  400DG     H23 9200   3.745   1.350   2.668  0.6755  0.8327 -0.9777
  401DG      C1 9201   3.970   3.683   2.719 -0.5088  0.0821  0.7830
  401DG      C2 9202   3.677   3.488   2.105 -0.3549 -0.3351 -0.0802
  401DG      H3 9203   4.059   3.620   2.722 -1.5987 -1.4801  1.8327
  401DG      H4 9204   3.886   3.638   2.772  0.0687  0.9734  2.5557
  401DG      H5 9205   4.001   3.766   2.784 -0.0229 -0.0357  0.7012
  401DG      H6 9206   3.602   3.546   2.051  0.8050  0.3759 -0.9629
  401DG      H7 9207   3.740   3.432   2.036 -1.0731 -2.5945  0.9945
  401DG      H8 9208   3.622   3.422   2.172  0.0176  0.3073  0.8651
  401DG      O9 9209   3.943   3.730   2.585  0.9360 -0.2548  0.3827
  401DG     O10 9210   3.757   3.581   2.181  0.4550 -0.3823 -0.5521
  401DG     C11 9211   4.056   3.780   2.512  0.0115  0.2711 -0.1271
  401DG     C12 9212   3.840   3.659   2.096  0.0642 -0.1356  0.1103
  401DG     H13 9213   4.127   3.699   2.497 -0.1569 -0.2179  1.5287
  401DG     H14 9214   4.117   3.857   2.559  2.1859 -0.7145 -1.2109
  401DG     H15 9215   3.770   3.714   2.033 -1.1017  1.0286  2.2999
  401DG     H16 9216   3.903   3.591   2.039 -0.1633  0.5341 -0.9661
  401DG     C17 9217   4.030   3.824   2.370 -1.3943  0.1802 -0.2706
  401DG     C18 9218   3.923   3.764   2.172 -0.0827  0.0219  0.5572
  401DG     O19 9219   3.951   3.728   2.307  0.0296 -0.0646  0.3119
  401DG     H20 9220   4.126   3.829   2.319 -1.9144 -1.5664 -1.5181
  401DG     H21 9221   3.981   3.921   2.356  1.0567  1.5218 -0.1931
  401DG     H22 9222   4.021   3.772   2.125 -0.7950 -1.3413 -1.2374
  401DG     H23 9223   3.885   3.866   2.169  2.3665  0.9896 -1.6112
  402DG      C1 9224   3.468   4.693   4.682 -0.1272  0.7136 -0.4476
  402DG      C2 9225   3.697   4.291   4.193 -0.5173 -0.0102 -0.1528
  402DG      H3 9226   3.423   4.792   4.682 -2.2632 -0.2079  0.3069
  402DG      H4 9227   3.511   4.689   4.782  0.9952  3.6004 -0.7139
  402DG      H5 9228   3.396   4.612   4.693  0.3862  0.2900 -0.1246
  402DG      H6 9229   3.752   4.223   4.258  0.7924  1.6708  0.5697
  402DG      H7 9230   3.591   4.265   4.201 -0.6487  0.6254  0.2364
  402DG      H8 9231   3.729   4.293   4.089  2.4228 -1.0306  0.6463
  402DG      O9 9232   3.563   4.670   4.577 -0.3688  0.2257  0.4772
  402DG     O10 9233   3.700   4.430   4.235  0.0571 -0.0578 -0.0997
  402DG     C11 9234   3.668   4.764   4.563 -0.0304 -0.1039  0.3813
  402DG     C12 9235   3.835   4.466   4.255  0.1196  0.0014  0.3234
  402DG     H13 9236   3.748   4.732   4.630 -1.6746 -2.1033  1.4913
  402DG     H14 9237   3.633   4.862   4.595  0.7620  0.4219 -0.2869
  402DG     H15 9238   3.890   4.448   4.163 -2.3832  1.2502 -1.5524
  402DG     H16 9239   3.892   4.405   4.324  1.1829 -0.1242 -0.6431
  402DG     C17 9240   3.723   4.766   4.424 -0.1487  0.1956  0.4416
  402DG     C18 9241   3.841   4.617   4.278  0.0478 -0.3504 -0.2321
  402DG     O19 9242   3.752   4.636   4.385 -0.0764 -0.0609  0.2568
  402DG     H20 9243   3.808   4.833   4.413  0.3202 -0.4658  0.0094
  402DG     H21 9244   3.651   4.798   4.349 -1.3759 -1.1665  0.9840
  402DG     H22 9245   3.947   4.636   4.294  1.1966 -2.1498 -4.3369
  402DG     H23 9246   3.813   4.671   4.188  1.8624  0.1418 -0.5502
  403DG      C1 9247   0.259   2.610   4.323 -0.9124 -0.1322  0.7656
  403DG      C2 9248   0.115   3.198   3.676  0.2851  0.3456 -0.1617
  403DG      H3 9249   0.316   2.644   4.410 -0.2168  4.2212 -1.1328
  403DG      H4 9250   0.305   2.522   4.278 -1.0299 -0.0623  0.5073
  403DG      H5 9251   0.154   2.582   4.334 -1.0413  0.5440  1.3488
  403DG      H6 9252   0.101   3.300   3.640  0.8454  0.6568  0.4958
  403DG      H7 9253   0.216   3.179   3.642 -0.0701  1.3017 -1.8735
  403DG      H8 9254   0.039   3.141   3.621  0.4375  0.3936 -0.4250
  403DG      O9 9255   0.275   2.726   4.239 -0.4551 -0.4367 -0.2771
  403DG     O10 9256   0.096   3.191   3.817 -0.1602  0.0321  0.2624
  403DG     C11 9257   0.186   2.830   4.279  0.3874 -0.6486  0.4707
  403DG     C12 9258   0.084   3.057   3.872 -0.6021 -0.2397  0.9498
  403DG     H13 9259   0.197   2.864   4.382 -0.3041 -0.3838  0.4649
  403DG     H14 9260   0.085   2.789   4.276  0.1046  0.0394  0.2751
  403DG     H15 9261   0.181   3.013   3.851 -0.0913  1.2313  0.0558
  403DG     H16 9262   0.013   2.996   3.816  0.4717 -1.0261  0.4106
  403DG     C17 9263   0.191   2.956   4.199  0.3581  0.3523  0.0963
  403DG     C18 9264   0.082   3.063   4.023 -0.2363  0.3412  0.1254
  403DG     O19 9265   0.129   2.939   4.076 -0.1624  0.0999  0.7706
  403DG     H20 9266   0.294   2.992   4.189  0.7909 -0.4543  1.4008
  403DG     H21 9267   0.150   3.041   4.255  1.3250 -0.2813  1.8607
  403DG     H22 9268   0.149   3.145   4.049  0.9903 -0.0313 -1.6472
  403DG     H23 9269  -0.020   3.089   4.049  0.2892  0.3895  2.3152
  404DG      C1 9270   3.235   5.056   1.233  0.3634  0.0932  0.2818
  404DG      C2 9271   2.633   4.514   1.214 -0.0601  0.2346 -0.0152
  404DG      H3 9272   3.274   5.049   1.335 -0.7268  0.7225  0.7594
  404DG      H4 9273   3.141   5.111   1.238  0.5212  0.2587  2.6695
  404DG      H5 9274   3.308   5.110   1.173  0.4961 -1.6408 -1.2279
  404DG      H6 9275   2.597   4.606   1.167 -0.6200  0.6799  1.2600
  404DG      H7 9276   2.592   4.429   1.159  0.2436 -0.0885  0.2491
  404DG      H8 9277   2.589   4.509   1.313  0.1828  1.1637  0.1500
  404DG      O9 9278   3.211   4.927   1.168 -0.1757  0.0031  0.2434
  404DG     O10 9279   2.767   4.508   1.221 -0.6377 -0.0217  0.9103
  404DG     C11 9280   3.118   4.847   1.230  0.0080 -0.3344 -0.2356
  404DG     C12 9281   2.830   4.495   1.096  0.3535 -0.3865  1.3027
  404DG     H13 9282   3.026   4.894   1.266  1.5793  0.3279  3.3801
  404DG     H14 9283   3.168   4.824   1.324  0.7695 -0.1007 -0.5739
  404DG     H15 9284   2.792   4.561   1.017 -0.6411 -1.7748  0.5656
  404DG     H16 9285   2.817   4.399   1.047 -0.0197 -0.1853  0.9990
  404DG     C17 9286   3.079   4.729   1.138 -0.6446  0.6798  0.1424
  404DG     C18 9287   2.982   4.510   1.108 -0.4316  0.5011  0.3929
  404DG     O19 9288   3.010   4.617   1.196 -0.0849  0.1805  0.7775
  404DG     H20 9289   3.169   4.703   1.082 -0.7835  2.0235 -0.7495
  404DG     H21 9290   3.012   4.778   1.067 -2.1885 -0.8038  0.5411
  404DG     H22 9291   3.012   4.427   1.173  1.1145  0.5599 -0.2114
  404DG     H23 9292   3.056   4.502   1.029 -0.2444  0.2284  0.5902
  405DG      C1 9293   2.359   1.758   0.295  0.3845 -0.7840  0.4025
  405DG      C2 9294   1.755   1.528   0.241 -0.4963  0.2460  0.2664
  405DG      H3 9295   2.449   1.781   0.352  0.3350 -0.1329  0.2317
  405DG      H4 9296   2.312   1.845   0.250 -0.2818 -1.2047  0.2769
  405DG      H5 9297   2.388   1.690   0.216  0.3600  1.5168 -1.7006
  405DG      H6 9298   1.817   1.438   0.248 -0.0498  0.6567  2.3233
  405DG      H7 9299   1.656   1.489   0.221 -0.4733  0.8445 -1.1315
  405DG      H8 9300   1.788   1.577   0.149 -0.6588  0.4084  0.2965
  405DG      O9 9301   2.263   1.679   0.355 -0.0748 -0.1414 -0.2530
  405DG     O10 9302   1.777   1.621   0.349 -0.3470 -0.0259  0.4616
  405DG     C11 9303   2.228   1.739   0.487  0.6890  0.7800  0.9190
  405DG     C12 9304   1.781   1.564   0.481  0.3173 -1.0222 -0.8016
  405DG     H13 9305   2.186   1.839   0.480  0.0897  0.5936  1.6524
  405DG     H14 9306   2.319   1.748   0.546  0.2042  2.3380  1.4772
  405DG     H15 9307   1.707   1.483   0.483  0.7689 -1.4330 -0.0997
  405DG     H16 9308   1.762   1.637   0.559  1.7803 -4.2640  2.9697
  405DG     C17 9309   2.130   1.627   0.541 -0.0711  0.4186  0.1653
  405DG     C18 9310   1.930   1.522   0.498  0.0436  0.7621  0.5138
  405DG     O19 9311   2.009   1.631   0.471 -0.4411  0.0521 -0.4545
  405DG     H20 9312   2.117   1.632   0.649 -3.0739 -0.1870 -0.0803
  405DG     H21 9313   2.176   1.530   0.527 -0.4447  0.3561 -0.6724
  405DG     H22 9314   1.951   1.491   0.601 -0.6066  1.1235  0.7596
  405DG     H23 9315   1.963   1.436   0.439  1.8576  0.1361  2.2793
  406DG      C1 9316   2.321   5.036   3.244  0.8593 -0.1229 -0.2418
  406DG      C2 9317   2.535   5.633   3.537 -0.4678  0.0550 -0.2011
  406DG      H3 9318   2.260   5.092   3.174 -1.0327  1.6358  2.6190
  406DG      H4 9319   2.246   5.001   3.314  2.5343 -1.2397  1.0779
  406DG      H5 9320   2.357   4.947   3.192  0.9824 -0.7752  0.9213
  406DG      H6 9321   2.505   5.696   3.453 -1.1826 -1.6614 -1.2756
  406DG      H7 9322   2.441   5.618   3.588 -1.1205  0.1776 -1.3356
  406DG      H8 9323   2.601   5.680   3.610 -2.0753  0.1572  1.2302
  406DG      O9 9324   2.422   5.111   3.308  0.4497  0.3684 -0.6806
  406DG     O10 9325   2.596   5.510   3.488 -0.3013  0.0640 -0.1546
  406DG     C11 9326   2.475   5.040   3.414  0.2653 -0.6252  0.2296
  406DG     C12 9327   2.662   5.431   3.590 -0.1207  0.1597 -0.3262
  406DG     H13 9328   2.502   4.941   3.377  0.0241 -1.1908  1.5087
  406DG     H14 9329   2.404   5.025   3.495 -0.9978  0.5831 -0.6077
  406DG     H15 9330   2.599   5.390   3.668  1.1755  0.0556  0.7009
  406DG     H16 9331   2.746   5.485   3.634  1.0228 -2.0731  0.3630
  406DG     C17 9332   2.609   5.105   3.460 -0.7645 -0.2874 -0.8050
  406DG     C18 9333   2.705   5.300   3.530  0.2354 -0.8535 -1.0010
  406DG     O19 9334   2.588   5.243   3.479 -0.7456  0.4451  0.0946
  406DG     H20 9335   2.683   5.089   3.381 -1.2326 -0.6818 -1.1725
  406DG     H21 9336   2.646   5.065   3.554  0.0986  1.6239 -0.2793
  406DG     H22 9337   2.786   5.319   3.460  0.4561  0.9683 -0.3107
  406DG     H23 9338   2.748   5.243   3.612  1.5666  2.2929  0.7044
  407DG      C1 9339   0.583   1.647   0.156  0.0990 -0.3912 -0.0436
  407DG      C2 9340   0.512   0.996   0.410  0.5706  0.3076  0.3867
  407DG      H3 9341   0.517   1.706   0.220 -0.1847  1.3861 -1.8771
  407DG      H4 9342   0.538   1.620   0.060  0.1712 -1.8005  0.2897
  407DG      H5 9343   0.665   1.714   0.129  0.5756 -1.4216 -1.2509
  407DG      H6 9344   0.550   0.902   0.450 -0.4763  0.3903  1.6643
  407DG      H7 9345   0.419   1.015   0.465  0.8479 -1.5137  1.5775
  407DG      H8 9346   0.495   0.974   0.305  0.8978 -0.4145  0.4767
  407DG      O9 9347   0.615   1.536   0.228  0.1772 -0.2934  0.0378
  407DG     O10 9348   0.607   1.090   0.403  0.1516 -0.2352  0.4524
  407DG     C11 9349   0.666   1.577   0.353  0.3375 -0.4671  0.0511
  407DG     C12 9350   0.661   1.123   0.528 -0.7700  0.7142 -0.1137
  407DG     H13 9351   0.579   1.607   0.412 -0.0539  0.8721 -1.1518
  407DG     H14 9352   0.727   1.666   0.336  0.0782 -0.6637 -2.3623
  407DG     H15 9353   0.730   1.042   0.551 -1.0563  0.1154 -1.3140
  407DG     H16 9354   0.583   1.122   0.605 -2.0920 -0.5051 -1.3922
  407DG     C17 9355   0.748   1.458   0.409 -0.5078 -0.1311  0.2840
  407DG     C18 9356   0.739   1.248   0.512  0.1565  0.8793  0.2577
  407DG     O19 9357   0.669   1.348   0.437  0.1458  0.6085 -0.0664
  407DG     H20 9358   0.788   1.484   0.507 -1.5239 -1.7971  1.1892
  407DG     H21 9359   0.830   1.426   0.345 -0.2196  0.0934  0.5402
  407DG     H22 9360   0.792   1.280   0.601  1.3302  1.6216 -0.6669
  407DG     H23 9361   0.820   1.212   0.448 -0.7042  1.4472 -1.1973
  408DG      C1 9362   1.644   0.208   0.320  0.0949  0.0821  0.0451
  408DG      C2 9363   1.865  -0.312   1.014  0.3773  0.0620  0.1975
  408DG      H3 9364   1.626   0.284   0.397  2.6230 -0.2694  1.0868
  408DG      H4 9365   1.582   0.242   0.237  0.8683  0.7507 -0.2644
  408DG      H5 9366   1.749   0.210   0.292 -0.1923 -1.2408 -1.2215
  408DG      H6 9367   1.888  -0.248   1.099  0.1093 -1.7213  1.6711
  408DG      H7 9368   1.832  -0.411   1.046 -0.7988  0.4683  0.2977
  408DG      H8 9369   1.954  -0.324   0.953 -0.5202  2.5493 -1.8139
  408DG      O9 9370   1.612   0.080   0.367  0.1236 -0.0057  0.0601
  408DG     O10 9371   1.776  -0.266   0.917  0.0217 -0.5986 -0.5145
  408DG     C11 9372   1.671   0.050   0.493 -0.2620 -0.0399  0.0761
  408DG     C12 9373   1.818  -0.140   0.868  0.0973 -0.4297  0.4575
  408DG     H13 9374   1.618   0.108   0.569  0.5720  0.9734 -0.0923
  408DG     H14 9375   1.776   0.076   0.507 -0.4989  0.2834  1.4663
  408DG     H15 9376   1.923  -0.134   0.842 -0.3908  1.7684 -1.3955
  408DG     H16 9377   1.808  -0.064   0.945 -1.8964 -0.7836  0.6108
  408DG     C17 9378   1.649  -0.095   0.530 -0.6181  0.6447  0.0207
  408DG     C18 9379   1.735  -0.074   0.757  0.3729  0.1417  1.1877
  408DG     O19 9380   1.751  -0.134   0.627  0.9285  0.7123 -0.7195
  408DG     H20 9381   1.686  -0.154   0.446 -0.0820 -2.3024  2.1504
  408DG     H21 9382   1.546  -0.123   0.555 -0.5348  0.8154  0.5725
  408DG     H22 9383   1.627  -0.076   0.771  0.0286 -0.2203 -1.0934
  408DG     H23 9384   1.756   0.031   0.742 -2.3068  0.5542 -0.4375
  409DG      C1 9385   2.365   1.108   4.525 -0.4883 -0.1170  0.2256
  409DG      C2 9386   2.092   1.665   4.123  0.5864  0.2523 -0.0034
  409DG      H3 9387   2.272   1.072   4.570 -1.0812  2.5814  1.3747
  409DG      H4 9388   2.441   1.097   4.602  0.8142 -2.6433 -1.2903
  409DG      H5 9389   2.392   1.047   4.439  1.5227  0.1451  0.6258
  409DG      H6 9390   2.135   1.640   4.026  4.5667  3.5120  0.6628
  409DG      H7 9391   2.004   1.602   4.135  0.4201  0.5362  0.2900
  409DG      H8 9392   2.046   1.764   4.118  0.2335  0.1531  1.0369
  409DG      O9 9393   2.357   1.240   4.485 -0.3634  0.1726 -0.4998
  409DG     O10 9394   2.179   1.655   4.231  0.6424 -0.5778 -0.1068
  409DG     C11 9395   2.294   1.314   4.585  0.1237  0.3960  0.1996
  409DG     C12 9396   2.122   1.703   4.351 -0.1347 -0.4407  0.4657
  409DG     H13 9397   2.324   1.282   4.685 -0.0491 -0.4626 -0.0193
  409DG     H14 9398   2.187   1.295   4.575  0.3189 -0.0086 -1.2882
  409DG     H15 9399   2.030   1.648   4.373 -0.3616  0.1779  1.0949
  409DG     H16 9400   2.103   1.810   4.343  3.5624  0.3469  0.4776
  409DG     C17 9401   2.312   1.460   4.565  0.0633  0.4612  0.3427
  409DG     C18 9402   2.211   1.655   4.468 -0.0561  0.3863 -0.1931
  409DG     O19 9403   2.223   1.512   4.464  0.1108  0.1827 -0.3590
  409DG     H20 9404   2.417   1.489   4.565  0.9348 -2.4432  0.2440
  409DG     H21 9405   2.290   1.502   4.663  1.7222 -0.4526  1.1436
  409DG     H22 9406   2.311   1.697   4.469  0.8089 -1.6228  0.6281
  409DG     H23 9407   2.173   1.702   4.559 -1.8471 -2.2261  0.5425
  410DG      C1 9408   0.685   2.257   4.080  0.6954  0.9959 -0.5348
  410DG      C2 9409   1.111   2.571   4.410 -0.3077  0.4310 -0.2973
  410DG      H3 9410   0.676   2.352   4.028  1.8370  0.3440 -2.0106
  410DG      H4 9411   0.598   2.245   4.144  2.4037  0.0884  1.7839
  410DG      H5 9412   0.676   2.186   3.998 -0.5395 -0.7728  1.0338
  410DG      H6 9413   1.117   2.624   4.315  1.1770 -1.3828 -1.2835
  410DG      H7 9414   1.029   2.619   4.463 -1.6841  0.4111 -2.2990
  410DG      H8 9415   1.203   2.596   4.462 -1.7277  0.2380  2.4833
  410DG      O9 9416   0.813   2.249   4.154  0.0101 -0.1096  0.6230
  410DG     O10 9417   1.107   2.430   4.408  0.2273 -0.0783  0.0154
  410DG     C11 9418   0.834   2.122   4.211 -0.2803  0.5261 -0.1921
  410DG     C12 9419   1.202   2.375   4.324 -0.1708  0.2954  0.2967
  410DG     H13 9420   0.803   2.040   4.147 -1.5126 -0.0878  1.1143
  410DG     H14 9421   0.774   2.120   4.303 -1.2444  1.5721 -0.7632
  410DG     H15 9422   1.302   2.403   4.355  0.0645  2.0687 -1.8239
  410DG     H16 9423   1.179   2.416   4.226 -0.3661 -0.2849  0.0906
  410DG     C17 9424   0.979   2.108   4.235 -0.6923  0.4084 -0.2088
  410DG     C18 9425   1.172   2.227   4.308  0.0255 -0.3398 -0.3012
  410DG     O19 9426   1.029   2.218   4.305 -0.0880  0.4335  0.2576
  410DG     H20 9427   1.020   2.113   4.134 -0.4658  1.0245 -0.0923
  410DG     H21 9428   1.008   2.015   4.282 -0.5727 -0.0752 -1.2226
  410DG     H22 9429   1.214   2.190   4.214  1.6719  0.2310  0.1800
  410DG     H23 9430   1.216   2.169   4.389 -2.3708 -0.2622  1.1473
  411THF     O1 9431   3.231   0.947   0.047  0.0773 -0.6081 -0.6620
  411THF     C2 9432   3.201   0.853  -0.054  0.7793 -0.2560  0.3603
  411THF     C3 9433   3.212   1.075  -0.003 -0.4602 -0.2107  0.1116
  411THF     H4 9434   3.186   0.749  -0.025  0.2419 -0.6868 -1.3424
  411THF     H5 9435   3.292   0.847  -0.113  1.5236 -1.7846  1.6000
  411THF     H6 9436   3.157   1.135   0.070 -0.9310  0.5723 -0.8688
  411THF     H7 9437   3.313   1.110  -0.020  0.6650 -3.9347 -2.0895
  411THF     C8 9438   3.123   1.061  -0.133 -0.6530  0.0849  0.5520
  411THF     C9 9439   3.091   0.914  -0.139 -0.1117 -0.2830  0.1965
  411THF    H10 9440   3.183   1.090  -0.219  0.0439 -2.5450  0.0515
  411THF    H11 9441   3.025   1.109  -0.134 -1.7415 -1.9634  1.5494
  411THF    H12 9442   2.997   0.892  -0.088 -0.7451  3.1959  0.7669
  411THF    H13 9443   3.080   0.878  -0.241 -1.5519  1.2649 -0.2382
  412THF     O1 9444   4.256   4.842   5.261 -0.0055 -0.3414  0.1876
  412THF     C2 9445   4.383   4.903   5.239 -0.0268 -0.0212 -0.4791
  412THF     C3 9446   4.209   4.772   5.150  0.4054  0.0954  0.3957
  412THF     H4 9447   4.439   4.901   5.333  0.5201 -1.9478 -0.7952
  412THF     H5 9448   4.370   5.001   5.195 -0.5211  0.9685  1.7613
  412THF     H6 9449   4.143   4.694   5.187 -3.4621  1.9272 -1.9799
  412THF     H7 9450   4.145   4.828   5.081  0.7628 -0.2071 -0.1894
  412THF     C8 9451   4.334   4.721   5.074  0.6053 -0.1633 -0.1633
  412THF     C9 9452   4.447   4.798   5.150 -0.9703 -0.1323 -0.0193
  412THF    H10 9453   4.324   4.745   4.969  0.0607  1.5062  0.2448
  412THF    H11 9454   4.339   4.612   5.082 -0.0249 -0.2426 -0.7229
  412THF    H12 9455   4.503   4.722   5.205  0.9901  0.3749 -1.2020
  412THF    H13 9456   4.517   4.847   5.082 -0.8440 -2.2550 -1.5035
  413THF     O1 9457   0.552   3.827   4.117 -0.1670  0.4129 -0.6261
  413THF     C2 9458   0.475   3.884   4.013  0.0968 -0.0981  0.2538
  413THF     C3 9459   0.693   3.849   4.085 -0.1287  0.0672 -0.1225
  413THF     H4 9460   0.408   3.957   4.059  0.3497 -0.0105  0.4807
  413THF     H5 9461   0.408   3.802   3.989  0.9304 -0.2861 -1.5613
  413THF     H6 9462   0.725   3.948   4.118 -1.0216  1.0165 -1.9584
  413THF     H7 9463   0.753   3.774   4.137  0.6292  0.9314  0.2829
  413THF     C8 9464   0.704   3.862   3.930 -0.5619  0.5654 -0.0520
  413THF     C9 9465   0.565   3.929   3.902  0.2754  0.1224  0.3304
  413THF    H10 9466   0.716   3.759   3.894  0.3175  0.4129  0.6340
  413THF    H11 9467   0.794   3.917   3.906 -0.0173 -0.4840 -0.4907
  413THF    H12 9468   0.572   4.037   3.883  1.7036  0.4158  2.1519
  413THF    H13 9469   0.535   3.887   3.806  0.4767 -0.8714  0.6926
  414THF     O1 9470   2.800   0.057   0.478 -0.6683  0.4483 -0.0782
  414THF     C2 9471   2.915   0.073   0.400  0.4311 -0.2160 -0.0629
  414THF     C3 9472   2.774   0.170   0.560  1.1475  0.0410  0.2954
  414THF     H4 9473   2.885   0.097   0.298 -0.9267 -2.3654 -0.2384
  414THF     H5 9474   2.960  -0.025   0.380 -1.3996 -1.8149  2.8879
  414THF     H6 9475   2.677   0.211   0.533  0.4623 -2.4173 -1.3247
  414THF     H7 9476   2.778   0.154   0.668  3.4058  1.7072  0.5235
  414THF     C8 9477   2.882   0.273   0.522 -0.5557  0.5536  0.4658
  414THF     C9 9478   2.999   0.182   0.464  0.5293 -0.7545  0.1022
  414THF    H10 9479   2.910   0.333   0.609  0.7642 -0.1472  0.5488
  414THF    H11 9480   2.837   0.344   0.453 -0.1096  3.1086  2.6308
  414THF    H12 9481   3.061   0.227   0.387  0.6490 -1.2672 -0.1068
  414THF    H13 9482   3.048   0.141   0.553  0.6565  0.4770  0.6176
  415THF     O1 9483   0.003   3.770   3.281 -0.2960  0.0130  0.4390
  415THF     C2 9484  -0.019   3.850   3.397  0.1811 -0.3568  0.2440
  415THF     C3 9485  -0.098   3.800   3.181  0.5674  0.7964  0.5483
  415THF     H4 9486   0.049   3.935   3.398  1.7012 -1.5193  1.6558
  415THF     H5 9487   0.002   3.797   3.491 -0.4517  0.8295  1.0787
  415THF     H6 9488  -0.064   3.801   3.078 -1.0341  1.2863 -0.0065
  415THF     H7 9489  -0.166   3.715   3.184 -0.1614  1.3698  0.7221
  415THF     C8 9490  -0.173   3.923   3.230  0.0858 -0.3560 -0.3322
  415THF     C9 9491  -0.165   3.901   3.380  0.6466  0.6029  0.0503
  415THF    H10 9492  -0.275   3.927   3.190  0.8366  0.6782 -2.2887
  415THF    H11 9493  -0.117   4.010   3.197 -1.0718  1.2333  1.6957
  415THF    H12 9494  -0.179   3.992   3.440  0.5607  1.5203 -1.3277
  415THF    H13 9495  -0.238   3.826   3.409  0.0490  1.6648  1.3864
  416THF     O1 9496   0.069   1.904   4.806  0.2830 -0.2792  0.0133
  416THF     C2 9497   0.131   1.882   4.681 -0.2935 -0.1035 -0.7510
  416THF     C3 9498  -0.051   1.830   4.808  0.3004 -1.1255 -0.2824
  416THF     H4 9499   0.202   1.800   4.688 -0.2561 -0.0195 -0.1446
  416THF     H5 9500   0.178   1.970   4.637  1.0535 -1.0722 -1.3147
  416THF     H6 9501  -0.017   1.733   4.846 -0.1517 -1.4992 -0.8093
  416THF     H7 9502  -0.125   1.870   4.878  1.3042 -1.6536  1.1247
  416THF     C8 9503  -0.101   1.822   4.666  0.2410 -0.3247 -0.4731
  416THF     C9 9504   0.023   1.823   4.582  0.1653 -0.4893  0.1773
  416THF    H10 9505  -0.155   1.916   4.655  0.5012 -0.1451 -0.2111
  416THF    H11 9506  -0.165   1.737   4.642 -0.3180 -0.9239  2.7302
  416THF    H12 9507   0.052   1.722   4.555  0.4993 -0.2382 -0.4218
  416THF    H13 9508   0.011   1.887   4.494  0.5365  0.5576  0.8785
  417THF     O1 9509   1.307   1.630   0.797  1.1526  0.0814  0.0103
  417THF     C2 9510   1.346   1.685   0.678  0.5566 -0.4116  0.2509
  417THF     C3 9511   1.348   1.710   0.906  0.1685  0.1428  0.0558
  417THF     H4 9512   1.273   1.677   0.598  1.0010  0.8011 -0.3004
  417THF     H5 9513   1.432   1.631   0.638  1.7123  1.9491 -0.6746
  417THF     H6 9514   1.288   1.705   0.998  0.9034 -1.6510  0.4800
  417THF     H7 9515   1.453   1.691   0.928 -0.0646  0.9499  2.1447
  417THF     C8 9516   1.322   1.848   0.849 -0.0937  0.5834 -0.2372
  417THF     C9 9517   1.378   1.836   0.706 -0.1817 -0.0390 -0.6278
  417THF    H10 9518   1.364   1.930   0.907 -1.8183 -0.3424  2.4841
  417THF    H11 9519   1.213   1.856   0.849 -0.0721  1.1963 -1.6120
  417THF    H12 9520   1.311   1.893   0.641 -0.2325 -0.2965 -0.8007
  417THF    H13 9521   1.484   1.859   0.711 -0.2774  0.5762 -1.3330
  418THF     O1 9522   0.515   0.289   0.835 -0.0675 -0.0089 -0.8612
  418THF     C2 9523   0.467   0.347   0.956  0.5107 -0.0590 -0.2148
  418THF     C3 9524   0.489   0.151   0.845  0.2874 -0.2212 -0.0130
  418THF     H4 9525   0.375   0.401   0.932  0.4989 -1.1426 -2.9038
  418THF     H5 9526   0.537   0.420   0.995  0.1121  0.3644 -0.2778
  418THF     H6 9527   0.456   0.118   0.746 -0.0544 -2.8413  0.9091
  418THF     H7 9528   0.577   0.093   0.872  0.4169  0.2003  0.4721
  418THF     C8 9529   0.370   0.132   0.940 -0.0763 -0.2162  0.0428
  418THF     C9 9530   0.414   0.234   1.046 -0.0879 -0.4662 -0.3345
  418THF    H10 9531   0.357   0.027   0.965 -1.2523 -0.4225 -1.2353
  418THF    H11 9532   0.277   0.168   0.894 -0.6346  1.0666  2.0871
  418THF    H12 9533   0.339   0.259   1.122 -0.9355  2.5821 -2.0128
  418THF    H13 9534   0.496   0.186   1.099 -0.3148 -1.3524 -0.7638
  419THF     O1 9535   4.521   1.695   0.779  0.0278  0.0933  0.0137
  419THF     C2 9536   4.507   1.834   0.817 -0.2337  0.4921  0.9237
  419THF     C3 9537   4.621   1.692   0.679 -0.7257 -0.5149  0.5923
  419THF     H4 9538   4.592   1.860   0.880  0.6382  2.3272 -0.9145
  419THF     H5 9539   4.421   1.855   0.882  0.3545  0.3879  1.7599
  419THF     H6 9540   4.722   1.702   0.719 -0.7701 -0.4420  0.6847
  419THF     H7 9541   4.620   1.600   0.621 -0.9480 -0.6626  0.8354
  419THF     C8 9542   4.589   1.819   0.595  0.2392 -0.3115 -0.0659
  419THF     C9 9543   4.495   1.898   0.675  0.4968  0.7555  1.0211
  419THF    H10 9544   4.549   1.801   0.495 -0.2321 -0.5290  0.1576
  419THF    H11 9545   4.680   1.876   0.576 -1.2281  1.4384 -2.5517
  419THF    H12 9546   4.500   2.006   0.684 -0.8223  0.9356 -0.0459
  419THF    H13 9547   4.394   1.863   0.652  1.6805 -2.3468  0.1106
  420THF     O1 9548   1.578   2.138   1.146  0.2838  0.1278  0.1099
  420THF     C2 9549   1.445   2.171   1.097  0.1707 -0.0862 -0.1091
  420THF     C3 9550   1.643   2.058   1.045 -0.6824  0.2041  0.1952
  420THF     H4 9551   1.408   2.254   1.156  1.5637 -0.1631  0.9253
  420THF     H5 9552   1.373   2.090   1.108 -1.8600  1.9943  3.3450
  420THF     H6 9553   1.751   2.067   1.057 -0.2125  1.7854 -3.6667
  420THF     H7 9554   1.610   1.956   1.063 -1.0001  0.4366  0.9903
  420THF     C8 9555   1.595   2.121   0.914  0.4205 -0.8550 -0.1912
  420THF     C9 9556   1.474   2.205   0.953 -0.3377 -0.3756  0.8624
  420THF    H10 9557   1.582   2.040   0.842  3.1496 -1.4868 -0.0958
  420THF    H11 9558   1.670   2.182   0.863 -0.3592  0.1893 -0.1261
  420THF    H12 9559   1.490   2.312   0.940 -2.5060 -0.1905 -0.7590
  420THF    H13 9560   1.386   2.200   0.889 -0.9055 -0.7619  1.6553
  421THF     O1 9561   1.957   4.103   5.334 -0.3573 -0.5846 -0.0108
  421THF     C2 9562   1.818   4.111   5.296  1.1717 -0.0720  0.1738
  421THF     C3 9563   2.004   4.240   5.373  0.2726  0.3343 -0.2478
  421THF     H4 9564   1.768   4.071   5.384  0.1192  0.3500 -0.2209
  421THF     H5 9565   1.782   4.049   5.214 -0.7886  0.4687  0.5713
  421THF     H6 9566   1.976   4.250   5.477  1.0859  0.7384 -0.0602
  421THF     H7 9567   2.112   4.258   5.370  0.1533  1.0115 -2.3740
  421THF     C8 9568   1.917   4.339   5.291  0.5798 -0.3700  0.7288
  421THF     C9 9569   1.781   4.261   5.278  0.0708  0.0710 -0.0655
  421THF    H10 9570   1.952   4.338   5.188 -0.9822  2.2340  0.0905
  421THF    H11 9571   1.909   4.440   5.331  0.1612 -0.5353  1.0699
  421THF    H12 9572   1.723   4.308   5.358  0.7731  3.7468 -1.5214
  421THF    H13 9573   1.726   4.288   5.188 -2.6860 -0.4972  1.3061
  422THF     O1 9574   0.704   3.960   5.026  0.1812 -0.0020 -0.3622
  422THF     C2 9575   0.808   4.056   5.021 -0.2576 -0.0988 -0.3998
  422THF     C3 9576   0.760   3.831   5.026  0.0891  0.0028 -0.6653
  422THF     H4 9577   0.780   4.154   5.059  0.3080 -0.3204  0.6311
  422THF     H5 9578   0.851   4.074   4.923  2.5676  3.4652  1.2613
  422THF     H6 9579   0.711   3.763   5.096  1.1052 -0.2763 -0.2106
  422THF     H7 9580   0.763   3.791   4.925 -2.2405  0.0300 -0.8118
  422THF     C8 9581   0.898   3.846   5.081  0.1545 -0.3524 -0.0030
  422THF     C9 9582   0.919   3.996   5.106 -0.1339 -0.5268  0.4983
  422THF    H10 9583   0.961   3.819   4.997 -0.9762 -1.3321 -0.5774
  422THF    H11 9584   0.922   3.790   5.172  2.6673 -0.8674 -0.9087
  422THF    H12 9585   0.907   4.021   5.211 -1.9105 -0.3383  0.2792
  422THF    H13 9586   1.019   4.026   5.072  0.3517 -0.7006  1.7439
  423THF     O1 9587   0.403   2.291   2.484  0.2606 -0.1124  0.8007
  423THF     C2 9588   0.365   2.218   2.594  0.3548  0.1430  0.1354
  423THF     C3 9589   0.288   2.295   2.400 -0.8028  0.4840 -0.3145
  423THF     H4 9590   0.308   2.268   2.673  1.5158 -0.9200  1.7126
  423THF     H5 9591   0.448   2.174   2.650  0.1219  1.4040  1.5291
  423THF     H6 9592   0.202   2.358   2.424 -2.3722 -0.9284 -1.9314
  423THF     H7 9593   0.310   2.327   2.298 -3.2677  0.6325 -0.8478
  423THF     C8 9594   0.221   2.160   2.407  0.2034  0.1104 -0.1903
  423THF     C9 9595   0.267   2.111   2.548 -0.9899 -0.2275  0.2599
  423THF    H10 9596   0.255   2.090   2.330  1.1603  0.8685 -0.4689
  423THF    H11 9597   0.112   2.162   2.408  0.1953 -0.1896 -0.0827
  423THF    H12 9598   0.180   2.102   2.614 -1.7861 -0.3983 -0.7909
  423THF    H13 9599   0.324   2.018   2.544  0.9206  0.9489 -1.1223
  424THF     O1 9600   0.201   4.260   1.915 -0.4600  0.6441 -0.4952
  424THF     C2 9601   0.306   4.292   2.010  0.3259  0.4908  0.1781
  424THF     C3 9602   0.190   4.119   1.911 -0.2826  0.0777 -0.2631
  424THF     H4 9603   0.283   4.390   2.052  1.7713  1.9444 -2.2215
  424THF     H5 9604   0.404   4.300   1.962 -0.4779 -1.4049 -1.9331
  424THF     H6 9605   0.104   4.072   1.864 -0.1316 -1.2839  0.7611
  424THF     H7 9606   0.272   4.083   1.849  0.8924  1.2913  0.5225
  424THF     C8 9607   0.206   4.083   2.060 -0.2691 -0.2256  0.8072
  424THF     C9 9608   0.307   4.182   2.111  0.4181 -0.6087  0.1897
  424THF    H10 9609   0.233   3.979   2.078  0.2362 -0.3410 -0.4803
  424THF    H11 9610   0.106   4.097   2.101 -0.3793  1.5684  0.0185
  424THF    H12 9611   0.267   4.216   2.206 -0.1599  2.2597 -0.9850
  424THF    H13 9612   0.407   4.139   2.121  1.4569  1.4215 -0.8847
  425THF     O1 9613   0.890   5.022   0.979 -0.0314 -0.0464  0.0318
  425THF     C2 9614   0.946   5.038   1.108 -0.4577  0.8975 -0.2323
  425THF     C3 9615   0.866   5.149   0.922  0.4269 -0.3988  0.1198
  425THF     H4 9616   1.052   5.064   1.109  0.4016 -1.8044  3.2127
  425THF     H5 9617   0.941   4.948   1.169  0.1142  0.2472 -1.1145
  425THF     H6 9618   0.964   5.191   0.899  1.0186 -1.0625  1.3211
  425THF     H7 9619   0.805   5.139   0.832  0.6546 -2.7416  0.1504
  425THF     C8 9620   0.802   5.224   1.042  0.5813  1.1865  0.4261
  425THF     C9 9621   0.863   5.152   1.160  0.4273 -0.8715 -0.1785
  425THF    H10 9622   0.698   5.194   1.043  0.5178  1.2911 -1.3531
  425THF    H11 9623   0.820   5.332   1.040 -1.5826  1.5775  0.1128
  425THF    H12 9624   0.921   5.212   1.231  1.1921 -1.8035  0.0003
  425THF    H13 9625   0.775   5.102   1.202 -1.1350 -0.2719 -2.5281
  426THF     O1 9626   5.405   0.402   2.568  0.1136 -0.1951  0.0680
  426THF     C2 9627   5.510   0.353   2.491 -0.8446 -0.8308 -0.2565
  426THF     C3 9628   5.363   0.305   2.661 -0.2834  1.6159  0.1405
  426THF     H4 9629   5.576   0.427   2.446 -0.2476 -0.5379  1.0424
  426THF     H5 9630   5.451   0.312   2.409 -0.8763 -0.9217 -0.1885
  426THF     H6 9631   5.320   0.348   2.751 -1.0874  0.5080  0.3082
  426THF     H7 9632   5.297   0.239   2.605  1.4864  0.3704 -0.5799
  426THF     C8 9633   5.496   0.235   2.697  0.0741 -0.0026 -0.4723
  426THF     C9 9634   5.587   0.247   2.579 -0.2387  0.1018  0.5237
  426THF    H10 9635   5.490   0.139   2.749  1.1203 -0.4956 -1.2286
  426THF    H11 9636   5.553   0.290   2.772 -0.1795  0.1886 -0.4203
  426THF    H12 9637   5.690   0.278   2.597 -0.4763  0.6229  1.0078
  426THF    H13 9638   5.587   0.151   2.529 -0.1637  1.0122 -1.2931
  427THF     O1 9639   2.377   3.534   0.482 -0.7026 -0.1848  0.3783
  427THF     C2 9640   2.311   3.481   0.596 -0.4465  0.4123  0.0332
  427THF     C3 9641   2.408   3.421   0.398 -0.2003 -0.6422 -0.1707
  427THF     H4 9642   2.229   3.549   0.619 -1.8377 -1.4029  0.6436
  427THF     H5 9643   2.372   3.467   0.685 -0.4419 -1.9999 -0.2676
  427THF     H6 9644   2.425   3.444   0.293  1.0101  1.3005  0.3978
  427THF     H7 9645   2.493   3.377   0.451  0.0884  1.0817  0.8664
  427THF     C8 9646   2.280   3.333   0.404  0.2205  0.5958 -0.0372
  427THF     C9 9647   2.247   3.343   0.553  0.6543 -0.3405 -0.4208
  427THF    H10 9648   2.282   3.234   0.361  1.1770  0.3509  0.5279
  427THF    H11 9649   2.204   3.382   0.344 -0.1007  0.6577  0.4155
  427THF    H12 9650   2.142   3.335   0.581  0.6754 -0.1236 -0.2842
  427THF    H13 9651   2.296   3.263   0.608  0.7448 -0.3262 -0.4801
  428THF     O1 9652   2.016   1.208   0.853  0.0988 -0.2008  0.2602
  428THF     C2 9653   2.019   1.340   0.891 -0.1252  0.0811  0.9249
  428THF     C3 9654   2.119   1.194   0.754  0.1045  0.1416  0.6995
  428THF     H4 9655   1.957   1.355   0.979 -0.2220 -1.3331  1.1274
  428THF     H5 9656   1.990   1.401   0.805 -0.2923 -1.4517 -0.1578
  428THF     H6 9657   2.150   1.090   0.747  0.4291  0.2638  0.2673
  428THF     H7 9658   2.083   1.209   0.652  0.8176 -2.1120  0.0545
  428THF     C8 9659   2.226   1.291   0.790 -0.2886  0.4590 -0.2724
  428THF     C9 9660   2.169   1.357   0.913  0.5001 -0.5707  0.6210
  428THF    H10 9661   2.240   1.367   0.713  0.9664  0.2963 -0.2249
  428THF    H11 9662   2.316   1.236   0.817 -1.1520  0.0568  1.9611
  428THF    H12 9663   2.194   1.303   1.004  0.5449 -0.3929  0.7146
  428THF    H13 9664   2.200   1.461   0.922 -1.3098  0.0705  0.0251
  429THF     O1 9665   4.613   4.684   1.432 -0.1259  0.0607  0.2222
  429THF     C2 9666   4.672   4.717   1.306  0.9088  0.1499  0.5950
  429THF     C3 9667   4.594   4.803   1.510 -0.0938 -0.5481 -0.6575
  429THF     H4 9668   4.647   4.626   1.252  1.0318  0.6856 -0.3793
  429THF     H5 9669   4.777   4.742   1.318  0.6974  0.5767  1.6788
  429THF     H6 9670   4.530   4.776   1.594 -1.0825  0.8913 -0.9101
  429THF     H7 9671   4.691   4.834   1.550 -0.8194  1.8001 -0.5445
  429THF     C8 9672   4.537   4.899   1.408 -0.2970  0.5379 -0.0365
  429THF     C9 9673   4.576   4.842   1.275  0.4887 -0.3351 -0.1719
  429THF    H10 9674   4.574   5.000   1.427 -0.1948  0.3843  0.5724
  429THF    H11 9675   4.429   4.912   1.418 -0.1559  3.2648 -1.1732
  429THF    H12 9676   4.490   4.824   1.211  0.5208 -1.1072 -0.0056
  429THF    H13 9677   4.643   4.911   1.222 -1.0332  1.0572 -0.3704
  430THF     O1 9678   2.511   2.782   0.395 -0.5210  0.2689 -0.2279
  430THF     C2 9679   2.614   2.856   0.453  0.2685  0.0615 -0.4462
  430THF     C3 9680   2.492   2.657   0.472 -0.0488  0.4443 -0.1241
  430THF     H4 9681   2.588   2.962   0.448 -1.5486 -0.2949  0.5613
  430THF     H5 9682   2.714   2.843   0.413  1.1227 -0.1609  1.6663
  430THF     H6 9683   2.392   2.616   0.460  0.8722 -2.8134  1.9430
  430THF     H7 9684   2.561   2.581   0.436 -0.1516  1.1458 -1.9027
  430THF     C8 9685   2.521   2.696   0.619  0.0822  0.0174 -0.6822
  430THF     C9 9686   2.622   2.802   0.599  0.3776  0.2710 -0.4592
  430THF    H10 9687   2.566   2.615   0.675 -1.5618 -1.1759 -1.0030
  430THF    H11 9688   2.430   2.736   0.665 -0.5943 -1.2005 -0.9269
  430THF    H12 9689   2.597   2.885   0.665  1.4811 -0.8336  1.4397
  430THF    H13 9690   2.719   2.770   0.636  0.1482  2.3860  2.2646
  431THF     O1 9691   2.008   3.890   1.138 -0.1746  0.0884  0.1908
  431THF     C2 9692   2.091   3.919   1.252 -0.1092  0.5617  0.0714
  431THF     C3 9693   1.973   3.753   1.135 -0.9055  0.2486 -0.3411
  431THF     H4 9694   2.080   4.021   1.286  2.5847  1.3025 -0.9865
  431THF     H5 9695   2.199   3.909   1.239  0.1953  0.5948  2.2291
  431THF     H6 9696   1.880   3.724   1.087 -0.6636 -1.1656 -0.0010
  431THF     H7 9697   2.061   3.704   1.092 -1.3175 -0.2201 -0.6580
  431THF     C8 9698   1.964   3.717   1.282  0.3732 -0.1717  0.0441
  431THF     C9 9699   2.063   3.814   1.358  0.2911  0.3214 -0.2963
  431THF    H10 9700   1.989   3.612   1.300  1.5866  0.2034  0.6880
  431THF    H11 9701   1.859   3.732   1.306 -0.3165 -1.0013 -2.2389
  431THF    H12 9702   2.005   3.865   1.434 -0.6746 -0.7079 -0.3134
  431THF    H13 9703   2.146   3.771   1.412 -1.9785 -1.7961  1.7533
  432THF     O1 9704   2.813   4.319   0.643 -0.2754 -0.3211 -0.1286
  432THF     C2 9705   2.940   4.315   0.573 -0.2728  0.0561 -0.2123
  432THF     C3 9706   2.727   4.214   0.600  0.0729 -0.0602 -0.1833
  432THF     H4 9707   2.991   4.229   0.614 -0.5144 -1.2975 -2.5714
  432THF     H5 9708   2.993   4.410   0.575 -0.0248 -0.0675 -0.8001
  432THF     H6 9709   2.725   4.127   0.666 -1.2031  0.8811  1.0831
  432THF     H7 9710   2.628   4.259   0.597  0.4613  1.2920  3.0195
  432THF     C8 9711   2.773   4.177   0.461 -0.3770 -0.1122  0.7124
  432THF     C9 9712   2.890   4.281   0.433 -0.1943  0.1586 -0.3825
  432THF    H10 9713   2.689   4.181   0.392 -0.0691  0.7433  0.3686
  432THF    H11 9714   2.811   4.075   0.453  1.0102  0.4902 -1.1248
  432THF    H12 9715   2.964   4.251   0.359  0.1618 -0.4572  0.2005
  432THF    H13 9716   2.848   4.372   0.391  0.5327  1.1065  0.8582
  433THF     O1 9717   1.091   3.580   0.113  0.4381 -0.2123 -0.2618
  433THF     C2 9718   0.996   3.501   0.184  0.3757 -0.2527 -0.2768
  433THF     C3 9719   1.059   3.583  -0.027 -0.3383 -0.7880  0.3619
  433THF     H4 9720   0.907   3.563   0.200 -0.4549 -1.7080  1.0508
  433THF     H5 9721   1.021   3.462   0.283 -3.0211  1.2769  1.3656
  433THF     H6 9722   1.030   3.674  -0.079  0.9655  0.3258  1.4838
  433THF     H7 9723   1.156   3.572  -0.075  0.5770  3.3702  0.8735
  433THF     C8 9724   0.967   3.462  -0.050  0.4253 -0.4919  0.6712
  433THF     C9 9725   0.961   3.389   0.082  0.3564  0.1269  0.2248
  433THF    H10 9726   0.989   3.397  -0.135 -2.7701 -0.9573  0.0751
  433THF    H11 9727   0.872   3.511  -0.069  0.2919 -1.1312 -0.4246
  433THF    H12 9728   0.870   3.331   0.091  0.3192  0.1058 -0.2889
  433THF    H13 9729   1.036   3.310   0.079 -0.5736 -0.8725  1.5744
  434THF     O1 9730   5.361   1.748   4.134 -0.5870 -0.1340  0.7149
  434THF     C2 9731   5.302   1.642   4.204 -0.6960 -0.1215 -0.3502
  434THF     C3 9732   5.270   1.853   4.165  0.1219  0.4281 -0.4059
  434THF     H4 9733   5.364   1.552   4.208  0.4416  0.6741  0.9250
  434THF     H5 9734   5.210   1.607   4.157 -1.0221 -0.8148  0.7733
  434THF     H6 9735   5.304   1.953   4.142 -0.4265  0.5994 -0.4889
  434THF     H7 9736   5.189   1.839   4.094 -1.0718  1.3478  0.7176
  434THF     C8 9737   5.240   1.841   4.310  0.1771 -0.3409 -0.3124
  434THF     C9 9738   5.275   1.702   4.341 -0.4726  0.3169 -0.7999
  434THF    H10 9739   5.134   1.857   4.333  0.2580 -0.5753  0.2243
  434THF    H11 9740   5.302   1.908   4.369 -0.5765  2.2285 -2.2557
  434THF    H12 9741   5.363   1.693   4.405 -0.9291 -1.3143 -0.3464
  434THF    H13 9742   5.191   1.646   4.381  0.9409 -1.1299  0.3002
  435THF     O1 9743   0.467   3.202   0.786  0.1078 -0.2163  0.0954
  435THF     C2 9744   0.561   3.097   0.755 -0.4434 -0.0452 -0.4658
  435THF     C3 9745   0.346   3.135   0.815  0.6320  0.0217 -0.0751
  435THF     H4 9746   0.603   3.053   0.845 -0.2235  0.0602 -0.5176
  435THF     H5 9747   0.649   3.120   0.695 -0.1303 -1.0452 -0.4117
  435THF     H6 9748   0.341   3.094   0.916 -0.3097  0.1014 -0.0808
  435THF     H7 9749   0.263   3.205   0.818 -0.6349 -1.2997 -2.1812
  435THF     C8 9750   0.336   3.018   0.705 -0.3516 -0.3576  0.2126
  435THF     C9 9751   0.484   2.990   0.678 -0.4893 -0.3437 -0.5085
  435THF    H10 9752   0.317   3.055   0.605 -0.2971 -0.7415  0.0597
  435THF    H11 9753   0.275   2.935   0.741 -0.0910 -0.2118  1.0067
  435THF    H12 9754   0.511   2.888   0.708 -0.6026 -0.6709 -1.4839
  435THF    H13 9755   0.498   2.991   0.570 -0.7224 -1.6861 -0.5746
  436THF     O1 9756   2.992   4.086   3.657 -0.4966  0.1054 -0.3020
  436THF     C2 9757   2.874   4.070   3.575 -0.2615 -0.2731  0.1673
  436THF     C3 9758   3.074   4.173   3.586  0.1316 -0.1436 -0.0171
  436THF     H4 9759   2.793   4.014   3.622 -0.1027 -1.2887 -0.7304
  436THF     H5 9760   2.913   4.007   3.495  1.8644 -1.6239  2.1357
  436THF     H6 9761   3.151   4.207   3.655  1.2660 -1.8997 -0.3515
  436THF     H7 9762   3.121   4.129   3.498 -2.4575  1.3774 -2.3383
  436THF     C8 9763   2.965   4.281   3.546  0.1243 -0.2779  0.5997
  436THF     C9 9764   2.837   4.203   3.527 -0.6473  0.6301  0.4695
  436THF    H10 9765   2.987   4.341   3.458  0.5059  0.7204  1.3435
  436THF    H11 9766   2.962   4.361   3.621  2.5826 -0.4498  0.9544
  436THF    H12 9767   2.749   4.248   3.572 -1.0860 -1.4701  1.8928
  436THF    H13 9768   2.817   4.217   3.421 -0.3997  1.1677  0.4943
  437THF     O1 9769   4.110   5.251   3.774  0.0365  0.3251  0.3371
  437THF     C2 9770   3.986   5.260   3.706  0.1673 -0.0146  0.0722
  437THF     C3 9771   4.187   5.163   3.698 -0.0788  0.0177 -0.1404
  437THF     H4 9772   3.994   5.341   3.633  0.6759  1.1055  1.3110
  437THF     H5 9773   3.909   5.291   3.777 -0.1926 -0.4266 -0.1404
  437THF     H6 9774   4.234   5.216   3.615  0.6794  1.5640  1.2225
  437THF     H7 9775   4.276   5.115   3.740  0.9571  0.0611 -2.1400
  437THF     C8 9776   4.098   5.057   3.634  0.9201  0.3600 -0.6477
  437THF     C9 9777   3.961   5.114   3.665 -0.1864 -0.0557 -0.0263
  437THF    H10 9778   4.106   4.953   3.665 -1.1351 -0.8855 -3.7918
  437THF    H11 9779   4.119   5.052   3.527  0.1348  1.8010 -0.9006
  437THF    H12 9780   3.892   5.095   3.582  0.5511  0.6606 -0.8235
  437THF    H13 9781   3.909   5.065   3.748 -0.0388 -2.0421 -1.0457
  438THF     O1 9782   4.022   3.584   3.889 -0.1487  0.1500  1.0374
  438THF     C2 9783   4.117   3.541   3.794 -0.3398  0.6079  0.6653
  438THF     C3 9784   4.086   3.584   4.014 -0.2377 -0.1475 -0.8117
  438THF     H4 9785   4.200   3.609   3.778 -0.1371  0.4526  1.0214
  438THF     H5 9786   4.075   3.510   3.698  1.3336  1.9126 -0.5388
  438THF     H6 9787   4.158   3.662   4.039 -0.9385 -0.4590  2.7293
  438THF     H7 9788   4.008   3.584   4.091 -1.5488 -1.4094 -2.0699
  438THF     C8 9789   4.150   3.446   4.008  0.0722  0.1063 -0.0792
  438THF     C9 9790   4.183   3.423   3.864 -0.7669  0.1419  0.7502
  438THF    H10 9791   4.085   3.369   4.050 -0.7617  1.1246  0.5520
  438THF    H11 9792   4.244   3.450   4.064 -0.9491  0.6841  1.6845
  438THF    H12 9793   4.288   3.410   3.838 -1.0977  1.2249 -1.3516
  438THF    H13 9794   4.132   3.331   3.836 -1.5111  1.2364 -1.8442
  439THF     O1 9795   4.909   0.963   0.063  0.8168 -0.4353  0.0613
  439THF     C2 9796   4.878   0.820   0.029 -0.3065 -0.2002  0.3264
  439THF     C3 9797   4.785   1.022   0.092  0.3450  0.3091  0.4870
  439THF     H4 9798   4.877   0.769   0.126  1.6179 -0.9604 -0.0033
  439THF     H5 9799   4.963   0.780  -0.026  0.1862  3.8851 -2.2207
  439THF     H6 9800   4.748   0.991   0.189 -1.7856 -0.7720 -0.6042
  439THF     H7 9801   4.794   1.131   0.086 -0.2278  0.3445  0.1885
  439THF     C8 9802   4.692   0.958  -0.013  0.2599 -0.5423 -0.2802
  439THF     C9 9803   4.750   0.823  -0.048 -0.4098 -0.5678 -0.2301
  439THF    H10 9804   4.692   1.019  -0.104 -1.9621  1.3603  0.8737
  439THF    H11 9805   4.586   0.948   0.012  0.3613  0.4804  0.6297
  439THF    H12 9806   4.686   0.734  -0.048  1.3542 -1.9566 -2.7889
  439THF    H13 9807   4.776   0.830  -0.154 -1.9028 -2.3140 -0.7753
  440THF     O1 9808   4.501   4.942   4.469  0.5532  0.2375 -0.6625
  440THF     C2 9809   4.472   4.877   4.353 -0.3755 -0.2052  0.7070
  440THF     C3 9810   4.383   4.953   4.555 -0.5259  0.1282  0.0694
  440THF     H4 9811   4.558   4.842   4.296  0.0580  2.3352 -0.3239
  440THF     H5 9812   4.401   4.932   4.292 -0.7842 -0.5741  0.8469
  440THF     H6 9813   4.412   4.945   4.660  1.7063 -1.1597 -0.5737
  440THF     H7 9814   4.327   5.046   4.544 -0.2797  0.2705  0.0210
  440THF     C8 9815   4.294   4.841   4.497  0.0968  0.1170  0.0535
  440THF     C9 9816   4.384   4.765   4.390 -0.5977  0.2091  0.5011
  440THF    H10 9817   4.197   4.870   4.457 -0.9497 -2.2663  0.6856
  440THF    H11 9818   4.261   4.771   4.574 -1.2031 -0.4977 -1.0209
  440THF    H12 9819   4.439   4.685   4.440  1.6321  1.9971  1.0877
  440THF    H13 9820   4.321   4.724   4.311  1.8888  1.0628 -2.0498
  441THF     O1 9821   0.106   0.762   1.085 -0.0506  0.2327  0.5601
  441THF     C2 9822   0.028   0.765   1.200 -0.1741  0.1947  0.2345
  441THF     C3 9823   0.181   0.642   1.085  0.0608  0.4555  0.0477
  441THF     H4 9824  -0.061   0.705   1.183  0.7773 -0.2077 -4.4897
  441THF     H5 9825   0.004   0.863   1.242  2.1931  0.6867  0.5965
  441THF     H6 9826   0.124   0.556   1.051  1.6279 -1.4562  1.9890
  441THF     H7 9827   0.260   0.663   1.013  0.8553 -3.3687 -0.3709
  441THF     C8 9828   0.215   0.625   1.231 -0.2452 -0.4983 -0.0923
  441THF     C9 9829   0.096   0.685   1.312 -0.2361  0.5202  0.0277
  441THF    H10 9830   0.303   0.680   1.264 -0.0334 -2.8431  3.8862
  441THF    H11 9831   0.229   0.523   1.268  0.0203  0.0703  1.4286
  441THF    H12 9832   0.029   0.608   1.349 -0.2939  0.3727 -0.3837
  441THF    H13 9833   0.125   0.752   1.394 -1.1358  2.0472 -0.8502
  442THF     O1 9834   3.500   3.479   4.202 -0.6332 -0.5233  0.1446
  442THF     C2 9835   3.479   3.512   4.066 -0.9194  0.3979 -0.6373
  442THF     C3 9836   3.575   3.363   4.211  0.2517  0.0282 -0.1402
  442THF     H4 9837   3.564   3.573   4.035  1.1144 -1.7535  0.3602
  442THF     H5 9838   3.387   3.565   4.043 -0.1214  1.7587 -0.7720
  442THF     H6 9839   3.677   3.399   4.219 -0.0904  0.7145  1.5639
  442THF     H7 9840   3.549   3.308   4.301  0.9751 -2.2714 -1.2669
  442THF     C8 9841   3.556   3.287   4.078  0.0316 -0.0912 -1.1666
  442THF     C9 9842   3.480   3.380   3.988 -0.1812 -0.1249  0.0042
  442THF    H10 9843   3.494   3.199   4.097 -2.9342  1.6883 -2.0287
  442THF    H11 9844   3.650   3.250   4.036 -0.2047 -3.0568  0.6123
  442THF    H12 9845   3.526   3.394   3.891 -0.1231  0.5789  0.1303
  442THF    H13 9846   3.377   3.353   3.963  0.2670 -0.9242 -1.0421
  443THF     O1 9847   4.110   3.502   0.111  0.1243 -0.2974  0.6701
  443THF     C2 9848   4.004   3.496   0.018 -0.2034  0.3255 -0.4904
  443THF     C3 9849   4.080   3.436   0.232 -0.1069  0.0104  0.2926
  443THF     H4 9850   4.022   3.408  -0.044 -3.9168  0.1487 -1.5633
  443THF     H5 9851   4.004   3.585  -0.044  0.0209  0.5310 -0.1979
  443THF     H6 9852   4.105   3.333   0.206  0.5077 -0.3056  1.9907
  443THF     H7 9853   4.137   3.472   0.318 -0.9220  0.1910  0.7772
  443THF     C8 9854   3.927   3.451   0.251  0.4201 -0.0652  0.2986
  443THF     C9 9855   3.881   3.491   0.112  0.1607  0.4113  0.1714
  443THF    H10 9856   3.912   3.523   0.332  0.8017  1.0898 -0.6329
  443THF    H11 9857   3.872   3.359   0.270  1.4028 -0.6693  0.2624
  443THF    H12 9858   3.807   3.427   0.064  2.1298 -0.5266 -1.8001
  443THF    H13 9859   3.828   3.586   0.108  0.1251  0.3955 -3.4961
  444THF     O1 9860   5.380   4.973   2.550 -0.2139 -0.0218  0.6093
  444THF     C2 9861   5.285   4.996   2.447  0.0447  0.5541 -0.2814
  444THF     C3 9862   5.409   4.835   2.539 -0.3011 -0.0929  0.1107
  444THF     H4 9863   5.346   5.064   2.387  1.3057  0.1232  0.4709
  444THF     H5 9864   5.191   5.036   2.484 -0.4144 -2.3841  2.0950
  444THF     H6 9865   5.509   4.816   2.579 -0.7479  1.4475  2.1164
  444THF     H7 9866   5.342   4.783   2.607  1.0242  1.3514  2.6766
  444THF     C8 9867   5.381   4.788   2.398  0.2328  0.3834 -0.3322
  444THF     C9 9868   5.265   4.864   2.360  0.2741  0.4858  0.0105
  444THF    H10 9869   5.366   4.680   2.397  1.6357  0.1688  0.1628
  444THF    H11 9870   5.465   4.802   2.331 -0.2238  0.5019 -0.8835
  444THF    H12 9871   5.266   4.887   2.254 -1.0956  0.0045 -0.1270
  444THF    H13 9872   5.173   4.818   2.398  0.8640 -0.3754  0.4158
  445THF     O1 9873   2.736   4.198   0.147 -0.5944  1.0195  0.7751
  445THF     C2 9874   2.733   4.063   0.110 -0.0447  0.1771  0.2820
  445THF     C3 9875   2.662   4.259   0.037 -0.2491  0.1654  0.3026
  445THF     H4 9876   2.635   4.027   0.142 -0.5564  1.0965 -0.1891
  445THF     H5 9877   2.816   4.012   0.158 -0.1282 -0.3963 -0.1682
  445THF     H6 9878   2.558   4.239   0.063 -0.1037  0.1301  0.8884
  445THF     H7 9879   2.681   4.365   0.026  1.6365 -0.3114 -1.5451
  445THF     C8 9880   2.710   4.185  -0.086 -0.0674 -0.2289  0.6914
  445THF     C9 9881   2.749   4.045  -0.041 -0.3698  0.2844  0.1355
  445THF    H10 9882   2.788   4.234  -0.146 -0.2338  0.5711  1.1230
  445THF    H11 9883   2.619   4.184  -0.146  0.3224  0.4697  0.0631
  445THF    H12 9884   2.679   3.965  -0.065 -2.5898  1.9774  0.5937
  445THF    H13 9885   2.847   4.024  -0.083 -0.1289 -1.0854  1.3139
  446THF     O1 9886   3.940   3.609   4.991  0.0495 -0.2839 -0.0697
  446THF     C2 9887   3.997   3.481   5.014  0.3658 -0.5013  0.6398
  446THF     C3 9888   3.884   3.635   5.116 -0.3238  0.0750 -0.5771
  446THF     H4 9889   4.087   3.490   5.074  0.9319 -1.1785 -0.0756
  446THF     H5 9890   4.031   3.422   4.929 -0.9033 -1.2824  0.6486
  446THF     H6 9891   3.965   3.652   5.187  0.1502  0.0324 -1.1060
  446THF     H7 9892   3.820   3.723   5.111 -2.2414 -1.2366 -0.3108
  446THF     C8 9893   3.821   3.513   5.169  0.0842 -0.2102  0.3013
  446THF     C9 9894   3.888   3.410   5.084 -0.3585  0.1676 -0.2171
  446THF    H10 9895   3.714   3.516   5.151  0.5308  1.1661 -2.6448
  446THF    H11 9896   3.829   3.507   5.278  0.2396 -1.2236  0.2456
  446THF    H12 9897   3.932   3.329   5.143 -3.8860  0.6323  3.4612
  446THF    H13 9898   3.817   3.369   5.012  1.7445  0.3923 -2.5578
  447THF     O1 9899   1.094   0.277   1.163  0.7451 -0.0079  0.4384
  447THF     C2 9900   0.995   0.205   1.231  0.0738  0.1529 -0.2049
  447THF     C3 9901   1.223   0.227   1.181 -0.6124  0.3117 -0.3536
  447THF     H4 9902   0.939   0.135   1.169  2.8601 -0.1777 -2.5291
  447THF     H5 9903   0.931   0.273   1.288  0.1067 -0.4088  0.5200
  447THF     H6 9904   1.241   0.143   1.114 -1.0435 -1.1179  1.2637
  447THF     H7 9905   1.304   0.297   1.163  1.4515 -1.6508  0.8438
  447THF     C8 9906   1.213   0.187   1.328 -0.7696 -0.1309  0.3749
  447THF     C9 9907   1.074   0.124   1.337 -0.3573 -0.5164  0.5826
  447THF    H10 9908   1.212   0.271   1.397 -0.7130 -0.2916  0.5734
  447THF    H11 9909   1.299   0.134   1.367 -0.4879 -0.4004 -0.5799
  447THF    H12 9910   1.078   0.018   1.310  1.9083 -0.7950  1.8209
  447THF    H13 9911   1.035   0.119   1.439  1.0051 -1.7609  1.0805
  448THF     O1 9912   3.509   5.111   3.950  0.1976  0.0912  0.6221
  448THF     C2 9913   3.571   5.085   4.075 -0.6055  0.2195 -0.2653
  448THF     C3 9914   3.554   5.235   3.903 -0.7107  0.0507  0.5087
  448THF     H4 9915   3.571   4.980   4.103 -0.7748  0.5960  1.2245
  448THF     H5 9916   3.519   5.137   4.156  1.6723 -0.6717  1.9026
  448THF     H6 9917   3.585   5.244   3.799 -0.8062 -0.8496  0.3878
  448THF     H7 9918   3.475   5.307   3.922 -0.8976  0.4401 -1.5390
  448THF     C8 9919   3.673   5.267   3.991 -0.7634  0.3325 -0.1489
  448THF     C9 9920   3.712   5.133   4.052 -0.1631 -0.5780  0.6828
  448THF    H10 9921   3.660   5.337   4.074 -0.1733 -0.4203  0.5903
  448THF    H11 9922   3.750   5.309   3.926  0.7291 -1.5983  0.2942
  448THF    H12 9923   3.780   5.083   3.983 -0.1451  1.3222 -0.7339
  448THF    H13 9924   3.765   5.134   4.148  1.7954  2.0108 -0.3120
  449THF     O1 9925   1.824   0.031   4.712 -0.1377  0.2698  0.1320
  449THF     C2 9926   1.829   0.166   4.685 -0.9368 -0.5947  0.9195
  449THF     C3 9927   1.697   0.008   4.778  0.3947  0.5221 -0.2054
  449THF     H4 9928   1.908   0.173   4.611 -0.0718 -3.1380  1.5084
  449THF     H5 9929   1.849   0.233   4.769 -1.7457 -0.7483  1.2505
  449THF     H6 9930   1.668  -0.097   4.791 -1.9957  1.3801  2.6798
  449THF     H7 9931   1.707   0.057   4.875  1.1574  0.4866 -0.2640
  449THF     C8 9932   1.606   0.091   4.692 -0.0382 -0.1773 -0.2893
  449THF     C9 9933   1.694   0.199   4.632  0.7806  0.0807  0.3553
  449THF    H10 9934   1.521   0.124   4.752 -0.7526  0.3513 -1.5629
  449THF    H11 9935   1.557   0.031   4.616 -0.2788 -0.4293  0.0579
  449THF    H12 9936   1.692   0.186   4.524  0.5993 -0.0470  0.3738
  449THF    H13 9937   1.649   0.297   4.646 -0.6028 -0.4881  0.0603
  450THF     O1 9938   4.630   0.348   4.428  0.3353  0.4956  0.2813
  450THF     C2 9939   4.523   0.255   4.422  0.8407 -0.4374  0.3106
  450THF     C3 9940   4.577   0.468   4.477  0.6535 -0.0656 -0.0669
  450THF     H4 9941   4.573   0.167   4.462  1.2680  0.8203  2.7126
  450THF     H5 9942   4.485   0.237   4.321 -0.3651  1.9884  0.2582
  450THF     H6 9943   4.635   0.536   4.540 -1.1334  2.1670 -0.6856
  450THF     H7 9944   4.544   0.517   4.385  0.1438  1.4334  0.8677
  450THF     C8 9945   4.449   0.431   4.566 -0.4092 -0.3120 -0.7464
  450THF     C9 9946   4.397   0.311   4.496 -0.3150  0.0389  0.5449
  450THF    H10 9947   4.377   0.511   4.581  0.9525  0.7063  0.7144
  450THF    H11 9948   4.476   0.402   4.668 -0.9365 -1.9316 -1.0300
  450THF    H12 9949   4.345   0.235   4.555  0.5664 -0.1785  1.0667
  450THF    H13 9950   4.323   0.350   4.427  0.5312 -0.9934 -1.0071
  451THF     O1 9951   2.223   3.265   5.170 -0.1941  0.1336  0.0250
  451THF     C2 9952   2.322   3.166   5.148  0.5309 -0.2759 -0.3291
  451THF     C3 9953   2.114   3.230   5.077  0.4222 -0.2245  0.4092
  451THF     H4 9954   2.303   3.072   5.201  3.0257  0.0331  1.2816
  451THF     H5 9955   2.417   3.190   5.194 -0.3284 -0.2383  1.5463
  451THF     H6 9956   2.038   3.173   5.130  0.8871 -0.0752  1.2536
  451THF     H7 9957   2.070   3.319   5.032  0.9604 -0.8065 -1.3349
  451THF     C8 9958   2.185   3.149   4.965 -0.0299 -0.0725 -0.4826
  451THF     C9 9959   2.327   3.149   5.002  0.1516  0.9465  0.4190
  451THF    H10 9960   2.162   3.197   4.870 -0.5293  1.1246  0.2160
  451THF    H11 9961   2.149   3.046   4.970  0.1332 -0.1894 -1.4894
  451THF    H12 9962   2.378   3.061   4.963  1.8666  2.3660 -0.6856
  451THF    H13 9963   2.376   3.241   4.968  0.1876  0.7444 -0.0953
  452THF     O1 9964   4.650   2.961   2.944  0.6532 -0.2247  0.0476
  452THF     C2 9965   4.666   3.072   2.858  0.7456  0.2641  0.0896
  452THF     C3 9966   4.661   3.002   3.079 -0.1955 -0.0060 -0.0622
  452THF     H4 9967   4.570   3.116   2.831  0.9691  1.2255  0.8207
  452THF     H5 9968   4.710   3.032   2.766  0.3618 -0.2626  0.1333
  452THF     H6 9969   4.574   3.057   3.114  1.9374  3.5337  0.2086
  452THF     H7 9970   4.694   2.925   3.148  1.3191  1.0343  0.4410
  452THF     C8 9971   4.776   3.099   3.066 -0.3177  0.0095 -0.1365
  452THF     C9 9972   4.750   3.176   2.939 -0.4587 -0.0253  0.3132
  452THF    H10 9973   4.876   3.057   3.055 -0.6781 -0.5579 -1.4488
  452THF    H11 9974   4.792   3.163   3.153  0.4070 -0.2354 -0.0812
  452THF    H12 9975   4.695   3.267   2.961  1.3159  1.4574 -1.0155
  452THF    H13 9976   4.846   3.196   2.891 -0.7978  0.5082 -0.1624
  453THF     O1 9977   3.863   2.507   5.149 -0.5778  0.1898 -0.1450
  453THF     C2 9978   3.778   2.433   5.239  0.1978  0.2833 -0.2918
  453THF     C3 9979   3.816   2.636   5.137  0.4390 -0.6493  0.1384
  453THF     H4 9980   3.836   2.380   5.314 -0.5306  1.7730  1.3978
  453THF     H5 9981   3.717   2.359   5.187  0.3894 -1.0404  1.2886
  453THF     H6 9982   3.907   2.694   5.155 -0.5012  0.6076  0.9743
  453THF     H7 9983   3.775   2.672   5.043  1.2785  0.4036  0.1522
  453THF     C8 9984   3.722   2.669   5.256  0.2155 -0.0937  0.3838
  453THF     C9 9985   3.673   2.530   5.284 -0.0129 -0.3932 -0.1321
  453THF    H10 9986   3.650   2.749   5.238 -1.4018 -1.8029 -1.1307
  453THF    H11 9987   3.784   2.702   5.340 -0.1841  0.6015  0.4126
  453THF    H12 9988   3.658   2.515   5.391  2.9834  0.2366  0.4672
  453THF    H13 9989   3.582   2.509   5.228  0.9245  0.7073 -2.1935
  454THF     O1 9990   1.820   2.417   1.731 -0.0447 -0.1015  0.2290
  454THF     C2 9991   1.914   2.514   1.794  0.3907  0.0910  0.1959
  454THF     C3 9992   1.693   2.443   1.780  0.4672  0.1276 -0.6309
  454THF     H4 9993   1.913   2.616   1.754 -0.2393  1.3680  3.1719
  454THF     H5 9994   2.019   2.488   1.786  0.1921 -0.2820 -1.6132
  454THF     H6 9995   1.657   2.533   1.731 -1.4535  0.6343  1.5247
  454THF     H7 9996   1.617   2.365   1.771 -0.5912  1.1333 -0.6816
  454THF     C8 9997   1.715   2.471   1.931 -0.4897  0.0613  0.4550
  454THF     C9 9998   1.856   2.536   1.934  0.8036 -0.4021 -0.6388
  454THF    H10 9999   1.709   2.375   1.983  0.3727 -1.1824 -1.6287
  454THF    H1110000   1.641   2.532   1.983 -2.0364 -0.8493 -0.5867
  454THF    H1210001   1.867   2.641   1.962 -0.2980 -0.6454  0.8164
  454THF    H1310002   1.908   2.482   2.012  2.5791  1.5746 -0.3404
  455THF     O110003   1.138   1.788   4.729  0.4631  0.7836 -0.3722
  455THF     C210004   1.096   1.892   4.816 -0.7482 -0.0074  0.3269
  455THF     C310005   1.254   1.822   4.658 -0.2981  0.0313 -0.1811
  455THF     H410006   1.127   1.875   4.919  1.9806 -3.8469 -0.8644
  455THF     H510007   0.988   1.888   4.811 -0.7172  0.5008 -1.0618
  455THF     H610008   1.345   1.800   4.713 -0.5077  1.3876  0.7531
  455THF     H710009   1.262   1.758   4.570 -1.2314 -1.6465  0.9120
  455THF     C810010   1.236   1.970   4.628  0.0061  0.0962 -0.3463
  455THF     C910011   1.164   2.018   4.757  0.1213  0.1681 -0.4478
  455THF    H1010012   1.171   1.993   4.543  1.2407  3.1207 -0.6296
  455THF    H1110013   1.331   2.019   4.604  1.9502 -2.2169  2.0386
  455THF    H1210014   1.240   2.052   4.827 -0.3059 -0.2218  0.2215
  455THF    H1310015   1.087   2.093   4.744  0.6706  0.7797 -0.2090
  456THF     O110016   0.131   1.487   1.088 -0.3958 -0.0572 -0.4202
  456THF     C210017   0.040   1.570   1.016 -0.2875 -0.0469 -0.6926
  456THF     C310018   0.064   1.405   1.190 -0.1674 -0.2842  0.2982
  456THF     H410019   0.008   1.521   0.923 -0.8117  0.1058 -0.5942
  456THF     H510020   0.087   1.664   0.989  0.4007  0.0233  0.6871
  456THF     H610021   0.061   1.298   1.166  0.1136 -0.6739  1.8930
  456THF     H710022   0.112   1.425   1.285  0.5355  0.2460 -0.1592
  456THF     C810023  -0.082   1.455   1.186 -0.9743  0.3256  1.1769
  456THF     C910024  -0.081   1.582   1.110  0.2402 -0.1837  0.1332
  456THF    H1010025  -0.117   1.457   1.289 -0.6033 -3.1672  1.4800
  456THF    H1110026  -0.142   1.389   1.123  1.7655 -0.0149 -1.3242
  456THF    H1210027  -0.163   1.586   1.038  0.1109 -0.1232  0.2834
  456THF    H1310028  -0.086   1.669   1.176  0.3720  0.6373 -0.9233
  457THF     O110029   3.379   4.021   4.803  0.4061 -0.7500 -0.4059
  457THF     C210030   3.295   3.955   4.701 -0.7253 -0.2606 -0.3211
  457THF     C310031   3.309   4.001   4.929  0.5617  0.9206 -0.2750
  457THF     H410032   3.364   3.923   4.623 -0.4351 -0.8380  0.1679
  457THF     H510033   3.224   4.033   4.673 -0.3953  0.3032  0.3702
  457THF     H610034   3.367   4.017   5.019 -1.1212 -0.8727  1.2242
  457THF     H710035   3.223   4.068   4.934  0.1371  0.6729 -2.7951
  457THF     C810036   3.284   3.856   4.914  0.3491  0.2723 -0.7292
  457THF     C910037   3.231   3.846   4.778  0.8273 -0.4836 -0.0701
  457THF    H1010038   3.218   3.820   4.993  1.2301  2.7427  1.2927
  457THF    H1110039   3.375   3.797   4.929  0.9226  1.0772 -0.9358
  457THF    H1210040   3.236   3.744   4.740 -2.7045 -0.8261  0.0291
  457THF    H1310041   3.126   3.875   4.773  1.1784  0.9212  0.3571
  458THF     O110042   1.612   2.378   4.537 -0.3308  0.2810  0.4315
  458THF     C210043   1.614   2.454   4.419 -0.0889 -0.3412  0.7593
  458THF     C310044   1.742   2.386   4.595  0.1499 -0.1390 -0.1461
  458THF     H410045   1.512   2.479   4.391 -1.1880 -3.2652  1.7075
  458THF     H510046   1.663   2.402   4.337 -2.3638  0.6075 -1.3306
  458THF     H610047   1.737   2.353   4.699  0.8467 -0.9353 -0.3550
  458THF     H710048   1.817   2.335   4.535 -1.3666 -3.0709  0.2670
  458THF     C810049   1.766   2.533   4.582  0.3376 -0.4149  0.0949
  458THF     C910050   1.697   2.583   4.459 -0.1434  0.3637 -0.2539
  458THF    H1010051   1.866   2.575   4.594  0.8536 -0.4808 -3.1477
  458THF    H1110052   1.702   2.571   4.662 -0.3233 -1.9086  0.3070
  458THF    H1210053   1.634   2.670   4.472  0.1275  0.5453 -0.1459
  458THF    H1310054   1.770   2.611   4.383 -0.4166  0.8348 -0.3442
  459THF     O110055   3.215   0.684   3.974  0.6438 -0.1281 -1.1013
  459THF     C210056   3.164   0.561   4.026 -0.1823  0.3869  1.4494
  459THF     C310057   3.291   0.644   3.863  0.1156 -0.0612  0.5766
  459THF     H410058   3.080   0.585   4.092 -1.8453 -0.9946 -0.0331
  459THF     H510059   3.248   0.510   4.071 -0.0885 -0.0154  0.8317
  459THF     H610060   3.322   0.736   3.813 -0.3830  0.9262  2.0043
  459THF     H710061   3.381   0.590   3.892 -1.5511 -2.8854  0.8636
  459THF     C810062   3.190   0.548   3.785  0.5766 -0.2064  0.2166
  459THF     C910063   3.115   0.481   3.909  0.0551 -0.1234 -0.3761
  459THF    H1010064   3.228   0.475   3.714  1.3666  0.0214  0.3910
  459THF    H1110065   3.123   0.617   3.734 -1.2617 -1.0076  1.4524
  459THF    H1210066   3.007   0.490   3.898  0.0928  1.3125  0.2413
  459THF    H1310067   3.153   0.379   3.915  0.9978  0.2938  1.3774
  460THF     O110068   2.012   5.274   0.149 -0.2298 -0.0675  0.4935
  460THF     C210069   1.872   5.281   0.141 -0.3105  0.1231  0.0191
  460THF     C310070   2.065   5.146   0.121 -0.0988  0.2773  0.0006
  460THF     H410071   1.827   5.357   0.076  0.4261  1.6642  1.2524
  460THF     H510072   1.833   5.293   0.242 -0.3829 -1.3901  0.1926
  460THF     H610073   2.091   5.135   0.016  2.1765  1.1331  0.4200
  460THF     H710074   2.143   5.111   0.190 -2.0248 -1.3565  1.4761
  460THF     C810075   1.949   5.059   0.150  0.8027 -0.0532  0.2120
  460THF     C910076   1.837   5.143   0.096  0.5315 -0.1290  0.0391
  460THF    H1010077   1.936   5.036   0.256  2.2485  1.4071  0.7447
  460THF    H1110078   1.953   4.964   0.096  1.7370 -0.1901  0.4952
  460THF    H1210079   1.826   5.134  -0.012 -2.1145 -3.8105  0.4043
  460THF    H1310080   1.734   5.112   0.111  0.7039 -1.4481 -1.2307
  461THF     O110081   3.132   2.047   2.710 -0.1290  0.0630  0.4554
  461THF     C210082   3.262   2.103   2.715 -0.4363  0.0711 -0.0505
  461THF     C310083   3.036   2.130   2.785 -0.1348  0.5604  0.2535
  461THF     H410084   3.302   2.135   2.619 -1.7627 -0.3587 -0.7710
  461THF     H510085   3.331   2.024   2.743 -1.2877 -0.9871 -0.8596
  461THF     H610086   3.007   2.198   2.705  2.3162 -0.2951 -1.5110
  461THF     H710087   2.957   2.068   2.826 -0.4353  0.8245  0.0728
  461THF     C810088   3.127   2.183   2.897  0.2705 -0.5893 -0.2780
  461THF     C910089   3.261   2.210   2.829 -0.7857 -0.2551  0.4830
  461THF    H1010090   3.140   2.098   2.965 -0.3024 -2.2784 -2.1925
  461THF    H1110091   3.075   2.271   2.935 -1.5536 -1.0821 -1.5103
  461THF    H1210092   3.263   2.313   2.791 -2.0690  0.1872  1.5523
  461THF    H1310093   3.344   2.197   2.898  0.5140  0.5751 -0.8468
  462THF     O110094   2.746   1.028   0.364 -0.3791 -0.0076  0.4026
  462THF     C210095   2.839   1.080   0.272  0.2436  0.2535  0.6144
  462THF     C310096   2.763   0.892   0.394  0.6086 -0.0984  0.0168
  462THF     H410097   2.866   1.177   0.313 -0.1163  0.4373  0.4195
  462THF     H510098   2.802   1.096   0.170  1.0006 -0.4505  0.2167
  462THF     H610099   2.719   0.876   0.493 -0.7800  2.0961 -0.2011
  462THF     H710100   2.719   0.814   0.332 -2.6792  1.1344  0.6262
  462THF     C810101   2.916   0.889   0.404  0.7210  0.5071 -0.0664
  462THF     C910102   2.952   0.983   0.293  0.3359 -0.0074  0.4384
  462THF    H1010103   2.943   0.788   0.372  2.2658  1.0153 -0.4405
  462THF    H1110104   2.948   0.898   0.508  1.1553 -2.9601  0.2036
  462THF    H1210105   3.043   1.042   0.308 -0.3709  0.5960  2.8979
  462THF    H1310106   2.964   0.924   0.203 -0.2798  0.1771  0.2298
  463THF     O110107   0.228   1.721   2.602 -0.4768 -0.3922 -0.0029
  463THF     C210108   0.359   1.669   2.575  0.2993 -0.3635  0.1604
  463THF     C310109   0.229   1.763   2.737 -0.6062  0.1473  0.1929
  463THF     H410110   0.436   1.745   2.566 -1.3375  1.1195 -3.2778
  463THF     H510111   0.366   1.600   2.491  2.2151 -1.1664  0.9209
  463THF     H610112   0.274   1.862   2.723  0.1542  0.0062  1.5293
  463THF     H710113   0.129   1.779   2.776  0.1892  1.0308  1.9902
  463THF     C810114   0.310   1.659   2.817 -0.2319 -0.5206  0.5052
  463THF     C910115   0.379   1.581   2.703 -0.1588 -0.4693  0.4203
  463THF    H1010116   0.242   1.590   2.867 -0.2972 -2.0524 -1.5602
  463THF    H1110117   0.382   1.699   2.888 -0.7999  1.1763  0.1628
  463THF    H1210118   0.486   1.566   2.720  0.2162  2.1178  0.8355
  463THF    H1310119   0.319   1.491   2.688 -1.0716  0.6351 -3.7980
  464THF     O110120   4.744   4.407   2.350  0.0147 -0.4664  0.3852
  464THF     C210121   4.816   4.525   2.398 -0.0596  0.6346 -0.7990
  464THF     C310122   4.707   4.429   2.218  0.2366  0.1950 -0.7964
  464THF     H410123   4.923   4.517   2.378 -0.3800 -0.9300 -2.0249
  464THF     H510124   4.797   4.549   2.503 -0.8981  0.4700 -0.9081
  464THF     H610125   4.787   4.416   2.144  0.8319  2.4262 -0.6308
  464THF     H710126   4.635   4.356   2.183  0.1289 -0.0802 -0.0035
  464THF     C810127   4.658   4.571   2.222 -0.6848 -0.3811  0.1313
  464THF     C910128   4.750   4.638   2.316 -0.3426 -0.2600  0.6358
  464THF    H1010129   4.561   4.585   2.270 -0.5011  0.8156  0.1780
  464THF    H1110130   4.643   4.622   2.127 -0.8549  0.1102  0.4215
  464THF    H1210131   4.827   4.691   2.259  0.3349  0.5766  2.2373
  464THF    H1310132   4.696   4.709   2.379 -2.1585 -0.5685 -0.4971
  465THF     O110133   3.121   0.554   0.568  0.1505  0.1376 -0.8794
  465THF     C210134   3.199   0.618   0.470 -0.2473  0.3602 -0.0774
  465THF     C310135   3.217   0.492   0.655  0.3649 -0.6808  0.1315
  465THF     H410136   3.254   0.706   0.504  1.6662 -0.6170 -0.4790
  465THF     H510137   3.145   0.646   0.379 -2.4629  1.4555  1.4917
  465THF     H610138   3.272   0.568   0.710  0.5259 -0.7476  0.0632
  465THF     H710139   3.178   0.428   0.734  0.9177  1.1279  1.9330
  465THF     C810140   3.320   0.419   0.558  0.2434 -0.1049  0.3790
  465THF     C910141   3.298   0.507   0.427  0.0332 -0.6841 -0.1167
  465THF    H1010142   3.289   0.319   0.527 -2.6910  0.8224  0.0398
  465THF    H1110143   3.422   0.414   0.594  0.1363 -0.8102  0.6033
  465THF    H1210144   3.384   0.563   0.389  0.8318 -1.3814  0.6067
  465THF    H1310145   3.262   0.440   0.349 -0.6895 -0.8158  0.3197
  466THF     O110146   4.219   5.141   2.316 -0.0719 -0.4263  0.0429
  466THF     C210147   4.316   5.238   2.272 -0.0655  0.0137 -0.7858
  466THF     C310148   4.087   5.173   2.267 -0.5755  0.0216  0.0675
  466THF     H410149   4.406   5.197   2.226 -1.0109  0.1053 -2.8571
  466THF     H510150   4.348   5.304   2.353  0.5613 -0.3448 -0.7290
  466THF     H610151   4.067   5.094   2.194  0.2956  1.0573 -1.3361
  466THF     H710152   4.018   5.156   2.349 -1.5738 -0.0205 -0.7571
  466THF     C810153   4.098   5.311   2.207  0.1063  0.0812 -0.1837
  466THF     C910154   4.242   5.324   2.168 -0.6888  0.1268 -0.1073
  466THF    H1010155   4.070   5.380   2.286  1.7350  1.6986 -0.9553
  466THF    H1110156   4.027   5.316   2.124 -0.8664 -2.4710  0.3755
  466THF    H1210157   4.248   5.276   2.071 -0.7624 -0.0576 -0.0207
  466THF    H1310158   4.267   5.430   2.157  0.8262 -0.3039 -0.9534
  467THF     O110159   4.552   3.757   3.941 -0.5470 -0.4701  0.1084
  467THF     C210160   4.465   3.671   4.016  0.4773 -0.3318  0.1949
  467THF     C310161   4.638   3.812   4.039 -0.2726 -1.0679  0.1595
  467THF     H410162   4.436   3.588   3.951 -0.2424 -0.6675  0.9339
  467THF     H510163   4.382   3.732   4.051  0.9141 -0.0594  0.7587
  467THF     H610164   4.724   3.868   3.999 -1.0922  1.7916  2.0805
  467THF     H710165   4.577   3.882   4.096 -3.3971 -2.6288 -1.0553
  467THF     C810166   4.671   3.697   4.133 -0.6303 -0.6895 -0.6660
  467THF     C910167   4.544   3.615   4.130  0.0886 -0.3518  0.2141
  467THF    H1010168   4.690   3.727   4.236 -0.8370  1.6111 -1.2466
  467THF    H1110169   4.756   3.643   4.091 -0.0543 -0.1744 -0.1691
  467THF    H1210170   4.577   3.514   4.102  0.5028  0.2115 -1.4417
  467THF    H1310171   4.495   3.602   4.227  1.1712 -2.8548  0.5341
  468THF     O110172   4.430   0.355   1.918 -0.1303  0.5256  0.0091
  468THF     C210173   4.300   0.410   1.911  0.7656  0.0444 -0.3233
  468THF     C310174   4.459   0.328   2.058 -0.1213 -0.4892  0.2532
  468THF     H410175   4.255   0.393   1.813 -2.8589  1.9083  0.8558
  468THF     H510176   4.294   0.519   1.919 -1.6723 -0.0633 -0.1617
  468THF     H610177   4.544   0.260   2.062  1.5414  1.3815 -1.1912
  468THF     H710178   4.489   0.418   2.111 -1.0764  0.1271 -0.2117
  468THF     C810179   4.334   0.275   2.115  0.5502  0.5190 -0.0336
  468THF     C910180   4.222   0.327   2.018 -0.1084 -0.2927  0.1367
  468THF    H1010181   4.313   0.316   2.214 -1.4367  0.4706 -0.3889
  468THF    H1110182   4.343   0.166   2.114 -0.3246  0.4096  1.3711
  468THF    H1210183   4.162   0.242   1.987 -2.0147  0.0963  2.4416
  468THF    H1310184   4.149   0.392   2.068 -0.9419  0.3229 -1.7918
  469THF     O110185   1.278   1.338   4.400  0.3287 -0.1691  0.3335
  469THF     C210186   1.164   1.422   4.368  0.0163  0.2607  0.6501
  469THF     C310187   1.350   1.316   4.279 -0.0937 -0.2728  0.3962
  469THF     H410188   1.179   1.528   4.344 -0.6584 -0.1000 -1.5979
  469THF     H510189   1.093   1.412   4.450 -0.9085 -0.8287 -0.2572
  469THF     H610190   1.390   1.409   4.240  0.3600 -1.2276 -1.5948
  469THF     H710191   1.427   1.241   4.299 -2.2895 -2.7752  0.1399
  469THF     C810192   1.233   1.264   4.188 -0.0286 -0.5028 -0.1345
  469THF     C910193   1.120   1.357   4.237 -0.1975  0.0398 -0.1330
  469THF    H1010194   1.205   1.159   4.189  0.3523 -0.6235 -0.8601
  469THF    H1110195   1.252   1.281   4.082 -1.4561  1.5464 -0.1224
  469THF    H1210196   1.090   1.434   4.166 -2.2849 -0.7768 -0.2102
  469THF    H1310197   1.030   1.296   4.246  1.2901 -2.3045 -0.2429
  470THF     O110198   3.309   2.851   4.485 -0.0604 -0.6340 -0.7498
  470THF     C210199   3.249   2.973   4.472  0.5824  0.0052  0.0903
  470THF     C310200   3.448   2.873   4.477  0.3530  0.0966 -0.1116
  470THF     H410201   3.244   3.027   4.567  0.4328 -0.9857  0.6547
  470THF     H510202   3.144   2.964   4.443  0.4844  0.3958  0.3105
  470THF     H610203   3.478   2.922   4.569  1.9956 -0.6876 -0.2089
  470THF     H710204   3.494   2.774   4.478 -0.0934 -0.1791  3.1827
  470THF     C810205   3.456   2.960   4.351 -0.0757  0.1132 -0.0049
  470THF     C910206   3.321   3.040   4.363 -0.5680 -0.6381 -0.3431
  470THF    H1010207   3.448   2.909   4.255 -2.3243 -1.6659  1.0493
  470THF    H1110208   3.547   3.019   4.362 -2.2846  3.6813  1.1010
  470THF    H1210209   3.352   3.143   4.381  0.3137 -0.5324 -2.1898
  470THF    H1310210   3.262   3.042   4.271  1.2179 -0.5415 -1.5421
  471THF     O110211   2.152   2.536   2.823 -0.3301  0.1273 -0.0321
  471THF     C210212   2.281   2.489   2.795 -0.1929  0.2279  0.2205
  471THF     C310213   2.064   2.430   2.802  0.3648  0.2492  0.7156
  471THF     H410214   2.357   2.554   2.839  0.0333  0.6975 -0.8320
  471THF     H510215   2.300   2.476   2.689 -2.4925 -1.1223 -0.0706
  471THF     H610216   1.979   2.452   2.866  0.4325 -0.2993  1.0082
  471THF     H710217   2.022   2.426   2.702 -0.0622  0.2966  0.8880
  471THF     C810218   2.145   2.308   2.834 -0.4798  0.3079  0.2842
  471THF     C910219   2.290   2.352   2.857  0.6224 -0.0616  0.1617
  471THF    H1010220   2.153   2.231   2.757  3.9101  1.4685 -0.7064
  471THF    H1110221   2.096   2.255   2.916 -0.3845 -0.6207 -0.2362
  471THF    H1210222   2.315   2.364   2.962  0.2698  0.4509  0.1947
  471THF    H1310223   2.368   2.282   2.828  1.5260 -0.3716  3.0241
  472THF     O110224   0.965   4.543   2.950 -0.1733 -0.5297 -0.3225
  472THF     C210225   0.863   4.486   2.878  0.4313 -0.4547  0.0596
  472THF     C310226   0.994   4.663   2.875  0.1214  0.3007 -0.1271
  472THF     H410227   0.773   4.539   2.911 -0.3283 -0.6521 -1.6161
  472THF     H510228   0.859   4.378   2.887  2.2868 -0.4644  1.3720
  472THF     H610229   0.912   4.734   2.889  0.9361  1.1653  0.3682
  472THF     H710230   1.087   4.710   2.906 -0.2341  1.4956 -0.7923
  472THF     C810231   0.991   4.613   2.730 -0.2874  0.1110  0.9459
  472THF     C910232   0.882   4.515   2.729  0.4705 -0.7420 -0.0498
  472THF    H1010233   1.087   4.562   2.723 -0.3293  0.1067  0.4097
  472THF    H1110234   0.982   4.685   2.649 -1.2032 -1.8422 -0.7882
  472THF    H1210235   0.793   4.559   2.683  0.6527 -1.7493 -1.3997
  472THF    H1310236   0.898   4.419   2.682 -0.9126 -0.9345 -0.1585
  473THF     O110237   2.868   2.240   2.441  0.3550 -0.0054 -0.5036
  473THF     C210238   2.783   2.238   2.323 -0.6233 -0.3130  0.0144
  473THF     C310239   2.985   2.168   2.401  0.2453  0.1056 -0.1915
  473THF     H410240   2.717   2.324   2.324 -1.0177 -0.6114  0.4439
  473THF     H510241   2.721   2.148   2.331  0.3080 -0.8239  2.1814
  473THF     H610242   3.061   2.179   2.480 -1.3667 -1.4523  1.6878
  473THF     H710243   2.968   2.061   2.392 -0.4856  0.1389  0.6156
  473THF     C810244   3.020   2.230   2.268 -0.4003  0.1460 -0.0549
  473THF     C910245   2.879   2.243   2.207 -0.6238  0.5230  0.2100
  473THF    H1010246   3.085   2.169   2.205 -1.0860  0.4654 -1.1014
  473THF    H1110247   3.063   2.329   2.286 -0.7243  0.1541  0.7102
  473THF    H1210248   2.887   2.332   2.145 -0.6027 -0.3152 -1.0195
  473THF    H1310249   2.855   2.152   2.152 -0.5425  1.8566 -2.1287
  474THF     O110250   4.271   1.277   1.689 -0.0094  0.2996 -0.0568
  474THF     C210251   4.129   1.291   1.692 -0.5572  0.0588 -0.2118
  474THF     C310252   4.324   1.411   1.643  0.1667  0.3758  0.3359
  474THF     H410253   4.113   1.353   1.780  2.4666  0.7197 -0.0164
  474THF     H510254   4.066   1.203   1.702 -0.4598 -0.0942 -0.8819
  474THF     H610255   4.367   1.466   1.727  0.4317  0.2629  0.2758
  474THF     H710256   4.401   1.374   1.575 -1.5493 -0.3736 -1.2776
  474THF     C810257   4.208   1.485   1.579  0.3156  0.2042  0.5442
  474THF     C910258   4.105   1.378   1.572  0.4063 -0.2196 -0.1749
  474THF    H1010259   4.236   1.512   1.477  0.8239  1.1346  0.9154
  474THF    H1110260   4.171   1.573   1.630 -3.3960 -0.7047 -0.2819
  474THF    H1210261   4.005   1.422   1.577  1.0009  1.5669 -2.2515
  474THF    H1310262   4.105   1.319   1.480  1.0857 -0.4032 -0.0602
  475THF     O110263   4.409   2.785   3.550 -0.9345 -0.2533 -0.2931
  475THF     C210264   4.399   2.732   3.418 -0.5069 -0.0776  0.1188
  475THF     C310265   4.460   2.920   3.536  0.1706 -0.5071 -0.0693
  475THF     H410266   4.306   2.766   3.373 -1.1514  0.8517  2.0537
  475THF     H510267   4.408   2.623   3.415 -0.6968 -0.1129 -3.1419
  475THF     H610268   4.384   2.989   3.499  2.3055  1.1360 -1.5730
  475THF     H710269   4.500   2.963   3.628  0.7311 -2.4179  0.6193
  475THF     C810270   4.574   2.904   3.430 -0.3985  0.2006  0.5026
  475THF     C910271   4.523   2.785   3.346 -0.2182  0.2471 -0.2747
  475THF    H1010272   4.671   2.874   3.470 -0.7443 -1.4640  0.1781
  475THF    H1110273   4.592   2.995   3.373 -0.9390 -0.5398 -0.8836
  475THF    H1210274   4.483   2.825   3.253 -0.8938  2.3618  0.8462
  475THF    H1310275   4.605   2.717   3.322 -1.0045 -0.3434 -1.3847
  476THF     O110276   0.909   0.083   5.064  0.2984 -0.0699 -0.4876
  476THF     C210277   0.993   0.194   5.084 -1.3200 -0.6213 -0.0691
  476THF     C310278   0.829   0.104   4.955  0.0396 -0.3721  0.7879
  476THF     H410279   1.099   0.167   5.085 -1.1098  0.0685 -1.5570
  476THF     H510280   0.963   0.239   5.179 -2.2523 -2.3026  0.4793
  476THF     H610281   0.797   0.014   4.904 -0.8752 -1.1350  2.6363
  476THF     H710282   0.746   0.139   5.016 -0.7741 -0.0442 -0.4775
  476THF     C810283   0.903   0.199   4.874 -0.2234  0.2951  0.2265
  476THF     C910284   0.955   0.287   4.977 -0.1761  0.6717  0.7522
  476THF    H1010285   0.851   0.255   4.796  1.2504  1.2580 -0.1135
  476THF    H1110286   0.980   0.145   4.819  0.2895  3.1713 -2.1670
  476THF    H1210287   1.032   0.357   4.944  1.5200 -0.3498  2.3388
  476THF    H1310288   0.871   0.352   5.003  0.5033  1.3252  1.3606
  477THF     O110289   0.194   0.839   4.135 -0.0106  0.5891 -0.1214
  477THF     C210290   0.201   0.706   4.077  0.1402  0.0159  0.3420
  477THF     C310291   0.203   0.832   4.280  0.2653  0.3630 -0.4646
  477THF     H410292   0.296   0.656   4.097  0.2770 -1.0577 -2.5040
  477THF     H510293   0.168   0.699   3.973 -0.4116  0.4832  0.4810
  477THF     H610294   0.307   0.817   4.310 -0.3337 -1.5754  0.8614
  477THF     H710295   0.163   0.917   4.335 -0.2405 -1.1993  1.7128
  477THF     C810296   0.124   0.710   4.311 -0.2824 -0.1695  0.0814
  477THF     C910297   0.110   0.639   4.177  0.3852  0.2312 -0.5004
  477THF    H1010298   0.029   0.754   4.339 -1.4700 -1.4495 -1.7153
  477THF    H1110299   0.175   0.644   4.381  1.1769 -0.4362 -1.1743
  477THF    H1210300   0.122   0.533   4.196 -0.9834  0.2110  0.4086
  477THF    H1310301   0.005   0.654   4.151 -0.0780  1.8910  1.9492
  478THF     O110302   4.159   3.066   3.852 -0.4938 -0.1289 -0.6422
  478THF     C210303   4.281   3.026   3.797  0.0084 -0.2653  0.6223
  478THF     C310304   4.153   3.059   3.990 -0.2351  0.7430  0.0931
  478THF     H410305   4.324   3.118   3.758  0.2025 -0.9354 -0.8080
  478THF     H510306   4.256   2.961   3.713 -1.5898  2.5763 -1.3141
  478THF     H610307   4.122   3.142   4.052  0.3646  0.6725  0.4939
  478THF     H710308   4.086   2.982   4.028 -0.3161  1.2568  1.0217
  478THF     C810309   4.294   3.033   4.029 -0.0955  0.7580 -0.8148
  478THF     C910310   4.350   2.958   3.915  0.5763  0.4503  0.0997
  478THF    H1010311   4.301   2.975   4.122  1.2181  0.4661 -1.0690
  478THF    H1110312   4.345   3.128   4.039 -1.2580  1.5242 -1.9235
  478THF    H1210313   4.459   2.956   3.913  0.5687 -0.6903  0.2237
  478THF    H1310314   4.316   2.854   3.915  0.5983  0.4435  0.0702
  479THF     O110315   4.947   1.968   1.177  0.6661  0.1466 -0.7518
  479THF     C210316   4.845   1.938   1.085 -0.2848 -0.4519 -0.2437
  479THF     C310317   5.043   2.062   1.122  0.0072 -0.0313  0.0679
  479THF     H410318   4.765   1.876   1.126 -0.9578  0.1652 -0.5921
  479THF     H510319   4.885   1.874   1.005  1.3607 -2.5176  2.0905
  479THF     H610320   5.109   2.100   1.199  0.1111 -0.7897  0.3591
  479THF     H710321   5.096   2.021   1.036  0.3425 -2.5906  1.3875
  479THF     C810322   4.935   2.156   1.074  0.2604 -0.1384 -0.3567
  479THF     C910323   4.806   2.075   1.046 -0.6036  0.3611 -0.1430
  479THF    H1010324   4.967   2.209   0.985 -1.8086 -0.3800 -1.3152
  479THF    H1110325   4.919   2.229   1.154  1.4717 -0.4608  0.2011
  479THF    H1210326   4.726   2.115   1.109 -1.7927 -0.9452 -0.7741
  479THF    H1310327   4.772   2.090   0.944 -1.7670 -1.2782 -0.0257
  480THF     O110328   4.486   0.287   5.084  0.3766  0.5688 -0.3188
  480THF     C210329   4.615   0.270   5.139 -0.2602 -0.0121  0.3828
  480THF     C310330   4.459   0.189   4.992 -0.1730 -0.0430 -0.5263
  480THF     H410331   4.606   0.185   5.206  1.7239 -0.9907 -0.4876
  480THF     H510332   4.652   0.357   5.195 -1.8178  1.2125 -0.4244
  480THF     H610333   4.435   0.097   5.045 -1.7494  0.0957 -0.9579
  480THF     H710334   4.386   0.226   4.920 -0.5761 -2.1077 -1.2572
  480THF     C810335   4.596   0.164   4.929  0.2876  0.5474  0.5828
  480THF     C910336   4.701   0.216   5.023 -0.3991  0.0504 -0.2868
  480THF    H1010337   4.613   0.215   4.834 -0.2602  1.1657  0.8046
  480THF    H1110338   4.605   0.063   4.888 -1.0786  0.7901 -0.4091
  480THF    H1210339   4.772   0.138   5.049  0.2599  0.3578 -1.0983
  480THF    H1310340   4.771   0.290   4.984  1.9418 -2.2158 -0.6109
  481THF     O110341   1.271   2.386   1.515 -0.4309  0.0977 -0.1355
  481THF     C210342   1.154   2.472   1.515 -0.2303  0.5141 -0.0304
  481THF     C310343   1.229   2.249   1.504 -0.3307  0.0211  0.6040
  481THF     H410344   1.184   2.555   1.451  1.4738  0.1562  0.2558
  481THF     H510345   1.130   2.503   1.616 -0.5979  1.2096 -0.3209
  481THF     H610346   1.305   2.188   1.455 -0.5612  2.1375 -2.7818
  481THF     H710347   1.203   2.204   1.599  2.1037 -0.2570  1.2082
  481THF     C810348   1.108   2.253   1.412 -0.2379  0.2796 -0.1458
  481THF     C910349   1.040   2.390   1.445 -0.1643 -0.1226 -0.1523
  481THF    H1010350   1.044   2.165   1.424 -1.0682  0.6676 -1.5229
  481THF    H1110351   1.132   2.250   1.305 -0.3686 -3.9649 -0.2478
  481THF    H1210352   1.000   2.448   1.362 -0.8237  0.0886  0.3076
  481THF    H1310353   0.963   2.371   1.520  1.2175 -0.2422  1.2922
  482THF     O110354   3.624   3.552   1.439 -0.1166  0.1384  0.6271
  482THF     C210355   3.497   3.584   1.396  0.4823  0.2067 -0.3408
  482THF     C310356   3.658   3.452   1.341  0.1805  0.2527 -0.3298
  482THF     H410357   3.463   3.681   1.431 -0.1936 -0.5872  1.3010
  482THF     H510358   3.428   3.511   1.439 -0.4285  0.3275 -1.5367
  482THF     H610359   3.764   3.427   1.344  0.4283  1.2296 -0.5807
  482THF     H710360   3.602   3.363   1.371  0.5443 -0.0258 -0.4541
  482THF     C810361   3.608   3.497   1.211 -0.3102  1.0811  0.1848
  482THF     C910362   3.481   3.576   1.245  0.2391  0.1607 -0.3466
  482THF    H1010363   3.583   3.411   1.148  0.2181 -1.6213  3.3740
  482THF    H1110364   3.688   3.559   1.173  0.2338  0.4434  0.2681
  482THF    H1210365   3.471   3.665   1.183  0.7077  0.0180 -0.6328
  482THF    H1310366   3.395   3.514   1.219 -0.1465  1.4150 -2.3030
  483THF     O110367   1.550   0.521   1.356 -0.3363 -0.1472 -0.4697
  483THF     C210368   1.687   0.553   1.361  0.5204 -0.0237 -0.4375
  483THF     C310369   1.535   0.391   1.403 -0.4352 -0.2543  0.1946
  483THF     H410370   1.692   0.662   1.356 -0.3963  0.1179  1.0202
  483THF     H510371   1.737   0.508   1.275  0.6936 -0.2446 -0.2203
  483THF     H610372   1.431   0.367   1.425 -1.1685  2.3546 -0.1786
  483THF     H710373   1.579   0.315   1.338  3.2493  0.0898  2.0132
  483THF     C810374   1.625   0.396   1.528  0.1059  0.6097  0.3619
  483THF     C910375   1.730   0.496   1.493 -0.2111 -0.4270 -0.6157
  483THF    H1010376   1.675   0.304   1.556  1.1324  0.8364 -0.6360
  483THF    H1110377   1.562   0.418   1.614  0.9438  0.1729  1.0999
  483THF    H1210378   1.751   0.575   1.565  3.0211 -1.0102 -0.7659
  483THF    H1310379   1.825   0.446   1.478  0.5016  0.4549  0.7675
  484THF     O110380   4.600   1.357   5.043 -0.1709 -0.3342  0.4384
  484THF     C210381   4.494   1.427   4.985 -0.1944 -0.7180 -0.0647
  484THF     C310382   4.697   1.334   4.941  0.1840  0.0863  0.1548
  484THF     H410383   4.518   1.533   4.991  0.6099 -0.8142 -1.2959
  484THF     H510384   4.403   1.401   5.039  0.3035 -0.3493  0.9751
  484THF     H610385   4.752   1.428   4.939 -0.0991  0.2446 -0.6222
  484THF     H710386   4.756   1.246   4.964 -1.9575 -2.1048 -2.0746
  484THF     C810387   4.615   1.314   4.817  0.8748 -0.1387 -0.0202
  484THF     C910388   4.487   1.387   4.844 -0.8181  0.2252  0.5701
  484THF    H1010389   4.587   1.209   4.803  0.9832  0.0790 -2.0560
  484THF    H1110390   4.668   1.347   4.728  1.7535 -1.5178 -0.0426
  484THF    H1210391   4.487   1.474   4.779  0.2633 -0.7982 -0.8659
  484THF    H1310392   4.396   1.329   4.830 -0.4244  0.1301 -1.8861
  485THF     O110393   5.205   2.664   3.042 -0.4870 -0.0790 -0.1508
  485THF     C210394   5.270   2.774   3.106  0.3654  0.8417  0.4141
  485THF     C310395   5.066   2.688   3.033 -0.9881  0.5931 -0.2857
  485THF     H410396   5.378   2.765   3.096  0.2457  0.4881 -0.7448
  485THF     H510397   5.248   2.754   3.211  0.3475 -3.9880 -0.2575
  485THF     H610398   5.033   2.646   2.938  2.0469  0.9202 -1.6234
  485THF     H710399   5.026   2.629   3.115 -1.8308  1.6934  0.1080
  485THF     C810400   5.057   2.841   3.037  0.1327 -0.3369  0.1623
  485THF     C910401   5.202   2.888   3.034  0.3912 -0.4055 -0.0911
  485THF    H1010402   5.008   2.887   3.123  1.3551 -0.3802  0.8984
  485THF    H1110403   5.026   2.886   2.943 -0.8978 -1.5293 -0.0957
  485THF    H1210404   5.231   2.901   2.930 -1.8170  2.3431 -0.5104
  485THF    H1310405   5.219   2.980   3.090 -2.0108 -0.3370  0.6475
  486THF     O110406   1.066   2.701   5.360 -0.2660 -0.0844 -0.3933
  486THF     C210407   1.192   2.764   5.329 -0.7918 -0.5279  0.2379
  486THF     C310408   1.055   2.583   5.279 -0.2120  0.2399  0.2065
  486THF     H410409   1.266   2.723   5.399  0.7124  0.6887 -0.5817
  486THF     H510410   1.184   2.873   5.334  0.0540 -0.4371 -0.1358
  486THF     H610411   1.065   2.495   5.342  1.7615 -0.7909 -1.4107
  486THF     H710412   0.955   2.591   5.235 -0.1116  1.8178  0.2044
  486THF     C810413   1.169   2.573   5.181  0.2129  0.2511 -0.4756
  486THF     C910414   1.231   2.714   5.189  0.0421 -0.4091  0.4762
  486THF    H1010415   1.139   2.545   5.080  0.5207 -2.4769  0.0952
  486THF    H1110416   1.228   2.487   5.213 -0.0115 -0.9272 -2.9220
  486THF    H1210417   1.339   2.706   5.178  0.1695  1.3101  0.2111
  486THF    H1310418   1.185   2.776   5.112 -0.6606 -1.8902 -0.3424
  487THF     O110419   1.597   0.049   3.651  0.6060 -0.4273 -0.5585
  487THF     C210420   1.681   0.134   3.579 -0.6607 -0.2934 -0.4902
  487THF     C310421   1.652   0.022   3.782  0.3259  0.3122  0.2266
  487THF     H410422   1.665   0.232   3.625  0.8509 -0.2226 -0.0633
  487THF     H510423   1.652   0.148   3.475 -1.8487 -0.6952 -0.2284
  487THF     H610424   1.625   0.104   3.848 -1.6506  1.0186 -1.3532
  487THF     H710425   1.604  -0.067   3.822  0.7161  0.4966  1.1318
  487THF     C810426   1.804   0.001   3.742 -0.3759  0.1346  0.2526
  487THF     C910427   1.814   0.060   3.599 -0.9633  0.7440  0.9630
  487THF    H1010428   1.823  -0.107   3.745 -0.8992  0.0117 -0.6891
  487THF    H1110429   1.855   0.061   3.818 -3.7613  0.3553  2.5844
  487THF    H1210430   1.900   0.124   3.579 -0.5857 -0.2262 -0.6118
  487THF    H1310431   1.816  -0.017   3.522  0.3576  0.3286  1.3972
  488THF     O110432   0.817   1.539   4.227 -0.3062 -0.1978 -0.6019
  488THF     C210433   0.691   1.553   4.162  0.4065  0.1157  0.2774
  488THF     C310434   0.799   1.468   4.353 -0.2859  0.6011  0.0987
  488THF     H410435   0.713   1.550   4.055  2.6419 -1.6577  0.7038
  488THF     H510436   0.650   1.646   4.199  0.9638 -0.5905  2.8522
  488THF     H610437   0.871   1.387   4.366 -0.0657  0.9460  1.0657
  488THF     H710438   0.814   1.528   4.443  0.6690  0.0310  0.3316
  488THF     C810439   0.656   1.413   4.346 -0.1970  0.0801  0.5800
  488THF     C910440   0.616   1.428   4.204 -0.2118 -0.1029  0.3866
  488THF    H1010441   0.586   1.479   4.397 -2.8061 -3.9519  2.7122
  488THF    H1110442   0.629   1.316   4.387 -1.0655 -0.9331 -2.1953
  488THF    H1210443   0.648   1.341   4.146 -1.5285  0.7275 -1.6931
  488THF    H1310444   0.511   1.455   4.196  0.0893  1.4381  1.3202
  489THF     O110445   0.582   4.006   1.719  0.0484 -0.0800  0.0260
  489THF     C210446   0.553   3.953   1.596  0.2230  0.3439  0.4030
  489THF     C310447   0.582   3.900   1.816  0.7339 -0.0931 -0.4281
  489THF     H410448   0.645   3.957   1.537 -0.0049 -0.4757 -0.0328
  489THF     H510449   0.465   3.983   1.539 -0.6913 -0.5857  1.2785
  489THF     H610450   0.655   3.922   1.894 -0.4677 -0.4734  0.8511
  489THF     H710451   0.491   3.904   1.876  1.4186 -0.5742  0.6767
  489THF     C810452   0.597   3.762   1.740 -0.0704 -0.8105 -0.0822
  489THF     C910453   0.532   3.800   1.606 -0.0434 -0.1224 -0.3171
  489THF    H1010454   0.552   3.678   1.793 -0.8369  1.4779  3.1703
  489THF    H1110455   0.703   3.741   1.724 -0.2478 -0.0300 -2.7721
  489THF    H1210456   0.583   3.741   1.531  2.4399 -0.1043  1.2454
  489THF    H1310457   0.426   3.775   1.614  0.5136 -2.4326  0.5761
  490THF     O110458   2.825   4.063   3.246 -0.0992  0.0662 -0.1378
  490THF     C210459   2.754   3.945   3.269 -0.2588 -0.1827  0.0955
  490THF     C310460   2.917   4.043   3.143  0.1959  0.2834  0.0430
  490THF     H410461   2.676   3.924   3.196 -0.4760 -2.8484  1.0079
  490THF     H510462   2.715   3.947   3.371  1.3126 -2.1209  0.8017
  490THF     H610463   2.861   4.051   3.050  0.7514 -3.5039 -0.7624
  490THF     H710464   2.990   4.123   3.133  0.8988 -0.2276  0.9535
  490THF     C810465   2.972   3.905   3.160 -0.1427  0.3161  0.2537
  490THF     C910466   2.868   3.836   3.246  0.2988 -0.3987  0.1532
  490THF    H1010467   3.067   3.904   3.213  0.1773 -2.7148 -0.2353
  490THF    H1110468   2.984   3.857   3.063  0.5427  0.6315  0.1819
  490THF    H1210469   2.819   3.746   3.209 -1.8786  0.9361 -0.3706
  490THF    H1310470   2.916   3.810   3.340  2.6306 -0.7852 -1.0681
  491THF     O110471   3.687   5.357   5.345 -0.0249 -0.4098 -0.1941
  491THF     C210472   3.668   5.310   5.213  0.1837 -0.2358 -0.0480
  491THF     C310473   3.626   5.482   5.359  0.2203 -0.0194  0.1439
  491THF     H410474   3.665   5.201   5.210 -1.7862 -0.2032 -0.7406
  491THF     H510475   3.755   5.336   5.153  0.6826  0.9157  1.1306
  491THF     H610476   3.577   5.500   5.454  0.9842 -2.5115  1.1009
  491THF     H710477   3.705   5.555   5.340 -0.4283  0.8822  0.8363
  491THF     C810478   3.523   5.497   5.250 -0.2034 -0.5444  0.0420
  491THF     C910479   3.539   5.371   5.166  0.2251  0.2795 -0.8265
  491THF    H1010480   3.552   5.589   5.200 -0.2180  0.2827  1.4950
  491THF    H1110481   3.422   5.495   5.291 -0.6373 -1.4693 -1.0045
  491THF    H1210482   3.452   5.305   5.158 -0.2887  1.0863 -2.4480
  491THF    H1310483   3.543   5.383   5.058 -0.8044 -1.0271 -1.0486
  492THF     O110484   0.600   1.831   5.351  0.9826  0.1811 -0.6777
  492THF     C210485   0.698   1.747   5.302 -0.6755  0.1404  0.1003
  492THF     C310486   0.601   1.950   5.272  0.2373  0.6142 -0.1486
  492THF     H410487   0.677   1.644   5.333 -1.6253  0.5785  0.9581
  492THF     H510488   0.794   1.790   5.332 -0.3116 -1.6919  1.8004
  492THF     H610489   0.500   1.988   5.256  0.3190 -0.2183 -3.6322
  492THF     H710490   0.655   2.025   5.330  0.7416 -0.4419  0.7769
  492THF     C810491   0.668   1.912   5.140 -0.1657  0.4051  0.0595
  492THF     C910492   0.672   1.760   5.158  0.2559  0.3255  0.0050
  492THF    H1010493   0.766   1.959   5.127 -0.1009  0.4460  0.6542
  492THF    H1110494   0.605   1.946   5.058  0.9718  4.3624  0.6212
  492THF    H1210495   0.584   1.706   5.124  0.9038 -1.3833  0.9389
  492THF    H1310496   0.752   1.724   5.093 -0.1696 -0.2003 -0.2345
  493THF     O110497   0.783   2.990   0.005 -0.2621  0.3748 -0.1300
  493THF     C210498   0.834   3.053  -0.111 -0.0096 -0.1707  0.7218
  493THF     C310499   0.783   2.847  -0.017 -0.6083 -0.3330 -0.4016
  493THF     H410500   0.941   3.043  -0.123  0.0437 -0.7134  1.5292
  493THF     H510501   0.802   3.157  -0.111  2.8239  0.7853  1.6546
  493THF     H610502   0.881   2.812   0.016 -0.5162 -0.6035 -0.9503
  493THF     H710503   0.708   2.785   0.031 -0.4543  1.0288  1.7386
  493THF     C810504   0.762   2.830  -0.167  0.2542  0.9958 -0.4704
  493THF     C910505   0.754   2.974  -0.211  0.4471 -0.0990  0.3168
  493THF    H1010506   0.665   2.783  -0.184  0.8879 -0.1082 -1.1841
  493THF    H1110507   0.836   2.775  -0.226 -0.0545  1.8388 -1.6729
  493THF    H1210508   0.780   2.978  -0.317 -0.1714 -3.5349 -0.0683
  493THF    H1310509   0.650   3.006  -0.216  0.7669  0.7521 -1.7441
  494THF     O110510   5.294   1.929   2.501  0.2694 -0.8213  0.2672
  494THF     C210511   5.179   2.022   2.488 -0.8631  0.2400  0.2570
  494THF     C310512   5.395   1.982   2.592 -0.5709 -0.0289  0.2914
  494THF     H410513   5.091   1.958   2.478  1.1023 -2.3814 -1.7588
  494THF     H510514   5.191   2.088   2.402 -0.4408  1.5215  1.2690
  494THF     H610515   5.462   1.906   2.632 -0.5848  0.3633  1.0682
  494THF     H710516   5.445   2.066   2.545 -0.6148  0.1844  0.6255
  494THF     C810517   5.305   2.034   2.696  0.5145 -0.3170 -0.6537
  494THF     C910518   5.188   2.097   2.621 -0.7777 -0.1016  0.5848
  494THF    H1010519   5.355   2.106   2.761  0.2296  0.8256 -1.6738
  494THF    H1110520   5.278   1.950   2.761 -2.3162  0.9843 -0.0074
  494THF    H1210521   5.092   2.078   2.670 -1.9885 -0.5786 -1.8217
  494THF    H1310522   5.200   2.203   2.603 -0.9729 -0.3282 -0.9559
  495THF     O110523   1.501   4.151   1.926 -0.1872  0.2787 -0.6220
  495THF     C210524   1.585   4.156   2.046 -0.1132 -0.4656 -0.2824
  495THF     C310525   1.588   4.172   1.816  0.2929 -0.4922  0.3796
  495THF     H410526   1.644   4.065   2.054 -1.5153 -1.2588  2.5133
  495THF     H510527   1.532   4.167   2.141 -0.0051 -1.4361 -0.1082
  495THF     H610528   1.661   4.092   1.814 -0.5865 -1.2997  0.1771
  495THF     H710529   1.530   4.181   1.724  0.5802 -2.6200 -0.0547
  495THF     C810530   1.656   4.306   1.853 -0.4775 -0.5913 -0.1913
  495THF     C910531   1.668   4.288   2.008  0.1238 -0.4546 -0.1246
  495THF    H1010532   1.609   4.395   1.812 -1.0254 -0.6152  0.3693
  495THF    H1110533   1.751   4.309   1.801  0.9925 -0.8518  2.3195
  495THF    H1210534   1.772   4.292   2.038  0.3762  1.7526 -1.1341
  495THF    H1310535   1.622   4.375   2.055 -0.6721 -1.4519  1.0213
  496THF     O110536   4.069   2.226   0.738 -0.3690  0.7317 -0.0082
  496THF     C210537   3.941   2.252   0.754  0.0350  0.2489 -0.2806
  496THF     C310538   4.163   2.319   0.796  0.7024 -1.1301 -0.5087
  496THF     H410539   3.883   2.159   0.757  0.0860  0.2242 -0.0170
  496THF     H510540   3.903   2.322   0.680 -0.7358  0.3542  0.2036
  496THF     H610541   4.255   2.268   0.824  1.2304  0.1916  0.2599
  496THF     H710542   4.188   2.400   0.728 -0.3563 -0.8264 -0.5571
  496THF     C810543   4.075   2.376   0.915 -0.3479 -0.2000 -0.0003
  496THF     C910544   3.940   2.311   0.899 -0.6272  0.2207  0.0122
  496THF    H1010545   4.073   2.485   0.921  1.6495  0.1012 -2.6731
  496THF    H1110546   4.134   2.332   0.995 -0.1252 -1.0855 -0.6334
  496THF    H1210547   3.946   2.226   0.968 -1.4857  0.9795  1.0581
  496THF    H1310548   3.851   2.363   0.932 -0.3974  0.8328 -0.3151
  497THF     O110549   0.285   1.011   1.502 -0.4698 -0.0722 -0.0710
  497THF     C210550   0.208   1.109   1.441  0.0899 -0.2266  0.8644
  497THF     C310551   0.408   0.996   1.426  0.0076  0.0394 -0.5971
  497THF     H410552   0.261   1.203   1.456  0.2147 -0.1900  0.2376
  497THF     H510553   0.108   1.124   1.482  0.7654 -0.5793  2.6978
  497THF     H610554   0.475   1.065   1.478 -0.8778 -0.1472  0.8289
  497THF     H710555   0.449   0.895   1.430  1.1017  0.4987  0.4930
  497THF     C810556   0.374   1.037   1.288 -0.4109 -0.2326  0.2600
  497THF     C910557   0.225   1.067   1.294  0.1634 -0.6124 -0.4814
  497THF    H1010558   0.386   0.962   1.210  0.3290  0.7052 -0.5554
  497THF    H1110559   0.430   1.125   1.256 -2.7088  1.4332  0.5642
  497THF    H1210560   0.207   1.146   1.222  1.1787  1.2025  1.1540
  497THF    H1310561   0.168   0.976   1.274 -0.8505 -0.5092  1.6240
  498THF     O110562   3.576   4.881   5.432  0.0303  0.3617  0.5111
  498THF     C210563   3.531   4.895   5.562 -0.2352  0.0154  0.5941
  498THF     C310564   3.520   5.001   5.368  0.1464 -0.1169 -0.5457
  498THF     H410565   3.595   4.840   5.631  0.0600  0.7775  0.9368
  498THF     H510566   3.428   4.860   5.569 -0.8211  1.7860  1.3319
  498THF     H610567   3.577   5.007   5.275  0.3009 -0.1009 -0.4508
  498THF     H710568   3.417   4.996   5.334 -0.1616  0.7432  0.2266
  498THF     C810569   3.547   5.114   5.458 -0.1248  0.0677 -0.1436
  498THF     C910570   3.538   5.045   5.598 -0.2407  0.2997 -0.7413
  498THF    H1010571   3.488   5.204   5.442 -0.4212 -0.2086 -0.6173
  498THF    H1110572   3.646   5.155   5.436  0.2872 -2.3197 -3.6394
  498THF    H1210573   3.630   5.075   5.648 -1.1416  2.1509 -0.1111
  498THF    H1310574   3.453   5.071   5.660  0.1650  0.3421 -0.1869
  499THF     O110575   4.867   4.446   3.062 -0.1552  0.1585  0.0297
  499THF     C210576   4.800   4.492   3.180  0.6088 -0.1917 -0.0950
  499THF     C310577   4.947   4.333   3.108  0.9649 -0.6509  0.4067
  499THF     H410578   4.724   4.428   3.225 -0.1481 -0.9306 -2.3170
  499THF     H510579   4.764   4.595   3.179  0.5139 -0.2226  0.1137
  499THF     H610580   4.872   4.256   3.123 -1.3204  1.2392 -0.6426
  499THF     H710581   5.020   4.298   3.035  1.2375 -1.1686  0.9269
  499THF     C810582   5.013   4.380   3.237  0.2672  0.4245  0.4451
  499THF     C910583   4.914   4.487   3.282 -0.2492  0.3261  0.6532
  499THF    H1010584   5.117   4.413   3.229  0.6811 -1.0978 -1.2817
  499THF    H1110585   5.023   4.292   3.300 -2.2226  0.4890  1.0268
  499THF    H1210586   4.878   4.457   3.381  0.7213 -0.3920  0.7982
  499THF    H1310587   4.958   4.587   3.288 -0.9366  1.0755 -3.7115
  500THF     O110588   2.466   1.014   5.382  0.0450  0.3681  0.2203
  500THF     C210589   2.548   1.055   5.489  0.1052  0.0379  0.7662
  500THF     C310590   2.348   0.951   5.436 -0.1300  0.1380 -0.9198
  500THF     H410591   2.514   1.151   5.529  1.7187  0.3631  1.4232
  500THF     H510592   2.652   1.067   5.459  0.1584 -0.2326  0.8440
  500THF     H610593   2.270   1.019   5.470 -0.4123 -1.0715  0.9783
  500THF     H710594   2.300   0.886   5.362 -1.6439 -0.3723  0.4367
  500THF     C810595   2.408   0.867   5.552 -0.0298 -0.7666  0.6913
  500THF     C910596   2.519   0.959   5.603  0.0438 -0.3004  0.0897
  500THF    H1010597   2.447   0.772   5.515  0.8270 -0.1890  0.0620
  500THF    H1110598   2.337   0.836   5.629 -0.6733  1.4255  1.0508
  500THF    H1210599   2.471   1.010   5.687 -0.9983 -1.7590  0.4107
  500THF    H1310600   2.603   0.898   5.634  0.1714 -1.1382 -1.7896
  501THF     O110601   1.969   1.051   4.971 -0.4159  0.0153  0.2356
  501THF     C210602   2.064   1.160   4.969 -0.3635  1.0651  0.3270
  501THF     C310603   1.880   1.066   4.856  0.8529 -0.0061  0.6181
  501THF     H410604   2.161   1.142   5.014 -0.1748 -0.0764 -0.4839
  501THF     H510605   2.027   1.242   5.031  0.4339  0.6400  1.3776
  501THF     H610606   1.901   0.979   4.793  1.4189 -0.2438  1.1273
  501THF     H710607   1.776   1.062   4.890 -0.2833 -2.9043 -2.5707
  501THF     C810608   1.921   1.198   4.780 -0.5501  0.7347 -0.1347
  501THF     C910609   2.065   1.215   4.820 -0.0681  0.2455 -0.7313
  501THF    H1010610   1.855   1.274   4.823 -1.8091 -0.7248  0.6443
  501THF    H1110611   1.915   1.187   4.672 -0.0364  0.9986 -0.1952
  501THF    H1210612   2.128   1.151   4.759 -0.9680 -1.0981 -0.2937
  501THF    H1310613   2.097   1.319   4.827  1.1906 -0.2244  1.4378
  502THF     O110614   0.531   2.761   5.016 -0.3091 -0.1583 -0.1697
  502THF     C210615   0.575   2.867   4.936 -0.1800 -0.4026 -0.1025
  502THF     C310616   0.630   2.663   5.010  0.7587 -0.2335  1.1077
  502THF     H410617   0.642   2.923   5.002 -0.3631  2.6922 -2.2886
  502THF     H510618   0.502   2.945   4.916  0.6396  0.9450  1.8284
  502THF     H610619   0.683   2.652   5.105  1.5264  0.5955  0.7959
  502THF     H710620   0.579   2.568   4.994 -0.0739  0.3343  0.3220
  502THF     C810621   0.711   2.677   4.885 -0.2729  0.0689  0.0164
  502THF     C910622   0.652   2.799   4.820 -1.1470  0.8179  0.7160
  502THF    H1010623   0.730   2.587   4.827  1.1230  0.1151  0.3571
  502THF    H1110624   0.812   2.715   4.901 -0.6823  2.1343 -1.7666
  502THF    H1210625   0.723   2.864   4.770 -2.7541  2.1778  0.1228
  502THF    H1310626   0.587   2.751   4.747  0.8280 -2.2009  0.7520
  503THF     O110627   3.384   2.443   4.718  0.4180 -0.3377  0.2328
  503THF     C210628   3.432   2.330   4.778  0.4754  0.2305  0.3710
  503THF     C310629   3.466   2.559   4.767  0.2337 -0.4380  0.0945
  503THF     H410630   3.420   2.242   4.714  0.1607  0.7631 -0.3148
  503THF     H510631   3.369   2.306   4.864  1.8382  2.5662  2.1241
  503THF     H610632   3.463   2.643   4.698  0.6610 -0.9542 -0.5689
  503THF     H710633   3.448   2.581   4.872 -1.1557  0.4004 -0.2970
  503THF     C810634   3.600   2.490   4.753  0.6027 -0.0145  0.0787
  503THF     C910635   3.572   2.358   4.820 -0.2280  0.8413  0.2286
  503THF    H1010636   3.685   2.549   4.787 -0.0350  0.2451  1.2823
  503THF    H1110637   3.610   2.482   4.645 -0.2061  0.6457 -0.0514
  503THF    H1210638   3.642   2.280   4.789 -1.0451 -0.5671  1.7639
  503THF    H1310639   3.581   2.367   4.929  2.5149 -0.8563  0.2541
  504THF     O110640   5.495   2.028   1.494 -0.3020 -0.6509  0.1712
  504THF     C210641   5.441   2.094   1.608  0.0213  0.6390  0.3032
  504THF     C310642   5.414   2.052   1.381  1.1843 -0.6377 -0.0648
  504THF     H410643   5.459   2.201   1.603 -1.2806  0.8536 -0.2026
  504THF     H510644   5.481   2.061   1.704 -0.8826  1.8407  1.1092
  504THF     H610645   5.400   2.158   1.359  0.4498 -0.7090  0.0312
  504THF     H710646   5.449   1.995   1.295 -2.2985 -0.2719 -1.9252
  504THF     C810647   5.279   2.000   1.436 -0.3634 -0.6242  0.0974
  504THF     C910648   5.287   2.052   1.586 -0.5410 -0.5732  0.0634
  504THF    H1010649   5.278   1.891   1.429 -1.4417 -0.5786 -0.6299
  504THF    H1110650   5.191   2.041   1.386  1.1337 -0.2202 -2.3322
  504THF    H1210651   5.217   2.133   1.607  3.0775  3.4486 -1.6054
  504THF    H1310652   5.268   1.975   1.660  1.4460  0.7179  2.0432
  505THF     O110653   1.026   0.726   4.696  0.0967  0.1240  0.1285
  505THF     C210654   0.897   0.677   4.683 -0.1448 -0.0838 -0.4506
  505THF     C310655   1.038   0.805   4.803 -0.6292  0.0387  0.3311
  505THF     H410656   0.901   0.592   4.615  3.1454  0.3279 -0.8926
  505THF     H510657   0.840   0.759   4.639  0.4635  2.4520  3.0610
  505THF     H610658   1.142   0.822   4.830 -0.3578 -0.5753 -0.3167
  505THF     H710659   1.003   0.907   4.790 -0.1447  0.0790 -0.6737
  505THF     C810660   0.944   0.737   4.907 -0.1541  0.8082  0.2482
  505THF     C910661   0.852   0.649   4.828 -0.1906  0.5106  0.8144
  505THF    H1010662   0.898   0.811   4.972 -2.1996  1.8114 -2.1839
  505THF    H1110663   1.005   0.669   4.967 -1.1054  0.7242  1.1423
  505THF    H1210664   0.867   0.546   4.860  1.8744  0.1257 -1.1774
  505THF    H1310665   0.751   0.682   4.853 -0.9623 -0.7649 -0.4575
  506THF     O110666   0.166   4.453   2.573  0.4669  0.1535  0.1040
  506THF     C210667   0.208   4.527   2.460 -0.5418  0.7632 -0.2502
  506THF     C310668   0.033   4.406   2.555  0.5121  0.1686  0.0636
  506THF     H410669   0.316   4.513   2.461 -0.5304  0.8538 -0.2119
  506THF     H510670   0.179   4.631   2.477  2.8889  1.8254 -0.2245
  506THF     H610671  -0.000   4.324   2.619 -1.5898  0.9446  0.0520
  506THF     H710672  -0.039   4.487   2.569  0.8687  0.1342  2.3039
  506THF     C810673   0.024   4.373   2.407 -0.3998  0.1118  0.6620
  506THF     C910674   0.128   4.464   2.341  0.2010  0.2371  0.2300
  506THF    H1010675  -0.071   4.373   2.353  0.1348 -1.7024 -0.3515
  506THF    H1110676   0.075   4.280   2.383  1.6455  1.0681  1.1067
  506THF    H1210677   0.199   4.415   2.275  0.2966 -0.5133  0.8771
  506THF    H1310678   0.085   4.546   2.284  0.2308  0.1455  0.0776
  507THF     O110679   0.961   2.968   4.123  0.6651 -0.1577 -0.1613
  507THF     C210680   0.832   3.027   4.134  0.5210  0.0409  0.5480
  507THF     C310681   0.977   2.879   4.232 -0.3195 -0.1434 -0.4323
  507THF     H410682   0.747   2.965   4.106 -0.0012 -0.3321  2.7799
  507THF     H510683   0.823   3.112   4.066 -1.7508 -1.1041 -0.6978
  507THF     H610684   0.913   2.792   4.219 -0.3374 -0.1280 -0.4475
  507THF     H710685   1.078   2.840   4.241 -0.4715 -0.9574 -1.9513
  507THF     C810686   0.919   2.952   4.346 -0.3837 -0.3217  0.0538
  507THF     C910687   0.839   3.070   4.284  0.0503 -1.0295 -0.7757
  507THF    H1010688   0.997   2.992   4.412 -0.5488  0.7028 -0.3570
  507THF    H1110689   0.858   2.880   4.400 -1.7295 -0.2465 -1.2943
  507THF    H1210690   0.747   3.086   4.339  0.4615  0.0033 -0.3669
  507THF    H1310691   0.901   3.160   4.286 -0.6665 -0.5461  0.7368
  508THF     O110692   4.866   5.266   3.102  0.1615  0.0911  1.3751
  508THF     C210693   5.005   5.268   3.089  0.9211  0.2768 -0.8746
  508THF     C310694   4.828   5.139   3.142  0.4173 -0.5058 -0.2877
  508THF     H410695   5.043   5.365   3.121  1.1353 -0.2851  0.6776
  508THF     H510696   5.042   5.234   2.993  1.9453 -1.1896 -0.0103
  508THF     H610697   4.727   5.119   3.177  0.3248  1.0485  0.3927
  508THF     H710698   4.844   5.077   3.053  2.0111 -0.8481  0.2008
  508THF     C810699   4.930   5.108   3.249 -0.2757 -0.0628  0.0366
  508THF     C910700   5.055   5.179   3.200 -0.0655  0.0293  0.1916
  508THF    H1010701   4.942   5.001   3.261 -0.9139 -0.1109  0.2467
  508THF    H1110702   4.897   5.150   3.344 -1.2729 -0.8159  0.0360
  508THF    H1210703   5.118   5.224   3.276  0.9367 -0.3804 -0.3896
  508THF    H1310704   5.115   5.104   3.149 -0.4202 -0.4133  0.4190
  509THF     O110705   4.104   4.861   4.226  0.1685 -0.2964  0.1684
  509THF     C210706   4.090   4.784   4.104 -0.1021 -0.1656  0.1999
  509THF     C310707   4.085   5.001   4.190  0.5244 -0.0914 -0.3170
  509THF     H410708   3.983   4.768   4.092  0.0209 -3.5789  2.3701
  509THF     H510709   4.141   4.689   4.120  1.2169  0.2330 -1.3763
  509THF     H610710   3.982   5.026   4.164  0.3569 -0.5539 -0.0987
  509THF     H710711   4.121   5.071   4.266 -0.9325  0.4873 -0.1287
  509THF     C810712   4.176   5.012   4.071  0.6161  0.3496 -0.5433
  509THF     C910713   4.156   4.887   3.998  0.3069  0.4776 -0.3083
  509THF    H1010714   4.280   5.012   4.102  0.3018  0.8394  0.5495
  509THF    H1110715   4.158   5.100   4.008  1.1538  0.0192 -1.1667
  509THF    H1210716   4.087   4.898   3.913  3.0961 -0.4854 -2.8639
  509THF    H1310717   4.254   4.856   3.964  0.5121 -0.0078  0.7041
  510THF     O110718   1.577   3.836   5.334 -0.4898  0.3654  0.2990
  510THF     C210719   1.451   3.875   5.290 -0.0272  0.1578 -0.5106
  510THF     C310720   1.570   3.699   5.371 -0.1769 -1.0915  0.0320
  510THF     H410721   1.436   3.836   5.189 -0.5012 -0.7597 -0.0916
  510THF     H510722   1.441   3.983   5.284  2.8236  0.4474 -2.1799
  510THF     H610723   1.561   3.640   5.280  1.8871  0.5357 -1.3245
  510THF     H710724   1.661   3.674   5.424  0.7853  0.3741 -0.8376
  510THF     C810725   1.448   3.707   5.461 -0.1211 -0.0832 -0.6528
  510THF     C910726   1.358   3.806   5.395  0.6282 -0.3411 -0.1524
  510THF    H1010727   1.481   3.749   5.556  0.3942  0.4120 -1.0422
  510THF    H1110728   1.408   3.606   5.468 -1.1348  0.3758  0.5045
  510THF    H1210729   1.275   3.761   5.342  0.3368 -1.0315  0.8502
  510THF    H1310730   1.329   3.887   5.463  1.6463 -1.6504  1.9708
  511THF     O110731   3.986   2.374   2.120 -0.4455  0.5641  0.2454
  511THF     C210732   4.030   2.416   1.998 -1.4558 -0.4337  0.4514
  511THF     C310733   3.849   2.342   2.102 -0.1208  0.0591  0.1933
  511THF     H410734   4.066   2.334   1.937  1.2978  0.2825  0.9927
  511THF     H510735   4.125   2.469   2.007 -1.8545  0.1726  1.2331
  511THF     H610736   3.831   2.239   2.071 -2.6411  0.1087  1.2723
  511THF     H710737   3.795   2.354   2.196  0.1791  2.0236  0.1587
  511THF     C810738   3.790   2.438   1.996  0.2976 -0.3203 -0.4745
  511THF     C910739   3.922   2.502   1.938  0.2201 -0.3389  0.2302
  511THF    H1010740   3.722   2.511   2.041  0.1080 -1.2038  0.7117
  511THF    H1110741   3.737   2.387   1.916  0.8447  1.7209 -2.2626
  511THF    H1210742   3.924   2.504   1.829 -0.4049 -0.7237  0.2094
  511THF    H1310743   3.933   2.608   1.961  4.8048  0.1237 -2.6047
  512THF     O110744   0.014   3.928   4.553 -0.0536 -0.5978  0.1022
  512THF     C210745   0.124   3.851   4.598 -0.8157  0.0724  0.5314
  512THF     C310746   0.026   3.930   4.412  0.7259  0.2720 -0.5196
  512THF     H410747   0.090   3.748   4.610 -2.6439  0.1886 -2.6582
  512THF     H510748   0.167   3.893   4.689  2.9591  2.8605 -2.2129
  512THF     H610749  -0.018   3.847   4.356  1.3798  0.9262 -2.0491
  512THF     H710750  -0.019   4.014   4.359 -1.9514 -0.6664  0.0831
  512THF     C810751   0.176   3.933   4.382  0.4595  0.6084  0.2699
  512THF     C910752   0.237   3.858   4.494 -0.6042 -0.1261  0.4929
  512THF    H1010753   0.213   4.036   4.384  0.6946  0.5186  0.6250
  512THF    H1110754   0.203   3.885   4.288 -1.0286 -1.4935  0.8445
  512THF    H1210755   0.287   3.765   4.465 -0.4579  0.0876  0.0583
  512THF    H1310756   0.318   3.909   4.547  0.3787 -2.8157  1.7586
  513THF     O110757   3.935   0.815   3.734 -0.4812  0.2500 -0.3467
  513THF     C210758   3.925   0.887   3.608  0.1548 -0.4123 -0.5869
  513THF     C310759   3.897   0.679   3.718 -0.3496 -0.4090 -0.1366
  513THF     H410760   4.020   0.940   3.599  0.8296 -1.5165 -0.1970
  513THF     H510761   3.837   0.952   3.608  1.0278  1.0074 -3.9893
  513THF     H610762   3.990   0.627   3.738 -0.1585  0.3452  1.0628
  513THF     H710763   3.820   0.649   3.790 -1.0727  0.4582 -0.5182
  513THF     C810764   3.849   0.662   3.581 -0.1504  0.1817 -0.5828
  513THF     C910765   3.917   0.777   3.506 -0.4501 -0.2395 -0.4432
  513THF    H1010766   3.741   0.677   3.582 -0.2084 -0.1199  1.2903
  513THF    H1110767   3.879   0.563   3.547 -1.9391 -0.9258  0.8955
  513THF    H1210768   4.017   0.742   3.480  0.1978  0.9988  0.2559
  513THF    H1310769   3.869   0.796   3.410  1.2515 -2.4831 -1.8326
  514THF     O110770   4.549   3.564   0.823  0.1710 -0.1476 -0.0274
  514THF     C210771   4.572   3.645   0.935  0.8199  0.6692  0.0278
  514THF     C310772   4.607   3.631   0.715 -0.2087  0.8679  0.8881
  514THF     H410773   4.666   3.622   0.984  0.0470  0.7321  1.5878
  514THF     H510774   4.497   3.628   1.012  0.7961 -0.6200 -0.2608
  514THF     H610775   4.715   3.624   0.727  0.0036  0.7298 -0.9034
  514THF     H710776   4.580   3.581   0.623  0.0536 -0.8594  1.7090
  514THF     C810777   4.555   3.773   0.729  0.6945  0.2834 -0.0065
  514THF     C910778   4.587   3.790   0.876 -0.4448 -0.0297  0.6636
  514THF    H1010779   4.447   3.783   0.720  0.7769 -0.2304 -2.2813
  514THF    H1110780   4.601   3.842   0.658  0.1057  0.3439 -0.3335
  514THF    H1210781   4.683   3.836   0.902 -1.1748  1.3611  0.9853
  514THF    H1310782   4.518   3.856   0.929 -0.0409 -0.0559  1.2310
  515THF     O110783   1.267   1.054   4.680  0.0369 -0.4310 -0.3850
  515THF     C210784   1.147   1.129   4.706 -0.1720  0.6639  0.0430
  515THF     C310785   1.275   1.017   4.542 -0.0980 -0.5106  0.0576
  515THF     H410786   1.186   1.231   4.705  2.0601 -0.1264 -1.2842
  515THF     H510787   1.094   1.108   4.799  1.1994 -1.9189  0.3145
  515THF     H610788   1.330   1.088   4.480 -0.3822 -1.8906 -1.8838
  515THF     H710789   1.331   0.924   4.530  1.1256  0.3444 -1.2440
  515THF     C810790   1.135   1.014   4.488  0.0705  0.0583  0.2135
  515THF     C910791   1.063   1.113   4.575  0.8875  0.7082 -0.2014
  515THF    H1010792   1.086   0.918   4.503 -0.5727  0.5347  1.2832
  515THF    H1110793   1.123   1.046   4.385 -1.4614 -0.7249  0.1147
  515THF    H1210794   1.047   1.209   4.526 -0.9812  0.3492 -0.3483
  515THF    H1310795   0.965   1.084   4.613  1.6571  0.7896  2.0305
  516THF     O110796   4.561   3.123   1.713 -0.1147 -0.4872 -0.0139
  516THF     C210797   4.486   3.241   1.689 -0.1001 -0.0853  0.1169
  516THF     C310798   4.620   3.126   1.838 -0.3167  0.0168 -0.2208
  516THF     H410799   4.388   3.212   1.651 -0.2627  0.7167 -0.0779
  516THF     H510800   4.515   3.306   1.607  0.7618  0.3583  0.7590
  516THF     H610801   4.648   3.031   1.885  3.0338  0.9722 -0.0550
  516THF     H710802   4.718   3.173   1.834 -0.5077  0.4531  0.1348
  516THF     C810803   4.514   3.199   1.918 -0.3327  0.5636  0.0654
  516THF     C910804   4.471   3.313   1.833  0.1747  0.3285  0.0333
  516THF    H1010805   4.560   3.229   2.012  0.3576 -1.3538  0.3670
  516THF    H1110806   4.429   3.132   1.932  0.1929 -0.1721 -0.2349
  516THF    H1210807   4.372   3.344   1.866  0.0697  1.2548 -1.0645
  516THF    H1310808   4.545   3.392   1.848  2.9849 -1.8242 -1.4822
  517THF     O110809   4.563   5.207   0.074  0.0705 -0.2080 -0.5922
  517THF     C210810   4.673   5.269   0.136  0.2722  0.0591  0.4643
  517THF     C310811   4.589   5.072   0.070 -0.6074 -0.3414 -0.1536
  517THF     H410812   4.660   5.376   0.149  2.2175  0.9266 -3.2686
  517THF     H510813   4.763   5.253   0.076  0.5985  0.7627  0.7563
  517THF     H610814   4.499   5.018   0.042 -0.5387 -0.6623  0.2335
  517THF     H710815   4.669   5.048   0.001 -1.3213 -0.0797 -1.0900
  517THF     C810816   4.629   5.044   0.215 -0.2382 -0.3791 -0.2814
  517THF     C910817   4.698   5.173   0.256  0.8228 -1.0538  0.6746
  517THF    H1010818   4.701   4.962   0.219  1.0121  0.7172  0.5212
  517THF    H1110819   4.549   5.020   0.285  1.2531 -0.1829  1.5641
  517THF    H1210820   4.648   5.218   0.341  1.6823 -1.4831  1.4177
  517THF    H1310821   4.801   5.152   0.285  0.5380  1.0428  3.6652
  518THF     O110822   5.138   3.626   0.909 -0.2038 -0.1675 -0.1078
  518THF     C210823   5.196   3.538   1.016 -0.4219 -0.0816  0.2453
  518THF     C310824   4.996   3.630   0.922  0.2411  0.0007  0.3395
  518THF     H410825   5.240   3.593   1.099 -0.2335 -0.2360  0.2485
  518THF     H510826   5.268   3.465   0.979 -0.2233  0.2892 -0.1159
  518THF     H610827   4.956   3.699   0.996 -1.0399  0.3412 -0.6451
  518THF     H710828   4.949   3.643   0.825  0.3225 -2.8765 -0.1830
  518THF     C810829   4.962   3.492   0.970  0.2246 -0.2360 -0.2572
  518THF     C910830   5.075   3.461   1.070 -0.1731  0.3793 -0.1134
  518THF    H1010831   4.966   3.433   0.879  0.6615 -1.1784  0.3565
  518THF    H1110832   4.864   3.500   1.016 -0.1892 -0.4373 -1.0811
  518THF    H1210833   5.051   3.491   1.172  1.2553  1.8935 -0.1694
  518THF    H1310834   5.076   3.355   1.092  0.6305  0.3120 -0.4770
  519THF     O110835   2.529   1.422   3.003  0.6870  0.2044 -1.0022
  519THF     C210836   2.389   1.383   2.986  0.0415  0.0458  0.1305
  519THF     C310837   2.590   1.304   3.059  0.1262 -0.2814 -0.1073
  519THF     H410838   2.341   1.443   2.909  0.4774  0.2292 -0.0014
  519THF     H510839   2.327   1.407   3.073 -0.3068  0.3028 -0.1856
  519THF     H610840   2.699   1.313   3.053 -0.0257  1.5581 -0.5251
  519THF     H710841   2.549   1.310   3.160  0.0528 -1.7488 -0.0208
  519THF     C810842   2.527   1.184   2.980  0.4337  0.1993  0.0760
  519THF     C910843   2.384   1.226   2.948 -0.8630 -0.3349 -0.2249
  519THF    H1010844   2.533   1.106   3.056  2.6387  1.4231  1.2715
  519THF    H1110845   2.584   1.157   2.891 -1.5870  0.0483 -1.2459
  519THF    H1210846   2.356   1.218   2.843 -1.9415 -1.5752  0.1222
  519THF    H1310847   2.315   1.165   3.007 -0.5725 -2.3717 -1.8905
  520THF     O110848   0.719   4.885   0.243  0.1946 -0.2106  0.2677
  520THF     C210849   0.705   4.875   0.100  0.6528 -0.4152 -0.2601
  520THF     C310850   0.705   4.751   0.296 -0.2267 -0.0885 -0.0087
  520THF     H410851   0.802   4.888   0.051  0.0844  0.7817 -1.1207
  520THF     H510852   0.642   4.952   0.056 -0.1715 -0.1644  1.2912
  520THF     H610853   0.791   4.743   0.363 -1.1642  2.4087  1.6314
  520THF     H710854   0.610   4.748   0.348  0.6887 -1.2877  1.6874
  520THF     C810855   0.698   4.654   0.174 -0.7877  0.9373 -0.1038
  520THF     C910856   0.635   4.742   0.077 -0.0563 -0.1230 -0.5895
  520THF    H1010857   0.639   4.564   0.193 -1.8859  1.1115 -2.2973
  520THF    H1110858   0.801   4.630   0.148  0.2219  3.8453  0.8659
  520THF    H1210859   0.657   4.725  -0.029 -0.5505  2.3400 -1.1556
  520THF    H1310860   0.527   4.747   0.081 -0.1988  0.4076 -3.1449
  521THF     O110861   4.800   1.301   5.382 -0.2673  0.4235 -0.1600
  521THF     C210862   4.812   1.258   5.243  1.1031  0.0110 -0.1718
  521THF     C310863   4.936   1.334   5.416  0.0727 -0.4415 -0.3417
  521THF     H410864   4.834   1.345   5.182 -0.6914  1.0563  0.6068
  521THF     H510865   4.722   1.203   5.214  1.0056 -0.6846  1.3665
  521THF     H610866   4.964   1.427   5.368 -0.8062 -0.0006 -0.0256
  521THF     H710867   4.963   1.342   5.522  1.5993 -0.9122 -0.6738
  521THF     C810868   5.013   1.216   5.355 -0.0201 -0.1279 -1.0853
  521THF     C910869   4.934   1.164   5.244  0.7581 -0.1542 -0.0447
  521THF    H1010870   5.007   1.146   5.439 -0.0135  0.2291 -0.7837
  521THF    H1110871   5.119   1.234   5.338 -0.0065  0.0570 -0.8157
  521THF    H1210872   4.992   1.159   5.152 -0.5549 -0.6746 -0.8673
  521THF    H1310873   4.893   1.064   5.260  0.3424 -0.3534 -2.0546
  522THF     O110874   2.992   2.609   4.643  0.2248 -0.2529 -0.2647
  522THF     C210875   3.127   2.617   4.684  0.5562 -0.0568 -0.0203
  522THF     C310876   2.956   2.748   4.624 -0.5979 -0.0914 -0.3052
  522THF     H410877   3.191   2.644   4.600  0.0098 -4.1438 -2.0057
  522THF     H510878   3.163   2.520   4.717 -2.7122 -1.0377  0.9969
  522THF     H610879   2.971   2.788   4.524 -0.8525 -2.7627 -1.4933
  522THF     H710880   2.848   2.753   4.636 -0.5832  0.7025 -0.4519
  522THF     C810881   3.030   2.826   4.731 -0.4414 -0.3991  0.0860
  522THF     C910882   3.119   2.724   4.793  0.0662 -0.7752  0.9915
  522THF    H1010883   2.961   2.861   4.809 -2.5044 -1.0704 -1.3614
  522THF    H1110884   3.081   2.915   4.696 -0.0008 -0.7616 -0.1923
  522THF    H1210885   3.220   2.765   4.794  0.1795 -0.8528 -1.1249
  522THF    H1310886   3.083   2.684   4.887 -0.0020  0.3277  1.4549
  523THF     O110887   3.077   4.334   1.949 -0.3072 -0.0782  0.4620
  523THF     C210888   3.007   4.219   1.904 -0.1971 -0.2043 -0.3601
  523THF     C310889   2.983   4.429   1.996 -0.7110 -0.0189 -0.3397
  523THF     H410890   2.970   4.148   1.977 -0.1348 -1.1426 -1.2199
  523THF     H510891   3.072   4.157   1.842  2.2171  2.1910 -0.4368
  523THF     H610892   2.974   4.431   2.104  1.4646 -0.3170 -0.1048
  523THF     H710893   3.017   4.529   1.966 -0.4452 -0.6128 -2.1259
  523THF     C810894   2.849   4.394   1.931  0.5076 -0.3641  0.2343
  523THF     C910895   2.889   4.287   1.834  0.3178  0.0219 -1.2234
  523THF    H1010896   2.788   4.476   1.893  2.0612 -0.3355 -2.5239
  523THF    H1110897   2.783   4.356   2.009 -1.0727 -0.4201 -1.0814
  523THF    H1210898   2.804   4.219   1.829  0.2910 -0.0400 -0.2657
  523THF    H1310899   2.903   4.335   1.738  0.1647  0.5485 -0.9869
  524THF     O110900   1.532   5.498   2.923 -0.1345  0.8400  0.2260
  524THF     C210901   1.575   5.557   2.796 -0.3393 -0.0406 -0.4191
  524THF     C310902   1.630   5.519   3.020 -0.3980 -0.0015 -0.0314
  524THF     H410903   1.543   5.661   2.797 -0.4372 -0.0559  1.5734
  524THF     H510904   1.543   5.513   2.701  2.2713 -0.6999 -1.0891
  524THF     H610905   1.592   5.612   3.062 -1.6861 -1.3002  1.8565
  524THF     H710906   1.633   5.437   3.092  0.4636 -0.8168 -0.9596
  524THF     C810907   1.762   5.535   2.947 -0.2030 -0.2479  0.1659
  524THF     C910908   1.727   5.565   2.805  0.6994 -0.2008  0.4283
  524THF    H1010909   1.817   5.441   2.950  1.9235  0.8908 -1.0323
  524THF    H1110910   1.825   5.613   2.989 -0.7373 -0.6943  1.9008
  524THF    H1210911   1.766   5.657   2.761  1.0508  0.2183  1.5981
  524THF    H1310912   1.778   5.492   2.742  0.3700  0.8249 -1.0857
  525THF     O110913   5.061   0.818   3.704  0.2185 -0.4195  0.2167
  525THF     C210914   4.974   0.715   3.743 -0.1459  0.1864 -0.5554
  525THF     C310915   5.038   0.845   3.569 -0.1561  0.5105  0.2446
  525THF     H410916   4.952   0.732   3.848  0.3090  2.2891 -0.7455
  525THF     H510917   4.997   0.612   3.717 -2.5830 -0.6502  0.3677
  525THF     H610918   5.078   0.944   3.547 -1.0041  1.1523  1.4926
  525THF     H710919   5.088   0.774   3.502  0.4618 -0.0372  1.2591
  525THF     C810920   4.890   0.830   3.543  0.5584 -0.3565  0.0232
  525THF     C910921   4.843   0.751   3.671 -0.1982 -0.2063 -0.6788
  525THF    H1010922   4.869   0.776   3.450 -1.4108 -0.8178  0.6888
  525THF    H1110923   4.843   0.928   3.537  1.1506 -0.0393  0.4513
  525THF    H1210924   4.775   0.806   3.737 -1.6220  0.6521 -2.7495
  525THF    H1310925   4.782   0.663   3.652 -3.2227  1.8335 -1.1424
  526THF     O110926   4.487   4.950   3.926 -0.3357  0.1202  0.6331
  526THF     C210927   4.579   4.918   4.022 -0.2559  0.0654  0.6914
  526THF     C310928   4.547   5.066   3.853  0.4654  0.2356 -0.4011
  526THF     H410929   4.554   4.818   4.057  0.8108 -0.0112  1.2571
  526THF     H510930   4.595   4.989   4.103  0.3568  0.5376  0.1743
  526THF     H610931   4.500   5.074   3.755 -3.0604  0.5673  1.1472
  526THF     H710932   4.540   5.161   3.906 -1.3249  1.0723 -2.0100
  526THF     C810933   4.694   5.026   3.837  0.3104  0.2048 -0.2586
  526THF     C910934   4.706   4.913   3.940 -0.5977  0.5855  0.5531
  526THF    H1010935   4.761   5.110   3.851 -0.0729  0.0555  3.2926
  526THF    H1110936   4.710   4.980   3.739 -0.7631  1.3193 -0.9899
  526THF    H1210937   4.729   4.821   3.886  1.3511  0.5837  1.2874
  526THF    H1310938   4.790   4.921   4.010  1.2739  2.2261 -1.7019
  527THF     O110939   1.297   1.019   2.575  0.1567  0.5144  0.4235
  527THF     C210940   1.395   1.110   2.563 -0.0723 -0.5775  0.4561
  527THF     C310941   1.190   1.031   2.479 -0.5522 -0.4552 -0.3085
  527THF     H410942   1.480   1.070   2.507 -0.8004 -1.6650  0.0933
  527THF     H510943   1.423   1.147   2.662 -0.6325  1.7779 -0.2011
  527THF     H610944   1.208   0.994   2.378  1.2937  0.0095 -0.1777
  527THF     H710945   1.094   0.990   2.513  0.1591 -1.6509  0.3368
  527THF     C810946   1.177   1.178   2.480 -0.3503  1.0397  0.0332
  527THF     C910947   1.315   1.237   2.503  0.3518  0.2227  0.9608
  527THF    H1010948   1.112   1.208   2.563  0.5001  1.0817  0.6975
  527THF    H1110949   1.124   1.210   2.391  1.0835 -0.3817 -1.3920
  527THF    H1210950   1.360   1.279   2.413 -1.0565 -0.8981 -0.3158
  527THF    H1310951   1.295   1.322   2.568 -0.0464  2.3148 -1.6991
  528THF     O110952   0.481   3.219   2.983 -0.4104  0.1316 -0.1613
  528THF     C210953   0.337   3.204   2.980 -0.1294 -0.2081  0.5831
  528THF     C310954   0.524   3.092   2.936 -0.0194 -0.2620 -0.2363
  528THF     H410955   0.300   3.217   2.878  1.2804 -0.2058  0.0548
  528THF     H510956   0.285   3.275   3.044  0.0795  0.6110 -0.1291
  528THF     H610957   0.554   3.105   2.833  1.1441 -0.6508  0.0368
  528THF     H710958   0.613   3.071   2.995  0.7905 -0.3455 -1.4571
  528THF     C810959   0.414   2.986   2.951 -0.4497 -0.7281  0.2782
  528THF     C910960   0.299   3.061   3.011 -0.6691 -0.4672 -0.2054
  528THF    H1010961   0.440   2.900   3.012 -1.3336 -1.9118 -0.9678
  528THF    H1110962   0.376   2.955   2.854 -2.4166 -1.0356  1.0834
  528THF    H1210963   0.198   3.032   2.978 -0.1793 -1.4621 -0.8927
  528THF    H1310964   0.307   3.043   3.118  1.4253  0.6624 -0.1280
  529THF     O110965   1.379   1.246   5.390  0.9258 -0.4120  0.3563
  529THF     C210966   1.235   1.234   5.394 -0.0407  0.0751 -0.3658
  529THF     C310967   1.398   1.387   5.425 -0.2424  0.2926 -1.2076
  529THF     H410968   1.212   1.134   5.431 -0.5366  0.8772  1.5681
  529THF     H510969   1.181   1.267   5.305 -0.0067  1.7401  0.2069
  529THF     H610970   1.499   1.423   5.444 -0.9481  0.9923  1.7524
  529THF     H710971   1.371   1.457   5.345 -1.4736  0.3555 -0.7610
  529THF     C810972   1.313   1.416   5.547 -0.8386  0.1063 -0.0826
  529THF     C910973   1.194   1.334   5.502  0.6399  0.2693  0.3882
  529THF    H1010974   1.286   1.521   5.558  1.3901  0.9562 -1.9414
  529THF    H1110975   1.359   1.377   5.638  1.4825  1.6392 -0.5326
  529THF    H1210976   1.168   1.279   5.592  1.7134  1.8710  1.7534
  529THF    H1310977   1.111   1.394   5.465  2.0426  2.3054  0.3852
  530THF     O110978   3.443   3.315   4.798 -0.6015  0.1679  0.0031
  530THF     C210979   3.434   3.351   4.939  0.1444  0.6278 -0.3628
  530THF     C310980   3.346   3.210   4.775  0.0257  0.1557 -1.0826
  530THF     H410981   3.357   3.427   4.949 -0.3989  0.0791 -0.2818
  530THF     H510982   3.522   3.403   4.977  0.8816 -0.0861 -1.0372
  530THF     H610983   3.246   3.243   4.747  0.3730  1.5982 -0.7203
  530THF     H710984   3.398   3.146   4.704  1.0156 -0.5287  0.2064
  530THF     C810985   3.343   3.124   4.907  0.3482  0.6136 -0.3637
  530THF     C910986   3.406   3.216   5.009  0.5600  0.3576 -0.4574
  530THF    H1010987   3.398   3.030   4.895 -1.0933 -0.2999 -0.1268
  530THF    H1110988   3.240   3.100   4.932  0.1554 -0.3295 -1.9232
  530THF    H1210989   3.344   3.231   5.097  1.0485 -0.8111  0.1126
  530THF    H1310990   3.496   3.165   5.044  0.0688  0.2074  0.6452
  531THF     O110991   2.737   2.177   0.407 -0.0310 -0.0817  0.1395
  531THF     C210992   2.629   2.175   0.315  0.3215  0.0812 -0.8450
  531THF     C310993   2.678   2.193   0.534 -0.1258  0.6214 -0.0304
  531THF     H410994   2.563   2.088   0.319 -0.6549  0.8418  2.0683
  531THF     H510995   2.677   2.178   0.217 -0.6392 -0.3889 -1.3488
  531THF     H610996   2.640   2.092   0.549  0.7232  0.4163  0.7813
  531THF     H710997   2.755   2.201   0.610 -0.4698 -2.8698  0.8220
  531THF     C810998   2.570   2.300   0.515  0.0794 -0.8472 -0.8187
  531THF     C910999   2.554   2.293   0.357  0.2030  0.6396  1.0147
  531THF    H1011000   2.607   2.398   0.546  0.6575 -1.8544  2.0059
  531THF    H1111001   2.484   2.272   0.575 -0.3610  1.2096 -0.4008
  531THF    H1211002   2.449   2.290   0.327  0.6395 -0.3813 -0.5440
  531THF    H1311003   2.599   2.379   0.309  2.3451 -0.2083  1.3964
  532THF     O111004   0.037   5.138   1.277 -0.0734  0.5742  0.3404
  532THF     C211005   0.106   5.027   1.211  0.2828 -0.8592 -0.0209
  532THF     C311006  -0.016   5.220   1.174 -0.1579  0.0685 -0.7245
  532THF     H411007   0.055   4.931   1.205  0.9938 -1.1768 -4.1204
  532THF     H511008   0.202   5.017   1.260 -0.1207 -2.0432  0.5683
  532THF     H611009  -0.116   5.252   1.205 -0.0604 -0.6506  0.3979
  532THF     H711010   0.053   5.304   1.186 -0.9479  0.5125  1.0804
  532THF     C811011  -0.024   5.146   1.041  0.0721  0.3077  0.1603
  532THF     C911012   0.109   5.066   1.059 -0.2924 -1.0893  0.3366
  532THF    H1011013  -0.018   5.222   0.963 -3.3378 -0.1059 -0.6860
  532THF    H1111014  -0.111   5.085   1.015  0.2568  0.4746 -0.9055
  532THF    H1211015   0.116   4.976   0.998 -1.7474 -2.0790  1.5597
  532THF    H1311016   0.191   5.130   1.027 -1.0488 -0.6164 -0.7350
  533THF     O111017   1.026   5.100   4.113  0.6872 -0.1331 -0.5047
  533THF     C211018   1.121   5.022   4.047  0.1802  0.0419  0.6578
  533THF     C311019   1.024   5.236   4.059 -0.3697 -0.0717 -0.3321
  533THF     H411020   1.107   4.914   4.062  2.2371 -0.4418 -0.6148
  533THF     H511021   1.212   5.049   4.100 -0.3706  0.7182  1.2783
  533THF     H611022   0.939   5.294   4.095 -0.6150  0.4301 -1.6712
  533THF     H711023   1.116   5.291   4.082 -0.9166  1.4451 -1.5988
  533THF     C811024   1.013   5.202   3.912 -0.2197  0.6756 -0.3921
  533THF     C911025   1.114   5.081   3.903  0.3715 -0.2773  0.0075
  533THF    H1011026   1.047   5.280   3.844  0.3633  2.1826  1.5405
  533THF    H1111027   0.914   5.169   3.882  0.1007  2.0587 -3.3558
  533THF    H1211028   1.071   5.005   3.838 -0.1573 -1.8939  2.1306
  533THF    H1311029   1.214   5.109   3.871  0.1502 -0.7806 -1.1615
  534THF     O111030   0.588   1.439   1.593  0.0603 -0.0637 -0.1963
  534THF     C211031   0.668   1.499   1.496  0.1502  0.6260  0.2031
  534THF     C311032   0.499   1.346   1.537  0.1832  0.4639 -0.3049
  534THF     H411033   0.771   1.469   1.516 -0.6315 -2.3510  0.2701
  534THF     H511034   0.656   1.604   1.522 -2.3685  0.3285  0.4181
  534THF     H611035   0.558   1.255   1.523  0.5867  0.8664 -1.2904
  534THF     H711036   0.413   1.323   1.599  1.1733 -1.1452  0.5605
  534THF     C811037   0.473   1.406   1.400  0.0245  0.0332 -0.3781
  534THF     C911038   0.609   1.455   1.357 -0.0013  0.0427 -0.0823
  534THF    H1011039   0.400   1.488   1.397 -0.9295 -0.5050  3.2842
  534THF    H1111040   0.435   1.334   1.328 -0.8228  0.0133  0.0737
  534THF    H1211041   0.668   1.374   1.315  0.0379 -0.0031  0.0604
  534THF    H1311042   0.624   1.538   1.288  3.0306  0.9048  1.4234
  535THF     O111043   3.822   4.245   1.302  0.3891 -0.1767 -0.1632
  535THF     C211044   3.698   4.283   1.350 -0.5048  0.0796 -0.4551
  535THF     C311045   3.924   4.329   1.344 -0.0555 -0.0274  0.2430
  535THF     H411046   3.683   4.241   1.449  0.8789 -0.0127 -0.2737
  535THF     H511047   3.616   4.250   1.286 -1.5662 -0.3830  1.0711
  535THF     H611048   3.971   4.290   1.435  0.5060 -2.7048 -1.0959
  535THF     H711049   4.006   4.344   1.274 -0.2396  0.5951  0.1509
  535THF     C811050   3.851   4.459   1.360  0.3907  0.0508 -0.6442
  535THF     C911051   3.705   4.433   1.369 -0.0485 -0.0203  0.1287
  535THF    H1011052   3.864   4.522   1.272 -0.7219  1.5139  0.1839
  535THF    H1111053   3.884   4.527   1.439 -2.2372  1.0180 -0.2744
  535THF    H1211054   3.657   4.465   1.461  0.3908  2.6864 -0.4803
  535THF    H1311055   3.646   4.472   1.286  2.6197 -0.6174 -2.2548
  536THF     O111056   2.534   3.018   3.400  0.3174 -0.5228 -0.0936
  536THF     C211057   2.493   3.156   3.394 -0.1777  0.5229 -0.3509
  536THF     C311058   2.510   2.957   3.270  0.0847 -0.0902 -0.6239
  536THF     H411059   2.562   3.209   3.328  1.3452  0.9005  1.4319
  536THF     H511060   2.489   3.210   3.489  0.4593 -1.0156  0.5846
  536THF     H611061   2.595   2.953   3.202 -0.2917  0.4790 -1.1403
  536THF     H711062   2.480   2.853   3.280 -2.6661  0.7710  1.5289
  536THF     C811063   2.388   3.035   3.206  0.4165  0.1341  0.0666
  536THF     C911064   2.352   3.125   3.325  0.1287 -0.0317  0.3968
  536THF    H1011065   2.316   2.959   3.174  0.0039  0.7405 -0.4687
  536THF    H1111066   2.410   3.090   3.115  0.2919 -1.2451 -0.8344
  536THF    H1211067   2.307   3.218   3.291  2.2122  0.5507 -0.9123
  536THF    H1311068   2.289   3.075   3.399 -0.7894  1.7388  0.8796
  537THF     O111069   2.015   4.731   0.227 -0.2356  0.3581 -1.0203
  537THF     C211070   2.121   4.687   0.144 -0.0848 -0.3128 -0.6107
  537THF     C311071   1.931   4.622   0.258  0.0443 -0.3704  0.0000
  537THF     H411072   2.189   4.629   0.206  0.1579  1.7339  1.1921
  537THF     H511073   2.187   4.760   0.097  0.0713  0.3440  0.5633
  537THF     H611074   1.986   4.559   0.327  0.0253 -0.6407 -0.2264
  537THF     H711075   1.836   4.660   0.297 -0.0552  0.3882 -0.9248
  537THF     C811076   1.921   4.566   0.112  0.2378 -0.2044 -0.6038
  537THF     C911077   2.048   4.606   0.045  0.3303 -0.2822  0.1428
  537THF    H1011078   1.840   4.596   0.044 -0.2347 -2.1319 -0.9634
  537THF    H1111079   1.912   4.457   0.110 -1.6049 -0.0867 -0.8178
  537THF    H1211080   2.110   4.517   0.037 -1.6040 -1.8747  1.6373
  537THF    H1311081   2.043   4.647  -0.056  0.4387  1.4445  0.7957
  538THF     O111082   3.198   0.152   2.328  0.1134 -0.9291 -0.0423
  538THF     C211083   3.230   0.024   2.279  0.3649  0.5551  0.3768
  538THF     C311084   3.266   0.167   2.451 -1.1704  0.1609  0.7185
  538THF     H411085   3.209   0.015   2.173  1.6951  2.5453 -0.1140
  538THF     H511086   3.168  -0.051   2.329 -1.0613  2.2867  1.3328
  538THF     H611087   3.285   0.270   2.481 -1.1045  0.4482 -0.2604
  538THF     H711088   3.204   0.123   2.528  0.3669 -1.2375  1.2245
  538THF     C811089   3.396   0.089   2.423  0.3245  0.2195  0.3935
  538THF     C911090   3.375   0.005   2.301 -0.5447 -0.2492 -0.0018
  538THF    H1011091   3.423   0.037   2.515  0.9783  2.3444  1.4868
  538THF    H1111092   3.473   0.164   2.404 -0.3013  0.6777 -0.3942
  538THF    H1211093   3.431   0.040   2.213 -1.3378 -0.5534 -0.6382
  538THF    H1311094   3.405  -0.098   2.318 -2.9238 -0.9061  0.5491
  539THF     O111095   2.786   0.732   0.904 -0.3356 -0.2791 -0.3565
  539THF     C211096   2.831   0.604   0.871 -0.7535  0.1894  0.6200
  539THF     C311097   2.736   0.795   0.792  0.0657  0.0368 -0.0086
  539THF     H411098   2.824   0.537   0.956 -0.0859  0.7555  1.1260
  539THF     H511099   2.931   0.601   0.827 -0.5758  0.6207  0.9886
  539THF     H611100   2.675   0.881   0.821  0.9978  1.3275 -1.6682
  539THF     H711101   2.823   0.839   0.744  1.2114  0.1448  2.0505
  539THF     C811102   2.665   0.680   0.724 -0.2685  0.0906  0.1476
  539THF     C911103   2.740   0.554   0.763 -0.5900 -0.0377 -0.2437
  539THF    H1011104   2.649   0.701   0.618 -0.2936  0.6118  0.2548
  539THF    H1111105   2.562   0.676   0.760 -1.5739  1.8899 -3.0156
  539THF    H1211106   2.671   0.477   0.798  0.5589 -1.7761 -1.5846
  539THF    H1311107   2.794   0.509   0.679 -1.9249 -1.1494 -0.5480
  540THF     O111108   4.491   4.274   0.312  0.0275  0.0927  0.1128
  540THF     C211109   4.597   4.225   0.395  0.0559  1.2095 -0.2603
  540THF     C311110   4.395   4.172   0.290 -0.5879  0.5761 -0.0188
  540THF     H411111   4.556   4.240   0.495  0.7065 -0.8290  0.3623
  540THF     H511112   4.690   4.279   0.380  0.5223  0.5150  0.0472
  540THF     H611113   4.317   4.193   0.362 -0.4782 -0.6515  0.4744
  540THF     H711114   4.360   4.186   0.187  1.0927  1.1343 -0.5613
  540THF     C811115   4.467   4.041   0.319 -0.2173 -0.0769  0.5974
  540THF     C911116   4.611   4.082   0.366 -0.0534  0.0941  0.4564
  540THF    H1011117   4.483   3.974   0.234  2.6520  2.3756 -0.9974
  540THF    H1111118   4.412   3.991   0.398 -1.1411  1.2939  0.8504
  540THF    H1211119   4.639   4.021   0.452  0.8503  0.1301  0.2013
  540THF    H1311120   4.682   4.054   0.288 -0.3654 -0.1745  0.2698
  541THF     O111121   2.866   5.188   2.500  0.3989 -0.0192 -0.1181
  541THF     C211122   2.768   5.091   2.454  0.1199  0.0009 -0.2674
  541THF     C311123   2.885   5.291   2.407  0.5722  0.9980 -0.7763
  541THF     H411124   2.696   5.076   2.535  3.3404  0.9651  3.0958
  541THF     H511125   2.803   4.988   2.440  2.0617 -0.0344  3.4098
  541THF     H611126   2.834   5.381   2.440 -0.2446  0.0468  0.6909
  541THF     H711127   2.992   5.310   2.410  0.5232  1.3599  2.1117
  541THF     C811128   2.816   5.232   2.278 -0.2604  0.1040  0.0161
  541THF     C911129   2.706   5.144   2.333  0.1010  0.7174  0.4697
  541THF    H1011130   2.891   5.176   2.221  0.2358  0.3439  0.4194
  541THF    H1111131   2.779   5.312   2.214  0.5853 -0.3525 -1.0817
  541THF    H1211132   2.617   5.202   2.358 -1.6777 -2.3657  1.8598
  541THF    H1311133   2.663   5.071   2.264 -0.4770  1.2101  0.2985
  542THF     O111134   4.855   2.646   3.333  0.1326 -0.0499 -0.6313
  542THF     C211135   4.966   2.685   3.412 -0.5965 -0.1949  0.3087
  542THF     C311136   4.831   2.510   3.340  0.1044 -0.1421  0.8893
  542THF     H411137   4.965   2.792   3.430 -2.9394 -0.3793  1.8248
  542THF     H511138   5.061   2.654   3.370  0.9947  0.8894  2.8534
  542THF     H611139   4.722   2.504   3.339  0.1614 -1.8293 -0.6727
  542THF     H711140   4.859   2.439   3.262 -1.0033  0.9441 -0.5708
  542THF     C811141   4.892   2.474   3.476 -0.4892  0.3094  0.3619
  542THF     C911142   4.940   2.605   3.537 -0.5132 -0.9010 -0.4114
  542THF    H1011143   4.987   2.425   3.452 -0.9329 -0.5084  0.2539
  542THF    H1111144   4.840   2.398   3.533  2.7733 -2.2030  0.3291
  542THF    H1211145   4.864   2.648   3.603 -0.0923 -0.8670  0.0594
  542THF    H1311146   5.029   2.594   3.599  1.0646  0.3519 -2.3622
  543THF     O111147   4.234   5.384   4.892 -0.2654 -0.4245  0.0197
  543THF     C211148   4.129   5.296   4.907 -0.3677 -0.5624  0.1986
  543THF     C311149   4.353   5.301   4.886  0.8248  0.1915 -0.4784
  543THF     H411150   4.113   5.259   4.805 -0.6531  1.5637 -0.5728
  543THF     H511151   4.040   5.348   4.941  0.2694  0.1726  0.7844
  543THF     H611152   4.361   5.262   4.785  0.0091  0.9913 -0.8614
  543THF     H711153   4.453   5.339   4.906  1.3689 -1.7194  0.7790
  543THF     C811154   4.324   5.182   4.983  0.0368  0.0636 -0.6447
  543THF     C911155   4.175   5.178   4.995 -0.5662  0.1463 -0.3104
  543THF    H1011156   4.371   5.183   5.081 -0.7051 -0.6867 -0.2663
  543THF    H1111157   4.365   5.092   4.936  1.4979  0.7341 -0.6991
  543THF    H1211158   4.123   5.090   4.957 -2.3976  1.7811 -1.8305
  543THF    H1311159   4.153   5.196   5.100  1.0059  2.1638 -0.2641
  544THF     O111160   1.957   1.647   5.109 -0.0717  0.2544 -0.0223
  544THF     C211161   1.851   1.663   5.017  0.2671  0.3283  0.8430
  544THF     C311162   2.062   1.575   5.044  0.4034 -1.0206 -0.3874
  544THF     H411163   1.796   1.756   5.032  0.9741  1.1959 -1.3551
  544THF     H511164   1.779   1.583   5.029 -1.4592  1.4374 -1.4436
  544THF     H611165   2.158   1.584   5.095  1.3391 -0.6529 -2.1583
  544THF     H711166   2.037   1.469   5.053 -0.1594 -0.8460  0.2204
  544THF     C811167   2.062   1.616   4.898 -0.4507 -0.5169  0.3710
  544THF     C911168   1.921   1.652   4.871 -0.1853 -0.2275  0.2998
  544THF    H1011169   2.095   1.532   4.837  1.6597 -1.0636  2.1703
  544THF    H1111170   2.124   1.705   4.883 -1.5886  0.6254  2.1284
  544THF    H1211171   1.911   1.745   4.814 -0.5206  0.6116  1.6807
  544THF    H1311172   1.878   1.574   4.808  2.2017 -0.4436 -1.1731
  545THF     O111173   4.546   2.783   0.477  0.0381 -0.3427  0.3969
  545THF     C211174   4.479   2.696   0.383  0.1892 -0.5502  0.6347
  545THF     C311175   4.443   2.881   0.521 -0.3238  0.4933 -0.1860
  545THF     H411176   4.417   2.629   0.443  0.9757  0.3589  2.5486
  545THF     H511177   4.552   2.629   0.337  0.7868  0.8495 -0.5033
  545THF     H611178   4.409   2.842   0.617  1.4521 -1.6456 -0.3301
  545THF     H711179   4.495   2.976   0.535  2.5793 -0.8671 -0.8648
  545THF     C811180   4.339   2.885   0.406 -0.4125  0.0266  0.5680
  545THF     C911181   4.394   2.791   0.299 -0.5689  0.1091  0.1829
  545THF    H1011182   4.348   2.984   0.362 -0.0921  0.0230  0.6246
  545THF    H1111183   4.244   2.854   0.448  0.0758 -0.5442  1.2725
  545THF    H1211184   4.320   2.741   0.237  1.4013 -1.5972 -0.9154
  545THF    H1311185   4.455   2.844   0.226 -2.2756 -2.1929 -3.1461
  546THF     O111186   2.822   1.311   3.732 -0.4254 -0.1866 -0.3088
  546THF     C211187   2.752   1.340   3.614 -0.7028 -0.1512  0.3691
  546THF     C311188   2.870   1.436   3.789  0.1392 -0.4608  0.1815
  546THF     H411189   2.661   1.280   3.610 -2.0756  1.8614 -0.0788
  546THF     H511190   2.821   1.313   3.534 -2.0915  0.2734 -1.0384
  546THF     H611191   2.877   1.431   3.898 -1.8333  2.0203  0.5144
  546THF     H711192   2.973   1.447   3.755  0.2663  1.5370  1.0900
  546THF     C811193   2.774   1.544   3.735  0.1670 -0.1407 -0.4277
  546THF     C911194   2.716   1.493   3.608 -0.5609 -0.3129  0.1382
  546THF    H1011195   2.829   1.638   3.721  0.5216  0.0120  1.5970
  546THF    H1111196   2.691   1.560   3.803  0.9594  2.0225  0.1330
  546THF    H1211197   2.609   1.507   3.597 -0.7948 -1.9817  0.0471
  546THF    H1311198   2.765   1.538   3.522  0.3520  1.8290  1.6755
  547THF     O111199   2.979   2.073   1.703  0.5170  0.1529  0.3860
  547THF     C211200   2.970   2.126   1.577 -0.3335 -0.1017 -0.2366
  547THF     C311201   3.077   2.135   1.778 -0.1173  0.2738  0.8330
  547THF     H411202   2.895   2.204   1.585 -0.2116  0.2980 -2.5524
  547THF     H511203   2.938   2.051   1.506  0.3606  0.5261 -1.2314
  547THF     H611204   3.030   2.214   1.836 -0.6017  0.6554 -0.0667
  547THF     H711205   3.120   2.062   1.847 -1.5345 -0.7505  0.6703
  547THF     C811206   3.177   2.198   1.676 -0.3502  0.8799 -0.6566
  547THF     C911207   3.115   2.174   1.542 -0.0663  0.4129 -0.6387
  547THF    H1011208   3.277   2.156   1.691  0.0057  1.7343 -0.6076
  547THF    H1111209   3.188   2.304   1.699 -0.9865  0.4983  1.6514
  547THF    H1211210   3.104   2.258   1.474  0.9279  1.1874  0.1266
  547THF    H1311211   3.170   2.095   1.490  2.3173  1.8884 -0.4825
  548THF     O111212   3.605   4.231   1.923 -0.2095 -0.0946  0.2927
  548THF     C211213   3.494   4.192   2.008  0.2793  0.2675 -0.0295
  548THF     C311214   3.560   4.343   1.860 -0.0353  0.4985 -0.2304
  548THF     H411215   3.496   4.263   2.091  3.2675  2.3006 -1.6254
  548THF     H511216   3.506   4.092   2.049  0.4355 -0.5026 -1.8471
  548THF     H611217   3.546   4.427   1.928 -0.8716 -0.0952  0.3604
  548THF     H711218   3.624   4.367   1.775  1.4082 -2.3132 -0.0720
  548THF     C811219   3.427   4.302   1.814 -0.1726 -0.1670 -0.2023
  548THF     C911220   3.383   4.201   1.907 -0.4602  0.7205  0.4139
  548THF    H1011221   3.432   4.259   1.715 -0.3007  0.0004 -0.2814
  548THF    H1111222   3.354   4.383   1.810 -0.0972  0.1314  2.3101
  548THF    H1211223   3.294   4.226   1.963 -0.7197 -1.9811  1.3678
  548THF    H1311224   3.365   4.103   1.863 -0.6457  0.3933  1.2034
  549THF     O111225   2.351   1.352   3.579 -0.6549  0.1436  0.0139
  549THF     C211226   2.405   1.289   3.458  0.0348  0.1915  0.0859
  549THF     C311227   2.221   1.392   3.547 -0.3186  0.3992  0.5137
  549THF     H411228   2.487   1.224   3.487  0.5209  0.3776 -0.8615
  549THF     H511229   2.445   1.364   3.390  2.5812 -0.1263  1.1372
  549THF     H611230   2.166   1.408   3.639 -0.4057  1.5476  0.2720
  549THF     H711231   2.230   1.480   3.484  3.8391 -0.0529  0.1788
  549THF     C811232   2.160   1.285   3.457  0.2392  0.1748  0.7249
  549THF     C911233   2.289   1.213   3.401  0.0508  0.1120 -0.0823
  549THF    H1011234   2.103   1.329   3.376  0.8757  1.6027  1.0287
  549THF    H1111235   2.099   1.217   3.517  0.1271 -0.3878 -0.0152
  549THF    H1211236   2.292   1.119   3.456  1.5405 -0.0470 -0.3790
  549THF    H1311237   2.291   1.188   3.295  0.7904 -0.4127  0.0454
  550THF     O111238   0.516   2.677   3.867  0.2060 -0.5387  0.5958
  550THF     C211239   0.521   2.569   3.779  0.5045  0.1774 -0.2684
  550THF     C311240   0.376   2.694   3.894  0.4225  0.5369 -0.5073
  550THF     H411241   0.612   2.508   3.782 -0.9673 -2.1057  1.9422
  550THF     H511242   0.520   2.616   3.681  2.6053  1.5186  0.2583
  550THF     H611243   0.361   2.756   3.983 -1.9515  0.1611 -0.5795
  550THF     H711244   0.329   2.738   3.806 -1.3032  0.3266  0.2668
  550THF     C811245   0.327   2.553   3.910 -0.2574  0.8214  0.6266
  550THF     C911246   0.401   2.481   3.799 -1.4595  0.1780  0.4424
  550THF    H1011247   0.221   2.536   3.894  0.1571 -0.3813 -1.1834
  550THF    H1111248   0.336   2.506   4.008 -1.7484 -4.7522 -1.5092
  550THF    H1211249   0.444   2.385   3.827  0.5874  0.7292 -0.6441
  550THF    H1311250   0.350   2.462   3.704  0.7764  1.4989 -1.1019
  551THF     O111251   2.778   3.175   0.089  0.2778  0.2720 -0.0490
  551THF     C211252   2.709   3.162  -0.036 -0.2647 -0.2611  0.2068
  551THF     C311253   2.686   3.159   0.201  0.1721  0.3126  0.5507
  551THF     H411254   2.779   3.106  -0.098 -1.3268  0.0245 -1.3072
  551THF     H511255   2.714   3.263  -0.075 -0.8459 -1.1560 -2.3647
  551THF     H611256   2.703   3.066   0.254 -0.5645  0.7587  1.6106
  551THF     H711257   2.693   3.248   0.264  0.4330 -0.2547  1.3423
  551THF     C811258   2.548   3.149   0.138  0.1053 -0.0842 -0.3341
  551THF     C911259   2.580   3.103  -0.008  0.2984 -0.2264 -0.0298
  551THF    H1011260   2.499   3.246   0.138  2.2292  1.0426  0.7676
  551THF    H1111261   2.476   3.078   0.181  0.5308 -1.5151 -1.8812
  551THF    H1211262   2.595   2.996   0.005 -0.5337 -0.4325 -0.6654
  551THF    H1311263   2.498   3.111  -0.080  0.5638  1.1799 -0.2178
  552THF     O111264   3.623   4.580   2.776  0.2237  0.0043 -0.3102
  552THF     C211265   3.550   4.595   2.895  0.3319 -0.4506  1.0486
  552THF     C311266   3.697   4.456   2.778 -0.1365  0.1885 -0.8935
  552THF     H411267   3.458   4.537   2.881  0.9518 -1.4715  1.0929
  552THF     H511268   3.523   4.699   2.913  0.4240 -0.3427  0.5786
  552THF     H611269   3.655   4.380   2.712 -0.6434  0.6710 -1.1404
  552THF     H711270   3.801   4.469   2.747  0.2644 -0.7243  0.0098
  552THF     C811271   3.702   4.417   2.925  0.1852  0.1160  0.7847
  552THF     C911272   3.636   4.534   2.998  0.4682 -0.4039  0.0335
  552THF    H1011273   3.805   4.413   2.960  0.1806  0.0065  0.7840
  552THF    H1111274   3.655   4.321   2.948  0.8570 -0.3429  0.2674
  552THF    H1211275   3.564   4.498   3.071  0.4051  1.0099  0.6983
  552THF    H1311276   3.712   4.603   3.034 -1.0020  0.5492  1.4377
  553THF     O111277   0.674   0.209   2.850  0.1191  0.3920  0.1311
  553THF     C211278   0.792   0.215   2.780 -0.5016 -0.1780  0.2698
  553THF     C311279   0.571   0.228   2.759  0.3746 -0.0121  0.1155
  553THF     H411280   0.830   0.114   2.766 -3.0350 -1.1918  0.1348
  553THF     H511281   0.861   0.271   2.844  0.7641  0.6681 -1.7350
  553THF     H611282   0.533   0.131   2.727 -0.7307 -0.2750  2.0854
  553THF     H711283   0.501   0.270   2.830  1.3776  0.4641  0.8477
  553THF     C811284   0.624   0.313   2.639 -0.7099 -0.1444 -0.3580
  553THF     C911285   0.770   0.260   2.634 -0.4733 -0.6217  0.0880
  553THF    H1011286   0.620   0.422   2.645  2.4215  0.3300 -3.5294
  553THF    H1111287   0.561   0.291   2.552 -2.8928 -0.9475  1.3209
  553THF    H1211288   0.802   0.181   2.566 -2.2755 -1.6330  0.3503
  553THF    H1311289   0.842   0.341   2.630  2.1888 -2.8320  0.4475
  554THF     O111290   5.045   1.934   1.886 -0.4414 -0.2215 -0.1331
  554THF     C211291   5.154   2.023   1.914 -0.0306 -0.2672  0.0537
  554THF     C311292   5.013   1.863   2.000 -0.8213 -0.1134  0.1715
  554THF     H411293   5.146   2.112   1.852 -0.9475  0.2978  0.9497
  554THF     H511294   5.249   1.974   1.893  1.3357  2.0126  0.5637
  554THF     H611295   4.909   1.832   2.001 -0.8587  0.0148  0.4507
  554THF     H711296   5.090   1.787   2.012  1.6689  2.0668 -0.9182
  554THF     C811297   5.029   1.961   2.116 -0.3010 -0.1963 -0.0562
  554THF     C911298   5.140   2.055   2.059  0.1947 -0.0879  0.0886
  554THF    H1011299   5.044   1.914   2.214 -2.0888  0.0065  0.3492
  554THF    H1111300   4.938   2.020   2.116 -0.0690  0.1835  0.6401
  554THF    H1211301   5.122   2.161   2.079  2.5513  0.1100  1.6062
  554THF    H1311302   5.238   2.024   2.097  0.9627  0.6582 -1.2206
  555THF     O111303   0.650   2.583   2.199 -0.2111 -0.0952 -0.1008
  555THF     C211304   0.623   2.443   2.188 -0.1424  0.3955  0.6532
  555THF     C311305   0.679   2.623   2.063  0.1335 -0.3303 -0.4704
  555THF     H411306   0.565   2.409   2.274 -2.2953 -1.7084 -1.5057
  555THF     H511307   0.717   2.390   2.177 -0.7609 -0.5244 -0.4167
  555THF     H611308   0.668   2.730   2.048  2.2797 -0.0861 -0.6533
  555THF     H711309   0.783   2.600   2.039  0.3692 -1.3178  1.2738
  555THF     C811310   0.582   2.543   1.972 -0.4047  0.1309  0.3079
  555THF     C911311   0.536   2.433   2.060 -0.5948 -0.3046  0.3051
  555THF    H1011312   0.628   2.511   1.878  1.5996  0.0026  1.2800
  555THF    H1111313   0.500   2.609   1.945  0.1023  1.1852  1.2616
  555THF    H1211314   0.428   2.434   2.074 -0.3928 -1.0886  2.3491
  555THF    H1311315   0.562   2.339   2.010  1.7314  0.8929 -0.8818
  556THF     O111316   1.352   5.094   2.984  0.3162 -0.1867  0.2675
  556THF     C211317   1.395   5.002   3.087  0.4067  0.3430  0.7893
  556THF     C311318   1.214   5.118   2.999  0.1071 -1.1858 -0.2960
  556THF     H411319   1.425   5.049   3.181  0.8824  1.1898  0.2234
  556THF     H511320   1.477   4.943   3.046 -1.5661 -0.7075 -1.8828
  556THF     H611321   1.198   5.180   3.087  0.4067  1.5311 -2.0312
  556THF     H711322   1.182   5.178   2.913  0.2687  1.2844  1.2861
  556THF     C811323   1.165   4.979   3.016  0.2741  0.4168  0.1353
  556THF     C911324   1.268   4.910   3.106  0.1733  0.2432 -0.2588
  556THF    H1011325   1.178   4.933   2.918  1.5956  0.4837  0.2575
  556THF    H1111326   1.066   4.966   3.061  0.5686 -3.3950 -0.0304
  556THF    H1211327   1.226   4.906   3.207 -1.7666  2.2808 -0.8891
  556THF    H1311328   1.276   4.806   3.076 -1.3324  0.3935 -1.3113
  557THF     O111329   5.469   0.219   0.681 -0.4769 -0.4222 -0.0685
  557THF     C211330   5.573   0.307   0.648 -0.4937  0.3165 -0.9220
  557THF     C311331   5.518   0.088   0.672 -0.3460  0.2804  0.1729
  557THF     H411332   5.638   0.311   0.735 -0.1371  0.6629 -1.1957
  557THF     H511333   5.540   0.410   0.632 -1.6840  0.1679  0.4095
  557THF     H611334   5.583   0.066   0.757  1.2497 -0.1722 -1.1286
  557THF     H711335   5.437   0.016   0.665 -0.0980  0.0709 -0.6326
  557THF     C811336   5.595   0.097   0.545  0.2127 -0.7183  0.7072
  557THF     C911337   5.636   0.236   0.525  0.1912 -0.5151  0.3545
  557THF    H1011338   5.538   0.057   0.461  0.7235  1.2874 -0.6713
  557THF    H1111339   5.681   0.029   0.544 -0.9447 -2.2245  0.3159
  557THF    H1211340   5.743   0.257   0.515  0.1961 -0.0858  1.2197
  557THF    H1311341   5.588   0.278   0.437  0.9414  0.2077  0.2789
  558THF     O111342   2.701   4.744   3.025  0.8344  0.6754  0.3181
  558THF     C211343   2.609   4.834   2.970  0.7001  0.3731  0.1750
  558THF     C311344   2.637   4.685   3.143  0.2312  0.5407  0.8534
  558THF     H411345   2.637   4.875   2.873 -3.2383  3.0984 -0.0433
  558THF     H511346   2.592   4.921   3.034  2.6359 -0.1728  1.5073
  558THF     H611347   2.680   4.589   3.170  1.8104  1.1648  0.6627
  558THF     H711348   2.637   4.755   3.227 -0.3957  0.9423  0.5282
  558THF     C811349   2.490   4.661   3.091  0.8735  0.1209  0.2876
  558THF     C911350   2.485   4.746   2.963  0.2315 -0.5059 -0.2697
  558THF    H1011351   2.412   4.688   3.162 -2.1577 -0.3851 -2.6355
  558THF    H1111352   2.488   4.556   3.063 -0.0133  0.9951 -3.4714
  558THF    H1211353   2.493   4.694   2.868  0.7440  0.5891 -0.8440
  558THF    H1311354   2.393   4.803   2.977  0.4818 -0.2960  0.6376
  559THF     O111355   3.139   5.240   0.017 -0.1651 -0.1278 -0.0232
  559THF     C211356   3.223   5.347   0.057 -0.4937 -0.3508  0.1149
  559THF     C311357   3.009   5.276   0.053 -0.0587  0.0251 -0.6105
  559THF     H411358   3.294   5.356  -0.025 -1.5437  0.8636 -0.6981
  559THF     H511359   3.285   5.330   0.145  0.2021  0.2013 -0.2606
  559THF     H611360   2.942   5.203   0.007 -2.0629 -0.7707  3.1741
  559THF     H711361   2.980   5.277   0.158 -1.1755 -0.4461 -0.8980
  559THF     C811362   2.997   5.422   0.004  0.4224  0.2938 -0.7735
  559THF     C911363   3.130   5.467   0.060  0.3198 -0.2405  0.2562
  559THF    H1011364   2.906   5.469   0.039 -1.1357 -2.7492 -0.4386
  559THF    H1111365   2.992   5.417  -0.105  0.8998  0.8799 -0.8312
  559THF    H1211366   3.184   5.552   0.016  0.5116 -0.5210 -0.0533
  559THF    H1311367   3.114   5.488   0.165 -1.4600 -1.0027  0.1728
  560THF     O111368   3.663   2.178   1.024 -0.2602  1.0049 -0.2169
  560THF     C211369   3.533   2.123   1.025 -0.4352  0.1108  0.7562
  560THF     C311370   3.675   2.243   1.150 -0.0109  0.0718 -0.2464
  560THF     H411371   3.541   2.043   0.952  2.4430 -1.9665  3.1424
  560THF     H511372   3.457   2.196   0.995  1.8183  2.8404  1.2323
  560THF     H611373   3.783   2.242   1.168  0.0674 -1.6533 -0.6258
  560THF     H711374   3.636   2.345   1.143 -0.3648 -0.1330 -1.7288
  560THF     C811375   3.603   2.158   1.245 -0.0113  0.7071  0.1319
  560THF     C911376   3.503   2.077   1.162  0.1079  0.3567  0.2750
  560THF    H1011377   3.563   2.203   1.335  1.9704  1.1447  0.8438
  560THF    H1111378   3.666   2.083   1.295  0.7429  0.5806 -0.9595
  560THF    H1211379   3.531   1.972   1.173 -0.8284  0.0868  0.1624
  560THF    H1311380   3.404   2.111   1.191 -0.4174 -0.0935 -0.9314
  561THF     O111381   4.912   2.374   0.439 -0.3217  0.3547  0.7105
  561THF     C211382   4.788   2.447   0.433 -0.1934  0.2159  0.2560
  561THF     C311383   4.887   2.233   0.418 -0.3964 -0.1929  0.2479
  561THF     H411384   4.749   2.463   0.333 -3.0495  0.9219  1.3939
  561THF     H511385   4.797   2.536   0.495 -0.1257  0.2107  0.2547
  561THF     H611386   4.897   2.202   0.314 -1.4024  2.8391 -0.8520
  561THF     H711387   4.939   2.163   0.483  1.7333  0.5056 -0.6175
  561THF     C811388   4.735   2.220   0.460 -0.3355 -0.3824  0.1759
  561THF     C911389   4.693   2.359   0.510 -0.7769 -0.4188  0.1103
  561THF    H1011390   4.721   2.134   0.526 -1.5313 -0.3237  0.0211
  561THF    H1111391   4.670   2.207   0.374 -1.0944  2.1651  0.3051
  561THF    H1211392   4.588   2.379   0.486  0.0731  2.1630 -1.8724
  561THF    H1311393   4.709   2.370   0.618  0.7655 -3.2793  0.2677
  562THF     O111394   0.196   0.020   1.560  0.0985  0.5887 -0.5920
  562THF     C211395   0.097   0.026   1.462  0.0618  0.3779 -0.0617
  562THF     C311396   0.152   0.108   1.664 -0.1643 -0.3671  0.7715
  562THF     H411397   0.000  -0.023   1.476  1.4413 -2.3359  0.7387
  562THF     H511398   0.132  -0.012   1.366 -0.7847 -0.5892 -0.0030
  562THF     H611399   0.090   0.052   1.734 -2.5446  0.7076 -0.3843
  562THF     H711400   0.245   0.134   1.715  0.0033 -0.6002  0.5844
  562THF     C811401   0.068   0.220   1.599  0.1874 -0.2074  0.0351
  562THF     C911402   0.081   0.180   1.452  0.1365  0.1999  0.7010
  562THF    H1011403   0.099   0.321   1.624 -0.5830  0.6362 -2.1101
  562THF    H1111404  -0.032   0.209   1.641  0.5281 -1.4689  0.5459
  562THF    H1211405  -0.012   0.196   1.397 -0.3554  0.2231  1.5327
  562THF    H1311406   0.164   0.238   1.410  0.9992 -2.4860 -1.6968
  563THF     O111407   1.950   4.396   4.561  0.2673 -0.4221  0.4618
  563THF     C211408   1.952   4.356   4.420 -0.5614  0.4044 -0.3795
  563THF     C311409   1.855   4.492   4.589  0.5698  0.1352  0.3159
  563THF     H411410   1.875   4.282   4.400 -1.1482  1.2112 -1.1714
  563THF     H511411   2.051   4.334   4.379 -1.4060  2.5502 -3.9896
  563THF     H611412   1.768   4.443   4.632  0.2190  2.1670  2.0521
  563THF     H711413   1.898   4.561   4.661  0.4224 -1.4127  1.9510
  563THF     C811414   1.829   4.558   4.457  0.0698 -0.2944  0.3166
  563THF     C911415   1.928   4.492   4.357  1.0467 -0.0769 -0.7124
  563THF    H1011416   1.834   4.667   4.460 -0.7311 -0.2216 -0.6668
  563THF    H1111417   1.728   4.534   4.425 -1.1912  2.4843  1.8190
  563THF    H1211418   1.876   4.480   4.262 -0.2989  0.0102 -0.0180
  563THF    H1311419   2.022   4.546   4.359  0.8473  0.2639 -0.2836
  564THF     O111420   2.919   2.783   1.995  0.3409 -0.6021  0.4525
  564THF     C211421   2.863   2.678   2.073 -0.0358  0.0228  0.8614
  564THF     C311422   3.048   2.817   2.040  0.4757 -0.3389  0.5560
  564THF     H411423   2.855   2.579   2.028 -1.3457  0.2328  0.6044
  564THF     H511424   2.763   2.711   2.099  0.1020  1.4851 -0.3305
  564THF     H611425   3.123   2.758   1.986  0.5346  1.5006 -1.5221
  564THF     H711426   3.080   2.917   2.012 -0.6637 -0.4342 -1.2049
  564THF     C811427   3.045   2.788   2.186 -0.1901 -0.1089 -0.6252
  564THF     C911428   2.961   2.660   2.194 -0.4397 -0.7341  0.5787
  564THF    H1011429   3.000   2.875   2.233 -1.4749 -0.3101 -1.4137
  564THF    H1111430   3.145   2.785   2.229 -0.0596 -1.2743 -0.9692
  564THF    H1211431   3.020   2.569   2.186 -1.2218 -1.1410 -1.1290
  564THF    H1311432   2.909   2.653   2.289 -1.1511 -1.8687  0.1280
  565THF     O111433   0.252   2.612   4.702 -0.0333  0.1605 -0.3001
  565THF     C211434   0.201   2.490   4.661 -0.2302  0.0505 -0.0468
  565THF     C311435   0.271   2.608   4.835 -0.1686  0.4112 -0.2612
  565THF     H411436   0.280   2.418   4.644 -0.5857 -0.5393  0.7438
  565THF     H511437   0.134   2.505   4.576  0.4156  0.4945 -0.4891
  565THF     H611438   0.360   2.549   4.854  0.3421  0.6924 -1.7257
  565THF     H711439   0.289   2.703   4.885 -0.5937 -0.3969  1.5251
  565THF     C811440   0.166   2.514   4.893  0.4587 -0.4476 -0.4364
  565THF     C911441   0.109   2.450   4.775 -0.1253 -0.0463  0.5982
  565THF    H1011442   0.083   2.561   4.946  0.5355 -0.1830 -0.5500
  565THF    H1111443   0.197   2.423   4.944 -2.6092 -1.6094 -0.4514
  565THF    H1211444   0.092   2.342   4.780  0.4692 -0.1292  0.8633
  565THF    H1311445   0.018   2.501   4.743 -1.9072 -3.3018  0.0068
  566THF     O111446   1.214   3.359   1.009 -0.0004 -0.0470 -0.2596
  566THF     C211447   1.172   3.461   1.101  0.2804  0.2160 -0.0568
  566THF     C311448   1.274   3.426   0.897  0.0495 -0.1471 -0.3191
  566THF     H411449   1.251   3.496   1.168  0.2611 -0.8243  0.5340
  566THF     H511450   1.093   3.417   1.162 -0.5578  2.5058  0.6420
  566THF     H611451   1.381   3.432   0.919  0.2886 -2.8410 -0.4336
  566THF     H711452   1.273   3.356   0.813 -0.1981 -1.0991  0.4551
  566THF     C811453   1.195   3.554   0.870  0.0001  0.0714 -0.3902
  566THF     C911454   1.115   3.571   1.004 -0.3210 -0.0300 -0.2501
  566THF    H1011455   1.134   3.561   0.781  0.7967  1.8974 -0.8241
  566THF    H1111456   1.262   3.640   0.871 -0.3917  0.3827 -0.7241
  566THF    H1211457   1.096   3.677   1.023 -1.3767 -0.4947  1.5116
  566THF    H1311458   1.020   3.531   0.969  0.9006 -0.9322 -2.7363
  567THF     O111459   4.024   0.754   4.192  0.0605  0.5618  0.1981
  567THF     C211460   3.914   0.709   4.112 -0.3002  0.7622 -0.6503
  567THF     C311461   4.068   0.876   4.123  0.5736  0.7177  0.1952
  567THF     H411462   3.849   0.650   4.177  0.0239  1.2399  0.1201
  567THF     H511463   3.937   0.659   4.018  1.0428 -0.7036  0.3948
  567THF     H611464   4.126   0.945   4.185  1.1015  2.1693 -1.8051
  567THF     H711465   4.137   0.845   4.045  0.7226 -0.6897  0.8389
  567THF     C811466   3.946   0.933   4.045 -0.0869 -0.3756  0.1017
  567THF     C911467   3.831   0.834   4.078 -0.4959 -0.7583 -0.1898
  567THF    H1011468   3.969   0.925   3.939 -1.8739 -3.6217 -0.1787
  567THF    H1111469   3.912   1.033   4.071 -2.4252 -1.0692 -0.0578
  567THF    H1211470   3.780   0.867   4.168 -2.4032 -1.2049 -1.0507
  567THF    H1311471   3.758   0.828   3.996 -1.2535  1.1507  0.2843
  568THF     O111472   4.302   2.846   1.478  0.6503 -0.3162  0.3610
  568THF     C211473   4.254   2.975   1.466 -0.4090  0.3207  0.0773
  568THF     C311474   4.228   2.787   1.575 -0.0811 -0.1336 -0.5967
  568THF     H411475   4.291   3.030   1.380 -0.5774  1.6589  0.8168
  568THF     H511476   4.291   3.019   1.559  0.9917 -0.2817 -0.1841
  568THF     H611477   4.228   2.681   1.550  2.7023 -0.0176 -1.4455
  568THF     H711478   4.263   2.799   1.677 -1.8982  2.3243 -0.1560
  568THF     C811479   4.086   2.842   1.564 -0.2280 -0.7342 -0.6443
  568THF     C911480   4.100   2.961   1.464 -0.6791  0.3109 -0.4354
  568THF    H1011481   4.059   2.888   1.659  0.6813  0.5438 -0.9777
  568THF    H1111482   4.028   2.758   1.527 -0.3019 -0.3588 -1.4024
  568THF    H1211483   4.072   2.932   1.363 -0.9728  0.0012 -0.2688
  568THF    H1311484   4.058   3.056   1.499 -1.1890  0.6486 -1.9108
  569THF     O111485   5.354   0.034   1.188 -0.4531 -0.7736  0.5245
  569THF     C211486   5.218   0.012   1.181 -0.3367 -0.0124  0.3198
  569THF     C311487   5.392   0.081   1.060  0.1706 -0.2098  0.5674
  569THF     H411488   5.184   0.115   1.193 -1.5307 -0.1224 -1.6298
  569THF     H511489   5.184  -0.056   1.258 -0.8072 -1.8360 -1.4133
  569THF     H611490   5.379   0.189   1.060  0.0699 -0.1830  2.5173
  569THF     H711491   5.497   0.056   1.044  1.1670 -0.1218  5.5398
  569THF     C811492   5.312   0.003   0.959 -0.7687 -0.1521 -0.2637
  569THF     C911493   5.196  -0.049   1.042  0.2841  0.4413  0.0124
  569THF    H1011494   5.368  -0.081   0.917  1.2029  0.5119  0.8705
  569THF    H1111495   5.277   0.062   0.875  1.2126  0.3115 -0.8239
  569THF    H1211496   5.103  -0.009   1.002  1.7611  1.8037 -2.3054
  569THF    H1311497   5.201  -0.158   1.036 -2.4440  0.2649 -0.4873
  570THF     O111498   4.931   1.353   2.955  0.0960  0.0218 -0.1662
  570THF     C211499   4.961   1.331   3.093 -0.3861  0.3886  0.6774
  570THF     C311500   5.025   1.448   2.903  0.3424 -0.2769 -0.9929
  570THF     H411501   4.931   1.228   3.115 -5.0080  2.0175  3.2365
  570THF     H511502   4.899   1.381   3.167  0.1017 -0.4305  1.6706
  570THF     H611503   5.026   1.438   2.794  2.2704 -0.7412 -0.9592
  570THF     H711504   5.021   1.551   2.940 -0.1565 -0.0209 -1.7360
  570THF     C811505   5.148   1.391   2.964  0.0027  0.0642  0.5817
  570THF     C911506   5.108   1.350   3.104 -0.2752  0.2618 -0.4803
  570THF    H1011507   5.225   1.467   2.978  0.7997 -1.1486  3.5286
  570THF    H1111508   5.188   1.309   2.905  0.5384  1.4998 -1.1434
  570THF    H1211509   5.159   1.258   3.135 -0.3272  0.6511  0.8285
  570THF    H1311510   5.117   1.427   3.181 -0.5770 -0.0382 -0.1363
  571THF     O111511   3.908   3.682   3.352  0.1013  0.2110 -0.0458
  571THF     C211512   3.805   3.780   3.375 -0.2382 -0.3363  1.0816
  571THF     C311513   4.017   3.705   3.443 -0.1332 -0.2536 -0.3719
  571THF     H411514   3.733   3.725   3.436 -1.1653 -0.5422 -0.1779
  571THF     H511515   3.747   3.815   3.290 -2.2979 -3.4843  1.0197
  571THF     H611516   4.035   3.610   3.493  1.0443  0.0157 -0.2443
  571THF     H711517   4.107   3.733   3.388  0.1511 -2.3516 -1.0515
  571THF     C811518   3.979   3.812   3.543  0.8133 -0.1107  0.2691
  571THF     C911519   3.865   3.887   3.463  0.3910  0.4076  0.5419
  571THF    H1011520   4.062   3.877   3.570  1.1370 -0.1297 -0.6615
  571THF    H1111521   3.942   3.774   3.638  1.8266 -1.3418  0.1945
  571THF    H1211522   3.789   3.929   3.529 -1.4369 -1.4207 -0.2655
  571THF    H1311523   3.908   3.964   3.400 -1.1952 -0.9981 -2.4826
  572THF     O111524   1.273   2.608   1.807 -0.2399 -0.2615  0.1922
  572THF     C211525   1.321   2.504   1.893 -0.5833  0.1270 -1.0879
  572THF     C311526   1.152   2.662   1.862  0.0482 -0.0128  0.0892
  572THF     H411527   1.352   2.541   1.991 -2.3893  0.7825 -0.7335
  572THF     H511528   1.394   2.430   1.860  0.2354 -1.4142  3.4270
  572THF     H611529   1.168   2.746   1.929 -2.4915  0.5941  0.0317
  572THF     H711530   1.093   2.707   1.782  0.0582  2.0094  1.1506
  572THF     C811531   1.081   2.544   1.928 -0.8347 -0.9930 -0.8426
  572THF     C911532   1.188   2.436   1.926  0.0555  0.0029  0.1523
  572THF    H1011533   0.991   2.517   1.873 -1.4196 -1.7629  0.4637
  572THF    H1111534   1.057   2.570   2.031 -1.3641  1.1014 -1.4390
  572THF    H1211535   1.207   2.380   2.018  4.4382  3.6932  1.8646
  572THF    H1311536   1.181   2.368   1.841  0.6785  0.4842 -0.2865
  573THF     O111537   4.396   3.569   5.230  0.3752 -0.1864 -0.0651
  573THF     C211538   4.521   3.618   5.278  0.9807  0.1392 -0.3983
  573THF     C311539   4.294   3.591   5.330 -0.9191  0.1464  0.5412
  573THF     H411540   4.534   3.720   5.240  2.9520 -0.1577 -0.6281
  573THF     H511541   4.591   3.550   5.229  1.6288  1.4190 -1.3206
  573THF     H611542   4.221   3.657   5.282 -0.1669  0.7299  0.1847
  573THF     H711543   4.231   3.503   5.345 -0.9592  0.1597  0.4556
  573THF     C811544   4.358   3.649   5.457 -0.4792 -0.0831  0.2293
  573THF     C911545   4.508   3.625   5.427  0.1700  0.1854 -0.1334
  573THF    H1011546   4.331   3.600   5.551  2.2418  1.4203  1.9500
  573THF    H1111547   4.348   3.757   5.462  4.4337  0.7068 -1.5062
  573THF    H1211548   4.577   3.698   5.469 -1.2224  0.1288  2.4186
  573THF    H1311549   4.534   3.528   5.468  1.1877  0.6765  0.4239
  574THF     O111550   1.153   5.072   4.530 -0.2318  0.7029  0.1950
  574THF     C211551   1.109   4.986   4.426  0.6440 -0.0502 -0.3600
  574THF     C311552   1.132   4.998   4.651  0.3704  0.0541 -0.7822
  574THF     H411553   1.179   4.910   4.391 -1.0631 -1.6375 -0.4740
  574THF     H511554   1.090   5.043   4.335  0.0959 -0.6323 -0.6187
  574THF     H611555   1.208   4.921   4.642 -0.1338 -0.3332 -1.9384
  574THF     H711556   1.146   5.054   4.743 -0.1953 -0.2701 -0.4974
  574THF     C811557   0.998   4.929   4.631 -0.5970 -0.2789  0.7134
  574THF     C911558   0.974   4.943   4.479 -0.0225  0.3240 -0.1367
  574THF    H1011559   0.915   4.973   4.686 -1.0123 -0.8897  0.5949
  574THF    H1111560   1.015   4.826   4.664  2.0132 -1.6166 -3.8462
  574THF    H1211561   0.949   4.850   4.429  2.3766 -1.1958  1.2695
  574THF    H1311562   0.890   5.011   4.463 -0.7747 -0.1540  1.5455
  575THF     O111563   0.700   2.014   0.401  0.4323 -0.1585 -0.1374
  575THF     C211564   0.598   1.992   0.304  0.2119  0.4592  0.0026
  575THF     C311565   0.827   1.997   0.340 -0.3860 -0.7315  0.4984
  575THF     H411566   0.520   2.061   0.339 -1.1642  0.0381 -2.0592
  575THF     H511567   0.570   1.887   0.314 -0.7283  0.7545  0.6332
  575THF     H611568   0.900   2.045   0.405 -1.5694 -0.5036  1.6867
  575THF     H711569   0.848   1.894   0.312 -0.7657  0.1043 -3.4220
  575THF     C811570   0.798   2.065   0.204 -0.0369 -0.6322  0.3621
  575THF     C911571   0.650   2.036   0.169 -0.9586 -0.1513 -0.5311
  575THF    H1011572   0.862   2.022   0.127 -0.1503 -3.0974  1.5614
  575THF    H1111573   0.805   2.174   0.208 -0.0244 -0.5606 -1.2325
  575THF    H1211574   0.611   2.130   0.130  0.8352  2.2217  2.8659
  575THF    H1311575   0.640   1.951   0.102  0.1131 -2.2544  1.8171
  576THF     O111576   4.989   4.595   2.715 -0.4840  0.8439  0.0120
  576THF     C211577   4.994   4.459   2.773  0.0246  0.5460  0.5937
  576THF     C311578   5.115   4.617   2.640 -0.6150 -0.6714 -1.0819
  576THF     H411579   4.898   4.424   2.808  1.8448 -2.4754  3.0653
  576THF     H511580   5.054   4.464   2.864 -0.4839  2.3164  0.8535
  576THF     H611581   5.106   4.686   2.556  1.6855  2.2495  0.8494
  576THF     H711582   5.185   4.663   2.710 -0.8079 -1.9690 -0.0077
  576THF     C811583   5.156   4.471   2.597 -0.2598 -0.8362 -0.6914
  576THF     C911584   5.061   4.373   2.666 -0.1025  0.2825  0.2282
  576THF    H1011585   5.254   4.455   2.641 -0.7963 -1.9423  0.1411
  576THF    H1111586   5.161   4.472   2.488  0.9096 -0.5838 -0.6475
  576THF    H1211587   4.989   4.359   2.585  0.5299  1.5845 -0.5818
  576THF    H1311588   5.096   4.274   2.697 -2.3647 -1.2177 -1.6039
  577THF     O111589   1.762   3.093   0.356 -0.1015  0.0165  0.6546
  577THF     C211590   1.788   3.146   0.481 -0.5337 -0.6430 -0.1207
  577THF     C311591   1.881   3.093   0.275 -0.2871  0.2890  0.0214
  577THF     H411592   1.712   3.129   0.558 -1.8307  2.1398 -0.6694
  577THF     H511593   1.810   3.252   0.485  1.3677 -1.0329  2.1243
  577THF     H611594   1.882   3.037   0.182  1.6430  1.7299 -0.9199
  577THF     H711595   1.878   3.196   0.239 -2.0174 -0.0022 -0.7639
  577THF     C811596   1.990   3.063   0.377 -0.3346 -0.2377 -0.3774
  577THF     C911597   1.916   3.069   0.511 -0.7698 -0.6459 -0.4765
  577THF    H1011598   2.066   3.141   0.363 -2.0699  1.4309 -0.8822
  577THF    H1111599   2.029   2.962   0.368 -1.5080 -0.8073  0.6248
  577THF    H1211600   1.886   2.966   0.532  0.8479 -0.7718  1.5160
  577THF    H1311601   1.976   3.108   0.594 -2.4802  0.3650  0.3395
  578THF     O111602   1.733   4.908   3.248  0.1294 -0.4765  0.5069
  578THF     C211603   1.760   5.044   3.241 -0.0126 -0.6639  0.2251
  578THF     C311604   1.818   4.845   3.149  0.0942 -0.3025  0.0615
  578THF     H411605   1.733   5.107   3.326 -1.4709 -0.1374 -0.6076
  578THF     H511606   1.715   5.088   3.152 -0.0155 -0.6865  0.2155
  578THF     H611607   1.822   4.742   3.182  0.6035 -1.0005 -2.0178
  578THF     H711608   1.778   4.856   3.048  0.7240  0.8666 -0.0896
  578THF     C811609   1.951   4.920   3.162 -0.2496  0.1129 -0.2602
  578THF     C911610   1.914   5.054   3.229  0.0842  0.1387  0.1598
  578THF    H1011611   2.011   4.942   3.074  0.1853  0.7163  0.1862
  578THF    H1111612   2.013   4.866   3.233  0.2071  2.0820  0.9197
  578THF    H1211613   1.961   5.051   3.327  3.1506 -0.5895 -1.2140
  578THF    H1311614   1.934   5.145   3.172 -1.8544  0.9236  0.6191
  579THF     O111615   1.179   4.319   0.047  0.0346 -0.0221  0.3400
  579THF     C211616   1.107   4.427  -0.009  0.4506 -0.3527  0.6621
  579THF     C311617   1.185   4.219  -0.051  0.2277  1.0572  0.2910
  579THF     H411618   1.126   4.524   0.038  0.1921 -0.6058  1.3047
  579THF     H511619   1.001   4.401  -0.006  0.3056 -0.1713 -1.3985
  579THF     H611620   1.274   4.161  -0.029  0.2679  0.3582 -1.5485
  579THF     H711621   1.108   4.141  -0.047  2.6943 -1.4763  2.2907
  579THF     C811622   1.179   4.287  -0.187  0.6024 -0.3039 -0.0781
  579THF     C911623   1.155   4.433  -0.156  0.1970  0.0116  0.4378
  579THF    H1011624   1.097   4.240  -0.241 -1.7760  0.5354  2.5438
  579THF    H1111625   1.272   4.271  -0.241  0.6304  0.3682 -0.2352
  579THF    H1211626   1.252   4.482  -0.164  0.5031 -0.3363  1.7563
  579THF    H1311627   1.078   4.481  -0.218 -0.8537 -2.6681 -0.4562
  580THF     O111628   4.609   2.823   4.802 -0.5028 -0.1281  0.0013
  580THF     C211629   4.613   2.962   4.788 -0.3084 -0.5721  0.0358
  580THF     C311630   4.643   2.795   4.940 -0.2552  0.0604  0.6035
  580THF     H411631   4.550   3.003   4.708  2.6986  1.5058 -1.4337
  580THF     H511632   4.713   2.994   4.760 -0.8892  0.5476 -0.8775
  580THF     H611633   4.619   2.691   4.963  1.3064 -0.9192 -1.8267
  580THF     H711634   4.750   2.809   4.955 -0.3144  0.6769  0.4572
  580THF     C811635   4.563   2.891   5.026 -0.2742 -0.5778  0.8094
  580THF     C911636   4.567   3.006   4.927  0.0888  0.5240  0.0345
  580THF    H1011637   4.611   2.905   5.123  1.8692 -0.7469 -0.1688
  580THF    H1111638   4.456   2.870   5.024 -0.5515  0.7544 -1.3927
  580THF    H1211639   4.480   3.072   4.928 -0.7528 -0.5332  1.6552
  580THF    H1311640   4.654   3.064   4.957  0.4101 -0.0131  0.1524
  581THF     O111641   1.066   0.023   2.471  0.2492 -0.0660  0.7735
  581THF     C211642   1.191   0.076   2.481  0.3798 -0.9399  0.0350
  581THF     C311643   1.044  -0.064   2.581  0.1966 -0.4015 -0.3401
  581THF     H411644   1.195   0.185   2.467 -0.2578 -0.6176  2.0773
  581THF     H511645   1.252   0.031   2.402 -0.3116 -0.5134 -0.7587
  581THF     H611646   0.946  -0.070   2.628 -0.1504  1.8165 -0.6882
  581THF     H711647   1.062  -0.167   2.550 -0.5545  0.0978 -2.5417
  581THF     C811648   1.131  -0.010   2.690  0.2923 -0.3997 -0.2188
  581THF     C911649   1.251   0.039   2.614  0.2437 -0.4292  0.2826
  581THF    H1011650   1.161  -0.077   2.771  3.0298  1.9121  0.8584
  581THF    H1111651   1.079   0.081   2.722  0.7205  0.7285 -2.5582
  581THF    H1211652   1.294   0.127   2.663 -0.9647 -0.2164  1.0026
  581THF    H1311653   1.332  -0.033   2.605  0.2408 -0.6846  1.9636
  582THF     O111654   1.535   4.818   2.686 -0.9232  0.7461  0.2024
  582THF     C211655   1.420   4.764   2.744  0.1623  0.3658 -0.2049
  582THF     C311656   1.633   4.833   2.798  0.3995  0.0257  0.9693
  582THF     H411657   1.360   4.714   2.668 -0.9682  0.9648  0.2767
  582THF     H511658   1.360   4.836   2.799  0.2406  0.0632  0.2837
  582THF     H611659   1.735   4.811   2.766  0.9981  0.7615  2.2827
  582THF     H711660   1.623   4.926   2.855  0.7052 -0.4604  1.8455
  582THF     C811661   1.594   4.715   2.888  0.4491 -0.2777 -0.0461
  582THF     C911662   1.464   4.652   2.836 -0.0191 -0.0677 -0.2521
  582THF    H1011663   1.560   4.748   2.987 -2.8227  2.9719 -2.0160
  582THF    H1111664   1.671   4.639   2.903 -1.4829 -2.3496 -0.1351
  582THF    H1211665   1.494   4.567   2.775  1.3597  0.1807  0.0311
  582THF    H1311666   1.385   4.624   2.906 -0.9524 -1.1049 -1.6696
  583THF     O111667   5.059   3.744   4.013  0.2662 -0.1885  0.4465
  583THF     C211668   5.142   3.656   4.079 -0.0498  0.3847 -0.0137
  583THF     C311669   5.052   3.861   4.082 -0.4427  0.0359  0.2592
  583THF     H411670   5.247   3.680   4.061 -0.7432  3.4885 -0.4754
  583THF     H511671   5.123   3.555   4.044 -0.0925 -0.4533  2.2667
  583THF     H611672   5.148   3.913   4.075  0.0042 -0.8913 -0.6850
  583THF     H711673   4.981   3.929   4.035  1.4404  1.9658  0.0282
  583THF     C811674   5.025   3.814   4.222 -0.6970  0.0709 -0.0098
  583THF     C911675   5.083   3.674   4.222  0.0479  0.4501 -0.4370
  583THF    H1011676   4.920   3.801   4.248 -0.1277 -0.5876  2.1157
  583THF    H1111677   5.070   3.883   4.293  0.7704 -0.3975 -0.4557
  583THF    H1211678   5.149   3.639   4.301  2.6516 -1.8083 -3.3905
  583THF    H1311679   5.006   3.598   4.236 -0.0743  0.6797  0.1705
  584THF     O111680   1.209   2.844   2.439  0.0972  0.2475  0.4567
  584THF     C211681   1.161   2.833   2.572 -0.3355  0.6327 -0.6874
  584THF     C311682   1.097   2.837   2.352  0.2969 -0.4180  0.5723
  584THF     H411683   1.134   2.931   2.612 -1.1850 -0.0395  0.4220
  584THF     H511684   1.231   2.788   2.642 -1.3547 -0.4542 -0.3417
  584THF     H611685   1.049   2.934   2.344  0.6809 -0.0201  2.4883
  584THF     H711686   1.125   2.804   2.252 -0.4324  0.5361  0.0365
  584THF     C811687   1.016   2.727   2.418 -0.1076 -0.1805  0.2079
  584THF     C911688   1.029   2.755   2.562 -0.1202  0.3735 -0.8060
  584THF    H1011689   1.060   2.631   2.391 -1.1161 -0.9854  1.3537
  584THF    H1111690   0.918   2.741   2.372 -0.4157 -1.2212  0.5186
  584THF    H1211691   0.958   2.833   2.587 -0.2618  0.5169 -1.6341
  584THF    H1311692   1.028   2.661   2.617 -1.8794  0.7466 -0.1504
  585THF     O111693   1.080   0.783   3.280  0.0882  0.6697  0.0917
  585THF     C211694   0.968   0.825   3.204  0.3780 -0.2010 -0.4091
  585THF     C311695   1.140   0.674   3.203  0.4164  0.2405 -0.1332
  585THF     H411696   1.000   0.886   3.119  0.2604  0.1878 -0.1767
  585THF     H511697   0.906   0.882   3.274  0.8732 -0.8158  0.5519
  585THF     H611698   1.190   0.715   3.115 -0.6570 -1.5116 -1.6165
  585THF     H711699   1.215   0.618   3.259  1.3349  1.2690 -0.2882
  585THF     C811700   1.024   0.596   3.154  0.2348 -0.4212 -0.3116
  585THF     C911701   0.904   0.691   3.161  0.0090  0.0113 -0.0110
  585THF    H1011702   1.002   0.501   3.201 -1.7495 -1.5819 -3.2562
  585THF    H1111703   1.037   0.568   3.049 -0.3847 -1.1702 -0.1974
  585THF    H1211704   0.854   0.705   3.065  1.2147  2.4119 -0.3631
  585THF    H1311705   0.827   0.669   3.236 -0.8300  0.5612 -0.6963
  586THF     O111706   5.450   3.422   4.688  0.4084  0.2482 -0.1076
  586THF     C211707   5.533   3.491   4.778 -0.1509  0.3748 -0.2851
  586THF     C311708   5.352   3.348   4.754  0.0228  0.5504 -0.1323
  586THF     H411709   5.485   3.581   4.817 -0.1636  0.5517 -0.7098
  586THF     H511710   5.629   3.505   4.729 -0.7359 -0.7068 -1.8163
  586THF     H611711   5.248   3.380   4.752  0.1236  0.9145  0.3870
  586THF     H711712   5.370   3.248   4.713  0.5022  0.7174 -0.3406
  586THF     C811713   5.389   3.350   4.904  0.0242 -0.4451  0.7344
  586THF     C911714   5.542   3.398   4.898  0.3395  0.1937 -0.2827
  586THF    H1011715   5.395   3.248   4.941  2.6544 -1.2989 -1.7386
  586THF    H1111716   5.328   3.423   4.958  1.4868  1.8554 -0.5374
  586THF    H1211717   5.583   3.451   4.985  1.3903  0.7556 -1.0923
  586THF    H1311718   5.601   3.309   4.881 -1.4757 -1.1467  0.1801
  587THF     O111719   2.892   1.584   3.145  0.7092 -0.3083 -0.4061
  587THF     C211720   2.864   1.650   3.021 -0.3440 -0.3855 -0.4126
  587THF     C311721   2.909   1.673   3.253  0.7143  1.0494  0.0406
  587THF     H411722   2.758   1.631   3.005 -1.0122 -3.0149  4.9265
  587THF     H511723   2.931   1.613   2.944 -0.4448  0.3145 -0.8432
  587THF     H611724   2.807   1.693   3.286  0.8419  3.0192 -0.6243
  587THF     H711725   2.964   1.612   3.325 -1.3439 -1.3831 -0.3181
  587THF     C811726   2.977   1.789   3.189  0.3263  0.4505  0.0994
  587THF     C911727   2.908   1.796   3.052  0.1552  0.7571  0.0227
  587THF    H1011728   3.084   1.785   3.166  0.0118  0.5316 -1.4929
  587THF    H1111729   2.961   1.882   3.243 -1.8203  0.0058  0.3129
  587THF    H1211730   2.815   1.853   3.060  0.7238  1.7571 -0.2770
  587THF    H1311731   2.965   1.846   2.973  1.6194 -0.8382  0.0164
  588THF     O111732   4.550   2.462   0.942 -0.1302 -0.1606 -0.1424
  588THF     C211733   4.507   2.583   1.005 -0.0974  0.1141 -0.1811
  588THF     C311734   4.683   2.489   0.887 -0.0856  0.1865  0.3925
  588THF     H411735   4.490   2.556   1.109 -0.1868  1.5443  0.1858
  588THF     H511736   4.413   2.615   0.960  1.2278  1.4826 -2.1475
  588THF     H611737   4.727   2.390   0.903 -0.3562  0.3259  2.2512
  588THF     H711738   4.675   2.508   0.780 -1.1764 -1.0610  0.2351
  588THF     C811739   4.745   2.604   0.967  0.1941  0.7808  0.4220
  588THF     C911740   4.622   2.689   0.990 -0.4136  0.1701  0.3771
  588THF    H1011741   4.820   2.654   0.905 -0.6455  0.2801 -1.0267
  588THF    H1111742   4.780   2.555   1.058 -1.7190 -0.8044  0.3574
  588THF    H1211743   4.630   2.762   1.071 -0.5348 -1.1521  1.6105
  588THF    H1311744   4.615   2.752   0.901 -1.4752 -0.0044  0.3346
  589THF     O111745   3.710   1.520   3.477 -0.3711  0.0392  0.3561
  589THF     C211746   3.742   1.451   3.354  0.1062  0.2151  0.0326
  589THF     C311747   3.570   1.550   3.475 -0.1161 -0.1463 -0.1315
  589THF     H411748   3.712   1.348   3.374 -0.1188  0.2176 -0.2975
  589THF     H511749   3.849   1.460   3.335  0.3760 -1.4957  0.5530
  589THF     H611750   3.502   1.466   3.481 -1.0403  0.6055  0.1477
  589THF     H711751   3.542   1.634   3.539  1.7455  0.8392 -0.5343
  589THF     C811752   3.557   1.605   3.326  0.1348  0.6146 -0.4186
  589THF     C911753   3.657   1.521   3.249  0.3383 -0.1351  0.2296
  589THF    H1011754   3.594   1.707   3.319  1.2896  0.3398  1.1884
  589THF    H1111755   3.454   1.609   3.290  0.2191  1.6378 -0.5579
  589THF    H1211756   3.610   1.447   3.184 -0.2207  0.0974  0.3640
  589THF    H1311757   3.715   1.585   3.183 -0.3355  0.6388  0.3695
  590THF     O111758   0.308   4.282   4.747  0.5254  0.1629  0.0665
  590THF     C211759   0.310   4.394   4.838 -0.4442  0.0180 -0.8847
  590THF     C311760   0.343   4.158   4.812 -0.6721 -0.1695  0.1411
  590THF     H411761   0.213   4.400   4.887  0.2788 -1.1406  0.7759
  590THF     H511762   0.329   4.490   4.792  3.1466 -0.1211  0.0468
  590THF     H611763   0.264   4.107   4.869 -1.2291 -0.9660 -1.2803
  590THF     H711764   0.372   4.096   4.728 -1.9766  0.9537 -1.1880
  590THF     C811765   0.457   4.210   4.901  0.2002  0.4630  0.4893
  590THF     C911766   0.405   4.353   4.948 -0.9324  0.0381 -0.7012
  590THF    H1011767   0.544   4.223   4.836 -0.2286 -0.7687 -0.3511
  590THF    H1111768   0.470   4.143   4.986  0.7045  1.5957  1.3377
  590THF    H1211769   0.374   4.352   5.052  0.5147 -1.7471 -0.2245
  590THF    H1311770   0.490   4.422   4.938 -0.7140 -0.1320 -0.0912
  591THF     O111771   1.142   3.206   1.454  0.1208  0.5639 -0.5599
  591THF     C211772   1.219   3.184   1.579 -0.6300  0.4782 -0.2935
  591THF     C311773   1.066   3.091   1.428 -0.3432 -0.1783 -0.0034
  591THF     H411774   1.204   3.270   1.643  0.5622  1.4413 -1.2449
  591THF     H511775   1.326   3.196   1.558 -0.3085 -0.6860  0.5658
  591THF     H611776   0.964   3.121   1.453  0.2799  1.1969  0.9801
  591THF     H711777   1.072   3.055   1.325  1.2277 -0.0218  0.0191
  591THF     C811778   1.133   2.981   1.512  0.2557  0.4514  0.4272
  591THF     C911779   1.173   3.054   1.634  0.2955 -0.0565 -0.1953
  591THF    H1011780   1.220   2.943   1.458 -0.1335  1.4762 -0.9944
  591THF    H1111781   1.073   2.896   1.543  0.6469  0.2963  0.7621
  591THF    H1211782   1.090   3.074   1.702  0.7673  0.6375  0.1828
  591THF    H1311783   1.243   3.001   1.698  0.5459 -0.4332 -0.7753
  592THF     O111784   4.958   4.995   2.643 -0.0509 -0.3645  0.3652
  592THF     C211785   4.899   5.116   2.686  0.6491  0.2261 -0.1638
  592THF     C311786   4.887   4.938   2.538  0.2001  0.2405  0.2936
  592THF     H411787   4.968   5.195   2.714  1.7281 -0.7354 -0.0192
  592THF     H511788   4.830   5.087   2.766  0.7543 -2.0197 -0.8185
  592THF     H611789   4.957   4.914   2.458  0.5219  0.7978  0.4027
  592THF     H711790   4.851   4.841   2.572  2.0756 -0.8724 -0.7228
  592THF     C811791   4.776   5.040   2.490  0.3159 -0.0167  0.1703
  592THF     C911792   4.826   5.164   2.558 -0.0309  0.4401  0.7412
  592THF    H1011793   4.679   5.025   2.538  0.1480  1.4522  0.3535
  592THF    H1111794   4.756   5.056   2.384 -0.1341  0.3640  0.3064
  592THF    H1211795   4.898   5.216   2.494  1.7465 -0.9623  1.5026
  592THF    H1311796   4.744   5.228   2.590 -1.5269 -1.3450  0.6869
  593THF     O111797   1.142   1.020   1.375 -0.1028  0.2055 -0.3848
  593THF     C211798   1.177   1.010   1.511 -0.2670 -0.2727 -0.3458
  593THF     C311799   1.224   0.926   1.309 -0.5373 -0.2750  1.0148
  593THF     H411800   1.086   1.043   1.561 -1.2404 -0.9755 -1.6019
  593THF     H511801   1.259   1.075   1.542 -1.2415 -0.0951  2.0549
  593THF     H611802   1.189   0.914   1.207 -0.7279  0.2183  1.0173
  593THF     H711803   1.326   0.964   1.302 -0.5925 -0.4192 -1.4654
  593THF     C811804   1.206   0.798   1.397 -0.0348  0.1844 -0.1992
  593THF     C911805   1.203   0.860   1.538  0.0486  0.4616 -0.1615
  593THF    H1011806   1.284   0.726   1.372 -0.2526  0.1210 -0.7185
  593THF    H1111807   1.111   0.748   1.376  0.3091 -0.4228 -0.3352
  593THF    H1211808   1.129   0.812   1.602  0.9154  0.2121  0.6835
  593THF    H1311809   1.300   0.854   1.587 -1.7674  2.0886  4.1659
  594THF     O111810   5.260   4.987   4.291 -0.3968 -0.4658 -0.0429
  594THF     C211811   5.221   4.920   4.171  0.2845 -0.1723 -0.4025
  594THF     C311812   5.143   5.009   4.369  0.3645 -0.0984  0.2909
  594THF     H411813   5.314   4.888   4.124  0.1266  1.3744 -1.8823
  594THF     H511814   5.163   4.982   4.102  1.7720 -0.4172 -1.9399
  594THF     H611815   5.167   5.011   4.475 -0.5881 -0.5143  0.5238
  594THF     H711816   5.096   5.102   4.336  0.8299  0.0203 -0.0442
  594THF     C811817   5.055   4.889   4.335  0.2667 -0.5199 -0.0593
  594THF     C911818   5.137   4.808   4.235  0.3051  0.4048  0.2622
  594THF    H1011819   4.954   4.914   4.302 -1.4488 -1.0039  4.2320
  594THF    H1111820   5.049   4.834   4.428  0.0824 -1.3910 -0.5744
  594THF    H1211821   5.196   4.739   4.295  0.0552  0.1611  0.2278
  594THF    H1311822   5.073   4.748   4.170  0.7599  0.9970 -0.7552
  595THF     O111823   2.672   1.936   1.416  0.1156  0.1654 -0.7748
  595THF     C211824   2.666   1.894   1.281  0.6426  0.0086 -0.1605
  595THF     C311825   2.642   1.822   1.500 -0.2953  0.1304  0.3212
  595THF     H411826   2.727   1.955   1.214  0.3938 -1.0070 -1.3567
  595THF     H511827   2.566   1.887   1.239  1.2905 -0.6176 -1.7095
  595THF     H611828   2.696   1.825   1.594  0.4307  1.5766 -0.1106
  595THF     H711829   2.536   1.821   1.527 -0.6859 -0.6537 -1.1402
  595THF     C811830   2.679   1.700   1.411 -0.1782 -0.1029 -1.0463
  595THF     C911831   2.735   1.755   1.278  0.7578  0.3031 -0.3083
  595THF    H1011832   2.600   1.626   1.399  0.1157 -0.4856 -0.6732
  595THF    H1111833   2.759   1.647   1.463  0.1713  1.6217  0.2449
  595THF    H1211834   2.842   1.745   1.260  1.0486  1.0619  0.8864
  595THF    H1311835   2.692   1.696   1.197 -2.2772  1.6938  0.1287
  596THF     O111836   4.922   3.709   3.229 -0.2074  0.3704  0.2750
  596THF     C211837   5.041   3.658   3.170  0.1513  0.6473  0.6707
  596THF     C311838   4.803   3.655   3.177 -0.1514 -0.9929  0.3201
  596THF     H411839   5.111   3.630   3.248  1.2437 -1.8907 -1.0693
  596THF     H511840   5.084   3.725   3.096 -1.4845  0.8827 -0.1143
  596THF     H611841   4.724   3.661   3.251 -0.5047  1.5640 -0.1712
  596THF     H711842   4.776   3.716   3.091  0.2021  1.6894  2.0097
  596THF     C811843   4.856   3.513   3.159 -0.1855  0.4047 -0.5386
  596THF     C911844   4.993   3.532   3.096  0.0426 -0.1042 -0.2812
  596THF    H1011845   4.803   3.440   3.098  2.8467 -2.7505  0.2461
  596THF    H1111846   4.869   3.466   3.257  0.4502 -0.4161 -1.0058
  596THF    H1211847   5.052   3.441   3.111 -0.1917  0.0369  1.7163
  596THF    H1311848   4.973   3.551   2.991 -2.7204 -0.6456  0.0662
  597THF     O111849   4.474   1.517   1.334 -0.0293  0.6409 -0.2329
  597THF     C211850   4.579   1.600   1.379 -0.0231  0.4430  0.0339
  597THF     C311851   4.416   1.569   1.215  0.2388  0.0998 -0.6069
  597THF     H411852   4.676   1.571   1.338 -0.4267 -0.5436 -0.2392
  597THF     H511853   4.586   1.589   1.488  0.7915 -0.3954 -0.0880
  597THF     H611854   4.402   1.503   1.129 -3.1489 -2.0712  1.3813
  597THF     H711855   4.315   1.591   1.249  0.7094  0.7841  0.3857
  597THF     C811856   4.489   1.701   1.185  0.2237  0.2568 -0.0179
  597THF     C911857   4.539   1.743   1.316  0.0570  0.0439 -0.3441
  597THF    H1011858   4.419   1.772   1.139  0.6276  1.2457  0.8435
  597THF    H1111859   4.572   1.683   1.117  0.3703 -0.5925  0.3822
  597THF    H1211860   4.631   1.800   1.298  0.7134 -1.0799 -0.6788
  597THF    H1311861   4.464   1.797   1.373 -0.6738 -1.1529 -0.1598
  598THF     O111862   5.341   3.348   4.253  0.7623  0.4321 -0.0230
  598THF     C211863   5.365   3.413   4.375 -0.3770 -0.3996 -0.4290
  598THF     C311864   5.451   3.368   4.168 -0.1054 -0.7194 -0.1356
  598THF     H411865   5.417   3.345   4.441  0.3415  1.1220  0.6331
  598THF     H511866   5.272   3.436   4.428  0.1371  1.9797 -0.4216
  598THF     H611867   5.532   3.313   4.216  1.6660  2.1767  0.4487
  598THF     H711868   5.434   3.340   4.064 -2.5510 -0.9253  0.2662
  598THF     C811869   5.488   3.510   4.181  0.2748  0.0037  0.0451
  598THF     C911870   5.436   3.537   4.325 -0.1434  0.1688 -0.7776
  598THF    H1011871   5.431   3.566   4.108 -1.3120 -1.2913  0.2262
  598THF    H1111872   5.595   3.529   4.171  0.3088  0.2575  0.8414
  598THF    H1211873   5.513   3.562   4.397 -2.3620 -0.3864  1.9440
  598THF    H1311874   5.376   3.628   4.328  0.5400  0.6351 -1.0110
  599THF     O111875   3.245   2.931   3.699  0.0270  0.4696  0.3722
  599THF     C211876   3.339   2.994   3.791 -0.5620  0.1476  0.4193
  599THF     C311877   3.206   2.808   3.766 -0.2413  0.1769  0.2667
  599THF     H411878   3.341   3.103   3.783  0.8982  0.0304 -1.3385
  599THF     H511879   3.443   2.964   3.785 -0.0068  1.5897  1.8288
  599THF     H611880   3.116   2.768   3.719 -0.8448  1.7285  0.0467
  599THF     H711881   3.282   2.741   3.725 -0.1827  1.8650 -2.6154
  599THF     C811882   3.209   2.825   3.910 -0.1247  0.9094 -0.5504
  599THF     C911883   3.277   2.957   3.927  1.0105 -0.1752  0.5053
  599THF    H1011884   3.258   2.739   3.955 -2.8015  0.8371  2.5613
  599THF    H1111885   3.107   2.830   3.950  0.0674  1.5556 -0.1355
  599THF    H1211886   3.196   3.026   3.950  0.4258 -1.3475  2.1475
  599THF    H1311887   3.328   2.946   4.023 -3.1031  0.1685  2.9639
  600THF     O111888   4.938   0.373   2.952 -0.3109 -0.7915 -0.5799
  600THF     C211889   5.063   0.371   3.022  0.4423 -0.2786 -0.4451
  600THF     C311890   4.847   0.287   3.024 -0.2676 -0.0721 -0.1718
  600THF     H411891   5.068   0.439   3.106 -4.1569 -2.1456  1.6553
  600THF     H511892   5.147   0.384   2.953  0.4421  0.4889 -0.3116
  600THF     H611893   4.809   0.334   3.115 -0.1734  1.9598 -1.1278
  600THF     H711894   4.758   0.266   2.964 -1.5505 -1.3413  2.0449
  600THF     C811895   4.938   0.164   3.049 -0.5637  0.7655  0.1099
  600THF     C911896   5.078   0.236   3.074 -0.3926  0.0668 -0.4128
  600THF    H1011897   4.943   0.101   2.960 -0.5346 -0.4332  0.9351
  600THF    H1111898   4.908   0.113   3.140 -0.7139 -0.4953 -0.6190
  600THF    H1211899   5.115   0.250   3.176  1.6557 -1.2680 -0.9055
  600THF    H1311900   5.154   0.177   3.022 -0.6793 -0.0542 -0.6960
  601THF     O111901   1.209   4.497   0.588 -0.0887 -0.0946 -0.0529
  601THF     C211902   1.289   4.487   0.475  0.1655 -0.0144 -0.0520
  601THF     C311903   1.169   4.634   0.602  0.3407  0.0898  0.3223
  601THF     H411904   1.277   4.385   0.438  1.2506  0.0380 -0.5889
  601THF     H511905   1.393   4.514   0.493 -0.3225  1.2644  0.9701
  601THF     H611906   1.067   4.648   0.640  0.1219  1.0791 -0.5965
  601THF     H711907   1.236   4.685   0.671  0.9910 -0.2075 -0.0843
  601THF     C811908   1.175   4.695   0.459  0.9669 -0.4593  0.2976
  601THF     C911909   1.231   4.591   0.371 -0.0451  1.3266  0.6556
  601THF    H1011910   1.232   4.787   0.448  1.9493 -1.2148 -1.3562
  601THF    H1111911   1.075   4.717   0.422  1.5745  1.4987 -0.2711
  601THF    H1211912   1.145   4.547   0.322  0.4434  1.7502 -0.6364
  601THF    H1311913   1.300   4.623   0.292  1.9771  0.1978  1.8588
  602THF     O111914   4.236   2.082   0.348 -0.3986  0.3154 -0.7218
  602THF     C211915   4.154   2.074   0.233 -0.2374  0.1883  0.1401
  602THF     C311916   4.160   2.097   0.467  0.0650  0.2026  0.5501
  602THF     H411917   4.198   2.001   0.165 -1.5927  0.4390 -1.0524
  602THF     H511918   4.157   2.171   0.184 -0.7624  0.5640  0.8335
  602THF     H611919   4.216   2.062   0.553  0.9943 -0.6283 -0.3627
  602THF     H711920   4.142   2.204   0.482  0.1952  0.6287 -1.8396
  602THF     C811921   4.036   2.018   0.436  0.3365  0.2978 -0.4400
  602THF     C911922   4.018   2.034   0.284 -0.5940 -0.0328  0.2755
  602THF    H1011923   3.954   2.071   0.484  2.6630  3.4040  0.4630
  602THF    H1111924   4.043   1.916   0.472  1.2138  0.1471 -0.9937
  602THF    H1211925   3.984   1.946   0.229  0.5674  0.2721 -0.9655
  602THF    H1311926   3.952   2.119   0.271 -0.1136  0.2229 -0.5077
  603THF     O111927   5.158   4.245   4.376  0.9953 -0.3485  0.2507
  603THF     C211928   5.182   4.136   4.463 -0.0895 -0.6327 -0.3487
  603THF     C311929   5.101   4.354   4.449 -0.0986  0.2218  0.2839
  603THF     H411930   5.282   4.141   4.506 -0.3634 -1.7654  0.4632
  603THF     H511931   5.170   4.041   4.411 -2.8066 -0.9611  0.6804
  603THF     H611932   5.187   4.400   4.498  0.3677 -3.4583  3.3838
  603THF     H711933   5.054   4.432   4.389  0.4771 -0.9105 -1.7255
  603THF     C811934   5.018   4.283   4.554  0.0987 -0.2947 -0.0504
  603THF     C911935   5.083   4.150   4.573  0.4740  0.2635 -0.8352
  603THF    H1011936   4.916   4.272   4.518 -0.0865  3.3487 -1.0050
  603THF    H1111937   5.016   4.328   4.653  1.1838  2.0900 -1.0462
  603THF    H1211938   5.133   4.151   4.669  0.7463  2.8618 -0.9254
  603THF    H1311939   5.005   4.075   4.562  0.0722  0.5786 -0.2050
  604THF     O111940   4.585   4.756   0.380 -0.8243  0.2989 -0.0670
  604THF     C211941   4.719   4.714   0.402  0.5435  0.4981  0.2390
  604THF     C311942   4.517   4.771   0.503 -0.8374 -0.1447 -0.0280
  604THF     H411943   4.783   4.761   0.327  0.7302 -1.4162 -0.8607
  604THF     H511944   4.731   4.606   0.400 -2.4418  0.1057 -0.7956
  604THF     H611945   4.469   4.869   0.510 -0.6726 -0.1624  2.1177
  604THF     H711946   4.439   4.696   0.505 -0.3092 -0.6891  1.3844
  604THF     C811947   4.623   4.743   0.612 -0.1818 -0.0627  0.1728
  604THF     C911948   4.752   4.764   0.545  0.0458  1.0420 -1.1704
  604THF    H1011949   4.610   4.639   0.643  3.2900 -0.0564  2.2628
  604THF    H1111950   4.605   4.802   0.702 -1.0873 -2.6899  1.8396
  604THF    H1211951   4.791   4.865   0.542  5.2026 -0.6254 -0.8695
  604THF    H1311952   4.825   4.707   0.603 -2.6887  0.1077  1.6259
  605THF     O111953   2.599   0.185   4.365  0.6123  0.4343 -0.1355
  605THF     C211954   2.482   0.105   4.362  0.8013  1.0773  0.4690
  605THF     C311955   2.694   0.119   4.284  0.3196 -0.0010  0.4688
  605THF     H411956   2.402   0.180   4.357 -0.3737 -0.2001 -1.3888
  605THF     H511957   2.479   0.035   4.445  1.2768  0.2665 -0.1810
  605THF     H611958   2.759   0.189   4.231 -0.3529  0.9610  0.8686
  605THF     H711959   2.753   0.045   4.338  1.6041  1.1945  0.7885
  605THF     C811960   2.615   0.049   4.175 -0.5431  0.3552  0.3626
  605THF     C911961   2.476   0.037   4.228  0.2446  0.1894  0.4922
  605THF    H1011962   2.653  -0.052   4.166  1.3728  1.1388 -0.9365
  605THF    H1111963   2.609   0.108   4.083 -2.0631 -1.9755 -1.1405
  605THF    H1211964   2.410   0.099   4.166 -0.9542  0.5914  2.0987
  605THF    H1311965   2.438  -0.065   4.219 -0.9254  0.6236  0.2637
  606THF     O111966   2.790   4.275   4.092 -0.0836  0.3260  0.2327
  606THF     C211967   2.885   4.347   4.172  0.2231  0.3259 -1.0040
  606THF     C311968   2.806   4.295   3.954 -0.4523 -0.2106  0.0307
  606THF     H411969   2.890   4.301   4.271  3.9793  1.2203 -0.6209
  606THF     H511970   2.845   4.448   4.176  2.3032  1.1698 -0.1842
  606THF     H611971   2.741   4.223   3.905 -0.8517 -0.0568  0.3261
  606THF     H711972   2.780   4.397   3.923  0.5890  1.0577  2.9094
  606THF     C811973   2.956   4.278   3.947 -0.1707 -0.1895  0.4397
  606THF     C911974   3.012   4.333   4.088  0.0778 -0.5467 -0.1593
  606THF    H1011975   3.004   4.344   3.876 -0.2232  0.3063  0.8570
  606THF    H1111976   2.995   4.177   3.936  1.5335  0.4564  0.3207
  606THF    H1211977   3.078   4.262   4.139  0.3908  2.0208  3.3923
  606THF    H1311978   3.063   4.430   4.091  0.2079 -0.6109 -0.2763
  607THF     O111979   0.003   1.549   5.127  0.0319  0.5646 -0.4661
  607THF     C211980  -0.087   1.436   5.117  0.2675 -0.6824 -0.2868
  607THF     C311981  -0.074   1.665   5.149  0.2521  0.4387  0.1545
  607THF     H411982  -0.033   1.341   5.121  1.2915 -0.1082 -0.2863
  607THF     H511983  -0.134   1.464   5.023 -2.0011  3.4699  1.8160
  607THF     H611984  -0.007   1.743   5.185  1.0139 -0.4891  0.8290
  607THF     H711985  -0.111   1.698   5.052  1.6931 -2.6323 -1.6059
  607THF     C811986  -0.185   1.615   5.244 -0.1932 -0.4269  0.0253
  607THF     C911987  -0.181   1.464   5.231 -0.2375  0.4086  0.5315
  607THF    H1011988  -0.280   1.656   5.208 -2.0614 -3.0355  1.6296
  607THF    H1111989  -0.180   1.648   5.348 -0.3053  1.4539 -0.5252
  607THF    H1211990  -0.142   1.423   5.324  0.9315  1.2587  0.4272
  607THF    H1311991  -0.279   1.418   5.215  1.1544 -1.6610 -3.4346
  608THF     O111992   2.011   2.498   0.707 -0.1601  0.1696 -0.4953
  608THF     C211993   2.088   2.569   0.617 -0.6579 -0.1600 -0.2621
  608THF     C311994   1.924   2.406   0.644  0.3112  0.5135  0.7027
  608THF     H411995   2.192   2.540   0.612 -0.7238 -0.2304 -1.6003
  608THF     H511996   2.091   2.672   0.651  0.4774 -0.6284  1.1359
  608THF     H611997   1.974   2.309   0.634  1.1667  1.0904 -0.8386
  608THF     H711998   1.833   2.388   0.702 -0.4190  1.2594 -0.1775
  608THF     C811999   1.897   2.469   0.513 -0.3607 -0.2539 -0.3781
  608THF     C912000   2.022   2.557   0.487 -0.3063  0.6920 -0.3884
  608THF    H1012001   1.822   2.548   0.523 -0.1148  0.0667 -0.9710
  608THF    H1112002   1.863   2.400   0.436 -1.7554  0.4470 -0.4279
  608THF    H1212003   2.084   2.502   0.416 -0.7813  0.4619 -0.6300
  608THF    H1312004   2.010   2.660   0.452  0.6763  0.9118 -0.1192
  609THF     O112005   3.116   3.302   1.203  0.5511 -0.5369  0.2496
  609THF     C212006   3.197   3.238   1.297  0.2011 -0.5120 -0.4262
  609THF     C312007   3.127   3.234   1.082 -0.1320  0.4130 -0.6090
  609THF     H412008   3.152   3.150   1.343 -0.0091  0.6630  1.7265
  609THF     H512009   3.210   3.315   1.373  0.5769  0.6733 -1.6600
  609THF     H612010   3.065   3.144   1.082  0.3047  0.1093 -0.6365
  609THF     H712011   3.104   3.297   0.996  0.0924 -0.0867 -1.0435
  609THF     C812012   3.276   3.208   1.067 -0.1683  0.7740  0.1630
  609THF     C912013   3.325   3.208   1.210  0.2035  0.1030 -1.0689
  609THF    H1012014   3.326   3.292   1.017  0.2584  0.1058 -0.5630
  609THF    H1112015   3.297   3.112   1.021  0.3024  0.4000  1.1480
  609THF    H1212016   3.355   3.108   1.244 -2.8336 -0.5583 -0.0677
  609THF    H1312017   3.405   3.282   1.221  0.1695  0.3287 -2.2666
  610THF     O112018   3.239   2.099   4.058 -0.3971 -0.2966 -0.0085
  610THF     C212019   3.223   2.023   4.173 -0.1831 -0.1154  0.1404
  610THF     C312020   3.301   2.017   3.951  0.6699  0.1766 -0.5611
  610THF     H412021   3.147   1.945   4.172 -1.9063  1.4502  1.2176
  610THF     H512022   3.196   2.085   4.258  0.3775 -0.8147  0.8334
  610THF     H612023   3.234   1.937   3.918  2.3497 -1.6372  0.2163
  610THF     H712024   3.334   2.078   3.867  1.8719 -1.5579 -1.3997
  610THF     C812025   3.409   1.960   4.031  0.4844  0.3277  0.3015
  610THF     C912026   3.357   1.959   4.178  0.8305  0.3641  0.2414
  610THF    H1012027   3.503   2.013   4.017  0.9438 -0.2298  1.2360
  610THF    H1112028   3.433   1.859   3.999 -2.0240 -0.6001  1.0878
  610THF    H1212029   3.364   1.853   4.201  0.4489 -0.0743 -1.4710
  610THF    H1312030   3.430   2.014   4.238  0.9939 -1.7974  2.1160
  611THF     O112031   4.184   4.434   4.842 -0.1219 -0.5241 -0.0573
  611THF     C212032   4.259   4.522   4.766  0.0458  0.1172  0.9259
  611THF     C312033   4.136   4.325   4.759 -0.6204  0.9065  0.3974
  611THF     H412034   4.364   4.497   4.783 -0.0404 -0.1714  1.0435
  611THF     H512035   4.252   4.629   4.786  2.1317  0.2899  1.0066
  611THF     H612036   4.183   4.241   4.811 -1.2490  0.5512  0.3956
  611THF     H712037   4.028   4.329   4.750 -0.4933  2.5127 -0.9032
  611THF     C812038   4.213   4.330   4.626 -0.7188 -0.4123  0.0050
  611THF     C912039   4.236   4.481   4.616 -0.1558  0.1374 -0.2591
  611THF    H1012040   4.165   4.284   4.541  1.0470 -1.2168 -0.5985
  611THF    H1112041   4.315   4.293   4.636  0.0351  0.2375 -3.6986
  611THF    H1212042   4.297   4.509   4.530 -0.5269 -3.1950 -1.7770
  611THF    H1312043   4.139   4.520   4.586 -0.7197  3.6351  4.8000
  612THF     O112044   1.247   2.846   4.526 -0.4350  0.0399 -0.1121
  612THF     C212045   1.171   2.906   4.629  0.6572  0.3042  0.1518
  612THF     C312046   1.384   2.858   4.562 -0.4049  0.7416  0.3047
  612THF     H412047   1.073   2.862   4.643 -0.2279  1.1845 -2.5945
  612THF     H512048   1.159   3.011   4.602 -0.4162  0.2174  0.2361
  612THF     H612049   1.442   2.789   4.501 -1.1086  0.9029 -0.5845
  612THF     H712050   1.397   2.966   4.549  0.1490  0.9003  2.0022
  612THF     C812051   1.372   2.828   4.710 -0.3708  0.3811 -0.0695
  612THF     C912052   1.254   2.901   4.749  0.1700  0.2233 -0.3074
  612THF    H1012053   1.455   2.864   4.769  0.6170  0.2762 -1.3457
  612THF    H1112054   1.356   2.720   4.715  1.0695  0.1785  0.7230
  612THF    H1212055   1.214   2.847   4.836  0.0374  0.5896 -0.1405
  612THF    H1312056   1.279   3.003   4.776 -0.1314  0.2020  0.0751
  613THF     O112057   0.128   0.586   3.699  0.5569  0.2328 -0.4575
  613THF     C212058   0.257   0.542   3.705 -0.1969 -0.1272 -0.5122
  613THF     C312059   0.101   0.621   3.567  0.3716  0.2462 -0.6452
  613THF     H412060   0.259   0.439   3.667 -0.0142  0.2569 -1.5744
  613THF     H512061   0.285   0.546   3.810  0.5467 -1.7863 -0.6079
  613THF     H612062   0.059   0.533   3.518  2.4873 -0.7077 -0.8577
  613THF     H712063   0.021   0.694   3.561 -0.4453 -0.3277  1.9722
  613THF     C812064   0.241   0.663   3.512  0.7482 -0.1940 -0.0963
  613THF     C912065   0.338   0.642   3.624  0.2565 -0.5351 -0.5059
  613THF    H1012066   0.231   0.754   3.453 -1.4514 -0.2143  0.1453
  613THF    H1112067   0.270   0.584   3.442  2.3911  0.1806  0.1253
  613THF    H1212068   0.431   0.600   3.585  1.4599  1.7733 -0.2512
  613THF    H1312069   0.349   0.732   3.684 -2.4533 -0.2484 -0.3186
  614THF     O112070   1.533   2.893   3.981 -0.4878  0.2715 -0.2810
  614THF     C212071   1.483   2.959   4.096 -0.1189  0.2482  0.6188
  614THF     C312072   1.455   2.781   3.956  0.7203 -0.1175  0.9149
  614THF     H412073   1.434   3.054   4.076 -1.2692 -0.7889 -1.9528
  614THF     H512074   1.577   2.977   4.147  0.0454  3.1576 -0.5278
  614THF     H612075   1.375   2.812   3.888  1.9402 -0.0528 -0.5444
  614THF     H712076   1.505   2.702   3.900 -1.6491  0.7986 -2.8953
  614THF     C812077   1.399   2.731   4.089 -0.4276  0.1589 -0.4505
  614THF     C912078   1.393   2.866   4.173  0.6736  0.6583  0.2661
  614THF    H1012079   1.475   2.672   4.139 -0.2649  1.6482  1.1268
  614THF    H1112080   1.311   2.666   4.082 -0.6184  0.5739 -4.2165
  614THF    H1212081   1.287   2.890   4.168  0.4931 -0.1383 -0.0522
  614THF    H1312082   1.423   2.871   4.278 -2.5409  0.0333  1.3504
  615THF     O112083   1.844   3.051   1.723 -0.1792  0.3267  0.0403
  615THF     C212084   1.743   2.965   1.773  0.0355  0.7062 -0.5793
  615THF     C312085   1.788   3.168   1.668  0.0279  0.3555  0.3521
  615THF     H412086   1.727   2.984   1.879 -0.9151  1.8710 -0.9016
  615THF     H512087   1.768   2.859   1.761 -1.0854  0.3329  0.1793
  615THF     H612088   1.764   3.235   1.751 -1.4335  2.0108 -1.2932
  615THF     H712089   1.850   3.213   1.590  0.5870  0.5699  0.9113
  615THF     C812090   1.658   3.124   1.608  0.1274 -0.8606 -0.2280
  615THF     C912091   1.615   3.003   1.692 -0.2305 -0.9735  0.5312
  615THF    H1012092   1.671   3.090   1.505  1.4627  1.7580 -1.0266
  615THF    H1112093   1.583   3.203   1.610  0.9910  0.0255 -1.1919
  615THF    H1212094   1.543   3.039   1.766 -1.0200 -0.5805 -0.4069
  615THF    H1312095   1.563   2.922   1.640  0.6960 -1.6263  0.5960
  616THF     O112096   5.189   3.001   1.681  0.0980  0.7204 -0.1276
  616THF     C212097   5.285   2.903   1.721 -0.6370 -0.1225 -0.7627
  616THF     C312098   5.115   3.039   1.800  0.2545 -0.6156  0.3550
  616THF     H412099   5.365   2.965   1.762 -2.9256  0.6485  3.0426
  616THF     H512100   5.320   2.835   1.644 -0.7713 -2.1578  0.8924
  616THF     H612101   5.178   3.105   1.859  0.1089  0.5796 -0.7800
  616THF     H712102   5.023   3.082   1.762 -0.0776 -0.1388  1.6498
  616THF     C812103   5.100   2.906   1.871  0.1238  0.3195  0.5872
  616THF     C912104   5.223   2.825   1.831  0.5358  0.4246 -0.1281
  616THF    H1012105   5.004   2.865   1.840  0.4725 -0.7092  0.8301
  616THF    H1112106   5.101   2.926   1.978 -1.2099  2.9673  0.1764
  616THF    H1212107   5.294   2.824   1.913  1.1413  1.0391 -0.6296
  616THF    H1312108   5.195   2.724   1.799 -2.3696  1.1265 -0.1116
  617THF     O112109   2.631   2.048   0.829  0.8444  0.4433  0.1839
  617THF     C212110   2.678   1.921   0.803 -0.3457  0.5230 -0.1798
  617THF     C312111   2.492   2.030   0.837 -0.4052 -0.2204  0.0548
  617THF     H412112   2.778   1.932   0.844 -1.1751  2.1349  1.5802
  617THF     H512113   2.674   1.891   0.699  1.0152 -1.8659  0.3894
  617THF     H612114   2.446   2.122   0.872  1.1220  0.9653 -0.9311
  617THF     H712115   2.461   2.011   0.734 -0.2107  0.0578 -0.0544
  617THF     C812116   2.463   1.897   0.907 -0.1204  0.0863 -0.2664
  617THF     C912117   2.591   1.817   0.884 -0.6091  0.0131 -0.3406
  617THF    H1012118   2.366   1.855   0.881 -1.3886  2.5896  0.0406
  617THF    H1112119   2.462   1.919   1.014 -0.0280  1.1412 -0.4686
  617THF    H1212120   2.635   1.777   0.975 -2.7728 -1.2734  0.2108
  617THF    H1312121   2.579   1.728   0.823 -2.1336  1.3518 -2.0965
  618THF     O112122   0.456   1.578   0.803 -0.4640 -0.4769  0.5989
  618THF     C212123   0.367   1.526   0.897 -0.7002  0.2196  0.1454
  618THF     C312124   0.586   1.552   0.843  0.1874  0.1404  0.7283
  618THF     H412125   0.261   1.515   0.873 -0.3406 -0.4198 -1.2283
  618THF     H512126   0.384   1.576   0.993 -0.2088 -0.6823  0.5396
  618THF     H612127   0.646   1.566   0.754  0.2050  0.0127  0.7197
  618THF     H712128   0.623   1.614   0.925  1.5203 -0.7671  0.8370
  618THF     C812129   0.575   1.406   0.901 -0.5572 -0.4687  0.0651
  618THF     C912130   0.421   1.380   0.915 -0.3337 -0.3214  0.3315
  618THF    H1012131   0.639   1.398   0.988  0.6933  0.9798 -0.6821
  618THF    H1112132   0.616   1.336   0.828  1.0707  2.4948 -2.0764
  618THF    H1212133   0.373   1.317   0.840 -2.2573  2.4264 -0.9317
  618THF    H1312134   0.404   1.331   1.010  2.2482 -0.0384  1.0238
  619THF     O112135   4.816   1.951   0.121  0.3203 -0.4758 -0.3165
  619THF     C212136   4.803   1.838   0.046 -0.4674  0.7128 -0.7876
  619THF     C312137   4.796   1.924   0.254  0.7618 -0.8030 -0.3707
  619THF     H412138   4.876   1.835  -0.035  1.2455  0.2871  0.7038
  619THF     H512139   4.699   1.818   0.023 -0.6387  0.9489 -0.2423
  619THF     H612140   4.884   1.950   0.313 -0.4804 -2.9147  2.6746
  619THF     H712141   4.711   1.981   0.291  1.8084  0.3455  0.3509
  619THF     C812142   4.769   1.777   0.264 -0.9984  0.4848 -0.0504
  619THF     C912143   4.834   1.727   0.146 -0.1153 -0.5207  0.0229
  619THF    H1012144   4.660   1.770   0.264 -1.1391  2.1869 -1.0260
  619THF    H1112145   4.820   1.744   0.355 -1.4892 -1.2540 -0.3596
  619THF    H1212146   4.942   1.719   0.161 -0.5100 -1.3988  3.2964
  619THF    H1312147   4.796   1.628   0.122  1.6020 -0.6421 -2.5349
  620THF     O112148   4.299   2.485   1.769  0.1273  0.1311  0.0118
  620THF     C212149   4.219   2.429   1.660  0.1934  0.2753  0.3752
  620THF     C312150   4.392   2.379   1.816 -0.2220  0.7744 -0.0080
  620THF     H412151   4.265   2.463   1.567  0.9444 -0.4984  0.4511
  620THF     H512152   4.112   2.446   1.654  0.3990  1.5988  0.0890
  620THF     H612153   4.493   2.414   1.837 -0.2218  0.5473  0.3601
  620THF     H712154   4.354   2.341   1.910  1.8086  1.8553  1.3187
  620THF     C812155   4.384   2.265   1.718 -0.2755 -0.4214  0.3195
  620THF     C912156   4.239   2.280   1.666  0.3460  0.9095  0.6463
  620THF    H1012157   4.408   2.163   1.751 -1.5632 -1.2316 -1.1153
  620THF    H1112158   4.459   2.280   1.641 -0.1920  0.5304  0.5838
  620THF    H1212159   4.230   2.232   1.568 -3.1050  2.0441  0.2803
  620THF    H1312160   4.162   2.237   1.730 -0.5130 -1.7839 -1.9098
  621THF     O112161   0.951   0.573   2.201 -0.4177 -0.3313  0.2132
  621THF     C212162   1.089   0.529   2.229 -0.0272 -0.6944  0.6343
  621THF     C312163   0.881   0.447   2.167 -0.3573 -0.5190  0.7886
  621THF     H412164   1.129   0.596   2.304 -2.7040  0.8952  0.7526
  621THF     H512165   1.149   0.554   2.141 -0.1606 -1.5359  0.2938
  621THF     H612166   0.774   0.453   2.185 -0.4374 -3.1023  1.6326
  621THF     H712167   0.892   0.438   2.059  0.6574  0.2433  0.8098
  621THF     C812168   0.938   0.347   2.267  0.1824 -0.2284 -0.2697
  621THF     C912169   1.084   0.384   2.258 -0.2369  1.0894  0.1841
  621THF    H1012170   0.922   0.244   2.237  1.7577  0.2589 -3.2028
  621THF    H1112171   0.902   0.361   2.368  1.3504 -0.4575  0.1984
  621THF    H1212172   1.138   0.375   2.352 -0.3325  0.1431  0.1611
  621THF    H1312173   1.139   0.327   2.183 -0.5130 -0.7354  1.3042
  622THF     O112174   0.929   2.938   0.867  0.2193 -0.1795 -0.8525
  622THF     C212175   0.957   3.002   0.990  0.0544 -1.0661  0.2302
  622THF     C312176   0.955   3.027   0.758  0.3758 -0.2295 -0.4467
  622THF     H412177   1.026   2.946   1.054 -1.1136 -1.7118  0.9600
  622THF     H512178   0.859   3.004   1.038 -1.0785 -0.2611 -1.9705
  622THF     H612179   1.051   3.004   0.711  1.3512 -2.2369  2.2594
  622THF     H712180   0.883   3.016   0.677  0.0163 -0.6677 -0.0735
  622THF     C812181   0.953   3.176   0.814  0.3791  0.6067  0.2070
  622THF     C912182   1.008   3.140   0.951  0.7192 -0.4021  0.6771
  622THF    H1012183   0.852   3.218   0.807 -0.8845 -1.8917  1.8860
  622THF    H1112184   1.018   3.243   0.758 -0.2038  0.3623 -0.7945
  622THF    H1212185   1.117   3.148   0.948  0.8841 -1.3051  2.6588
  622THF    H1312186   0.968   3.215   1.020 -0.7671  2.3609 -2.9135
  623THF     O112187   4.095   3.225   2.140 -0.1662  0.0012  0.5836
  623THF     C212188   4.049   3.358   2.127  0.1254  0.2522  0.0204
  623THF     C312189   4.233   3.230   2.121  0.3782 -0.1758  0.2715
  623THF     H412190   3.948   3.359   2.168 -0.1987 -2.7327 -0.4286
  623THF     H512191   4.048   3.374   2.019  2.6826 -3.0097 -0.6410
  623THF     H612192   4.274   3.153   2.186  0.3735 -1.6722 -1.3955
  623THF     H712193   4.245   3.210   2.014 -2.7247  0.7503 -0.3591
  623THF     C812194   4.279   3.375   2.155  0.2342  0.7386 -0.6360
  623THF     C912195   4.151   3.455   2.188  0.3261  0.3097 -0.2183
  623THF    H1012196   4.307   3.416   2.058 -2.9044 -2.5547 -3.2319
  623THF    H1112197   4.353   3.395   2.232 -0.0542 -2.1319  0.5301
  623THF    H1212198   4.140   3.455   2.296 -3.2620  1.3268 -0.4610
  623THF    H1312199   4.146   3.553   2.142 -1.3300  0.8284  0.9679
  624THF     O112200   3.966   4.502   1.898  0.2418 -0.9469  0.3865
  624THF     C212201   4.074   4.546   1.818 -0.2607  0.1256  0.4826
  624THF     C312202   3.971   4.358   1.896 -0.0684 -0.6973 -0.4900
  624THF     H412203   4.169   4.534   1.870  0.1387  1.0731 -0.0039
  624THF     H512204   4.067   4.653   1.796 -0.0327 -0.0283 -0.3576
  624THF     H612205   4.024   4.324   1.985  1.4528  1.7481 -0.3794
  624THF     H712206   3.866   4.329   1.893 -0.5536  0.7484  0.9713
  624THF     C812207   4.031   4.316   1.767 -0.3447  0.0663 -0.1061
  624THF     C912208   4.065   4.449   1.700  0.0390  0.5197 -0.0382
  624THF    H1012209   3.965   4.264   1.697  2.6186  1.5118 -4.3980
  624THF    H1112210   4.120   4.254   1.779  0.1521  0.1360 -2.7618
  624THF    H1212211   4.156   4.443   1.639  2.0076  1.6311  2.5840
  624THF    H1312212   3.980   4.485   1.643  0.7154  1.2719 -0.6051
  625THF     O112213   5.069   1.616   1.732  0.0204 -0.1602 -0.2285
  625THF     C212214   4.931   1.593   1.763 -0.2341 -0.0446  0.3723
  625THF     C312215   5.067   1.681   1.604 -1.1012 -0.2809  0.5606
  625THF     H412216   4.877   1.685   1.782  0.4788  0.3730  0.4161
  625THF     H512217   4.927   1.534   1.856 -0.6369  0.9065  0.9706
  625THF     H612218   5.050   1.788   1.600  0.3847 -0.0673 -1.2003
  625THF     H712219   5.165   1.664   1.561 -1.7210 -3.6228  0.1878
  625THF     C812220   4.956   1.602   1.529  0.4980  0.4783 -0.3135
  625THF     C912221   4.867   1.531   1.637 -0.3391 -0.6288 -0.4446
  625THF    H1012222   5.004   1.531   1.461  0.8857  2.3831 -2.1360
  625THF    H1112223   4.895   1.666   1.466  0.3715  0.3408 -0.3309
  625THF    H1212224   4.761   1.548   1.622 -0.6240 -2.5499 -0.9106
  625THF    H1312225   4.876   1.422   1.629 -0.9912 -0.7483  0.3322
  626THF     O112226   1.922   3.419   4.411  0.0303  0.1944 -0.0164
  626THF     C212227   1.894   3.556   4.379 -0.3662  0.2404  1.0600
  626THF     C312228   2.014   3.424   4.521  0.1549 -0.2151  0.4310
  626THF     H412229   1.810   3.570   4.311  0.2355  0.1546  0.2968
  626THF     H512230   1.972   3.603   4.319 -0.6992 -0.8785 -0.2981
  626THF     H612231   2.017   3.321   4.557 -0.1068  0.0197  1.1532
  626THF     H712232   2.110   3.468   4.495  0.2123  0.2827  1.4379
  626THF     C812233   1.936   3.517   4.616  0.0279  0.4931 -0.1058
  626THF     C912234   1.872   3.622   4.518 -0.5408  0.5834 -0.6051
  626THF    H1012235   2.000   3.544   4.700  0.5227 -0.3198 -0.2109
  626THF    H1112236   1.846   3.471   4.656 -1.2404  1.8316 -1.3052
  626THF    H1212237   1.769   3.646   4.544 -1.0272 -3.4636  2.1213
  626THF    H1312238   1.918   3.720   4.503  1.2514  0.0951  1.2797
  627THF     O112239   1.591   3.017   1.059 -0.2066 -0.2056  0.0240
  627THF     C212240   1.547   3.150   1.081 -0.3509 -0.7050  0.2009
  627THF     C312241   1.551   2.945   1.171  0.1058  0.4746 -0.3566
  627THF     H412242   1.563   3.208   0.989 -0.8257 -0.8189  0.0440
  627THF     H512243   1.604   3.198   1.161  0.3017 -1.9364  0.4956
  627THF     H612244   1.567   2.838   1.167  0.1301  0.4598  0.1311
  627THF     H712245   1.615   2.975   1.254 -0.9372  2.1917 -0.1104
  627THF     C812246   1.409   2.995   1.196  0.0279 -0.2603 -0.1709
  627THF     C912247   1.403   3.137   1.126  0.1354 -0.4468  0.0096
  627THF    H1012248   1.395   3.017   1.302 -0.6473  0.0501 -0.3144
  627THF    H1112249   1.326   2.930   1.169 -0.8885  0.3141  1.1187
  627THF    H1212250   1.350   3.113   1.034  0.0851 -1.5186  0.2994
  627THF    H1312251   1.350   3.204   1.193 -3.0733 -1.4140 -1.3913
  628THF     O112252   3.089   3.919   2.342  0.2424  0.0392  0.9568
  628THF     C212253   3.180   4.018   2.380  0.0110  0.1017  0.3195
  628THF     C312254   3.105   3.896   2.202  0.1495  0.3806 -0.1582
  628THF     H412255   3.272   3.977   2.421  0.4095  1.8005  1.1988
  628THF     H512256   3.129   4.070   2.461 -1.4176 -2.9264  1.5430
  628THF     H612257   3.083   3.791   2.183  0.8027  0.1381  0.3982
  628THF     H712258   3.020   3.951   2.162 -0.1666  1.5472  1.9598
  628THF     C812259   3.233   3.960   2.162 -0.7775 -0.5744 -0.2723
  628THF     C912260   3.224   4.082   2.248 -0.1630 -0.3034 -0.8914
  628THF    H1012261   3.236   3.989   2.057  2.8847  0.8374  0.0685
  628THF    H1112262   3.315   3.899   2.201 -0.7155  0.2879  1.0114
  628THF    H1212263   3.312   4.145   2.260 -1.0970  1.1193 -1.2237
  628THF    H1312264   3.156   4.159   2.212 -0.3159 -0.2009 -0.3781
  629THF     O112265   3.109   3.477   2.462  0.0004  0.4473  0.2824
  629THF     C212266   3.113   3.368   2.554 -0.2185  0.0548 -0.2240
  629THF     C312267   3.061   3.595   2.522  0.5581  0.2411 -0.4992
  629THF     H412268   3.213   3.366   2.596 -0.9483 -4.0836  1.8209
  629THF     H512269   3.105   3.278   2.494  2.9651  2.1070 -4.2519
  629THF     H612270   3.130   3.680   2.519  1.4170 -0.1203  3.5967
  629THF     H712271   2.969   3.623   2.470  1.2597  0.2484 -1.7814
  629THF     C812272   3.031   3.551   2.672  0.1344  0.0782 -0.1348
  629THF     C912273   3.010   3.401   2.656  0.6577  0.2198 -0.1118
  629THF    H1012274   2.945   3.595   2.721  0.4709  0.2495  0.3140
  629THF    H1112275   3.117   3.566   2.738  0.1549 -0.0032 -0.1420
  629THF    H1212276   3.041   3.349   2.747  0.1600  1.4546  0.7876
  629THF    H1312277   2.907   3.374   2.636  0.4114 -0.4605  1.8115
  630THF     O112278   3.437   3.130   5.408 -0.2662 -0.4861 -0.0370
  630THF     C212279   3.410   3.272   5.419  0.0027 -0.3115 -0.6538
  630THF     C312280   3.578   3.119   5.425  0.1578 -0.1046  0.3024
  630THF     H412281   3.369   3.307   5.514 -0.9801  1.7274 -1.7691
  630THF     H512282   3.344   3.304   5.339 -0.3535  0.9454  0.1107
  630THF     H612283   3.617   3.121   5.527  2.5744 -2.2569 -0.4659
  630THF     H712284   3.629   3.033   5.380  0.2655 -1.2472  2.4806
  630THF     C812285   3.629   3.247   5.360 -0.5296  0.1444 -0.2416
  630THF     C912286   3.533   3.350   5.397 -0.2313 -0.0158  0.0517
  630THF    H1012287   3.614   3.244   5.252 -0.2873  1.0169 -0.3105
  630THF    H1112288   3.730   3.272   5.394  0.7384 -1.0833 -2.8012
  630THF    H1212289   3.569   3.399   5.487 -2.7872 -1.9125  2.3003
  630THF    H1312290   3.527   3.416   5.310  1.6622 -1.6369 -1.3979
  631THF     O112291   0.709   1.026   4.144  0.6265  0.1634  0.3183
  631THF     C212292   0.786   1.043   4.257  0.2432 -0.1236  0.5007
  631THF     C312293   0.667   0.890   4.133  0.0766  0.5023  0.3733
  631THF     H412294   0.754   1.133   4.309  1.9255  0.9905 -0.2973
  631THF     H512295   0.883   1.054   4.210  0.2295  1.0126  0.7038
  631THF     H612296   0.562   0.859   4.140  0.2631 -0.4409 -0.7335
  631THF     H712297   0.690   0.855   4.032 -3.3343 -1.8966  0.2377
  631THF     C812298   0.748   0.819   4.241  0.0124  0.6237 -0.1263
  631THF     C912299   0.759   0.920   4.342 -0.1507 -0.0294 -0.3849
  631THF    H1012300   0.841   0.780   4.201  0.1848 -0.7061  1.4797
  631THF    H1112301   0.695   0.735   4.286  1.3589  0.0510  0.4348
  631THF    H1212302   0.670   0.919   4.404 -0.8048  1.2676 -1.2450
  631THF    H1312303   0.847   0.897   4.403  1.0663  2.1262 -1.1969
  632THF     O112304   4.257   4.804   1.930 -0.2408  0.1579  0.5728
  632THF     C212305   4.151   4.817   2.020  0.5399 -0.6018  0.1235
  632THF     C312306   4.362   4.881   1.991 -0.1188  0.0805  0.6552
  632THF     H412307   4.068   4.753   1.992  0.0638  0.7175 -1.6290
  632THF     H512308   4.122   4.922   2.014  1.2947 -0.3392  0.8581
  632THF     H612309   4.463   4.845   1.966 -0.9162 -2.2366  0.5183
  632THF     H712310   4.344   4.984   1.961 -0.7760 -1.0339 -3.4769
  632THF     C812311   4.343   4.850   2.140 -1.0184  0.4699  0.8477
  632THF     C912312   4.211   4.785   2.154 -0.2631  0.1896 -0.0765
  632THF    H1012313   4.360   4.944   2.193 -0.9750  0.7782  0.2857
  632THF    H1112314   4.423   4.784   2.175 -1.3627  0.4566  1.6310
  632THF    H1212315   4.235   4.679   2.160  1.4938  0.5618 -0.0561
  632THF    H1312316   4.162   4.816   2.246 -0.2441 -2.5623  0.9351
  633THF     O112317   4.668   2.167   1.505 -0.0557  0.3976 -0.2192
  633THF     C212318   4.751   2.276   1.532  0.3358  0.2023 -0.0394
  633THF     C312319   4.753   2.065   1.466  0.1883 -0.2683 -0.0440
  633THF     H412320   4.715   2.361   1.590  0.7404  0.3873 -0.0497
  633THF     H512321   4.780   2.320   1.436 -0.4685 -0.6264 -0.6767
  633THF     H612322   4.698   1.972   1.453 -0.4716  0.1318 -0.1323
  633THF     H712323   4.784   2.084   1.363  0.1530 -1.2333 -0.2479
  633THF     C812324   4.874   2.068   1.558  0.4786 -0.4001  0.0208
  633THF     C912325   4.872   2.212   1.605 -0.3438 -0.6909 -0.4912
  633THF    H1012326   4.968   2.050   1.505  0.7753  0.0774  0.3722
  633THF    H1112327   4.851   2.000   1.640  0.5295 -1.3716 -0.7424
  633THF    H1212328   4.846   2.219   1.711 -2.7177 -0.0219 -1.0467
  633THF    H1312329   4.964   2.269   1.589  0.4536 -1.7224  0.2608
  634THF     O112330   3.143   2.167   0.344  0.1216 -0.5376 -0.1459
  634THF     C212331   3.058   2.137   0.454 -0.2340  0.9139  0.0385
  634THF     C312332   3.199   2.050   0.302  0.2755 -0.1668 -0.1189
  634THF     H412333   2.975   2.078   0.417  1.5835 -2.3097  0.7374
  634THF     H512334   3.032   2.231   0.503 -3.3245 -0.1914  0.6776
  634THF     H612335   3.133   1.981   0.251 -0.2904  0.4939 -0.2961
  634THF     H712336   3.283   2.070   0.235  0.0933  0.0872 -0.2747
  634THF     C812337   3.247   1.991   0.430  0.3399  0.8768 -0.2407
  634THF     C912338   3.152   2.041   0.533 -0.3584 -0.5623  0.2075
  634THF    H1012339   3.348   2.028   0.450  0.8966  0.1052 -1.5039
  634THF    H1112340   3.263   1.883   0.427  1.6138  1.0599 -0.7594
  634THF    H1212341   3.091   1.962   0.577 -1.2573 -0.4804 -0.8526
  634THF    H1312342   3.206   2.095   0.610 -2.1452  0.5078  0.7709
  635THF     O112343   3.611   2.906   4.972  0.0316  0.0939  0.4019
  635THF     C212344   3.648   2.886   4.836  0.2018 -0.1195  0.1624
  635THF     C312345   3.717   2.979   5.036 -0.2063 -0.5849  0.2769
  635THF     H412346   3.560   2.879   4.773  0.8914 -1.0683 -0.7286
  635THF     H512347   3.702   2.794   4.812  0.2663  0.0109 -0.1905
  635THF     H612348   3.672   3.025   5.124 -1.1090 -2.2958  0.7671
  635THF     H712349   3.800   2.913   5.062  0.7275  0.6595  0.5612
  635THF     C812350   3.760   3.080   4.931 -0.2448 -0.4998 -0.9333
  635THF     C912351   3.723   3.012   4.801  0.2330 -0.4032 -0.6190
  635THF    H1012352   3.866   3.105   4.940 -0.1332 -0.3530 -2.3972
  635THF    H1112353   3.698   3.169   4.947 -0.7650 -1.0447  0.2152
  635THF    H1212354   3.660   3.074   4.738  0.9395  1.9428  0.8397
  635THF    H1312355   3.815   2.980   4.753 -0.1983 -0.1239 -1.6518
  636THF     O112356   2.861   5.454   3.978 -0.1859 -0.1587 -0.0075
  636THF     C212357   2.897   5.326   4.020 -0.3536  0.0234 -0.0680
  636THF     C312358   2.984   5.502   3.934 -0.9510  0.4465  0.1927
  636THF     H412359   2.806   5.268   4.013 -0.2241 -0.1053 -0.7616
  636THF     H512360   2.918   5.324   4.127  0.1158  0.7906 -0.1318
  636THF     H612361   2.974   5.591   3.872  3.4380 -0.4573 -2.2073
  636THF     H712362   3.043   5.538   4.019 -3.2336  2.4394  1.0564
  636THF     C812363   3.051   5.388   3.860 -0.1235  0.3033 -0.4014
  636THF     C912364   3.010   5.267   3.933 -0.7036 -0.1284  0.2067
  636THF    H1012365   3.158   5.401   3.875 -0.5780  0.9946  3.2124
  636THF    H1112366   3.022   5.379   3.755  2.6641  1.0219 -1.3247
  636THF    H1212367   2.965   5.187   3.874 -1.3990  1.1922 -1.1247
  636THF    H1312368   3.094   5.234   3.994 -0.3592  0.5083  0.0907
  637THF     O112369   3.116   4.977   4.878 -0.4056 -0.1406 -0.5944
  637THF     C212370   2.978   4.953   4.880  0.6086  0.8995 -0.0861
  637THF     C312371   3.151   5.043   4.753  0.1193  0.3756  0.0853
  637THF     H412372   2.938   4.970   4.980 -2.0584 -0.1927 -0.8800
  637THF     H512373   2.954   4.847   4.870 -0.9282  1.3813 -2.0290
  637THF     H612374   3.194   5.137   4.786  0.2760  0.3265  0.0183
  637THF     H712375   3.235   4.993   4.706 -0.9607 -0.1189 -1.4271
  637THF     C812376   3.030   5.055   4.670 -0.2641 -0.2515  0.1842
  637THF     C912377   2.921   5.040   4.771  0.1021  0.2544 -0.3353
  637THF    H1012378   3.021   4.973   4.599 -1.2801 -0.0461  0.0614
  637THF    H1112379   3.030   5.146   4.610  1.0802 -0.1947  0.2465
  637THF    H1212380   2.889   5.135   4.813 -1.0203  0.1132 -0.8443
  637THF    H1312381   2.829   4.996   4.732  0.8091 -2.1524  0.5308
  638THF     O112382   4.733   4.856   1.976 -0.0782 -0.7057  0.1180
  638THF     C212383   4.734   4.934   2.099  0.5961  0.2374 -0.0008
  638THF     C312384   4.848   4.897   1.901  0.4497 -0.3696  1.1674
  638THF     H412385   4.677   4.875   2.171  0.3272  0.4415 -0.0475
  638THF     H512386   4.677   5.026   2.086  0.6298  0.1005 -1.1662
  638THF     H612387   4.906   4.806   1.883  1.2335  0.1604  0.9635
  638THF     H712388   4.818   4.929   1.801 -1.5039 -1.1011  1.4605
  638THF     C812389   4.935   4.994   1.979  1.3710 -0.0983 -0.8851
  638THF     C912390   4.886   4.964   2.121  0.3074  0.0751 -0.3405
  638THF    H1012391   4.914   5.093   1.939  2.7344  1.3464  1.7086
  638THF    H1112392   5.037   4.955   1.973  1.5317  0.2389 -0.4403
  638THF    H1212393   4.936   4.877   2.164  0.1982  1.2696  2.4370
  638THF    H1312394   4.903   5.050   2.187 -1.0839 -1.4212  2.1160
  639THF     O112395   4.354   1.033   3.100 -0.0419 -0.3890  0.1753
  639THF     C212396   4.353   1.007   3.237 -0.0158 -0.1060 -0.1163
  639THF     C312397   4.227   1.012   3.046 -0.0496 -0.5390  0.5351
  639THF     H412398   4.368   1.106   3.281  1.2536 -0.3589  0.0733
  639THF     H512399   4.430   0.932   3.259  1.1788  1.3292  0.8284
  639THF     H612400   4.201   1.072   2.960 -0.6095  0.2928  1.2672
  639THF     H712401   4.234   0.916   2.995  0.5739 -0.4403  0.4266
  639THF     C812402   4.129   1.019   3.167  0.1949  0.4394  0.0950
  639THF     C912403   4.213   0.955   3.267  0.1495 -0.1714 -0.0022
  639THF    H1012404   4.028   0.982   3.151  0.3283  0.5499 -1.1229
  639THF    H1112405   4.118   1.118   3.210  0.2789  0.8045 -0.7066
  639THF    H1212406   4.177   0.986   3.365 -1.5655 -0.2354 -0.5823
  639THF    H1312407   4.207   0.848   3.250  0.9600 -0.3481  0.7157
  640THF     O112408   2.756   0.841   3.653 -0.3677 -0.4972 -0.3375
  640THF     C212409   2.773   0.978   3.616  0.0442  0.2713 -0.8529
  640THF     C312410   2.862   0.813   3.746  0.2303 -0.1883  0.3202
  640THF     H412411   2.743   1.047   3.695  0.8356 -1.8313  1.4335
  640THF     H512412   2.717   1.000   3.526 -0.8601  0.9818 -0.1327
  640THF     H612413   2.832   0.843   3.847 -1.3173  2.9653 -0.9052
  640THF     H712414   2.868   0.705   3.751 -1.7809 -0.3480  0.4165
  640THF     C812415   2.985   0.899   3.704 -0.0773 -0.1596 -0.0473
  640THF     C912416   2.925   0.997   3.600  0.6826 -0.4552  0.4669
  640THF    H1012417   3.071   0.841   3.671 -0.6075 -0.8514 -0.2336
  640THF    H1112418   3.016   0.944   3.798 -2.3281 -2.3824  1.8883
  640THF    H1212419   2.970   1.095   3.613 -0.4862  0.2947 -0.8930
  640THF    H1312420   2.949   0.966   3.498 -0.9941  2.3337 -0.8783
  641THF     O112421   1.833   4.284   3.740 -0.2654 -0.5132  0.1510
  641THF     C212422   1.932   4.374   3.697  0.1836 -0.1397  0.3403
  641THF     C312423   1.853   4.266   3.882  0.1817 -0.4361 -0.1153
  641THF     H412424   1.893   4.422   3.607  0.2217 -2.0218 -0.7313
  641THF     H512425   2.016   4.308   3.675 -0.4536 -0.3169 -1.8592
  641THF     H612426   1.770   4.215   3.931  1.2588 -3.0249 -0.8219
  641THF     H712427   1.943   4.206   3.891  0.5977  0.3625  1.3455
  641THF     C812428   1.880   4.413   3.929 -0.3395  0.0317  0.2221
  641THF     C912429   1.956   4.475   3.814  0.3060  0.3533 -0.1006
  641THF    H1012430   1.933   4.419   4.023 -2.0810  2.0905  1.1674
  641THF    H1112431   1.785   4.464   3.944 -0.6242 -0.1680 -0.7910
  641THF    H1212432   1.909   4.570   3.788 -3.6972 -1.1831  0.9125
  641THF    H1312433   2.063   4.484   3.836  0.6530  0.5927 -1.7365
  642THF     O112434   1.438   0.688   0.596  0.3326 -0.1081  0.4383
  642THF     C212435   1.373   0.648   0.477 -1.0315 -0.5658 -0.4571
  642THF     C312436   1.531   0.589   0.624  0.2421 -0.1097 -0.2707
  642THF     H412437   1.400   0.717   0.397  2.4024 -1.8893 -0.6018
  642THF     H512438   1.265   0.660   0.478 -1.0242 -0.5003 -0.4649
  642THF     H612439   1.630   0.603   0.581  0.6603  1.5742  1.1113
  642THF     H712440   1.549   0.596   0.731 -0.7833  0.8415 -0.1396
  642THF     C812441   1.468   0.460   0.582  0.0763  0.8537  0.5240
  642THF     C912442   1.415   0.505   0.445 -0.1932  0.3034 -0.3997
  642THF    H1012443   1.389   0.424   0.648  0.4577 -0.1141  0.4793
  642THF    H1112444   1.543   0.381   0.578  0.6562  1.1876  3.1869
  642THF    H1212445   1.501   0.508   0.377  0.7600 -0.0414  0.7585
  642THF    H1312446   1.337   0.444   0.398  1.9289 -1.9023 -1.2863
  643THF     O112447   2.068   3.494   2.956  0.1530 -0.4930 -0.2273
  643THF     C212448   2.127   3.384   3.022  0.5307 -0.6643  0.2404
  643THF     C312449   1.931   3.464   2.953  0.3909 -0.2180  0.4860
  643THF     H412450   2.229   3.400   3.056  0.8629 -1.8292 -0.1642
  643THF     H512451   2.125   3.305   2.947  1.7953 -1.3900  0.9267
  643THF     H612452   1.879   3.558   2.937 -0.4899 -0.6871  0.4806
  643THF     H712453   1.894   3.394   2.878 -1.5176 -1.4120  2.4295
  643THF     C812454   1.901   3.402   3.086  0.2470  0.6128 -0.1650
  643THF     C912455   2.028   3.346   3.134  0.6410 -0.5995 -0.1633
  643THF    H1012456   1.812   3.338   3.079  0.3898  0.4824 -0.9533
  643THF    H1112457   1.891   3.486   3.154  1.3043  2.0590 -1.7014
  643THF    H1212458   2.059   3.414   3.213 -0.8536  0.1345 -0.1774
  643THF    H1312459   2.028   3.238   3.149 -0.5366 -0.5627  0.1741
  644THF     O112460   4.178   1.753   1.995  0.1670 -0.3313  0.4383
  644THF     C212461   4.054   1.734   1.917 -0.6192 -0.0498  0.7317
  644THF     C312462   4.211   1.882   1.984 -0.0113 -0.0346 -0.3062
  644THF     H412463   3.999   1.651   1.962 -1.0242  0.2988  0.8911
  644THF     H512464   4.087   1.718   1.815  1.4640 -2.0358  1.6287
  644THF     H612465   4.280   1.922   2.059 -0.4467 -1.7455  1.0919
  644THF     H712466   4.263   1.902   1.890 -0.0461  1.7306  0.0240
  644THF     C812467   4.087   1.963   1.982  1.2037 -0.0388  0.3270
  644THF     C912468   3.976   1.861   1.942  0.5898 -0.5221  0.2864
  644THF    H1012469   4.081   2.058   1.929 -1.7723 -0.4529 -0.2677
  644THF    H1112470   4.083   1.987   2.088  0.0662 -3.4984  1.2146
  644THF    H1212471   3.903   1.850   2.022 -0.0899 -1.2676 -0.4241
  644THF    H1312472   3.918   1.894   1.856  1.4195 -1.6290 -0.7376
  645THF     O112473   2.338   1.127   2.381 -0.4974 -0.0782 -0.6221
  645THF     C212474   2.463   1.063   2.371  0.8075 -0.6088 -0.8078
  645THF     C312475   2.336   1.221   2.274  0.2203 -0.1669  0.1769
  645THF     H412476   2.455   1.011   2.276  0.7647  0.8575 -1.6246
  645THF     H512477   2.486   1.000   2.457  1.4611  0.7026  0.0202
  645THF     H612478   2.307   1.190   2.174  2.7762 -0.0576 -0.6851
  645THF     H712479   2.267   1.298   2.309  0.3675 -0.6530  1.6066
  645THF     C812480   2.478   1.276   2.276 -0.1919  0.5498 -0.7291
  645THF     C912481   2.564   1.175   2.351 -0.3994  0.1278  0.0064
  645THF    H1012482   2.480   1.375   2.322  1.7231 -0.7745  2.4015
  645THF    H1112483   2.521   1.305   2.180 -1.2558  1.8251 -0.8482
  645THF    H1212484   2.635   1.130   2.282 -1.2223 -0.1295 -0.6941
  645THF    H1312485   2.618   1.219   2.436 -0.7448 -0.4684  0.5395
  646THF     O112486   0.057   0.191   3.889  0.0313 -0.3897  0.2688
  646THF     C212487   0.151   0.285   3.929 -0.3745 -0.2191  0.2652
  646THF     C312488   0.057   0.075   3.956  0.3079  0.1728 -0.4400
  646THF     H412489   0.132   0.384   3.890  1.5097 -0.6641 -2.0295
  646THF     H512490   0.247   0.262   3.882 -0.7516 -2.9878  0.6862
  646THF     H612491  -0.047   0.046   3.975  0.1373  0.2211 -1.2502
  646THF     H712492   0.114   0.001   3.899  0.0939 -1.5538  1.4866
  646THF     C812493   0.122   0.116   4.089  0.2619 -0.2448  0.7627
  646THF     C912494   0.165   0.263   4.077 -0.2456 -0.3397 -0.1666
  646THF    H1012495   0.214   0.058   4.093  0.9603  0.6457 -1.0999
  646THF    H1112496   0.055   0.112   4.174  1.1579  0.5929  1.5369
  646THF    H1212497   0.096   0.325   4.134 -1.5802  0.3256 -2.3959
  646THF    H1312498   0.271   0.268   4.103 -0.0891 -2.4008 -0.2412
  647THF     O112499   5.188   4.471   2.130 -0.2054 -0.3607 -0.2604
  647THF     C212500   5.117   4.592   2.161 -0.3247  0.2688  0.3206
  647THF     C312501   5.323   4.514   2.095  0.4114  0.2590 -0.6792
  647THF     H412502   5.157   4.629   2.255 -1.6285  1.6179  0.3717
  647THF     H512503   5.010   4.572   2.172 -0.4066  1.5183  2.1158
  647THF     H612504   5.371   4.528   2.192 -0.4681  1.1889 -0.3675
  647THF     H712505   5.366   4.441   2.025 -0.6638  0.3183 -1.4130
  647THF     C812506   5.292   4.643   2.017 -0.4519 -0.0163 -0.1644
  647THF     C912507   5.144   4.674   2.040 -0.1296 -0.0745  0.1198
  647THF    H1012508   5.319   4.625   1.913  0.1833 -0.6401  0.1009
  647THF    H1112509   5.353   4.725   2.055 -1.8397 -0.1669  2.6526
  647THF    H1212510   5.109   4.775   2.062 -2.4060 -0.7257 -0.2281
  647THF    H1312511   5.087   4.637   1.955 -0.1636 -0.2199  0.2049
  648THF     O112512   1.298   0.699   3.990 -0.4467  0.1130  0.0565
  648THF     C212513   1.160   0.681   4.002 -0.0114 -0.0263 -0.6544
  648THF     C312514   1.338   0.743   4.116  0.6605 -0.0149 -0.2302
  648THF     H412515   1.146   0.578   4.035  3.3215 -0.6053 -0.6735
  648THF     H512516   1.107   0.686   3.907 -1.5431 -0.4815  0.1404
  648THF     H612517   1.344   0.658   4.185  1.3949  0.7151  0.6425
  648THF     H712518   1.438   0.785   4.108  0.0742  1.7913  1.2502
  648THF     C812519   1.231   0.846   4.161  0.1943 -0.0382 -0.5202
  648THF     C912520   1.108   0.775   4.104 -0.0122  0.7080 -0.6444
  648THF    H1012521   1.256   0.942   4.116 -2.4235  0.8669 -0.2452
  648THF    H1112522   1.216   0.865   4.268  0.4326 -1.0651 -0.2952
  648THF    H1212523   1.044   0.731   4.181 -0.1414  2.4210  0.2693
  648THF    H1312524   1.038   0.847   4.062 -0.5648  0.1605 -0.6816
  649THF     O112525   4.942   4.067   3.751 -0.1987 -0.0726  0.2835
  649THF     C212526   4.989   4.199   3.736 -0.2193  0.4685  0.0444
  649THF     C312527   5.058   3.983   3.733  0.6115 -0.6721  0.2447
  649THF     H412528   4.911   4.263   3.775 -0.6200 -0.1982  0.3499
  649THF     H512529   5.013   4.229   3.633  1.4496  0.6038  0.4419
  649THF     H612530   5.054   3.884   3.778  1.0565 -0.8360 -0.0614
  649THF     H712531   5.079   3.976   3.626  1.4855  0.5006  0.3208
  649THF     C812532   5.173   4.062   3.794 -0.2485  0.3707 -0.2511
  649THF     C912533   5.119   4.199   3.824  0.2293  0.3534  0.0641
  649THF    H1012534   5.247   4.072   3.714 -0.9853  3.8216 -0.6408
  649THF    H1112535   5.218   4.011   3.880  0.6408 -0.2844 -1.0775
  649THF    H1212536   5.100   4.203   3.931  0.0165  0.8795  0.0138
  649THF    H1312537   5.187   4.280   3.797 -2.4973  2.3630 -1.3095
  650THF     O112538   3.054   5.497   5.045 -0.2192 -0.2786 -0.5573
  650THF     C212539   2.938   5.424   5.078  0.2872  0.1148 -0.4873
  650THF     C312540   3.163   5.432   5.102  0.0856 -0.3946  0.5701
  650THF     H412541   2.853   5.442   5.013 -1.0095 -0.7856  0.8769
  650THF     H512542   2.905   5.454   5.178 -2.7014 -2.0576 -0.7086
  650THF     H612543   3.256   5.477   5.068  0.3630 -1.7736 -0.6026
  650THF     H712544   3.159   5.437   5.211 -0.7675  1.1741  0.5090
  650THF     C812545   3.134   5.288   5.050 -0.1043 -0.3969 -0.2927
  650THF     C912546   2.986   5.273   5.090  0.0245 -0.0497 -0.4399
  650THF    H1012547   3.197   5.212   5.096  0.0070 -0.2759 -0.2456
  650THF    H1112548   3.148   5.273   4.943 -1.0761 -0.7313 -0.3797
  650THF    H1212549   2.937   5.204   5.021 -0.5590  1.0368 -1.1265
  650THF    H1312550   2.986   5.231   5.191 -0.1817  0.9324 -0.0227
  651THF     O112551   3.786   3.806   1.780  0.2435 -0.7710 -0.1102
  651THF     C212552   3.651   3.863   1.767 -0.5130 -0.0549 -0.5384
  651THF     C312553   3.872   3.878   1.695  0.2484  0.6487  0.2048
  651THF     H412554   3.622   3.896   1.867  0.8544  0.5516 -0.3215
  651THF     H512555   3.573   3.804   1.720 -0.7374  1.3067 -1.9516
  651THF     H612556   3.977   3.874   1.724  0.4383 -2.3697 -0.6536
  651THF     H712557   3.860   3.835   1.596  0.1172  0.8669  0.1246
  651THF     C812558   3.812   4.016   1.697 -0.1561 -0.4586 -0.2897
  651THF     C912559   3.662   3.990   1.690  0.3249  0.4657  0.2679
  651THF    H1012560   3.846   4.067   1.606  1.4810 -1.9478 -0.5699
  651THF    H1112561   3.833   4.076   1.785 -0.2950  0.1935 -0.6981
  651THF    H1212562   3.611   4.077   1.730  2.8552  1.4518  1.5997
  651THF    H1312563   3.643   3.966   1.586 -1.8764  1.1507  0.4673
  652THF     O112564   0.930   3.763   1.219 -0.1964 -0.0201 -0.2224
  652THF     C212565   1.041   3.742   1.294  0.2994  0.0250 -0.0146
  652THF     C312566   0.898   3.906   1.215  0.2297  0.1114  0.5597
  652THF     H412567   1.091   3.647   1.274  0.1818  0.0321 -0.3485
  652THF     H512568   1.004   3.739   1.396  1.0571  0.0082  0.2685
  652THF     H612569   0.865   3.945   1.118 -0.4103 -2.1265 -0.1801
  652THF     H712570   0.814   3.928   1.281 -1.8605 -2.6789 -0.9534
  652THF     C812571   1.019   3.984   1.254  0.1644 -0.2903  0.0733
  652THF     C912572   1.118   3.868   1.267  0.5246  0.5831  0.5583
  652THF    H1012573   1.019   4.042   1.346  2.4067 -1.2962  0.7571
  652THF    H1112574   1.038   4.055   1.174 -1.2445 -0.6326 -0.5996
  652THF    H1212575   1.165   3.837   1.173  1.5824 -1.3216  1.6464
  652THF    H1312576   1.192   3.888   1.345  0.3717 -0.4793  0.9910
  653THF     O112577   2.402   3.734   5.494 -0.4977 -0.4584 -0.2201
  653THF     C212578   2.537   3.706   5.512 -0.2636  0.8647  0.0800
  653THF     C312579   2.348   3.633   5.419 -0.0823  0.0243  0.0314
  653THF     H412580   2.563   3.748   5.609 -1.5324  1.6989  0.0692
  653THF     H512581   2.603   3.747   5.436 -1.6451  1.6087 -0.7566
  653THF     H612582   2.239   3.625   5.416 -0.0943  0.4252 -1.8896
  653THF     H712583   2.365   3.664   5.316 -0.6179  0.5921  0.1047
  653THF     C812584   2.413   3.503   5.466 -0.2837 -0.8183  0.0658
  653THF     C912585   2.548   3.551   5.515 -0.5993 -0.3496  0.7194
  653THF    H1012586   2.434   3.433   5.386  1.5957 -0.8297  0.5257
  653THF    H1112587   2.359   3.450   5.545 -1.1357 -0.9954 -0.6116
  653THF    H1212588   2.563   3.508   5.614  1.1687 -0.2373  0.5397
  653THF    H1312589   2.627   3.512   5.451 -1.0063  0.5074 -0.3295
  654THF     O112590   0.720   2.482   0.158 -0.3595  0.0983  0.2879
  654THF     C212591   0.582   2.466   0.176  0.2537  0.0650 -0.2642
  654THF     C312592   0.758   2.426   0.034  0.4956  0.0493  0.0520
  654THF     H412593   0.537   2.549   0.231 -2.5155 -0.9130 -0.9206
  654THF     H512594   0.552   2.378   0.232 -1.5295  0.6877 -0.2026
  654THF     H612595   0.859   2.459   0.011 -0.2057  2.4029  0.1592
  654THF     H712596   0.753   2.317   0.030 -0.7758  0.1212 -1.9548
  654THF     C812597   0.639   2.473  -0.040 -0.3463 -0.3207  0.3480
  654THF     C912598   0.516   2.457   0.046 -0.3303 -0.2021  0.0333
  654THF    H1012599   0.628   2.425  -0.137 -0.1427 -0.7198  0.5238
  654THF    H1112600   0.656   2.581  -0.051 -0.4743 -0.4063 -0.8868
  654THF    H1212601   0.457   2.548   0.036  1.5122  1.1753  1.2254
  654THF    H1312602   0.467   2.366   0.012  0.0950 -0.7218  0.7944
  655THF     O112603   2.355   5.305   2.748 -0.1329  0.0503  0.6860
  655THF     C212604   2.463   5.260   2.672  0.3733  0.3079 -0.0711
  655THF     C312605   2.387   5.301   2.884  0.2694  0.0527  0.2985
  655THF     H412606   2.525   5.337   2.625  0.0714  0.6160  0.0301
  655THF     H512607   2.429   5.196   2.591 -1.5129  2.3217 -0.9844
  655THF     H612608   2.433   5.394   2.918  0.8703  0.3196 -1.1830
  655THF     H712609   2.296   5.281   2.940 -0.2954 -1.2367 -1.0172
  655THF     C812610   2.474   5.179   2.908  0.8839  0.1814 -0.3440
  655THF     C912611   2.549   5.188   2.773  0.4882  0.4823  0.1618
  655THF    H1012612   2.428   5.080   2.904  0.2736  0.3059  1.9009
  655THF    H1112613   2.540   5.182   2.995 -0.0579 -0.5412  0.4146
  655THF    H1212614   2.641   5.242   2.793 -0.9785  2.7072  1.3161
  655THF    H1312615   2.571   5.088   2.738  2.4106  0.9681 -0.1421
  656THF     O112616   4.912   3.412   1.743  0.1612  0.1999 -0.1507
  656THF     C212617   4.877   3.354   1.621 -0.2827 -0.1231 -0.3852
  656THF     C312618   5.034   3.485   1.720  0.0567  0.6972 -0.3817
  656THF     H412619   4.798   3.409   1.570  1.3828 -0.8587 -4.0935
  656THF     H512620   4.837   3.258   1.653 -0.9833  1.0307  2.4741
  656THF     H612621   5.025   3.584   1.764 -1.3606  0.6371 -0.4865
  656THF     H712622   5.103   3.427   1.781  0.4308  1.7642  0.2461
  656THF     C812623   5.072   3.482   1.573 -0.0972  0.7926  0.2113
  656THF     C912624   5.003   3.352   1.539 -0.0680  0.0639  0.1139
  656THF    H1012625   5.176   3.504   1.548 -0.4193  0.2206 -1.8605
  656THF    H1112626   5.015   3.567   1.535  2.8503  3.2171  0.8145
  656THF    H1212627   4.972   3.337   1.436 -2.7776 -2.5734  1.1568
  656THF    H1312628   5.064   3.272   1.581  0.0990  0.9735  1.6774
  657THF     O112629   3.549   3.707   2.814 -0.5901  0.0424  0.5002
  657THF     C212630   3.430   3.781   2.831  0.1188  0.8427 -0.2906
  657THF     C312631   3.590   3.680   2.954 -0.3274 -0.3514 -0.3355
  657THF     H412632   3.369   3.811   2.746 -2.2996  1.1562  1.4529
  657THF     H512633   3.459   3.883   2.856 -2.0666  1.1052  1.4931
  657THF     H612634   3.634   3.581   2.966  0.3939 -0.2297 -1.7685
  657THF     H712635   3.657   3.757   2.994 -0.9684 -0.4547  1.0134
  657THF     C812636   3.469   3.676   3.039  0.2376  0.1073  0.0664
  657THF     C912637   3.357   3.714   2.947  0.1936  0.4482  0.2290
  657THF    H1012638   3.476   3.753   3.115 -4.9865  1.5171 -0.5431
  657THF    H1112639   3.451   3.584   3.095 -0.5432  0.3696  0.2513
  657THF    H1212640   3.297   3.631   2.910  0.5572  0.0394  0.5476
  657THF    H1312641   3.280   3.775   2.994  2.1508  3.2284  0.0558
  658THF     O112642   5.196   0.580   0.344  0.7686  0.3432  0.4609
  658THF     C212643   5.123   0.512   0.245  0.1484  0.9434 -0.2671
  658THF     C312644   5.304   0.492   0.391  0.0857 -0.2902  0.0389
  658THF     H412645   5.134   0.563   0.150  2.1798  1.7912  0.3659
  658THF     H512646   5.016   0.504   0.261 -0.0197  0.6471 -1.4381
  658THF     H612647   5.395   0.545   0.419 -0.5151  1.0043 -0.4138
  658THF     H712648   5.272   0.437   0.480  1.1711  1.8617  1.8633
  658THF     C812649   5.324   0.394   0.279 -0.6564  0.6871 -0.0807
  658THF     C912650   5.181   0.372   0.232 -0.1552  0.3294  0.0379
  658THF    H1012651   5.376   0.307   0.320  0.3414  1.5666  0.5882
  658THF    H1112652   5.381   0.437   0.196 -1.1962  0.6683 -0.4591
  658THF    H1212653   5.164   0.317   0.139 -2.0486 -0.0418  0.5603
  658THF    H1312654   5.130   0.316   0.310 -0.4650  1.9679  1.0638
  659THF     O112655   0.553   1.960   2.209  0.1787 -0.7241  0.1637
  659THF     C212656   0.588   2.098   2.215  0.2421 -0.0692 -0.1250
  659THF     C312657   0.588   1.901   2.328  0.1708  0.7526  0.2169
  659THF     H412658   0.509   2.153   2.265  1.0101  0.6361  0.3497
  659THF     H512659   0.594   2.141   2.115  0.3708 -3.4748 -1.6907
  659THF     H612660   0.498   1.896   2.389 -0.1428  1.6975 -0.1565
  659THF     H712661   0.612   1.796   2.310 -0.0422  0.7260  0.0758
  659THF     C812662   0.694   1.979   2.389 -0.1856 -1.0018  0.1464
  659THF     C912663   0.710   2.108   2.307  0.1347 -0.0935 -0.1139
  659THF    H1012664   0.796   1.942   2.397  0.8673  1.7145  0.3777
  659THF    H1112665   0.661   2.002   2.490  0.4008  0.6564 -0.0178
  659THF    H1212666   0.735   2.204   2.352 -0.2964  0.1126 -0.3129
  659THF    H1312667   0.803   2.083   2.254 -0.8070 -1.1459 -1.3529
  660THF     O112668   4.295   2.058   1.053  0.6498  0.3215 -0.0078
  660THF     C212669   4.379   2.151   1.114  0.3488 -0.5973  0.0508
  660THF     C312670   4.190   2.025   1.142  0.0768  0.5637 -0.3676
  660THF     H412671   4.331   2.249   1.118 -0.7962 -1.1812  1.2107
  660THF     H512672   4.475   2.160   1.063  1.7951  1.2147  2.8389
  660THF     H612673   4.095   2.077   1.128  0.4871  1.9162  1.4366
  660THF     H712674   4.176   1.918   1.129 -0.7897  0.0549  3.3825
  660THF     C812675   4.246   2.057   1.281 -0.6499  0.3575 -0.5727
  660THF     C912676   4.394   2.090   1.258 -0.2903 -0.0888 -0.5508
  660THF    H1012677   4.229   1.975   1.351  0.3115 -1.1276 -1.9723
  660THF    H1112678   4.196   2.148   1.314 -0.5369 -0.8787  3.5768
  660THF    H1212679   4.430   2.163   1.331  0.8985 -0.6403 -0.5663
  660THF    H1312680   4.463   2.006   1.249  1.0832  1.0610 -1.0571
  661THF     O112681   2.292   4.474   4.843 -0.2832  0.0531 -0.2787
  661THF     C212682   2.332   4.579   4.753 -0.7727  0.5230  0.8894
  661THF     C312683   2.289   4.346   4.767 -0.2245 -0.7062 -0.5024
  661THF     H412684   2.440   4.566   4.752 -1.1030 -3.0995  0.8354
  661THF     H512685   2.286   4.675   4.779 -1.2168  0.9112 -1.1979
  661THF     H612686   2.380   4.299   4.804  0.8137  0.7608 -1.1036
  661THF     H712687   2.199   4.293   4.797 -0.5487  1.2775  2.4380
  661THF     C812688   2.303   4.384   4.624  0.3312 -0.6145  0.2262
  661THF     C912689   2.283   4.530   4.624 -0.2613 -0.6370  0.6449
  661THF    H1012690   2.232   4.332   4.560  0.8557 -2.5852  1.1784
  661THF    H1112691   2.399   4.347   4.588 -0.0956 -0.4131 -1.1727
  661THF    H1212692   2.351   4.574   4.550 -1.6477 -1.1078 -0.9677
  661THF    H1312693   2.178   4.554   4.608 -0.0403 -0.0530  0.0277
  662THF     O112694   3.281   2.557   2.048 -0.0405 -0.1476  0.2306
  662THF     C212695   3.372   2.466   1.980 -0.5274  0.4542 -0.0992
  662THF     C312696   3.324   2.569   2.184 -0.4062  1.1337 -0.2766
  662THF     H412697   3.468   2.515   1.961 -0.7497  1.4897  1.2592
  662THF     H512698   3.330   2.434   1.885 -0.0516  0.8008 -0.4349
  662THF     H612699   3.391   2.648   2.218  1.1708 -0.9892  1.8905
  662THF     H712700   3.233   2.578   2.243 -0.7628 -1.4240 -0.2977
  662THF     C812701   3.408   2.447   2.209 -0.7734 -0.2649 -0.2977
  662THF     C912702   3.387   2.360   2.091 -0.3091 -0.5274  0.4520
  662THF    H1012703   3.373   2.398   2.299 -2.4033 -0.1092 -0.8039
  662THF    H1112704   3.512   2.478   2.217 -0.9374  0.4998 -0.9699
  662THF    H1212705   3.475   2.297   2.080  0.6057  0.9923 -1.4702
  662THF    H1312706   3.294   2.303   2.091 -0.9119  0.4165 -0.5875
  663THF     O112707   0.583   0.641   1.194  0.2927 -0.2489  0.0475
  663THF     C212708   0.685   0.723   1.239  0.1409 -0.3132 -0.1262
  663THF     C312709   0.562   0.547   1.299  0.0426  0.5230 -0.0682
  663THF     H412710   0.652   0.803   1.305  1.6746 -0.5344  0.9592
  663THF     H512711   0.737   0.770   1.155 -2.1149  0.5388 -1.1076
  663THF     H612712   0.473   0.572   1.356 -0.1074 -0.1248 -0.0049
  663THF     H712713   0.552   0.446   1.259 -2.4121  0.1673  1.2035
  663THF     C812714   0.686   0.551   1.393  0.6597  0.3611 -0.6583
  663THF     C912715   0.782   0.642   1.320  0.1023 -0.7030  0.5525
  663THF    H1012716   0.743   0.459   1.407 -2.3769 -1.6438 -0.3691
  663THF    H1112717   0.664   0.586   1.494 -1.0289 -0.5817 -0.6547
  663THF    H1212718   0.837   0.701   1.393 -1.3673  0.6129  0.6386
  663THF    H1312719   0.846   0.579   1.258 -0.3281 -1.1910  0.5947
  664THF     O112720   4.010   5.283   1.690 -0.1129 -0.0743 -0.0110
  664THF     C212721   3.979   5.306   1.831 -0.5211  0.4698 -0.8358
  664THF     C312722   3.961   5.155   1.653  0.5163 -0.2581  0.2683
  664THF     H412723   3.877   5.344   1.839 -1.0250 -0.8922 -0.5566
  664THF     H512724   4.045   5.386   1.868  0.0784  1.0348 -3.0086
  664THF     H612725   3.860   5.165   1.615  0.7816  2.4353  0.0600
  664THF     H712726   4.021   5.105   1.577 -0.6607 -3.4848  1.3223
  664THF     C812727   3.985   5.076   1.774 -0.2131 -0.1418 -0.3525
  664THF     C912728   4.009   5.170   1.890  0.2569  0.4472  0.1810
  664THF    H1012729   4.073   5.016   1.753 -0.2164  0.0369 -0.8956
  664THF    H1112730   3.911   4.999   1.795  1.1157 -1.0175  1.3474
  664THF    H1212731   3.948   5.139   1.975  1.0489  2.0759  1.4010
  664THF    H1312732   4.116   5.172   1.909  0.6249  2.4207 -1.7089
  665THF     O112733   4.633   5.249   5.095 -0.4328 -0.0141 -0.0935
  665THF     C212734   4.663   5.157   5.193 -0.1152 -0.4600 -0.6524
  665THF     C312735   4.758   5.278   5.037 -0.2914 -0.4909  0.1790
  665THF     H412736   4.684   5.055   5.161  0.6535  0.4451 -3.2197
  665THF     H512737   4.585   5.163   5.269  0.0824  1.0011 -0.5312
  665THF     H612738   4.776   5.192   4.973 -0.7981  0.4295 -1.2364
  665THF     H712739   4.765   5.365   4.972 -0.8145 -0.0497  0.6996
  665THF     C812740   4.860   5.289   5.157 -0.1359 -0.0388 -0.6066
  665THF     C912741   4.794   5.199   5.258  0.6404 -0.6903  0.9174
  665THF    H1012742   4.871   5.390   5.196  0.2979  0.2705 -1.5052
  665THF    H1112743   4.955   5.241   5.133 -0.3720 -0.7483 -0.1681
  665THF    H1212744   4.858   5.116   5.285  0.7025 -0.6212  0.9853
  665THF    H1312745   4.767   5.258   5.346  1.1963  0.5587  0.2832
  666THF     O112746   3.639   2.059   2.480 -0.0538  0.1597 -0.0881
  666THF     C212747   3.673   2.159   2.386  0.0780  0.0116 -0.6675
  666THF     C312748   3.562   1.961   2.421 -0.1758 -0.8141  0.1649
  666THF     H412749   3.768   2.211   2.400 -0.3974  0.1488  2.8346
  666THF     H512750   3.602   2.240   2.397  1.7129  1.4595 -0.3886
  666THF     H612751   3.570   1.869   2.480 -0.3849 -0.1608  1.2432
  666THF     H712752   3.459   1.993   2.409  0.0956 -0.4640 -1.3967
  666THF     C812753   3.609   1.951   2.277 -0.2690 -0.0882  0.1698
  666THF     C912754   3.669   2.092   2.247 -0.1195 -0.4625 -0.1501
  666THF    H1012755   3.524   1.937   2.210 -1.8547 -0.0972  2.0615
  666THF    H1112756   3.679   1.873   2.247 -1.4641 -0.7583 -0.9488
  666THF    H1212757   3.766   2.084   2.198  0.9074  1.3703  1.3826
  666THF    H1312758   3.610   2.153   2.179 -0.0720 -0.4292 -0.1622
  667THF     O112759   0.342   3.326   5.345 -0.2571 -0.2387  0.1359
  667THF     C212760   0.429   3.287   5.448  0.3038 -0.7140  0.3581
  667THF     C312761   0.298   3.452   5.359  0.1490 -0.3542  0.1626
  667THF     H412762   0.528   3.256   5.414  0.5122  1.1485 -0.8449
  667THF     H512763   0.390   3.204   5.507 -2.4307  0.1685 -0.0643
  667THF     H612764   0.262   3.504   5.271 -2.2273  0.8757  1.7204
  667THF     H712765   0.204   3.447   5.415  1.0219 -0.6158  1.6894
  667THF     C812766   0.409   3.523   5.419 -0.5502  0.0831  0.3216
  667THF     C912767   0.458   3.421   5.519  0.1989 -0.0364 -0.6040
  667THF    H1012768   0.392   3.620   5.465  0.6198 -0.6627  2.5279
  667THF    H1112769   0.494   3.537   5.352 -1.3624  0.9348 -0.5481
  667THF    H1212770   0.562   3.434   5.549  0.4280  1.1972 -1.8604
  667THF    H1312771   0.391   3.422   5.605  0.2934 -2.6299 -0.3982
  668THF     O112772   3.976   0.861   1.816  0.0156  0.4399 -0.2183
  668THF     C212773   3.889   0.903   1.922 -0.7207  0.2061  0.3359
  668THF     C312774   4.114   0.895   1.845 -0.0596  0.2886  0.2547
  668THF     H412775   3.900   0.829   2.001 -1.3553  0.8836  1.0841
  668THF     H512776   3.786   0.903   1.886 -0.5135 -1.7604 -0.3926
  668THF     H612777   4.176   0.810   1.874 -0.1665  0.9601  2.7056
  668THF     H712778   4.144   0.941   1.751  1.6944 -2.7348 -0.7921
  668THF     C812779   4.100   0.990   1.971  0.5420 -0.1710  0.2603
  668THF     C912780   3.953   1.033   1.970  0.5863 -0.0187  0.4843
  668THF    H1012781   4.166   1.073   1.949  1.4886 -1.3232 -1.4597
  668THF    H1112782   4.114   0.940   2.066 -4.1654 -1.0933  0.7127
  668THF    H1212783   3.911   1.069   2.063 -1.2286  0.3601 -0.4319
  668THF    H1312784   3.931   1.099   1.886 -2.0322 -1.3188  0.0509
  669THF     O112785   3.504   5.365   1.252 -0.3942 -0.0865 -0.2224
  669THF     C212786   3.419   5.468   1.223 -0.4837  0.2300  1.0918
  669THF     C312787   3.488   5.325   1.390 -0.7578 -0.8200  0.3357
  669THF     H412788   3.397   5.476   1.117  1.6150  0.0651  0.6044
  669THF     H512789   3.457   5.565   1.255  2.2000 -0.2549 -0.3179
  669THF     H612790   3.478   5.218   1.407 -1.5322 -1.1554 -1.8578
  669THF     H712791   3.569   5.366   1.449 -0.5823 -1.3306  0.4558
  669THF     C812792   3.357   5.394   1.435 -0.2503 -0.1640  0.0592
  669THF     C912793   3.298   5.439   1.304  0.3442  0.0171 -0.2435
  669THF    H1012794   3.383   5.490   1.480  0.2913  0.7344 -2.0631
  669THF    H1112795   3.292   5.336   1.501 -0.6150 -1.2150 -1.1837
  669THF    H1212796   3.238   5.363   1.253 -0.6471 -0.4888  1.5729
  669THF    H1312797   3.244   5.533   1.312  1.7238  0.8707 -0.7873
  670THF     O112798   1.668   2.218   2.482 -0.1282  1.0056  0.3968
  670THF     C212799   1.593   2.329   2.537  0.2410  0.0457 -0.1522
  670THF     C312800   1.667   2.225   2.341 -0.6088 -0.6748 -0.3147
  670THF     H412801   1.658   2.416   2.533  1.2312 -0.6683 -0.1556
  670THF     H512802   1.560   2.315   2.640  2.6774  0.7411  0.7960
  670THF     H612803   1.732   2.301   2.298 -0.5144 -0.4451  0.2212
  670THF     H712804   1.686   2.125   2.302 -2.3864 -1.1951  0.0415
  670THF     C812805   1.526   2.269   2.311 -0.0386  0.1695 -0.1094
  670THF     C912806   1.474   2.330   2.438 -0.4742  0.2777 -0.6595
  670THF    H1012807   1.457   2.189   2.284  0.6012  0.0157 -1.4189
  670THF    H1112808   1.532   2.335   2.224 -0.3393 -1.5099 -1.4682
  670THF    H1212809   1.426   2.427   2.426 -1.4179  0.2688  2.2560
  670THF    H1312810   1.397   2.264   2.478 -0.4773 -1.3517 -3.1298
  671THF     O112811   0.314   2.316   0.968  0.1554  0.2626  0.4393
  671THF     C212812   0.424   2.403   1.004 -0.6819  0.4526  0.2229
  671THF     C312813   0.339   2.185   1.026  0.5046  0.4108 -0.3581
  671THF     H412814   0.424   2.439   1.107  2.1080  1.1259  0.0580
  671THF     H512815   0.423   2.485   0.932 -1.3992 -2.1500 -3.0074
  671THF     H612816   0.301   2.195   1.127  0.0888 -1.4018 -0.3016
  671THF     H712817   0.278   2.112   0.974 -1.9561  1.6028  0.6803
  671THF     C812818   0.487   2.162   1.007 -0.0648  0.2828  0.4264
  671THF     C912819   0.546   2.309   0.980  0.1925 -0.2616 -0.7108
  671THF    H1012820   0.514   2.108   0.916 -0.7453 -0.2811  0.5447
  671THF    H1112821   0.540   2.121   1.093 -0.6898 -0.1259  0.6270
  671THF    H1212822   0.636   2.330   1.038 -0.6550  0.9379  0.2350
  671THF    H1312823   0.578   2.305   0.877  1.1494 -1.0722 -0.3889
  672THF     O112824   4.143   2.488   0.165 -0.1570  0.0140 -0.1699
  672THF     C212825   4.069   2.600   0.121 -0.0523  0.6611 -0.3154
  672THF     C312826   4.076   2.432   0.272  0.1794 -1.1943 -0.5296
  672THF     H412827   4.107   2.632   0.024  1.0720  0.5504  0.0717
  672THF     H512828   4.076   2.683   0.192 -2.0403 -0.4730  1.2982
  672THF     H612829   4.115   2.342   0.321  0.0228 -0.6050  0.7033
  672THF     H712830   4.094   2.508   0.347  1.3711 -1.4314 -0.5488
  672THF     C812831   3.943   2.424   0.226  0.3835  0.0494 -0.0250
  672THF     C912832   3.930   2.540   0.128  0.2546  0.1225  0.4823
  672THF    H1012833   3.870   2.433   0.306 -2.5487  2.0370 -2.6777
  672THF    H1112834   3.914   2.330   0.177 -1.6611 -0.3163  1.7242
  672THF    H1212835   3.915   2.499   0.027 -0.8333 -1.2470  1.1618
  672THF    H1312836   3.859   2.618   0.154 -0.9175 -0.4642 -0.7659
  673THF     O112837   5.288   5.101   2.056 -0.3249 -0.0484 -0.7704
  673THF     C212838   5.389   5.009   2.012  0.2133 -0.6964  0.1352
  673THF     C312839   5.308   5.228   2.003  1.2012 -0.3365  0.4146
  673THF     H412840   5.349   4.962   1.923 -2.5501  1.0770  0.3124
  673THF     H512841   5.400   4.933   2.090  1.1151  1.1106  1.8756
  673THF     H612842   5.264   5.243   1.904 -1.6451 -1.9733  1.3158
  673THF     H712843   5.254   5.302   2.062 -0.9529 -0.6131 -1.0588
  673THF     C812844   5.465   5.248   2.002 -0.3793  0.0514  0.1025
  673THF     C912845   5.512   5.105   1.994  0.0039 -0.4964  0.5956
  673THF    H1012846   5.490   5.295   2.097 -1.9084 -1.9868  1.6148
  673THF    H1112847   5.493   5.321   1.927  0.4165  1.3384  1.6016
  673THF    H1212848   5.579   5.081   1.912 -0.2285  1.4986 -0.2281
  673THF    H1312849   5.573   5.095   2.084 -0.5610  1.2427  1.2183
  674THF     O112850   1.493   2.176   5.453 -0.0590  0.3867 -0.3889
  674THF     C212851   1.510   2.283   5.556  0.8367  0.2445 -0.2983
  674THF     C312852   1.575   2.219   5.344  0.3409  0.6210  0.8449
  674THF     H412853   1.604   2.267   5.608  0.0172 -0.8142  0.9448
  674THF     H512854   1.428   2.283   5.627  1.3480 -3.6624  0.5281
  674THF     H612855   1.676   2.188   5.370 -0.9473 -4.0671  1.0896
  674THF     H712856   1.529   2.163   5.263  1.1970 -1.5615  1.7947
  674THF     C812857   1.543   2.366   5.338  0.8957  0.5459 -0.1960
  674THF     C912858   1.503   2.410   5.480  0.7011  0.3481 -0.3080
  674THF    H1012859   1.459   2.374   5.269  0.6993  1.0217  0.0907
  674THF    H1112860   1.631   2.418   5.302  0.9640 -0.7135 -1.9467
  674THF    H1212861   1.568   2.488   5.520 -0.5369  1.3486 -0.1892
  674THF    H1312862   1.403   2.453   5.471  1.6648  2.8487  0.3250
  675THF     O112863   4.278   0.679   2.149 -0.4579  0.5037  0.3008
  675THF     C212864   4.230   0.678   2.281  0.7469 -0.0421 -0.4538
  675THF     C312865   4.408   0.742   2.137 -0.4149  0.0005 -0.3310
  675THF     H412866   4.170   0.589   2.301 -1.9021  1.5793 -0.7620
  675THF     H512867   4.159   0.760   2.289  1.1357  0.3898 -1.3315
  675THF     H612868   4.467   0.715   2.049  1.4503  1.1186  0.5111
  675THF     H712869   4.391   0.850   2.132  1.9903  0.4445 -0.0779
  675THF     C812870   4.466   0.714   2.277 -0.0914 -0.1192  0.4285
  675THF     C912871   4.349   0.699   2.369  0.0613 -0.5335  0.2249
  675THF    H1012872   4.528   0.800   2.301 -2.1513  1.1914  1.3317
  675THF    H1112873   4.521   0.620   2.283  2.4594  1.2055 -0.7476
  675THF    H1212874   4.362   0.614   2.436 -2.3674  0.3642  1.9597
  675THF    H1312875   4.344   0.790   2.429  0.2047 -1.7764  2.1764
  676THF     O112876   4.232   0.917   3.759 -0.6788  0.5436  0.6051
  676THF     C212877   4.258   0.775   3.766 -0.1059 -0.2692 -0.2400
  676THF     C312878   4.336   0.979   3.677 -0.3947  0.6039 -0.3056
  676THF     H412879   4.235   0.724   3.673  1.3074  0.7273 -1.1741
  676THF     H512880   4.213   0.729   3.854  2.1557 -0.8689  0.6707
  676THF     H612881   4.319   0.964   3.571  3.9888  1.8203 -1.3932
  676THF     H712882   4.338   1.086   3.697 -0.3549  0.8914 -1.7951
  676THF     C812883   4.461   0.894   3.718 -0.2294 -0.3364  0.1454
  676THF     C912884   4.410   0.788   3.799 -0.7093 -0.0361  0.1139
  676THF    H1012885   4.537   0.952   3.770  0.3053 -1.4593  0.6484
  676THF    H1112886   4.492   0.860   3.619  2.2076 -0.1272  0.7845
  676THF    H1212887   4.457   0.691   3.782 -0.0758  0.2125  0.4020
  676THF    H1312888   4.431   0.817   3.902  0.9507 -1.8090  0.3465
  677THF     O112889   4.841   3.615   0.229  0.0917  0.1764  0.1199
  677THF     C212890   4.828   3.677   0.358 -0.6634  0.2331  0.5502
  677THF     C312891   4.957   3.672   0.164 -0.6660 -0.4704 -0.1845
  677THF     H412892   4.855   3.607   0.437 -0.6770  1.6642  1.8661
  677THF     H512893   4.727   3.710   0.384 -0.2566  0.8725  1.3654
  677THF     H612894   5.027   3.600   0.121 -0.4037 -1.7078  2.1807
  677THF     H712895   4.933   3.745   0.087  2.7280 -0.0945 -1.0391
  677THF     C812896   5.042   3.734   0.273 -0.1290  0.7565  0.3265
  677THF     C912897   4.936   3.783   0.367  0.2900 -0.5399 -0.4804
  677THF    H1012898   5.107   3.816   0.241 -1.0214  0.5629 -2.2341
  677THF    H1112899   5.105   3.668   0.332 -0.3458  0.2379 -0.0189
  677THF    H1212900   4.983   3.795   0.465 -1.6889 -0.0846  0.4506
  677THF    H1312901   4.896   3.884   0.354 -1.2647 -0.8836  1.2477
  678THF     O112902   0.038   4.344   5.142  0.5070 -0.8995  0.1882
  678THF     C212903   0.037   4.399   5.268 -0.6227 -0.4071 -0.3671
  678THF     C312904   0.106   4.221   5.151  0.4672 -0.5054 -0.0724
  678THF     H412905  -0.042   4.359   5.332 -1.0513 -1.2791 -1.4089
  678THF     H512906   0.023   4.505   5.246  0.2721 -0.3559 -0.7001
  678THF     H612907   0.030   4.144   5.160  0.4108 -0.3224  1.2008
  678THF     H712908   0.163   4.205   5.060 -0.2098  0.0012 -0.5987
  678THF     C812909   0.203   4.236   5.270 -0.4778 -0.3563  0.0916
  678THF     C912910   0.169   4.378   5.334 -0.1102 -0.3305  0.2572
  678THF    H1012911   0.303   4.239   5.228 -0.2680  0.2221  0.6178
  678THF    H1112912   0.177   4.160   5.343 -0.6816 -1.1530 -0.7871
  678THF    H1212913   0.163   4.384   5.443  0.2523  0.0233  0.2612
  678THF    H1312914   0.229   4.465   5.311 -1.4234  0.1467 -1.5749
  679THF     O112915   3.067   0.815   1.660 -0.2192  0.3322  0.0585
  679THF     C212916   3.013   0.698   1.723  0.2399  0.3566  0.6646
  679THF     C312917   3.028   0.825   1.527 -0.1905  0.3663  0.1964
  679THF     H412918   3.003   0.708   1.831  1.7721  2.2340  0.6883
  679THF     H512919   3.082   0.614   1.712 -0.5528 -0.0917 -1.1975
  679THF     H612920   3.002   0.930   1.514  0.2587  0.3340 -1.1627
  679THF     H712921   3.107   0.803   1.455  0.3791 -0.1535  0.9583
  679THF     C812922   2.912   0.718   1.509 -0.3167  0.1372 -0.0945
  679THF     C912923   2.888   0.662   1.646 -0.6884  0.3460 -0.8250
  679THF    H1012924   2.947   0.648   1.434 -0.2737 -0.0039  0.0581
  679THF    H1112925   2.824   0.770   1.471  0.0772  0.4129 -0.6521
  679THF    H1212926   2.816   0.725   1.698  1.3542  0.4054  2.1462
  679THF    H1312927   2.862   0.556   1.653  0.6842  0.1050  2.1612
  680THF     O112928   4.162   4.277   2.299  0.0688  0.4710 -0.8934
  680THF     C212929   4.250   4.168   2.317 -0.4898  0.5572  0.2603
  680THF     C312930   4.235   4.392   2.246  0.3294 -0.4005  0.1395
  680THF     H412931   4.218   4.064   2.315 -3.2736  1.3393  0.5150
  680THF     H512932   4.295   4.185   2.415  1.3215  0.1277 -0.4547
  680THF     H612933   4.160   4.461   2.206  0.8149  0.7089  1.0600
  680THF     H712934   4.294   4.447   2.320  1.3366 -0.7531 -0.3844
  680THF     C812935   4.330   4.320   2.141 -0.3040 -0.3055 -0.5715
  680THF     C912936   4.364   4.189   2.207  0.3031  0.3670 -0.1350
  680THF    H1012937   4.418   4.376   2.108 -0.1313 -0.7023 -0.7933
  680THF    H1112938   4.271   4.308   2.050 -0.8222 -2.9634  0.0432
  680THF    H1212939   4.374   4.101   2.142 -0.0315 -1.7751  2.5522
  680THF    H1312940   4.460   4.182   2.257  0.3539  0.8057 -0.1662
  681THF     O112941   0.093   1.045   0.824 -0.1877 -0.4692 -0.2515
  681THF     C212942   0.112   0.913   0.765  0.1901 -0.4362 -0.0780
  681THF     C312943   0.166   1.050   0.948 -0.4172 -0.1971 -0.3823
  681THF     H412944   0.074   0.913   0.663 -1.4981 -1.2915  0.5124
  681THF     H512945   0.045   0.844   0.815 -1.0109  1.1567  0.5927
  681THF     H612946   0.196   1.153   0.965  1.0121 -0.9418  2.0700
  681THF     H712947   0.119   1.013   1.039 -0.5186  2.1411  0.5968
  681THF     C812948   0.288   0.962   0.922  0.3801 -0.2714 -0.9659
  681THF     C912949   0.260   0.884   0.794 -0.1758 -0.9694  0.0589
  681THF    H1012950   0.305   0.901   1.011  1.7851  0.4727 -0.6987
  681THF    H1112951   0.370   1.033   0.911  2.5045 -2.0174  1.9936
  681THF    H1212952   0.317   0.928   0.712 -1.7354  1.0221 -0.0474
  681THF    H1312953   0.278   0.781   0.765 -0.1531 -1.1041  0.5481
  682THF     O112954   1.574   3.937   0.919 -0.1031 -0.3745  0.2280
  682THF     C212955   1.456   3.967   1.000  0.1379 -0.0254  0.1464
  682THF     C312956   1.597   3.793   0.923 -0.6429 -0.2775  0.0495
  682THF     H412957   1.366   3.947   0.942  0.2121 -2.4713  0.7806
  682THF     H512958   1.461   4.067   1.044  1.0661 -0.8141  1.8993
  682THF     H612959   1.555   3.740   0.837 -0.6157  1.3982 -1.0320
  682THF     H712960   1.703   3.765   0.916 -0.2292  0.8160  1.5188
  682THF     C812961   1.532   3.746   1.054 -0.0715  0.3415  0.2340
  682THF     C912962   1.475   3.872   1.112 -0.8178 -0.0551  0.0518
  682THF    H1012963   1.602   3.696   1.122  0.9700  1.4058 -0.0141
  682THF    H1112964   1.451   3.683   1.018 -0.6893  1.5805 -0.6028
  682THF    H1212965   1.384   3.851   1.168 -1.0992 -0.3601 -0.5035
  682THF    H1312966   1.550   3.920   1.175 -1.5412  1.7704 -0.4223
  683THF     O112967   5.379   1.706   3.224  0.0377 -0.0533  0.1158
  683THF     C212968   5.431   1.684   3.091  0.7887  0.3314 -0.0636
  683THF     C312969   5.461   1.806   3.280  0.0211 -0.0552  0.0768
  683THF     H412970   5.366   1.629   3.023 -0.3018  0.5236  0.7929
  683THF     H512971   5.525   1.630   3.088  1.7566  2.0055 -1.9142
  683THF     H612972   5.419   1.866   3.361 -0.3321  1.9240 -1.5080
  683THF     H712973   5.550   1.754   3.318  1.4964  0.3610 -2.5313
  683THF     C812974   5.501   1.900   3.166 -0.6102 -0.6789  0.2540
  683THF     C912975   5.460   1.822   3.045  0.3821 -0.0349  0.5815
  683THF    H1012976   5.607   1.920   3.179 -1.1582  1.2967  2.2973
  683THF    H1112977   5.452   1.997   3.179  0.9814  0.2420 -0.4490
  683THF    H1212978   5.374   1.879   3.009 -1.3072 -2.2296  0.9571
  683THF    H1312979   5.529   1.817   2.961  0.7510  0.5753  0.8438
  684THF     O112980   0.669   1.392   2.918 -0.6672 -0.5015 -0.6499
  684THF     C212981   0.759   1.502   2.876 -0.3088  0.0667 -0.1924
  684THF     C312982   0.730   1.271   2.880  0.0198 -0.0404 -0.4886
  684THF     H412983   0.837   1.508   2.952  1.0376 -0.0293 -1.5310
  684THF     H512984   0.723   1.605   2.871  1.8868  0.9259  0.4896
  684THF     H612985   0.808   1.241   2.949  0.1984  0.0401 -0.6538
  684THF     H712986   0.658   1.190   2.874 -1.2155  0.9408  0.4674
  684THF     C812987   0.792   1.306   2.736 -0.9458 -0.0496  0.0952
  684THF     C912988   0.818   1.454   2.748 -0.2084  0.1795 -0.2069
  684THF    H1012989   0.720   1.274   2.660 -1.7750 -4.4975  2.3753
  684THF    H1112990   0.886   1.253   2.722 -0.9197 -0.1657  0.6652
  684THF    H1212991   0.922   1.483   2.732 -0.0824  0.2492  0.6777
  684THF    H1312992   0.762   1.493   2.664  1.6661 -0.5736 -1.8940
  685THF     O112993   4.025   1.252   0.446  0.1092 -0.4255  0.7277
  685THF     C212994   3.948   1.173   0.363  0.1823 -0.3368  0.8596
  685THF     C312995   4.018   1.208   0.581  0.8889  0.7616 -0.0905
  685THF     H412996   4.012   1.117   0.295 -0.3865  1.5406 -1.3451
  685THF     H512997   3.881   1.240   0.309  1.8736  0.8839  0.1909
  685THF     H612998   4.111   1.202   0.637  0.7395 -1.7635 -0.0056
  685THF     H712999   3.939   1.266   0.628 -2.3966 -0.8732 -3.1315
  685THF     C813000   3.963   1.068   0.570 -0.1948  0.1767  0.7706
  685THF     C913001   3.870   1.070   0.449 -0.3320 -0.5804  0.6158
  685THF    H1013002   3.913   1.030   0.660 -1.8444  2.0110  0.6836
  685THF    H1113003   4.043   1.000   0.541 -1.5217 -1.6122  1.1289
  685THF    H1213004   3.873   0.984   0.383  1.8832  0.7875 -1.1971
  685THF    H1313005   3.773   1.109   0.481 -0.8176 -1.8563  0.7433
  686THF     O113006   4.996   3.444   2.151  0.1167  0.2986 -0.4621
  686THF     C213007   4.984   3.309   2.108 -0.2063 -0.3854  0.2506
  686THF     C313008   4.891   3.509   2.078  0.8578 -0.3188  0.1912
  686THF     H413009   5.038   3.243   2.175  0.6097 -0.5186 -0.5155
  686THF     H513010   5.039   3.293   2.015 -0.2412 -3.3267  0.6433
  686THF     H613011   4.851   3.591   2.137 -0.6695 -0.9137  0.0314
  686THF     H713012   4.934   3.527   1.980  0.4341 -2.0747 -0.3516
  686THF     C813013   4.781   3.411   2.069  0.5606 -0.3215  0.1837
  686THF     C913014   4.835   3.279   2.120  0.0844 -0.4539  0.1077
  686THF    H1013015   4.752   3.405   1.964  2.7261 -1.5682 -0.4116
  686THF    H1113016   4.692   3.441   2.125 -0.5805 -2.3632 -0.4130
  686THF    H1213017   4.800   3.270   2.223 -0.8354  1.8088  0.0493
  686THF    H1313018   4.799   3.197   2.059  0.2939 -0.2674 -0.2688
  687THF     O113019   3.594   1.195   3.852 -0.1673  1.2593 -0.3073
  687THF     C213020   3.705   1.108   3.866 -0.7342 -0.5672  0.5197
  687THF     C313021   3.624   1.278   3.737  0.2076 -0.0482 -0.1038
  687THF     H413022   3.701   1.018   3.806  1.5403 -1.1626  1.1588
  687THF     H513023   3.719   1.074   3.968 -1.6966 -0.5555  0.6655
  687THF     H613024   3.616   1.222   3.644  0.1747  0.2567 -0.2854
  687THF     H713025   3.563   1.368   3.733  1.0813  0.5229 -0.8424
  687THF     C813026   3.771   1.322   3.764 -0.4422 -0.3722 -0.6194
  687THF     C913027   3.828   1.202   3.837  0.2958  0.3575 -0.5459
  687THF    H1013028   3.771   1.408   3.830 -0.2663 -0.7662 -0.0993
  687THF    H1113029   3.831   1.351   3.678  0.7118  0.9039  0.5710
  687THF    H1213030   3.903   1.145   3.781  0.2599  0.1634 -0.3948
  687THF    H1313031   3.886   1.229   3.925  0.9504 -0.4465 -0.7230
  688THF     O113032   0.712   1.149   0.156 -0.3235 -0.1284  0.0458
  688THF     C213033   0.720   1.027   0.091  0.6556 -0.1425 -0.1522
  688THF     C313034   0.838   1.211   0.120 -0.1428 -0.0037 -0.2985
  688THF     H413035   0.716   1.043  -0.017 -3.8807 -0.2791 -0.1876
  688THF     H513036   0.636   0.968   0.127 -0.7215  1.1022 -1.1908
  688THF     H613037   0.829   1.256   0.021 -0.6970  3.9736  1.3572
  688THF     H713038   0.860   1.290   0.192  0.8012 -1.4300  1.0273
  688THF     C813039   0.943   1.103   0.123 -0.1384  0.1544 -0.4909
  688THF     C913040   0.860   0.981   0.119  0.7473  1.1894  0.3960
  688THF    H1013041   1.016   1.110   0.204 -0.5278  3.4377 -0.3020
  688THF    H1113042   0.992   1.103   0.025 -1.6062  0.8129 -1.2524
  688THF    H1213043   0.894   0.917   0.037 -1.9888  1.2836 -0.9513
  688THF    H1313044   0.860   0.920   0.209  0.2988 -1.8458 -1.5263
  689THF     O113045   0.912   0.603   0.910  0.6123  0.4656  0.0611
  689THF     C213046   1.037   0.646   0.946 -0.1686 -0.3199 -0.0406
  689THF     C313047   0.913   0.464   0.917 -0.7269  0.0905 -0.4205
  689THF     H413048   1.039   0.634   1.054 -2.1951 -1.2024 -0.0425
  689THF     H513049   1.035   0.748   0.908 -2.7884 -1.4876 -3.6230
  689THF     H613050   0.917   0.435   1.022  0.7725 -0.5164 -0.6195
  689THF     H713051   0.829   0.414   0.868 -2.9607  2.2676  0.9642
  689THF     C813052   1.037   0.436   0.837 -0.3011  0.0204 -0.1103
  689THF     C913053   1.131   0.552   0.864 -0.2398 -1.1689 -0.5938
  689THF    H1013054   1.012   0.437   0.731 -1.6558  1.3080  0.1943
  689THF    H1113055   1.085   0.340   0.857 -0.6492 -0.3735 -1.0974
  689THF    H1213056   1.206   0.505   0.928 -0.1878  0.1891  0.3854
  689THF    H1313057   1.177   0.606   0.781  0.0566  0.0009  0.2945
  690THF     O113058   1.039   3.854   2.077  0.0639 -0.0966  0.0759
  690THF     C213059   0.915   3.838   2.139  0.2140 -0.1253 -0.0035
  690THF     C313060   1.070   3.750   1.981 -0.6837 -0.1393 -0.2424
  690THF     H413061   0.858   3.931   2.130  0.6110  0.1794  0.5741
  690THF     H513062   0.924   3.821   2.246  1.1233  2.5548  0.4114
  690THF     H613063   1.058   3.777   1.876  3.1108 -1.5507 -1.2075
  690THF     H713064   1.175   3.723   1.993 -0.0768  2.2116  0.2950
  690THF     C813065   0.974   3.631   2.021 -0.3290  0.3793 -0.6985
  690THF     C913066   0.850   3.718   2.064  0.0500 -0.2013 -0.1534
  690THF    H1013067   1.010   3.573   2.106 -1.2984  0.6913 -0.0545
  690THF    H1113068   0.951   3.562   1.940 -2.0918  1.9914 -1.6652
  690THF    H1213069   0.804   3.734   1.967  0.5290 -0.4978 -0.4384
  690THF    H1313070   0.774   3.671   2.127  0.0672 -1.0160 -0.7204
  691THF     O113071   1.758   5.311   4.279  0.3905 -0.4358  0.9109
  691THF     C213072   1.771   5.450   4.261  0.1160  0.2984  0.2514
  691THF     C313073   1.813   5.269   4.401 -0.6313 -0.4274 -0.0649
  691THF     H413074   1.691   5.507   4.308  1.0888  0.0464  2.3077
  691THF     H513075   1.795   5.473   4.157  0.0965 -0.9409 -0.0523
  691THF     H613076   1.767   5.292   4.497  0.3598  2.1914 -0.1421
  691THF     H713077   1.838   5.163   4.396  0.1334 -0.2150 -1.8753
  691THF     C813078   1.942   5.353   4.400  0.0319 -0.2942  0.2940
  691THF     C913079   1.892   5.486   4.345  0.0035  0.0064 -0.0522
  691THF    H1013080   2.014   5.315   4.328  0.6599  0.4866  0.4973
  691THF    H1113081   2.002   5.359   4.490 -0.6903 -0.8532  0.8273
  691THF    H1213082   1.885   5.560   4.425  0.6431  1.0561 -0.9333
  691THF    H1313083   1.971   5.531   4.285 -1.4140  0.4492 -1.6638
  692THF     O113084   4.558   3.399   0.396  0.5821  0.0654 -0.1012
  692THF     C213085   4.672   3.320   0.408  0.7299 -0.7381  0.2004
  692THF     C313086   4.531   3.408   0.257 -0.6669 -0.7947 -0.0563
  692THF     H413087   4.669   3.269   0.504 -1.9729 -0.2190  0.4860
  692THF     H513088   4.762   3.380   0.396  0.8060 -0.5985  1.3406
  692THF     H613089   4.435   3.456   0.241 -1.6006 -2.0686  1.4210
  692THF     H713090   4.611   3.465   0.209 -2.4540  3.1781  1.2890
  692THF     C813091   4.532   3.271   0.211 -0.0014  0.4453 -0.9617
  692THF     C913092   4.643   3.212   0.303 -0.9720  0.1739 -0.6852
  692THF    H1013093   4.545   3.267   0.103 -2.0627  2.0339 -1.3458
  692THF    H1113094   4.442   3.214   0.236  0.6226 -0.5152 -0.8540
  692THF    H1213095   4.597   3.128   0.356 -0.4246 -0.4464 -1.1692
  692THF    H1313096   4.726   3.179   0.241 -1.1136 -2.5135  0.3822
  693THF     O113097   0.765   1.096   0.872 -0.4613  0.2932 -0.5838
  693THF     C213098   0.700   0.978   0.909  0.5733  0.0147 -0.1122
  693THF     C313099   0.851   1.147   0.973  0.2624 -0.1101  0.0785
  693THF     H413100   0.781   0.905   0.915  0.7843  0.3354  1.6367
  693THF     H513101   0.634   0.947   0.829  1.4565 -1.5760 -0.2457
  693THF     H613102   0.944   1.094   0.954  0.1736 -0.7540  1.3223
  693THF     H713103   0.865   1.255   0.966  0.3535  0.2033  3.3244
  693THF     C813104   0.783   1.101   1.101  0.0336 -0.5631  0.4663
  693THF     C913105   0.654   1.029   1.048  0.1269 -0.0946  0.2569
  693THF    H1013106   0.766   1.189   1.164  1.3056 -1.4605  2.1194
  693THF    H1113107   0.849   1.032   1.152  1.7980  0.4063 -0.4061
  693THF    H1213108   0.615   0.943   1.101  2.7598 -2.4290 -1.3499
  693THF    H1313109   0.581   1.110   1.050  1.9027  1.5767  0.5780
  694THF     O113110   4.038   3.441   1.448  0.3065  0.5224  0.1073
  694THF     C213111   4.085   3.362   1.557 -0.2677  0.2169  0.1662
  694THF     C313112   4.016   3.578   1.488  0.2045 -0.4132 -0.7452
  694THF     H413113   4.158   3.294   1.513 -0.1993  0.6211 -0.3451
  694THF     H513114   4.006   3.295   1.594  0.3931  0.3939  2.0115
  694THF     H613115   4.097   3.637   1.444  0.4617 -1.7417 -2.1590
  694THF     H713116   3.915   3.607   1.460  1.5571  2.4053 -3.2267
  694THF     C813117   4.033   3.568   1.644  0.3542 -0.2904  0.0839
  694THF     C913118   4.137   3.458   1.661 -0.1965  0.4077  0.1995
  694THF    H1013119   3.935   3.545   1.685 -0.0265  0.7420 -0.2212
  694THF    H1113120   4.064   3.662   1.689  0.4630 -0.5630  0.5876
  694THF    H1213121   4.232   3.500   1.629 -0.4090  0.0671 -0.9262
  694THF    H1313122   4.129   3.411   1.759 -3.5409  0.7553  0.2151
  695THF     O113123   2.601   4.179   2.846 -0.1366  0.5019  0.0361
  695THF     C213124   2.723   4.255   2.846 -0.2169 -0.1176  0.2599
  695THF     C313125   2.525   4.247   2.738 -0.2975 -0.0373 -0.7216
  695THF     H413126   2.787   4.235   2.761  0.4256 -1.5314  1.0257
  695THF     H513127   2.778   4.231   2.937  0.2519 -0.7355 -0.1814
  695THF     H613128   2.556   4.212   2.640  1.5591  0.3997 -0.3150
  695THF     H713129   2.424   4.208   2.757 -0.3687  1.1496  1.8363
  695THF     C813130   2.548   4.394   2.768 -0.2017  1.6632  0.1185
  695THF     C913131   2.683   4.395   2.843  0.0029 -0.1456 -0.2569
  695THF    H1013132   2.465   4.432   2.827 -2.1800 -2.2639  0.1958
  695THF    H1113133   2.548   4.452   2.676  0.4791  1.2176 -0.1793
  695THF    H1213134   2.754   4.461   2.793  0.6846 -1.8552 -1.6681
  695THF    H1313135   2.658   4.425   2.945  0.3237  0.1632 -0.2667
  696THF     O113136   4.758   3.714   1.538 -0.9195  0.7546  0.1152
  696THF     C213137   4.693   3.700   1.660 -0.2170  0.9459  0.3474
  696THF     C313138   4.812   3.838   1.508 -0.0705  0.1822  0.3066
  696THF     H413139   4.716   3.601   1.699 -3.1556 -0.5690 -1.4887
  696THF     H513140   4.585   3.703   1.652 -0.5116 -3.1831  0.8236
  696THF     H613141   4.912   3.817   1.469  0.4578 -3.5535  3.1536
  696THF     H713142   4.735   3.868   1.437  0.1722  2.4523  0.9280
  696THF     C813143   4.811   3.909   1.647  0.2532  0.0401  0.0903
  696THF     C913144   4.757   3.807   1.748 -0.3016 -0.6186 -0.0692
  696THF    H1013145   4.742   3.993   1.636 -1.1574 -1.1645 -0.5362
  696THF    H1113146   4.913   3.934   1.674  0.8168 -2.3200  0.3488
  696THF    H1213147   4.848   3.771   1.796 -0.4685 -1.8293 -0.6163
  696THF    H1313148   4.692   3.862   1.816  0.4969  0.6669 -0.3070
  697THF     O113149   1.422   3.265   2.000  0.0698 -0.1844  0.7410
  697THF     C213150   1.286   3.227   1.979 -0.2738 -0.4823  0.1774
  697THF     C313151   1.447   3.367   1.904 -0.8801 -0.1409  0.0904
  697THF     H413152   1.246   3.173   2.065  1.6362  0.2483  1.5825
  697THF     H513153   1.277   3.161   1.893 -2.2040 -0.5761  0.3969
  697THF     H613154   1.524   3.437   1.937 -0.2776 -1.2559  1.1233
  697THF     H713155   1.472   3.330   1.805 -0.5656 -1.9117  0.7856
  697THF     C813156   1.312   3.444   1.875  0.2956 -0.2115 -0.7874
  697THF     C913157   1.212   3.359   1.954  0.4025  0.3754  0.0707
  697THF    H1013158   1.291   3.463   1.770 -4.0861 -0.2155 -0.1087
  697THF    H1113159   1.303   3.540   1.925  0.3519 -1.0911  1.0066
  697THF    H1213160   1.185   3.391   2.054  0.9562  1.2217 -0.0438
  697THF    H1313161   1.116   3.351   1.902 -0.8692  2.7859  1.8389
  698THF     O113162   1.200   5.319   0.296  0.2604 -0.5682  0.0766
  698THF     C213163   1.315   5.242   0.305  0.3847  0.0794 -0.2361
  698THF     C313164   1.189   5.349   0.157  0.5461 -0.3861  0.2394
  698THF     H413165   1.289   5.139   0.282  2.6261 -0.8123  0.9262
  698THF     H513166   1.370   5.249   0.399  2.6582 -1.9662 -1.3086
  698THF     H613167   1.116   5.292   0.099  0.1883  1.0143 -0.7298
  698THF     H713168   1.152   5.451   0.155 -1.3509 -1.0301 -1.7266
  698THF     C813169   1.325   5.339   0.091  0.1029  1.0009 -0.2734
  698THF     C913170   1.413   5.298   0.203  0.1006 -0.2359 -0.0870
  698THF    H1013171   1.358   5.434   0.050 -0.0712  0.6533 -1.2649
  698THF    H1113172   1.332   5.262   0.013 -0.5795  2.2984 -1.6597
  698THF    H1213173   1.492   5.228   0.178 -0.5064 -1.0406  0.1815
  698THF    H1313174   1.455   5.390   0.244 -0.6912  0.8489 -1.6233
  699THF     O113175   4.280   4.472   0.135  0.2622  0.3598  0.6555
  699THF     C213176   4.321   4.521   0.257 -0.3162  0.9436  0.3105
  699THF     C313177   4.282   4.586   0.043  0.5650  0.3102  0.0896
  699THF     H413178   4.429   4.521   0.269 -0.3766 -0.2094  1.0091
  699THF     H513179   4.290   4.466   0.346 -0.4082  0.1568 -0.2005
  699THF     H613180   4.368   4.587  -0.024  0.7949  1.4569  0.3812
  699THF     H713181   4.190   4.584  -0.015  0.2628  1.5087  0.4812
  699THF     C813182   4.289   4.713   0.128  0.3327 -0.2926 -0.6780
  699THF     C913183   4.258   4.654   0.266 -0.2276  0.6511  0.5569
  699THF    H1013184   4.209   4.784   0.107  1.3597  0.8514 -0.7720
  699THF    H1113185   4.378   4.772   0.110 -0.4784  0.6856 -1.6914
  699THF    H1213186   4.299   4.723   0.339 -1.1201  2.6043 -0.7001
  699THF    H1313187   4.149   4.648   0.274 -0.2207  0.7162  0.6999
  700THF     O113188   0.693   1.453   4.745 -0.1314 -0.1085 -0.6582
  700THF     C213189   0.807   1.390   4.703 -0.0535  0.5886 -0.5717
  700THF     C313190   0.726   1.510   4.869  0.1047 -0.6322  0.1334
  700THF     H413191   0.796   1.357   4.599 -0.3321 -1.3917  0.0494
  700THF     H513192   0.818   1.303   4.767  0.0210  0.9808 -0.0453
  700THF     H613193   0.671   1.604   4.873  1.2282  0.0571 -0.2199
  700THF     H713194   0.697   1.440   4.947 -0.2632 -1.0753 -0.3954
  700THF     C813195   0.867   1.559   4.854 -0.0318 -0.3023 -0.4425
  700THF     C913196   0.913   1.490   4.725  0.1537  0.4318 -0.2952
  700THF    H1013197   0.923   1.510   4.933 -0.6621 -2.5922 -1.3198
  700THF    H1113198   0.878   1.667   4.860 -1.0121 -0.1364 -1.2561
  700THF    H1213199   0.919   1.563   4.645  1.9975 -0.7707 -1.3433
  700THF    H1313200   1.012   1.450   4.749  0.1240  1.9428  2.7919
  701THF     O113201   3.493   0.286   1.389 -0.3960  0.1984  0.1245
  701THF     C213202   3.600   0.336   1.304  0.2129 -0.3632  0.3279
  701THF     C313203   3.569   0.253   1.496  0.4334  0.8212  0.2840
  701THF     H413204   3.569   0.438   1.283  0.9721  0.5805  3.3571
  701THF     H513205   3.602   0.284   1.208 -0.8730  2.3620 -1.2610
  701THF     H613206   3.516   0.246   1.591 -0.4008 -1.0279 -0.2709
  701THF     H713207   3.600   0.150   1.480  2.2840  1.6461 -2.2147
  701THF     C813208   3.688   0.348   1.502 -0.2238 -0.1883 -0.3895
  701THF     C913209   3.736   0.356   1.359 -0.6919  0.0846  0.1427
  701THF    H1013210   3.766   0.308   1.566 -0.2442 -0.2486 -0.4028
  701THF    H1113211   3.674   0.450   1.540  4.3299  0.5971 -0.2828
  701THF    H1213212   3.793   0.444   1.331 -0.1243  0.1846  1.5237
  701THF    H1313213   3.780   0.261   1.329 -1.6421 -0.6958  1.1071
  702THF     O113214   3.504   0.396   2.744  0.4355  0.5149 -0.2751
  702THF     C213215   3.481   0.273   2.822 -0.1441 -0.4279 -0.5807
  702THF     C313216   3.575   0.487   2.820 -0.6383  0.5167 -0.9174
  702THF     H413217   3.566   0.206   2.833 -0.3440 -1.0498 -2.4501
  702THF     H513218   3.393   0.228   2.777 -1.4706  1.0258  0.4648
  702THF     H613219   3.683   0.473   2.830 -1.1337 -2.9317  1.4303
  702THF     H713220   3.549   0.588   2.787  3.0842  2.2600  0.8818
  702THF     C813221   3.507   0.468   2.961  0.2599  0.0162  0.6094
  702THF     C913222   3.457   0.319   2.969 -0.8249 -0.0721 -0.0916
  702THF    H1013223   3.421   0.534   2.947 -0.4040 -0.2847  2.8669
  702THF    H1113224   3.555   0.504   3.052 -0.3185  0.3943  0.7707
  702THF    H1213225   3.507   0.254   3.041 -0.0313 -0.3141 -0.8433
  702THF    H1313226   3.351   0.318   2.995 -0.2466 -1.9597  2.6689
  703THF     O113227   1.878   0.732   5.490 -0.4097 -0.0132 -0.4351
  703THF     C213228   1.793   0.630   5.428 -0.0818  0.0616  0.1876
  703THF     C313229   1.838   0.772   5.619 -0.3455  0.5851  0.4655
  703THF     H413230   1.842   0.534   5.413 -1.0273 -0.2889 -0.7576
  703THF     H513231   1.738   0.655   5.338 -0.4780 -0.2402  0.3457
  703THF     H613232   1.921   0.810   5.679 -0.2734  0.1993  0.6155
  703THF     H713233   1.776   0.859   5.600 -1.4135 -0.3850 -0.6151
  703THF     C813234   1.752   0.654   5.663  0.6494  0.2008 -0.7712
  703THF     C913235   1.690   0.608   5.534  0.9430  0.1501  0.1808
  703THF    H1013236   1.690   0.691   5.744  1.6716 -0.8088  0.5039
  703THF    H1113237   1.817   0.575   5.701  0.6638  0.8455  0.6185
  703THF    H1213238   1.647   0.508   5.543 -1.3814  0.9726 -0.8715
  703THF    H1313239   1.603   0.673   5.523 -0.0437 -1.1586 -0.0069
  704THF     O113240   3.100   3.114   3.324 -0.1033 -0.0293  0.2398
  704THF     C213241   3.048   3.094   3.185  0.5415  0.6863 -0.0934
  704THF     C313242   3.078   2.989   3.386 -0.1874  0.5760  0.2604
  704THF     H413243   3.068   3.180   3.121 -0.6416  0.2266 -1.1356
  704THF     H513244   2.940   3.096   3.176  0.6299  0.5717 -1.4945
  704THF     H613245   3.119   2.992   3.487  1.0801  0.8703 -0.2350
  704THF     H713246   2.972   2.976   3.407  0.0113 -0.9806  0.4450
  704THF     C813247   3.130   2.895   3.282 -0.6797  0.1540 -0.0132
  704THF     C913248   3.102   2.957   3.142  0.4593 -0.1717 -0.7951
  704THF    H1013249   3.088   2.794   3.290 -0.4526  0.0557 -0.0636
  704THF    H1113250   3.238   2.882   3.285 -0.7413 -0.4943 -0.3156
  704THF    H1213251   3.182   2.970   3.069 -0.4174 -0.2729 -1.8042
  704THF    H1313252   3.017   2.908   3.094 -0.8996  1.6016 -0.3312
  705THF     O113253   4.695   4.182   5.028 -0.0985 -0.5538  0.1614
  705THF     C213254   4.681   4.108   4.907  0.2498  0.2925 -0.1534
  705THF     C313255   4.576   4.260   5.046 -0.7103 -0.4107 -0.2959
  705THF     H413256   4.632   4.011   4.923  1.0749  0.0074  0.7263
  705THF     H513257   4.773   4.082   4.855 -0.2097 -1.4089 -0.1855
  705THF     H613258   4.542   4.238   5.147  0.3328  0.2719  0.2135
  705THF     H713259   4.618   4.360   5.054 -0.2911 -0.5354 -0.8449
  705THF     C813260   4.485   4.246   4.929  1.2706  0.2531  0.1948
  705THF     C913261   4.573   4.186   4.824 -0.2113 -0.0875 -0.1966
  705THF    H1013262   4.431   4.337   4.905 -1.1774 -1.3615 -0.9104
  705THF    H1113263   4.399   4.180   4.947  1.6306 -0.5214 -0.7909
  705THF    H1213264   4.518   4.115   4.762  0.8796 -1.2139  0.0908
  705THF    H1313265   4.609   4.262   4.755  0.8566  0.9497  1.4247
  706THF     O113266   0.644   5.121   4.113 -0.1143 -0.6963  0.0229
  706THF     C213267   0.693   5.187   4.229 -0.5883  0.2149  1.2422
  706THF     C313268   0.585   4.999   4.148 -0.1837 -0.8952 -0.5612
  706THF     H413269   0.718   5.292   4.216  0.6184 -0.1501  0.4170
  706THF     H513270   0.786   5.149   4.271 -0.2800  1.0944  1.3702
  706THF     H613271   0.519   4.972   4.065 -1.0474  1.1043 -0.5753
  706THF     H713272   0.649   4.912   4.164 -0.6186 -0.9829  0.8662
  706THF     C813273   0.507   5.029   4.284 -0.4345 -0.9580 -0.0279
  706THF     C913274   0.576   5.165   4.333 -0.3564  0.0775 -0.0056
  706THF    H1013275   0.497   4.954   4.363  1.6212  0.5164  1.7676
  706THF    H1113276   0.404   5.044   4.252 -0.5876  1.2670  1.2761
  706THF    H1213277   0.511   5.251   4.319  2.0181  1.5618 -3.0724
  706THF    H1313278   0.607   5.160   4.438  1.3657 -3.3275 -0.5313
  707THF     O113279   5.293   1.586   3.690  0.8103  0.1607 -0.1423
  707THF     C213280   5.241   1.696   3.603  0.0526  0.5427  0.1705
  707THF     C313281   5.198   1.561   3.791 -0.1146  0.1414 -0.8300
  707THF     H413282   5.212   1.657   3.506  1.5105  2.9934 -1.3295
  707THF     H513283   5.325   1.760   3.578 -0.4120  1.1875  0.2496
  707THF     H613284   5.129   1.483   3.758 -0.3617 -0.5775  1.1899
  707THF     H713285   5.247   1.522   3.880 -2.4511  0.4653  0.6917
  707THF     C813286   5.137   1.692   3.831 -0.4791 -0.0406  0.3644
  707THF     C913287   5.127   1.765   3.693 -0.2119 -0.4126  0.5437
  707THF    H1013288   5.213   1.735   3.896  3.0773 -1.4712 -2.4856
  707THF    H1113289   5.040   1.685   3.880  0.1088 -0.4729  1.4980
  707THF    H1213290   5.030   1.741   3.651  0.5058 -0.0692 -1.3849
  707THF    H1313291   5.138   1.873   3.698 -0.3347 -0.4436  2.2138
  708THF     O113292   2.404   4.594   5.187 -0.2343 -0.1169  0.5849
  708THF     C213293   2.383   4.454   5.214  0.4519 -1.0574 -0.0091
  708THF     C313294   2.409   4.670   5.303  0.0348 -0.1708 -0.2598
  708THF     H413295   2.407   4.396   5.125  0.4099 -1.6361  0.3498
  708THF     H513296   2.282   4.442   5.254 -0.2773 -0.5245 -1.5861
  708THF     H613297   2.463   4.764   5.293  2.4973 -1.6024 -1.4465
  708THF     H713298   2.309   4.685   5.344  0.7123  2.0790  0.7133
  708THF     C813299   2.481   4.581   5.402  0.0235  0.4795  0.3362
  708THF     C913300   2.467   4.439   5.339 -0.7438  0.3960  0.1908
  708THF    H1013301   2.431   4.588   5.499 -1.8958  1.0595 -0.6422
  708THF    H1113302   2.586   4.609   5.411  0.3648  0.5673 -2.8612
  708THF    H1213303   2.565   4.396   5.316 -0.4867  0.3934  1.2328
  708THF    H1313304   2.423   4.367   5.408  0.3321 -0.4416  0.0242
  709THF     O113305   3.856   2.911   1.950 -0.0759  0.0607  0.4725
  709THF     C213306   3.922   2.936   2.071  0.3489  0.7449 -0.0191
  709THF     C313307   3.759   3.009   1.928  0.1994 -0.6677 -0.1082
  709THF     H413308   4.014   2.994   2.059  0.3181  1.2375  1.7482
  709THF     H513309   3.940   2.838   2.115 -3.0753  0.3149  0.7085
  709THF     H613310   3.806   3.100   1.892  2.2553 -1.3688  0.6266
  709THF     H713311   3.679   2.975   1.863 -1.6159 -1.0095  2.1718
  709THF     C813312   3.699   3.038   2.071 -0.2288  0.5398 -0.5681
  709THF     C913313   3.822   3.001   2.160  0.0699 -0.1213 -0.2663
  709THF    H1013314   3.616   2.970   2.090  1.2658 -1.1552  0.1929
  709THF    H1113315   3.660   3.139   2.085  1.3271  0.8426  2.3890
  709THF    H1213316   3.863   3.097   2.193  1.2580 -1.1366  1.3501
  709THF    H1313317   3.798   2.958   2.257  2.9039 -1.1235  0.0865
  710THF     O113318   5.239   0.548   1.763  0.0879  0.4934  0.6577
  710THF     C213319   5.374   0.501   1.735  0.9689 -0.5554  0.6873
  710THF     C313320   5.241   0.634   1.873  0.2639 -0.2848 -0.3623
  710THF     H413321   5.383   0.450   1.639 -2.5011 -0.5011  0.1749
  710THF     H513322   5.391   0.430   1.815  0.0142 -0.1781  1.2458
  710THF     H613323   5.158   0.704   1.879  1.2996  0.8520  2.4699
  710THF     H713324   5.254   0.584   1.969  2.1247 -1.1018 -0.9923
  710THF     C813325   5.373   0.707   1.845  0.1317 -0.5269 -0.7853
  710THF     C913326   5.452   0.618   1.756 -0.1265  0.4919 -0.1773
  710THF    H1013327   5.437   0.708   1.933 -0.7568 -2.4421 -0.0621
  710THF    H1113328   5.370   0.802   1.792 -0.1916 -1.1502 -1.9140
  710THF    H1213329   5.464   0.667   1.659  2.4662  0.4388  0.0340
  710THF    H1313330   5.548   0.599   1.803  0.1825  1.8957 -0.2007
  711THF     O113331   0.546   4.038   4.421  0.0002  0.0588 -0.6707
  711THF     C213332   0.684   4.061   4.395  0.4196  0.2760  0.2840
  711THF     C313333   0.494   4.160   4.452 -0.3343 -0.1652  0.1579
  711THF     H413334   0.732   3.968   4.366 -0.3695 -0.0374 -0.0616
  711THF     H513335   0.725   4.092   4.491 -1.8346 -0.0220  1.4265
  711THF     H613336   0.386   4.174   4.448 -0.3368  0.0949  0.9290
  711THF     H713337   0.533   4.196   4.547 -1.5396 -1.5348  1.2194
  711THF     C813338   0.565   4.258   4.359 -0.3098  0.1635 -0.2132
  711THF     C913339   0.684   4.181   4.295  0.0212 -0.3410  0.4915
  711THF    H1013340   0.606   4.336   4.424 -0.8216 -0.1859  0.5507
  711THF    H1113341   0.506   4.317   4.289  0.0695  1.8985  0.8608
  711THF    H1213342   0.668   4.150   4.191  0.7018 -1.9930  0.8509
  711THF    H1313343   0.781   4.231   4.293 -0.4143  0.5356 -1.0529
  712THF     O113344   1.591   2.759   2.072  0.6450  0.3380 -0.7009
  712THF     C213345   1.504   2.862   2.032  0.2301 -0.2234 -0.6934
  712THF     C313346   1.563   2.741   2.210 -0.1748  0.1201  0.5058
  712THF     H413347   1.401   2.835   2.053  0.6899 -1.0901  0.6114
  712THF     H513348   1.528   2.896   1.932  1.9687  2.2111  0.4428
  712THF     H613349   1.473   2.680   2.219  0.6931 -1.3324 -0.3683
  712THF     H713350   1.629   2.680   2.272  0.1642  0.4591  0.4815
  712THF     C813351   1.557   2.886   2.259  0.4531  1.7258  0.2149
  712THF     C913352   1.540   2.966   2.135 -0.2018 -0.1403 -0.3148
  712THF    H1013353   1.654   2.914   2.301  1.3663 -1.7937  0.8141
  712THF    H1113354   1.477   2.909   2.330 -1.7933 -0.5451 -1.4010
  712THF    H1213355   1.465   3.044   2.148  0.9918  1.3804 -1.9793
  712THF    H1313356   1.640   3.006   2.116  0.7016 -1.4433  1.4120
  713THF     O113357   5.458   4.261   3.384  0.0275  0.2932  0.1808
  713THF     C213358   5.466   4.298   3.521 -0.0270  0.3723 -0.4701
  713THF     C313359   5.474   4.386   3.318  0.5484 -0.4522  0.3654
  713THF     H413360   5.557   4.342   3.561 -1.0884 -0.1073  2.7850
  713THF     H513361   5.442   4.209   3.579  0.9784  0.9381  0.8544
  713THF     H613362   5.578   4.420   3.322  0.1882  0.6281  1.3136
  713THF     H713363   5.449   4.376   3.213 -0.6031  3.7481  0.0592
  713THF     C813364   5.381   4.485   3.392  0.0376  0.7880  0.4834
  713THF     C913365   5.356   4.405   3.523  0.2349 -0.6344 -0.1166
  713THF    H1013366   5.290   4.505   3.335 -1.2720  3.0902  3.1423
  713THF    H1113367   5.429   4.581   3.413  1.9465 -0.4572  2.1793
  713THF    H1213368   5.364   4.464   3.614  3.2948  2.7681 -2.3019
  713THF    H1313369   5.259   4.355   3.521  0.3274 -0.8363  0.2761
  714THF     O113370   4.114   2.541   4.658 -0.2079  0.1926 -0.3355
  714THF     C213371   4.163   2.555   4.789  0.2729 -0.6547 -1.0967
  714THF     C313372   3.997   2.615   4.659  0.1170 -0.7450 -0.0575
  714THF     H413373   4.249   2.620   4.776  2.1777 -3.2446 -2.3598
  714THF     H513374   4.193   2.457   4.826 -0.9988 -0.6385  0.0580
  714THF     H613375   3.996   2.641   4.553  1.3128 -3.3524 -0.8035
  714THF     H713376   3.916   2.544   4.677 -1.8362  2.0473  3.2421
  714THF     C813377   4.003   2.721   4.772  0.2269  0.1151 -0.4497
  714THF     C913378   4.065   2.639   4.881 -0.3051  0.1281 -0.3947
  714THF    H1013379   3.906   2.756   4.806  0.1690  1.2796 -1.7286
  714THF    H1113380   4.074   2.800   4.747  0.6002 -0.3789 -0.9555
  714THF    H1213381   4.113   2.699   4.958 -0.8741  0.4169 -0.2617
  714THF    H1313382   3.993   2.567   4.921  0.3302  0.7871  2.0730
  715THF     O113383   4.927   2.764   1.429  0.7914 -0.3249 -0.3508
  715THF     C213384   4.797   2.753   1.489 -0.9267  0.6866 -0.6265
  715THF     C313385   4.989   2.872   1.494 -0.1656  0.1755 -0.2315
  715THF     H413386   4.807   2.678   1.568 -0.2651 -0.2713 -1.5945
  715THF     H513387   4.729   2.705   1.418 -0.9576  1.2440 -0.9769
  715THF     H613388   5.027   2.838   1.590  1.5204 -0.4558 -1.0766
  715THF     H713389   5.074   2.922   1.446 -1.5073  2.8729  0.0393
  715THF     C813390   4.879   2.969   1.497 -0.0511  0.1218 -0.0208
  715THF     C913391   4.764   2.893   1.548  0.6005  0.6500 -0.6140
  715THF    H1013392   4.844   3.001   1.399  2.3698 -1.4093 -1.4955
  715THF    H1113393   4.906   3.061   1.549 -0.2628  0.2572 -0.1495
  715THF    H1213394   4.772   2.891   1.657  1.1598 -0.2503 -0.6585
  715THF    H1313395   4.668   2.935   1.520  0.0855 -0.9880 -1.4594
  716THF     O113396   4.398   1.463   2.864 -0.2826 -0.0568  0.5563
  716THF     C213397   4.494   1.510   2.958  0.0766 -0.3696 -0.6036
  716THF     C313398   4.280   1.437   2.934 -0.0778  0.3552 -0.0774
  716THF     H413399   4.507   1.618   2.955  2.1634 -0.4772  1.5843
  716THF     H513400   4.592   1.465   2.946 -0.2721 -1.0721 -0.9290
  716THF     H613401   4.211   1.521   2.935  1.7806  2.0251  2.6457
  716THF     H713402   4.220   1.358   2.889 -1.3054  0.1289  1.8453
  716THF     C813403   4.326   1.387   3.066 -0.1605 -0.0896  0.6803
  716THF     C913404   4.444   1.471   3.103  0.7441 -0.2498  0.1540
  716THF    H1013405   4.352   1.281   3.056 -0.8302 -0.2176  0.2174
  716THF    H1113406   4.239   1.395   3.131 -1.7662  0.4665 -1.4052
  716THF    H1213407   4.406   1.558   3.156 -0.4277  0.8661 -2.3801
  716THF    H1313408   4.515   1.417   3.166  0.2930 -0.0472  0.8513
  717THF     O113409   0.757   2.020   1.822  0.0738 -0.3230 -0.0949
  717THF     C213410   0.838   2.053   1.937  0.0076  0.2131 -0.1367
  717THF     C313411   0.687   2.141   1.780 -1.1869 -0.0855  0.1410
  717THF     H413412   0.929   1.995   1.950  0.2565  0.9831  1.9459
  717THF     H513413   0.779   2.040   2.028  1.6112  0.7522  1.0234
  717THF     H613414   0.655   2.139   1.676  2.6807  2.3924 -1.3297
  717THF     H713415   0.607   2.165   1.850 -2.4665  1.4452 -1.7499
  717THF     C813416   0.797   2.243   1.785 -0.8128  0.0797  0.2622
  717THF     C913417   0.867   2.208   1.917 -0.4823  0.4323 -0.0726
  717THF    H1013418   0.758   2.345   1.790 -0.4734  0.2676 -0.7068
  717THF    H1113419   0.857   2.235   1.695 -0.8449 -2.5810  0.4195
  717THF    H1213420   0.971   2.241   1.917 -0.8103  1.5285 -1.6435
  717THF    H1313421   0.825   2.263   2.001 -1.2486 -0.5014  0.1811
  718THF     O113422   1.309   0.321   5.455 -0.1518  0.4902  0.2042
  718THF     C213423   1.173   0.300   5.433 -0.0377  0.3331 -0.4307
  718THF     C313424   1.391   0.263   5.352 -0.3740  0.3682  0.7687
  718THF     H413425   1.122   0.349   5.350  0.3002 -0.1879 -0.9625
  718THF     H513426   1.109   0.327   5.517 -1.0218  1.0763 -1.3965
  718THF     H613427   1.420   0.327   5.269  2.0042 -1.3192  0.2084
  718THF     H713428   1.482   0.237   5.406  0.3385  0.9105 -0.1315
  718THF     C813429   1.305   0.145   5.305 -0.4608 -0.0243 -0.2935
  718THF     C913430   1.172   0.154   5.379  0.6114 -0.4112 -0.6320
  718THF    H1013431   1.360   0.053   5.326 -1.2967  0.1266  2.9929
  718THF    H1113432   1.279   0.159   5.200 -1.2733  0.1627 -0.0717
  718THF    H1213433   1.088   0.112   5.325  1.2856 -1.7501 -0.6947
  718THF    H1313434   1.179   0.090   5.467 -1.4181  0.2420  0.0422
  719THF     O113435   1.078   2.037   2.285 -0.3190  0.1003 -0.7701
  719THF     C213436   1.120   2.171   2.275 -0.5007 -0.1674 -0.4351
  719THF     C313437   1.099   2.005   2.426 -1.1212  0.4757  0.1910
  719THF     H413438   1.082   2.224   2.188  2.0677  2.1748 -0.2669
  719THF     H513439   1.229   2.180   2.281 -0.5053  0.8153 -1.5009
  719THF     H613440   1.058   1.909   2.455 -1.9227  1.1539  1.3929
  719THF     H713441   1.206   2.007   2.445 -1.4544 -2.5633  3.1824
  719THF     C813442   1.032   2.122   2.495 -0.0613  0.2568 -0.0478
  719THF     C913443   1.084   2.235   2.411 -0.0435 -0.3831 -0.0122
  719THF    H1013444   1.057   2.134   2.601  0.6802 -1.5091  0.0066
  719THF    H1113445   0.925   2.125   2.478  0.0579 -1.8547 -1.5158
  719THF    H1213446   1.011   2.313   2.388 -2.2146 -2.5931 -1.0001
  719THF    H1313447   1.172   2.284   2.454  0.8203 -1.6642 -0.2635
  720THF     O113448   3.407   5.265   4.355  0.4830 -0.7993 -0.1464
  720THF     C213449   3.295   5.349   4.382 -0.2693 -1.0549 -0.5271
  720THF     C313450   3.366   5.135   4.404  0.3051  0.1860 -0.1730
  720THF     H413451   3.295   5.451   4.344 -0.8135 -0.9153 -0.1619
  720THF     H513452   3.287   5.355   4.490 -1.5939  0.3413 -0.6758
  720THF     H613453   3.435   5.058   4.370  1.3660 -0.1973  2.6197
  720THF     H713454   3.365   5.130   4.513  1.0819  4.0730  0.1730
  720THF     C813455   3.223   5.122   4.352  0.8344 -0.1944 -0.0474
  720THF     C913456   3.182   5.269   4.332  0.4971  0.0430  0.2573
  720THF    H1013457   3.155   5.061   4.411  1.5577  0.8721  1.9876
  720THF    H1113458   3.239   5.074   4.256 -1.4610 -2.8297  0.7403
  720THF    H1213459   3.166   5.297   4.228 -1.3947 -0.2192  0.4283
  720THF    H1313460   3.092   5.298   4.387  0.2201  0.8334 -0.5788
  721THF     O113461   0.555   4.322   0.163  0.2510 -0.1454 -0.0815
  721THF     C213462   0.647   4.215   0.172 -0.7506 -0.5560  0.4641
  721THF     C313463   0.560   4.372   0.026  0.0780  0.1978 -0.1316
  721THF     H413464   0.606   4.121   0.135 -0.4235 -0.2508 -0.7206
  721THF     H513465   0.688   4.210   0.272  0.4556  2.1709  0.1922
  721THF     H613466   0.473   4.334  -0.027  0.9044  1.4952 -2.5685
  721THF     H713467   0.563   4.481   0.016 -0.8063  0.1124 -1.5550
  721THF     C813468   0.678   4.319  -0.044 -0.0308 -0.3912  0.3478
  721THF     C913469   0.758   4.278   0.077  0.2225  1.4656  0.3850
  721THF    H1013470   0.739   4.386  -0.105 -0.4586  0.2536  0.6217
  721THF    H1113471   0.636   4.236  -0.101  0.5050 -0.8808  0.6614
  721THF    H1213472   0.830   4.197   0.062 -2.1077 -1.1024  1.9648
  721THF    H1313473   0.807   4.361   0.128 -1.1915  2.2054  0.5679
  722THF     O113474   3.779   1.719   0.325  0.6129  0.1209 -0.0834
  722THF     C213475   3.781   1.588   0.377 -0.7101  0.4694 -0.2453
  722THF     C313476   3.678   1.799   0.385 -0.9071  0.4306  1.1091
  722THF     H413477   3.865   1.566   0.442 -0.2261 -0.4579 -1.1703
  722THF     H513478   3.784   1.518   0.293  0.0541 -0.0432  0.2013
  722THF     H613479   3.719   1.830   0.481 -0.1077  1.0633  0.5763
  722THF     H713480   3.659   1.894   0.335  0.1277  0.5463  0.9198
  722THF     C813481   3.568   1.694   0.401  0.2431 -1.0083 -0.7916
  722THF     C913482   3.649   1.575   0.454 -0.7131 -0.4875 -0.2573
  722THF    H1013483   3.510   1.669   0.312  0.3569 -3.4017 -0.2666
  722THF    H1113484   3.500   1.733   0.475  0.8769  1.7183 -1.5438
  722THF    H1213485   3.668   1.580   0.561  0.4424  1.1953 -0.4946
  722THF    H1313486   3.595   1.484   0.430 -0.6613 -0.2587 -1.2870
  723THF     O113487   5.357   2.769   4.150  0.1001 -0.2853  0.3335
  723THF     C213488   5.396   2.663   4.064 -0.0311 -0.2490 -0.4443
  723THF     C313489   5.277   2.847   4.062 -0.5097 -0.3858  0.2705
  723THF     H413490   5.430   2.574   4.117 -0.9001  0.1754  0.8946
  723THF     H513491   5.485   2.692   4.009  0.3349 -0.9257 -0.2194
  723THF     H613492   5.229   2.928   4.118  1.1997 -0.1313  1.4391
  723THF     H713493   5.327   2.890   3.975  1.9279 -0.1173  1.7064
  723THF     C813494   5.177   2.735   4.015  0.0879  0.0466  0.2185
  723THF     C913495   5.271   2.618   3.993  0.0950 -0.2905  0.1893
  723THF    H1013496   5.140   2.790   3.929 -1.9366  1.4110  1.8530
  723THF    H1113497   5.089   2.720   4.078 -0.0343 -2.2133 -0.4098
  723THF    H1213498   5.237   2.520   4.025  1.6739 -1.3409 -1.1209
  723THF    H1313499   5.290   2.623   3.885 -0.5243 -0.5067  0.0693
  724THF     O113500   3.503   0.757   4.507 -0.1473  0.4401  0.3882
  724THF     C213501   3.416   0.803   4.605 -0.7541  0.9373  0.1800
  724THF     C313502   3.433   0.696   4.400 -0.2305  0.0087 -0.1380
  724THF     H413503   3.409   0.911   4.594  1.3948  1.2349  1.0790
  724THF     H513504   3.459   0.772   4.701  0.6421 -1.2239 -1.0602
  724THF     H613505   3.459   0.735   4.301 -0.0823 -0.9304 -0.4800
  724THF     H713506   3.461   0.591   4.399  0.4089  0.1639  0.3474
  724THF     C813507   3.288   0.725   4.417  0.3878 -0.0723 -0.6563
  724THF     C913508   3.280   0.741   4.565 -0.5973  0.5884 -0.1832
  724THF    H1013509   3.226   0.649   4.371  0.3954 -0.0950 -0.6290
  724THF    H1113510   3.258   0.822   4.377  1.0408  1.2439  1.8245
  724THF    H1213511   3.194   0.789   4.612  0.1716  0.6922  1.1912
  724THF    H1313512   3.285   0.639   4.605 -0.3261  0.4189 -0.6463
  725THF     O113513   3.027   3.579   4.458  0.8982  0.0959  0.3843
  725THF     C213514   3.172   3.584   4.463 -0.2157  0.5200  1.4542
  725THF     C313515   2.998   3.443   4.434 -0.1668  0.8373  0.4285
  725THF     H413516   3.200   3.677   4.513 -0.6304  1.2218  0.4058
  725THF     H513517   3.210   3.592   4.361  1.3691 -3.1073  1.5895
  725THF     H613518   2.900   3.433   4.480 -0.6877 -1.2525 -1.0008
  725THF     H713519   2.995   3.414   4.329 -0.9060 -0.7474  0.8620
  725THF     C813520   3.105   3.361   4.504  0.8364 -0.5313 -0.4287
  725THF     C913521   3.230   3.453   4.520  0.0602  0.0628  0.9595
  725THF    H1013522   3.127   3.272   4.445  0.1090 -0.9406 -0.0808
  725THF    H1113523   3.084   3.327   4.605 -1.7183 -0.2599 -0.8014
  725THF    H1213524   3.268   3.467   4.621  1.4665 -0.4194  0.5231
  725THF    H1313525   3.315   3.416   4.462  1.3854 -0.5548  3.1839
  726THF     O113526   4.047   2.488   1.342 -0.3673  1.1003 -0.4798
  726THF     C213527   4.175   2.495   1.263  0.4246 -0.1101  0.1010
  726THF     C313528   3.945   2.555   1.273 -0.3460  0.7284 -0.4425
  726THF     H413529   4.162   2.399   1.211 -1.0974 -0.8332  1.7289
  726THF     H513530   4.267   2.485   1.320  0.3258  0.6460  0.3882
  726THF     H613531   3.887   2.476   1.226 -0.5044  1.1269 -0.9395
  726THF     H713532   3.883   2.605   1.347  0.7405  0.1313  0.9133
  726THF     C813533   4.015   2.654   1.174 -0.4451  0.2514 -0.4334
  726THF     C913534   4.166   2.627   1.177  0.5604  0.1907  0.2058
  726THF    H1013535   3.999   2.753   1.216 -0.0360 -0.1681  0.7611
  726THF    H1113536   3.966   2.651   1.076 -2.2097 -0.0554  0.4126
  726THF    H1213537   4.200   2.609   1.075 -1.5004  0.7173 -0.6251
  726THF    H1313538   4.229   2.703   1.223  2.0091 -1.8764  1.8509
  727THF     O113539   1.815   1.440   1.472 -0.2830  0.5040  0.4791
  727THF     C213540   1.779   1.312   1.462  0.6776  0.3782  0.4063
  727THF     C313541   1.863   1.488   1.349  0.0667 -0.4389 -0.0831
  727THF     H413542   1.712   1.288   1.545  0.0203  0.6173 -0.0510
  727THF     H513543   1.860   1.239   1.475  0.9524  0.0549 -2.4899
  727THF     H613544   1.842   1.595   1.342  1.6017  0.0435  1.7647
  727THF     H713545   1.972   1.488   1.339  0.1593 -1.9930  0.6503
  727THF     C813546   1.781   1.420   1.247  0.3856  0.2569  0.6808
  727THF     C913547   1.723   1.300   1.322 -0.2813  0.1535 -0.7470
  727THF    H1013548   1.839   1.395   1.158  0.3949  1.0607  0.4541
  727THF    H1113549   1.692   1.477   1.223  1.3279  0.9731 -1.2853
  727THF    H1213550   1.615   1.295   1.306 -0.3052  0.8552 -0.8357
  727THF    H1313551   1.755   1.208   1.272  0.1600 -0.0092 -0.1781
  728THF     O113552   2.383   4.063   3.770  0.3418 -0.2788 -0.6875
  728THF     C213553   2.364   4.153   3.878  0.8814 -0.8170  0.1332
  728THF     C313554   2.430   4.133   3.661  0.0086 -0.0004  0.1521
  728THF     H413555   2.462   4.169   3.924  0.0191 -1.9402  2.5097
  728THF     H513556   2.298   4.117   3.957  0.1063  1.8723  0.7969
  728THF     H613557   2.538   4.144   3.668 -0.0745  1.7665 -0.7619
  728THF     H713558   2.412   4.082   3.566  1.7251 -0.8637  0.2467
  728THF     C813559   2.364   4.273   3.673  0.3853 -0.5595 -0.0488
  728THF     C913560   2.298   4.274   3.810 -0.1279 -0.0270  0.0185
  728THF    H1013561   2.285   4.280   3.599 -1.0485 -0.2671  1.4536
  728THF    H1113562   2.429   4.357   3.648  2.3554 -2.3006 -1.1258
  728THF    H1213563   2.300   4.374   3.854  0.9930  1.5068 -3.1556
  728THF    H1313564   2.191   4.254   3.798  0.0483 -0.9089 -0.1335
  729THF     O113565   2.070   5.289   1.716  0.4841  0.1728  0.2611
  729THF     C213566   2.114   5.378   1.806 -0.0557 -0.0940 -0.1217
  729THF     C313567   2.118   5.156   1.760  0.3424 -0.4161  0.6922
  729THF     H413568   2.036   5.409   1.875 -1.1627  0.1880 -1.4494
  729THF     H513569   2.136   5.471   1.753 -1.8143  0.6753  0.4214
  729THF     H613570   2.040   5.118   1.826  0.4989 -0.7993  0.6576
  729THF     H713571   2.124   5.091   1.673  2.8410  0.6075  0.0190
  729THF     C813572   2.250   5.180   1.817 -0.6591 -0.4007 -0.0251
  729THF     C913573   2.246   5.318   1.872 -0.0387 -0.0138  0.3585
  729THF    H1013574   2.327   5.188   1.740 -1.4129  3.3024 -0.5880
  729THF    H1113575   2.286   5.098   1.878 -1.4770  0.4237  1.6258
  729THF    H1213576   2.253   5.326   1.981 -1.7042  1.4269  0.4114
  729THF    H1313577   2.336   5.369   1.837 -1.2156  0.6140 -1.9750
  730THF     O113578   2.835   0.457   2.196 -0.2669  0.2424  0.3972
  730THF     C213579   2.805   0.317   2.194 -0.6362 -0.4949 -0.1954
  730THF     C313580   2.963   0.488   2.147  0.0621 -0.1856  0.1650
  730THF     H413581   2.717   0.319   2.129 -0.3142 -0.1680 -0.6320
  730THF     H513582   2.767   0.268   2.284  0.4779 -1.3003 -0.1579
  730THF     H613583   2.966   0.583   2.095 -0.3370 -0.5242 -0.4815
  730THF     H713584   3.037   0.488   2.227  2.4733  0.8786 -1.9301
  730THF     C813585   2.994   0.369   2.061  0.5441 -0.3240 -0.1528
  730THF     C913586   2.929   0.249   2.135 -0.4987 -0.3069  0.2495
  730THF    H1013587   3.103   0.362   2.049  0.5446 -0.2765 -0.1769
  730THF    H1113588   2.940   0.368   1.966 -0.4837 -2.1532  0.4187
  730THF    H1213589   2.903   0.169   2.065  1.2968 -1.3046  0.6602
  730THF    H1313590   3.004   0.221   2.210  0.8244  0.4694 -0.7555
  731THF     O113591   2.616   0.714   3.312 -0.2560  0.0468  0.1018
  731THF     C213592   2.504   0.624   3.336  0.4179  0.1027 -0.2271
  731THF     C313593   2.672   0.682   3.187  0.2137  0.6430 -0.3880
  731THF     H413594   2.414   0.684   3.317 -0.5864 -0.9860  0.9303
  731THF     H513595   2.509   0.603   3.442 -1.1157  1.0262  0.0711
  731THF     H613596   2.634   0.751   3.112 -0.4169  0.1511 -0.5304
  731THF     H713597   2.780   0.696   3.181  0.2256  0.7514  0.1056
  731THF     C813598   2.639   0.525   3.167  0.2115 -0.0164 -0.3617
  731THF     C913599   2.506   0.502   3.246 -0.0983  0.0332 -0.4383
  731THF    H1013600   2.711   0.460   3.217  1.1696  3.2825  3.0070
  731THF    H1113601   2.633   0.484   3.067  0.8867  0.6274 -0.6760
  731THF    H1213602   2.420   0.488   3.180  0.7311 -0.1100 -1.5162
  731THF    H1313603   2.503   0.419   3.316  1.8013 -0.0857 -0.4456
  732THF     O113604   2.324   0.538   0.929 -0.1395  0.2139 -0.1473
  732THF     C213605   2.198   0.552   0.986  0.3289 -0.8131 -0.0896
  732THF     C313606   2.342   0.395   0.907  0.0280  0.6407  0.6668
  732THF     H413607   2.118   0.541   0.912 -0.9792  1.2490  0.9329
  732THF     H513608   2.187   0.655   1.020  1.1279 -1.1826  1.3715
  732THF     H613609   2.303   0.359   0.812  2.1977 -2.8745  0.9304
  732THF     H713610   2.449   0.374   0.906  0.3951  2.1637  2.2565
  732THF     C813611   2.267   0.335   1.029 -0.3657  0.1089 -0.5367
  732THF     C913612   2.204   0.451   1.103  0.0136  0.8591  0.0958
  732THF    H1013613   2.326   0.277   1.100  0.6063  0.4666 -1.0404
  732THF    H1113614   2.190   0.261   1.007  0.3446 -1.2997  1.4801
  732THF    H1213615   2.101   0.431   1.133  0.0602  1.8980  1.0229
  732THF    H1313616   2.277   0.477   1.180 -2.6469  0.4951  2.9170
  733THF     O113617   2.327   2.665   5.455  0.3189  0.2419  0.1579
  733THF     C213618   2.348   2.531   5.501  0.1674 -0.3450 -0.0719
  733THF     C313619   2.448   2.707   5.390 -0.3996 -0.0111  0.2888
  733THF     H413620   2.360   2.482   5.404  0.3033  0.2753 -0.3734
  733THF     H513621   2.269   2.489   5.563  1.2140 -3.8703 -0.8811
  733THF     H613622   2.442   2.654   5.295  0.9244 -1.2470  0.8585
  733THF     H713623   2.430   2.814   5.372 -1.4181 -0.2613 -0.2698
  733THF     C813624   2.554   2.661   5.486  0.3701 -0.0219  0.0619
  733THF     C913625   2.491   2.539   5.558 -0.3955  0.5110 -0.1978
  733THF    H1013626   2.574   2.738   5.560  0.8346  1.3671 -1.4396
  733THF    H1113627   2.646   2.654   5.428  1.0470 -0.7576  1.2043
  733THF    H1213628   2.543   2.444   5.551 -0.7900  0.2443  0.4622
  733THF    H1313629   2.492   2.555   5.666 -1.0713 -0.6035 -0.0195
  734THF     O113630   3.531   4.693   1.134  0.5378  0.3082 -0.0696
  734THF     C213631   3.509   4.576   1.063  0.4834  0.7865  0.6835
  734THF     C313632   3.501   4.802   1.048 -0.2659 -0.9177  0.5245
  734THF     H413633   3.403   4.562   1.088  0.1445  1.3280 -0.4078
  734THF     H513634   3.550   4.478   1.087 -1.8066 -0.9185 -1.8216
  734THF     H613635   3.394   4.824   1.050 -0.0343  0.2370  0.7301
  734THF     H713636   3.547   4.893   1.086  1.6171 -1.0342 -1.3493
  734THF     C813637   3.537   4.761   0.912  0.4712  0.0354 -0.3568
  734THF     C913638   3.542   4.610   0.921  0.6243  0.2672  0.0404
  734THF    H1013639   3.632   4.804   0.880  0.1971  0.8351 -0.1292
  734THF    H1113640   3.460   4.796   0.843 -0.6015  2.9336  2.1113
  734THF    H1213641   3.477   4.558   0.850  1.7327 -3.3844  1.4706
  734THF    H1313642   3.642   4.570   0.904 -0.6025 -3.3748  0.5719
  735THF     O113643   3.838   3.856   1.086 -0.3264  0.1460 -0.1983
  735THF     C213644   3.879   3.921   1.205 -0.5991 -0.7236 -0.1160
  735THF     C313645   3.699   3.890   1.064  0.2616  0.1032 -0.3591
  735THF     H413646   3.897   4.027   1.186  0.8793 -1.0122 -0.4613
  735THF     H513647   3.970   3.879   1.248 -0.8157 -0.8458  0.2243
  735THF     H613648   3.672   3.980   1.008  0.4462  0.5328  0.2372
  735THF     H713649   3.656   3.797   1.026 -0.1831  0.6983 -1.3482
  735THF     C813650   3.637   3.917   1.201  0.1642  0.0849  0.0011
  735THF     C913651   3.757   3.898   1.296  0.6764 -0.1827  0.1256
  735THF    H1013652   3.553   3.858   1.239 -0.5491  0.7793 -0.4572
  735THF    H1113653   3.605   4.021   1.214 -2.1673 -0.5653 -0.1437
  735THF    H1213654   3.754   3.964   1.383  0.2297 -1.0036  0.7525
  735THF    H1313655   3.755   3.800   1.344  2.0773  0.2734  1.1814
  736THF     O113656   4.982   4.979   0.989 -0.5284 -0.0750 -0.0603
  736THF     C213657   4.844   5.013   1.005  0.0796  0.7565 -0.0112
  736THF     C313658   5.062   5.049   1.087  0.8996 -0.3566 -0.1928
  736THF     H413659   4.794   4.935   1.062 -0.0676  0.5436 -0.4223
  736THF     H513660   4.804   5.022   0.904  0.7695  0.9433 -0.2743
  736THF     H613661   5.090   4.987   1.173  2.9036 -1.9403 -1.8598
  736THF     H713662   5.155   5.084   1.043  0.3935 -0.6750 -1.5819
  736THF     C813663   4.975   5.165   1.144  0.0215  0.2511  0.2652
  736THF     C913664   4.848   5.157   1.058 -0.3139 -0.1213  0.0753
  736THF    H1013665   5.015   5.265   1.127 -1.7565  0.6021 -2.5170
  736THF    H1113666   4.939   5.142   1.244 -2.6128 -0.3595 -0.7282
  736THF    H1213667   4.757   5.180   1.113 -0.1518 -2.0089  1.2441
  736THF    H1313668   4.860   5.229   0.977 -0.9540 -0.9834 -0.8055
  737THF     O113669   1.066   1.011   0.464  0.4713  0.0301  0.7001
  737THF     C213670   1.078   1.057   0.602 -0.5888  0.2945 -0.3128
  737THF     C313671   1.062   0.868   0.461 -0.0161  0.8934 -1.1042
  737THF     H413672   0.981   1.097   0.632 -1.9870 -3.4593  0.7150
  737THF     H513673   1.154   1.132   0.621  0.9870 -1.3803  0.3349
  737THF     H613674   0.992   0.841   0.382 -0.5946 -1.4969  0.1143
  737THF     H713675   1.165   0.837   0.443  0.7426  1.3013  1.9805
  737THF     C813676   1.020   0.826   0.598 -0.1286 -0.0247  0.6756
  737THF     C913677   1.096   0.927   0.680 -0.1062  0.1752 -0.6158
  737THF    H1013678   1.058   0.725   0.615  1.0900  0.6338  2.1024
  737THF    H1113679   0.911   0.829   0.607 -0.8470  0.3735 -4.7127
  737THF    H1213680   1.060   0.928   0.783  0.0014 -0.8249 -0.5600
  737THF    H1313681   1.191   0.874   0.678 -0.5707 -0.6918 -2.4328
  738THF     O113682   3.392   5.285   2.522 -0.1148 -0.4223 -0.1610
  738THF     C213683   3.256   5.276   2.559  0.0313  0.5900  0.4755
  738THF     C313684   3.466   5.243   2.633  0.5511  0.7078 -0.3835
  738THF     H413685   3.196   5.286   2.468 -1.3632 -1.6311  1.0622
  738THF     H513686   3.226   5.359   2.623 -1.2619 -1.4034  2.6172
  738THF     H613687   3.569   5.214   2.609  0.3261  0.8273 -1.5102
  738THF     H713688   3.461   5.323   2.707 -0.3803  0.1131  0.2216
  738THF     C813689   3.396   5.120   2.675 -0.5332  0.0586 -0.0417
  738THF     C913690   3.251   5.138   2.628 -0.2606  0.0826 -0.5124
  738THF    H1013691   3.409   5.088   2.778 -1.0084  2.8651  0.9791
  738THF    H1113692   3.431   5.035   2.616 -1.0023 -1.4550  1.7901
  738THF    H1213693   3.221   5.065   2.552 -0.4257 -1.3141  0.8311
  738THF    H1313694   3.180   5.135   2.711  0.2505 -1.2116 -0.0891
  739THF     O113695   3.827   3.208   3.163 -0.5565  0.2742  0.2923
  739THF     C213696   3.729   3.253   3.074  0.0950 -0.1438  0.1829
  739THF     C313697   3.936   3.295   3.142  0.4088  0.6165 -0.4843
  739THF     H413698   3.695   3.348   3.114 -0.0749 -0.9818  2.1157
  739THF     H513699   3.650   3.178   3.066  0.5909 -0.5369 -1.2970
  739THF     H613700   3.922   3.370   3.219  1.8843 -0.9321  1.3995
  739THF     H713701   4.034   3.250   3.158  0.0968  0.6511  1.7768
  739THF     C813702   3.920   3.351   3.000  0.9912 -0.9959 -0.1230
  739THF     C913703   3.791   3.288   2.949  0.7061  0.7403  0.7477
  739THF    H1013704   4.013   3.330   2.947  1.4203 -0.6819  0.4837
  739THF    H1113705   3.918   3.460   2.994  0.9837 -0.8859  1.3559
  739THF    H1213706   3.727   3.354   2.890  0.7647  0.5737  0.4993
  739THF    H1313707   3.820   3.205   2.885 -0.2066  1.6922 -0.9771
  740THF     O113708   4.504   1.034   2.652 -0.1492 -0.0302 -0.3762
  740THF     C213709   4.503   1.147   2.743 -0.5417  0.2230  0.0447
  740THF     C313710   4.632   1.038   2.584  0.4108 -0.1931  0.7129
  740THF     H413711   4.416   1.142   2.808 -2.5959 -0.2352 -2.5610
  740THF     H513712   4.476   1.241   2.693 -1.2702 -0.2260 -0.4220
  740THF     H613713   4.661   0.941   2.543  1.1180  0.7488 -1.1138
  740THF     H713714   4.606   1.105   2.502  0.0047  0.5681  1.4503
  740THF     C813715   4.726   1.099   2.684 -0.4933 -0.1155  0.0231
  740THF     C913716   4.645   1.160   2.794 -0.0467 -0.3755  0.0302
  740THF    H1013717   4.789   1.175   2.636  1.0134  0.2857  2.4457
  740THF    H1113718   4.786   1.023   2.734 -2.2884 -0.6541  1.4802
  740THF    H1213719   4.648   1.108   2.890 -0.8149  0.8783  0.7709
  740THF    H1313720   4.680   1.260   2.821  2.3780 -1.5713  1.7410
  741THF     O113721   0.245   4.728   4.858  0.5953 -0.0167 -0.2017
  741THF     C213722   0.176   4.703   4.984  0.5376  0.3218  0.8377
  741THF     C313723   0.224   4.860   4.803  0.0604  0.0971 -0.0828
  741THF     H413724   0.252   4.694   5.062  0.8190  0.9480  0.6344
  741THF     H513725   0.117   4.611   4.987  1.5818 -0.3622  0.7647
  741THF     H613726   0.309   4.922   4.775 -0.1234 -0.9475 -3.2820
  741THF     H713727   0.164   4.852   4.712 -1.1932 -0.1943  0.7371
  741THF     C813728   0.147   4.942   4.914 -0.1698  0.5962  0.0160
  741THF     C913729   0.086   4.823   5.004  0.0072  0.0108  0.2784
  741THF    H1013730   0.065   5.008   4.883  1.4977  1.9819 -1.7054
  741THF    H1113731   0.215   5.005   4.971  2.4020  0.1411 -2.3383
  741THF    H1213732   0.074   4.854   5.108  1.2031  1.6111 -0.0185
  741THF    H1313733  -0.015   4.801   4.970 -0.8281  2.2988  1.0175
  742THF     O113734   1.831   0.800   1.108  0.2611 -0.2131 -0.2703
  742THF     C213735   1.799   0.926   1.043  0.2077 -0.0105 -1.0368
  742THF     C313736   1.844   0.694   1.007 -0.0472  0.4650 -0.3931
  742THF     H413737   1.853   1.009   1.090 -0.2367 -0.1829 -0.1893
  742THF     H513738   1.693   0.954   1.044  0.1553 -0.2083 -1.0916
  742THF     H613739   1.909   0.614   1.043 -1.8543 -1.0095 -0.2150
  742THF     H713740   1.748   0.649   0.978  0.1734 -0.0688 -0.3137
  742THF     C813741   1.903   0.777   0.891 -0.2120 -0.2191  0.3804
  742THF     C913742   1.843   0.908   0.899  0.1746 -0.7343 -0.5579
  742THF    H1013743   1.889   0.732   0.793  0.6343 -0.3243  0.3023
  742THF    H1113744   2.011   0.787   0.905  0.0489  0.9609 -1.8717
  742THF    H1213745   1.903   0.993   0.869 -0.5594  0.1521  0.4037
  742THF    H1313746   1.749   0.908   0.844 -1.1672  0.4522  1.5840
  743THF     O113747   5.109   3.714   4.565  0.4312  0.1284 -0.3644
  743THF     C213748   5.053   3.670   4.692  0.4613  0.3206  0.5260
  743THF     C313749   5.244   3.756   4.577  0.4966  0.1645 -0.4066
  743THF     H413750   5.051   3.562   4.675  1.0731  0.5433 -1.0460
  743THF     H513751   4.951   3.703   4.709  0.0170  0.0556 -1.3835
  743THF     H613752   5.312   3.671   4.564  1.8212  1.2284 -0.6309
  743THF     H713753   5.269   3.837   4.509  0.4586  1.4691  1.1092
  743THF     C813754   5.252   3.794   4.724 -0.9079 -0.6093  0.2549
  743THF     C913755   5.159   3.701   4.797  0.3846 -0.5394  0.0687
  743THF    H1013756   5.214   3.894   4.742 -1.9994 -1.2521  1.7834
  743THF    H1113757   5.355   3.786   4.759 -1.0200 -0.5852  0.5890
  743THF    H1213758   5.213   3.610   4.824 -0.0245 -1.3333 -1.7082
  743THF    H1313759   5.124   3.749   4.889 -4.1234  0.1936 -1.8003
  744THF     O113760   4.145   2.557   3.216 -0.4637  0.1209  0.3228
  744THF     C213761   4.197   2.539   3.085  0.3347  0.1005 -0.0003
  744THF     C313762   4.146   2.434   3.295  0.8210  0.1242 -0.3444
  744THF     H413763   4.298   2.580   3.079  0.8672 -1.0098  0.8926
  744THF     H513764   4.141   2.607   3.022  0.9310  1.0140  0.4312
  744THF     H613765   4.181   2.439   3.398 -0.1326 -2.1260  0.1453
  744THF     H713766   4.041   2.406   3.306  1.0511 -0.5634  0.1818
  744THF     C813767   4.219   2.339   3.201  0.0539 -0.0085 -0.1969
  744THF     C913768   4.193   2.397   3.061  0.2659  0.7338  0.1350
  744THF    H1013769   4.190   2.236   3.220  1.8035 -0.0232  3.1083
  744THF    H1113770   4.326   2.346   3.223 -0.1964 -0.0380  1.0959
  744THF    H1213771   4.260   2.360   2.983 -1.5667 -1.6277 -0.4555
  744THF    H1313772   4.096   2.367   3.020  0.5234 -0.9812  0.6876
  745THF     O113773   2.152   4.198   0.387  0.1226  0.0740  0.2688
  745THF     C213774   2.120   4.156   0.255 -0.1775 -0.6338 -0.6551
  745THF     C313775   2.248   4.111   0.440 -0.6372  0.4624  0.7290
  745THF     H413776   2.066   4.233   0.199  1.9739  0.3594 -1.4925
  745THF     H513777   2.059   4.066   0.255  0.8309 -1.3463 -2.1592
  745THF     H613778   2.308   4.169   0.509  0.8922 -0.1372 -0.0446
  745THF     H713779   2.203   4.030   0.498 -0.8660 -0.2205 -0.3540
  745THF     C813780   2.326   4.061   0.318 -0.1047 -0.3780  0.7700
  745THF     C913781   2.267   4.143   0.208 -0.1146  0.4005 -0.6191
  745THF    H1013782   2.304   3.956   0.299 -0.9132 -0.6285  2.8266
  745THF    H1113783   2.431   4.091   0.319 -0.0001 -0.7353  0.5245
  745THF    H1213784   2.313   4.242   0.205 -1.1098  0.9104  0.3024
  745THF    H1313785   2.280   4.091   0.113 -1.3163  1.3613 -1.3388
  746THF     O113786   1.562   2.424   0.421  0.2398 -0.3776  0.2652
  746THF     C213787   1.517   2.521   0.515 -0.4500 -0.4487  0.2493
  746THF     C313788   1.460   2.329   0.417  0.5017  0.6914 -0.5659
  746THF     H413789   1.430   2.577   0.482 -0.8502 -0.6506  0.9359
  746THF     H513790   1.589   2.599   0.541 -0.8996 -0.0121  0.2006
  746THF     H613791   1.367   2.375   0.382  0.1939  1.7760  1.5115
  746THF     H713792   1.484   2.247   0.349 -2.4777  0.5163 -1.5489
  746THF     C813793   1.457   2.304   0.568 -0.3460 -0.2097  0.6560
  746THF     C913794   1.470   2.444   0.633  0.2191  0.5153 -0.4101
  746THF    H1013795   1.536   2.241   0.607 -0.4969 -0.7373  0.1094
  746THF    H1113796   1.362   2.250   0.576 -0.1582 -0.5167  0.7954
  746THF    H1213797   1.372   2.485   0.657  0.0679  0.4721 -0.9391
  746THF    H1313798   1.546   2.452   0.710 -0.8940 -0.2062  0.8220
  747THF     O113799   1.156   4.148   2.671  0.5074 -0.4413 -0.4206
  747THF     C213800   1.203   4.265   2.738 -0.3961  0.0839 -0.1383
  747THF     C313801   1.080   4.195   2.551 -0.2400 -0.6057  0.2006
  747THF     H413802   1.275   4.252   2.818  1.3219  0.7183 -1.5159
  747THF     H513803   1.120   4.298   2.799 -0.5009 -2.2898  1.1323
  747THF     H613804   1.093   4.125   2.469 -0.8319 -0.8385  0.2986
  747THF     H713805   0.974   4.192   2.575 -0.2866  0.8021  0.2945
  747THF     C813806   1.145   4.335   2.517 -0.6181  0.6876  0.1208
  747THF     C913807   1.240   4.357   2.635 -0.3502 -0.2025  0.7305
  747THF    H1013808   1.061   4.403   2.509 -1.4650 -0.3887 -0.3970
  747THF    H1113809   1.197   4.342   2.422  0.6995  2.2708  0.9039
  747THF    H1213810   1.339   4.321   2.607 -0.5940 -1.1643  1.0812
  747THF    H1313811   1.251   4.457   2.678  0.6204 -0.6927  1.6491
  748THF     O113812   4.911   5.411   4.068 -0.0380 -0.9627 -0.0223
  748THF     C213813   4.937   5.279   4.023 -1.1809  0.0832  0.3094
  748THF     C313814   4.859   5.478   3.954  0.0239  0.0161 -0.1445
  748THF     H413815   4.840   5.228   4.031 -0.9676 -0.2842  0.6357
  748THF     H513816   4.996   5.218   4.092 -1.0834  0.4075  0.5128
  748THF     H613817   4.751   5.465   3.946  0.0050  0.7710 -1.5733
  748THF     H713818   4.881   5.585   3.961  3.6764 -0.5669 -0.5561
  748THF     C813819   4.929   5.414   3.834 -0.5563 -1.6690  0.0869
  748THF     C913820   4.991   5.291   3.880  0.1024  0.8926  0.2466
  748THF    H1013821   5.006   5.480   3.796 -3.5463  1.2713 -1.3435
  748THF    H1113822   4.858   5.395   3.753 -1.4041  0.1138  0.3696
  748THF    H1213823   4.992   5.205   3.815  1.6590 -0.4001  1.8641
  748THF    H1313824   5.094   5.303   3.917  1.1364 -0.5196 -1.9967
  749THF     O113825   0.168   4.100   0.198 -0.0570  0.3754 -0.3434
  749THF     C213826   0.302   4.131   0.149  0.0849  0.0143  0.0094
  749THF     C313827   0.119   3.991   0.126  1.2807  0.4189  0.3030
  749THF     H413828   0.362   4.182   0.224  0.4865  1.8275 -1.4946
  749THF     H513829   0.305   4.198   0.064  1.4173  1.3412  1.0364
  749THF     H613830   0.065   3.938   0.204 -2.2203  0.2717 -1.9792
  749THF     H713831   0.048   4.012   0.046  0.0562 -0.3910  1.1336
  749THF     C813832   0.236   3.919   0.069  0.2847 -0.0946  0.4964
  749THF     C913833   0.354   3.992   0.121  0.3750  0.0012 -0.1626
  749THF    H1013834   0.235   3.944  -0.037 -1.0248 -1.6259  0.1187
  749THF    H1113835   0.235   3.812   0.086  0.2742 -0.2715 -0.5768
  749THF    H1213836   0.390   3.944   0.213  1.9778  0.6966 -0.3970
  749THF    H1313837   0.438   3.995   0.053  0.7206 -0.5273  0.2338
  750THF     O113838   3.015   0.609   2.766  0.2253  0.6175  0.5489
  750THF     C213839   2.966   0.623   2.897  0.4192 -0.4802  0.8919
  750THF     C313840   3.085   0.489   2.745 -0.2133  0.2845 -0.2027
  750THF     H413841   2.890   0.701   2.902  1.0921  0.2938 -0.3330
  750THF     H513842   3.057   0.650   2.951  0.3232 -1.0191  1.3376
  750THF     H613843   3.048   0.444   2.653  1.2205 -0.2643 -0.5364
  750THF     H713844   3.193   0.497   2.737 -0.1070 -0.0530  0.8197
  750THF     C813845   3.048   0.399   2.867  0.5051 -0.2485 -0.0883
  750THF     C913846   2.936   0.476   2.941  0.4720 -0.1163 -0.2721
  750THF    H1013847   3.135   0.406   2.933  1.1782 -2.2331 -0.6829
  750THF    H1113848   3.037   0.296   2.832  0.8017 -0.0424 -0.7988
  750THF    H1213849   2.841   0.439   2.904 -0.5964 -0.4665  2.5865
  750THF    H1313850   2.940   0.474   3.050  1.2651  2.6604 -0.1645
  751THF     O113851   3.540   3.956   3.264 -0.0249  0.0396  0.1713
  751THF     C213852   3.586   4.045   3.161  0.1303 -0.7710 -0.0857
  751THF     C313853   3.440   4.025   3.341  0.4766 -0.5516  0.4403
  751THF     H413854   3.614   3.991   3.070 -2.1627  1.5592 -2.3717
  751THF     H513855   3.678   4.088   3.200 -0.2094  0.7362 -0.8514
  751THF     H613856   3.381   3.956   3.403  0.4240  1.5880  2.9308
  751THF     H713857   3.482   4.100   3.408 -1.4331  0.2116  0.8498
  751THF     C813858   3.352   4.098   3.229 -0.1690 -0.8273  0.1717
  751THF     C913859   3.467   4.140   3.133 -0.0797 -0.1798  0.1534
  751THF    H1013860   3.292   4.184   3.260  0.2382  0.2845 -1.9605
  751THF    H1113861   3.280   4.031   3.182 -1.0268  0.7019 -0.7872
  751THF    H1213862   3.444   4.133   3.026  0.2234 -0.6589  0.1189
  751THF    H1313863   3.504   4.240   3.153  1.1366 -0.8080  1.2006
  752THF     O113864   4.141   3.061   0.885 -0.2564 -0.5867  0.3580
  752THF     C213865   4.116   2.921   0.921 -0.8753 -0.5343  0.2430
  752THF     C313866   4.272   3.078   0.832 -0.3367  0.1100 -0.0113
  752THF     H413867   4.090   2.859   0.834 -0.0360  0.8801 -1.0609
  752THF     H513868   4.036   2.907   0.994 -3.6313  1.9848 -2.0085
  752THF     H613869   4.286   3.038   0.731  0.7590 -0.6727  0.4327
  752THF     H713870   4.307   3.182   0.837  1.6194 -0.4258 -1.3624
  752THF     C813871   4.342   2.998   0.942 -0.2254  0.0066 -0.2879
  752THF     C913872   4.248   2.889   0.984 -0.4708 -0.5021 -0.2679
  752THF    H1013873   4.374   3.061   1.025  1.5413  3.0335 -3.0229
  752THF    H1113874   4.437   2.954   0.911 -1.2735 -1.2842 -1.8578
  752THF    H1213875   4.270   2.790   0.945 -0.0786 -0.4249 -0.2478
  752THF    H1313876   4.237   2.889   1.093 -1.9287  0.1882 -0.3928
  753THF     O113877   1.961   2.600   3.570  0.0039  0.0335 -0.3565
  753THF     C213878   1.849   2.509   3.588  0.1168  0.5332 -0.1537
  753THF     C313879   1.921   2.721   3.637 -1.0148 -0.2089 -0.3526
  753THF     H413880   1.853   2.470   3.690  2.9295  1.1872  0.0540
  753THF     H513881   1.851   2.430   3.512 -0.2186  0.5140 -0.1453
  753THF     H613882   1.994   2.741   3.716 -0.9639  1.0585 -0.7003
  753THF     H713883   1.933   2.792   3.555  2.3745  1.4404  1.3518
  753THF     C813884   1.776   2.713   3.678  0.1345  0.3373  0.4915
  753THF     C913885   1.726   2.599   3.587 -0.2492  0.8788 -0.4894
  753THF    H1013886   1.721   2.806   3.667  0.6882  0.6866  0.6219
  753THF    H1113887   1.755   2.674   3.777 -1.7035  0.1846  0.0697
  753THF    H1213888   1.635   2.548   3.616 -1.2129  1.8914 -1.6295
  753THF    H1313889   1.700   2.630   3.486  1.4295  0.5469 -1.0533
  754THF     O113890   4.942   1.234   0.557  0.0740 -0.7930  0.0968
  754THF     C213891   5.055   1.301   0.506 -0.5732 -0.4653  0.1351
  754THF     C313892   4.828   1.305   0.517 -0.5098 -0.2400 -0.3428
  754THF     H413893   5.144   1.240   0.512 -1.0034 -1.0791  0.4086
  754THF     H513894   5.073   1.390   0.567 -1.2215  0.2259 -0.6401
  754THF     H613895   4.743   1.237   0.520 -0.7246  0.0406  0.0785
  754THF     H713896   4.809   1.388   0.586  3.0074  1.5212 -1.2570
  754THF     C813897   4.864   1.376   0.380  0.1410  0.0800  0.3843
  754THF     C913898   5.011   1.336   0.360 -0.3087 -0.6321 -0.3090
  754THF    H1013899   4.841   1.483   0.384 -1.0610 -0.1124 -0.9016
  754THF    H1113900   4.812   1.336   0.294 -0.0847  1.5431 -0.1952
  754THF    H1213901   5.013   1.249   0.295 -1.0428 -0.8151 -0.1050
  754THF    H1313902   5.064   1.416   0.310  1.4258 -0.1596  2.1051
  755THF     O113903   1.572   4.831   4.253 -0.8803  0.4667  0.4759
  755THF     C213904   1.656   4.739   4.179 -0.0885  0.1341 -0.4596
  755THF     C313905   1.440   4.811   4.208  0.5394 -0.9178  0.2310
  755THF     H413906   1.669   4.640   4.221  0.4251  0.3923  0.0049
  755THF     H513907   1.757   4.781   4.184  0.8545 -1.9648 -0.7055
  755THF     H613908   1.376   4.738   4.258 -4.0425  1.7872 -1.0005
  755THF     H713909   1.380   4.900   4.228 -0.5133 -1.1972 -1.4212
  755THF     C813910   1.459   4.782   4.055 -0.0073 -0.4769  0.2699
  755THF     C913911   1.606   4.736   4.034  0.0216  0.2294 -0.4873
  755THF    H1013912   1.451   4.876   4.000  0.0114 -0.7569 -0.2102
  755THF    H1113913   1.384   4.717   4.011  0.3188 -0.9990  0.4753
  755THF    H1213914   1.610   4.640   3.983  0.3783  1.2338 -2.4750
  755THF    H1313915   1.662   4.813   3.980  0.0207  2.0341  1.9211
  756THF     O113916   1.011   3.661   4.457 -0.5166  0.4363  0.6061
  756THF     C213917   1.058   3.534   4.416 -0.6348  0.0989  0.0944
  756THF     C313918   0.897   3.695   4.384 -0.2095 -0.0317  0.3777
  756THF     H413919   1.129   3.491   4.487  0.3481  1.6498  0.0703
  756THF     H513920   1.102   3.527   4.317 -0.8744 -3.3865  0.1021
  756THF     H613921   0.834   3.766   4.438  2.5750  2.2747  0.8552
  756THF     H713922   0.919   3.743   4.289  1.9710 -0.1039  0.7889
  756THF     C813923   0.827   3.557   4.362 -0.3185  0.3826  0.4500
  756THF     C913924   0.927   3.451   4.411  0.0422 -0.2911  0.6687
  756THF    H1013925   0.794   3.535   4.260  1.2047  3.2211 -0.7618
  756THF    H1113926   0.734   3.555   4.419 -0.1861 -1.7637  0.6694
  756THF    H1213927   0.903   3.420   4.512  1.5548 -1.3632  0.7374
  756THF    H1313928   0.934   3.364   4.346  1.4887  1.8408 -2.3179
  757THF     O113929   1.185   0.010   4.077  0.4953  0.1756 -0.6396
  757THF     C213930   1.089   0.111   4.071  0.3182 -0.2309  0.3538
  757THF     C313931   1.261   0.029   3.958 -0.4619  0.5999 -0.8985
  757THF     H413932   1.034   0.122   4.165 -1.5514 -1.2352 -0.5737
  757THF     H513933   1.011   0.098   3.997 -0.8132  1.1211  1.2408
  757THF     H613934   1.359  -0.011   3.985  0.1970  1.5992 -1.7403
  757THF     H713935   1.223  -0.031   3.875 -0.5136  0.7242 -0.9640
  757THF     C813936   1.259   0.175   3.924 -0.3916  0.4717  0.4384
  757THF     C913937   1.174   0.228   4.029  0.0268 -0.0562  0.1844
  757THF    H1013938   1.219   0.174   3.823 -0.1615 -1.3062  0.3322
  757THF    H1113939   1.358   0.218   3.917  0.1217 -0.8559 -1.1712
  757THF    H1213940   1.231   0.261   4.115  0.3951 -3.2999  1.3198
  757THF    H1313941   1.115   0.315   3.997  0.1306 -0.3837 -0.9587
  758THF     O113942   1.443   1.480   1.549 -0.7672  0.6631  0.2041
  758THF     C213943   1.500   1.586   1.629  0.2211 -0.2748  0.5576
  758THF     C313944   1.388   1.383   1.635  0.1120  0.5783 -0.0845
  758THF     H413945   1.494   1.683   1.580  0.5193 -0.4105  0.2418
  758THF     H513946   1.606   1.560   1.631  0.9495  1.9291 -2.5131
  758THF     H613947   1.289   1.358   1.596  1.1493 -1.7819 -1.3891
  758THF     H713948   1.442   1.293   1.610 -1.3134  0.3054 -2.4715
  758THF     C813949   1.405   1.428   1.777 -0.2915  0.5509  0.0934
  758THF     C913950   1.417   1.580   1.759 -0.3071  0.0017 -0.2052
  758THF    H1013951   1.498   1.388   1.817 -0.9507 -1.0892  0.0766
  758THF    H1113952   1.326   1.399   1.847 -1.5017  5.5675  1.2256
  758THF    H1213953   1.318   1.624   1.767  0.4464  1.4580  1.7965
  758THF    H1313954   1.483   1.626   1.832 -0.0111 -0.3636 -0.2361
  759THF     O113955   1.925   5.027   2.831 -0.3394 -0.5545  0.0716
  759THF     C213956   2.028   5.022   2.729 -0.3474 -0.0129  0.3650
  759THF     C313957   1.934   5.163   2.871  0.2896  0.6041 -0.9444
  759THF     H413958   2.034   4.925   2.681  2.0927 -0.5036  1.5146
  759THF     H513959   2.126   5.033   2.777 -0.1638  1.0195 -0.2002
  759THF     H613960   1.857   5.200   2.938 -0.5994 -2.6059 -0.0171
  759THF     H713961   2.031   5.166   2.922 -0.3181  0.1588  0.2661
  759THF     C813962   1.966   5.249   2.743  0.0892 -0.4169  0.3106
  759THF     C913963   2.015   5.145   2.644 -0.1029  0.0335 -0.3555
  759THF    H1013964   2.044   5.318   2.773 -1.1309  1.2175 -0.1221
  759THF    H1113965   1.884   5.306   2.699 -1.1960 -0.2907  2.6447
  759THF    H1213966   1.937   5.121   2.571  0.4311  2.2392 -1.7758
  759THF    H1313967   2.106   5.168   2.589 -1.0146 -0.5599 -2.2069
  760THF     O113968   1.576   2.315   4.944  0.1703  0.1937 -0.4146
  760THF     C213969   1.460   2.345   4.868 -0.0586  0.1602  0.3715
  760THF     C313970   1.636   2.436   4.977 -0.2614  0.8117  0.1645
  760THF     H413971   1.385   2.267   4.881 -0.8666  1.0100  0.9611
  760THF     H513972   1.491   2.357   4.764 -0.3176  1.7430  0.4564
  760THF     H613973   1.675   2.447   5.078  1.4848  1.2397 -0.5222
  760THF     H713974   1.730   2.449   4.924 -0.2726 -1.9457 -0.6910
  760THF     C813975   1.546   2.555   4.946  0.3792  0.2600 -0.4620
  760THF     C913976   1.415   2.486   4.913  0.1027 -0.3209  0.7058
  760THF    H1013977   1.583   2.601   4.855 -0.1440 -1.1305 -1.4252
  760THF    H1113978   1.535   2.623   5.031 -0.1634 -0.9845  0.5038
  760THF    H1213979   1.356   2.479   5.004  1.1832  0.8693  1.5327
  760THF    H1313980   1.367   2.541   4.832  0.4486 -0.0598  0.6772
  761THF     O113981   3.376   0.863   3.573  0.4096 -0.1661  0.5738
  761THF     C213982   3.349   0.924   3.446  0.7643 -0.1133 -0.0928
  761THF     C313983   3.514   0.880   3.598  0.3996 -0.0385  0.1547
  761THF     H413984   3.292   1.017   3.446 -0.7796 -0.9470 -2.5044
  761THF     H513985   3.283   0.854   3.395  1.5056 -0.0317 -1.1780
  761THF     H613986   3.521   0.984   3.627  2.0748  0.9345 -3.2253
  761THF     H713987   3.559   0.817   3.676 -0.4651 -0.1192  0.5988
  761THF     C813988   3.581   0.875   3.459 -0.1672 -0.1951 -0.3365
  761THF     C913989   3.472   0.930   3.364  0.2771  0.1893 -0.8515
  761THF    H1013990   3.619   0.781   3.421 -0.8565  0.0440 -1.7125
  761THF    H1113991   3.671   0.936   3.465 -0.5170  0.3460 -0.4492
  761THF    H1213992   3.501   1.033   3.340  2.9273  0.1803  1.6687
  761THF    H1313993   3.468   0.876   3.270 -1.4843 -0.4950 -0.4124
  762THF     O113994   3.395   4.778   4.110  0.8132 -0.4427 -0.2401
  762THF     C213995   3.443   4.683   4.007  0.1892 -0.4563  0.5939
  762THF     C313996   3.264   4.810   4.071  0.1404  0.1782 -0.5608
  762THF     H413997   3.542   4.648   4.037  0.2338 -0.6558  0.2108
  762THF     H513998   3.452   4.728   3.908  1.3703 -0.6089  0.6112
  762THF     H613999   3.196   4.846   4.149 -0.6218 -1.9797 -0.1832
  762THF     H714000   3.256   4.892   3.999 -0.0032 -0.4922 -1.3131
  762THF     C814001   3.217   4.670   4.026 -0.2480  0.4038 -1.0945
  762THF     C914002   3.336   4.575   4.020  0.6629 -0.5622 -0.0671
  762THF    H1014003   3.177   4.685   3.925  0.1494 -1.1869 -1.5053
  762THF    H1114004   3.134   4.636   4.087 -0.4004  2.1640 -0.2409
  762THF    H1214005   3.356   4.540   4.121  0.5650 -1.2757 -0.2937
  762THF    H1314006   3.343   4.500   3.941 -1.2777 -2.9235  1.8706
  763THF     O114007   3.240   4.403   3.016 -0.2704  0.4314  0.1609
  763THF     C214008   3.137   4.446   2.925  0.3336  0.3944  0.3806
  763THF     C314009   3.199   4.439   3.150 -0.4160  0.7054  0.3799
  763THF     H414010   3.048   4.384   2.932 -0.1893  1.3200  3.5652
  763THF     H514011   3.172   4.462   2.823 -1.4265 -0.9948 -0.4984
  763THF     H614012   3.132   4.359   3.182 -0.7360  0.3634 -1.1053
  763THF     H714013   3.279   4.438   3.224 -0.4237  1.0010  0.3955
  763THF     C814014   3.145   4.580   3.123 -0.5294 -0.0893  0.4070
  763THF     C914015   3.083   4.572   2.984 -0.1387 -0.0881  0.1931
  763THF    H1014016   3.229   4.650   3.128 -0.3774 -0.1180 -1.2136
  763THF    H1114017   3.065   4.607   3.193 -0.9846 -0.9778  0.2409
  763THF    H1214018   2.976   4.570   3.005 -0.1175  1.2176  0.5412
  763THF    H1314019   3.092   4.661   2.921 -2.5113 -0.8935 -1.4177
  764THF     O114020   0.877   2.526   3.860 -0.1473  0.4691  0.1080
  764THF     C214021   0.894   2.618   3.966 -0.9300  0.1236 -0.2215
  764THF     C314022   1.006   2.468   3.847  1.2122  0.2282  0.0936
  764THF     H414023   0.882   2.568   4.062  0.7477  0.1712  0.0388
  764THF     H514024   0.816   2.692   3.946 -0.6752  0.0783 -1.5028
  764THF     H614025   1.018   2.405   3.935 -0.5214 -1.5634 -0.8638
  764THF     H714026   1.022   2.408   3.757 -0.7626 -1.9114  1.0623
  764THF     C814027   1.090   2.591   3.846  0.1060  0.7121  0.3960
  764THF     C914028   1.029   2.685   3.943  1.0805 -0.5764 -0.8282
  764THF    H1014029   1.095   2.642   3.750 -1.2949 -1.0338 -0.6595
  764THF    H1114030   1.191   2.562   3.873 -0.2779 -0.1486  0.9400
  764THF    H1214031   1.084   2.699   4.036 -0.5954 -2.0224  0.4236
  764THF    H1314032   1.003   2.783   3.902 -0.3529 -0.3655  0.5139
  765THF     O114033   0.537   0.864   2.396 -0.1515 -0.1787  0.2500
  765THF     C214034   0.652   0.920   2.328  0.1005  0.0934 -0.3723
  765THF     C314035   0.540   0.719   2.376  0.1288 -0.7085  0.4187
  765THF     H414036   0.749   0.900   2.373 -0.1776  0.2221  0.3082
  765THF     H514037   0.642   1.028   2.314  2.9557  0.6201  0.9653
  765THF     H614038   0.612   0.689   2.452  1.4569  0.1983 -0.4474
  765THF     H714039   0.441   0.674   2.385  1.3670 -3.3071  2.4664
  765THF     C814040   0.595   0.705   2.232  0.3416 -0.4036  0.0165
  765THF     C914041   0.636   0.848   2.193 -0.6558  0.9497  0.6621
  765THF    H1014042   0.518   0.670   2.162 -0.6187  0.7200  0.4724
  765THF    H1114043   0.683   0.641   2.226  0.6955  0.1727 -1.3761
  765THF    H1214044   0.720   0.839   2.124 -2.1922  0.7613 -1.2892
  765THF    H1314045   0.556   0.881   2.127 -0.9922 -2.2747 -0.7077
  766THF     O114046   0.674   4.624   4.685 -0.4192 -0.9584  0.0718
  766THF     C214047   0.704   4.673   4.559  0.4009  0.1867 -0.1283
  766THF     C314048   0.538   4.586   4.690  0.5709 -0.3304 -0.4435
  766THF     H414049   0.753   4.592   4.506  1.0749 -0.4563  1.3997
  766THF     H514050   0.773   4.758   4.563  0.9454 -0.2803  0.6361
  766THF     H614051   0.536   4.477   4.694  0.7218 -0.3855 -1.4909
  766THF     H714052   0.495   4.633   4.778 -0.4925  0.6809 -1.4625
  766THF     C814053   0.471   4.621   4.563  0.5094 -0.2557  0.0552
  766THF     C914054   0.565   4.725   4.508  0.2488  0.3617 -0.6984
  766THF    H1014055   0.367   4.650   4.576  0.8543  0.5298  1.1436
  766THF    H1114056   0.475   4.527   4.507 -0.6763 -0.1580 -0.2336
  766THF    H1214057   0.561   4.742   4.401  0.9983  0.6556 -0.6858
  766THF    H1314058   0.553   4.822   4.555  2.5863  0.5533 -0.4031
  767THF     O114059   2.316   4.498   4.135 -0.0223 -0.1155  0.1402
  767THF     C214060   2.421   4.576   4.078 -0.2426 -0.1381  0.5720
  767THF     C314061   2.376   4.424   4.246  0.6013  0.0632 -0.0682
  767THF     H414062   2.437   4.674   4.124  1.8168  0.1336 -0.5935
  767THF     H514063   2.399   4.601   3.975  2.1494  2.5698  0.5872
  767THF     H614064   2.387   4.484   4.337 -1.0168  1.6412 -0.8357
  767THF     H714065   2.318   4.335   4.270 -3.1375  1.6543 -2.2187
  767THF     C814066   2.518   4.393   4.214 -0.1385  0.2480 -0.3257
  767THF     C914067   2.539   4.488   4.098  0.0429  0.3417  0.3059
  767THF    H1014068   2.534   4.288   4.188  0.1469 -0.1835  1.4309
  767THF    H1114069   2.597   4.425   4.283  0.6601  0.7715 -1.4629
  767THF    H1214070   2.630   4.545   4.112  1.4475 -1.0638 -2.2352
  767THF    H1314071   2.558   4.444   4.000  2.3451 -0.2770  0.9681
  768THF     O114072   4.980   3.296   2.484  0.1749 -0.3598  0.2305
  768THF     C214073   5.111   3.340   2.491 -0.7353 -0.5222 -0.1865
  768THF     C314074   4.963   3.202   2.589  0.0793  0.1928 -0.0785
  768THF     H414075   5.121   3.419   2.565  1.0983  0.4431 -1.4080
  768THF     H514076   5.143   3.376   2.393  1.9936  0.5938  1.0250
  768THF     H614077   4.930   3.269   2.668  1.3821  2.2079 -1.1692
  768THF     H714078   4.874   3.146   2.559  0.5729 -1.1228  0.8098
  768THF     C814079   5.096   3.130   2.598 -0.2305  0.1948  0.5029
  768THF     C914080   5.196   3.224   2.537 -0.7601 -0.4451 -0.1561
  768THF    H1014081   5.093   3.044   2.532  0.5848 -0.2504  1.0319
  768THF    H1114082   5.111   3.085   2.697 -1.5094 -0.2193  0.5336
  768THF    H1214083   5.280   3.263   2.595 -0.9906 -0.0258 -0.0943
  768THF    H1314084   5.244   3.175   2.453  1.3901  0.1337  0.6648
  769THF     O114085   5.337   3.913   1.816  0.4871  0.0721 -0.8808
  769THF     C214086   5.294   3.779   1.814  0.2093 -0.0691 -0.0818
  769THF     C314087   5.250   3.981   1.907 -0.2985  0.6342  0.0484
  769THF     H414088   5.368   3.717   1.764  0.0517 -1.1880  1.0372
  769THF     H514089   5.197   3.773   1.765 -0.2503 -0.1203  0.8134
  769THF     H614090   5.309   4.070   1.932  2.2746 -0.6105 -1.2404
  769THF     H714091   5.161   4.024   1.860  0.1074  1.3447 -0.0846
  769THF     C814092   5.239   3.887   2.025  0.2365  0.6832 -0.6088
  769THF     C914093   5.241   3.748   1.954  0.4463 -0.4342 -0.1070
  769THF    H1014094   5.151   3.904   2.088  0.3724  0.7292 -0.4324
  769THF    H1114095   5.328   3.904   2.084  1.0024  1.9459 -2.0599
  769THF    H1214096   5.295   3.673   2.013 -0.6177 -3.0210 -2.2430
  769THF    H1314097   5.139   3.712   1.956  0.5030 -0.6294 -0.6148
  770THF     O114098   3.020   0.072   3.379  0.1845  0.7686 -0.3517
  770THF     C214099   3.074  -0.015   3.477 -0.6015  0.0398  0.2314
  770THF     C314100   3.112   0.181   3.358 -0.1255 -0.7499 -0.1953
  770THF     H414101   3.147  -0.079   3.427  0.3603  0.8798  0.5389
  770THF     H514102   3.004  -0.076   3.536  0.6136 -0.1207  1.5634
  770THF     H614103   3.166   0.173   3.264  0.7264  1.4048  0.0555
  770THF     H714104   3.058   0.276   3.354 -1.4205 -1.5028 -1.3878
  770THF     C814105   3.204   0.191   3.479  0.5601 -0.1595 -0.3372
  770THF     C914106   3.139   0.089   3.570  0.1484 -0.2485  0.1823
  770THF    H1014107   3.215   0.287   3.529  3.2807 -0.4488 -0.2313
  770THF    H1114108   3.305   0.156   3.459  0.7350 -0.0193  0.2849
  770THF    H1214109   3.213   0.043   3.636 -0.7687  0.4974  1.8011
  770THF    H1314110   3.065   0.143   3.629  0.7879  2.2207 -1.1502
  771THF     O114111   4.705   0.926   4.468  0.3655  0.2035 -0.4692
  771THF     C214112   4.681   1.060   4.514 -0.2206  0.1099 -0.7039
  771THF     C314113   4.844   0.888   4.483  0.0120  0.4743  0.5101
  771THF     H414114   4.581   1.079   4.553 -0.3370  0.1755 -1.0305
  771THF     H514115   4.697   1.129   4.432 -0.8380 -0.7037 -1.5250
  771THF     H614116   4.849   0.785   4.517 -4.5798  0.0206  0.3619
  771THF     H714117   4.887   0.900   4.383  0.1069  1.4616  0.6631
  771THF     C814118   4.907   0.991   4.578 -0.3933  0.6645 -0.0106
  771THF     C914119   4.783   1.065   4.628 -0.4632 -0.3141 -0.6516
  771THF    H1014120   4.973   1.048   4.512  0.6582  0.0766  0.5005
  771THF    H1114121   4.961   0.933   4.653 -1.1724  1.0056  0.8226
  771THF    H1214122   4.726   1.027   4.713 -1.7432  1.8817 -0.4543
  771THF    H1314123   4.826   1.162   4.652  2.4346 -1.2760 -1.4957
  772THF     O114124   4.911   0.627   4.296 -0.2952  0.3111  0.1161
  772THF     C214125   4.932   0.490   4.284 -0.0860  1.2902 -0.5352
  772THF     C314126   4.847   0.691   4.183 -0.6109 -0.0607 -0.7843
  772THF     H414127   4.891   0.442   4.373 -0.7619  0.5835 -1.2139
  772THF     H514128   5.039   0.474   4.269 -0.0497 -2.7922  2.4801
  772THF     H614129   4.746   0.723   4.207 -0.7941 -0.3485 -1.1697
  772THF     H714130   4.905   0.768   4.131 -0.8859  0.7778  0.1010
  772THF     C814131   4.853   0.576   4.087  0.0865  0.3633  0.3096
  772THF     C914132   4.843   0.447   4.160  0.3503  0.2115 -0.7643
  772THF    H1014133   4.949   0.575   4.035 -0.3347 -1.4334 -0.5153
  772THF    H1114134   4.775   0.598   4.014  0.1287 -1.4030 -0.3165
  772THF    H1214135   4.743   0.424   4.196 -0.1637  0.4461 -1.9919
  772THF    H1314136   4.890   0.364   4.108 -0.3781 -1.9114  1.8047
  773THF     O114137   1.929   2.147   5.216 -0.1857 -0.5019  0.3243
  773THF     C214138   2.060   2.100   5.222 -0.3496 -0.6566  0.0500
  773THF     C314139   1.891   2.169   5.078 -0.0864 -0.5618 -0.6585
  773THF     H414140   2.076   2.014   5.288  3.1613  0.2490  0.5523
  773THF     H514141   2.125   2.182   5.250 -1.4669  0.9715 -1.8763
  773THF     H614142   1.807   2.104   5.052 -0.0845 -0.1314 -1.8007
  773THF     H714143   1.860   2.272   5.059  1.4334 -0.4173 -2.7966
  773THF     C814144   2.018   2.146   4.995  0.4415 -0.9910  0.3275
  773THF     C914145   2.097   2.050   5.078 -0.8019 -0.7729 -0.4223
  773THF    H1014146   2.068   2.239   4.970  0.8177 -1.3826 -0.4002
  773THF    H1114147   1.981   2.097   4.905 -2.7344  0.1573  0.8939
  773THF    H1214148   2.075   1.948   5.049 -0.8913 -1.1105  0.7754
  773THF    H1314149   2.205   2.057   5.060 -0.9737  2.0228 -0.7881
  774THF     O114150   2.547   5.330   4.574 -0.0305  0.1362  0.1442
  774THF     C214151   2.626   5.260   4.479  0.1043 -0.1393 -0.3074
  774THF     C314152   2.642   5.368   4.673 -0.4423  0.5547 -0.1478
  774THF     H414153   2.595   5.294   4.380  0.2754  2.8158  0.5544
  774THF     H514154   2.584   5.160   4.476  0.6963 -0.4117  0.1930
  774THF     H614155   2.605   5.461   4.719  2.3616  1.0014  1.4455
  774THF     H714156   2.652   5.294   4.752 -1.1736 -0.5105 -1.0369
  774THF     C814157   2.776   5.381   4.598 -0.4310  0.0367  0.1391
  774THF     C914158   2.770   5.262   4.508 -1.4335  0.3007  0.0822
  774THF    H1014159   2.858   5.364   4.667 -2.3293  1.2558  2.8987
  774THF    H1114160   2.780   5.477   4.546 -0.1291 -0.1999 -0.2788
  774THF    H1214161   2.829   5.259   4.417  0.2613 -1.7882  1.1499
  774THF    H1314162   2.792   5.170   4.562  0.3028  0.1020 -0.9107
  775THF     O114163   0.692   1.871   2.963 -0.5317  0.6584 -0.9134
  775THF     C214164   0.754   1.926   2.843 -0.4849  0.0237 -0.6037
  775THF     C314165   0.605   1.966   3.019  0.1269 -0.1528  0.6520
  775THF     H414166   0.777   1.845   2.773  0.5389 -0.2662  0.0457
  775THF     H514167   0.848   1.978   2.862 -2.3324  2.6472  2.3350
  775THF     H614168   0.520   1.921   3.069 -0.5788 -1.1974 -1.3855
  775THF     H714169   0.654   2.013   3.104 -0.1193 -0.4518  0.9612
  775THF     C814170   0.578   2.070   2.908 -0.2317 -0.7689  0.1788
  775THF     C914171   0.643   2.015   2.784 -1.1290  0.0936 -0.3062
  775THF    H1014172   0.620   2.168   2.930 -0.1924 -0.2724 -1.9045
  775THF    H1114173   0.470   2.083   2.895 -0.0467  0.5524 -0.1529
  775THF    H1214174   0.576   1.957   2.720 -0.3127  0.2879 -1.3509
  775THF    H1314175   0.686   2.094   2.722  1.3580  0.2601  1.5049
  776THF     O114176   0.732   3.350   0.427 -0.0819  0.0745  0.5321
  776THF     C214177   0.659   3.241   0.376  0.2693 -0.0463  0.3092
  776THF     C314178   0.674   3.481   0.400 -0.2471 -0.3472  0.0414
  776THF     H414179   0.673   3.153   0.440 -0.5418 -0.7423 -0.4318
  776THF     H514180   0.692   3.208   0.278  1.6914  1.9427  0.0770
  776THF     H614181   0.705   3.551   0.477 -0.5301  1.1202 -1.1487
  776THF     H714182   0.693   3.516   0.299 -0.6484  3.6465  1.1973
  776THF     C814183   0.530   3.442   0.409  0.5825  0.2464  0.2864
  776THF     C914184   0.515   3.290   0.384 -0.0595  0.1468  0.0188
  776THF    H1014185   0.461   3.489   0.339 -0.1027  1.0172  1.4369
  776THF    H1114186   0.499   3.451   0.513  1.2230 -1.4926  0.6752
  776THF    H1214187   0.470   3.235   0.466 -0.2822 -2.3329 -1.6407
  776THF    H1314188   0.461   3.273   0.291 -2.7398  1.4555  1.2361
  777THF     O114189   1.517   3.644   2.106 -0.3660  0.2824 -0.0895
  777THF     C214190   1.500   3.589   2.233  0.6042  0.4240 -0.0175
  777THF     C314191   1.474   3.782   2.103 -0.4443  0.7291 -0.3497
  777THF     H414192   1.580   3.517   2.254 -1.4032 -2.0150 -0.3133
  777THF     H514193   1.396   3.558   2.243  1.1879 -1.5020  0.5215
  777THF     H614194   1.528   3.834   2.024  1.5636  0.7632  0.9743
  777THF     H714195   1.369   3.792   2.078 -0.0254  1.7895 -1.8213
  777THF     C814196   1.513   3.829   2.245 -0.4930  0.0078  0.1822
  777THF     C914197   1.528   3.708   2.331  0.2665  0.5322  0.1009
  777THF    H1014198   1.455   3.915   2.277 -0.3498  1.1125 -2.3242
  777THF    H1114199   1.601   3.891   2.230 -0.9967  0.6060 -0.3820
  777THF    H1214200   1.631   3.687   2.362  0.6533 -0.5398 -1.7175
  777THF    H1314201   1.464   3.698   2.418  0.2723  0.4872  0.1001
  778THF     O114202   3.112   2.123   1.141 -0.5425  0.6133 -0.6135
  778THF     C214203   3.168   2.029   1.049 -0.1813  0.4267 -0.5244
  778THF     C314204   3.003   2.171   1.091  0.5160  0.3136 -0.0943
  778THF     H414205   3.102   1.942   1.041  2.1407 -1.4956  0.0619
  778THF     H514206   3.268   1.991   1.069  0.4142  1.8598 -0.6780
  778THF     H614207   2.918   2.109   1.119 -0.0430  0.6399 -1.0267
  778THF     H714208   2.990   2.271   1.133  1.9102  0.3729  0.2573
  778THF     C814209   3.025   2.172   0.943  0.2356  0.1926  0.9442
  778THF     C914210   3.159   2.111   0.925 -1.0484 -0.2371  0.7598
  778THF    H1014211   3.031   2.276   0.910 -1.5689  0.3162  0.8584
  778THF    H1114212   2.953   2.108   0.892  1.0797 -0.9010  1.1069
  778THF    H1214213   3.148   2.045   0.839 -1.4888  3.1159 -2.0332
  778THF    H1314214   3.239   2.182   0.903  0.1165 -1.2888  1.4925
  779THF     O114215   3.432   4.008   3.931  0.0519 -0.3176  0.1418
  779THF     C214216   3.323   4.074   3.884  0.4769  0.1199  0.2536
  779THF     C314217   3.507   4.095   4.005  0.5940  0.1525 -0.5097
  779THF     H414218   3.244   4.087   3.958 -0.3024 -2.7845  0.0621
  779THF     H514219   3.276   4.018   3.803  0.2872  1.2467 -0.4280
  779THF     H614220   3.450   4.111   4.097  0.3456  0.8005 -0.7653
  779THF     H714221   3.599   4.041   4.026 -0.1127 -0.6898  0.5072
  779THF     C814222   3.512   4.208   3.911 -0.2656 -0.1206 -0.9292
  779THF     C914223   3.384   4.204   3.827 -0.5310 -0.1501 -0.1926
  779THF    H1014224   3.604   4.185   3.857  0.3361 -3.3648  1.2004
  779THF    H1114225   3.519   4.306   3.960 -0.8626 -0.1406 -0.7954
  779THF    H1214226   3.315   4.287   3.841  0.9659  1.0938  0.1068
  779THF    H1314227   3.406   4.184   3.722  1.9301 -2.2189  0.6055
  780THF     O114228   4.062   0.868   1.426  0.5979 -0.0308 -0.0446
  780THF     C214229   3.930   0.854   1.474  0.1865  0.4949  0.0425
  780THF     C314230   4.086   0.769   1.325 -0.2109  0.2302  0.5777
  780THF     H414231   3.861   0.885   1.396 -0.3150 -1.1271 -0.1933
  780THF     H514232   3.922   0.899   1.573 -0.5595  0.0878  0.1794
  780THF     H614233   4.039   0.786   1.229  0.5735  0.2354  0.1879
  780THF     H714234   4.191   0.764   1.297 -0.0769 -0.4077  1.1685
  780THF     C814235   4.032   0.649   1.397 -0.3896 -0.8497 -0.1894
  780THF     C914236   3.924   0.701   1.487 -0.1151  0.9069 -0.0111
  780THF    H1014237   4.117   0.606   1.451  1.0082  0.6194 -1.1208
  780THF    H1114238   3.992   0.574   1.328 -1.2524 -0.0483 -0.5720
  780THF    H1214239   3.824   0.660   1.470 -0.7818  2.4525  0.0846
  780THF    H1314240   3.945   0.670   1.589  1.4410  0.2293 -0.5004
  781THF     O114241   1.188   5.301   3.612 -0.5861 -0.2540 -0.2135
  781THF     C214242   1.312   5.373   3.604 -0.7210 -0.1985 -0.0126
  781THF     C314243   1.211   5.175   3.557  0.1223  0.6769 -0.3353
  781THF     H414244   1.376   5.343   3.688 -0.5670  1.7830  0.6129
  781THF     H514245   1.299   5.480   3.615 -0.4191 -0.3071  1.6349
  781THF     H614246   1.271   5.109   3.620 -2.8624 -1.7534  0.1836
  781THF     H714247   1.120   5.116   3.543  0.8066 -0.9904  1.7052
  781THF     C814248   1.278   5.215   3.427 -0.3499  0.1639 -0.0098
  781THF     C914249   1.376   5.324   3.470 -0.2325  0.2118  0.3353
  781THF    H1014250   1.201   5.238   3.353 -0.1238 -1.5640 -0.8292
  781THF    H1114251   1.334   5.133   3.383  0.0018  0.7508 -0.6806
  781THF    H1214252   1.475   5.278   3.478 -0.0453  0.6569  0.6095
  781THF    H1314253   1.374   5.410   3.403 -2.5963 -0.9037 -1.1588
  782THF     O114254   4.267   2.084   3.878 -0.5898  0.0572  0.8745
  782THF     C214255   4.359   2.193   3.898  0.2685 -0.0154  0.2622
  782THF     C314256   4.352   1.971   3.845 -0.4808  0.0868 -0.3208
  782THF     H414257   4.315   2.279   3.948 -0.1897 -1.0691  1.7327
  782THF     H514258   4.399   2.218   3.799  1.5360 -0.9359  0.5184
  782THF     H614259   4.304   1.873   3.844  1.3268 -0.8375 -0.0064
  782THF     H714260   4.385   1.986   3.743  2.1848  1.0050  0.5814
  782THF     C814261   4.468   1.979   3.945  0.1596 -0.4117 -0.9532
  782THF     C914262   4.472   2.129   3.980 -0.6362 -0.2373  0.1086
  782THF    H1014263   4.567   1.949   3.910  0.5386 -1.5947  0.9807
  782THF    H1114264   4.452   1.931   4.041 -0.0693 -0.4149 -0.9936
  782THF    H1214265   4.448   2.139   4.086 -1.7829  0.3105 -0.1903
  782THF    H1314266   4.567   2.176   3.951 -0.3315  0.0589  1.5359
  783THF     O114267   0.486   0.107   3.914 -0.3258  0.6350  0.3791
  783THF     C214268   0.571   0.085   4.025  0.0486  0.0622 -0.4139
  783THF     C314269   0.452  -0.026   3.872 -0.0892  0.6364  0.5372
  783THF     H414270   0.517   0.054   4.115  1.5819  0.1746  0.5924
  783THF     H514271   0.621   0.179   4.050 -2.1648  0.7514  1.8989
  783THF     H614272   0.390  -0.078   3.944 -1.1971  0.6418 -0.3909
  783THF     H714273   0.407  -0.019   3.773  3.6162  0.4620 -1.3221
  783THF     C814274   0.584  -0.101   3.872 -0.8363  0.0433  0.5577
  783THF     C914275   0.664  -0.028   3.973 -0.8053 -0.6120  0.6411
  783THF    H1014276   0.632  -0.098   3.774 -0.3094  2.1189  0.8324
  783THF    H1114277   0.561  -0.206   3.892 -0.9919  0.2114  1.3013
  783THF    H1214278   0.720  -0.082   4.049  2.8987  1.6963 -0.2209
  783THF    H1314279   0.744   0.024   3.921 -0.4267 -0.6393  1.1884
  784THF     O114280   4.176   4.612   3.805  0.4725 -0.0976 -0.5266
  784THF     C214281   4.273   4.531   3.877  0.3124 -0.0215 -0.3462
  784THF     C314282   4.216   4.617   3.665  0.3240 -0.2110 -0.4294
  784THF     H414283   4.246   4.428   3.855 -0.5506  0.5405 -2.0248
  784THF     H514284   4.264   4.543   3.985  0.2219  0.3941 -0.4005
  784THF     H614285   4.177   4.525   3.623 -0.9578 -0.0246  0.3039
  784THF     H714286   4.160   4.695   3.613 -1.9880 -1.6318 -0.2163
  784THF     C814287   4.369   4.619   3.669 -0.7842 -0.1017  0.5536
  784THF     C914288   4.405   4.579   3.810  0.2846 -0.0300 -0.2787
  784THF    H1014289   4.414   4.718   3.658  0.5044 -0.4903  1.9409
  784THF    H1114290   4.415   4.555   3.594 -0.5347 -0.2682  0.8462
  784THF    H1214291   4.485   4.505   3.820  1.5980  1.6452  3.8087
  784THF    H1314292   4.445   4.664   3.865 -1.2404  0.1493  0.5989
  785THF     O114293   0.742   1.926   4.639 -0.3970 -0.0360 -0.3775
  785THF     C214294   0.769   1.920   4.499 -0.0663 -0.3308 -0.3320
  785THF     C314295   0.633   1.843   4.674 -0.6552 -0.0906  0.1001
  785THF     H414296   0.849   1.847   4.485 -0.6900 -1.0792 -0.0693
  785THF     H514297   0.812   2.017   4.473  0.5793 -0.6944 -0.6685
  785THF     H614298   0.661   1.738   4.685  0.0282  0.0928  0.1677
  785THF     H714299   0.597   1.876   4.771 -0.1319 -0.2299  0.3462
  785THF     C814300   0.539   1.872   4.558 -0.0614 -0.1517  0.2289
  785THF     C914301   0.639   1.883   4.438  0.0029 -0.5933 -0.0175
  785THF    H1014302   0.482   1.964   4.572  1.7092  1.0795 -0.2818
  785THF    H1114303   0.476   1.784   4.542  0.3869 -0.5752  0.7145
  785THF    H1214304   0.659   1.786   4.391 -1.3104 -1.4236  1.0472
  785THF    H1314305   0.606   1.960   4.369 -1.1766 -1.4088 -0.4077
  786THF     O114306   5.275   5.450   3.515 -0.4481 -0.4429 -0.0029
  786THF     C214307   5.401   5.515   3.529 -0.1177  0.2275 -0.2695
  786THF     C314308   5.284   5.344   3.605  0.2643 -0.0652 -0.2180
  786THF     H414309   5.414   5.575   3.619 -0.8519 -0.3313  0.2184
  786THF     H514310   5.413   5.581   3.443  2.3246  0.3928  0.1164
  786THF     H614311   5.276   5.377   3.708 -1.2033 -1.1966  0.0708
  786THF     H714312   5.199   5.276   3.595  1.0872 -1.2479  0.5288
  786THF     C814313   5.423   5.278   3.588 -0.2963  0.4642  0.0532
  786THF     C914314   5.505   5.396   3.531  0.4109  0.3885  1.1230
  786THF    H1014315   5.417   5.196   3.516 -1.7367 -0.5573  1.2718
  786THF    H1114316   5.460   5.236   3.681  1.1819  1.5693  0.0080
  786THF    H1214317   5.600   5.405   3.584  0.4839  0.1570  1.0348
  786THF    H1314318   5.532   5.367   3.430  0.9964 -1.9698  1.8666
  787THF     O114319   1.320   2.514   1.032 -0.0959 -0.1689  0.1176
  787THF     C214320   1.313   2.604   1.143  0.4692 -0.3126 -0.4294
  787THF     C314321   1.197   2.453   0.999 -0.6221  0.1545 -0.4482
  787THF     H414322   1.371   2.696   1.129  0.5118 -0.1968  0.4629
  787THF     H514323   1.340   2.558   1.238 -0.6709 -0.5016 -0.1832
  787THF     H614324   1.171   2.477   0.896  0.0066  0.1213 -0.6203
  787THF     H714325   1.207   2.345   1.004  1.1510  0.3257  1.0429
  787THF     C814326   1.099   2.508   1.100 -0.0421  0.3219 -0.3237
  787THF     C914327   1.164   2.633   1.140 -0.1239 -0.1540  0.5765
  787THF    H1014328   1.113   2.439   1.183  1.7613  0.6107 -0.3538
  787THF    H1114329   0.995   2.516   1.068  0.2295 -1.5394 -1.9060
  787THF    H1214330   1.152   2.708   1.062  0.6942 -0.1877  0.4129
  787THF    H1314331   1.130   2.677   1.234 -1.0490  1.5108 -0.4905
  788THF     O114332   0.372   1.733   4.949  0.8649 -0.4946  0.0923
  788THF     C214333   0.333   1.606   4.906 -0.7849  0.6773 -0.4473
  788THF     C314334   0.290   1.779   5.057  0.1699  0.2295  0.0602
  788THF     H414335   0.413   1.572   4.840 -1.8959 -0.6127 -1.1797
  788THF     H514336   0.241   1.610   4.848 -1.4854  0.3726  0.6113
  788THF     H614337   0.323   1.870   5.106 -2.2320  0.8497  0.6645
  788THF     H714338   0.193   1.799   5.012  0.9085  3.0933 -0.4753
  788THF     C814339   0.305   1.648   5.133  0.2854 -0.3122 -0.8367
  788THF     C914340   0.311   1.532   5.035 -0.5786 -0.2110 -0.2330
  788THF    H1014341   0.213   1.634   5.191 -0.3101 -0.2175 -1.7385
  788THF    H1114342   0.385   1.652   5.207  0.9012 -3.9211 -1.1170
  788THF    H1214343   0.390   1.461   5.058  0.7665  0.6213 -2.0711
  788THF    H1314344   0.221   1.470   5.034 -0.2278 -0.7399  0.1549
  789THF     O114345   4.470   5.392   2.787 -0.0313  0.5388  0.2558
  789THF     C214346   4.572   5.489   2.811 -0.0468  0.3418 -0.0188
  789THF     C314347   4.491   5.268   2.851  0.3075  0.6675 -0.4652
  789THF     H414348   4.523   5.569   2.867  0.2695  0.7765 -0.3497
  789THF     H514349   4.614   5.520   2.715  0.6953  0.1145  0.2288
  789THF     H614350   4.403   5.229   2.901  1.1025  1.6020  1.8045
  789THF     H714351   4.538   5.193   2.787  0.7913  0.1149  0.5179
  789THF     C814352   4.590   5.302   2.960 -0.4318  0.4988  0.3397
  789THF     C914353   4.678   5.410   2.900  0.0963  0.0941 -0.1340
  789THF    H1014354   4.645   5.215   2.994  1.5779 -0.1418 -3.9272
  789THF    H1114355   4.543   5.345   3.049  2.2787 -1.3998  2.8689
  789THF    H1214356   4.728   5.468   2.977  0.0997 -0.7260  0.5032
  789THF    H1314357   4.756   5.367   2.836  0.0838  2.2860 -1.7628
  790THF     O114358   3.474   0.965   1.500  0.1730 -0.1190 -0.2050
  790THF     C214359   3.448   0.869   1.402  0.5449  0.2975  0.1937
  790THF     C314360   3.441   0.901   1.619  0.3792 -0.6773 -0.4254
  790THF     H414361   3.533   0.875   1.334  0.7174  0.1419  0.3941
  790THF     H514362   3.352   0.901   1.361  0.6305  0.6047  0.2348
  790THF     H614363   3.481   0.944   1.711  1.1987  1.7468 -1.8142
  790THF     H714364   3.334   0.900   1.641  0.5617 -1.0749  0.5198
  790THF     C814365   3.473   0.757   1.603 -0.1857  0.1129 -0.1838
  790THF     C914366   3.424   0.729   1.461 -0.3487  0.1049  0.4385
  790THF    H1014367   3.415   0.696   1.672 -1.5527  0.9053 -0.6073
  790THF    H1114368   3.580   0.747   1.620 -0.4792 -1.1712  1.0832
  790THF    H1214369   3.482   0.647   1.418 -1.3189  0.2266 -1.2130
  790THF    H1314370   3.322   0.693   1.445  0.0427  0.3403 -3.5048
  791THF     O114371   4.282   0.752   4.637  0.0703  0.3877  0.1379
  791THF     C214372   4.406   0.828   4.639 -0.2174 -0.3305  0.2626
  791THF     C314373   4.181   0.846   4.680  0.4561 -0.0773 -0.0616
  791THF     H414374   4.414   0.887   4.548 -1.0576 -0.2470  0.2362
  791THF     H514375   4.493   0.763   4.642 -1.0252 -1.6796 -2.5593
  791THF     H614376   4.127   0.895   4.598 -3.0296 -4.4802 -0.8091
  791THF     H714377   4.097   0.798   4.730  0.2221  0.2411 -0.1420
  791THF     C814378   4.252   0.939   4.775  0.3090 -0.0584  0.6913
  791THF     C914379   4.399   0.920   4.754 -0.3916 -0.0883 -0.5346
  791THF    H1014380   4.224   0.909   4.875 -1.5616 -1.0963 -0.0959
  791THF    H1114381   4.223   1.043   4.758  0.3482 -0.1557 -0.0316
  791THF    H1214382   4.460   1.009   4.748 -0.0141 -0.0971  1.9867
  791THF    H1314383   4.442   0.872   4.842 -3.3508 -1.3078  0.3795
  792THF     O114384   2.573   0.726   4.176 -0.1579  0.8203 -0.1331
  792THF     C214385   2.616   0.625   4.082  0.0686 -0.2585 -0.5744
  792THF     C314386   2.465   0.662   4.247 -0.5695 -0.4764  0.5346
  792THF     H414387   2.711   0.664   4.045  0.8051  1.2239  2.5236
  792THF     H514388   2.541   0.621   4.003  0.7400  1.1621 -1.3095
  792THF     H614389   2.458   0.708   4.346 -1.4855 -0.7101  0.5889
  792THF     H714390   2.375   0.696   4.195 -0.8415 -2.4788 -0.3740
  792THF     C814391   2.491   0.513   4.230  0.0578  0.0985 -0.1974
  792THF     C914392   2.623   0.500   4.163  0.0506  0.0866 -0.0007
  792THF    H1014393   2.417   0.471   4.161 -0.5918 -2.0680  1.7069
  792THF    H1114394   2.493   0.464   4.327 -1.1380 -1.9969 -1.1586
  792THF    H1214395   2.710   0.518   4.226  2.0719  1.1055 -2.8949
  792THF    H1314396   2.636   0.409   4.105 -0.0787 -0.6164  1.0418
  793THF     O114397   4.323   4.005   1.011  0.0514  0.3944  0.2682
  793THF     C214398   4.226   3.948   0.927  0.4129 -0.0832 -0.1673
  793THF     C314399   4.290   4.136   1.041  0.1154 -0.9578 -0.1879
  793THF     H414400   4.143   3.912   0.987 -1.3834  2.8032 -0.7187
  793THF     H514401   4.269   3.864   0.873  1.0987 -0.1330  0.4357
  793THF     H614402   4.242   4.147   1.138  2.0564  0.2291  0.6905
  793THF     H714403   4.387   4.184   1.047  0.3212 -1.1927 -1.3491
  793THF     C814404   4.205   4.185   0.925  0.3339  0.2909 -0.0151
  793THF     C914405   4.175   4.062   0.838 -0.2940  0.2769  0.3774
  793THF    H1014406   4.263   4.252   0.861 -2.2656 -0.2082 -3.1392
  793THF    H1114407   4.118   4.249   0.942  0.4944  0.5950 -0.3258
  793THF    H1214408   4.081   4.049   0.786  0.8731  1.6067 -2.2499
  793THF    H1314409   4.251   4.063   0.760  0.3403 -2.2497  0.8855
  794THF     O114410   3.424   1.960   1.711  0.2304 -0.0360  0.0792
  794THF     C214411   3.431   1.928   1.850 -0.1979 -0.0287 -0.1279
  794THF     C314412   3.553   1.991   1.668  0.1605  0.3842  0.0666
  794THF     H414413   3.474   1.828   1.852 -0.0734 -0.0496 -1.9721
  794THF     H514414   3.340   1.929   1.910  0.6226  2.3974  1.1918
  794THF     H614415   3.620   1.905   1.672 -0.7533 -0.3246  0.2326
  794THF     H714416   3.561   2.047   1.574 -0.4653  0.8120  0.2604
  794THF     C814417   3.603   2.081   1.785  0.2411 -0.4143  0.0961
  794THF     C914418   3.541   2.018   1.907 -0.6870 -0.0790 -0.7928
  794THF    H1014419   3.554   2.176   1.762 -0.0674 -0.8817 -1.3028
  794THF    H1114420   3.710   2.099   1.791  0.4697 -1.8329  0.5037
  794THF    H1214421   3.604   1.952   1.968 -0.4200  0.5913 -0.3355
  794THF    H1314422   3.491   2.095   1.966 -1.1575 -0.4526 -0.6963
  795THF     O114423   4.413   0.784   1.773 -0.4129 -0.1016  0.0586
  795THF     C214424   4.458   0.913   1.760  0.7551 -0.7068 -0.2258
  795THF     C314425   4.357   0.741   1.646  0.2849  0.4691  0.0027
  795THF     H414426   4.526   0.924   1.845 -0.2656 -1.3151  0.7017
  795THF     H514427   4.371   0.977   1.774 -0.1653 -1.9046 -0.2494
  795THF     H614428   4.382   0.636   1.659  0.5389  0.5648  0.3072
  795THF     H714429   4.249   0.753   1.640  0.0807 -0.6292  1.1352
  795THF     C814430   4.441   0.812   1.546 -0.1749  0.4075  0.3485
  795THF     C914431   4.511   0.918   1.628  0.1217 -0.2866  0.0149
  795THF    H1014432   4.382   0.846   1.460 -0.0259  1.6397  0.7141
  795THF    H1114433   4.509   0.732   1.517  0.3228  0.1746  2.0401
  795THF    H1214434   4.616   0.887   1.631  0.5237  1.0497  2.1947
  795THF    H1314435   4.511   1.024   1.600  1.1626 -0.4314 -0.6070
  796THF     O114436   5.372   0.625   0.717  0.5093  0.6920  0.3108
  796THF     C214437   5.229   0.635   0.706  0.1305  0.6484  0.2074
  796THF     C314438   5.405   0.587   0.854 -0.3867 -0.2959  0.4944
  796THF     H414439   5.192   0.623   0.604 -0.5141 -0.1896  0.5278
  796THF     H514440   5.196   0.720   0.766  1.7681 -0.0670  2.2425
  796THF     H614441   5.505   0.545   0.853 -1.3389 -2.7194  0.7378
  796THF     H714442   5.387   0.668   0.925  0.4451 -0.6322  1.0950
  796THF     C814443   5.294   0.484   0.882  0.0831  0.7752  0.5547
  796THF     C914444   5.184   0.519   0.784 -0.2593  0.3465 -0.6655
  796THF    H1014445   5.255   0.481   0.984  0.2829  1.7040  0.6616
  796THF    H1114446   5.331   0.384   0.859  0.0769  1.0657 -0.8184
  796THF    H1214447   5.170   0.433   0.719 -0.7962 -0.2386  0.2152
  796THF    H1314448   5.092   0.538   0.838  0.2646 -0.4628  0.5511
  797THF     O114449   2.246   0.923   3.735  0.2174 -0.1147 -0.7237
  797THF     C214450   2.344   0.902   3.637 -0.0733  0.9814  0.0761
  797THF     C314451   2.220   0.799   3.795  0.2854  0.0840 -0.7129
  797THF     H414452   2.383   0.996   3.598  0.7384  0.1762 -1.1402
  797THF     H514453   2.302   0.840   3.558 -1.0299  1.2981  0.3264
  797THF     H614454   2.158   0.826   3.881  0.0192 -0.1086 -0.8433
  797THF     H714455   2.164   0.742   3.721 -0.2262  1.4059 -1.3802
  797THF     C814456   2.363   0.739   3.813 -0.1406 -0.6645 -0.0444
  797THF     C914457   2.454   0.823   3.719  1.2364  0.0973  0.4506
  797THF    H1014458   2.348   0.631   3.806 -0.6484 -0.8647  2.8861
  797THF    H1114459   2.391   0.759   3.916 -3.1050 -0.6050  0.8462
  797THF    H1214460   2.511   0.901   3.769  1.4824 -1.5938  2.9598
  797THF    H1314461   2.522   0.762   3.660 -2.2228 -1.9143 -1.8008
  798THF     O114462   4.708   0.992   1.323 -0.0651 -0.2031 -0.3972
  798THF     C214463   4.596   1.065   1.270 -0.2592 -0.5516  0.0134
  798THF     C314464   4.785   1.064   1.414  0.2875 -0.3444 -0.0896
  798THF     H414465   4.505   1.017   1.306 -0.0137 -0.2120  1.0931
  798THF     H514466   4.596   1.057   1.161  0.7577 -3.7481  0.1664
  798THF     H614467   4.740   1.046   1.511  0.0939 -0.4413 -0.1973
  798THF     H714468   4.892   1.042   1.413  0.4095  0.0993 -2.1531
  798THF     C814469   4.762   1.204   1.367 -0.4600 -0.2547  0.0532
  798THF     C914470   4.616   1.205   1.320  0.1584 -0.4367  0.1714
  798THF    H1014471   4.829   1.242   1.290  0.1052 -0.3189  0.5093
  798THF    H1114472   4.775   1.260   1.459  0.6063  2.0160 -1.3703
  798THF    H1214473   4.543   1.219   1.400 -0.8778 -1.6536 -0.5192
  798THF    H1314474   4.603   1.288   1.250 -0.3293  0.0690  0.8509
  799THF     O114475   2.737   0.720   5.014  0.4469  0.7760 -0.0899
  799THF     C214476   2.703   0.814   5.114 -0.1867  0.9546 -0.2362
  799THF     C314477   2.767   0.592   5.071 -0.1636 -0.2494 -0.0159
  799THF     H414478   2.598   0.838   5.096 -0.6893 -0.5624  0.5247
  799THF     H514479   2.768   0.901   5.103 -0.8912  1.3852 -1.1402
  799THF     H614480   2.724   0.509   5.015 -0.2771 -0.0671 -0.2003
  799THF     H714481   2.875   0.578   5.078 -0.1685  0.2535  1.5897
  799THF     C814482   2.702   0.594   5.206 -0.2291 -0.3546 -0.0242
  799THF     C914483   2.714   0.735   5.246 -0.5434  0.6015  0.0627
  799THF    H1014484   2.768   0.541   5.274 -0.6700 -0.4855  0.3034
  799THF    H1114485   2.604   0.548   5.215 -0.7272  1.1357  4.4931
  799THF    H1214486   2.638   0.764   5.319  0.3745 -0.4087  1.4693
  799THF    H1314487   2.810   0.759   5.291 -0.2504  0.0037 -0.2380
  800THF     O114488   5.256   4.801   3.039 -0.5011 -0.1584 -0.4603
  800THF     C214489   5.177   4.691   3.036 -0.1757 -0.4502  0.1662
  800THF     C314490   5.211   4.900   2.948  0.1913 -0.3433 -0.1054
  800THF     H414491   5.183   4.622   3.120 -2.8723 -0.6807  0.2588
  800THF     H514492   5.207   4.637   2.946  0.2978  0.0501  0.0162
  800THF     H614493   5.234   5.001   2.982 -2.0142  0.4053 -0.7043
  800THF     H714494   5.257   4.893   2.849 -1.8937  0.6601 -1.2029
  800THF     C814495   5.063   4.874   2.930  0.3649 -0.1848 -0.5025
  800THF     C914496   5.042   4.749   3.018 -0.6394  0.5119 -0.7722
  800THF    H1014497   5.037   4.871   2.825  0.2422 -0.5792 -0.4617
  800THF    H1114498   5.010   4.959   2.974  2.4390  1.4634 -1.0371
  800THF    H1214499   5.011   4.779   3.118  0.5824 -1.2595  0.1927
  800THF    H1314500   4.971   4.675   2.981 -0.4352 -0.8975  1.4606
  801THF     O114501   0.740   2.519   1.550 -0.2800  0.4990 -0.3056
  801THF     C214502   0.649   2.461   1.451 -0.0219  0.0787 -0.6740
  801THF     C314503   0.749   2.656   1.538  0.7882  0.0560  0.5132
  801THF     H414504   0.555   2.490   1.498 -0.8293 -1.2251 -1.4175
  801THF     H514505   0.658   2.352   1.450  1.4939  0.1931 -1.3060
  801THF     H614506   0.665   2.703   1.589  0.7782  1.4826 -0.7483
  801THF     H714507   0.838   2.701   1.583  2.0403  1.5829 -3.1042
  801THF     C814508   0.746   2.671   1.383  0.5460 -0.0611  0.5312
  801THF     C914509   0.696   2.537   1.332  0.7349 -0.2700  0.0668
  801THF    H1014510   0.846   2.683   1.341  0.2489 -1.1573 -0.5410
  801THF    H1114511   0.688   2.759   1.357 -0.3512 -0.7166  0.2553
  801THF    H1214512   0.612   2.539   1.263  0.9142  0.3419 -0.1464
  801THF    H1314513   0.771   2.474   1.284 -0.2150 -2.5188  1.3916
  802THF     O114514   2.138   3.653   5.188 -0.2190 -0.5401 -0.4028
  802THF     C214515   2.061   3.556   5.251 -0.3765 -0.6020 -0.0473
  802THF     C314516   2.044   3.752   5.157 -0.0383 -0.5404 -0.7689
  802THF     H414517   2.123   3.481   5.299 -0.3161 -2.0476 -2.2732
  802THF     H514518   2.004   3.505   5.174 -1.9172  1.1950 -0.1787
  802THF     H614519   2.088   3.846   5.123 -2.1495  0.7021 -0.2591
  802THF     H714520   1.976   3.718   5.078  0.5766 -2.1357 -0.6549
  802THF     C814521   1.977   3.776   5.293 -0.0541 -0.3844  0.5493
  802THF     C914522   1.965   3.632   5.352 -0.6677  0.4922  0.4368
  802THF    H1014523   1.884   3.826   5.266  0.1729 -0.2387  0.0097
  802THF    H1114524   2.041   3.831   5.362 -0.2743 -0.4691  0.8217
  802THF    H1214525   2.010   3.626   5.451  0.7267  0.0884 -0.1904
  802THF    H1314526   1.866   3.587   5.351 -0.7730  0.7220  0.3065
  803THF     O114527   0.587   3.997   3.000 -0.1012 -0.3635 -0.5632
  803THF     C214528   0.609   3.902   3.103  0.4703  0.4974  0.9457
  803THF     C314529   0.688   4.100   3.014 -0.4770  0.1540  0.0936
  803THF     H414530   0.562   3.810   3.070  0.3739  0.7735  0.2917
  803THF     H514531   0.561   3.934   3.196  0.3937  1.1911  0.6760
  803THF     H614532   0.707   4.159   2.925 -0.5595  1.8931  1.1703
  803THF     H714533   0.653   4.162   3.096 -0.5232  2.1563 -1.3713
  803THF     C814534   0.818   4.019   3.056 -0.1706 -0.7122  0.2726
  803THF     C914535   0.758   3.895   3.132  0.0796  0.1444  0.6202
  803THF    H1014536   0.899   4.071   3.108 -0.4021 -0.1039  0.0272
  803THF    H1114537   0.865   3.982   2.965 -1.4979 -0.0405 -0.7167
  803THF    H1214538   0.807   3.803   3.101  0.1219  0.3123  0.1801
  803THF    H1314539   0.779   3.902   3.239 -0.8353 -1.4660  0.9470
  804THF     O114540   2.420   4.639   0.435 -0.1906 -0.2276  0.1094
  804THF     C214541   2.416   4.502   0.458  0.6634  0.1835  0.3410
  804THF     C314542   2.474   4.648   0.302  0.1817  0.3275 -0.0261
  804THF     H414543   2.338   4.451   0.401 -0.5542  2.1792  0.1256
  804THF     H514544   2.414   4.475   0.563  2.3555  0.2975  0.4293
  804THF     H614545   2.389   4.647   0.233  0.0760 -0.1193  0.1066
  804THF     H714546   2.518   4.746   0.285  1.2896 -0.5280 -2.6822
  804THF     C814547   2.575   4.537   0.278 -0.3179  0.6676 -0.8610
  804THF     C914548   2.555   4.461   0.411 -0.4304 -0.0719  0.1115
  804THF    H1014549   2.680   4.562   0.268 -0.1392 -0.6636 -3.0866
  804THF    H1114550   2.547   4.483   0.187 -2.0116  0.8831 -0.5123
  804THF    H1214551   2.557   4.352   0.411 -2.9952 -0.2138 -1.9727
  804THF    H1314552   2.628   4.486   0.488  1.1122 -3.7778  0.0486
  805THF     O114553   1.604   4.849   1.001  0.0329  0.1109 -0.3615
  805THF     C214554   1.593   4.961   0.918 -0.3962 -0.0186  0.1166
  805THF     C314555   1.471   4.812   1.048 -0.4507  0.0837  0.9822
  805THF     H414556   1.676   4.973   0.848 -1.4123  0.3418 -1.0687
  805THF     H514557   1.579   5.051   0.978 -2.4351 -1.6107  2.2217
  805THF     H614558   1.481   4.706   1.074 -0.7820  0.0403  0.9319
  805THF     H714559   1.437   4.874   1.131 -0.8618  0.9425  0.1839
  805THF     C814560   1.379   4.847   0.929  0.5896  0.3005 -0.1959
  805THF     C914561   1.467   4.925   0.840 -0.6973 -0.1726 -0.2073
  805THF    H1014562   1.286   4.892   0.964  0.2439  0.2128 -0.9910
  805THF    H1114563   1.354   4.753   0.880  2.7168 -0.5616  0.2812
  805THF    H1214564   1.497   4.862   0.757  1.6941  2.2416 -1.3256
  805THF    H1314565   1.417   5.008   0.790  0.7915  0.7277 -0.2682
  806THF     O114566   3.162   0.596   1.275  0.1746 -0.1753 -0.1766
  806THF     C214567   3.250   0.484   1.285 -0.4533  0.7586  0.1176
  806THF     C314568   3.132   0.614   1.137 -0.1567  0.1905 -0.3725
  806THF     H414569   3.264   0.454   1.388  2.7279  0.0810 -0.3999
  806THF     H514570   3.350   0.492   1.242 -1.3081 -0.7686 -2.4433
  806THF     H614571   3.060   0.694   1.119  0.7757  1.1752  0.1545
  806THF     H714572   3.223   0.650   1.089  0.1676  0.0187  0.1182
  806THF     C814573   3.105   0.478   1.084  0.5095  0.1299  0.1743
  806THF     C914574   3.171   0.391   1.192 -0.1303 -0.0545  0.6904
  806THF    H1014575   3.161   0.463   0.992  0.3117  1.3559 -0.1590
  806THF    H1114576   2.997   0.464   1.076  0.0858  3.3647 -1.3248
  806THF    H1214577   3.100   0.348   1.262  0.9223 -0.5077  1.5218
  806THF    H1314578   3.223   0.300   1.162 -2.2048 -0.5057 -1.8951
  807THF     O114579   5.375   0.309   4.426 -0.1594  0.1674 -0.5810
  807THF     C214580   5.509   0.337   4.471 -0.4709  0.2382  0.4869
  807THF     C314581   5.292   0.355   4.524  0.0201  0.3707  0.2246
  807THF     H414582   5.532   0.443   4.465  1.1409  0.0560  2.3717
  807THF     H514583   5.588   0.282   4.419 -1.9029 -0.8936 -0.5944
  807THF     H614584   5.264   0.460   4.515 -0.5639  0.2168  0.1929
  807THF     H714585   5.197   0.302   4.512  0.7604 -1.2388  1.1086
  807THF     C814586   5.363   0.332   4.655 -0.1998  0.2395 -0.0062
  807THF     C914587   5.505   0.287   4.618 -0.2367  0.2219  0.0107
  807THF    H1014588   5.312   0.265   4.723  1.0197 -1.8154 -1.0141
  807THF    H1114589   5.375   0.430   4.702  1.0094 -0.2472  0.7527
  807THF    H1214590   5.576   0.333   4.686  0.2639  1.0915 -1.0712
  807THF    H1314591   5.523   0.179   4.620  0.1542  0.2955  0.7114
  808THF     O114592   3.140   4.692   0.366 -0.0045 -0.0595 -0.4127
  808THF     C214593   3.260   4.663   0.300 -0.4684  0.6647 -0.0354
  808THF     C314594   3.036   4.605   0.311  1.1194  0.5758  0.0930
  808THF     H414595   3.307   4.586   0.360  0.6590  2.2520  1.1975
  808THF     H514596   3.337   4.740   0.288 -0.6767  1.1744  1.6947
  808THF     H614597   3.043   4.504   0.350  0.5504  1.5594  2.9802
  808THF     H714598   2.934   4.636   0.333  0.3488 -1.5769 -0.1749
  808THF     C814599   3.064   4.616   0.167  0.6350  0.4770 -0.0798
  808THF     C914600   3.213   4.622   0.164  0.2436  0.4108  0.0072
  808THF    H1014601   3.006   4.705   0.141  0.4957 -0.0261 -1.5612
  808THF    H1114602   3.029   4.535   0.104 -0.5280 -0.3022  1.4994
  808THF    H1214603   3.263   4.528   0.138  0.4585  0.2396  1.0122
  808THF    H1314604   3.247   4.698   0.094  1.2962  1.5569  1.6758
  809THF     O114605   4.447   1.159   0.963 -0.6233  0.1573  0.5004
  809THF     C214606   4.506   1.281   0.925  0.9608 -0.3456  0.7134
  809THF     C314607   4.401   1.097   0.835  0.3773 -0.2162 -0.1708
  809THF     H414608   4.586   1.305   0.995  0.8088 -0.7405  1.0297
  809THF     H514609   4.427   1.354   0.936 -0.3885 -1.4589 -0.9928
  809THF     H614610   4.443   0.997   0.825 -2.8626 -2.0688  2.7252
  809THF     H714611   4.294   1.079   0.839 -0.0968  1.8182 -2.0739
  809THF     C814612   4.445   1.177   0.719 -0.0882  0.5802 -0.4053
  809THF     C914613   4.540   1.281   0.777  0.1013 -0.7318  0.3163
  809THF    H1014614   4.362   1.226   0.667 -0.7658  0.0239  0.1454
  809THF    H1114615   4.501   1.129   0.639 -0.3547  1.5111 -1.1798
  809THF    H1214616   4.639   1.244   0.753  0.8296 -0.2728  2.4466
  809THF    H1314617   4.523   1.378   0.731 -0.2092 -0.9052  0.0611
  810THF     O114618   2.778   0.581   0.083  0.5239 -0.3492  0.3918
  810THF     C214619   2.900   0.653   0.082 -1.0223  0.5249  0.0587
  810THF     C314620   2.789   0.478   0.181 -0.3259  0.0512 -0.2983
  810THF     H414621   2.894   0.722   0.166  0.1967  0.3530  0.3018
  810THF     H514622   2.920   0.698  -0.016 -0.0285  0.6276  0.3019
  810THF     H614623   2.740   0.511   0.273 -0.1227  1.7187 -0.7546
  810THF     H714624   2.747   0.386   0.140 -1.8874 -0.2010  1.7008
  810THF     C814625   2.945   0.459   0.207 -0.4475  1.0249  0.5137
  810THF     C914626   3.009   0.552   0.111 -0.3295 -0.6232  0.0483
  810THF    H1014627   2.960   0.354   0.180  0.1519  0.9972  0.9332
  810THF    H1114628   2.969   0.485   0.310  1.0191  0.3824  0.3583
  810THF    H1214629   3.103   0.596   0.142 -0.1575  0.5211 -1.9228
  810THF    H1314630   3.030   0.505   0.015  1.0707  1.0999 -0.5350
  811THF     O114631   3.641   5.387   3.571 -0.2835  0.0378  0.0201
  811THF     C214632   3.565   5.504   3.547  1.0612  0.4855 -0.0517
  811THF     C314633   3.724   5.370   3.465 -0.5149  0.0359  0.3863
  811THF     H414634   3.632   5.589   3.561  3.2347 -1.4251  1.9095
  811THF     H514635   3.476   5.505   3.610 -0.1627 -2.5668 -1.5697
  811THF     H614636   3.819   5.425   3.471  1.2175 -2.7542  0.3865
  811THF     H714637   3.744   5.263   3.462 -3.5145 -0.5869 -0.6295
  811THF     C814638   3.643   5.396   3.340 -0.7926 -0.1520 -0.1685
  811THF     C914639   3.530   5.473   3.394 -0.4059 -0.5350 -0.0765
  811THF    H1014640   3.607   5.302   3.297  1.0540 -1.9205  1.8642
  811THF    H1114641   3.702   5.454   3.270  1.9483  0.3928  2.3918
  811THF    H1214642   3.520   5.561   3.332  0.1878 -1.7456 -1.9815
  811THF    H1314643   3.442   5.409   3.391 -0.0629 -1.0013 -0.5195
  812THF     O114644   1.445   1.492   4.909 -0.0723  0.0275  0.2621
  812THF     C214645   1.535   1.548   4.814 -1.0049 -0.5223 -0.6475
  812THF     C314646   1.332   1.464   4.835 -0.0132 -0.1186 -0.2691
  812THF     H414647   1.635   1.545   4.857 -1.2548  1.1231  0.1249
  812THF     H514648   1.510   1.652   4.790 -0.8626 -0.7389 -1.7825
  812THF     H614649   1.264   1.402   4.893 -0.6774 -0.2818 -1.1976
  812THF     H714650   1.278   1.556   4.814  0.0566 -0.1275 -0.4923
  812THF     C814651   1.382   1.393   4.715  0.2420 -0.6528  0.1179
  812THF     C914652   1.522   1.462   4.690  0.1415 -0.3281 -0.4001
  812THF    H1014653   1.311   1.409   4.634  0.3788  1.8294  0.3967
  812THF    H1114654   1.385   1.286   4.731  0.4104 -0.9528 -1.6981
  812THF    H1214655   1.595   1.380   4.687 -0.0010 -0.4356 -1.3402
  812THF    H1314656   1.527   1.523   4.600 -0.6396 -0.4735 -0.5470
  813THF     O114657   2.743   2.437   1.128 -0.3735  0.9523 -0.0830
  813THF     C214658   2.669   2.372   1.025 -0.1045 -0.3770 -0.1677
  813THF     C314659   2.742   2.575   1.110 -0.1267  0.1579 -0.2882
  813THF     H414660   2.571   2.339   1.059  0.1486  0.5850  1.5970
  813THF     H514661   2.716   2.277   0.998 -1.7517 -1.0264 -0.8931
  813THF     H614662   2.648   2.620   1.141  1.9206  3.5965  1.5997
  813THF     H714663   2.823   2.628   1.160  0.6795  0.9344 -2.3056
  813THF     C814664   2.760   2.575   0.955 -0.7704 -0.0108 -0.3798
  813THF     C914665   2.668   2.464   0.903  0.0835 -0.0800  0.5016
  813THF    H1014666   2.859   2.547   0.920 -0.7317  0.1601 -0.4058
  813THF    H1114667   2.737   2.673   0.914  0.5815 -0.3202 -1.9683
  813THF    H1214668   2.572   2.510   0.880  1.1826  3.1079  1.7362
  813THF    H1314669   2.716   2.431   0.811  1.2624  1.8999  0.3397
  814THF     O114670   1.110   0.292   1.673 -0.5919 -0.4398  0.7337
  814THF     C214671   1.185   0.413   1.654 -0.1443  0.2101  0.0623
  814THF     C314672   1.017   0.319   1.777  0.1845 -0.5750  0.1852
  814THF     H414673   1.256   0.408   1.571  0.7000 -2.5503  0.8304
  814THF     H514674   1.258   0.423   1.734  1.3463  3.1034 -1.5212
  814THF     H614675   0.940   0.243   1.791 -0.8530 -0.1416 -2.5844
  814THF     H714676   1.074   0.335   1.869  3.7789 -0.1852 -1.9477
  814THF     C814677   0.963   0.455   1.720 -1.0283 -0.1637  0.1597
  814THF     C914678   1.085   0.526   1.652  0.5937 -0.0403  0.7096
  814THF    H1014679   0.918   0.515   1.800  2.1024 -2.0347  3.6273
  814THF    H1114680   0.903   0.426   1.634  1.2732 -0.4635 -1.4217
  814THF    H1214681   1.055   0.571   1.557  1.1057 -0.0807  0.5195
  814THF    H1314682   1.116   0.612   1.711 -1.5042  0.6154  0.9319
  815THF     O114683   0.948   0.573   3.764 -0.4187 -0.2771 -0.0112
  815THF     C214684   1.040   0.506   3.678  0.0197  0.4971  0.1900
  815THF     C314685   0.925   0.698   3.700 -0.2516 -0.2137 -0.7707
  815THF     H414686   1.057   0.400   3.697 -1.3625 -0.1003 -1.6622
  815THF     H514687   1.142   0.543   3.677  1.2406 -2.5569  0.0299
  815THF     H614688   0.835   0.759   3.716  1.1668  2.3317 -1.8978
  815THF     H714689   1.005   0.765   3.730  1.0272 -1.2471 -1.7600
  815THF     C814690   0.921   0.663   3.548 -0.3393 -0.0073  0.2457
  815THF     C914691   0.975   0.525   3.541  0.0982  0.2459  0.6856
  815THF    H1014692   0.992   0.736   3.509  0.2143  0.0780  1.3798
  815THF    H1114693   0.823   0.682   3.503  0.1963 -1.4658 -1.6695
  815THF    H1214694   0.893   0.459   3.515 -1.3711  1.6409  1.5812
  815THF    H1314695   1.054   0.509   3.467 -0.0323 -0.6188  0.7289
  816THF     O114696   3.502   1.478   4.197 -0.2054 -0.0429  0.1479
  816THF     C214697   3.510   1.619   4.201 -0.8247 -0.5821 -0.6015
  816THF     C314698   3.618   1.419   4.143  0.5914 -0.3039  0.2176
  816THF     H414699   3.495   1.656   4.302  0.1576  1.7158 -1.2374
  816THF     H514700   3.436   1.652   4.128 -0.2094  2.1233 -0.1017
  816THF     H614701   3.694   1.382   4.212  0.8103 -0.7549 -0.2583
  816THF     H714702   3.574   1.340   4.083 -0.7990 -1.3183  2.4494
  816THF     C814703   3.681   1.531   4.065  0.2524 -0.2735 -0.0001
  816THF     C914704   3.654   1.656   4.154 -0.7807  0.2405 -0.1056
  816THF    H1014705   3.614   1.535   3.979  0.2968 -1.8584 -0.1339
  816THF    H1114706   3.787   1.527   4.040  0.3938  0.2489  0.5067
  816THF    H1214707   3.736   1.644   4.225 -1.7327  0.3808  1.0495
  816THF    H1314708   3.668   1.746   4.095 -0.9013  0.1815 -0.2250
  817THF     O114709   3.625   1.231   0.306  0.4205 -0.0665 -0.8454
  817THF     C214710   3.515   1.206   0.395  0.6536 -0.3367 -0.9518
  817THF     C314711   3.637   1.125   0.207  0.0298 -0.2208 -0.4337
  817THF     H414712   3.437   1.281   0.401  0.5623 -0.3449 -1.9598
  817THF     H514713   3.558   1.191   0.494  0.2789 -0.7537 -0.8497
  817THF     H614714   3.591   1.157   0.113 -1.6536  0.9183  0.7060
  817THF     H714715   3.737   1.086   0.192 -0.6383 -3.1576  1.7851
  817THF     C814716   3.562   1.009   0.266  0.5501 -0.4335 -0.0955
  817THF     C914717   3.447   1.071   0.350  0.2214  0.3570  0.0317
  817THF    H1014718   3.633   0.956   0.330  1.9123 -0.8878 -1.8759
  817THF    H1114719   3.532   0.934   0.192 -1.0182 -0.4239  0.5006
  817THF    H1214720   3.364   1.092   0.283 -0.5435 -3.9891 -0.6718
  817THF    H1314721   3.414   0.999   0.426 -1.0426 -0.0512 -0.8724
  818THF     O114722   0.867   2.432   2.601  0.3175  0.1150 -0.2621
  818THF     C214723   0.860   2.408   2.741 -0.0669 -0.4990  0.4252
  818THF     C314724   0.732   2.473   2.563 -0.1017 -0.0594 -0.1549
  818THF     H414725   0.941   2.455   2.796  0.4487 -0.6213 -0.2145
  818THF     H514726   0.865   2.304   2.773  2.0503 -0.0668  1.7226
  818THF     H614727   0.737   2.581   2.545  0.4761 -0.3307 -1.7428
  818THF     H714728   0.712   2.427   2.467 -0.5922 -0.1300 -0.0224
  818THF     C814729   0.640   2.455   2.681 -0.1299  0.6673 -0.2192
  818THF     C914730   0.731   2.465   2.801 -0.8868 -0.2001  0.8976
  818THF    H1014731   0.588   2.359   2.679 -2.4531  1.8654 -1.9926
  818THF    H1114732   0.558   2.527   2.687 -0.6332  0.1815 -0.9545
  818THF    H1214733   0.744   2.568   2.833 -0.1980  0.1546 -0.4604
  818THF    H1314734   0.693   2.405   2.884 -3.1304  0.6990  0.5947
  819THF     O114735   0.356   0.480   2.754 -0.1895 -0.6515  0.6118
  819THF     C214736   0.358   0.542   2.629  0.0106  0.7089  0.3823
  819THF     C314737   0.252   0.530   2.843 -0.1708 -0.3262 -0.1641
  819THF     H414738   0.318   0.458   2.572 -1.6785  0.6904  1.5392
  819THF     H514739   0.453   0.577   2.588 -0.7730  1.1169 -1.1585
  819THF     H614740   0.203   0.446   2.892 -0.5417  0.0467  0.1157
  819THF     H714741   0.295   0.583   2.929  1.4192  1.0588 -1.7345
  819THF     C814742   0.157   0.608   2.755 -0.6949  0.3120 -0.2129
  819THF     C914743   0.250   0.650   2.640 -0.5585  0.2210 -0.4644
  819THF    H1014744   0.119   0.692   2.813  2.6510  1.4737  0.5300
  819THF    H1114745   0.076   0.545   2.718 -0.0058  0.0529 -1.2962
  819THF    H1214746   0.190   0.661   2.550  1.6812  0.0603 -2.0640
  819THF    H1314747   0.298   0.743   2.668  0.2603  0.1738 -1.6424
  820THF     O114748   3.336   0.817   1.957 -0.3388  0.4099 -0.0903
  820THF     C214749   3.217   0.768   2.017 -0.4010 -0.1781 -0.1171
  820THF     C314750   3.402   0.897   2.058 -0.1005 -0.6877  0.8526
  820THF     H414751   3.199   0.665   1.985  1.9996 -0.4949 -0.6732
  820THF     H514752   3.141   0.835   1.977 -0.8468  0.5758  1.8658
  820THF     H614753   3.489   0.840   2.092 -0.1399 -0.0298  2.1007
  820THF     H714754   3.431   0.992   2.013  0.4101 -0.5688  1.4137
  820THF     C814755   3.306   0.909   2.177 -0.9784  0.4560  0.1250
  820THF     C914756   3.220   0.784   2.168 -0.1155  0.6292 -0.3824
  820THF    H1014757   3.252   1.001   2.155  1.6073  1.5484 -2.1176
  820THF    H1114758   3.353   0.932   2.272 -0.8664  2.4892 -0.3814
  820THF    H1214759   3.265   0.698   2.218  2.6402  2.4254  0.4680
  820THF    H1314760   3.124   0.797   2.218 -0.9237 -1.6455 -1.2301
  821PF6-    P114761   2.174   4.609   3.375 -0.0133 -0.3697  0.0233
  821PF6-    F214762   2.062   4.498   3.353 -0.2844  0.0471  0.3091
  821PF6-    F314763   2.289   4.724   3.390  0.3725 -0.4073  0.0181
  821PF6-    F414764   2.192   4.560   3.529 -0.0378 -0.2119  0.0168
  821PF6-    F514765   2.161   4.648   3.222 -0.0636  0.1060  0.2310
  821PF6-    F614766   2.061   4.715   3.422 -0.8786 -0.2251 -0.6213
  821PF6-    F714767   2.287   4.507   3.332 -0.0328  0.3524 -0.1119
  822PF6-    P114768   5.339   4.893   3.777  0.4768  0.0159 -0.0199
  822PF6-    F214769   5.389   4.746   3.781 -0.2144  0.1292  0.4475
  822PF6-    F314770   5.291   5.047   3.775 -0.2913  0.2483  0.2951
  822PF6-    F414771   5.198   4.838   3.838  0.2113  0.2734  0.2107
  822PF6-    F514772   5.479   4.940   3.720  0.0118 -0.2897  0.6647
  822PF6-    F614773   5.284   4.871   3.630 -0.3903  0.0598 -0.2224
  822PF6-    F714774   5.395   4.912   3.921  0.0898  0.4222  0.5201
  823PF6-    P114775   1.338   2.028   1.875 -0.2729  0.3014  0.3609
  823PF6-    F214776   1.458   1.923   1.850  0.5727 -0.6570  0.6531
  823PF6-    F314777   1.217   2.118   1.902 -0.3182  0.0813  0.3633
  823PF6-    F414778   1.426   2.145   1.808 -0.2174  0.6512 -0.5037
  823PF6-    F514779   1.246   1.908   1.923 -0.5044  0.4592 -0.1640
  823PF6-    F614780   1.388   2.061   2.027 -0.5649  0.2059 -0.1774
  823PF6-    F714781   1.282   1.997   1.724 -0.3207  0.2147 -0.1287
  824PF6-    P114782   1.896   4.701   1.858 -0.2554  0.1183 -0.4284
  824PF6-    F214783   1.948   4.814   1.753 -0.1847  0.1500  0.2603
  824PF6-    F314784   1.847   4.590   1.969  0.8458 -0.3065 -0.4430
  824PF6-    F414785   2.049   4.658   1.881  0.5616  0.0409 -0.0375
  824PF6-    F514786   1.742   4.750   1.831  0.2468 -0.3907 -0.0538
  824PF6-    F614787   1.882   4.594   1.737 -0.6778 -0.2534 -0.4492
  824PF6-    F714788   1.899   4.811   1.974 -0.3149 -0.0107 -0.1716
  825PF6-    P114789   2.191   3.346   3.647 -0.3018  0.6128 -0.4555
  825PF6-    F214790   2.091   3.467   3.649  0.4231  0.1467  0.2742
  825PF6-    F314791   2.293   3.218   3.652 -0.0957 -0.2531  0.2187
  825PF6-    F414792   2.077   3.248   3.703 -0.4092  0.5749 -0.2722
  825PF6-    F514793   2.301   3.443   3.587  0.1494  0.1783 -0.1298
  825PF6-    F614794   2.246   3.385   3.798 -0.0106  0.5932  0.3684
  825PF6-    F714795   2.139   3.309   3.502 -0.4099  0.4396 -0.3738
  826PF6-    P114796   2.783   4.245   2.359  0.1625  0.5098  0.4319
  826PF6-    F214797   2.935   4.224   2.406  0.3224 -0.1171 -0.4132
  826PF6-    F314798   2.626   4.256   2.308 -0.3784  0.7051 -0.7133
  826PF6-    F414799   2.816   4.384   2.295  0.5745 -0.6551  0.1358
  826PF6-    F514800   2.754   4.100   2.438  0.3764  0.2504 -0.0121
  826PF6-    F614801   2.751   4.324   2.495  0.4670  0.1552 -0.0229
  826PF6-    F714802   2.814   4.157   2.225 -0.5738 -0.1390 -0.4176
  827PF6-    P114803   1.591   5.288   5.246  0.3388 -0.1353  0.0757
  827PF6-    F214804   1.751   5.284   5.242 -0.4281  0.0412 -0.0897
  827PF6-    F314805   1.423   5.288   5.252 -0.3596 -0.2837  0.0041
  827PF6-    F414806   1.589   5.444   5.205  0.3795  0.5871 -0.1921
  827PF6-    F514807   1.591   5.131   5.272 -0.5248  0.2442  0.1412
  827PF6-    F614808   1.594   5.328   5.405  0.2908 -0.1971  0.3325
  827PF6-    F714809   1.588   5.253   5.089 -0.4883 -0.3677  0.0299
  828PF6-    P114810   4.309   3.868   1.938 -0.2112  0.0111 -0.3215
  828PF6-    F214811   4.227   4.004   1.971  0.0136 -0.0822 -0.1714
  828PF6-    F314812   4.392   3.732   1.911 -0.1964  0.0659 -0.7472
  828PF6-    F414813   4.314   3.907   1.785  0.3448 -0.4352 -0.1026
  828PF6-    F514814   4.294   3.830   2.091 -0.6028 -0.3798 -0.2766
  828PF6-    F614815   4.173   3.794   1.902 -0.1669  0.0807 -0.2374
  828PF6-    F714816   4.449   3.938   1.969 -0.1654 -0.2825  0.4432
  829PF6-    P114817   2.691   2.943   5.108 -0.4854  0.0374 -0.2011
  829PF6-    F214818   2.836   3.008   5.112  0.4017  0.2819 -0.2906
  829PF6-    F314819   2.541   2.889   5.104  0.0255 -0.4265 -0.5474
  829PF6-    F414820   2.697   2.887   5.250  0.3385  0.0597 -0.4461
  829PF6-    F514821   2.671   3.006   4.964  0.0669 -0.1695  0.0019
  829PF6-    F614822   2.756   2.805   5.045  0.0397 -0.2955  0.0125
  829PF6-    F714823   2.639   3.080   5.169  0.7278  0.0604  0.1554
  830PF6-    P114824   1.041   2.197   5.127  0.4593  0.0902 -0.1488
  830PF6-    F214825   0.917   2.142   5.209 -0.4350 -0.2571 -0.2580
  830PF6-    F314826   1.161   2.245   5.034 -0.0984  0.2189 -0.1747
  830PF6-    F414827   1.124   2.072   5.176  0.1111  0.3895  0.3197
  830PF6-    F514828   0.949   2.327   5.083 -0.2049  0.0119  0.1519
  830PF6-    F614829   1.085   2.281   5.256  0.0852  0.3727 -0.1211
  830PF6-    F714830   0.979   2.115   5.003 -0.0912  0.5164  0.1134
  831PF6-    P114831   5.479   0.316   3.200  0.5831  0.0223 -0.0410
  831PF6-    F214832   5.614   0.348   3.110 -0.1027  0.0502  0.4659
  831PF6-    F314833   5.350   0.279   3.282  0.4109 -0.2787 -0.0009
  831PF6-    F414834   5.513   0.443   3.296  0.0674 -0.1577  0.8632
  831PF6-    F514835   5.442   0.197   3.097 -0.3399 -0.0581 -0.1439
  831PF6-    F614836   5.564   0.225   3.295 -0.4890 -0.5185  0.0256
  831PF6-    F714837   5.390   0.419   3.103 -0.1599  0.6284 -0.4798
  832PF6-    P114838   3.918   0.597   3.085  0.3708  0.1942  0.1891
  832PF6-    F214839   3.785   0.674   3.043  0.4291  0.2004  0.1908
  832PF6-    F314840   4.049   0.518   3.130  0.0911 -0.0544 -0.2712
  832PF6-    F414841   3.833   0.560   3.224  0.2561  0.4008  0.6085
  832PF6-    F514842   3.989   0.638   2.946 -0.0040  0.1403  0.7932
  832PF6-    F614843   3.975   0.730   3.147  0.1818 -0.4504  0.3373
  832PF6-    F714844   3.868   0.460   3.015 -0.0715  0.3438  0.0596
  833PF6-    P114845   2.388   4.914   0.955 -0.1680  0.0046  0.4762
  833PF6-    F214846   2.548   4.916   0.927  0.4624  0.1620  0.2267
  833PF6-    F314847   2.232   4.910   0.989  0.1329 -0.3926 -0.1882
  833PF6-    F414848   2.415   4.813   1.080 -0.2550  0.1227 -0.0587
  833PF6-    F514849   2.369   5.015   0.833  0.3119  0.0394  0.5709
  833PF6-    F614850   2.359   4.791   0.852  0.2195 -0.2029  0.1270
  833PF6-    F714851   2.407   5.037   1.052 -0.0938 -0.3021  0.1746
  834PF6-    P114852   3.697   3.855   5.380 -0.1082 -0.2630 -0.3314
  834PF6-    F214853   3.657   3.756   5.503  0.2506 -0.2495 -0.8694
  834PF6-    F314854   3.736   3.954   5.260  0.2708  0.7298  0.1714
  834PF6-    F414855   3.849   3.798   5.377  0.1651  0.1245  0.0417
  834PF6-    F514856   3.551   3.917   5.378  0.0342 -0.2547  0.3546
  834PF6-    F614857   3.738   3.965   5.479  0.0681 -0.6357 -0.0225
  834PF6-    F714858   3.656   3.742   5.273 -0.0057 -0.1703 -0.1286
  835PF6-    P114859   4.473   0.826   0.426  0.1342 -0.7419 -0.0124
  835PF6-    F214860   4.320   0.865   0.452 -0.4873  0.0793  0.0087
  835PF6-    F314861   4.624   0.782   0.394  0.2404  0.1139 -0.1096
  835PF6-    F414862   4.431   0.675   0.459 -0.2135 -0.3453  0.1281
  835PF6-    F514863   4.505   0.980   0.396  0.0764  0.3428  0.0251
  835PF6-    F614864   4.503   0.852   0.579 -0.1174  0.1808 -0.3715
  835PF6-    F714865   4.438   0.810   0.269 -0.4565 -0.0437 -0.4878
  836PF6-    P114866   1.931   3.408   0.891 -0.3871  0.3816 -0.2747
  836PF6-    F214867   1.925   3.399   1.048  0.0313  0.4063 -0.0045
  836PF6-    F314868   1.930   3.414   0.727 -0.5906  0.0325  0.3415
  836PF6-    F414869   1.809   3.308   0.882  0.0057  0.1813 -0.3900
  836PF6-    F514870   2.053   3.514   0.902  0.0089  0.5058  0.6219
  836PF6-    F614871   2.032   3.280   0.888 -0.3789  0.2697  0.0337
  836PF6-    F714872   1.827   3.531   0.891  0.2403  0.0436 -0.3665
  837PF6-    P114873   1.555   1.190   2.130  0.2220 -0.1161 -0.0315
  837PF6-    F214874   1.702   1.123   2.159  0.3699 -0.0650 -0.0078
  837PF6-    F314875   1.406   1.260   2.107  0.2345  0.4412  0.0326
  837PF6-    F414876   1.585   1.294   2.246  0.0100 -0.0679  0.9342
  837PF6-    F514877   1.532   1.083   2.008 -0.8391 -0.1548 -0.0479
  837PF6-    F614878   1.488   1.091   2.230  0.0749  0.3500  0.4682
  837PF6-    F714879   1.626   1.290   2.020 -0.0421  0.3559 -0.5873
  838PF6-    P114880   0.459   5.219   0.763 -0.1069  0.0859  0.1752
  838PF6-    F214881   0.568   5.134   0.844 -0.2904 -0.3825  0.3107
  838PF6-    F314882   0.353   5.311   0.683 -0.2420  0.1173  0.5368
  838PF6-    F414883   0.559   5.344   0.771 -0.1085  0.0497 -0.0104
  838PF6-    F514884   0.362   5.095   0.762 -0.5486  0.1323  0.4724
  838PF6-    F614885   0.399   5.265   0.905  0.4311  0.2373  0.7105
  838PF6-    F714886   0.513   5.174   0.619  0.0122 -0.3083  0.1765
  839PF6-    P114887   4.755   1.131   2.071 -0.0980  0.0346 -0.1199
  839PF6-    F214888   4.900   1.079   2.132  0.0420  0.1378  0.4844
  839PF6-    F314889   4.611   1.179   2.013  0.2514 -0.4693  0.4732
  839PF6-    F414890   4.722   1.194   2.207 -0.2846 -0.4040 -0.3673
  839PF6-    F514891   4.784   1.063   1.927 -0.1302  0.2182 -0.3390
  839PF6-    F614892   4.689   0.994   2.124  0.4371  0.2402  0.1230
  839PF6-    F714893   4.820   1.260   2.018  0.0791  0.0718 -0.1463
  840PF6-    P114894   2.318   2.680   2.192 -0.3508 -0.3355  0.0575
  840PF6-    F214895   2.345   2.730   2.042  0.0052 -0.2251  0.1334
  840PF6-    F314896   2.288   2.628   2.341  0.1199 -0.5308 -0.3293
  840PF6-    F414897   2.275   2.826   2.234  0.1277 -0.1603  0.5198
  840PF6-    F514898   2.362   2.531   2.152 -0.1576 -0.2775  0.1402
  840PF6-    F614899   2.469   2.711   2.225 -0.2069 -0.5231 -0.2108
  840PF6-    F714900   2.167   2.646   2.146  0.7119  0.0780  0.1904
  841PF6-    P114901   4.391   3.364   3.343 -0.0047  0.2184  0.3436
  841PF6-    F214902   4.306   3.346   3.480 -0.4236 -0.3218 -0.5061
  841PF6-    F314903   4.474   3.387   3.208  0.5090  0.3476 -0.2538
  841PF6-    F414904   4.278   3.274   3.266  0.0836 -0.1138  0.3969
  841PF6-    F514905   4.491   3.456   3.421  0.2520  0.2844  0.1784
  841PF6-    F614906   4.480   3.234   3.377 -0.2079  0.0020 -0.6924
  841PF6-    F714907   4.295   3.493   3.311 -0.2760  0.1456 -0.4837
  842PF6-    P114908   1.885   4.024   4.212 -0.3903  0.5409 -0.1044
  842PF6-    F214909   1.742   3.959   4.177 -0.2351 -0.1239 -0.0132
  842PF6-    F314910   2.027   4.099   4.233 -0.2298 -0.2182 -0.4250
  842PF6-    F414911   1.941   3.875   4.242 -0.0397 -0.6146  0.1085
  842PF6-    F514912   1.824   4.168   4.173  0.2783  0.0519 -0.2572
  842PF6-    F614913   1.851   4.045   4.364  0.4178  0.1740 -0.0712
  842PF6-    F714914   1.933   4.010   4.059 -0.0701  0.1611  0.1188
  843PF6-    P114915   2.262   0.221   5.070 -0.0054  0.4433 -0.0307
  843PF6-    F214916   2.218   0.314   4.945 -0.4454 -0.0345 -0.0947
  843PF6-    F314917   2.300   0.140   5.201 -0.0833 -0.3755 -0.7110
  843PF6-    F414918   2.117   0.253   5.136  0.1306 -0.2282 -0.2133
  843PF6-    F514919   2.403   0.190   5.013  0.1159 -0.0727  0.1266
  843PF6-    F614920   2.324   0.351   5.153 -0.3409  0.2870  0.1200
  843PF6-    F714921   2.199   0.086   5.003 -0.3139 -0.2005 -0.2772
  844PF6-    P114922   4.981   1.354   4.286  0.1609 -0.3614 -0.0026
  844PF6-    F214923   4.899   1.320   4.157 -0.0633  0.0682  0.1440
  844PF6-    F314924   5.072   1.384   4.415  0.2251 -0.5583  0.2302
  844PF6-    F414925   4.855   1.354   4.381 -0.2189  0.0620  0.4337
  844PF6-    F514926   5.115   1.360   4.194  0.1537  0.0689  0.5927
  844PF6-    F614927   4.962   1.510   4.259  0.3660 -0.0427 -0.7680
  844PF6-    F714928   4.999   1.196   4.305 -0.2771  0.1817  0.0368
  845PF6-    P114929   3.339   4.529   3.581  0.1449  0.5030  0.1191
  845PF6-    F214930   3.355   4.683   3.622 -0.0754 -0.0065  0.1909
  845PF6-    F314931   3.324   4.376   3.538 -0.4459  0.4853  0.5938
  845PF6-    F414932   3.438   4.549   3.461  0.5001 -0.3876  0.0633
  845PF6-    F514933   3.242   4.514   3.704 -0.0263  0.4486 -0.0417
  845PF6-    F614934   3.212   4.564   3.483 -0.2866  0.0563 -0.4461
  845PF6-    F714935   3.468   4.483   3.669 -0.1402 -0.0887  0.4859
  846PF6-    P114936   5.337   3.571   2.847 -0.1660  0.1455 -0.2690
  846PF6-    F214937   5.208   3.485   2.902  0.4259  0.0013  0.1062
  846PF6-    F314938   5.466   3.654   2.792 -0.2080  0.0167  0.0346
  846PF6-    F414939   5.266   3.603   2.707  0.3867 -0.2024  0.3612
  846PF6-    F514940   5.416   3.538   2.987 -0.3261 -0.2216  0.3775
  846PF6-    F614941   5.394   3.433   2.790  0.0353 -0.2049  0.2286
  846PF6-    F714942   5.280   3.707   2.916 -0.2986  0.3990 -0.2341
  847PF6-    P114943   3.218   0.095   0.860 -0.2665 -0.2606 -0.5044
  847PF6-    F214944   3.264   0.225   0.943  0.4740  0.0052 -0.0405
  847PF6-    F314945   3.170  -0.029   0.780 -0.5726  0.3386 -0.0201
  847PF6-    F414946   3.358   0.024   0.895  0.7291  0.5614 -0.4581
  847PF6-    F514947   3.087   0.173   0.830  0.8318  0.1814  0.2260
  847PF6-    F614948   3.286   0.156   0.725  0.0317  0.1013 -0.0501
  847PF6-    F714949   3.149   0.041   0.994 -0.5106  0.1291  0.1914
  848PF6-    P114950   1.966   1.832   1.038 -0.4654  0.1153  0.3387
  848PF6-    F214951   1.933   1.911   1.166  0.5156  0.2392  0.4147
  848PF6-    F314952   1.999   1.751   0.899 -0.1513  0.1360 -0.2160
  848PF6-    F414953   1.817   1.785   1.025 -0.0878 -0.2426 -0.3039
  848PF6-    F514954   2.124   1.883   1.054 -0.0491  0.5728 -0.0999
  848PF6-    F614955   2.001   1.695   1.115  0.3444  0.3933  0.2231
  848PF6-    F714956   1.934   1.958   0.947  0.1388 -0.2780  0.1307
  849PF6-    P114957   3.124   3.597   1.857  0.3113  0.1421  0.5063
  849PF6-    F214958   3.222   3.617   1.733  0.2983  0.1070 -0.0548
  849PF6-    F314959   3.029   3.582   1.985  0.3006 -0.1619  0.0387
  849PF6-    F414960   3.133   3.437   1.846 -0.1203  0.3509 -0.8521
  849PF6-    F514961   3.109   3.757   1.874  0.2985 -0.6745 -0.2686
  849PF6-    F614962   2.990   3.595   1.758  0.4230 -0.3297 -0.1033
  849PF6-    F714963   3.250   3.594   1.956 -0.2158 -0.3631  0.0881
  850PF6-    P114964   3.597   2.796   1.111 -0.0487  0.0800  0.4354
  850PF6-    F214965   3.590   2.642   1.139  0.1080  0.8614 -0.1016
  850PF6-    F314966   3.601   2.957   1.090 -0.1689  0.2056  0.1299
  850PF6-    F414967   3.689   2.815   1.242  0.1898 -0.2369 -0.5037
  850PF6-    F514968   3.504   2.785   0.982  0.1226  0.2660  0.0648
  850PF6-    F614969   3.461   2.811   1.202  0.5961  0.1859  0.3735
  850PF6-    F714970   3.723   2.777   1.014  0.4432  0.2969 -0.2505
  851PF6-    P114971   4.157   4.158   4.086  0.0548  0.1905  0.1776
  851PF6-    F214972   4.029   4.061   4.091 -0.1348  0.1539  0.3939
  851PF6-    F314973   4.284   4.262   4.086  0.5068 -0.7697 -0.5314
  851PF6-    F414974   4.251   4.034   4.115 -0.6005  0.1527 -0.3374
  851PF6-    F514975   4.058   4.284   4.055  0.0950  0.1966 -0.2583
  851PF6-    F614976   4.134   4.184   4.248  0.6836  0.0685  0.1675
  851PF6-    F714977   4.176   4.126   3.930  0.2449 -0.3980  0.2103
  852PF6-    P114978   1.152   4.939   1.434 -0.0427 -0.2068 -0.0061
  852PF6-    F214979   1.143   4.804   1.517 -0.5518  0.6040 -0.4069
  852PF6-    F314980   1.153   5.069   1.353  0.3285 -0.1010 -0.5887
  852PF6-    F414981   1.136   5.017   1.571  0.3272  0.7084 -0.2910
  852PF6-    F514982   1.175   4.857   1.297  0.2970  0.2063  0.5063
  852PF6-    F614983   0.994   4.944   1.413  0.3463 -0.3736  0.1973
  852PF6-    F714984   1.309   4.946   1.456 -0.3890 -0.0240  0.0383
  853PF6-    P114985   5.165   1.717   0.627  0.2411  0.3625 -0.4481
  853PF6-    F214986   5.258   1.588   0.630 -0.2535 -0.1136  0.3381
  853PF6-    F314987   5.066   1.846   0.634  0.0293 -0.5623  0.2012
  853PF6-    F414988   5.121   1.699   0.472 -0.0003 -0.3119 -0.0448
  853PF6-    F514989   5.199   1.737   0.783  0.5063 -0.0557  0.1496
  853PF6-    F614990   5.299   1.803   0.585  0.3162  0.2594 -0.0771
  853PF6-    F714991   5.038   1.630   0.666 -0.4984 -0.0500 -0.4371
  854PF6-    P114992   0.484   0.124   4.469  0.2443  0.2136  0.0423
  854PF6-    F214993   0.574   0.231   4.551 -0.2476 -0.0375  0.0692
  854PF6-    F314994   0.395   0.024   4.382 -0.3751  0.1364 -0.1764
  854PF6-    F414995   0.519   0.008   4.578  0.1638  0.0695  0.4896
  854PF6-    F514996   0.447   0.241   4.361 -0.1684 -0.7905 -0.0864
  854PF6-    F614997   0.613   0.082   4.380  0.3166 -0.2029 -0.2937
  854PF6-    F714998   0.350   0.149   4.552  0.1574 -0.3269 -0.0466
  855PF6-    P114999   3.390   2.657   2.900  0.3674 -0.4190  0.0141
  855PF6-    F215000   3.487   2.725   3.003  0.2695  0.5613 -0.0641
  855PF6-    F315001   3.295   2.584   2.789  0.3841 -0.2772  0.4334
  855PF6-    F415002   3.332   2.799   2.860  0.1039 -0.6448  0.2525
  855PF6-    F515003   3.447   2.516   2.947  0.0558 -0.1321 -0.3603
  855PF6-    F615004   3.271   2.651   3.006  0.8924 -0.5152 -0.1502
  855PF6-    F715005   3.504   2.666   2.786  0.3979 -0.2608 -0.6031
  856PF6-    P115006   1.446   2.342   3.944  0.4020 -0.4310  0.0854
  856PF6-    F215007   1.379   2.249   3.838 -0.0939 -0.4133 -0.1227
  856PF6-    F315008   1.522   2.429   4.058  0.1416  0.3064  0.5112
  856PF6-    F415009   1.306   2.401   3.989  0.0898  0.6872  0.0143
  856PF6-    F515010   1.593   2.280   3.901  0.1476  0.0591  0.0954
  856PF6-    F615011   1.461   2.455   3.835  0.4452  0.0030 -0.6556
  856PF6-    F715012   1.434   2.221   4.050  0.2503  0.4742 -0.2937
  857PF6-    P115013   4.405   4.707   3.195 -0.0704 -0.7077 -0.1260
  857PF6-    F215014   4.511   4.597   3.252  0.1159 -0.8253  0.3141
  857PF6-    F315015   4.309   4.825   3.138 -0.3335 -0.1403 -0.1016
  857PF6-    F415016   4.279   4.639   3.267 -0.2084  0.1759 -0.3296
  857PF6-    F515017   4.526   4.776   3.122 -0.8269  0.3052 -0.0904
  857PF6-    F615018   4.376   4.620   3.057  0.6098 -0.0247 -0.4731
  857PF6-    F715019   4.439   4.798   3.323 -0.4192 -0.4728 -0.1298
  858PF6-    P115020   5.065   3.512   5.217 -0.2324  0.1919  0.2349
  858PF6-    F215021   5.023   3.498   5.064  0.2273 -0.0586 -0.3351
  858PF6-    F315022   5.096   3.513   5.377 -0.1463 -0.0750 -0.0742
  858PF6-    F415023   5.069   3.352   5.218  0.6181 -0.6568 -0.2798
  858PF6-    F515024   5.060   3.670   5.201  0.5413 -0.1255  0.2214
  858PF6-    F615025   4.913   3.511   5.257  0.0850 -0.3453  0.0562
  858PF6-    F715026   5.229   3.508   5.185 -0.9438  0.2603 -0.7318
  859PF6-    P115027   4.773   2.893   4.238 -0.0151 -0.2412 -0.0285
  859PF6-    F215028   4.753   2.733   4.286 -0.0362 -0.3716 -0.1154
  859PF6-    F315029   4.780   3.047   4.193  0.6525  0.2883  0.0307
  859PF6-    F415030   4.781   2.935   4.391 -0.1149 -0.0112  0.1814
  859PF6-    F515031   4.762   2.849   4.085 -0.0982  0.0560  0.0903
  859PF6-    F615032   4.616   2.909   4.253  0.5930 -0.1803 -0.5490
  859PF6-    F715033   4.932   2.883   4.234 -0.3553  0.3691 -0.2652
  860PF6-    P115034   5.101   4.788   1.556  0.1598 -0.0079 -0.4679
  860PF6-    F215035   4.974   4.842   1.640 -0.0186 -0.2313  0.6579
  860PF6-    F315036   5.225   4.734   1.477  0.0309  0.2963  0.0121
  860PF6-    F415037   5.191   4.871   1.663  0.0463 -0.4992 -0.1022
  860PF6-    F515038   5.004   4.713   1.456 -0.3264 -0.2642  0.4260
  860PF6-    F615039   5.094   4.913   1.462  0.3120  0.6651 -0.1900
  860PF6-    F715040   5.108   4.659   1.654  0.1964  0.0181  0.1031
  861PF6-    P115041   1.792   4.235   1.333 -0.3685  0.2989 -0.2541
  861PF6-    F215042   1.641   4.257   1.314  0.1579 -0.4018  0.2913
  861PF6-    F315043   1.951   4.219   1.346 -0.2477 -0.1478 -0.2013
  861PF6-    F415044   1.799   4.340   1.453  0.8426 -0.2367  0.4642
  861PF6-    F515045   1.788   4.130   1.207  0.3346  0.0522 -0.0963
  861PF6-    F615046   1.815   4.350   1.225  0.1410  0.0703  0.3291
  861PF6-    F715047   1.765   4.110   1.434  0.0328  0.2473 -0.7340
  862PF6-    P115048   3.131   1.850   3.577 -0.1204 -0.0404  0.0813
  862PF6-    F215049   3.220   1.979   3.599  0.1135 -0.1282  0.1324
  862PF6-    F315050   3.035   1.719   3.552  0.6821 -0.1738 -0.4518
  862PF6-    F415051   3.013   1.942   3.526  0.2001  0.7358 -0.6085
  862PF6-    F515052   3.257   1.759   3.619  0.0998 -1.1077 -0.3310
  862PF6-    F615053   3.086   1.857   3.732 -0.3509  0.0532 -0.5764
  862PF6-    F715054   3.174   1.839   3.422 -0.1139 -0.1087  0.1046
  863PF6-    P115055   3.960   0.220   0.287 -0.2557 -0.5833 -0.0603
  863PF6-    F215056   4.007   0.073   0.322 -0.0472  0.1498 -0.4941
  863PF6-    F315057   3.909   0.364   0.232 -0.4034  0.3281 -0.2066
  863PF6-    F415058   3.948   0.173   0.135  0.3980 -0.1231 -0.1466
  863PF6-    F515059   3.973   0.267   0.438 -0.0133 -0.2637 -0.6085
  863PF6-    F615060   4.115   0.255   0.266 -0.3425  0.3128 -0.0885
  863PF6-    F715061   3.807   0.177   0.314 -0.1223 -0.1305 -0.0430
  864PF6-    P115062   1.975   1.467   2.985 -0.2722  0.0388  0.0672
  864PF6-    F215063   2.066   1.357   2.906  0.5501  0.1867 -0.0705
  864PF6-    F315064   1.887   1.573   3.062  0.5130  0.1235  0.1938
  864PF6-    F415065   2.024   1.398   3.124 -0.4067  0.3195  0.3615
  864PF6-    F515066   1.928   1.530   2.847 -0.0685 -0.2956  0.5890
  864PF6-    F615067   1.851   1.371   2.983  0.3614 -0.2199 -0.2965
  864PF6-    F715068   2.104   1.557   2.991  0.4452 -0.3008  0.6662
  865PF6-    P115069   3.633   4.751   0.500  0.6658  0.0836  0.4307
  865PF6-    F215070   3.495   4.777   0.570  0.0242 -0.6500  0.4201
  865PF6-    F315071   3.769   4.736   0.412  0.1589  0.4131 -0.5715
  865PF6-    F415072   3.558   4.660   0.386 -0.3362 -0.0744  0.1173
  865PF6-    F515073   3.696   4.846   0.617  0.2784  0.5179  0.0871
  865PF6-    F615074   3.664   4.626   0.590 -0.2457 -0.4519 -0.8579
  865PF6-    F715075   3.600   4.882   0.413  0.0495  0.0220 -0.0341
  866PF6-    P115076   3.671   0.644   5.012 -0.3204 -0.0433 -0.4962
  866PF6-    F215077   3.587   0.632   4.878  0.1592 -0.8474  0.0944
  866PF6-    F315078   3.758   0.658   5.148 -0.0216 -0.3570  0.5108
  866PF6-    F415079   3.699   0.798   4.970 -0.7307  0.4520 -0.1053
  866PF6-    F515080   3.642   0.491   5.054 -0.2930  0.1031  0.1613
  866PF6-    F615081   3.797   0.600   4.928  0.3887  0.4809  0.2205
  866PF6-    F715082   3.547   0.690   5.091  0.0599  0.3677 -0.7202
  867PF6-    P115083   3.985   3.008   5.471  0.1598 -0.1127 -0.1880
  867PF6-    F215084   4.044   3.034   5.616  0.1472  0.3509  0.6314
  867PF6-    F315085   3.920   2.988   5.326 -0.0194  0.0895  0.2198
  867PF6-    F415086   4.016   3.162   5.435  0.3740 -0.1844  0.1380
  867PF6-    F515087   3.952   2.858   5.510 -0.2012  0.0773 -0.0238
  867PF6-    F615088   3.841   3.053   5.525  0.5690 -0.1400  0.2102
  867PF6-    F715089   4.127   2.964   5.408  0.3076 -0.1964  0.2312
  868PF6-    P115090   0.195   4.625   1.345 -0.1154 -0.5041 -0.3105
  868PF6-    F215091   0.234   4.582   1.496 -0.4210  0.3692  0.0080
  868PF6-    F315092   0.149   4.670   1.200  0.2332  0.5588 -0.1090
  868PF6-    F415093   0.247   4.775   1.380 -0.3256  0.4464  0.0677
  868PF6-    F515094   0.148   4.474   1.308 -0.2568  0.2507 -0.5512
  868PF6-    F615095   0.046   4.660   1.392  0.3289  0.1054 -0.7277
  868PF6-    F715096   0.343   4.592   1.292 -0.0645 -0.0128  0.1513
  869PF6-    P115097   4.350   3.986   2.819  0.2319  0.2518 -0.4825
  869PF6-    F215098   4.216   3.893   2.837 -0.3292  0.1278  0.2941
  869PF6-    F315099   4.471   4.081   2.798 -0.2450 -0.4284  0.2314
  869PF6-    F415100   4.289   4.090   2.928 -0.5845  0.5408 -0.0828
  869PF6-    F515101   4.410   3.883   2.716 -0.1899  0.1120 -0.1934
  869PF6-    F615102   4.267   4.061   2.702 -0.1043 -0.0996  0.2351
  869PF6-    F715103   4.431   3.907   2.936 -0.0098  0.3414  0.5140
  870PF6-    P115104   3.188   1.662   0.772 -0.0053 -0.1516  0.0703
  870PF6-    F215105   3.126   1.513   0.758  0.1180  0.0305 -0.3797
  870PF6-    F315106   3.249   1.808   0.785  0.1042 -0.2113  0.0884
  870PF6-    F415107   3.172   1.678   0.613 -0.0864  0.4932 -0.3112
  870PF6-    F515108   3.198   1.640   0.927 -0.5914  0.2754  0.4005
  870PF6-    F615109   3.334   1.606   0.746 -0.0142 -0.3243 -0.1563
  870PF6-    F715110   3.041   1.731   0.794  0.3376 -0.3551 -0.2618
  871PF6-    P115111   1.126   3.744   3.402  0.0557  0.0548  0.2976
  871PF6-    F215112   1.209   3.829   3.511  0.4633  0.4684 -0.4416
  871PF6-    F315113   1.046   3.666   3.285  0.3905  0.3724  0.0042
  871PF6-    F415114   1.245   3.635   3.394 -0.0096  0.6949 -0.3959
  871PF6-    F515115   1.012   3.858   3.410 -0.1292 -0.0008 -0.3700
  871PF6-    F615116   1.199   3.829   3.286 -0.2763 -0.2754  0.1907
  871PF6-    F715117   1.052   3.657   3.507  0.2684 -0.0565 -0.0683
  872PF6-    P115118   0.171   0.389   2.055  0.2927 -0.1542 -0.1355
  872PF6-    F215119   0.261   0.518   2.067  0.2516  0.0556 -0.0483
  872PF6-    F315120   0.078   0.262   2.040  0.4507  0.2528 -0.3844
  872PF6-    F415121   0.175   0.399   1.898  0.4873 -0.0333 -0.0477
  872PF6-    F515122   0.167   0.368   2.214 -0.0514 -0.0361 -0.1506
  872PF6-    F615123   0.043   0.486   2.054  0.3442  0.2351  0.7704
  872PF6-    F715124   0.303   0.300   2.051 -0.1741 -0.1400 -0.5032
  873PF6-    P115125   0.702   4.351   2.313 -0.4909  0.2235  0.0849
  873PF6-    F215126   0.632   4.460   2.213  0.3822  0.9303 -0.3541
  873PF6-    F315127   0.786   4.248   2.405 -0.0943  0.0865 -0.4302
  873PF6-    F415128   0.653   4.234   2.219  0.4144 -0.1304  0.1657
  873PF6-    F515129   0.746   4.465   2.405  0.3387  0.4924 -0.3351
  873PF6-    F615130   0.575   4.337   2.403  0.0775  0.1174 -0.6256
  873PF6-    F715131   0.836   4.371   2.226 -0.9760  0.2619 -0.1095
  874PF6-    P115132   4.857   2.491   5.207  0.1185  0.0662  0.1630
  874PF6-    F215133   4.831   2.490   5.363  0.4787 -0.4471 -0.1720
  874PF6-    F315134   4.885   2.496   5.049  0.0008 -0.3043  0.3448
  874PF6-    F415135   5.013   2.511   5.228 -0.1151 -0.4852 -0.0084
  874PF6-    F515136   4.696   2.476   5.193 -0.5571 -0.6097 -0.2286
  874PF6-    F615137   4.837   2.650   5.207 -0.1987 -0.1940 -0.4727
  874PF6-    F715138   4.884   2.335   5.212 -0.0743 -0.3762  0.0532
  875PF6-    P115139   0.454   4.509   3.220 -0.3386 -0.2682  0.1915
  875PF6-    F215140   0.397   4.522   3.370  0.1120  0.0163 -0.2383
  875PF6-    F315141   0.510   4.496   3.070  0.0164  0.6370  0.1097
  875PF6-    F415142   0.326   4.421   3.181  0.3708 -0.1446  0.6050
  875PF6-    F515143   0.571   4.602   3.259 -0.2307  0.0313  0.4266
  875PF6-    F615144   0.540   4.381   3.254  0.6437  0.6501 -0.3312
  875PF6-    F715145   0.368   4.635   3.171  0.2004  0.1375  0.1084
  876PF6-    P115146   3.289   1.601   2.087 -0.2117 -0.2053 -0.2701
  876PF6-    F215147   3.269   1.609   2.243  0.0279 -0.3614 -0.0686
  876PF6-    F315148   3.320   1.590   1.924  0.2938 -0.0847  0.4188
  876PF6-    F415149   3.391   1.479   2.108  0.0195  0.2354  0.0021
  876PF6-    F515150   3.194   1.729   2.063  0.5993  0.0636  0.2235
  876PF6-    F615151   3.416   1.700   2.105 -0.3961  0.1157  0.4835
  876PF6-    F715152   3.172   1.497   2.077 -0.2325  0.0179  0.3066
  877PF6-    P115153   2.695   4.738   4.508 -0.2002 -0.0646 -0.4502
  877PF6-    F215154   2.849   4.736   4.540  0.3436 -0.3919  0.0488
  877PF6-    F315155   2.538   4.735   4.478 -0.2174 -0.4299 -0.4804
  877PF6-    F415156   2.689   4.586   4.531 -0.1411  0.1826 -0.4557
  877PF6-    F515157   2.696   4.897   4.486 -0.2759 -0.7973  0.5773
  877PF6-    F615158   2.727   4.718   4.355  0.2868 -0.4749 -0.2937
  877PF6-    F715159   2.669   4.760   4.661  0.7211  0.8686 -0.0801
  878PF6-    P115160   2.857   3.088   4.221 -0.3600 -0.1438 -0.1348
  878PF6-    F215161   2.853   3.188   4.090  0.0090 -0.4670 -0.0165
  878PF6-    F315162   2.856   2.994   4.353  0.1779 -0.0526  0.3225
  878PF6-    F415163   2.850   3.218   4.310 -0.3240  0.0760  0.5259
  878PF6-    F515164   2.868   2.960   4.124 -0.0464  0.2204 -0.2175
  878PF6-    F615165   3.019   3.101   4.220 -0.0203 -0.0856 -0.4215
  878PF6-    F715166   2.695   3.069   4.218 -0.1585  0.1351  0.3322
  879PF6-    P115167   2.196   5.355   3.616  0.2203  0.1471 -0.2172
  879PF6-    F215168   2.202   5.462   3.499  0.6216  0.0057 -0.3472
  879PF6-    F315169   2.189   5.254   3.735  0.2443  0.4550 -0.0499
  879PF6-    F415170   2.351   5.348   3.613  0.1885  0.0960 -0.0926
  879PF6-    F515171   2.035   5.362   3.608  0.0750  0.1021  0.8583
  879PF6-    F615172   2.188   5.236   3.507  0.4450  0.0023 -0.3802
  879PF6-    F715173   2.195   5.472   3.719  0.1521 -0.3174 -0.6430
  880PF6-    P115174   4.988   0.479   5.268  0.2140  0.0177 -0.1716
  880PF6-    F215175   5.103   0.441   5.379  0.3699  0.1258  0.6338
  880PF6-    F315176   4.873   0.521   5.168  0.2178  0.5914  0.1299
  880PF6-    F415177   4.887   0.528   5.386 -0.1570  0.0254  0.0615
  880PF6-    F515178   5.072   0.414   5.147 -0.1892  0.5120  0.0985
  880PF6-    F615179   4.927   0.329   5.290 -0.1790 -0.2993  0.0612
  880PF6-    F715180   5.049   0.626   5.246 -0.1858 -0.0396  0.1099
  881PF6-    P115181   5.443   3.084   0.567 -0.2958  0.0798  0.1937
  881PF6-    F215182   5.324   3.171   0.507  0.4690  0.1234  0.3581
  881PF6-    F315183   5.555   2.985   0.613 -0.4965  0.0010  0.5161
  881PF6-    F415184   5.552   3.160   0.479  0.1063  0.3027 -0.3745
  881PF6-    F515185   5.334   2.996   0.645 -0.3203 -0.3033 -0.6042
  881PF6-    F615186   5.430   2.992   0.436 -0.0717 -0.2505  0.3159
  881PF6-    F715187   5.469   3.178   0.693 -0.0017 -0.2146  0.2754
  882PF6-    P115188   2.675   3.033   1.057 -0.4272  0.4044  0.3821
  882PF6-    F215189   2.628   2.937   0.938 -0.4831  0.2800  0.3140
  882PF6-    F315190   2.730   3.126   1.171  0.2240 -0.2252  0.1360
  882PF6-    F415191   2.583   3.144   1.004  0.3328 -0.2973  0.1349
  882PF6-    F515192   2.771   2.915   1.111  0.3286 -0.4152  0.2364
  882PF6-    F615193   2.791   3.088   0.963 -0.3495  0.0898  0.3051
  882PF6-    F715194   2.556   2.975   1.149 -0.4514 -0.2957 -0.4255
  883PF6-    P115195   5.200   4.943   5.189 -0.0532  0.1912 -0.0260
  883PF6-    F215196   5.132   5.078   5.240 -0.2456  0.7891  0.3677
  883PF6-    F315197   5.266   4.812   5.137 -0.3253 -0.1887  0.1744
  883PF6-    F415198   5.088   4.940   5.073 -0.3488 -0.1033 -0.3150
  883PF6-    F515199   5.311   4.948   5.306  0.5780  0.5490  0.2614
  883PF6-    F615200   5.111   4.849   5.285 -0.8087 -0.7029  0.3268
  883PF6-    F715201   5.295   5.032   5.086 -0.0946 -0.0549  0.5195
  884PF6-    P115202   1.647   0.025   2.241 -0.2626 -0.3831 -0.4028
  884PF6-    F215203   1.688  -0.075   2.357 -0.0928 -0.0859 -0.0242
  884PF6-    F315204   1.611   0.121   2.121 -0.4434 -0.3049  0.1735
  884PF6-    F415205   1.798   0.027   2.191 -0.6070  0.2911 -0.0662
  884PF6-    F515206   1.491   0.036   2.287 -0.2507 -0.0464  0.5555
  884PF6-    F615207   1.679   0.150   2.338  0.0854  0.0932  0.1044
  884PF6-    F715208   1.614  -0.093   2.144  0.0581  1.0865 -0.3411
  885PF6-    P115209   3.768   5.168   4.756  0.1274  0.1805  0.0461
  885PF6-    F215210   3.795   5.192   4.914  0.2300  0.4870 -0.0970
  885PF6-    F315211   3.731   5.152   4.600  0.1447  0.2651 -0.5705
  885PF6-    F415212   3.916   5.121   4.733  0.4859 -0.2762 -0.1388
  885PF6-    F515213   3.613   5.213   4.773 -0.0548 -0.2519  0.3289
  885PF6-    F615214   3.808   5.319   4.729  0.1979 -0.0483 -0.3468
  885PF6-    F715215   3.726   5.017   4.788 -0.0138  0.0565  0.6017
  886PF6-    P115216   5.228   1.162   1.446 -0.0970 -0.4045  0.0492
  886PF6-    F215217   5.325   1.197   1.314 -0.1979  0.2248  0.1992
  886PF6-    F315218   5.129   1.129   1.568  0.1631 -0.7113 -0.3079
  886PF6-    F415219   5.210   1.014   1.393 -0.2720 -0.2322  0.0089
  886PF6-    F515220   5.246   1.312   1.506 -1.0008  0.5176  0.4547
  886PF6-    F615221   5.102   1.209   1.360 -0.6113  0.3298 -0.6631
  886PF6-    F715222   5.356   1.105   1.526 -0.3802  0.1779 -0.3656
  887PF6-    P115223   4.443   4.550   0.917  0.4472  0.1667 -0.0332
  887PF6-    F215224   4.474   4.440   0.804 -0.1958 -0.1746 -0.1785
  887PF6-    F315225   4.416   4.655   1.028  0.2602 -0.4497 -0.3697
  887PF6-    F415226   4.378   4.644   0.812  0.5519 -0.6710  0.5462
  887PF6-    F515227   4.502   4.454   1.035 -0.0130  0.0876  0.1118
  887PF6-    F615228   4.585   4.618   0.889 -0.4001 -0.1455  0.1797
  887PF6-    F715229   4.299   4.486   0.942  0.2315  0.0236  0.3776
  888PF6-    P115230   3.575   2.088   5.476 -0.3290 -0.0235  0.1130
  888PF6-    F215231   3.702   2.048   5.566 -0.0342 -0.9061  0.2841
  888PF6-    F315232   3.456   2.129   5.380  0.4889  0.3284 -0.6811
  888PF6-    F415233   3.634   2.232   5.453  0.2678  0.1053  0.8629
  888PF6-    F515234   3.516   1.936   5.495  0.0828  0.2653  0.0978
  888PF6-    F615235   3.496   2.134   5.603  0.4344 -0.2749  0.3498
  888PF6-    F715236   3.655   2.034   5.352  0.0847 -0.0126 -0.2348
  889PF6-    P115237   0.967   2.086   0.990  0.0630  0.0175 -0.6118
  889PF6-    F215238   0.846   2.106   0.892  0.0590 -0.3455  0.4156
  889PF6-    F315239   1.085   2.063   1.093 -0.0850  0.1021  0.4493
  889PF6-    F415240   0.867   2.028   1.101  0.1221 -0.0704 -0.0664
  889PF6-    F515241   1.078   2.147   0.880 -0.8287  1.1455  0.3171
  889PF6-    F615242   0.941   2.232   1.047  0.6062  0.3440  0.3849
  889PF6-    F715243   0.985   1.936   0.953  0.3035 -0.2216 -0.1604
  890PF6-    P115244   4.663   5.381   0.708 -0.5424  0.2948 -0.1483
  890PF6-    F215245   4.718   5.533   0.712 -0.0152  0.1375 -0.1892
  890PF6-    F315246   4.617   5.231   0.699 -0.0119 -0.3525 -0.5954
  890PF6-    F415247   4.813   5.343   0.750  0.6454  0.3570 -0.0184
  890PF6-    F515248   4.514   5.440   0.669  0.0942  1.0401  0.2212
  890PF6-    F615249   4.695   5.371   0.550  0.0984  0.6447 -0.2551
  890PF6-    F715250   4.622   5.382   0.867 -0.4086  0.2616 -0.0774
  891PF6-    P115251   3.125   0.244   4.299  0.3504 -0.0592 -0.3931
  891PF6-    F215252   3.021   0.116   4.301  0.0982 -0.0035  0.3102
  891PF6-    F315253   3.234   0.369   4.304 -0.2355  0.0645 -0.7272
  891PF6-    F415254   3.233   0.158   4.214 -0.0456 -0.2155  0.2283
  891PF6-    F515255   3.021   0.326   4.388 -0.2399  0.2655  0.2912
  891PF6-    F615256   3.191   0.179   4.430 -0.1372  0.6289 -0.0425
  891PF6-    F715257   3.051   0.306   4.163 -0.2820 -0.0612 -0.3907
  892PF6-    P115258   0.285   2.110   4.274  0.3216  0.1622 -0.0326
  892PF6-    F215259   0.258   2.048   4.421  0.4568 -0.2462 -0.3335
  892PF6-    F315260   0.311   2.164   4.124 -0.7330 -0.0526  0.2278
  892PF6-    F415261   0.320   1.960   4.233  0.0074 -0.3507 -0.0822
  892PF6-    F515262   0.257   2.260   4.324 -0.3699  0.3697 -0.5451
  892PF6-    F615263   0.443   2.142   4.306 -0.1840 -0.8778 -0.5225
  892PF6-    F715264   0.128   2.088   4.238  0.2126  0.3022  0.0305
  893PF6-    P115265   0.395   2.597   3.151 -0.2288 -0.3500  0.0713
  893PF6-    F215266   0.331   2.749   3.159  0.3937  0.0188 -0.1351
  893PF6-    F315267   0.465   2.450   3.144 -0.5876 -0.1021 -0.0832
  893PF6-    F415268   0.258   2.542   3.097 -0.1832 -0.3816  0.4951
  893PF6-    F515269   0.529   2.658   3.213  0.0615  0.5604  0.2529
  893PF6-    F615270   0.344   2.570   3.303 -0.1093 -0.0893 -0.3477
  893PF6-    F715271   0.447   2.629   3.001  0.2017 -0.5668  0.0455
  894PF6-    P115272   2.295   0.432   1.604 -0.1134  0.1410  0.1042
  894PF6-    F215273   2.366   0.354   1.486  0.5307  0.4237 -0.4917
  894PF6-    F315274   2.229   0.514   1.726  0.3331 -0.9946 -0.3903
  894PF6-    F415275   2.151   0.385   1.553 -0.5876  0.3768 -0.2730
  894PF6-    F515276   2.437   0.467   1.662  0.4651 -0.3572 -0.0273
  894PF6-    F615277   2.287   0.558   1.513  0.0717 -0.2909 -0.2838
  894PF6-    F715278   2.293   0.303   1.705  0.1751 -0.3521  0.7692
  895PF6-    P115279   0.766   3.250   2.451  0.2184 -0.0275  0.1812
  895PF6-    F215280   0.920   3.287   2.425 -0.4830  0.1786 -0.1753
  895PF6-    F315281   0.605   3.225   2.476  0.0807 -0.3520 -0.3254
  895PF6-    F415282   0.764   3.351   2.579  0.2949 -0.3251 -0.3303
  895PF6-    F515283   0.757   3.157   2.320  0.1127  0.0495 -0.5143
  895PF6-    F615284   0.810   3.123   2.543  0.7802  0.2404  0.0191
  895PF6-    F715285   0.727   3.378   2.357  0.2881 -0.3186 -0.1173
  896PF6-    P115286   3.782   5.216   2.940  0.3022  0.0407 -0.3622
  896PF6-    F215287   3.835   5.087   3.028  0.0844 -0.6149 -0.5731
  896PF6-    F315288   3.726   5.343   2.854  0.2768  0.1860 -0.3807
  896PF6-    F415289   3.630   5.176   2.975  0.1981  0.1712 -0.5141
  896PF6-    F515290   3.935   5.255   2.904 -0.0233 -0.1212 -0.3083
  896PF6-    F615291   3.783   5.114   2.813  0.3356 -0.5864 -0.2881
  896PF6-    F715292   3.794   5.309   3.067  0.0444 -0.2288 -0.1599
  897PF6-    P115293   4.717   5.407   2.215 -0.2396  0.2253 -0.7576
  897PF6-    F215294   4.870   5.394   2.160  0.1043 -0.4234  0.5753
  897PF6-    F315295   4.568   5.419   2.274  0.2222  0.3551  0.2902
  897PF6-    F415296   4.769   5.390   2.364 -0.4767 -0.0875 -0.0228
  897PF6-    F515297   4.669   5.427   2.062  0.1541 -0.1585 -0.5477
  897PF6-    F615298   4.691   5.249   2.201 -0.1747  0.1689 -0.0366
  897PF6-    F715299   4.735   5.568   2.241 -0.0626  0.6415 -0.2387
  898PF6-    P115300   0.875   0.597   5.301  0.1427  0.3501  0.3921
  898PF6-    F215301   0.801   0.595   5.159  0.4095 -0.2996  0.2129
  898PF6-    F315302   0.954   0.595   5.440  0.2107 -0.1291  0.2384
  898PF6-    F415303   0.752   0.667   5.371 -0.4327 -0.5547  0.0625
  898PF6-    F515304   1.003   0.528   5.232  0.2164 -0.6045  0.4378
  898PF6-    F615305   0.941   0.736   5.272  0.5442 -0.1580 -0.6413
  898PF6-    F715306   0.823   0.452   5.331 -0.0031 -0.0637  1.0635
  899PF6-    P115307   3.915   2.972   4.399  0.1313  0.4539 -0.5903
  899PF6-    F215308   3.954   2.918   4.547  0.0053 -0.3963  0.1343
  899PF6-    F315309   3.873   3.018   4.251 -0.0740 -0.3038  0.0559
  899PF6-    F415310   4.044   2.900   4.332  0.2368 -0.4062  0.1028
  899PF6-    F515311   3.789   3.050   4.462  0.3571 -0.5179 -0.3094
  899PF6-    F615312   4.006   3.107   4.423 -0.5781  0.1643 -0.1211
  899PF6-    F715313   3.823   2.845   4.377 -0.1923 -0.3785  0.4454
  900PF6-    P115314   4.128   1.585   4.625 -0.3768 -0.2636 -0.1571
  900PF6-    F215315   4.142   1.739   4.581  0.9740  0.0987  0.2730
  900PF6-    F315316   4.120   1.429   4.674 -0.2841 -0.2171  0.9463
  900PF6-    F415317   3.970   1.589   4.596 -0.3773  0.2710 -0.2651
  900PF6-    F515318   4.290   1.579   4.647 -0.2215 -0.3987 -0.5268
  900PF6-    F615319   4.105   1.626   4.773 -0.4655  0.2714  0.2386
  900PF6-    F715320   4.148   1.537   4.476 -0.4945 -0.4460  0.2567
  901PF6-    P115321   1.179   3.549   5.030 -0.3098 -0.1866  0.2253
  901PF6-    F215322   1.166   3.436   4.916 -0.4415  0.4534  0.1738
  901PF6-    F315323   1.187   3.668   5.133 -0.0049 -0.0899  0.4170
  901PF6-    F415324   1.134   3.655   4.919  0.3568 -0.1279 -1.0818
  901PF6-    F515325   1.218   3.443   5.138 -0.2039  0.1467  0.5212
  901PF6-    F615326   1.329   3.576   4.992 -0.0691 -0.3933  0.1016
  901PF6-    F715327   1.026   3.521   5.062 -0.0395  0.1536 -0.6745
  902PF6-    P115328   1.795   4.087   2.531  0.1196  0.0424  0.5574
  902PF6-    F215329   1.724   4.048   2.671  0.3769  0.1001  0.0186
  902PF6-    F315330   1.862   4.117   2.385  0.8274  0.4413  0.5613
  902PF6-    F415331   1.932   4.025   2.585  0.2106  0.0247  0.1079
  902PF6-    F515332   1.656   4.152   2.477  0.1729 -0.2767  0.0555
  902PF6-    F615333   1.841   4.229   2.587  1.0204  0.3079  0.3594
  902PF6-    F715334   1.749   3.947   2.479 -0.5400  0.0047 -0.0584
  903PF6-    P115335   2.152   2.146   0.268  0.4371 -0.1720 -0.2149
  903PF6-    F215336   2.134   2.086   0.124  0.1636  0.0515 -0.2234
  903PF6-    F315337   2.167   2.209   0.414  0.2281  0.3294 -0.1267
  903PF6-    F415338   2.077   2.016   0.330  0.2253 -0.3509 -0.1739
  903PF6-    F515339   2.229   2.282   0.213 -0.1971 -0.2109  0.1843
  903PF6-    F615340   2.012   2.222   0.244 -0.2201  0.2402  0.0405
  903PF6-    F715341   2.292   2.080   0.285 -0.3646 -0.1793  0.5716
  904PF6-    P115342   1.997   0.540   0.483 -0.0227  0.3474 -0.0562
  904PF6-    F215343   2.057   0.645   0.592  0.0791 -0.4450 -0.3844
  904PF6-    F315344   1.943   0.431   0.378 -0.5217 -0.1349 -0.4518
  904PF6-    F415345   1.962   0.655   0.382  0.3873 -0.4078 -0.0705
  904PF6-    F515346   2.037   0.418   0.582 -0.0974  0.1598 -0.1201
  904PF6-    F615347   1.858   0.550   0.557 -0.2389 -0.0075  0.0679
  904PF6-    F715348   2.147   0.528   0.409 -0.0031 -0.0207  0.0037
  905PF6-    P115349   2.614   5.016   5.486 -0.1335 -0.1259 -0.1260
  905PF6-    F215350   2.545   4.992   5.340 -0.3273  0.4634  0.2137
  905PF6-    F315351   2.671   5.023   5.632 -0.2098 -0.5565  0.0044
  905PF6-    F415352   2.492   5.119   5.515 -0.3958  0.0724 -0.0148
  905PF6-    F515353   2.736   4.916   5.437  0.7178 -0.5871 -0.2784
  905PF6-    F615354   2.700   5.138   5.435 -0.0475 -0.5500 -0.0188
  905PF6-    F715355   2.521   4.890   5.534  0.1668 -0.4205  0.1792
  906PF6-    P115356   1.175   1.812   2.840 -0.1314  0.0832 -0.2467
  906PF6-    F215357   1.053   1.783   2.736 -0.6786 -0.5717  0.5617
  906PF6-    F315358   1.305   1.833   2.934  0.0737  0.1997  0.3245
  906PF6-    F415359   1.101   1.940   2.900 -0.3542 -0.2641  0.0950
  906PF6-    F515360   1.251   1.685   2.781  0.0171  0.1594  0.0446
  906PF6-    F615361   1.247   1.909   2.728  0.3138  0.0901 -0.3316
  906PF6-    F715362   1.103   1.725   2.952  0.3697 -0.4304  0.4734
  907PF6-    P115363   4.338   1.944   3.167 -0.2085  0.2436 -0.1541
  907PF6-    F215364   4.399   1.986   3.307  0.0891 -0.2374  0.1530
  907PF6-    F315365   4.273   1.894   3.028 -0.1427  0.0222 -0.4257
  907PF6-    F415366   4.476   1.887   3.109 -0.5775  0.1637 -0.0027
  907PF6-    F515367   4.194   1.995   3.228  0.1258 -0.3083 -0.4728
  907PF6-    F615368   4.373   2.086   3.108  0.1408  0.2875  0.0832
  907PF6-    F715369   4.302   1.794   3.222 -0.2307 -0.3624 -0.0970
  908PF6-    P115370   3.977   0.340   1.062 -0.2148 -0.4029  0.2573
  908PF6-    F215371   4.062   0.206   1.021  0.3428  0.1394 -0.0041
  908PF6-    F315372   3.891   0.459   1.105 -0.5700  0.1040  0.2699
  908PF6-    F415373   4.029   0.320   1.216  0.3446  0.0864 -0.1801
  908PF6-    F515374   3.944   0.361   0.914  0.2417 -0.3657  0.2386
  908PF6-    F615375   3.848   0.254   1.082 -0.0822  0.5831 -0.0401
  908PF6-    F715376   4.106   0.429   1.040  0.4046 -0.6088 -0.3211
  909PF6-    P115377   1.072   4.548   4.214  0.2454 -0.0086  0.1612
  909PF6-    F215378   1.195   4.512   4.118  0.4937 -0.0093  0.4162
  909PF6-    F315379   0.945   4.577   4.311 -0.0769  0.2695 -0.4171
  909PF6-    F415380   1.153   4.508   4.343 -0.4486  0.2053  0.4808
  909PF6-    F515381   0.987   4.604   4.085 -0.6335 -0.1652  0.3031
  909PF6-    F615382   1.012   4.397   4.186 -0.2972 -0.5478  0.1305
  909PF6-    F715383   1.124   4.693   4.237 -0.5385  0.0274  0.2853
  910PF6-    P115384   2.749   3.440   3.017 -0.3305 -0.1243 -0.1758
  910PF6-    F215385   2.780   3.454   3.174  0.2208 -0.8279  0.3865
  910PF6-    F315386   2.718   3.439   2.860 -0.2419  0.2172 -0.4430
  910PF6-    F415387   2.883   3.525   2.989  0.3498  0.4662  0.2614
  910PF6-    F515388   2.616   3.356   3.048 -0.2887 -0.4557 -0.4760
  910PF6-    F615389   2.662   3.575   3.029  0.2016 -0.0769  0.0708
  910PF6-    F715390   2.823   3.304   3.007  0.1880 -0.2903  0.3436
  911PF6-    P115391   2.007   0.432   3.023 -0.4977  0.0150  0.3584
  911PF6-    F215392   1.997   0.327   3.146 -0.1543 -0.6397 -0.2638
  911PF6-    F315393   2.028   0.533   2.902 -0.2399 -0.1821 -0.3078
  911PF6-    F415394   2.165   0.435   3.037  0.5544 -0.1337  0.2318
  911PF6-    F515395   1.852   0.436   3.005  0.1335 -0.0039  0.1919
  911PF6-    F615396   1.999   0.556   3.122  0.2571 -0.3224  0.7475
  911PF6-    F715397   2.017   0.306   2.930 -0.1167 -0.1906  0.1650
  912PF6-    P115398   3.326   4.182   0.980 -0.2412  0.1303 -0.1473
  912PF6-    F215399   3.217   4.212   1.096 -0.1191  0.3870 -0.0378
  912PF6-    F315400   3.434   4.146   0.864 -0.0219  0.2184  0.6337
  912PF6-    F415401   3.443   4.211   1.087 -0.1463  0.0096 -0.2739
  912PF6-    F515402   3.205   4.155   0.881 -0.6438  0.1203 -0.3160
  912PF6-    F615403   3.329   4.338   0.937 -0.2167  0.0436  0.1513
  912PF6-    F715404   3.326   4.021   1.022 -0.2252  0.2930  0.7067
  913PF6-    P115405   1.818   0.879   4.208 -0.3672 -0.7651  0.0269
  913PF6-    F215406   1.942   0.874   4.106  0.2680  1.0172 -0.0534
  913PF6-    F315407   1.696   0.900   4.306 -0.4008 -0.1043  0.7812
  913PF6-    F415408   1.890   1.001   4.281 -0.0113  0.2628  0.3459
  913PF6-    F515409   1.748   0.749   4.135  0.1692 -0.1473 -0.1308
  913PF6-    F615410   1.890   0.775   4.307 -0.3567 -0.0486  0.1533
  913PF6-    F715411   1.741   0.974   4.101 -0.0871  0.0767 -0.7051
  914PF6-    P115412   2.942   1.943   4.559  0.3729  0.0964  0.2348
  914PF6-    F215413   2.820   2.009   4.643  0.7914  0.2836 -0.2342
  914PF6-    F315414   3.055   1.880   4.461  0.7173 -0.3274  0.0165
  914PF6-    F415415   2.941   2.065   4.458 -0.2067 -0.4961 -0.1396
  914PF6-    F515416   2.956   1.816   4.663  0.7997 -0.5591 -0.0878
  914PF6-    F615417   2.833   1.860   4.476  0.0979  0.0136 -0.2087
  914PF6-    F715418   3.055   2.024   4.644  0.0201 -0.2997  0.0567
  915PF6-    P115419   2.553   1.498   1.797 -0.1618 -0.1794  0.0243
  915PF6-    F215420   2.435   1.506   1.701  0.4381 -0.1415 -0.1719
  915PF6-    F315421   2.681   1.485   1.892  0.7633 -0.5898 -0.0897
  915PF6-    F415422   2.479   1.591   1.907 -0.3136  0.1816 -0.0287
  915PF6-    F515423   2.630   1.413   1.686  0.4087 -0.0072 -0.3544
  915PF6-    F615424   2.613   1.625   1.724 -0.0384 -0.0946 -0.1297
  915PF6-    F715425   2.493   1.362   1.856 -0.0507  0.1710  0.2274
  916PF6-    P115426   2.803   2.655   3.496 -0.0769 -0.3495 -0.1049
  916PF6-    F215427   2.963   2.620   3.491  0.2183  0.3399  0.2106
  916PF6-    F315428   2.651   2.697   3.511  0.2622  0.2555  0.1948
  916PF6-    F415429   2.786   2.533   3.595 -0.2098 -0.3910 -0.0028
  916PF6-    F515430   2.824   2.786   3.403 -0.2552 -0.5420  0.2448
  916PF6-    F615431   2.774   2.556   3.369  0.3777  0.0414  0.3354
  916PF6-    F715432   2.833   2.747   3.620 -0.2922 -0.6062  0.0836
  917PF6-    P115433   0.894   5.018   2.675  0.3303 -0.3863 -0.2465
  917PF6-    F215434   1.029   4.939   2.719  0.2587  0.0447 -0.1297
  917PF6-    F315435   0.765   5.096   2.623  0.0719  0.1598  0.1559
  917PF6-    F415436   0.967   5.157   2.702  0.0034 -0.0763  0.1659
  917PF6-    F515437   0.813   4.883   2.652 -0.4930 -0.5675 -0.2387
  917PF6-    F615438   0.843   5.020   2.829 -0.3472  0.0795 -0.5100
  917PF6-    F715439   0.947   5.012   2.525 -0.1501  0.0633  0.0403
  918PF6-    P115440   2.495   1.313   4.989 -0.2199 -0.0869  0.1282
  918PF6-    F215441   2.411   1.287   5.121  0.0051 -0.8237  0.1898
  918PF6-    F315442   2.573   1.332   4.853 -0.1005  0.3213 -0.0925
  918PF6-    F415443   2.547   1.449   5.055  0.3170 -0.2985  0.3245
  918PF6-    F515444   2.436   1.178   4.935 -0.0624  0.4011 -0.1285
  918PF6-    F615445   2.371   1.385   4.919 -0.2842 -0.3587 -0.1779
  918PF6-    F715446   2.620   1.238   5.059 -0.0299 -0.1194  0.8503
  919PF6-    P115447   5.452   2.313   2.066  0.2091 -0.2110 -0.0375
  919PF6-    F215448   5.388   2.456   2.067  0.1605  0.3259  0.4102
  919PF6-    F315449   5.522   2.170   2.073  0.1174  0.9537  0.5076
  919PF6-    F415450   5.551   2.367   1.958  0.4320  0.1163 -0.0451
  919PF6-    F515451   5.348   2.268   2.178 -0.4952 -0.2007  0.2186
  919PF6-    F615452   5.353   2.257   1.948  0.1149  0.1503  0.3627
  919PF6-    F715453   5.548   2.369   2.185 -0.5340  0.4198 -0.0242
  920PF6-    P115454   1.819   2.877   4.865  0.0771  0.0598 -0.3366
  920PF6-    F215455   1.787   3.035   4.855  0.4924 -0.4614 -0.1892
  920PF6-    F315456   1.850   2.722   4.875  0.5110 -0.3221 -0.1200
  920PF6-    F415457   1.704   2.837   4.765  0.3603 -0.3935  1.6904
  920PF6-    F515458   1.932   2.918   4.974 -0.2029  0.4466 -0.5434
  920PF6-    F615459   1.707   2.867   4.985  0.0083 -0.2576 -0.0339
  920PF6-    F715460   1.928   2.891   4.749  0.3237 -0.4277  0.1603
  921Na+     N115461   3.313   1.294   4.171 -0.1089 -0.1619  0.2714
  922Na+     N115462   3.993   5.353   0.450 -0.6804  0.6593  0.4965
  923Na+     N115463   1.516   4.068   4.253 -0.2590  0.7471 -0.0259
  924Na+     N115464   4.339   1.681   2.255  0.0545 -0.5717  0.1771
  925Na+     N115465   5.121   0.521   2.527  0.1635  0.1826  0.1062
  926Na+     N115466   1.219   5.278   4.618 -0.0013  0.2760  0.3066
  927Na+     N115467   0.459   4.380   3.553  0.0491  0.0858  0.3907
  928Na+     N115468   3.531   4.506   4.412 -0.3617  0.5909 -0.6449
  929Na+     N115469   1.884   4.032   0.974  0.4089 -0.1563 -0.4341
  930Na+     N115470   1.954   1.799   0.308 -0.1296 -0.1054 -0.0051
  931Na+     N115471   4.320   4.684   2.819  0.2885  0.1750  0.0201
  932Na+     N115472   3.720   4.713   5.317 -0.1144 -0.1754  0.2740
  933Na+     N115473   3.051   4.880   0.512 -0.1788 -0.0383 -0.1593
  934Na+     N115474   0.018   0.989   4.045 -0.0159  0.5239 -0.1141
  935Na+     N115475   3.346   2.732   0.798 -0.1859 -0.2441 -0.0654
  936Na+     N115476   2.091   2.575   0.929  0.4736 -0.0489 -0.0247
  937Na+     N115477   5.191   2.989   0.193 -0.1153  0.1797  0.5414
  938Na+     N115478   2.924   1.630   5.384 -0.5427  0.1551  0.4104
  939Na+     N115479   3.859   0.127   4.578  0.3663  0.5405  0.0229
  940Na+     N115480   5.501   1.101   2.059 -0.0298 -0.2905  0.0029
  941Na+     N115481   1.031   3.436   3.162 -0.1388 -0.0152 -0.2601
  942Na+     N115482   0.302   4.839   3.088 -0.1870 -0.6345  0.2894
  943Na+     N115483   4.149   0.346   3.280 -0.5445  0.2478  0.3951
  944Na+     N115484   3.164   1.459   1.546  0.0559 -0.1347 -0.2949
  945Na+     N115485   2.086   2.751   5.437 -0.9198  0.3670 -0.2936
  946Na+     N115486   2.212   0.520   4.818  0.3765 -0.1329  0.1696
  947Na+     N115487   2.576   3.536   4.779 -0.2529 -0.0124 -0.2566
  948Na+     N115488   4.538   4.107   3.444 -0.6051  0.7808 -0.5979
  949Na+     N115489   3.953   3.716   4.762 -0.3051  0.0259  0.2549
  950Na+     N115490   5.210   4.787   0.730  0.8235 -0.1892  0.6660
  951Na+     N115491   5.438   5.117   4.419  0.4114 -0.5954  0.2793
  952Na+     N115492   2.287   0.155   5.453  0.2824 -0.1735 -0.3115
  953Na+     N115493   2.315   5.224   0.721 -0.3490 -0.6053  0.5505
  954Na+     N115494   4.586   4.462   1.511 -0.1773  0.2617 -0.2645
  955Na+     N115495   5.066   1.075   0.722 -0.4381 -0.3199  0.0597
  956Na+     N115496   4.276   0.302   5.196  0.3308  0.2465 -0.2433
  957Na+     N115497   1.927   1.728   2.685  0.2767 -0.1607  0.1419
  958Na+     N115498   1.436   5.337   1.909 -0.1256  0.2328  0.1388
  959Na+     N115499   2.823   3.527   3.806 -0.7024  0.1671 -0.0929
  960Na+     N115500   3.605   2.240   3.087  0.1883 -0.5555 -0.2125
  961Na+     N115501   1.906   4.557   1.498 -0.1652  0.9089 -0.1921
  962Na+     N115502   3.805   0.601   0.804 -0.2743  0.4741 -0.2871
  963Na+     N115503   0.999   2.147   3.392 -0.5939  0.1259  0.6527
  964Na+     N115504   5.154   2.867   4.680  0.5070 -0.2333  0.1952
  965Na+     N115505   2.360   0.812   1.370 -0.0922  0.3369 -0.5484
  966Na+     N115506   4.021   0.184   2.470 -0.2252 -0.2069  0.0512
  967Na+     N115507   2.386   2.560   4.491  0.0740  0.4944 -0.0871
  968Na+     N115508   0.217   1.982   1.591  0.1700  0.1243 -0.0906
  969Na+     N115509   1.618   4.881   2.457  0.3912  0.0342  0.4397
  970Na+     N115510   4.281   1.453   0.022  0.3983 -0.2010  0.3909
  971Na+     N115511   2.192   3.986   3.200  0.1212  0.2188 -0.1940
  972Na+     N115512   4.969   3.296   3.705  0.2272  0.2816 -0.0645
  973Na+     N115513   2.064   3.327   2.140 -0.3453 -0.4542 -0.4616
  974Na+     N115514   3.065   0.240   4.987  0.0497 -0.3878 -0.1631
  975Na+     N115515   1.625   0.994   3.532  0.4092 -0.1286  0.1946
  976Na+     N115516   2.929   4.531   1.416  0.5923 -0.0808 -0.2399
  977Na+     N115517   0.362   4.852   1.589  0.3032 -0.1505 -0.1351
  978Na+     N115518   0.183   0.458   5.131 -0.8899 -0.9389  0.5151
  979Na+     N115519   2.830   3.873   2.468 -0.3233 -0.4337 -0.5492
  980Na+     N115520   4.613   3.739   2.621 -0.0659 -0.1666 -0.3293
  981Na+     N115521   4.489   2.354   5.267 -0.2946 -0.5099 -0.1128
  982Na+     N115522   5.019   0.449   1.675  0.1196  0.1218  0.6451
  983Na+     N115523   1.665   3.430   3.832 -0.0517  0.1168  0.4056
  984Na+     N115524   0.475   3.948   2.781  0.1999 -0.5431  0.3801
  985Na+     N115525   1.515   1.027   5.329  0.0728  0.1997  0.6135
  986Na+     N115526   1.967   0.717   2.718 -0.0185 -0.5223 -0.3159
  987Na+     N115527   3.799   3.094   3.386 -0.1875  0.3394 -0.3299
  988Na+     N115528   1.128   1.635   1.401 -0.5453  0.2894  0.2635
  989Na+     N115529   0.588   0.104   3.038  0.1472  0.2208 -0.2822
  990Na+     N115530   0.853   2.487   0.360  0.1822  0.0904 -0.0494
  991Na+     N115531   2.208   0.548   2.001 -0.4962  0.5924  0.3463
  992Na+     N115532   3.101   2.313   4.082  0.1851  0.4601  0.1859
  993Na+     N115533   4.845   4.251   5.230 -0.1982 -0.5920  0.4200
  994Na+     N115534   0.330   4.289   1.265 -0.6709  0.6829 -0.0649
  995Na+     N115535   2.800   3.794   1.106  0.5790  0.3635  0.3148
  996Na+     N115536   4.041   3.312   0.807 -0.0428 -0.2325 -0.4193
  997Na+     N115537   2.827   2.780   2.726 -0.0231 -0.0376  0.5009
  998Na+     N115538   3.070   2.596   5.416  0.2073  0.0507  0.0696
  999Na+     N115539   2.460   1.367   4.230  0.0659 -0.3567  0.1061
 1000Na+     N115540   5.430   2.390   0.592  0.1502  0.7343  0.6497
 1001Na+     N115541   2.535   2.880   3.607  0.0710 -0.5341 -0.3072
 1002Na+     N115542   0.241   2.962   2.439 -0.7461 -0.1795  0.1117
 1003Na+     N115543   2.843   2.934   1.804 -0.5002 -0.0465 -0.3637
 1004Na+     N115544   1.033   5.403   0.520  0.1528  0.0909 -0.3477
 1005Na+     N115545   4.681   0.156   0.496  0.1539  0.5844  0.0052
 1006Na+     N115546   2.128   5.031   4.952  0.4306 -0.0544  0.1711
 1007Na+     N115547   3.089   1.514   2.371  0.0635 -0.1010  0.2243
 1008Na+     N115548   2.254   5.057   3.950 -0.1038 -0.3070 -0.1567
 1009Na+     N115549   2.421   5.373   3.346  0.1070  0.0237 -0.0152
 1010Na+     N115550   3.817   3.610   2.436  0.1594 -0.1072  0.5347
 1011Na+     N115551   0.519   1.268   0.246 -0.2014 -0.3197  0.1077
 1012Na+     N115552   3.684   4.678   3.502 -0.7363 -0.1092 -0.0353
 1013Na+     N115553   2.056   1.897   1.632  0.6065 -0.2794  0.1357
 1014Na+     N115554   3.817   4.437   0.624 -0.3712  0.5412  0.1886
 1015Na+     N115555   0.965   4.457   2.038  0.3080 -0.4241 -0.4145
 1016Na+     N115556   4.190   1.448   4.233 -0.1603 -0.1308 -0.1612
 1017Na+     N115557   0.873   2.400   4.347 -0.3757  0.2057 -0.1023
 1018Na+     N115558   4.199   2.494   4.409  0.1635  0.1879 -0.3130
 1019Na+     N115559   1.458   4.321   3.173 -0.3429 -0.8364  0.2624
 1020Na+     N115560   4.180   0.137   1.298  0.9240  0.1416 -0.2755
   5.50134   5.50134   5.50134
