DG-THF-PF6-Na    Amber RESP
15278
    1DG      C1    1   3.263   3.694   2.128  0.6414 -0.1112  0.1743
    1DG      C2    2   3.895   4.054   1.924  0.2209 -0.6379 -0.4562
    1DG      H3    3   3.235   3.595   2.093  1.0010  0.0714 -0.6395
    1DG      H4    4   3.176   3.753   2.098  0.4969 -1.3033 -1.8988
    1DG      H5    5   3.273   3.682   2.236 -1.4077 -1.5219  0.2698
    1DG      H6    6   3.950   3.960   1.915  1.4622  0.1688 -1.6238
    1DG      H7    7   3.939   4.120   1.850  0.9515  0.5565  0.9925
    1DG      H8    8   3.915   4.101   2.020  1.8912 -0.6462 -0.7804
    1DG      O9    9   3.372   3.743   2.052 -0.1709 -0.1905  0.1272
    1DG     O10   10   3.756   4.045   1.897 -0.2479  0.1312 -0.3294
    1DG     C11   11   3.483   3.660   2.058 -0.5437 -0.0585  0.2212
    1DG     C12   12   3.734   3.966   1.786 -0.6235  0.3174 -0.7157
    1DG     H13   13   3.439   3.560   2.054 -2.2509  0.6831 -1.7263
    1DG     H14   14   3.531   3.679   2.153  0.5520  2.2057 -0.7240
    1DG     H15   15   3.810   3.973   1.707 -1.4605 -1.1556 -1.7024
    1DG     H16   16   3.642   4.011   1.747 -0.5542  1.8286  0.7608
    1DG     C17   17   3.562   3.678   1.929  0.2008  0.4241  0.3448
    1DG     C18   18   3.714   3.818   1.823  0.4682  0.4014  1.2142
    1DG     O19   19   3.620   3.810   1.927  0.5939 -0.3530 -0.1437
    1DG     H20   20   3.493   3.666   1.846 -0.5538 -0.1476  1.0399
    1DG     H21   21   3.642   3.603   1.927 -0.6298 -0.4667  0.0333
    1DG     H22   22   3.691   3.756   1.737  1.4657  0.2657  1.0375
    1DG     H23   23   3.808   3.781   1.863  0.4884  0.0014  0.8004
    2DG      C1   24   4.517   3.589   3.515  0.6238 -0.2496 -0.1739
    2DG      C2   25   4.814   3.536   2.906  0.1869  0.7158  0.6989
    2DG      H3   26   4.517   3.638   3.612  0.2314 -0.0160 -0.2899
    2DG      H4   27   4.520   3.480   3.527  2.5018 -0.1810  0.2580
    2DG      H5   28   4.426   3.622   3.466  0.7883  0.9505  0.3058
    2DG      H6   29   4.745   3.452   2.901 -0.3554  1.1845  0.2353
    2DG      H7   30   4.765   3.619   2.856 -1.6210  0.3428  1.7494
    2DG      H8   31   4.909   3.512   2.859  0.3006 -0.3100  1.4180
    2DG      O9   32   4.624   3.637   3.435 -0.5912  0.2722  0.4606
    2DG     O10   33   4.822   3.578   3.043 -0.3844 -0.2251 -0.6781
    2DG     C11   34   4.756   3.618   3.487 -0.4509  0.5028 -0.3392
    2DG     C12   35   4.945   3.650   3.075  0.5180 -0.6963 -0.1192
    2DG     H13   36   4.764   3.527   3.547  0.6678  1.4865  1.0706
    2DG     H14   37   4.784   3.693   3.560 -1.9532  0.8937 -0.1294
    2DG     H15   38   4.996   3.689   2.987 -2.7431 -0.7209 -2.1785
    2DG     H16   39   5.012   3.573   3.115 -2.2414 -2.7020  1.0095
    2DG     C17   40   4.859   3.620   3.375 -0.3233 -0.3977 -1.2821
    2DG     C18   41   4.911   3.760   3.181  0.3883 -0.6101 -0.1864
    2DG     O19   42   4.819   3.714   3.278  0.0637  0.5453  0.6613
    2DG     H20   43   4.876   3.520   3.336  2.7363 -1.3005  1.8825
    2DG     H21   44   4.958   3.638   3.416 -0.6545 -2.7174  0.7667
    2DG     H22   45   5.003   3.803   3.221  0.2865 -1.8945  1.5182
    2DG     H23   46   4.859   3.845   3.137 -0.6369  0.2806  2.5835
    3DG      C1   47   1.931   0.565   2.011  0.1481  0.3847 -0.9919
    3DG      C2   48   2.142  -0.034   1.896 -0.1923  0.1221  0.1889
    3DG      H3   49   2.023   0.612   2.046  0.2872 -0.6594  0.1056
    3DG      H4   50   1.849   0.625   2.052  1.0613  0.8579  0.2121
    3DG      H5   51   1.932   0.573   1.903 -0.3217 -0.0828 -1.0313
    3DG      H6   52   2.112  -0.131   1.857 -0.1679  0.1654  0.0605
    3DG      H7   53   2.218   0.003   1.827 -2.3996  2.0142 -1.3564
    3DG      H8   54   2.190  -0.064   1.990 -0.8776  0.0015  0.5053
    3DG      O9   55   1.935   0.428   2.048 -0.3134 -0.1516  0.2769
    3DG     O10   56   2.019   0.039   1.910 -0.2076 -0.1350  0.1778
    3DG     C11   57   1.911   0.410   2.191  0.1237  0.5639  0.1358
    3DG     C12   58   1.930  -0.026   1.997  1.3803 -0.0217 -0.0136
    3DG     H13   59   1.812   0.450   2.214 -0.3304  1.1835 -2.5814
    3DG     H14   60   1.987   0.450   2.258  1.2258  1.7467 -1.7313
    3DG     H15   61   1.944  -0.133   2.011  0.4212  0.0070  1.4731
    3DG     H16   62   1.835  -0.001   1.950  2.9022  0.5450 -3.0453
    3DG     C17   63   1.905   0.254   2.228  0.8083 -0.3201  0.1784
    3DG     C18   64   1.932   0.049   2.125 -0.2690  0.7483 -0.1955
    3DG     O19   65   1.913   0.189   2.105 -0.0451 -0.0741  0.0983
    3DG     H20   66   1.810   0.221   2.272  1.1055 -0.6940  0.5408
    3DG     H21   67   1.985   0.222   2.294  0.4277 -1.5915  0.0482
    3DG     H22   68   1.854   0.008   2.190 -2.6148  4.1171 -0.6751
    3DG     H23   69   2.022   0.032   2.185 -1.2211 -0.8861  0.8552
    4DG      C1   70   3.347   1.959   2.337  0.2845  0.6991 -0.0063
    4DG      C2   71   2.937   1.592   1.732 -0.8374 -0.3568 -0.2370
    4DG      H3   72   3.456   1.961   2.342  0.3080  0.7948 -0.4684
    4DG      H4   73   3.314   1.872   2.394 -1.1197 -0.2575 -2.1371
    4DG      H5   74   3.308   2.045   2.390 -1.6137 -0.4611  0.5885
    4DG      H6   75   2.984   1.572   1.635 -2.1719  1.2731 -1.2812
    4DG      H7   76   2.875   1.507   1.761 -0.3602 -0.9141 -0.8099
    4DG      H8   77   2.863   1.669   1.709  0.2737  0.0553 -2.8191
    4DG      O9   78   3.299   1.962   2.202 -0.1192 -0.4968  0.3280
    4DG     O10   79   3.026   1.639   1.829 -0.0728  0.6694  1.2476
    4DG     C11   80   3.162   1.954   2.179  0.3723 -0.7427  0.6855
    4DG     C12   81   3.086   1.760   1.785  0.0188 -0.7404  0.5598
    4DG     H13   82   3.128   2.052   2.211 -0.2437 -0.1735 -1.5427
    4DG     H14   83   3.115   1.874   2.237  1.8037 -1.7526  0.5228
    4DG     H15   84   3.023   1.847   1.802 -0.8966 -1.5097  1.2219
    4DG     H16   85   3.112   1.758   1.680  0.7419 -2.7390  0.7460
    4DG     C17   86   3.144   1.931   2.032  0.1901  0.1555 -0.1527
    4DG     C18   87   3.214   1.772   1.860 -0.0789  0.0524  0.9080
    4DG     O19   88   3.193   1.801   1.996  0.6700 -0.1067 -0.1246
    4DG     H20   89   3.185   2.008   1.966 -0.8851  0.6482 -0.2574
    4DG     H21   90   3.036   1.943   2.023  0.4697  3.2968 -0.7308
    4DG     H22   91   3.269   1.679   1.847 -0.9844 -0.4034  0.2602
    4DG     H23   92   3.280   1.846   1.815 -1.4457  0.5780 -0.2894
    5DG      C1   93   3.396   3.466   2.968 -0.1125 -0.2767  0.4474
    5DG      C2   94   3.829   3.229   2.512  0.6161 -0.6412 -0.0964
    5DG      H3   95   3.350   3.521   2.886 -0.1539  1.1677  1.4054
    5DG      H4   96   3.482   3.514   3.016 -0.4256 -1.5849  2.4307
    5DG      H5   97   3.318   3.456   3.043 -0.3458  2.3178  0.6662
    5DG      H6   98   3.862   3.160   2.435 -3.0457  0.1779 -2.6590
    5DG      H7   99   3.754   3.285   2.457  0.6318 -1.6255 -1.1612
    5DG      H8  100   3.907   3.299   2.544  0.2171  0.0238 -0.5487
    5DG      O9  101   3.455   3.349   2.927  0.2971 -0.7395  1.2959
    5DG     O10  102   3.777   3.163   2.626 -0.2918 -0.4034 -1.2915
    5DG     C11  103   3.369   3.239   2.917 -0.4521  0.0863  0.5099
    5DG     C12  104   3.674   3.068   2.587  0.0763 -0.1222  0.8097
    5DG     H13  105   3.304   3.256   2.831  1.8617  1.1757 -1.1333
    5DG     H14  106   3.314   3.223   3.009 -1.7921  0.0567 -0.2715
    5DG     H15  107   3.727   2.988   2.536 -0.7429 -0.8540  1.0800
    5DG     H16  108   3.595   3.109   2.523  0.0892 -0.1481  0.7775
    5DG     C17  109   3.448   3.110   2.873  0.4549  0.1105 -0.5050
    5DG     C18  110   3.599   3.019   2.711  0.3182  0.4609  0.5828
    5DG     O19  111   3.531   3.127   2.761  0.4083 -0.3049  0.0455
    5DG     H20  112   3.370   3.038   2.849  2.4724 -1.5711 -2.3855
    5DG     H21  113   3.504   3.085   2.963 -0.6942 -0.7449 -0.0097
    5DG     H22  114   3.534   2.931   2.704 -1.5590  1.6273  2.3213
    5DG     H23  115   3.678   2.981   2.775  0.8049 -2.1174 -1.3808
    6DG      C1  116   1.559   1.550   3.297  0.4577  0.1480 -0.1989
    6DG      C2  117   2.256   1.402   3.193 -0.4577  0.3436 -0.1210
    6DG      H3  118   1.602   1.580   3.392  1.6106  0.2658 -0.7408
    6DG      H4  119   1.457   1.511   3.309  0.6548 -0.9022 -1.6363
    6DG      H5  120   1.557   1.637   3.231  0.9137 -1.5438 -2.5751
    6DG      H6  121   2.298   1.494   3.234  0.4939  0.0934 -0.4967
    6DG      H7  122   2.327   1.331   3.236 -3.0149 -0.6290  2.8293
    6DG      H8  123   2.253   1.419   3.085 -1.4743 -1.3195 -0.3939
    6DG      O9  124   1.646   1.455   3.250  0.0224 -0.5121  0.3991
    6DG     O10  125   2.127   1.366   3.244  0.1998  0.2360  0.3399
    6DG     C11  126   1.657   1.349   3.339  0.0462  0.1593 -0.4415
    6DG     C12  127   2.097   1.231   3.194 -0.1662  0.4286 -0.8506
    6DG     H13  128   1.557   1.312   3.359 -0.7620  1.9505 -1.0043
    6DG     H14  129   1.709   1.393   3.424  1.3691  4.7107 -3.2398
    6DG     H15  130   2.175   1.157   3.213  0.2785  0.1447 -3.3899
    6DG     H16  131   2.101   1.226   3.085 -3.4657  3.3492 -1.2791
    6DG     C17  132   1.741   1.239   3.295 -0.1883 -0.2128 -0.3624
    6DG     C18  133   1.965   1.177   3.248 -0.6330 -0.2045 -0.5490
    6DG     O19  134   1.868   1.284   3.266  0.3476  0.3598  0.9186
    6DG     H20  135   1.694   1.182   3.215  0.1632 -3.2923  1.4561
    6DG     H21  136   1.745   1.174   3.382 -2.6087 -0.4297 -0.3330
    6DG     H22  137   1.933   1.106   3.171  0.5395 -0.0790 -1.1798
    6DG     H23  138   1.974   1.118   3.339  0.8761  0.6125 -0.1457
    7DG      C1  139   4.467   3.491   3.047  0.3697 -0.3367 -1.1032
    7DG      C2  140   4.593   3.988   3.451  0.3946  0.8008  1.0165
    7DG      H3  141   4.427   3.406   3.101  1.3835  0.3455  0.8218
    7DG      H4  142   4.574   3.479   3.057  0.3643  0.6176  0.3836
    7DG      H5  143   4.460   3.495   2.938  1.5205  1.5872 -1.1486
    7DG      H6  144   4.579   4.065   3.527  0.5995  1.3633  0.4918
    7DG      H7  145   4.582   3.900   3.515 -2.0173  0.0579 -0.2853
    7DG      H8  146   4.683   3.997   3.391 -2.2450  0.4007 -3.4320
    7DG      O9  147   4.425   3.608   3.124  0.0395 -0.4808 -0.0268
    7DG     O10  148   4.499   3.996   3.341  0.6713 -0.4434  0.3371
    7DG     C11  149   4.286   3.618   3.103  0.1353  0.5347 -0.6765
    7DG     C12  150   4.372   3.981   3.393  0.1421  0.1906  0.6709
    7DG     H13  151   4.226   3.562   3.174 -0.8509 -0.0570 -1.9272
    7DG     H14  152   4.243   3.580   3.010  0.5116  0.2792 -0.7482
    7DG     H15  153   4.349   4.077   3.439  1.3812  1.5300 -1.3079
    7DG     H16  154   4.362   3.896   3.461 -1.0017 -0.8094 -0.6799
    7DG     C17  155   4.243   3.763   3.124 -0.2074  1.1645  0.2826
    7DG     C18  156   4.289   3.950   3.268 -0.1243  0.3973 -0.1867
    7DG     O19  157   4.322   3.815   3.228  0.0739 -0.5842 -0.2018
    7DG     H20  158   4.135   3.767   3.132 -0.4048 -1.4002 -0.3202
    7DG     H21  159   4.271   3.826   3.040  0.4839 -1.2170 -1.3645
    7DG     H22  160   4.183   3.949   3.293 -0.9725 -1.2939 -3.2286
    7DG     H23  161   4.301   4.025   3.189  0.4802 -0.8792 -1.3534
    8DG      C1  162   5.037   0.560   0.478  0.2141  0.1842 -0.8383
    8DG      C2  163   4.785   0.107   0.905 -0.1928 -0.2515 -0.1431
    8DG      H3  164   5.123   0.626   0.488  1.5100 -1.7430  2.1054
    8DG      H4  165   4.958   0.610   0.422  0.1582  1.0040 -0.0412
    8DG      H5  166   5.060   0.472   0.417 -1.6744  0.9574 -2.8153
    8DG      H6  167   4.834   0.040   0.834 -0.0555 -3.3504  2.6253
    8DG      H7  168   4.799   0.059   1.002 -3.3462 -0.9856  0.0502
    8DG      H8  169   4.680   0.102   0.878  0.1329  1.5414 -2.0169
    8DG      O9  170   4.994   0.538   0.609 -0.0782 -0.0982 -0.7851
    8DG     O10  171   4.839   0.238   0.896  0.4046 -0.0156 -0.0015
    8DG     C11  172   4.946   0.660   0.666 -0.1742 -0.4399 -0.9751
    8DG     C12  173   4.769   0.330   0.975  0.1835 -0.2768 -0.3507
    8DG     H13  174   4.856   0.695   0.615  1.6348  2.2923 -2.5133
    8DG     H14  175   5.017   0.741   0.652  1.3205 -1.2621  1.3200
    8DG     H15  176   4.767   0.297   1.079 -0.8063 -0.1365 -0.3146
    8DG     H16  177   4.668   0.340   0.934  0.4199  1.4824 -0.5762
    8DG     C17  178   4.932   0.632   0.820  0.5631 -0.2795 -0.0864
    8DG     C18  179   4.832   0.470   0.978  0.1374  0.4297  0.0952
    8DG     O19  180   4.857   0.508   0.847  0.1362 -0.2135  0.6963
    8DG     H20  181   4.885   0.715   0.871  2.9867  0.5388  0.9860
    8DG     H21  182   5.029   0.624   0.870  0.1214 -2.0106  0.5646
    8DG     H22  183   4.761   0.538   1.024  0.6674  0.1041  1.4459
    8DG     H23  184   4.925   0.471   1.035 -0.4813  2.4642  1.1940
    9DG      C1  185   2.422   1.783   2.531 -0.0303 -0.2824 -0.1707
    9DG      C2  186   2.013   2.274   2.548  0.2847 -0.1448  0.0042
    9DG      H3  187   2.470   1.826   2.443  0.6697 -0.4749  0.1041
    9DG      H4  188   2.324   1.744   2.504 -0.0583 -0.3887  0.0777
    9DG      H5  189   2.476   1.693   2.561 -2.3169 -1.4463  0.6854
    9DG      H6  190   1.919   2.308   2.591  1.3432  1.8260  0.9216
    9DG      H7  191   2.079   2.360   2.552  0.1849 -0.0853  0.4706
    9DG      H8  192   2.005   2.241   2.445  2.2174  0.8964 -0.5209
    9DG      O9  193   2.422   1.882   2.635 -0.8098  0.4799  0.1503
    9DG     O10  194   2.051   2.156   2.631 -0.1810 -0.2500 -0.2072
    9DG     C11  195   2.392   1.823   2.766 -0.1825  0.1943  0.7007
    9DG     C12  196   1.982   2.033   2.595  0.0602 -0.0257  0.1440
    9DG     H13  197   2.438   1.886   2.841 -0.2388 -0.1898  1.0627
    9DG     H14  198   2.437   1.725   2.782  0.1941  0.1632 -0.4832
    9DG     H15  199   2.011   2.004   2.494 -0.3697  0.7936 -0.2262
    9DG     H16  200   1.873   2.034   2.589 -0.1847 -0.5341  3.2206
    9DG     C17  201   2.238   1.816   2.774  0.1531  0.1377 -1.0975
    9DG     C18  202   2.036   1.923   2.690  0.1305  0.2054 -0.2539
    9DG     O19  203   2.176   1.927   2.711 -0.6200 -0.3007 -0.4581
    9DG     H20  204   2.207   1.788   2.875 -0.1691 -0.5272 -1.3727
    9DG     H21  205   2.206   1.726   2.721  0.9663 -1.6918  1.3782
    9DG     H22  206   1.974   1.943   2.777  0.5120 -2.8202  0.8070
    9DG     H23  207   2.003   1.832   2.639  0.6985  0.1297 -0.4951
   10DG      C1  208   1.287   2.947   0.951 -0.5492  0.1433 -0.2659
   10DG      C2  209   1.615   3.582   0.894 -0.2718 -0.2013 -0.4408
   10DG      H3  210   1.347   2.909   0.868 -0.5194  0.5402 -0.4318
   10DG      H4  211   1.199   2.989   0.903 -1.3268 -2.5298 -1.3458
   10DG      H5  212   1.254   2.855   0.998  0.7631 -0.5032 -0.5746
   10DG      H6  213   1.510   3.589   0.865 -0.4445 -0.4968  0.0943
   10DG      H7  214   1.647   3.675   0.940  1.6547 -1.1059  0.1461
   10DG      H8  215   1.674   3.577   0.803  0.8437  1.1719  0.1777
   10DG      O9  216   1.378   3.037   1.021 -0.5543 -0.3957  0.1546
   10DG     O10  217   1.615   3.470   0.986  0.0625 -0.3190  0.3093
   10DG     C11  218   1.329   3.096   1.139 -0.3981  1.0017 -0.3172
   10DG     C12  219   1.591   3.495   1.121 -0.4752 -0.9051 -0.0019
   10DG     H13  220   1.297   3.014   1.203  1.3353  1.3085  0.9868
   10DG     H14  221   1.242   3.157   1.114 -1.7787 -0.5588  0.5457
   10DG     H15  222   1.510   3.563   1.145  1.6401  1.3836  1.1512
   10DG     H16  223   1.682   3.542   1.160  0.2111 -1.8973 -0.3781
   10DG     C17  224   1.441   3.171   1.214  0.4496 -0.8981 -0.0936
   10DG     C18  225   1.576   3.371   1.206  0.8156 -0.3084  0.3079
   10DG     O19  226   1.477   3.290   1.143 -0.2663 -0.1078 -0.4241
   10DG     H20  227   1.526   3.107   1.240  1.7084  0.5277 -0.5258
   10DG     H21  228   1.406   3.218   1.306 -2.3088  0.7678 -1.8557
   10DG     H22  229   1.673   3.323   1.218  1.7935  2.0244  2.4647
   10DG     H23  230   1.545   3.401   1.305 -1.3961 -2.3770  0.3439
   11DG      C1  231   0.581   2.064   1.055  0.7574  0.1114 -0.3895
   11DG      C2  232   0.715   1.835   1.732 -0.0844 -0.6105 -0.0224
   11DG      H3  233   0.518   1.975   1.054  1.3263 -0.3344  0.8241
   11DG      H4  234   0.673   2.047   0.999  1.4186  1.5574  0.2148
   11DG      H5  235   0.525   2.149   1.015 -0.0424  1.2613  2.8548
   11DG      H6  236   0.674   1.738   1.703 -0.5703 -0.3315 -0.2886
   11DG      H7  237   0.813   1.823   1.777 -0.6153 -1.9669  0.8258
   11DG      H8  238   0.646   1.865   1.810 -0.8140 -0.5833 -0.6662
   11DG      O9  239   0.613   2.093   1.198  0.1841  0.4692  0.4355
   11DG     O10  240   0.714   1.938   1.629 -0.2314  0.2966 -0.0895
   11DG     C11  241   0.686   2.214   1.217 -0.4431 -0.4423  0.8036
   11DG     C12  242   0.736   2.073   1.672  0.5709 -0.0534  0.0747
   11DG     H13  243   0.615   2.293   1.240 -0.1964 -0.4886  1.7578
   11DG     H14  244   0.740   2.246   1.128 -0.6648 -0.5881  0.6155
   11DG     H15  245   0.809   2.064   1.753  1.4057 -0.4047 -0.6926
   11DG     H16  246   0.646   2.111   1.720 -0.2450 -0.7148 -0.8978
   11DG     C17  247   0.778   2.216   1.338 -0.2224 -0.6815  0.3326
   11DG     C18  248   0.790   2.162   1.566 -0.3649 -0.3471 -0.7551
   11DG     O19  249   0.708   2.150   1.445  0.1765  0.0761 -0.0640
   11DG     H20  250   0.797   2.320   1.362 -2.4725 -0.3800  1.0709
   11DG     H21  251   0.867   2.155   1.322  0.2083  0.4182 -1.6846
   11DG     H22  252   0.800   2.266   1.598 -1.1118 -0.8563  1.2543
   11DG     H23  253   0.883   2.108   1.545 -1.7395 -3.8059  1.1965
   12DG      C1  254   5.299   0.676   0.217  0.0790  0.0813  0.3600
   12DG      C2  255   5.671   0.124   0.026 -0.4452  1.1649  0.5698
   12DG      H3  256   5.292   0.655   0.110  1.0925  0.7866  0.1350
   12DG      H4  257   5.384   0.745   0.218 -0.7025  1.1065 -0.7339
   12DG      H5  258   5.212   0.732   0.253 -0.7779 -1.5862  0.9935
   12DG      H6  259   5.771   0.080   0.031 -0.8640  0.0295 -0.4996
   12DG      H7  260   5.606   0.048  -0.018 -1.9685  0.4205  3.7830
   12DG      H8  261   5.680   0.205  -0.046  0.6832  0.0736 -0.5742
   12DG      O9  262   5.315   0.550   0.278  0.5422 -0.0090  0.4855
   12DG     O10  263   5.633   0.159   0.157 -0.0394 -0.1473  0.0790
   12DG     C11  264   5.406   0.543   0.389 -0.1509  0.6934  0.3507
   12DG     C12  265   5.713   0.258   0.214  0.4472  0.4568  0.3376
   12DG     H13  266   5.348   0.581   0.473 -0.0627 -1.4910  1.4618
   12DG     H14  267   5.494   0.601   0.361  0.3390 -0.6810 -1.1207
   12DG     H15  268   5.726   0.343   0.147  0.6835 -0.0425 -0.2659
   12DG     H16  269   5.810   0.215   0.239  0.2576 -0.3941 -0.3067
   12DG     C17  270   5.448   0.402   0.424  0.0102 -0.2994 -1.0965
   12DG     C18  271   5.641   0.314   0.328 -0.4868  0.0802  0.0092
   12DG     O19  272   5.506   0.332   0.315 -0.2872  0.0193 -0.5408
   12DG     H20  273   5.361   0.344   0.454 -1.5479  1.9788 -0.8922
   12DG     H21  274   5.512   0.401   0.512 -0.4319  4.6038 -0.4372
   12DG     H22  275   5.658   0.241   0.408  0.3211  1.0409  0.7442
   12DG     H23  276   5.695   0.402   0.362  0.7633  0.5032 -2.8221
   13DG      C1  277   0.582   2.590   1.281 -0.9022 -0.5230  0.1638
   13DG      C2  278   0.343   2.854   1.856 -0.0901  0.1366  1.1842
   13DG      H3  279   0.566   2.525   1.194  1.2220  0.6234 -1.1677
   13DG      H4  280   0.653   2.544   1.350  1.6542  1.5329 -0.8994
   13DG      H5  281   0.637   2.674   1.238  0.8809 -0.9683  1.4652
   13DG      H6  282   0.265   2.900   1.917 -0.7431 -0.0709  0.5241
   13DG      H7  283   0.346   2.758   1.908  0.6826 -0.6421 -0.2244
   13DG      H8  284   0.440   2.899   1.873  0.2462 -0.6488  1.4103
   13DG      O9  285   0.464   2.635   1.349 -0.1046  0.4601 -0.3476
   13DG     O10  286   0.303   2.831   1.721 -0.0204  0.1249 -0.0444
   13DG     C11  287   0.387   2.720   1.266 -0.5474 -0.0557 -0.3048
   13DG     C12  288   0.162   2.812   1.690 -0.2257 -1.1832 -0.4675
   13DG     H13  289   0.365   2.660   1.178  0.4219  0.4365 -0.9034
   13DG     H14  290   0.447   2.807   1.240 -0.0819 -0.2038  0.2622
   13DG     H15  291   0.114   2.900   1.733  2.0328 -0.0911 -0.0076
   13DG     H16  292   0.107   2.728   1.733 -0.4053 -1.3943 -1.1070
   13DG     C17  293   0.250   2.752   1.329  0.0212  0.4249  0.0162
   13DG     C18  294   0.144   2.834   1.532 -0.8991  0.2952  0.5592
   13DG     O19  295   0.270   2.798   1.462  0.5668  0.6462  0.8177
   13DG     H20  296   0.196   2.657   1.333 -0.8473  0.9610  1.9771
   13DG     H21  297   0.203   2.826   1.265  0.0344 -0.0889 -0.6077
   13DG     H22  298   0.069   2.766   1.493 -0.1639 -0.6633  0.7983
   13DG     H23  299   0.117   2.938   1.509  0.7769  0.5165 -0.5821
   14DG      C1  300   0.871   4.609   1.803 -1.4912  0.3421 -0.1868
   14DG      C2  301   1.494   4.590   1.911  0.4341 -0.7448  0.4925
   14DG      H3  302   0.770   4.631   1.767 -1.7844 -0.8352 -0.1328
   14DG      H4  303   0.866   4.581   1.908 -1.8097 -0.7242 -0.4724
   14DG      H5  304   0.908   4.521   1.750  0.8319  1.1463  0.0106
   14DG      H6  305   1.518   4.565   1.807  2.9848  0.8541  0.6138
   14DG      H7  306   1.584   4.622   1.964  0.5069  1.1871 -0.6711
   14DG      H8  307   1.450   4.495   1.942  0.7853 -0.6269  1.3605
   14DG      O9  308   0.956   4.726   1.792  0.1372  0.4007  0.1536
   14DG     O10  309   1.394   4.692   1.888  0.3871 -0.1051  0.2231
   14DG     C11  310   0.919   4.844   1.862 -0.0666  0.2242 -0.0242
   14DG     C12  311   1.369   4.782   1.998 -0.4602 -0.2540  0.0962
   14DG     H13  312   0.872   4.808   1.954  0.6177  0.7875  0.5517
   14DG     H14  313   0.848   4.901   1.802 -0.2179 -0.0555 -0.1171
   14DG     H15  314   1.455   4.832   2.042 -0.0339 -1.6353  0.9235
   14DG     H16  315   1.334   4.714   2.077 -0.4955 -0.8569 -0.4301
   14DG     C17  316   1.044   4.925   1.894 -0.4473 -0.3134  1.0255
   14DG     C18  317   1.274   4.894   1.971 -0.0917  0.4060  0.0632
   14DG     O19  318   1.146   4.842   1.948 -0.5179  0.3148 -0.3817
   14DG     H20  319   1.013   4.993   1.973  0.8770  1.3463  0.1825
   14DG     H21  320   1.082   4.973   1.803  1.3883  0.0186  1.9271
   14DG     H22  321   1.259   4.953   2.061  1.1872  0.9675 -0.0651
   14DG     H23  322   1.314   4.958   1.892  2.7910 -0.4051  0.7121
   15DG      C1  323   1.174   4.460   2.092 -0.8073  0.0634  0.1746
   15DG      C2  324   1.377   4.808   1.553 -0.4346 -0.1929 -0.4840
   15DG      H3  325   1.132   4.379   2.152 -1.1867 -0.3079 -0.5883
   15DG      H4  326   1.127   4.551   2.129  0.2134  0.8367 -0.3672
   15DG      H5  327   1.280   4.470   2.119 -0.0462 -0.3425 -2.3636
   15DG      H6  328   1.387   4.823   1.445 -1.1695  1.4714 -0.3505
   15DG      H7  329   1.334   4.898   1.597  0.7294 -1.2273  3.0546
   15DG      H8  330   1.480   4.799   1.588  0.4086  4.5451 -1.0806
   15DG      O9  331   1.158   4.450   1.954  0.3008 -0.1209  0.3453
   15DG     O10  332   1.304   4.695   1.598 -0.0951  0.3635  0.3480
   15DG     C11  333   1.187   4.324   1.904 -0.0498 -0.9978 -0.2448
   15DG     C12  334   1.325   4.583   1.510 -0.3780 -0.0126 -0.0752
   15DG     H13  335   1.123   4.245   1.943 -0.8715 -0.9090 -1.3832
   15DG     H14  336   1.283   4.288   1.939  0.6473  1.0801  0.1212
   15DG     H15  337   1.430   4.553   1.512  0.3350  2.2992  1.5431
   15DG     H16  338   1.294   4.604   1.408 -0.6365 -1.8800 -0.4164
   15DG     C17  339   1.180   4.347   1.749 -0.2247 -0.9208 -0.1051
   15DG     C18  340   1.240   4.466   1.560 -0.2909 -0.0841 -0.2657
   15DG     O19  341   1.268   4.447   1.702  0.2458  1.1258 -0.6677
   15DG     H20  342   1.077   4.365   1.719 -0.6054 -1.9942  0.5163
   15DG     H21  343   1.215   4.258   1.696 -0.0666 -0.8046 -0.1994
   15DG     H22  344   1.136   4.492   1.540  0.1669  2.4960  0.2622
   15DG     H23  345   1.269   4.382   1.497  2.4730  0.3362  0.3190
   16DG      C1  346   4.076   5.288   3.866 -0.1331  0.1899 -0.6894
   16DG      C2  347   4.406   5.903   3.825  0.6922  0.3060 -0.3257
   16DG      H3  348   4.137   5.280   3.776  1.3457 -2.1648  0.4047
   16DG      H4  349   3.973   5.295   3.831 -0.8243  1.8917  1.4446
   16DG      H5  350   4.084   5.194   3.922  2.9320  1.1308  0.6482
   16DG      H6  351   4.425   5.994   3.880 -0.4843  0.4300 -0.0973
   16DG      H7  352   4.503   5.881   3.778 -0.0490  1.1905 -2.4004
   16DG      H8  353   4.333   5.915   3.745 -1.5353 -0.9652  1.4081
   16DG      O9  354   4.130   5.395   3.957  0.1757 -0.3408 -0.4201
   16DG     O10  355   4.356   5.800   3.912  0.3878  0.4015  0.0135
   16DG     C11  356   4.034   5.441   4.051 -0.4269 -0.4880 -0.0695
   16DG     C12  357   4.284   5.854   4.028  0.2051  0.1031 -0.6269
   16DG     H13  358   4.012   5.359   4.120  0.6930 -0.6388  0.1322
   16DG     H14  359   3.946   5.475   3.996  0.4784  5.0517  1.2298
   16DG     H15  360   4.202   5.912   3.986  0.8346  1.3383 -0.2053
   16DG     H16  361   4.349   5.919   4.087  1.0226  0.2603 -1.6561
   16DG     C17  362   4.086   5.557   4.137  0.4473  0.2978 -0.0723
   16DG     C18  363   4.226   5.749   4.116 -0.2440  0.3882 -0.5633
   16DG     O19  364   4.153   5.647   4.046 -0.3677  0.0251 -0.3446
   16DG     H20  365   4.157   5.505   4.200  0.9902 -1.6123 -2.1293
   16DG     H21  366   4.009   5.612   4.191  0.8123  0.7462 -0.0042
   16DG     H22  367   4.306   5.700   4.172 -1.0701 -0.2415  0.0904
   16DG     H23  368   4.168   5.779   4.203  0.6023 -2.1489  0.9892
   17DG      C1  369   5.410   3.172   4.060  0.0200  0.1697 -0.3217
   17DG      C2  370   5.519   3.682   4.428 -0.1946 -0.0688 -0.4224
   17DG      H3  371   5.360   3.099   3.997  0.6077 -2.4619  2.0653
   17DG      H4  372   5.348   3.191   4.148 -0.3183 -1.0162 -0.2909
   17DG      H5  373   5.503   3.130   4.097  0.4265  0.1107 -1.3926
   17DG      H6  374   5.585   3.618   4.486 -0.5644  0.7194  0.8990
   17DG      H7  375   5.592   3.739   4.371 -0.0571 -2.8414 -3.3110
   17DG      H8  376   5.459   3.729   4.506 -0.0069 -2.0807  1.0132
   17DG      O9  377   5.437   3.286   3.990 -0.5360  0.3240 -0.0645
   17DG     O10  378   5.439   3.610   4.337 -0.4077  0.2044  0.5224
   17DG     C11  379   5.324   3.347   3.934 -0.3821 -0.7194  0.2863
   17DG     C12  380   5.335   3.686   4.270  0.0604  0.1156  0.0417
   17DG     H13  381   5.269   3.268   3.883 -1.4272 -0.4160  0.8986
   17DG     H14  382   5.338   3.427   3.861  2.2984 -0.3212  1.1498
   17DG     H15  383   5.373   3.761   4.201  0.2806 -1.1184 -1.2369
   17DG     H16  384   5.289   3.751   4.344  1.3585  1.7567 -0.5238
   17DG     C17  385   5.235   3.413   4.042  0.1230 -0.2983 -0.2925
   17DG     C18  386   5.239   3.598   4.193 -0.2511  0.1091 -0.7232
   17DG     O19  387   5.316   3.500   4.121 -0.3660 -0.3711 -0.2851
   17DG     H20  388   5.193   3.347   4.118  0.7223 -1.1307 -0.6571
   17DG     H21  389   5.157   3.468   3.991  1.6749  1.7980 -0.5458
   17DG     H22  390   5.162   3.545   4.248  1.3049 -0.7049  0.7689
   17DG     H23  391   5.190   3.667   4.125  1.2218  1.0009 -0.9184
   18DG      C1  392   3.397   0.037   0.221  0.0472  0.2416  0.1627
   18DG      C2  393   2.799   0.177  -0.074  0.2723  0.4823  0.0158
   18DG      H3  394   3.502   0.008   0.212  0.7720  2.5348  0.5902
   18DG      H4  395   3.334  -0.050   0.243  0.4833 -0.0145  0.4073
   18DG      H5  396   3.381   0.105   0.304 -0.8496 -0.3939  0.5181
   18DG      H6  397   2.739   0.239  -0.141  0.8032 -0.4188 -1.3473
   18DG      H7  398   2.765   0.074  -0.076  0.1775  0.5193 -0.3339
   18DG      H8  399   2.772   0.215   0.024 -0.0792  0.3891 -0.0462
   18DG      O9  400   3.341   0.087   0.097 -0.1250 -0.2862  0.3481
   18DG     O10  401   2.941   0.170  -0.100  0.4221 -0.5279  0.5089
   18DG     C11  402   3.373   0.002  -0.011  0.1421 -0.0942  0.3091
   18DG     C12  403   2.974   0.112  -0.228 -0.0482  0.2185 -0.2807
   18DG     H13  404   3.316  -0.090   0.000 -0.4230 -0.0141 -1.5849
   18DG     H14  405   3.479  -0.024  -0.013  0.4554  1.1639 -1.1664
   18DG     H15  406   2.931   0.174  -0.307 -0.5277  0.5084  0.2032
   18DG     H16  407   2.937   0.010  -0.231 -1.1229  0.5677  0.3646
   18DG     C17  408   3.320   0.053  -0.149  0.0532 -0.3026  0.2779
   18DG     C18  409   3.123   0.116  -0.246 -0.0225  0.1964  0.5614
   18DG     O19  410   3.184   0.066  -0.131  0.1740  0.1517 -0.3353
   18DG     H20  411   3.346  -0.028  -0.218 -2.0445 -1.0630  0.3222
   18DG     H21  412   3.374   0.142  -0.181  3.0271 -2.0341  0.0995
   18DG     H22  413   3.144   0.067  -0.341 -2.0468  0.9207 -0.3253
   18DG     H23  414   3.147   0.219  -0.269  2.4399 -0.3276  0.5403
   19DG      C1  415   3.165   3.573   1.749  0.3891 -0.6502 -0.3093
   19DG      C2  416   3.026   4.054   1.318 -0.8181  0.0743  0.3673
   19DG      H3  417   3.124   3.487   1.801  0.4041 -0.0989  0.6355
   19DG      H4  418   3.227   3.627   1.821 -0.3353  1.2948 -1.0764
   19DG      H5  419   3.231   3.535   1.670  0.1018 -0.9477 -0.4082
   19DG      H6  420   3.115   4.095   1.366 -0.8519  1.2503 -0.5354
   19DG      H7  421   3.046   3.997   1.228 -2.5141  0.9202 -0.5902
   19DG      H8  422   2.978   4.147   1.286  1.4715  1.4261  0.6183
   19DG      O9  423   3.060   3.658   1.705 -0.1854 -0.0366 -0.0026
   19DG     O10  424   2.950   3.981   1.410 -0.1066 -0.2169 -0.7487
   19DG     C11  425   2.984   3.713   1.811  0.4829 -0.2048  0.2313
   19DG     C12  426   2.895   4.066   1.514 -0.1572  0.0059  0.2423
   19DG     H13  427   3.054   3.758   1.881 -0.5038  0.9313  0.5298
   19DG     H14  428   2.931   3.630   1.859 -0.3186 -1.0712 -2.0334
   19DG     H15  429   2.829   4.144   1.476 -2.0886 -1.8183 -0.3309
   19DG     H16  430   2.974   4.117   1.569 -0.2407  0.6257 -0.1970
   19DG     C17  431   2.878   3.812   1.770  0.0277 -0.8304 -0.1671
   19DG     C18  432   2.823   3.968   1.606  0.8376 -0.2673 -0.4898
   19DG     O19  433   2.927   3.902   1.682  0.1515 -0.5154 -0.7526
   19DG     H20  434   2.829   3.868   1.849  0.0769  0.1350 -0.8117
   19DG     H21  435   2.798   3.752   1.727 -1.0134 -1.1842  2.1223
   19DG     H22  436   2.754   4.019   1.673  0.6181 -1.6339  0.3812
   19DG     H23  437   2.752   3.901   1.557 -1.7627  1.6852  0.3970
   20DG      C1  438   2.439   1.673   1.338  0.2645 -0.2698  0.5505
   20DG      C2  439   2.778   1.994   0.817  0.2400 -0.3825 -0.5404
   20DG      H3  440   2.439   1.771   1.388 -0.3256 -0.5500  1.1283
   20DG      H4  441   2.415   1.591   1.405 -4.4407  1.2115  1.0672
   20DG      H5  442   2.360   1.675   1.263 -0.5122  1.2764  1.3495
   20DG      H6  443   2.804   2.095   0.847  0.2989 -0.9542  1.5120
   20DG      H7  444   2.839   1.941   0.744  0.9652  0.7669 -0.7944
   20DG      H8  445   2.675   1.998   0.781 -0.3203  1.0885  1.1011
   20DG      O9  446   2.565   1.657   1.270  0.3837 -0.0148 -0.4374
   20DG     O10  447   2.776   1.915   0.935  0.4533 -0.4516  0.3594
   20DG     C11  448   2.669   1.653   1.363 -0.3630 -0.0332  0.2045
   20DG     C12  449   2.908   1.904   1.007  0.2527  0.4113  0.4792
   20DG     H13  450   2.691   1.558   1.411 -1.1871  0.0385  0.7468
   20DG     H14  451   2.645   1.733   1.434 -2.0293  1.4948 -1.9483
   20DG     H15  452   2.947   1.987   1.066  2.5024  0.1875 -0.5532
   20DG     H16  453   2.985   1.874   0.935 -0.7489 -0.3925 -0.2966
   20DG     C17  454   2.800   1.698   1.291 -0.3755 -0.0945 -0.1391
   20DG     C18  455   2.901   1.781   1.096 -0.3994  0.5436 -0.2877
   20DG     O19  456   2.787   1.789   1.183 -0.2594 -0.0889 -0.3644
   20DG     H20  457   2.856   1.612   1.253  0.0398 -0.4316  1.2041
   20DG     H21  458   2.879   1.738   1.355 -0.2638 -0.7423  0.1375
   20DG     H22  459   2.902   1.683   1.049 -0.5914  0.0106  0.7832
   20DG     H23  460   2.993   1.776   1.154 -1.0695  0.3950  0.7867
   21DG      C1  461   2.414   1.470   1.057 -0.6095 -0.4064 -1.2192
   21DG      C2  462   2.604   2.016   1.313  0.3280  0.1328 -0.1163
   21DG      H3  463   2.390   1.448   1.161  0.1571  1.2897 -0.6486
   21DG      H4  464   2.522   1.455   1.058 -0.6010 -0.4758  1.2635
   21DG      H5  465   2.386   1.386   0.994  0.7076 -1.8213  0.0238
   21DG      H6  466   2.710   1.991   1.304  0.1552 -0.7102  0.0920
   21DG      H7  467   2.611   2.122   1.336  1.0489 -0.2399  1.4642
   21DG      H8  468   2.570   1.962   1.401 -0.0302  3.0521  1.6540
   21DG      O9  469   2.393   1.592   1.002  0.4009 -0.2892 -0.5931
   21DG     O10  470   2.536   1.986   1.198 -0.5004  0.6250  0.3556
   21DG     C11  471   2.253   1.628   0.984  0.6157  0.7415 -0.1479
   21DG     C12  472   2.407   2.025   1.200  0.2117 -0.1282 -0.3453
   21DG     H13  473   2.188   1.600   1.067 -2.3269  0.3873 -2.4147
   21DG     H14  474   2.219   1.576   0.895  3.4005 -1.0523 -0.2850
   21DG     H15  475   2.403   2.133   1.217  0.0608 -0.1040 -0.5264
   21DG     H16  476   2.354   1.973   1.280 -2.0079 -1.8164 -2.7419
   21DG     C17  477   2.245   1.776   0.967 -0.0772 -0.3101  0.4968
   21DG     C18  478   2.336   1.982   1.067  0.0207  0.2335  0.7222
   21DG     O19  479   2.326   1.840   1.070 -0.2509 -0.0764 -0.7531
   21DG     H20  480   2.138   1.795   0.964  0.2462  1.7803 -2.1513
   21DG     H21  481   2.276   1.805   0.866 -0.6993  1.0116  0.6716
   21DG     H22  482   2.238   2.030   1.065 -1.5995 -2.6065  3.3873
   21DG     H23  483   2.399   2.024   0.988 -0.4223 -2.4167 -1.1648
   22DG      C1  484   3.694   4.012   2.228 -0.0203 -0.0341  0.7233
   22DG      C2  485   3.371   4.388   1.993  0.7715  0.1030  0.0875
   22DG      H3  486   3.715   3.951   2.316 -1.4430 -1.4713  0.1236
   22DG      H4  487   3.762   4.096   2.217 -0.0183 -0.2158 -0.9749
   22DG      H5  488   3.717   3.955   2.139  0.8583  0.4285  0.6461
   22DG      H6  489   3.368   4.472   2.063 -3.0166 -0.6961  1.1681
   22DG      H7  490   3.470   4.385   1.948  0.7774  0.0829  0.1016
   22DG      H8  491   3.301   4.414   1.914 -1.2903  0.7192  1.9850
   22DG      O9  492   3.560   4.038   2.218 -0.1432  0.0416 -0.4552
   22DG     O10  493   3.345   4.259   2.049 -0.2189 -0.0240  0.5282
   22DG     C11  494   3.481   3.958   2.305  0.9251  0.8226 -0.2784
   22DG     C12  495   3.224   4.249   2.110  0.0655  0.8385 -0.3232
   22DG     H13  496   3.521   3.978   2.404  0.1612  0.4437  0.1238
   22DG     H14  497   3.476   3.852   2.279 -0.9713  1.1308 -1.4142
   22DG     H15  498   3.154   4.296   2.040  0.6502 -0.9344 -2.1802
   22DG     H16  499   3.219   4.299   2.207 -1.3168  0.1805 -0.0274
   22DG     C17  500   3.331   4.001   2.286 -0.0111  0.2456  0.6483
   22DG     C18  501   3.185   4.100   2.112  0.1252  0.9842 -0.4722
   22DG     O19  502   3.300   4.023   2.147  0.7289  0.0811 -0.1432
   22DG     H20  503   3.313   4.088   2.350 -0.3593  0.0374  0.8332
   22DG     H21  504   3.266   3.923   2.326  0.1459 -0.9691 -1.3526
   22DG     H22  505   3.103   4.076   2.179 -1.0755  3.1577 -1.0814
   22DG     H23  506   3.161   4.072   2.010 -1.9260 -1.1750  0.4899
   23DG      C1  507   0.709   4.748   3.614 -0.0289  0.4054  0.1142
   23DG      C2  508   1.255   4.795   3.301  0.8041  0.0074 -0.0779
   23DG      H3  509   0.694   4.853   3.636  1.6791  0.8023 -0.4322
   23DG      H4  510   0.649   4.687   3.682 -0.4823  0.6582 -0.0608
   23DG      H5  511   0.659   4.731   3.518 -1.3468 -0.6122  0.9423
   23DG      H6  512   1.230   4.898   3.328 -0.8146 -0.8008  1.7899
   23DG      H7  513   1.363   4.797   3.285  0.9742 -2.0874  0.5031
   23DG      H8  514   1.213   4.774   3.202  1.2027 -0.1832 -0.2086
   23DG      O9  515   0.839   4.698   3.611 -0.9200 -0.4715  0.5873
   23DG     O10  516   1.226   4.703   3.406 -0.1801  0.2863 -0.2499
   23DG     C11  517   0.900   4.706   3.743  0.0996 -0.3178 -0.2348
   23DG     C12  518   1.318   4.719   3.510  0.1473 -0.7636 -0.1117
   23DG     H13  519   0.836   4.664   3.822 -0.9351 -0.5561 -1.1774
   23DG     H14  520   0.913   4.813   3.759 -1.3084 -0.4578  2.5440
   23DG     H15  521   1.353   4.822   3.510 -1.3593 -0.2013  1.6327
   23DG     H16  522   1.403   4.656   3.485  2.3904  0.9549  2.6563
   23DG     C17  523   1.042   4.649   3.742 -0.7680  0.6013 -0.1589
   23DG     C18  524   1.255   4.655   3.634 -0.4204  0.2560 -0.1616
   23DG     O19  525   1.121   4.704   3.639 -0.3057 -0.4023 -0.3946
   23DG     H20  526   1.029   4.545   3.713 -0.6018  0.8953 -1.3321
   23DG     H21  527   1.097   4.668   3.834 -1.4771  2.6088 -0.1011
   23DG     H22  528   1.244   4.547   3.631  0.6154  0.1423 -0.0309
   23DG     H23  529   1.309   4.682   3.724 -0.5814 -1.4884  0.5059
   24DG      C1  530   4.809   2.452   0.967 -0.1415  0.5005  0.0243
   24DG      C2  531   5.376   2.235   1.137 -0.0955 -0.0231  0.1512
   24DG      H3  532   4.816   2.350   0.928 -1.1234  0.9479 -1.4129
   24DG      H4  533   4.762   2.514   0.891  0.9180  2.3517  0.8141
   24DG      H5  534   4.747   2.459   1.056  0.2260  1.2894  0.2196
   24DG      H6  535   5.338   2.146   1.087 -0.4592  0.3873 -0.3172
   24DG      H7  536   5.482   2.227   1.113 -0.4389 -0.9020 -1.1993
   24DG      H8  537   5.368   2.227   1.245  0.9356 -2.6231  0.0876
   24DG      O9  538   4.950   2.481   1.002  0.1487  0.0457 -0.0664
   24DG     O10  539   5.318   2.350   1.081 -0.3711 -0.5473  0.5960
   24DG     C11  540   4.955   2.614   1.037  0.0841  0.4945  0.1222
   24DG     C12  541   5.375   2.474   1.121  0.3247  0.6923 -0.6062
   24DG     H13  542   4.886   2.648   1.115  0.2031 -0.2489  0.5649
   24DG     H14  543   4.938   2.683   0.955 -0.3683  0.0658 -0.1465
   24DG     H15  544   5.482   2.483   1.100  0.7601 -0.0855  1.1184
   24DG     H16  545   5.380   2.482   1.230  1.5584 -0.4310 -0.5509
   24DG     C17  546   5.097   2.647   1.098 -0.6463  0.2316 -0.6048
   24DG     C18  547   5.320   2.599   1.039 -0.0439  0.5723  0.5716
   24DG     O19  548   5.185   2.585   1.005  0.4825 -0.3473 -0.0065
   24DG     H20  549   5.102   2.604   1.198  0.8282  0.0362 -0.7400
   24DG     H21  550   5.110   2.754   1.114 -0.6274 -0.0638  1.7005
   24DG     H22  551   5.336   2.696   1.087 -0.7232  1.5030 -1.0055
   24DG     H23  552   5.372   2.603   0.944  0.0404 -1.3451  0.5118
   25DG      C1  553   0.950   3.234   3.031  0.0275 -0.0916  0.1716
   25DG      C2  554   0.734   3.733   3.457 -0.2512  0.4091 -0.5164
   25DG      H3  555   0.946   3.205   2.926  0.6319 -0.9429  0.3720
   25DG      H4  556   0.904   3.154   3.089  1.5944 -1.6318 -0.6206
   25DG      H5  557   1.053   3.246   3.065  0.2931  0.3165 -0.7372
   25DG      H6  558   0.818   3.794   3.423 -0.3529  0.4062 -0.7784
   25DG      H7  559   0.657   3.802   3.491 -0.1877  0.0085  0.4682
   25DG      H8  560   0.771   3.673   3.540  0.4020  1.6923  0.1506
   25DG      O9  561   0.864   3.344   3.058  0.0730  0.0174 -0.2081
   25DG     O10  562   0.686   3.664   3.345  0.3491  0.5245 -0.0410
   25DG     C11  563   0.886   3.447   2.960 -1.0391 -0.1154 -0.2233
   25DG     C12  564   0.626   3.747   3.242  0.0560 -0.7176 -0.1457
   25DG     H13  565   0.893   3.420   2.855 -2.1866  1.2819 -0.6917
   25DG     H14  566   0.977   3.503   2.981 -1.3964  0.1636  0.6523
   25DG     H15  567   0.694   3.832   3.231  0.8359 -1.3385 -0.2839
   25DG     H16  568   0.527   3.780   3.273  0.0653 -0.1289 -0.7277
   25DG     C17  569   0.776   3.553   2.955  0.5022 -0.4463  0.1504
   25DG     C18  570   0.630   3.671   3.106  0.3706  0.6488  0.1021
   25DG     O19  571   0.762   3.621   3.079  0.1714 -0.1955  0.3667
   25DG     H20  572   0.683   3.507   2.921  0.4248  0.0257 -0.2703
   25DG     H21  573   0.799   3.633   2.886  2.7665 -0.1304  1.1691
   25DG     H22  574   0.559   3.588   3.104  1.0043  0.1141 -0.4589
   25DG     H23  575   0.601   3.733   3.021 -3.4662  0.7256  1.2420
   26DG      C1  576   4.594   4.570   0.296  0.8920 -0.2303 -0.1426
   26DG      C2  577   4.113   5.090   0.211 -0.3694  0.0540  0.0244
   26DG      H3  578   4.550   4.647   0.232  1.6816 -1.2308 -1.9945
   26DG      H4  579   4.524   4.514   0.357  1.0937  0.3182  0.6028
   26DG      H5  580   4.649   4.506   0.226  0.3437 -2.6460  1.5311
   26DG      H6  581   4.129   5.063   0.106  0.0435  0.1672  0.0568
   26DG      H7  582   4.031   5.032   0.252 -1.0715  0.2768 -1.0347
   26DG      H8  583   4.072   5.191   0.204 -0.6240 -0.0874 -0.6097
   26DG      O9  584   4.693   4.636   0.379 -0.2531  0.3484 -0.4725
   26DG     O10  585   4.228   5.081   0.285 -0.7665  0.1847  0.2570
   26DG     C11  586   4.652   4.697   0.497  0.1326  0.6002  0.1942
   26DG     C12  587   4.289   4.953   0.294  0.2209  0.2931 -0.1763
   26DG     H13  588   4.735   4.713   0.566  0.7285  0.9555 -0.5801
   26DG     H14  589   4.579   4.646   0.559  0.4685  0.9103  0.8554
   26DG     H15  590   4.314   4.914   0.195  2.4214  3.0285 -0.8164
   26DG     H16  591   4.222   4.885   0.347 -1.6361  0.5205 -2.0865
   26DG     C17  592   4.598   4.843   0.470  0.6147 -0.2517 -0.2809
   26DG     C18  593   4.411   4.972   0.394 -0.1282 -0.0364  0.4995
   26DG     O19  594   4.472   4.843   0.399 -0.1954 -0.3123 -0.6208
   26DG     H20  595   4.673   4.913   0.432 -0.9533  3.3992  2.7392
   26DG     H21  596   4.581   4.868   0.574  1.1282  1.7892 -0.6531
   26DG     H22  597   4.479   5.049   0.359 -0.0044 -1.1966 -2.0005
   26DG     H23  598   4.385   5.010   0.493  0.3597 -0.4022  0.7754
   27DG      C1  599   5.072   4.651   3.567  0.1383 -0.4503 -0.2484
   27DG      C2  600   4.530   4.357   3.339  0.3801  0.1318 -0.2757
   27DG      H3  601   5.137   4.565   3.586  1.5337  0.7903  0.8916
   27DG      H4  602   4.996   4.677   3.640 -1.4130  0.7407 -2.1789
   27DG      H5  603   5.152   4.724   3.580 -0.6942  0.0808  2.4852
   27DG      H6  604   4.537   4.269   3.275  1.7911 -0.7787  1.0687
   27DG      H7  605   4.516   4.322   3.441 -0.3099 -1.7219 -0.9678
   27DG      H8  606   4.431   4.397   3.314  1.0602  1.7949 -0.4164
   27DG      O9  607   5.019   4.638   3.437 -0.1349 -0.0887  0.6333
   27DG     O10  608   4.636   4.449   3.317  0.4137 -0.7225  0.1332
   27DG     C11  609   4.974   4.756   3.380 -0.0778 -0.6437 -0.5037
   27DG     C12  610   4.655   4.494   3.186 -0.0731 -0.4727  0.0494
   27DG     H13  611   5.045   4.839   3.377 -2.3427  1.4634  0.7325
   27DG     H14  612   4.879   4.784   3.424  0.0421 -0.9646 -0.0289
   27DG     H15  613   4.566   4.541   3.147 -0.5160 -1.0995  0.2805
   27DG     H16  614   4.701   4.410   3.133  0.1900 -0.6395  0.5285
   27DG     C17  615   4.959   4.712   3.235  0.1202  0.0958 -0.1244
   27DG     C18  616   4.751   4.614   3.172  0.0892 -0.0374  0.1439
   27DG     O19  617   4.880   4.592   3.231  0.4493 -0.0835  0.3459
   27DG     H20  618   5.061   4.683   3.211 -0.1524  0.0834 -1.3613
   27DG     H21  619   4.922   4.789   3.167 -1.1313 -0.8441 -0.5553
   27DG     H22  620   4.763   4.639   3.067 -0.7587 -0.0139  0.0468
   27DG     H23  621   4.706   4.705   3.212  0.7368  1.5497 -2.4497
   28DG      C1  622   4.086   2.962   0.966  0.0960 -0.2526  0.0663
   28DG      C2  623   3.484   3.273   0.935  0.2319  0.0434  0.5347
   28DG      H3  624   4.194   2.964   0.984 -0.0013  1.1889  0.5808
   28DG      H4  625   4.057   2.858   0.951  0.2302 -0.3781  0.6434
   28DG      H5  626   4.042   2.993   1.061 -1.0292 -0.7471 -0.2773
   28DG      H6  627   3.456   3.174   0.970 -1.2894  0.3112  0.1677
   28DG      H7  628   3.478   3.332   1.027 -0.8812  1.2912 -0.2863
   28DG      H8  629   3.405   3.299   0.864  0.4023 -2.1213 -0.5227
   28DG      O9  630   4.038   3.025   0.849 -0.0349  0.4941 -0.4338
   28DG     O10  631   3.613   3.274   0.877  0.1337  0.1680 -0.0907
   28DG     C11  632   4.077   3.162   0.860  0.0310  0.2769 -0.2697
   28DG     C12  633   3.618   3.232   0.740  0.5283  0.4659 -0.1786
   28DG     H13  634   4.181   3.175   0.831  0.1845  1.0767  0.5743
   28DG     H14  635   4.053   3.200   0.960  1.4316  0.5179 -0.0060
   28DG     H15  636   3.542   3.283   0.681  0.8162  1.5276  0.3429
   28DG     H16  637   3.602   3.124   0.737 -0.7333  0.5118  2.4940
   28DG     C17  638   3.994   3.244   0.763  0.3016  0.9757  0.0298
   28DG     C18  639   3.762   3.272   0.687  0.2017  0.5371  0.1579
   28DG     O19  640   3.861   3.205   0.769  0.5343 -0.0893 -0.9947
   28DG     H20  641   4.029   3.223   0.662  2.3722 -2.1375  1.2467
   28DG     H21  642   4.005   3.351   0.782 -2.2302  1.4827 -0.9601
   28DG     H22  643   3.778   3.230   0.587  1.8130 -1.0506  1.0241
   28DG     H23  644   3.779   3.380   0.690 -2.5153  0.9985  1.1264
   29DG      C1  645   2.743   5.082   2.933  0.3127 -0.0409 -0.1858
   29DG      C2  646   2.950   5.456   2.381 -0.3055  1.0244 -0.5741
   29DG      H3  647   2.638   5.064   2.909  0.1113  0.6333  0.1618
   29DG      H4  648   2.736   5.175   2.990  0.2803  1.2548 -2.2116
   29DG      H5  649   2.763   4.991   2.989 -1.1663 -0.8378 -0.8753
   29DG      H6  650   2.993   5.543   2.430  0.4161  0.4869 -0.2212
   29DG      H7  651   2.974   5.468   2.276 -3.7396 -0.3027 -1.6523
   29DG      H8  652   2.842   5.449   2.371 -0.2594 -2.8228 -0.0759
   29DG      O9  653   2.834   5.094   2.815 -0.2113  0.4122 -0.0644
   29DG     O10  654   3.001   5.335   2.425 -0.4264  0.5629 -0.5022
   29DG     C11  655   2.976   5.058   2.834  0.0110 -0.1968 -0.3034
   29DG     C12  656   3.130   5.337   2.480  0.8879  0.0819  0.2954
   29DG     H13  657   2.982   4.960   2.882 -0.8856  0.6701  1.7073
   29DG     H14  658   3.010   5.135   2.902 -0.2754  0.0186 -0.4001
   29DG     H15  659   3.119   5.419   2.551  0.7722  0.4379 -0.1365
   29DG     H16  660   3.206   5.366   2.407  1.1904  0.7790  0.8783
   29DG     C17  661   3.080   5.083   2.725  0.6424  0.5258 -0.2900
   29DG     C18  662   3.163   5.216   2.554 -0.1405 -0.0481  0.3084
   29DG     O19  663   3.069   5.213   2.659  0.5435  0.3502 -0.5453
   29DG     H20  664   3.051   5.013   2.647 -0.9028 -0.8127  1.4123
   29DG     H21  665   3.186   5.063   2.740  0.5589 -0.4429 -0.8862
   29DG     H22  666   3.157   5.127   2.490  1.1037  0.0905 -0.0173
   29DG     H23  667   3.264   5.210   2.593  0.6054 -0.2733 -1.5364
   30DG      C1  668   3.773   0.425   3.193 -0.1154 -0.4640 -0.1394
   30DG      C2  669   4.391   0.565   3.349  0.0408  0.3791 -0.1414
   30DG      H3  670   3.736   0.344   3.256 -2.3117  1.0923  0.7103
   30DG      H4  671   3.714   0.431   3.102  0.8311  0.7022 -0.6892
   30DG      H5  672   3.774   0.521   3.245  0.7933 -1.1412  1.1406
   30DG      H6  673   4.351   0.667   3.355  1.3315  1.0119 -1.6069
   30DG      H7  674   4.370   0.519   3.445 -1.6221  1.5331  0.1012
   30DG      H8  675   4.497   0.558   3.326  0.7701  2.2692  2.1682
   30DG      O9  676   3.901   0.402   3.139  0.5334 -0.0857  0.5628
   30DG     O10  677   4.313   0.486   3.254 -0.2874 -0.6150 -0.1185
   30DG     C11  678   3.927   0.268   3.087  0.9881  0.6237  0.5628
   30DG     C12  679   4.371   0.365   3.220  0.4088  0.0741  0.1881
   30DG     H13  680   3.870   0.238   2.999  2.3551  1.3316 -0.6016
   30DG     H14  681   3.909   0.197   3.168  0.0321 -0.5288 -0.6034
   30DG     H15  682   4.375   0.299   3.306  0.2004  0.8367  0.7965
   30DG     H16  683   4.475   0.372   3.187 -0.2961  1.5579 -1.9665
   30DG     C17  684   4.070   0.242   3.042  0.5826  0.1631  0.3025
   30DG     C18  685   4.294   0.311   3.096 -0.4040  0.0112 -0.3457
   30DG     O19  686   4.156   0.314   3.137  0.5004  0.6348  0.2905
   30DG     H20  687   4.082   0.273   2.938 -1.8575  1.1602  0.2528
   30DG     H21  688   4.094   0.136   3.037  0.8882  0.2639 -2.3983
   30DG     H22  689   4.310   0.381   3.013 -1.6275 -1.6488 -2.0610
   30DG     H23  690   4.328   0.211   3.071 -0.2852 -0.2066  0.6541
   31DG      C1  691   0.473   1.616   1.911  0.0537 -0.0344 -0.4227
   31DG      C2  692   0.088   1.527   2.480  0.0928  0.2580  0.2979
   31DG      H3  693   0.418   1.595   1.819 -0.2856 -1.2765  0.0565
   31DG      H4  694   0.575   1.588   1.887 -0.1364 -2.5821  1.4076
   31DG      H5  695   0.473   1.724   1.927  0.2947 -0.3627  2.2439
   31DG      H6  696   0.184   1.525   2.533 -0.1957  0.3147  0.8322
   31DG      H7  697   0.003   1.562   2.538 -0.8444  1.2197 -1.5738
   31DG      H8  698   0.053   1.428   2.453 -0.7376  0.8465 -0.8218
   31DG      O9  699   0.413   1.540   2.017 -0.5103 -0.3074  0.0764
   31DG     O10  700   0.102   1.610   2.362 -0.4059 -0.3235  0.5586
   31DG     C11  701   0.503   1.524   2.131  0.3583  0.2151  0.2396
   31DG     C12  702   0.163   1.734   2.385  0.2353  0.1987 -0.0001
   31DG     H13  703   0.606   1.508   2.098 -0.8028 -1.8003 -2.8917
   31DG     H14  704   0.470   1.442   2.194 -2.4383  0.6173 -0.5962
   31DG     H15  705   0.141   1.785   2.479 -1.7723  0.4018 -0.5529
   31DG     H16  706   0.131   1.802   2.306  1.1210 -0.4526 -0.9551
   31DG     C17  707   0.477   1.650   2.213  0.5269  0.2312  0.4264
   31DG     C18  708   0.319   1.722   2.377  0.1349  0.0424 -0.2607
   31DG     O19  709   0.339   1.663   2.252  0.0257  0.7748 -0.0163
   31DG     H20  710   0.500   1.746   2.165 -0.1627  1.2237  1.9964
   31DG     H21  711   0.538   1.642   2.303  2.4889  2.3698 -0.5850
   31DG     H22  712   0.368   1.819   2.386  1.5371 -0.5687 -1.0063
   31DG     H23  713   0.355   1.654   2.454 -0.7218 -1.3836 -1.0685
   32DG      C1  714   2.755   4.608   1.758 -0.0546  0.2351  0.6141
   32DG      C2  715   3.278   4.945   1.735 -0.0578  0.5372  0.0134
   32DG      H3  716   2.673   4.536   1.760 -0.8373  0.7579 -3.5617
   32DG      H4  717   2.755   4.645   1.655 -0.4736  0.4457  0.6878
   32DG      H5  718   2.708   4.686   1.817  2.0208  0.7554  1.6899
   32DG      H6  719   3.374   4.933   1.785  0.8617  0.7566 -1.6532
   32DG      H7  720   3.285   5.007   1.646 -0.1719 -1.6400 -1.5924
   32DG      H8  721   3.215   5.008   1.798  2.1255  0.9564  1.8878
   32DG      O9  722   2.876   4.565   1.809  0.1620  0.2279  0.4704
   32DG     O10  723   3.216   4.821   1.698  0.2257  0.2737 -0.1452
   32DG     C11  724   2.938   4.451   1.744 -0.2325 -0.4055 -0.4175
   32DG     C12  725   3.290   4.735   1.618  0.0213  0.9834  0.4867
   32DG     H13  726   2.875   4.368   1.714 -0.5168  0.4748 -2.3943
   32DG     H14  727   3.008   4.413   1.819 -1.0813  0.1575  0.7021
   32DG     H15  728   3.374   4.697   1.676 -0.7671  2.1775  2.5212
   32DG     H16  729   3.323   4.794   1.533  0.0598  0.5594  0.2045
   32DG     C17  730   3.028   4.477   1.620 -0.1911 -0.1245 -0.6256
   32DG     C18  731   3.188   4.633   1.556 -0.0853 -0.2504  0.6478
   32DG     O19  732   3.110   4.581   1.653  0.0325  0.6858  0.3596
   32DG     H20  733   2.966   4.512   1.538  0.4074  2.1853 -0.1518
   32DG     H21  734   3.073   4.379   1.603 -0.8452 -0.7350  1.0017
   32DG     H22  735   3.128   4.676   1.476 -0.8065 -0.2604  1.1800
   32DG     H23  736   3.248   4.557   1.506  0.4185  0.9969 -0.6993
   33DG      C1  737   3.774   5.110   3.301 -0.2944  0.1777 -0.4405
   33DG      C2  738   3.515   5.607   2.955  0.0526 -0.5762  0.1329
   33DG      H3  739   3.876   5.137   3.275  0.9750 -2.0785  1.7900
   33DG      H4  740   3.747   5.058   3.209 -4.0876  1.8747 -0.4676
   33DG      H5  741   3.787   5.039   3.382  0.0103  3.0785  2.2587
   33DG      H6  742   3.524   5.537   2.872 -2.5813  0.0952 -0.8416
   33DG      H7  743   3.411   5.640   2.959  0.6468  1.2744  1.9463
   33DG      H8  744   3.583   5.690   2.935  2.8389 -2.3788  1.6871
   33DG      O9  745   3.684   5.211   3.346 -0.6588 -0.5481  0.0743
   33DG     O10  746   3.546   5.555   3.085  0.0192  0.5029  0.0903
   33DG     C11  747   3.741   5.294   3.444 -0.4174  0.2463 -0.3141
   33DG     C12  748   3.518   5.645   3.186 -0.1599  0.4728 -0.1222
   33DG     H13  749   3.838   5.332   3.415  0.4800 -1.6971 -0.0123
   33DG     H14  750   3.746   5.249   3.544  0.1323 -0.0847 -0.4883
   33DG     H15  751   3.416   5.682   3.178 -1.0489 -1.3675  1.6980
   33DG     H16  752   3.581   5.732   3.172  0.1755  0.5420  1.5841
   33DG     C17  753   3.655   5.420   3.453 -0.0524  0.1547  0.3555
   33DG     C18  754   3.541   5.590   3.329 -0.1916  0.0302  0.0058
   33DG     O19  755   3.637   5.472   3.323  0.0765 -0.2646  0.1844
   33DG     H20  756   3.688   5.502   3.518 -1.4079  0.6122  0.4823
   33DG     H21  757   3.560   5.382   3.490 -0.3687  2.4937  2.1915
   33DG     H22  758   3.572   5.676   3.388 -1.2763  0.0114  0.6189
   33DG     H23  759   3.452   5.552   3.378 -0.3238  0.4059  0.0564
   34DG      C1  760   3.805   2.155   4.869  0.4156 -0.2574  0.1824
   34DG      C2  761   3.652   2.843   4.727 -0.6866 -0.0180  0.3481
   34DG      H3  762   3.838   2.074   4.934  0.6959 -0.2885  0.0018
   34DG      H4  763   3.826   2.134   4.765  1.3006 -0.7281  0.4433
   34DG      H5  764   3.697   2.167   4.877  0.2510 -2.1701  2.0462
   34DG      H6  765   3.697   2.826   4.629  0.0346 -2.0100  0.9731
   34DG      H7  766   3.544   2.851   4.733 -0.5642  1.1741  1.5935
   34DG      H8  767   3.684   2.943   4.757  1.1765  0.7976 -3.6586
   34DG      O9  768   3.862   2.275   4.908 -0.3168 -0.5655  0.0797
   34DG     O10  769   3.698   2.747   4.818 -1.0551  0.2832 -0.2966
   34DG     C11  770   3.816   2.326   5.031 -0.1258 -0.2225  0.3831
   34DG     C12  771   3.837   2.764   4.850  0.7914  0.0442 -0.2983
   34DG     H13  772   3.822   2.265   5.121 -0.6010  0.1096  0.6441
   34DG     H14  773   3.710   2.339   5.013 -0.0306 -1.2511 -1.0844
   34DG     H15  774   3.858   2.867   4.881  0.2083  0.4085 -1.0752
   34DG     H16  775   3.888   2.749   4.755  3.0127  1.8890  0.4957
   34DG     C17  776   3.878   2.463   5.063  0.3646  0.1705  0.2141
   34DG     C18  777   3.890   2.674   4.956 -0.1078 -0.4774  0.0534
   34DG     O19  778   3.862   2.539   4.941  0.8805  0.1040 -0.6238
   34DG     H20  779   3.984   2.453   5.090  0.2240  2.3098  1.7596
   34DG     H21  780   3.812   2.503   5.140 -1.4393 -0.9619 -0.6909
   34DG     H22  781   3.998   2.680   4.965 -0.1808 -0.8486  1.3564
   34DG     H23  782   3.835   2.722   5.038 -1.7556 -0.1580 -1.1981
   35DG      C1  783   0.972   0.705   4.403 -0.1732  0.3347  0.1893
   35DG      C2  784   0.513   0.190   4.108  0.1224  0.4583  0.0886
   35DG      H3  785   0.977   0.812   4.383 -1.2059  0.5705  1.1458
   35DG      H4  786   1.066   0.651   4.407 -0.7489 -0.8525 -1.3369
   35DG      H5  787   0.919   0.686   4.496 -0.9941 -0.8198 -0.4804
   35DG      H6  788   0.536   0.091   4.070  0.4176 -0.2360  1.9937
   35DG      H7  789   0.459   0.191   4.203  0.0981 -3.6252  0.2791
   35DG      H8  790   0.431   0.227   4.046  0.3012  0.7604  0.0283
   35DG      O9  791   0.886   0.659   4.293  0.1332 -0.0766 -0.6128
   35DG     O10  792   0.633   0.268   4.122 -0.0123 -0.7150 -0.4932
   35DG     C11  793   0.956   0.669   4.168  0.5537  0.4454 -0.7625
   35DG     C12  794   0.695   0.299   4.000  0.8571 -0.1536  0.2106
   35DG     H13  795   1.055   0.713   4.182  0.3866  1.0288 -1.3561
   35DG     H14  796   0.906   0.738   4.100 -0.8884  1.2690  1.0544
   35DG     H15  797   0.636   0.360   3.931 -0.5319 -0.4444  1.0906
   35DG     H16  798   0.700   0.207   3.942  1.1603  1.3053 -2.2161
   35DG     C17  799   0.964   0.532   4.110 -0.0731  0.1093  0.7163
   35DG     C18  800   0.842   0.354   4.014  0.1762  0.0705 -0.0762
   35DG     O19  801   0.840   0.472   4.095  0.2880 -0.1723  0.3836
   35DG     H20  802   1.022   0.466   4.175 -1.4819 -0.9721  0.9107
   35DG     H21  803   1.013   0.541   4.012  0.1997  1.7340  0.9782
   35DG     H22  804   0.904   0.274   4.056 -0.4668 -1.9316 -2.6754
   35DG     H23  805   0.873   0.369   3.911 -2.1372 -0.2683 -0.8901
   36DG      C1  806   4.254   2.204   0.687  0.0060  0.3546 -0.0838
   36DG      C2  807   4.058   2.039   0.082 -0.4844  0.0165 -0.5977
   36DG      H3  808   4.360   2.231   0.688  0.0406  0.2104  0.3164
   36DG      H4  809   4.259   2.096   0.671  2.7519  0.4300 -0.2608
   36DG      H5  810   4.212   2.226   0.784  0.2741  1.1601 -0.1455
   36DG      H6  811   4.121   1.953   0.102 -1.1695 -0.7983 -1.8214
   36DG      H7  812   3.955   2.010   0.061  0.1380 -1.9810 -1.1669
   36DG      H8  813   4.075   2.078  -0.018 -1.9305  0.9121 -0.5213
   36DG      O9  814   4.190   2.275   0.583  0.3042  0.3852 -0.2227
   36DG     O10  815   4.078   2.140   0.182 -0.1137 -0.1979 -0.1046
   36DG     C11  816   4.054   2.301   0.611 -0.3291 -0.1825 -0.0497
   36DG     C12  817   4.005   2.258   0.144  0.4995  0.2563 -0.5982
   36DG     H13  818   4.050   2.359   0.703 -0.3827 -0.9291  0.4332
   36DG     H14  819   3.996   2.209   0.621 -1.5942  0.7497  2.0940
   36DG     H15  820   3.916   2.232   0.089 -0.8645  1.2490  1.0260
   36DG     H16  821   4.063   2.324   0.079 -0.5869  0.0461 -1.8213
   36DG     C17  822   3.999   2.380   0.495  0.2275 -0.5439  0.9451
   36DG     C18  823   3.953   2.327   0.275  0.2130  0.4038  0.3301
   36DG     O19  824   4.049   2.323   0.372  0.3264  0.4894 -0.0343
   36DG     H20  825   4.025   2.486   0.500  1.0927 -0.5870 -1.3058
   36DG     H21  826   3.890   2.377   0.499  0.0742 -0.9969 -1.6150
   36DG     H22  827   3.928   2.430   0.248 -0.0631 -0.2964 -2.3377
   36DG     H23  828   3.861   2.281   0.311 -0.1217  1.5858  1.0641
   37DG      C1  829   5.178   3.832   0.809 -0.2282  0.1430 -0.3096
   37DG      C2  830   5.191   3.982   0.183 -0.0612 -0.1606 -0.1298
   37DG      H3  831   5.214   3.769   0.890 -0.5849 -0.0420 -0.2898
   37DG      H4  832   5.105   3.770   0.755 -2.8618 -0.4768  3.5354
   37DG      H5  833   5.119   3.911   0.856  1.1586  1.4967 -0.8036
   37DG      H6  834   5.129   4.071   0.183  1.7498  1.1623 -0.3537
   37DG      H7  835   5.256   3.971   0.096  0.1227  0.9303 -0.1410
   37DG      H8  836   5.126   3.895   0.193  1.4619 -1.5597 -1.5638
   37DG      O9  837   5.276   3.868   0.719 -0.3503 -0.0620 -0.2045
   37DG     O10  838   5.284   3.981   0.295 -0.2146 -0.2921 -0.0143
   37DG     C11  839   5.349   3.983   0.764  0.2029  0.4599  0.1061
   37DG     C12  840   5.376   4.084   0.312 -0.4601 -0.2444  0.0587
   37DG     H13  841   5.391   3.973   0.864  2.2947  0.9606 -0.6771
   37DG     H14  842   5.276   4.065   0.764 -1.1780 -0.7180 -0.2518
   37DG     H15  843   5.312   4.169   0.338 -0.1880 -0.5289  1.7903
   37DG     H16  844   5.429   4.108   0.220  0.0541  0.0295  0.4234
   37DG     C17  845   5.454   4.011   0.662 -0.3620 -0.8303 -0.1300
   37DG     C18  846   5.471   4.054   0.423  0.2059 -0.2480  0.8459
   37DG     O19  847   5.385   4.039   0.533 -0.3437  0.7741 -0.0614
   37DG     H20  848   5.521   3.925   0.655  1.3413  0.2444  1.9362
   37DG     H21  849   5.519   4.086   0.705 -2.1219  0.2484  0.7683
   37DG     H22  850   5.532   3.968   0.396  2.5014  2.3216 -3.2197
   37DG     H23  851   5.535   4.142   0.435  0.0027 -0.0746  0.6587
   38DG      C1  852   1.375   4.670   4.537 -0.4213 -0.4789 -0.7855
   38DG      C2  853   1.367   4.987   5.062  0.3160 -0.2603  0.0025
   38DG      H3  854   1.283   4.726   4.520  0.9073  1.7583 -1.0726
   38DG      H4  855   1.368   4.594   4.615 -0.0274  0.7034  0.4277
   38DG      H5  856   1.417   4.629   4.445  1.1607  0.7531 -0.6449
   38DG      H6  857   1.276   5.036   5.027  0.2614  0.1205  0.6632
   38DG      H7  858   1.343   4.885   5.093 -0.8591  0.0312  0.0961
   38DG      H8  859   1.392   5.049   5.148  1.4269 -0.6403 -0.0310
   38DG      O9  860   1.466   4.769   4.592  0.0402 -0.5809 -0.1266
   38DG     O10  861   1.478   4.981   4.971 -0.6156  0.4092 -0.3395
   38DG     C11  862   1.501   4.872   4.509  0.3244 -0.0671 -0.3990
   38DG     C12  863   1.533   5.098   4.919  0.1880  0.1353  0.7169
   38DG     H13  864   1.407   4.912   4.471 -0.6980 -0.6748  1.3678
   38DG     H14  865   1.542   4.840   4.413 -1.7583  1.5015 -1.9145
   38DG     H15  866   1.594   5.141   4.998  1.4061 -1.2909  0.5846
   38DG     H16  867   1.458   5.175   4.901  0.5107  0.0302 -1.4071
   38DG     C17  868   1.598   4.974   4.577 -0.6800  0.2826  0.6477
   38DG     C18  869   1.618   5.077   4.788 -0.0371 -0.0740  0.0723
   38DG     O19  870   1.529   5.029   4.688  0.2161  0.2253 -0.4319
   38DG     H20  871   1.624   5.053   4.506  0.3008 -0.8946 -0.3520
   38DG     H21  872   1.688   4.916   4.596  0.7330  0.9201 -3.1966
   38DG     H22  873   1.668   5.169   4.755  1.4816 -1.2163 -0.9917
   38DG     H23  874   1.703   5.011   4.804  0.0374  0.0857  0.3433
   39DG      C1  875   3.238   3.397   5.412 -0.0819 -0.0290  0.4251
   39DG      C2  876   2.769   3.719   5.017  0.1033  0.7652 -0.2149
   39DG      H3  877   3.158   3.330   5.444 -3.6441  4.2749  1.6033
   39DG      H4  878   3.327   3.384   5.473 -0.2882 -0.2612  0.6773
   39DG      H5  879   3.272   3.367   5.312  0.8201  1.0142  0.4013
   39DG      H6  880   2.702   3.639   5.048 -0.2748  1.5488  1.0738
   39DG      H7  881   2.712   3.810   4.995 -0.3907  0.4646 -0.1961
   39DG      H8  882   2.816   3.684   4.925 -0.2208 -2.1040  0.6354
   39DG      O9  883   3.183   3.530   5.406 -0.4891 -0.6541 -0.2362
   39DG     O10  884   2.868   3.746   5.112  0.6633 -0.6870 -0.8398
   39DG     C11  885   3.272   3.630   5.360 -0.0458  0.4364 -0.3915
   39DG     C12  886   2.972   3.830   5.057  0.5388  0.3704  0.5150
   39DG     H13  887   3.311   3.607   5.261 -0.2227 -0.8135 -0.1891
   39DG     H14  888   3.352   3.635   5.434  0.2953  2.1831 -0.8203
   39DG     H15  889   2.941   3.932   5.034  2.2174  1.5079  2.8667
   39DG     H16  890   3.017   3.776   4.973  0.2503 -1.5760  1.5526
   39DG     C17  891   3.192   3.757   5.351  0.2859 -0.3425  0.5149
   39DG     C18  892   3.068   3.857   5.170  0.2127  0.0038  0.4777
   39DG     O19  893   3.111   3.736   5.240 -0.2185 -0.0250  0.4991
   39DG     H20  894   3.259   3.840   5.329 -2.4997  1.8949 -0.0486
   39DG     H21  895   3.138   3.779   5.443 -0.5005  3.5350 -0.7128
   39DG     H22  896   3.158   3.903   5.128  0.1356 -0.8581 -0.6856
   39DG     H23  897   3.026   3.912   5.254 -1.9236  1.1582 -1.2498
   40DG      C1  898   3.406   1.623   2.176  0.0983 -0.2665  0.3096
   40DG      C2  899   2.838   1.325   2.031 -0.6018 -0.1268  0.1260
   40DG      H3  900   3.391   1.548   2.255 -4.1928  2.0118  1.9981
   40DG      H4  901   3.342   1.708   2.199  0.7087  0.8112 -1.7311
   40DG      H5  902   3.506   1.664   2.169 -0.1729  0.5629  1.1222
   40DG      H6  903   2.767   1.408   2.034  0.0118  0.3784  1.1516
   40DG      H7  904   2.793   1.233   1.993 -0.1840 -0.2946  0.0303
   40DG      H8  905   2.868   1.295   2.131  2.6290 -0.0674 -0.7174
   40DG      O9  906   3.360   1.574   2.052  0.5382 -0.1113  0.4817
   40DG     O10  907   2.951   1.365   1.958  0.4188 -0.2246 -0.2692
   40DG     C11  908   3.424   1.450   2.018  0.1466 -0.1700  0.2238
   40DG     C12  909   3.025   1.250   1.929  0.7491  0.2888 -0.4712
   40DG     H13  910   3.409   1.381   2.101  0.2987 -1.5075 -0.8390
   40DG     H14  911   3.532   1.466   2.010 -0.0606  1.6966  0.6550
   40DG     H15  912   2.965   1.187   1.863 -0.3669 -0.6875  1.3869
   40DG     H16  913   3.044   1.193   2.020 -1.7708 -1.7427 -1.0798
   40DG     C17  914   3.351   1.404   1.902  0.5526  0.4758 -0.0997
   40DG     C18  915   3.156   1.285   1.861  0.0115  0.7206 -0.2820
   40DG     O19  916   3.221   1.366   1.956  0.2373 -0.2744  0.8363
   40DG     H20  917   3.408   1.313   1.880 -1.2784 -1.1824  1.5552
   40DG     H21  918   3.339   1.461   1.810 -3.5892 -0.1458 -0.1408
   40DG     H22  919   3.199   1.187   1.840 -0.0118  1.0114 -1.7638
   40DG     H23  920   3.149   1.328   1.761  0.7213 -0.2121 -0.7508
   41DG      C1  921   1.029   3.943   3.233 -0.2725  0.6284  0.5140
   41DG      C2  922   1.470   4.444   3.232  0.4321  0.6090  0.6626
   41DG      H3  923   0.951   4.011   3.267  1.1222  1.6147  1.9290
   41DG      H4  924   1.086   3.916   3.322  0.4872  3.8714  1.1649
   41DG      H5  925   0.985   3.855   3.188 -0.2216 -0.0826  1.8067
   41DG      H6  926   1.543   4.509   3.183 -1.7768  1.0364 -2.3375
   41DG      H7  927   1.408   4.512   3.290 -3.2268 -1.8830  0.0496
   41DG      H8  928   1.509   4.377   3.309  0.2240 -1.3580 -0.8519
   41DG      O9  929   1.120   4.014   3.146 -0.2488 -0.3941 -0.0906
   41DG     O10  930   1.394   4.367   3.137  0.3367  0.6068 -0.4233
   41DG     C11  931   1.043   4.058   3.035  0.3842  0.3266 -1.0374
   41DG     C12  932   1.319   4.449   3.040  0.2721  0.2027 -1.1886
   41DG     H13  933   0.964   4.120   3.078  2.5232  1.2394  1.8354
   41DG     H14  934   0.997   3.978   2.976  1.0188  1.3046 -2.9658
   41DG     H15  935   1.385   4.511   2.980  0.6709  0.9651  0.0042
   41DG     H16  936   1.260   4.517   3.101  1.0797  1.1459 -1.4411
   41DG     C17  937   1.121   4.150   2.944  0.1203  0.1884  0.2180
   41DG     C18  938   1.236   4.355   2.957 -0.1393 -0.1585 -0.2778
   41DG     O19  939   1.178   4.249   3.028  0.2092 -0.6311  0.0688
   41DG     H20  940   1.058   4.202   2.873 -0.1202 -0.3678  0.0150
   41DG     H21  941   1.207   4.102   2.896 -0.8864 -2.2882  0.7005
   41DG     H22  942   1.159   4.403   2.897 -1.4051 -2.6787 -0.8179
   41DG     H23  943   1.302   4.300   2.889 -0.7320 -0.2193 -0.8126
   42DG      C1  944   0.488   4.162   2.428 -0.1235 -0.2642  0.0553
   42DG      C2  945   0.128   3.615   2.174 -0.0744  0.4438 -0.1186
   42DG      H3  946   0.531   4.096   2.503  0.4772 -2.8626 -2.3858
   42DG      H4  947   0.485   4.258   2.478  1.1856  0.5399 -1.3129
   42DG      H5  948   0.561   4.179   2.349 -1.2703 -0.4492 -1.0736
   42DG      H6  949   0.124   3.598   2.066  0.9720 -0.6262 -0.0138
   42DG      H7  950   0.219   3.562   2.201  0.1613  0.9680  0.1258
   42DG      H8  951   0.042   3.570   2.225  0.5922  0.8687  1.4306
   42DG      O9  952   0.362   4.107   2.371  0.0835 -0.0336  0.6756
   42DG     O10  953   0.134   3.748   2.205  0.7267 -0.8501 -0.2470
   42DG     C11  954   0.298   4.199   2.290 -0.3932 -0.2251 -0.6832
   42DG     C12  955   0.038   3.828   2.135  0.1783  0.5721  0.1086
   42DG     H13  956   0.362   4.198   2.202  1.0692 -1.5924  0.3475
   42DG     H14  957   0.288   4.296   2.339 -1.0179 -1.4116  1.6353
   42DG     H15  958  -0.059   3.780   2.148 -0.3328  1.0228 -1.6742
   42DG     H16  959   0.060   3.821   2.028 -0.9892  1.6537 -0.2354
   42DG     C17  960   0.157   4.159   2.243 -0.1302  0.2515 -0.1524
   42DG     C18  961   0.024   3.970   2.169 -0.3916 -0.4118  0.2161
   42DG     O19  962   0.156   4.022   2.196  0.0367  0.2601 -0.0754
   42DG     H20  963   0.120   4.225   2.164 -3.7265 -0.3851  0.8059
   42DG     H21  964   0.085   4.182   2.322 -2.1278  1.7782 -2.2797
   42DG     H22  965  -0.033   4.041   2.109  0.8772  1.0100  0.6492
   42DG     H23  966  -0.033   3.966   2.262 -1.0751  2.8244  0.0377
   43DG      C1  967   1.504   1.790   4.663 -0.3016  0.1027  0.0719
   43DG      C2  968   0.730   1.846   4.345 -0.5409  0.4439  0.6131
   43DG      H3  969   1.610   1.788   4.688  0.3900 -1.9180 -2.4853
   43DG      H4  970   1.456   1.698   4.696  0.7265 -0.2896  0.5169
   43DG      H5  971   1.474   1.877   4.721  3.2468  2.2425 -0.9523
   43DG      H6  972   0.644   1.913   4.354 -0.8905  0.2317 -0.8218
   43DG      H7  973   0.758   1.855   4.240  1.3731  0.7772  1.1129
   43DG      H8  974   0.697   1.746   4.371  4.2680 -1.7719 -0.7822
   43DG      O9  975   1.473   1.813   4.522  0.5046 -0.7637 -0.4576
   43DG     O10  976   0.830   1.879   4.436 -0.3313 -0.3519 -0.4280
   43DG     C11  977   1.335   1.815   4.487 -0.3469  0.1982  0.3996
   43DG     C12  978   0.906   1.992   4.402  0.1989 -0.3823 -0.2931
   43DG     H13  979   1.306   1.711   4.507 -4.3079  0.8641 -0.9966
   43DG     H14  980   1.345   1.827   4.379  0.1341  1.7016  0.5933
   43DG     H15  981   0.841   2.079   4.409  0.5387 -0.1199 -0.3576
   43DG     H16  982   0.935   1.989   4.297 -0.2369 -0.7019 -0.4076
   43DG     C17  983   1.236   1.911   4.552  0.1837  0.5252  1.0126
   43DG     C18  984   1.024   1.998   4.500 -0.0121  0.0157  0.2851
   43DG     O19  985   1.117   1.896   4.477 -0.4656 -0.6907  0.1012
   43DG     H20  986   1.265   2.015   4.542 -0.1886  0.4908 -0.7639
   43DG     H21  987   1.212   1.885   4.655 -1.5879  2.3229  1.1082
   43DG     H22  988   1.081   2.090   4.485  0.0957  0.0418  0.8138
   43DG     H23  989   0.993   2.003   4.604  0.2883  2.8822  0.3275
   44DG      C1  990   4.041   3.426   4.431  0.8761 -0.1063 -0.1264
   44DG      C2  991   4.450   3.996   4.493  0.3503  0.9247  0.4373
   44DG      H3  992   4.018   3.416   4.537  1.5805 -1.4309 -0.0797
   44DG      H4  993   4.141   3.385   4.422  0.2971 -1.7994  0.7871
   44DG      H5  994   3.968   3.371   4.373  2.2901 -1.2898 -0.8532
   44DG      H6  995   4.395   4.049   4.571  0.1143 -0.0368  0.9403
   44DG      H7  996   4.520   3.924   4.537 -0.6672 -0.0706  0.4717
   44DG      H8  997   4.500   4.085   4.454  1.3912  0.3592  0.4603
   44DG      O9  998   4.051   3.566   4.388 -0.1259 -0.0087 -0.2942
   44DG     O10  999   4.361   3.915   4.407  0.0294 -0.4272 -0.0304
   44DG     C11 1000   4.056   3.581   4.247 -0.0960  0.0458 -0.3027
   44DG     C12 1001   4.426   3.872   4.290  0.5622  0.1076  0.6028
   44DG     H13 1002   3.999   3.667   4.211  0.6306  0.0019 -1.6259
   44DG     H14 1003   4.008   3.500   4.190  1.4572  0.1558 -1.8647
   44DG     H15 1004   4.510   3.807   4.318  0.8343  0.4636  0.6167
   44DG     H16 1005   4.475   3.948   4.230 -2.1291  1.5234  0.0587
   44DG     C17 1006   4.196   3.605   4.197  0.0740  0.2625  0.1260
   44DG     C18 1007   4.339   3.798   4.197  0.0962  0.0542 -0.2171
   44DG     O19 1008   4.255   3.717   4.275  0.1215 -0.6377 -0.4188
   44DG     H20 1009   4.194   3.633   4.091  1.2406 -1.3860 -0.3739
   44DG     H21 1010   4.272   3.528   4.207 -0.8600 -0.9734 -1.6188
   44DG     H22 1011   4.271   3.867   4.146 -0.3449 -1.5620 -1.9426
   44DG     H23 1012   4.395   3.734   4.128 -1.1180  0.9172 -2.1037
   45DG      C1 1013   1.145   0.901   1.796  0.2128 -0.5854  0.1433
   45DG      C2 1014   1.289   1.547   1.768 -0.5019  0.1097 -0.5148
   45DG      H3 1015   1.070   0.853   1.858 -1.2892 -0.2591 -1.3606
   45DG      H4 1016   1.226   0.837   1.760 -0.8276 -1.0129 -1.5204
   45DG      H5 1017   1.099   0.942   1.707  0.7417 -0.0238  0.1170
   45DG      H6 1018   1.272   1.527   1.663  0.9450 -0.8041 -0.6149
   45DG      H7 1019   1.214   1.612   1.813 -0.2930 -1.0597  1.6536
   45DG      H8 1020   1.384   1.600   1.778 -0.0048 -0.3363 -2.4525
   45DG      O9 1021   1.191   1.013   1.881  0.0317  0.0615  0.5758
   45DG     O10 1022   1.286   1.424   1.846  0.3565 -0.1549  0.5448
   45DG     C11 1023   1.290   0.971   1.973  0.2892  0.1247 -0.8805
   45DG     C12 1024   1.348   1.442   1.973 -0.4927 -0.7508 -0.1317
   45DG     H13 1025   1.381   0.938   1.923  0.6803 -1.3786  0.7480
   45DG     H14 1026   1.262   0.884   2.031  2.3797  1.5935  2.6270
   45DG     H15 1027   1.310   1.535   2.014 -2.3309 -1.8611  0.8132
   45DG     H16 1028   1.452   1.458   1.945 -0.1956 -0.2654  1.1747
   45DG     C17 1029   1.317   1.086   2.064  0.1740 -0.7986 -0.7514
   45DG     C18 1030   1.323   1.321   2.066 -0.4140  0.4677 -0.1647
   45DG     O19 1031   1.366   1.201   2.001  0.2746  0.2521  0.5914
   45DG     H20 1032   1.384   1.069   2.148  0.4826  2.5782 -0.1623
   45DG     H21 1033   1.221   1.099   2.114  0.0084 -0.4868 -1.1367
   45DG     H22 1034   1.386   1.329   2.155  0.2289 -1.0963 -0.4393
   45DG     H23 1035   1.216   1.312   2.081 -0.5272  0.5675 -0.9186
   46DG      C1 1036   0.750   3.471   5.020  0.9616 -0.3419  0.1598
   46DG      C2 1037   0.176   3.392   4.834 -0.1760  0.6368 -0.0396
   46DG      H3 1038   0.825   3.441   5.093  1.4602  2.0568  0.7192
   46DG      H4 1039   0.768   3.577   5.005  1.6390 -0.0849  2.4093
   46DG      H5 1040   0.772   3.420   4.926  0.3513 -1.6928  0.7227
   46DG      H6 1041   0.221   3.313   4.773 -2.3406  0.5963 -1.7077
   46DG      H7 1042   0.068   3.397   4.825 -0.1131  1.0696 -0.6446
   46DG      H8 1043   0.212   3.485   4.790 -0.5403  0.8872  0.1875
   46DG      O9 1044   0.630   3.445   5.084  0.3481  1.0751 -0.2032
   46DG     O10 1045   0.217   3.370   4.969  0.5093  0.1903  0.4724
   46DG     C11 1046   0.616   3.504   5.205 -0.3411  0.2566  0.4618
   46DG     C12 1047   0.180   3.473   5.056  0.0756 -0.0699 -0.6835
   46DG     H13 1048   0.626   3.612   5.199  1.3736  0.1771  1.2920
   46DG     H14 1049   0.691   3.465   5.274  1.2047  1.3749 -0.5468
   46DG     H15 1050   0.074   3.460   5.076  0.5089 -1.7866  0.7367
   46DG     H16 1051   0.202   3.569   5.009  0.1398 -0.4698 -1.4833
   46DG     C17 1052   0.483   3.465   5.262  0.7334 -0.2718 -0.3332
   46DG     C18 1053   0.248   3.458   5.194 -0.7875 -0.0255 -0.4601
   46DG     O19 1054   0.386   3.494   5.163  0.7045 -0.1454 -0.2168
   46DG     H20 1055   0.474   3.526   5.352  0.3217 -0.0553 -0.5191
   46DG     H21 1056   0.494   3.361   5.292 -4.3429 -1.0475 -0.3280
   46DG     H22 1057   0.203   3.530   5.262 -1.2295  1.2417 -2.0065
   46DG     H23 1058   0.232   3.361   5.241  1.4586  0.5562  1.6905
   47DG      C1 1059   5.134   1.128   4.189 -0.5216  0.1555  0.1367
   47DG      C2 1060   5.557   1.507   3.881  0.0748 -0.0242 -0.1288
   47DG      H3 1061   5.221   1.074   4.227 -1.0153 -0.3093  0.6271
   47DG      H4 1062   5.108   1.097   4.088 -0.9856 -0.3787  0.4203
   47DG      H5 1063   5.049   1.092   4.246 -0.2038  0.3705  0.7510
   47DG      H6 1064   5.655   1.506   3.929  0.3529  0.6803 -0.6604
   47DG      H7 1065   5.558   1.427   3.807 -0.3222 -0.3622  0.2215
   47DG      H8 1066   5.547   1.599   3.824  2.2748 -0.8731 -2.0522
   47DG      O9 1067   5.154   1.269   4.192 -0.2176  0.2679 -0.0946
   47DG     O10 1068   5.455   1.498   3.985 -0.5551  0.6424  0.5103
   47DG     C11 1069   5.173   1.317   4.324 -0.2090  0.1483 -0.4364
   47DG     C12 1070   5.470   1.602   4.083  0.1180  0.1184  1.0951
   47DG     H13 1071   5.254   1.262   4.371 -0.5612 -0.2134 -0.2481
   47DG     H14 1072   5.083   1.296   4.381 -1.4422  0.9279 -2.0147
   47DG     H15 1073   5.476   1.698   4.031  2.4345 -1.2885 -1.4872
   47DG     H16 1074   5.564   1.586   4.135  0.5683  0.7236  0.4916
   47DG     C17 1075   5.205   1.466   4.306 -0.1342 -0.8923  0.7407
   47DG     C18 1076   5.349   1.611   4.185 -0.1583 -0.4428 -0.4723
   47DG     O19 1077   5.329   1.485   4.242 -0.7940 -0.2559  0.2812
   47DG     H20 1078   5.218   1.522   4.399  0.0107  0.3667 -0.0052
   47DG     H21 1079   5.127   1.498   4.236  0.5833 -1.2418 -0.2395
   47DG     H22 1080   5.364   1.687   4.262  0.8926 -3.3457  2.4387
   47DG     H23 1081   5.260   1.632   4.125 -1.0891 -3.2225 -0.2277
   48DG      C1 1082   4.401   0.999   0.229  0.1636  1.0609  0.5184
   48DG      C2 1083   4.852   1.297   0.646  0.2419  0.7286 -0.1274
   48DG      H3 1084   4.372   0.937   0.313 -2.6738  0.1257 -1.0082
   48DG      H4 1085   4.367   0.948   0.139 -1.1007  1.0808  0.9728
   48DG      H5 1086   4.362   1.100   0.239  1.0268  1.4226  0.3340
   48DG      H6 1087   4.841   1.382   0.580  0.4473 -0.1755 -1.3516
   48DG      H7 1088   4.771   1.312   0.718  1.9999  2.0611  1.6551
   48DG      H8 1089   4.950   1.301   0.694 -0.1138  1.7133  0.5566
   48DG      O9 1090   4.537   1.015   0.228 -0.6034 -0.2207  0.0748
   48DG     O10 1091   4.839   1.173   0.569 -0.3525 -0.5536 -0.3125
   48DG     C11 1092   4.606   0.896   0.221  0.1602  0.3707  0.0978
   48DG     C12 1093   4.916   1.179   0.445 -0.9500 -0.2247 -0.3578
   48DG     H13 1094   4.594   0.847   0.125  0.6946 -0.0895  0.2542
   48DG     H14 1095   4.594   0.837   0.312  0.8849 -0.8048 -0.5328
   48DG     H15 1096   5.022   1.201   0.453 -1.0182 -0.1570  0.3898
   48DG     H16 1097   4.879   1.258   0.379 -2.7864 -1.8998 -1.4468
   48DG     C17 1098   4.755   0.945   0.227  0.0875  0.1394 -0.5107
   48DG     C18 1099   4.921   1.041   0.369  0.9996  0.0370 -0.6486
   48DG     O19 1100   4.786   0.999   0.349 -0.8858 -0.2272  0.5104
   48DG     H20 1101   4.767   1.019   0.149  0.5056 -1.2440 -1.7915
   48DG     H21 1102   4.833   0.870   0.217  0.8410  1.0310 -1.4761
   48DG     H22 1103   4.990   1.022   0.286  1.0654 -0.9911 -0.3781
   48DG     H23 1104   4.951   0.961   0.436  0.6090 -1.2837 -1.9861
   49DG      C1 1105   4.671   3.146   3.226 -0.0820 -0.5191 -0.4146
   49DG      C2 1106   4.518   2.810   3.812 -0.7031 -0.3602 -0.3027
   49DG      H3 1107   4.671   3.247   3.267 -1.7792 -0.7941  0.3635
   49DG      H4 1108   4.678   3.153   3.118 -2.5312 -2.1009 -0.7642
   49DG      H5 1109   4.764   3.098   3.257  0.3753 -1.1210 -2.5567
   49DG      H6 1110   4.527   2.904   3.867  3.4803  0.2277 -1.6308
   49DG      H7 1111   4.501   2.715   3.862  0.2049 -0.8052 -0.7999
   49DG      H8 1112   4.621   2.793   3.780 -0.8157 -0.3560 -0.6817
   49DG      O9 1113   4.560   3.076   3.270  0.3500  0.3882 -0.1611
   49DG     O10 1114   4.443   2.846   3.694 -0.0256 -0.4224  0.0328
   49DG     C11 1115   4.546   2.951   3.219 -0.4445 -0.2644  0.3408
   49DG     C12 1116   4.377   2.745   3.633 -0.0768  0.0433  0.1239
   49DG     H13 1117   4.631   2.886   3.240  1.0161  1.5827  0.4115
   49DG     H14 1118   4.544   2.954   3.110  1.2338  0.4183  0.2974
   49DG     H15 1119   4.301   2.705   3.700 -2.0687  0.0650 -2.0256
   49DG     H16 1120   4.459   2.675   3.617  0.2661  0.0744  1.6114
   49DG     C17 1121   4.425   2.874   3.284 -0.5234 -0.2560  0.0410
   49DG     C18 1122   4.330   2.798   3.496  0.9550  0.7206 -0.6139
   49DG     O19 1123   4.446   2.836   3.416 -0.0115 -0.4678  0.4868
   49DG     H20 1124   4.398   2.793   3.217  0.4475  0.1445 -0.8596
   49DG     H21 1125   4.332   2.931   3.283 -0.1755  0.3456  0.9490
   49DG     H22 1126   4.272   2.715   3.458 -0.2518  1.2379  0.0366
   49DG     H23 1127   4.256   2.878   3.500 -2.5172 -2.1843 -1.5644
   50DG      C1 1128   5.397   4.155   3.218  0.1660 -0.3663 -0.3355
   50DG      C2 1129   5.952   4.421   3.625 -0.4355  0.1748 -0.5697
   50DG      H3 1130   5.338   4.137   3.308 -0.8471 -1.9330 -1.2881
   50DG      H4 1131   5.411   4.053   3.183  0.2834 -0.3593 -0.3093
   50DG      H5 1132   5.331   4.209   3.151  1.5795  0.9443 -0.7150
   50DG      H6 1133   5.899   4.383   3.713  2.0514  1.5462  1.6797
   50DG      H7 1134   6.047   4.367   3.627  0.2625  1.3857  0.8366
   50DG      H8 1135   5.980   4.520   3.659  1.6986 -0.8390  0.8604
   50DG      O9 1136   5.522   4.219   3.238 -0.5787 -0.4925  0.6281
   50DG     O10 1137   5.880   4.415   3.505  0.2727 -0.3630 -0.6710
   50DG     C11 1138   5.612   4.229   3.123  0.4814  0.2424  0.2855
   50DG     C12 1139   5.962   4.418   3.388  0.3823 -1.0742 -0.6498
   50DG     H13 1140   5.554   4.242   3.031 -0.9361  0.1463  1.1350
   50DG     H14 1141   5.674   4.140   3.112  1.0714  0.9277 -2.6419
   50DG     H15 1142   6.033   4.336   3.374  0.8857 -0.7463 -0.0766
   50DG     H16 1143   6.028   4.504   3.400  1.3751 -1.9758  0.7165
   50DG     C17 1144   5.687   4.357   3.149  0.1703 -0.4260  0.4035
   50DG     C18 1145   5.876   4.432   3.261  0.0402 -0.4964 -0.3257
   50DG     O19 1146   5.781   4.331   3.256 -0.0065 -0.5957  0.0992
   50DG     H20 1147   5.623   4.440   3.177  0.0037  0.0396 -1.2576
   50DG     H21 1148   5.743   4.393   3.063 -0.4234  1.0251  0.6062
   50DG     H22 1149   5.821   4.527   3.263 -0.4187 -0.7275 -1.2451
   50DG     H23 1150   5.937   4.440   3.171 -0.6339 -1.2755 -0.8651
   51DG      C1 1151   5.121   5.491   0.991  0.0622 -0.2642  0.6367
   51DG      C2 1152   5.272   4.794   1.055 -0.7190  0.2974 -0.4714
   51DG      H3 1153   5.182   5.551   1.058 -0.4410  0.6064  0.3340
   51DG      H4 1154   5.031   5.551   0.977  1.6905  2.1194 -0.2418
   51DG      H5 1155   5.176   5.501   0.897 -0.5648  0.2813  0.3189
   51DG      H6 1156   5.334   4.781   1.144 -1.2797 -0.4410 -0.1786
   51DG      H7 1157   5.219   4.701   1.032  2.4749 -1.6092 -0.8607
   51DG      H8 1158   5.332   4.816   0.967  1.1204 -1.4428  0.2515
   51DG      O9 1159   5.105   5.356   1.035  0.8643  0.1222 -0.1460
   51DG     O10 1160   5.177   4.892   1.087 -0.0011  0.3206  0.2599
   51DG     C11 1161   5.067   5.357   1.173 -0.3939 -0.4100 -0.3993
   51DG     C12 1162   5.122   4.885   1.214 -0.0587  0.0560 -0.0279
   51DG     H13 1163   5.004   5.438   1.210  1.1641  0.1936  1.0637
   51DG     H14 1164   5.157   5.369   1.234 -0.4215 -0.2876 -0.3827
   51DG     H15 1165   5.203   4.893   1.286  0.2497 -3.4092  0.1876
   51DG     H16 1166   5.077   4.787   1.229  1.2432 -0.4082  1.0206
   51DG     C17 1167   4.987   5.228   1.195 -0.5362  0.0361 -0.0424
   51DG     C18 1168   5.016   4.992   1.241  0.1555 -0.3054 -0.6955
   51DG     O19 1169   5.073   5.113   1.178 -0.3187 -0.2350 -0.2573
   51DG     H20 1170   4.905   5.216   1.124 -0.4917 -1.6740  0.1624
   51DG     H21 1171   4.942   5.237   1.294  1.4287 -0.2208  0.9395
   51DG     H22 1172   4.912   4.970   1.220 -0.3380 -1.3110  2.2638
   51DG     H23 1173   5.011   5.007   1.349  0.0445 -2.7730 -0.2937
   52DG      C1 1174   2.114   4.315   4.272 -0.4646  0.2919  0.5784
   52DG      C2 1175   2.662   4.032   4.694 -0.6283 -0.1856 -0.1744
   52DG      H3 1176   2.125   4.423   4.289  0.5508 -0.0644  2.3922
   52DG      H4 1177   2.048   4.277   4.349  1.8072 -2.2543  1.4126
   52DG      H5 1178   2.073   4.282   4.176  1.0183  0.5326 -0.1676
   52DG      H6 1179   2.713   4.102   4.761  0.4729  0.8104 -1.9545
   52DG      H7 1180   2.583   3.976   4.743 -0.7987  0.1775 -0.0237
   52DG      H8 1181   2.740   3.962   4.663  1.2169  1.8211 -0.3249
   52DG      O9 1182   2.242   4.259   4.301 -0.0016 -0.2731 -0.1358
   52DG     O10 1183   2.608   4.095   4.577  0.8085 -0.1372  0.1458
   52DG     C11 1184   2.337   4.298   4.202 -0.0388 -0.2468  0.5156
   52DG     C12 1185   2.706   4.164   4.497 -0.2170  0.1646 -0.4968
   52DG     H13 1186   2.351   4.406   4.202  2.3397 -0.5114  0.2013
   52DG     H14 1187   2.309   4.275   4.100  0.5498 -2.2143  0.7543
   52DG     H15 1188   2.798   4.106   4.487 -0.3816 -0.0159 -0.9923
   52DG     H16 1189   2.728   4.268   4.522  3.4608 -0.3352 -1.0040
   52DG     C17 1190   2.470   4.218   4.223  0.0067  0.0676 -0.0163
   52DG     C18 1191   2.654   4.171   4.353  0.3159  0.0940 -0.0031
   52DG     O19 1192   2.528   4.226   4.360  0.1407 -0.4914  0.1885
   52DG     H20 1193   2.538   4.272   4.158 -2.4417  0.2918 -2.5590
   52DG     H21 1194   2.451   4.116   4.190 -1.8618  0.4677 -0.2834
   52DG     H22 1195   2.722   4.222   4.285  1.9373  0.6158  1.9039
   52DG     H23 1196   2.639   4.072   4.310  2.9477 -0.4029  0.0518
   53DG      C1 1197   2.112   3.482   1.644  0.0595  0.1442  0.1077
   53DG      C2 1198   2.424   3.999   1.677  0.1447  0.1867 -0.5763
   53DG      H3 1199   2.204   3.470   1.701  0.8937  1.3477 -0.9524
   53DG      H4 1200   2.135   3.433   1.550  0.7513 -0.7563  0.7235
   53DG      H5 1201   2.020   3.447   1.691 -0.1650 -0.1909 -0.5729
   53DG      H6 1202   2.475   3.973   1.584 -2.4667  1.5335 -2.5037
   53DG      H7 1203   2.429   4.107   1.663  0.1864  0.1558 -0.7984
   53DG      H8 1204   2.480   3.967   1.765 -1.4887  0.6732  0.6836
   53DG      O9 1205   2.113   3.617   1.606 -0.4761  0.1661 -1.0227
   53DG     O10 1206   2.290   3.953   1.675 -0.6643 -0.7131  0.5092
   53DG     C11 1207   2.007   3.643   1.517  0.2068 -0.8719 -0.0973
   53DG     C12 1208   2.222   4.032   1.572 -0.5939  0.3631 -0.5984
   53DG     H13 1209   1.907   3.630   1.557  0.3849  0.5267  0.8794
   53DG     H14 1210   2.002   3.582   1.427  0.0610 -2.1259  0.7474
   53DG     H15 1211   2.248   3.988   1.476 -2.1019 -1.1543 -0.3701
   53DG     H16 1212   2.229   4.140   1.577  0.6901  0.2800 -0.2664
   53DG     C17 1213   2.023   3.791   1.490 -0.6551  0.4098  0.3504
   53DG     C18 1214   2.074   4.003   1.587 -0.6807 -0.1173 -0.4250
   53DG     O19 1215   2.042   3.870   1.608  0.3768  0.2527  0.0118
   53DG     H20 1216   1.932   3.812   1.434 -0.0664  1.4509 -0.2414
   53DG     H21 1217   2.103   3.808   1.418 -0.0198  1.5150  1.2801
   53DG     H22 1218   2.039   4.041   1.683  1.2664  1.3950 -0.2517
   53DG     H23 1219   2.015   4.051   1.510  0.3921  1.3106 -0.4031
   54DG      C1 1220   2.540   4.357   4.920  0.0295  0.2660  0.6085
   54DG      C2 1221   2.459   4.619   4.637 -0.3803  0.4570  0.0413
   54DG      H3 1222   2.644   4.374   4.890 -0.5634  1.3622 -0.9554
   54DG      H4 1223   2.535   4.363   5.028  0.9456  0.2714  0.6631
   54DG      H5 1224   2.491   4.442   4.872  0.1824 -0.1530 -0.3071
   54DG      H6 1225   2.556   4.578   4.608 -2.3741 -1.9847 -4.1277
   54DG      H7 1226   2.426   4.699   4.570 -0.3851  0.3756 -0.0531
   54DG      H8 1227   2.462   4.665   4.736 -1.3073 -1.3823  0.9628
   54DG      O9 1228   2.491   4.247   4.849  0.5253  0.0692 -0.2582
   54DG     O10 1229   2.373   4.508   4.643  0.1560 -1.3105  0.0057
   54DG     C11 1230   2.371   4.193   4.904 -0.2533 -0.4465 -0.5790
   54DG     C12 1231   2.252   4.543   4.697  0.0734  0.6751 -0.3470
   54DG     H13 1232   2.385   4.177   5.011  1.5943  0.9438 -0.5722
   54DG     H14 1233   2.352   4.093   4.865  0.2532 -0.4005 -0.9557
   54DG     H15 1234   2.197   4.623   4.648  0.7786  0.9997 -0.6080
   54DG     H16 1235   2.271   4.583   4.797  1.9648  0.4221 -0.5776
   54DG     C17 1236   2.255   4.288   4.880  0.2613  0.5894  0.0423
   54DG     C18 1237   2.159   4.415   4.702 -0.4026  0.4617 -0.3799
   54DG     O19 1238   2.238   4.305   4.740 -0.3230 -0.5469  0.1521
   54DG     H20 1239   2.250   4.383   4.933  1.5382  0.6064  0.1588
   54DG     H21 1240   2.166   4.238   4.919  1.2622 -1.2239  0.1018
   54DG     H22 1241   2.077   4.420   4.775  1.4250  0.1221  1.8149
   54DG     H23 1242   2.109   4.404   4.606  0.2763 -1.3472 -0.5635
   55DG      C1 1243   0.044   1.750   1.221 -0.3189  0.2903 -0.0079
   55DG      C2 1244  -0.401   1.539   1.660  0.6968  0.2612 -0.1367
   55DG      H3 1245   0.083   1.648   1.228  0.7117  0.7954  3.7017
   55DG      H4 1246   0.113   1.810   1.163  1.6209 -2.1385 -0.3657
   55DG      H5 1247  -0.053   1.747   1.171 -0.0891  0.0174 -0.4347
   55DG      H6 1248  -0.461   1.548   1.750 -0.2037  0.8037 -0.7726
   55DG      H7 1249  -0.478   1.528   1.583  0.0975  0.4226  0.4315
   55DG      H8 1250  -0.350   1.444   1.665 -0.3907 -0.2911  1.1333
   55DG      O9 1251   0.018   1.793   1.351  0.2015  0.2702  0.3537
   55DG     O10 1252  -0.313   1.648   1.634 -0.4625 -0.0481 -0.5707
   55DG     C11 1253  -0.018   1.928   1.346 -0.1688 -0.0142  0.3727
   55DG     C12 1254  -0.382   1.775   1.638 -0.4453  0.4749 -0.6644
   55DG     H13 1255  -0.071   1.958   1.256 -0.8831 -0.9358  0.4647
   55DG     H14 1256   0.075   1.984   1.337 -0.1151 -0.0124  0.8825
   55DG     H15 1257  -0.432   1.789   1.734  3.9524  2.7343  1.6468
   55DG     H16 1258  -0.449   1.775   1.553 -0.9313 -0.5242 -0.2949
   55DG     C17 1259  -0.095   1.959   1.474  0.0303  0.4767  0.5604
   55DG     C18 1260  -0.290   1.886   1.611 -0.3903 -0.4701 -0.1191
   55DG     O19 1261  -0.194   1.853   1.500  0.2716 -0.1978 -0.5140
   55DG     H20 1262  -0.145   2.055   1.471 -0.5650  0.2126  1.3661
   55DG     H21 1263  -0.024   1.967   1.558 -0.1328  0.2229  0.7233
   55DG     H22 1264  -0.341   1.977   1.583  1.5095  0.5111 -0.5947
   55DG     H23 1265  -0.227   1.902   1.699 -1.5489  0.7388  0.5283
   56DG      C1 1266   1.707   1.096   2.102 -0.0135  0.0412  0.0569
   56DG      C2 1267   2.094   1.424   2.598 -0.0577  0.7119  0.1367
   56DG      H3 1268   1.663   1.096   2.003  0.6027 -2.8473 -0.3063
   56DG      H4 1269   1.630   1.092   2.179  0.1329  1.1480  0.2665
   56DG      H5 1270   1.773   1.009   2.107  1.6151  1.0013 -2.5450
   56DG      H6 1271   2.168   1.344   2.593  0.0068  0.7530  0.3996
   56DG      H7 1272   2.139   1.514   2.641  0.1115  0.4526  0.5161
   56DG      H8 1273   2.016   1.379   2.660 -0.2222  1.0148  0.1492
   56DG      O9 1274   1.780   1.215   2.129 -0.6441  0.4094 -0.1064
   56DG     O10 1275   2.048   1.457   2.464  0.0376 -0.5454 -0.2413
   56DG     C11 1276   1.698   1.333   2.131 -0.1213 -0.5602 -0.4114
   56DG     C12 1277   1.959   1.565   2.459 -0.5031  0.7200 -0.6747
   56DG     H13 1278   1.624   1.324   2.211 -1.3919  0.5740 -1.4209
   56DG     H14 1279   1.640   1.325   2.039  0.5431 -0.3855 -0.8484
   56DG     H15 1280   2.003   1.660   2.489 -0.4417  0.1689  1.1236
   56DG     H16 1281   1.868   1.547   2.518  0.2444  0.6551  0.4821
   56DG     C17 1282   1.766   1.467   2.161 -0.1084  0.2741  0.0042
   56DG     C18 1283   1.903   1.573   2.318  0.8581 -0.2450  0.3661
   56DG     O19 1284   1.829   1.453   2.288 -0.3294 -0.3369  0.5665
   56DG     H20 1285   1.705   1.557   2.154  2.8559  2.7542  2.7761
   56DG     H21 1286   1.844   1.479   2.085  1.1127  0.2195  1.2223
   56DG     H22 1287   1.833   1.657   2.317  1.5760  0.3857 -0.8905
   56DG     H23 1288   1.970   1.586   2.233 -0.6103 -0.9892 -0.9715
   57DG      C1 1289   1.055   2.237   5.218 -0.2204  0.1096 -0.9319
   57DG      C2 1290   1.406   2.693   4.878  0.2886 -0.6371  0.3714
   57DG      H3 1291   1.043   2.139   5.264 -0.9770  0.2882 -0.7281
   57DG      H4 1292   0.980   2.252   5.140 -0.4402 -0.1628 -0.7755
   57DG      H5 1293   1.032   2.281   5.315 -1.0312 -2.2296 -0.0138
   57DG      H6 1294   1.507   2.734   4.874  0.1835 -0.4007  0.0226
   57DG      H7 1295   1.356   2.713   4.783  1.6934  0.8763 -0.1035
   57DG      H8 1296   1.358   2.760   4.949  1.4250 -0.6213  1.1581
   57DG      O9 1297   1.195   2.258   5.176 -0.0499  0.8880 -0.4597
   57DG     O10 1298   1.413   2.565   4.931  0.1419  0.4301  0.0200
   57DG     C11 1299   1.230   2.154   5.084  1.2742 -0.1679 -0.0427
   57DG     C12 1300   1.479   2.469   4.849  0.7757 -0.7960 -0.0297
   57DG     H13 1301   1.159   2.148   5.001  1.0118 -0.1342  0.1783
   57DG     H14 1302   1.222   2.067   5.149  2.6085  0.2643  0.7481
   57DG     H15 1303   1.576   2.499   4.810 -0.6435  1.0083 -2.4765
   57DG     H16 1304   1.414   2.466   4.762 -0.0772  3.6688  0.2103
   57DG     C17 1305   1.362   2.164   5.017  0.4842 -0.1792  0.2411
   57DG     C18 1306   1.483   2.328   4.901 -0.0206 -0.7762 -0.8000
   57DG     O19 1307   1.360   2.297   4.971  0.9035 -0.2691  0.2140
   57DG     H20 1308   1.376   2.094   4.935 -0.8610  1.0337 -1.0822
   57DG     H21 1309   1.450   2.158   5.081  0.5571  0.3926  0.2006
   57DG     H22 1310   1.499   2.258   4.819 -2.2177 -0.7792 -1.2793
   57DG     H23 1311   1.569   2.336   4.969 -1.4814 -1.4490  1.2185
   58DG      C1 1312   0.815   3.084   1.128  0.3516  0.2234 -0.3709
   58DG      C2 1313   1.157   3.248   1.688  0.2009 -0.2172 -0.1913
   58DG      H3 1314   0.745   3.158   1.168  1.9982  2.9659 -2.2123
   58DG      H4 1315   0.765   3.023   1.053  0.7629 -1.3893  0.6138
   58DG      H5 1316   0.895   3.140   1.080 -0.2292  1.3567 -0.0697
   58DG      H6 1317   1.069   3.313   1.692  0.1446 -0.2720 -0.5106
   58DG      H7 1318   1.200   3.236   1.787  1.3261  0.9601 -0.5206
   58DG      H8 1319   1.233   3.298   1.628  1.3903 -0.3062  1.1862
   58DG      O9 1320   0.886   3.013   1.227 -0.2663  0.6095  0.3565
   58DG     O10 1321   1.119   3.133   1.621  0.7160 -0.7406  0.1706
   58DG     C11 1322   0.983   2.926   1.179 -0.0720  0.0565  0.6742
   58DG     C12 1323   1.236   3.073   1.560  0.1927  0.1645 -0.2580
   58DG     H13 1324   1.053   2.985   1.120 -1.8249  2.1797  0.5991
   58DG     H14 1325   0.941   2.839   1.130 -1.3773  1.4479 -0.7920
   58DG     H15 1326   1.317   3.048   1.627  1.3960 -1.9753 -2.3734
   58DG     H16 1327   1.274   3.141   1.484 -0.8697  0.4448 -0.5561
   58DG     C17 1328   1.070   2.881   1.297  0.1882 -0.3676  0.0230
   58DG     C18 1329   1.203   2.943   1.481  0.8025 -0.2927 -0.1734
   58DG     O19 1330   1.107   2.986   1.382 -0.0426 -0.0069  0.5358
   58DG     H20 1331   1.154   2.820   1.262  0.5255 -0.0577  0.2961
   58DG     H21 1332   1.016   2.806   1.355  1.3812  0.1146  1.8087
   58DG     H22 1333   1.295   2.908   1.435 -0.2802 -0.1670 -2.5628
   58DG     H23 1334   1.153   2.868   1.543  1.9695 -0.4317  0.6255
   59DG      C1 1335   0.860   1.133   4.052  0.0553  0.0988 -0.5632
   59DG      C2 1336   0.224   1.159   3.863  0.2746  0.0761  0.0538
   59DG      H3 1337   0.822   1.172   4.147 -2.9877 -2.6694 -0.4756
   59DG      H4 1338   0.961   1.167   4.029  1.2455 -2.8800 -0.2162
   59DG      H5 1339   0.864   1.024   4.056  0.3063  0.0983 -0.8453
   59DG      H6 1340   0.255   1.258   3.831  0.4710 -0.0287 -0.0850
   59DG      H7 1341   0.120   1.143   3.836  0.0977 -0.0126  0.7686
   59DG      H8 1342   0.233   1.177   3.970  1.3764 -0.4549  0.0721
   59DG      O9 1343   0.772   1.163   3.944  0.1171 -1.0020 -0.0850
   59DG     O10 1344   0.310   1.054   3.838 -0.4293 -0.7965  0.0057
   59DG     C11 1345   0.802   1.115   3.818 -0.0950  0.5395 -0.8436
   59DG     C12 1346   0.361   1.045   3.706 -0.2147  0.0828  0.3334
   59DG     H13 1347   0.790   1.007   3.824 -2.5523  0.6803 -2.0165
   59DG     H14 1348   0.904   1.138   3.788  0.7684 -0.1439  1.3820
   59DG     H15 1349   0.279   1.040   3.634  0.2365 -0.8155 -0.1435
   59DG     H16 1350   0.399   0.943   3.700  3.0778  1.0163  2.6344
   59DG     C17 1351   0.701   1.170   3.723 -0.5797  0.3004 -0.7296
   59DG     C18 1352   0.466   1.149   3.671  0.6337  0.1758  0.2740
   59DG     O19 1353   0.571   1.141   3.769  0.6080  0.1463  0.3443
   59DG     H20 1354   0.723   1.148   3.619 -0.2929  0.2263 -0.6561
   59DG     H21 1355   0.715   1.277   3.740  0.9937  0.1253 -0.7383
   59DG     H22 1356   0.502   1.124   3.571  0.3681  0.4531  0.1080
   59DG     H23 1357   0.439   1.253   3.690 -2.1978 -0.0720 -1.8727
   60DG      C1 1358   2.564   2.526   1.591  0.1142  0.3166  1.0717
   60DG      C2 1359   2.277   2.820   0.972 -0.0813 -0.8479 -0.2882
   60DG      H3 1360   2.605   2.448   1.528 -0.2352 -0.0096  1.2434
   60DG      H4 1361   2.486   2.469   1.642 -0.0964 -2.5140 -2.0861
   60DG      H5 1362   2.650   2.549   1.653  1.2023 -0.0065 -0.2826
   60DG      H6 1363   2.287   2.725   0.921 -1.6684 -2.4511  2.1889
   60DG      H7 1364   2.183   2.864   0.938 -0.7939  0.1054  2.5706
   60DG      H8 1365   2.367   2.876   0.946  0.1363  0.1125  2.2509
   60DG      O9 1366   2.522   2.626   1.505 -0.2317 -0.6141  0.3168
   60DG     O10 1367   2.286   2.785   1.107  0.8816  0.0171 -0.5159
   60DG     C11 1368   2.493   2.737   1.584 -0.6635 -0.0927 -0.8625
   60DG     C12 1369   2.291   2.907   1.187  0.2481 -0.1553 -0.2165
   60DG     H13 1370   2.575   2.808   1.578 -0.1070 -0.4471  1.3988
   60DG     H14 1371   2.475   2.712   1.689  0.2201  3.1670  0.1719
   60DG     H15 1372   2.210   2.963   1.141 -0.9880  0.2533  2.2584
   60DG     H16 1373   2.379   2.962   1.153  0.9870 -2.2057 -1.7418
   60DG     C17 1374   2.372   2.803   1.525 -0.0808  0.0916 -0.9062
   60DG     C18 1375   2.261   2.884   1.330  0.4490 -1.0143  0.8701
   60DG     O19 1376   2.385   2.842   1.392 -0.0405 -0.4269  0.1302
   60DG     H20 1377   2.367   2.900   1.574  0.6567 -0.3285  0.0364
   60DG     H21 1378   2.287   2.740   1.553  0.0549 -1.2569 -3.3254
   60DG     H22 1379   2.213   2.968   1.382  0.9744  0.1400 -0.4673
   60DG     H23 1380   2.183   2.807   1.330 -1.8979  1.0876 -2.4443
   61DG      C1 1381   3.106   1.469   3.080  0.2654 -0.3869  0.3447
   61DG      C2 1382   3.756   1.831   2.952 -0.0309 -0.7242 -0.5158
   61DG      H3 1383   3.157   1.424   3.165 -0.1614 -2.6914 -0.5594
   61DG      H4 1384   3.027   1.401   3.051 -1.4426  1.4386  0.5076
   61DG      H5 1385   3.049   1.556   3.113 -2.2081 -2.2553  1.2603
   61DG      H6 1386   3.834   1.761   2.922 -0.0130 -0.6639 -0.6093
   61DG      H7 1387   3.776   1.929   2.910  0.5094 -0.0183  1.2998
   61DG      H8 1388   3.766   1.840   3.060  1.0532 -1.8897 -0.4958
   61DG      O9 1389   3.204   1.468   2.972  0.8529 -0.0532 -0.1076
   61DG     O10 1390   3.635   1.775   2.909  0.2500 -0.3222 -0.5520
   61DG     C11 1391   3.160   1.567   2.874 -0.5914  0.1299 -0.1690
   61DG     C12 1392   3.525   1.849   2.959 -1.1564 -0.2429 -0.3032
   61DG     H13 1393   3.120   1.657   2.920 -0.3707  0.5931 -0.8825
   61DG     H14 1394   3.088   1.546   2.795 -0.5288  3.1551 -1.1503
   61DG     H15 1395   3.543   1.956   2.944 -2.3268 -0.2802 -2.2153
   61DG     H16 1396   3.510   1.821   3.064 -0.4888  2.9979  0.7860
   61DG     C17 1397   3.286   1.606   2.790 -0.0002 -0.1031 -0.4937
   61DG     C18 1398   3.403   1.816   2.869 -0.0367 -0.7788 -0.2926
   61DG     O19 1399   3.386   1.673   2.877  0.6898 -0.1776  0.5978
   61DG     H20 1400   3.261   1.680   2.714  2.5481 -0.3001 -1.5928
   61DG     H21 1401   3.323   1.513   2.746 -1.7733 -0.0246 -2.2902
   61DG     H22 1402   3.311   1.851   2.917 -2.2832 -3.6986 -2.0987
   61DG     H23 1403   3.412   1.842   2.763 -0.6152 -2.8054 -0.8711
   62DG      C1 1404   0.018   3.824   3.930 -0.2282 -0.6452 -0.4899
   62DG      C2 1405   0.098   3.246   4.340 -0.3927 -0.0587  0.2057
   62DG      H3 1406   0.075   3.895   3.871 -2.9193  1.0694 -1.1832
   62DG      H4 1407  -0.056   3.880   3.986 -1.6343 -1.9908 -0.9249
   62DG      H5 1408  -0.043   3.763   3.862 -2.1108  0.4877  0.1148
   62DG      H6 1409  -0.001   3.218   4.302 -2.4148  0.8815  4.2077
   62DG      H7 1410   0.156   3.155   4.357  0.3156  0.2682 -0.4308
   62DG      H8 1411   0.081   3.293   4.437  0.8808 -0.5061  0.6650
   62DG      O9 1412   0.105   3.734   3.993 -0.0570 -0.6603  0.6426
   62DG     O10 1413   0.157   3.334   4.246 -1.0359  0.4007 -0.4252
   62DG     C11 1414   0.202   3.799   4.073  0.0726 -0.1061 -0.6827
   62DG     C12 1415   0.268   3.398   4.309 -0.1636 -0.3300  0.0158
   62DG     H13 1416   0.163   3.832   4.169 -0.5555  0.3532 -1.0831
   62DG     H14 1417   0.237   3.885   4.016 -0.4949  0.7005  0.1328
   62DG     H15 1418   0.327   3.322   4.359  1.5286 -1.1022 -2.9387
   62DG     H16 1419   0.224   3.462   4.386  0.5468 -0.3925  0.4824
   62DG     C17 1420   0.315   3.706   4.114 -0.5763  0.4161 -0.2155
   62DG     C18 1421   0.349   3.490   4.211  0.3751  0.4790  0.4107
   62DG     O19 1422   0.255   3.581   4.148  0.0638  0.3948  0.5857
   62DG     H20 1423   0.376   3.746   4.195 -0.2217  1.2727 -0.8904
   62DG     H21 1424   0.376   3.689   4.025 -1.4936  1.4694 -1.0775
   62DG     H22 1425   0.431   3.529   4.272 -1.3858 -1.1057  4.0953
   62DG     H23 1426   0.388   3.429   4.130 -1.8154  2.1526 -2.1079
   63DG      C1 1427   4.374   2.420   1.406 -0.9742 -0.2755  0.2626
   63DG      C2 1428   3.662   2.383   1.404 -0.0261 -0.9585 -0.1813
   63DG      H3 1429   4.402   2.318   1.431  0.8885  0.4078  1.1497
   63DG      H4 1430   4.346   2.469   1.499 -0.1744  0.7626 -0.0142
   63DG      H5 1431   4.468   2.464   1.372 -1.0960  0.3139  0.6804
   63DG      H6 1432   3.664   2.447   1.493  1.3371  1.9301 -2.1257
   63DG      H7 1433   3.579   2.418   1.343 -0.7052  0.7951  1.5971
   63DG      H8 1434   3.642   2.285   1.446 -0.6656 -0.6172  0.3368
   63DG      O9 1435   4.264   2.424   1.310 -0.0819  0.1730  0.0840
   63DG     O10 1436   3.779   2.392   1.329 -0.3554  0.1825  0.0340
   63DG     C11 1437   4.243   2.549   1.252  0.9024  0.1986 -0.0334
   63DG     C12 1438   3.773   2.503   1.235 -0.0373  0.1571 -0.3304
   63DG     H13 1439   4.329   2.595   1.205 -0.5600  1.6528 -1.3974
   63DG     H14 1440   4.218   2.619   1.332  0.3333 -0.0336  0.0002
   63DG     H15 1441   3.766   2.597   1.291 -1.8408 -0.3812  0.4231
   63DG     H16 1442   3.679   2.494   1.181 -1.4556 -0.8455  2.1024
   63DG     C17 1443   4.123   2.545   1.157 -0.1489 -0.2539  0.1392
   63DG     C18 1444   3.892   2.507   1.138  0.0575  0.4103 -0.0423
   63DG     O19 1445   4.006   2.514   1.225 -0.2094  0.2300 -0.1101
   63DG     H20 1446   4.132   2.474   1.075 -1.1189  1.0627 -1.1496
   63DG     H21 1447   4.106   2.645   1.119 -1.8149 -0.9256 -1.0079
   63DG     H22 1448   3.894   2.418   1.075  1.7122  0.5185 -0.1802
   63DG     H23 1449   3.882   2.598   1.078  3.6196  0.4987 -0.7083
   64DG      C1 1450   0.045   5.496   0.516 -0.2676  0.0152  0.1016
   64DG      C2 1451  -0.361   5.741   0.051 -0.4297 -0.1476 -0.2415
   64DG      H3 1452   0.044   5.600   0.549  0.2042 -0.1466  0.6440
   64DG      H4 1453   0.143   5.454   0.536 -0.2703 -0.0387  0.0050
   64DG      H5 1454  -0.038   5.458   0.577 -1.3428  2.8290  0.5415
   64DG      H6 1455  -0.411   5.734  -0.046 -0.3636  0.4147 -0.3168
   64DG      H7 1456  -0.432   5.749   0.133 -0.7200  1.6820 -0.6198
   64DG      H8 1457  -0.310   5.837   0.047 -0.5663 -0.0740 -0.2068
   64DG      O9 1458  -0.003   5.480   0.380 -0.1918  0.2913  0.0974
   64DG     O10 1459  -0.263   5.637   0.062  0.0654  0.0884  0.3024
   64DG     C11 1460  -0.015   5.345   0.348 -0.3701  0.1307 -0.2429
   64DG     C12 1461  -0.329   5.513   0.049 -1.1722 -0.3010  0.0061
   64DG     H13 1462  -0.086   5.302   0.418 -1.0370  0.0847 -0.9425
   64DG     H14 1463   0.081   5.294   0.363 -1.3428 -1.9661 -0.7563
   64DG     H15 1464  -0.386   5.506  -0.044 -1.1329  1.1435 -0.1610
   64DG     H16 1465  -0.402   5.489   0.127 -1.3335  0.2591  0.0340
   64DG     C17 1466  -0.056   5.323   0.205  0.0423  0.4833 -0.6251
   64DG     C18 1467  -0.233   5.391   0.057  0.4856  0.2096 -0.4667
   64DG     O19 1468  -0.164   5.407   0.178  0.5257 -0.2571  0.1701
   64DG     H20 1469  -0.079   5.219   0.184  0.6827 -0.0209  1.0675
   64DG     H21 1470   0.030   5.341   0.140 -0.0859  0.0331 -0.9219
   64DG     H22 1471  -0.286   5.296   0.053  1.3594 -0.2588 -2.8357
   64DG     H23 1472  -0.166   5.383  -0.030  1.0111  2.6077 -0.3426
   65DG      C1 1473   5.453   4.682   5.487  0.8364 -0.0555  0.2068
   65DG      C2 1474   4.993   4.356   5.723 -0.1743 -0.4491 -0.3526
   65DG      H3 1475   5.472   4.590   5.431  1.1224  0.3568 -0.3853
   65DG      H4 1476   5.488   4.659   5.588  0.4349  1.3267  0.6896
   65DG      H5 1477   5.510   4.762   5.440  0.3016  0.5170  0.5180
   65DG      H6 1478   4.889   4.337   5.698 -0.5433  1.9090 -0.8576
   65DG      H7 1479   5.052   4.281   5.671 -0.3022  0.1349 -1.3743
   65DG      H8 1480   4.998   4.349   5.832  0.0838  1.2711 -0.2156
   65DG      O9 1481   5.314   4.723   5.487 -0.6333 -0.1441 -0.8897
   65DG     O10 1482   5.038   4.487   5.681 -0.1800  0.1947  0.2033
   65DG     C11 1483   5.292   4.842   5.571 -0.4555 -0.9324  0.1494
   65DG     C12 1484   4.961   4.592   5.741 -0.6290 -0.0886 -0.3053
   65DG     H13 1485   5.335   4.935   5.534 -0.9363 -0.1641  1.4782
   65DG     H14 1486   5.327   4.826   5.673 -0.0645 -1.1319 -0.0163
   65DG     H15 1487   4.935   4.578   5.846  1.2600  0.8208  0.3228
   65DG     H16 1488   4.870   4.603   5.681  0.5639 -1.0632 -2.3807
   65DG     C17 1489   5.143   4.874   5.579  0.4949  0.1100 -0.2108
   65DG     C18 1490   5.021   4.726   5.723 -0.1659 -0.1386 -0.3443
   65DG     O19 1491   5.067   4.753   5.590 -0.3870 -0.1032 -0.1728
   65DG     H20 1492   5.118   4.912   5.480 -0.1359 -2.1948 -0.9958
   65DG     H21 1493   5.118   4.959   5.642 -0.3624  2.2096 -3.1564
   65DG     H22 1494   4.952   4.806   5.749  0.1447  0.5377 -1.5359
   65DG     H23 1495   5.092   4.747   5.803 -2.0783  0.4404  1.2830
   66DG      C1 1496   0.625   1.305   4.665  0.2056  0.7523 -0.3160
   66DG      C2 1497   1.267   1.452   4.823 -0.0674 -0.3251  0.6811
   66DG      H3 1498   0.671   1.224   4.608  3.6345  1.2309  1.5177
   66DG      H4 1499   0.523   1.315   4.629  0.0246 -2.0343 -0.7932
   66DG      H5 1500   0.628   1.277   4.770 -0.1181 -1.1618 -0.7760
   66DG      H6 1501   1.272   1.344   4.809 -0.8908 -0.3580  0.5786
   66DG      H7 1502   1.354   1.507   4.789 -1.0703  2.1695  1.8803
   66DG      H8 1503   1.267   1.474   4.929  2.7263 -1.4731  0.9951
   66DG      O9 1504   0.701   1.418   4.637 -0.4412 -0.0235 -0.2807
   66DG     O10 1505   1.142   1.497   4.765 -0.5034 -0.2510  0.5111
   66DG     C11 1506   0.653   1.540   4.708  0.0062  0.0609  0.0184
   66DG     C12 1507   1.125   1.631   4.797 -0.1060 -0.5910  0.2054
   66DG     H13 1508   0.617   1.525   4.810 -1.8166 -0.7551 -0.7073
   66DG     H14 1509   0.566   1.578   4.655  0.9232 -0.8629 -2.2500
   66DG     H15 1510   1.210   1.673   4.744 -2.2714  2.0170 -1.4958
   66DG     H16 1511   1.124   1.650   4.905 -1.7651 -1.5996  0.4083
   66DG     C17 1512   0.766   1.639   4.684  0.2094  0.6754  0.2178
   66DG     C18 1513   1.000   1.693   4.722 -0.1516  1.1410 -0.4343
   66DG     O19 1514   0.891   1.595   4.734  0.3646 -0.7832 -0.4206
   66DG     H20 1515   0.733   1.737   4.720 -1.4164  0.7489 -1.2944
   66DG     H21 1516   0.778   1.643   4.576  0.3365 -1.8901  0.0765
   66DG     H22 1517   0.979   1.794   4.756 -1.4686  0.3103  1.3517
   66DG     H23 1518   1.036   1.700   4.619  0.5507  1.0579 -0.2028
   67DG      C1 1519   3.086   4.703   2.042  0.5795  0.1636 -0.5624
   67DG      C2 1520   2.962   4.950   1.441  0.5266  0.3742  0.1324
   67DG      H3 1521   3.046   4.607   2.008  0.3102  0.4406 -1.0425
   67DG      H4 1522   3.087   4.708   2.151  0.5149 -0.1415 -0.5458
   67DG      H5 1523   3.184   4.723   1.999 -0.3302  1.8771 -1.9710
   67DG      H6 1524   2.898   4.866   1.415  1.9240 -0.5659 -0.4067
   67DG      H7 1525   2.939   5.035   1.376  1.2861  0.1855 -0.3943
   67DG      H8 1526   3.064   4.920   1.416 -0.4769 -1.8080 -1.7103
   67DG      O9 1527   2.980   4.779   1.992 -0.1052  0.6209 -0.2929
   67DG     O10 1528   2.949   4.978   1.579 -0.0105 -0.1252 -0.3918
   67DG     C11 1529   2.992   4.916   2.027 -0.1528 -0.5145 -0.3414
   67DG     C12 1530   2.823   5.038   1.609  0.3362  0.4039 -0.1498
   67DG     H13 1531   3.085   4.961   1.992 -1.2281  0.4653 -2.1178
   67DG     H14 1532   2.994   4.925   2.135  1.6579  0.9263 -0.4477
   67DG     H15 1533   2.749   4.959   1.601  1.4014 -0.6008 -0.3840
   67DG     H16 1534   2.791   5.113   1.537 -0.4038  0.5310  0.3092
   67DG     C17 1535   2.879   5.002   1.973  0.1815  0.7043 -0.4265
   67DG     C18 1536   2.817   5.093   1.752  0.7364  0.6819 -0.5117
   67DG     O19 1537   2.877   4.985   1.834 -0.2613 -0.3023  0.4997
   67DG     H20 1538   2.905   5.107   1.989  0.0561  0.6302  0.2747
   67DG     H21 1539   2.785   4.989   2.025  0.5661  0.3935  0.1961
   67DG     H22 1540   2.870   5.185   1.772 -1.3444  1.6889  0.7084
   67DG     H23 1541   2.712   5.095   1.781  1.1117  3.3438  0.9662
   68DG      C1 1542   3.704   2.767   0.882  0.0235 -0.5095  0.3755
   68DG      C2 1543   3.767   3.382   1.127  0.9937  0.3823 -0.2002
   68DG      H3 1544   3.721   2.663   0.909 -0.2658  0.0563  2.9803
   68DG      H4 1545   3.787   2.817   0.832  0.9531 -1.6513  0.7558
   68DG      H5 1546   3.615   2.781   0.821  0.2683 -1.1484 -0.1410
   68DG      H6 1547   3.725   3.416   1.032 -0.4266 -1.7823 -0.4106
   68DG      H7 1548   3.689   3.372   1.203 -0.3499 -0.6181 -1.6442
   68DG      H8 1549   3.842   3.456   1.156  1.3050 -0.3728  0.9710
   68DG      O9 1550   3.698   2.846   0.999  0.4025  0.1054  0.5054
   68DG     O10 1551   3.830   3.256   1.111  0.3802  0.0167 -0.0114
   68DG     C11 1552   3.593   2.810   1.079 -0.2389 -0.3060  0.4155
   68DG     C12 1553   3.854   3.186   1.227  0.0095  0.4632  0.0375
   68DG     H13 1554   3.600   2.702   1.093  1.0414 -0.2894  0.0831
   68DG     H14 1555   3.493   2.831   1.040 -1.0488  0.8664  2.9311
   68DG     H15 1556   3.888   3.254   1.305  0.8520  1.0957 -0.8572
   68DG     H16 1557   3.947   3.132   1.206  0.4224  0.4463  1.7516
   68DG     C17 1558   3.617   2.904   1.203 -0.3984 -0.3763  0.1226
   68DG     C18 1559   3.739   3.092   1.281 -0.9317 -0.2797  0.0398
   68DG     O19 1560   3.710   3.018   1.164  0.2011 -0.2310 -0.3126
   68DG     H20 1561   3.665   2.841   1.278  0.8029  0.1559 -0.1580
   68DG     H21 1562   3.529   2.950   1.247 -0.3839  1.0002 -1.1953
   68DG     H22 1563   3.764   3.028   1.366 -0.3704 -1.8662 -1.2741
   68DG     H23 1564   3.653   3.155   1.307 -0.1483  1.2635 -0.9614
   69DG      C1 1565   0.568   5.227   3.520  0.0846  0.2394  0.5295
   69DG      C2 1566   0.730   5.860   3.459 -0.1013 -0.1644 -0.0918
   69DG      H3 1567   0.544   5.233   3.413 -2.5684 -0.0793  1.0418
   69DG      H4 1568   0.546   5.128   3.561 -0.2746 -0.7938 -1.9637
   69DG      H5 1569   0.677   5.231   3.527  0.3820  0.4105 -2.6330
   69DG      H6 1570   0.789   5.925   3.524  0.3066 -0.4863 -0.1326
   69DG      H7 1571   0.795   5.804   3.392 -1.3412 -2.3874  0.4620
   69DG      H8 1572   0.657   5.910   3.395 -2.6642 -1.3546  1.7119
   69DG      O9 1573   0.530   5.343   3.595 -0.2755  0.4175  0.2619
   69DG     O10 1574   0.659   5.762   3.534  0.2278 -0.2697 -0.4454
   69DG     C11 1575   0.397   5.360   3.611 -0.6856 -0.0744 -0.2240
   69DG     C12 1576   0.531   5.815   3.581 -0.6541 -0.2859 -0.5962
   69DG     H13 1577   0.363   5.285   3.682  0.3889  1.5275  2.1559
   69DG     H14 1578   0.352   5.343   3.513  1.6419 -0.1009 -1.3469
   69DG     H15 1579   0.459   5.822   3.498 -0.0899  3.6706 -0.9143
   69DG     H16 1580   0.529   5.916   3.621 -1.5560 -0.3393 -0.4760
   69DG     C17 1581   0.374   5.494   3.678  0.1953 -0.7219 -0.3878
   69DG     C18 1582   0.463   5.716   3.679 -0.3248 -0.3582 -0.6959
   69DG     O19 1583   0.456   5.590   3.614 -0.1707 -0.3441  0.1769
   69DG     H20 1584   0.396   5.493   3.785 -0.2820  0.9546 -0.2509
   69DG     H21 1585   0.267   5.513   3.664  0.0208 -0.7390  0.8130
   69DG     H22 1586   0.522   5.697   3.769 -0.6413 -0.9000 -0.6009
   69DG     H23 1587   0.373   5.763   3.719  1.7145  1.6937  1.8212
   70DG      C1 1588   5.251   2.540   3.699 -0.2443  0.4943 -0.0554
   70DG      C2 1589   4.965   2.016   3.953  0.0644 -0.1007  0.2917
   70DG      H3 1590   5.278   2.524   3.594 -1.9115  0.4569 -0.5130
   70DG      H4 1591   5.306   2.627   3.735 -0.9785  1.0221 -0.1732
   70DG      H5 1592   5.144   2.560   3.706 -0.5307  0.4455 -2.9828
   70DG      H6 1593   4.912   2.004   3.859 -0.3088 -0.0332  0.4932
   70DG      H7 1594   4.966   1.924   4.012  3.4982  0.5352  1.4584
   70DG      H8 1595   4.897   2.078   4.012  1.0976  0.0101  1.4151
   70DG      O9 1596   5.275   2.432   3.788 -0.9535  0.1292 -0.0393
   70DG     O10 1597   5.094   2.076   3.944 -0.0098  0.5648  0.4120
   70DG     C11 1598   5.404   2.377   3.769  0.3984  0.0886 -0.0134
   70DG     C12 1599   5.187   1.987   3.890  0.7829 -0.3477  0.3042
   70DG     H13 1600   5.468   2.463   3.788 -0.7163  1.0585 -0.5521
   70DG     H14 1601   5.416   2.340   3.667  0.1386  2.3994 -0.9353
   70DG     H15 1602   5.162   1.973   3.785  1.0693  0.3216  0.1406
   70DG     H16 1603   5.170   1.888   3.932  0.2149 -0.2157  0.3864
   70DG     C17 1604   5.437   2.256   3.855 -0.1914 -0.0589  0.2734
   70DG     C18 1605   5.331   2.039   3.904  0.6334 -0.5240 -0.7150
   70DG     O19 1606   5.319   2.175   3.858  0.1124 -0.3071  0.2581
   70DG     H20 1607   5.470   2.268   3.959  0.9266 -0.9647  0.0448
   70DG     H21 1608   5.510   2.189   3.810  0.3491  0.9839 -0.4335
   70DG     H22 1609   5.358   2.026   4.009 -0.2375 -1.5514 -0.6080
   70DG     H23 1610   5.402   1.985   3.841 -0.0699 -2.1830 -0.1200
   71DG      C1 1611   5.288   0.994   5.018 -0.5872  0.4192 -0.4588
   71DG      C2 1612   5.465   0.465   4.659  0.7050 -0.1451 -0.2177
   71DG      H3 1613   5.184   1.011   4.989 -0.8981 -0.2127  0.2384
   71DG      H4 1614   5.360   1.039   4.950 -0.8366 -0.4303 -1.2996
   71DG      H5 1615   5.307   1.054   5.107  0.3100  0.3020 -0.5597
   71DG      H6 1616   5.490   0.359   4.653  0.2894 -0.1803 -3.6104
   71DG      H7 1617   5.380   0.483   4.594  1.2155  2.7229 -0.2067
   71DG      H8 1618   5.547   0.532   4.632  0.6578 -0.5528 -1.4379
   71DG      O9 1619   5.328   0.856   5.034  0.0780 -0.1390 -1.0606
   71DG     O10 1620   5.429   0.487   4.797 -0.0960  0.1591  0.0537
   71DG     C11 1621   5.265   0.776   5.123  0.7805  0.2258 -0.2566
   71DG     C12 1622   5.341   0.404   4.863  0.6781  0.4777  0.0833
   71DG     H13 1623   5.157   0.786   5.108  0.7653 -0.2516 -0.5045
   71DG     H14 1624   5.264   0.828   5.219 -1.2071 -1.0435  0.4933
   71DG     H15 1625   5.364   0.298   4.852  0.9964  0.4182  1.2011
   71DG     H16 1626   5.239   0.421   4.829  2.0061  0.8559 -4.1968
   71DG     C17 1627   5.329   0.642   5.133  1.1888 -0.5264 -0.0122
   71DG     C18 1628   5.358   0.443   5.011  0.7991 -0.0355  0.0821
   71DG     O19 1629   5.312   0.576   5.009 -0.2469  0.3391  0.0009
   71DG     H20 1630   5.272   0.580   5.202  0.7057 -0.9752 -0.7985
   71DG     H21 1631   5.433   0.653   5.166  0.6325  1.7398  1.2030
   71DG     H22 1632   5.308   0.386   5.089  2.4168 -0.3380  0.9524
   71DG     H23 1633   5.463   0.443   5.043  0.3986  1.7496  1.5672
   72DG      C1 1634   3.591   3.285   2.132 -0.4645  0.0461  0.2848
   72DG      C2 1635   3.636   2.826   1.613  0.9018 -0.1217 -0.3216
   72DG      H3 1636   3.539   3.380   2.144  1.1125  0.7714  1.8662
   72DG      H4 1637   3.694   3.309   2.104  0.2570 -0.0043  2.6775
   72DG      H5 1638   3.586   3.246   2.234  0.0888 -0.9950 -0.0669
   72DG      H6 1639   3.662   2.734   1.665 -0.0538 -1.0513 -1.4398
   72DG      H7 1640   3.592   2.802   1.516 -0.5145 -0.6717  0.4229
   72DG      H8 1641   3.725   2.881   1.585  1.1352 -1.0090 -1.4028
   72DG      O9 1642   3.522   3.202   2.034 -0.7988  0.2161  0.0252
   72DG     O10 1643   3.552   2.910   1.692 -0.4349  0.1590  0.0911
   72DG     C11 1644   3.384   3.181   2.063  0.5198  0.6609 -0.1036
   72DG     C12 1645   3.428   2.851   1.712 -0.1216 -0.4838 -0.3663
   72DG     H13 1646   3.333   3.276   2.082  1.1901  1.0233 -0.0826
   72DG     H14 1647   3.368   3.112   2.146 -1.9737  2.5826  1.1685
   72DG     H15 1648   3.440   2.762   1.774  1.4843 -0.8101 -1.0810
   72DG     H16 1649   3.372   2.818   1.624 -2.9821  0.2545  1.0631
   72DG     C17 1650   3.315   3.122   1.943 -0.4589 -0.7059  0.1220
   72DG     C18 1651   3.333   2.947   1.784  0.0276  0.0854  0.3989
   72DG     O19 1652   3.392   3.014   1.889  0.0418 -0.0186  0.3986
   72DG     H20 1653   3.292   3.210   1.884 -1.7122 -0.8299  0.3886
   72DG     H21 1654   3.219   3.087   1.982  0.6057 -1.2489  2.4292
   72DG     H22 1655   3.296   3.021   1.713  0.3613  0.4684  0.6213
   72DG     H23 1656   3.245   2.894   1.820  0.1582 -1.0723 -0.9190
   73DG      C1 1657   4.892   1.347   4.045 -0.2115 -0.5995 -0.1497
   73DG      C2 1658   4.826   1.616   3.453  0.7655 -0.1648  0.0150
   73DG      H3 1659   4.875   1.308   4.145  1.3132  0.7925  0.7119
   73DG      H4 1660   4.905   1.451   4.075 -3.1390  0.2346 -1.3964
   73DG      H5 1661   4.992   1.316   4.012  0.1268 -1.8546  1.8857
   73DG      H6 1662   4.791   1.630   3.351  1.9333 -0.8843 -0.5175
   73DG      H7 1663   4.878   1.706   3.486 -0.5243  0.6768 -0.1744
   73DG      H8 1664   4.911   1.547   3.443  2.0751  1.6707 -3.8781
   73DG      O9 1665   4.798   1.362   3.946 -0.6735 -0.3116 -0.2338
   73DG     O10 1666   4.733   1.565   3.554  0.1449 -0.3127  0.1488
   73DG     C11 1667   4.748   1.236   3.901  0.3240  0.3082 -0.5147
   73DG     C12 1668   4.665   1.451   3.500 -0.0292 -0.6647  0.5141
   73DG     H13 1669   4.709   1.178   3.984  1.5999  1.3994  0.9344
   73DG     H14 1670   4.822   1.180   3.845  0.3661  1.5003 -1.7109
   73DG     H15 1671   4.734   1.375   3.464  0.4925 -0.8003  1.7320
   73DG     H16 1672   4.608   1.488   3.415  1.1822  1.2948  0.5086
   73DG     C17 1673   4.631   1.257   3.804 -0.1047  0.2459  0.7874
   73DG     C18 1674   4.584   1.386   3.611  0.0968 -0.6338  0.8451
   73DG     O19 1675   4.681   1.354   3.709 -0.2862  0.2316  0.1835
   73DG     H20 1676   4.540   1.298   3.846 -0.9242  0.6841 -1.3150
   73DG     H21 1677   4.607   1.160   3.761 -1.0558  0.4252  0.9023
   73DG     H22 1678   4.502   1.448   3.647  0.2824 -0.3598  0.7950
   73DG     H23 1679   4.546   1.289   3.579 -1.5525  0.4124 -0.5722
   74DG      C1 1680   2.350   4.442   1.913  0.3433 -0.4834  0.0651
   74DG      C2 1681   1.613   4.411   2.239 -0.8517  0.5519 -0.2586
   74DG      H3 1682   2.407   4.443   2.005  0.3360  2.8920  0.1387
   74DG      H4 1683   2.401   4.509   1.844  0.3363  1.5086  1.9198
   74DG      H5 1684   2.353   4.342   1.868  0.4559  0.4030 -2.0212
   74DG      H6 1685   1.543   4.354   2.178  0.5937 -2.5620  0.7879
   74DG      H7 1686   1.579   4.383   2.339 -2.0903 -1.2810 -1.1453
   74DG      H8 1687   1.603   4.516   2.213  0.5200  0.8384  0.2289
   74DG      O9 1688   2.218   4.481   1.927  0.8488  0.0555 -0.4274
   74DG     O10 1689   1.730   4.343   2.210 -0.5713  0.1651  0.2659
   74DG     C11 1690   2.196   4.596   2.008  0.0370  0.0576  0.1992
   74DG     C12 1691   1.854   4.387   2.260  0.3684  0.6670  0.1176
   74DG     H13 1692   2.241   4.682   1.957  1.2262  1.2220  2.9774
   74DG     H14 1693   2.242   4.594   2.107  1.1742  2.0525 -0.2151
   74DG     H15 1694   1.930   4.314   2.233 -1.3110 -1.1431  0.1198
   74DG     H16 1695   1.845   4.392   2.369  3.8202  0.8527  0.5200
   74DG     C17 1696   2.043   4.597   2.022  0.6155 -0.9647 -0.5053
   74DG     C18 1697   1.895   4.521   2.191 -0.3383  0.2583  0.2671
   74DG     O19 1698   2.006   4.493   2.114  0.8822  0.2157  0.2525
   74DG     H20 1699   1.985   4.588   1.930 -1.5369  3.2581  0.1810
   74DG     H21 1700   2.012   4.694   2.061 -0.4972 -0.8622 -1.5935
   74DG     H22 1701   1.822   4.568   2.125  0.5713  3.0645  1.1065
   74DG     H23 1702   1.912   4.602   2.262  0.2248  0.0216  0.4039
   75DG      C1 1703   0.623   5.323   2.708  0.0639 -0.3324 -0.1016
   75DG      C2 1704   1.124   4.979   2.423  0.5692  0.3790  0.1661
   75DG      H3 1705   0.520   5.339   2.742 -0.1948  2.5402 -1.9177
   75DG      H4 1706   0.617   5.361   2.606 -1.3655 -0.3754 -0.0644
   75DG      H5 1707   0.677   5.402   2.761  0.0599 -0.2161 -0.2694
   75DG      H6 1708   1.145   4.883   2.375  0.1427 -0.7615  2.1548
   75DG      H7 1709   1.123   5.057   2.347  1.1048  1.9753  1.7474
   75DG      H8 1710   1.209   4.998   2.488  0.0222 -1.6893  1.5703
   75DG      O9 1711   0.674   5.193   2.710 -0.0635  0.3874 -0.2255
   75DG     O10 1712   1.006   4.979   2.499 -0.3829 -0.3630  0.1779
   75DG     C11 1713   0.704   5.146   2.843 -0.1411  0.0936  0.1511
   75DG     C12 1714   1.019   4.902   2.617  0.2438 -0.1583  0.1696
   75DG     H13 1715   0.622   5.145   2.914 -1.0728 -2.1897 -0.8571
   75DG     H14 1716   0.789   5.210   2.868 -0.6333  0.0329  2.1108
   75DG     H15 1717   1.078   4.955   2.691 -1.8432  0.7729  1.2442
   75DG     H16 1718   1.069   4.807   2.598 -1.1062 -0.3891 -2.8379
   75DG     C17 1719   0.746   4.999   2.835 -0.1328  0.0583  0.5997
   75DG     C18 1720   0.888   4.869   2.683  0.7054 -0.4622  0.2132
   75DG     O19 1721   0.849   4.998   2.732  0.5280  0.3982 -0.4801
   75DG     H20 1722   0.657   4.943   2.808  0.1664 -0.3574  0.4726
   75DG     H21 1723   0.794   4.971   2.929  1.3861  1.0844  0.1754
   75DG     H22 1724   0.810   4.834   2.615 -0.2218  0.6964  0.6354
   75DG     H23 1725   0.905   4.798   2.764 -0.5028  0.1697  1.0610
   76DG      C1 1726   4.038   0.422   5.066 -0.0414  0.7244  0.4017
   76DG      C2 1727   4.198   1.071   5.300  0.3301 -0.2810 -0.3303
   76DG      H3 1728   4.029   0.381   5.166  3.2570 -0.4960  0.3390
   76DG      H4 1729   4.134   0.390   5.024 -0.1000 -1.6692  1.9034
   76DG      H5 1730   3.960   0.383   5.000  0.4126 -0.0298  0.2952
   76DG      H6 1731   4.185   1.180   5.298 -1.4819 -0.2882  2.8750
   76DG      H7 1732   4.179   1.056   5.406 -0.4621  1.2480 -0.2230
   76DG      H8 1733   4.304   1.053   5.284  0.6013  0.7416  0.2242
   76DG      O9 1734   4.022   0.564   5.043  0.1365  0.1688 -0.3469
   76DG     O10 1735   4.119   0.987   5.221  0.3296  0.3526  0.1235
   76DG     C11 1736   4.057   0.604   4.918  0.2140 -0.4434 -0.0181
   76DG     C12 1737   4.118   1.041   5.091  0.0655 -0.0588  0.1637
   76DG     H13 1738   4.016   0.536   4.843  3.8121 -1.1298 -1.5811
   76DG     H14 1739   4.166   0.603   4.921  0.1917 -1.7200  1.6651
   76DG     H15 1740   4.215   1.045   5.041  0.0910 -0.4898  0.1729
   76DG     H16 1741   4.075   1.141   5.090 -0.4829 -0.2912 -0.1063
   76DG     C17 1742   4.010   0.746   4.891 -0.5938 -0.2092  0.3316
   76DG     C18 1743   4.033   0.966   4.987 -0.8488  0.0682 -0.2588
   76DG     O19 1744   4.080   0.833   4.980  0.4491 -0.1056 -0.0626
   76DG     H20 1745   3.903   0.763   4.898 -0.3923  2.1326 -0.9937
   76DG     H21 1746   4.053   0.771   4.794  1.7861 -0.0332  1.3582
   76DG     H22 1747   3.929   0.963   5.019 -0.5081  0.7949  1.0076
   76DG     H23 1748   4.027   1.014   4.889 -0.0698 -0.2971 -0.4935
   77DG      C1 1749   2.996   0.898   2.735  0.0666  0.2788  0.2720
   77DG      C2 1750   3.396   1.176   2.276 -0.3295 -0.4779  0.3693
   77DG      H3 1751   2.976   1.003   2.757 -0.2452  0.2122  0.3123
   77DG      H4 1752   2.988   0.835   2.823  0.2946 -0.1015  0.0237
   77DG      H5 1753   2.913   0.867   2.671 -0.3747  2.0893 -0.1003
   77DG      H6 1754   3.368   1.266   2.330  1.4027  0.3243  0.0317
   77DG      H7 1755   3.491   1.181   2.221 -0.7786 -4.0029 -1.0321
   77DG      H8 1756   3.308   1.158   2.215  0.3441 -0.2580 -0.6995
   77DG      O9 1757   3.128   0.890   2.683 -0.6612 -0.3694 -0.2349
   77DG     O10 1758   3.413   1.067   2.369  0.5071 -0.3313 -0.5217
   77DG     C11 1759   3.148   0.765   2.615  0.4044  0.6676 -0.4905
   77DG     C12 1760   3.457   0.949   2.300  0.1646  0.0007  0.2697
   77DG     H13 1761   3.077   0.750   2.534  3.1299 -0.2471 -2.8753
   77DG     H14 1762   3.129   0.688   2.689 -1.7657  0.8154 -0.8139
   77DG     H15 1763   3.563   0.968   2.281 -0.0820  0.8833 -0.2852
   77DG     H16 1764   3.393   0.938   2.212 -0.1391 -1.0246  0.6091
   77DG     C17 1765   3.291   0.747   2.564  0.5205  0.4888  0.4462
   77DG     C18 1766   3.439   0.840   2.407  0.3080 -0.7222 -0.5328
   77DG     O19 1767   3.316   0.849   2.470 -0.4090  0.3633 -0.1029
   77DG     H20 1768   3.293   0.651   2.511 -1.5160  0.1896  0.8245
   77DG     H21 1769   3.355   0.735   2.651  0.2591 -1.9959  0.3640
   77DG     H22 1770   3.463   0.741   2.369  1.4694 -0.7565  0.2623
   77DG     H23 1771   3.513   0.858   2.484 -1.0358 -0.4735  0.7455
   78DG      C1 1772   3.756   0.276   4.628 -0.6830 -0.4619  0.5404
   78DG      C2 1773   4.039  -0.468   4.531  1.0523  0.1752 -0.2682
   78DG      H3 1774   3.794   0.347   4.555 -2.5566  0.5302  0.4709
   78DG      H4 1775   3.822   0.268   4.715 -0.9444  1.7691  1.0016
   78DG      H5 1776   3.654   0.296   4.659 -0.4436 -1.5599  2.1406
   78DG      H6 1777   4.014  -0.547   4.460 -0.9489 -1.0642  1.6855
   78DG      H7 1778   4.147  -0.452   4.535  0.7731  2.0003  1.1332
   78DG      H8 1779   4.002  -0.507   4.626 -1.9947  2.0292 -0.5573
   78DG      O9 1780   3.753   0.153   4.569 -0.0170  0.3246  0.3806
   78DG     O10 1781   3.966  -0.348   4.506  0.2458 -0.2048 -0.2020
   78DG     C11 1782   3.882   0.094   4.533 -0.3090  0.7076 -0.7950
   78DG     C12 1783   3.823  -0.360   4.522  0.1841 -0.6917  0.1762
   78DG     H13 1784   3.946   0.077   4.620 -0.5004 -2.0781 -1.0845
   78DG     H14 1785   3.937   0.166   4.474  0.8704  1.8848  1.5815
   78DG     H15 1786   3.804  -0.359   4.630 -0.7227 -2.1681  0.0546
   78DG     H16 1787   3.786  -0.451   4.475  2.1100 -1.8450  0.7936
   78DG     C17 1788   3.856  -0.022   4.440 -0.4325 -0.0884 -0.3948
   78DG     C18 1789   3.761  -0.243   4.443  0.3808  0.7475 -0.3409
   78DG     O19 1790   3.784  -0.121   4.514 -0.1185 -0.0789 -0.8172
   78DG     H20 1791   3.953  -0.064   4.410  0.5817  1.2319  0.8973
   78DG     H21 1792   3.794   0.005   4.354 -3.4259 -0.5664  1.5076
   78DG     H22 1793   3.810  -0.231   4.346 -1.2207  0.3228 -1.2422
   78DG     H23 1794   3.655  -0.265   4.429  0.3435  1.1483 -0.7196
   79DG      C1 1795   0.351   5.294   4.146  0.0407  0.5254  0.5068
   79DG      C2 1796   0.984   5.014   4.204 -0.3152 -0.2118  0.5650
   79DG      H3 1797   0.301   5.240   4.226 -0.4667  0.0015 -0.1577
   79DG      H4 1798   0.280   5.342   4.078  1.1703  0.6922 -0.5993
   79DG      H5 1799   0.402   5.374   4.201  1.6702 -1.4974  2.0889
   79DG      H6 1800   1.039   5.108   4.212 -0.5916  0.0631 -0.5901
   79DG      H7 1801   0.947   5.000   4.306  0.7282 -0.2088  0.9550
   79DG      H8 1802   1.066   4.944   4.191  2.5103  2.7148  1.1896
   79DG      O9 1803   0.440   5.219   4.071 -0.4382 -0.0730  0.0050
   79DG     O10 1804   0.883   5.025   4.101 -0.9283 -0.1145 -0.8006
   79DG     C11 1805   0.390   5.090   4.037  1.2110 -0.3988 -0.1663
   79DG     C12 1806   0.823   4.901   4.070  0.0250  0.1284 -0.6144
   79DG     H13 1807   0.297   5.083   3.981  1.4446 -2.2602 -0.3730
   79DG     H14 1808   0.384   5.036   4.131 -0.3395 -0.3984 -0.2496
   79DG     H15 1809   0.769   4.847   4.148  1.0986 -0.6143 -0.3586
   79DG     H16 1810   0.903   4.837   4.032 -1.0341 -0.2506 -2.3294
   79DG     C17 1811   0.497   5.024   3.953  0.1461  0.4802 -0.0582
   79DG     C18 1812   0.720   4.931   3.955  0.3027 -0.1265  0.1073
   79DG     O19 1813   0.626   5.021   4.014 -0.0579 -0.6072 -0.0243
   79DG     H20 1814   0.518   5.068   3.856  0.5454 -2.1257 -1.2437
   79DG     H21 1815   0.467   4.923   3.923  2.3733 -1.0628  2.4324
   79DG     H22 1816   0.773   4.976   3.872  2.6765  0.5694  1.8924
   79DG     H23 1817   0.672   4.838   3.925  1.7970 -1.6765  2.1727
   80DG      C1 1818   3.025   3.124   0.694 -0.1644  0.6075  0.5243
   80DG      C2 1819   3.080   3.355   0.334  0.4434  0.3190  1.4950
   80DG      H3 1820   2.968   3.136   0.787 -1.1942  0.4074 -0.0720
   80DG      H4 1821   3.082   3.217   0.685  1.4795 -0.3533  0.5137
   80DG      H5 1822   3.101   3.048   0.715 -1.6328 -1.1594 -0.3287
   80DG      H6 1823   3.174   3.356   0.390  1.2486  0.9910  0.1871
   80DG      H7 1824   3.070   3.446   0.275 -3.3636 -0.5885  0.4815
   80DG      H8 1825   2.997   3.362   0.405 -1.0274  1.8979 -0.2967
   80DG      O9 1826   2.955   3.083   0.581  0.1916 -0.3233 -0.7190
   80DG     O10 1827   3.059   3.244   0.244  0.1488 -0.5417 -0.4467
   80DG     C11 1828   2.829   3.151   0.564  0.0403  0.0844  0.5922
   80DG     C12 1829   2.938   3.257   0.166 -0.2666  0.6936 -0.4207
   80DG     H13 1830   2.867   3.252   0.552  0.6332  0.1226  2.4482
   80DG     H14 1831   2.767   3.158   0.654 -2.5123  2.8167 -1.2179
   80DG     H15 1832   2.950   3.189   0.082 -1.0234 -0.3830  0.3036
   80DG     H16 1833   2.915   3.358   0.133 -1.6532  0.7359  0.5906
   80DG     C17 1834   2.757   3.104   0.437  0.1991 -0.4915  0.1313
   80DG     C18 1835   2.811   3.225   0.241  0.0691 -0.1856  0.1237
   80DG     O19 1836   2.835   3.113   0.319 -0.0960 -0.0028  0.3100
   80DG     H20 1837   2.653   3.137   0.426 -0.1594 -0.5397  2.7402
   80DG     H21 1838   2.754   2.996   0.430  2.3030 -0.5010 -1.5547
   80DG     H22 1839   2.792   3.301   0.316 -1.7267  0.5564 -1.0327
   80DG     H23 1840   2.724   3.220   0.176  0.0036  1.4329  0.0508
   81DG      C1 1841   0.355   1.916   1.645  0.6228 -0.4016  0.2118
   81DG      C2 1842   0.844   1.836   1.365  0.0626  0.2134 -0.1719
   81DG      H3 1843   0.422   1.977   1.705  1.0728 -0.8120  0.1409
   81DG      H4 1844   0.284   1.866   1.711 -1.7735  1.8506 -0.5332
   81DG      H5 1845   0.288   1.982   1.591 -0.1233 -1.1472  0.1985
   81DG      H6 1846   0.923   1.817   1.292  1.9683  0.6412  1.6753
   81DG      H7 1847   0.859   1.938   1.400  0.0631 -0.4856  2.0576
   81DG      H8 1848   0.861   1.784   1.460  2.2719  0.7471 -0.2331
   81DG      O9 1849   0.429   1.828   1.563  0.1699 -0.3191  0.2217
   81DG     O10 1850   0.717   1.828   1.309 -0.8745  0.1625 -0.3469
   81DG     C11 1851   0.344   1.743   1.491 -0.0914  0.6343  0.0563
   81DG     C12 1852   0.685   1.706   1.248 -0.2098 -0.2738  0.1892
   81DG     H13 1853   0.266   1.790   1.433  1.4899  0.9219 -1.9468
   81DG     H14 1854   0.295   1.674   1.560 -1.3024  1.5305  0.1177
   81DG     H15 1855   0.699   1.616   1.308 -2.0976 -1.3557 -0.8751
   81DG     H16 1856   0.754   1.689   1.166  1.4746  0.5715  1.3656
   81DG     C17 1857   0.431   1.660   1.399 -0.6359  0.3509  0.4510
   81DG     C18 1858   0.543   1.707   1.194 -0.6251  0.6835 -0.6614
   81DG     O19 1859   0.465   1.758   1.298  0.1687  0.7490  0.9227
   81DG     H20 1860   0.382   1.585   1.338  0.0219  0.2299  0.0585
   81DG     H21 1861   0.517   1.609   1.443  0.2987  1.3272 -0.2016
   81DG     H22 1862   0.524   1.765   1.103  2.5320  2.7669 -0.1861
   81DG     H23 1863   0.512   1.606   1.168  0.3298  0.4012 -0.7495
   82DG      C1 1864   1.472   0.448   1.145 -0.0991 -0.0321 -0.0529
   82DG      C2 1865   1.468   1.073   0.895  1.1156 -0.0726  0.1180
   82DG      H3 1866   1.538   0.494   1.218  0.0177 -0.5915  0.1994
   82DG      H4 1867   1.527   0.437   1.051  3.2967  3.0081  1.3236
   82DG      H5 1868   1.434   0.352   1.180 -0.9859  0.2927 -0.0919
   82DG      H6 1869   1.566   1.087   0.940  0.0855  2.4618  1.8139
   82DG      H7 1870   1.477   1.050   0.789 -2.6278 -1.0001 -0.1712
   82DG      H8 1871   1.415   1.168   0.903  0.9042 -0.3141  2.4160
   82DG      O9 1872   1.368   0.541   1.130  0.1471 -0.3853  0.4237
   82DG     O10 1873   1.377   0.977   0.961  0.2043 -0.3620  0.4131
   82DG     C11 1874   1.259   0.504   1.047 -0.1208 -1.0208  0.5006
   82DG     C12 1875   1.255   0.966   0.885 -0.0941 -0.6897 -0.1693
   82DG     H13 1876   1.202   0.422   1.090  1.7800 -1.6250  2.0329
   82DG     H14 1877   1.302   0.468   0.953 -1.1591  0.4833 -0.5962
   82DG     H15 1878   1.293   0.930   0.790  0.2157 -0.5197 -0.1097
   82DG     H16 1879   1.203   1.062   0.873  1.0261  0.0630  0.7615
   82DG     C17 1880   1.166   0.628   1.019  0.7101 -0.0217 -0.4484
   82DG     C18 1881   1.158   0.863   0.943 -0.2085  0.2238  0.3516
   82DG     O19 1882   1.233   0.742   0.970 -0.7651 -0.5446 -0.1934
   82DG     H20 1883   1.115   0.658   1.111  1.2435 -0.5751  0.0322
   82DG     H21 1884   1.088   0.598   0.949 -2.2342  0.6791  2.3090
   82DG     H22 1885   1.121   0.898   1.039  0.6674 -0.1176  0.8257
   82DG     H23 1886   1.073   0.854   0.876  0.4230  3.3514 -1.0556
   83DG      C1 1887   3.314   1.933   3.506 -0.6568  0.3966 -0.3785
   83DG      C2 1888   2.722   2.176   3.288 -0.0254  0.0001  0.2239
   83DG      H3 1889   3.236   1.885   3.565 -0.7909  1.6573  0.5072
   83DG      H4 1890   3.321   2.031   3.553 -0.9491 -1.1100  3.0573
   83DG      H5 1891   3.413   1.890   3.518 -0.8100  0.4437  1.2891
   83DG      H6 1892   2.657   2.225   3.216 -0.0837 -0.5568 -0.1139
   83DG      H7 1893   2.665   2.102   3.343  0.4308  0.2989  1.1156
   83DG      H8 1894   2.757   2.248   3.362  1.5208  1.4975 -1.8481
   83DG      O9 1895   3.266   1.961   3.376 -0.3352  0.4169  0.3461
   83DG     O10 1896   2.841   2.126   3.231  0.9292 -0.3245  0.4972
   83DG     C11 1897   3.236   1.836   3.307 -0.7680 -0.2779  0.1422
   83DG     C12 1898   2.815   2.012   3.142  0.3927 -0.0730 -0.4292
   83DG     H13 1899   3.173   1.764   3.359 -1.4055 -0.0605 -0.3113
   83DG     H14 1900   3.326   1.779   3.287 -0.4965  0.2035 -0.0232
   83DG     H15 1901   2.768   2.055   3.054 -0.8821 -0.0728  0.2254
   83DG     H16 1902   2.751   1.944   3.197  0.1563  0.7697  0.3732
   83DG     C17 1903   3.160   1.856   3.175  0.2449 -0.0772  0.5138
   83DG     C18 1904   2.950   1.948   3.109  0.0999  0.1543 -0.5055
   83DG     O19 1905   3.036   1.909   3.217  0.2366 -0.2138  0.2196
   83DG     H20 1906   3.156   1.763   3.119 -0.5472  0.6698 -0.7389
   83DG     H21 1907   3.205   1.923   3.101 -1.7604  0.7180 -0.0469
   83DG     H22 1908   2.931   1.853   3.058 -2.2759  0.9126 -1.1473
   83DG     H23 1909   3.004   2.018   3.045 -0.6202  0.6966 -0.5365
   84DG      C1 1910   4.579   0.663   5.298 -0.3221 -0.1089  0.2675
   84DG      C2 1911   4.943   0.096   5.265 -0.8796  0.0697  0.3772
   84DG      H3 1912   4.605   0.761   5.335 -0.7894 -0.2026  0.8457
   84DG      H4 1913   4.541   0.597   5.376  0.5512 -0.1614  0.6518
   84DG      H5 1914   4.510   0.658   5.213 -1.9353 -0.3354  1.5437
   84DG      H6 1915   4.919   0.080   5.370 -1.7941 -1.0863  0.0094
   84DG      H7 1916   4.874   0.046   5.198 -0.6599  1.6316 -1.0752
   84DG      H8 1917   5.042   0.054   5.248 -1.1308 -0.0298 -0.9460
   84DG      O9 1918   4.695   0.592   5.263  0.5652  0.1337 -0.4256
   84DG     O10 1919   4.957   0.230   5.225  0.7092 -0.1454  0.1164
   84DG     C11 1920   4.770   0.661   5.160 -0.2927  0.2888  0.3900
   84DG     C12 1921   5.018   0.261   5.102  1.1147  0.1290 -0.6448
   84DG     H13 1922   4.775   0.769   5.173 -0.3947  0.3902 -0.3605
   84DG     H14 1923   4.722   0.642   5.064  0.9732  0.5424 -0.3210
   84DG     H15 1924   4.948   0.239   5.022 -1.2181  0.8699  1.0711
   84DG     H16 1925   5.119   0.224   5.087  1.2214  0.1409 -0.0027
   84DG     C17 1926   4.918   0.615   5.143 -0.2653 -0.7891 -0.1293
   84DG     C18 1927   5.025   0.410   5.105 -0.1883  0.1087  0.0118
   84DG     O19 1928   4.906   0.473   5.139 -0.0979  0.5168 -0.0641
   84DG     H20 1929   4.977   0.655   5.225  0.3475  1.4171 -1.5470
   84DG     H21 1930   4.963   0.648   5.049 -0.1242 -1.7589 -0.4100
   84DG     H22 1931   5.093   0.443   5.183  1.7882  1.6666 -2.1931
   84DG     H23 1932   5.056   0.436   5.003 -3.1750 -0.1695 -1.0847
   85DG      C1 1933   1.285   3.426   0.743  0.2079  0.3529  0.3598
   85DG      C2 1934   1.791   2.965   0.991  0.0585  0.0567 -0.7819
   85DG      H3 1935   1.280   3.509   0.672  0.4872 -0.6213 -0.8347
   85DG      H4 1936   1.285   3.455   0.848  0.0873 -0.3612  0.5649
   85DG      H5 1937   1.193   3.374   0.715  1.2930 -1.6638  0.4028
   85DG      H6 1938   1.898   2.963   0.970 -0.2634 -2.2562 -2.6582
   85DG      H7 1939   1.773   2.975   1.098  2.2363 -1.5472 -0.2157
   85DG      H8 1940   1.737   2.871   0.976 -0.2393 -0.2601  1.8231
   85DG      O9 1941   1.415   3.369   0.728  0.4459  0.0392 -0.6799
   85DG     O10 1942   1.740   3.062   0.902 -0.2310 -0.0821  0.1521
   85DG     C11 1943   1.447   3.347   0.596  0.6032 -0.7576  0.3613
   85DG     C12 1944   1.755   3.029   0.765  0.2784  0.5351  0.0918
   85DG     H13 1945   1.446   3.437   0.534  0.0712 -1.6611 -0.9929
   85DG     H14 1946   1.374   3.288   0.541 -1.5531 -0.5456  2.7787
   85DG     H15 1947   1.682   2.958   0.724  2.3859 -1.5824 -0.2485
   85DG     H16 1948   1.857   2.991   0.750  0.3854 -0.0872  2.1115
   85DG     C17 1949   1.593   3.309   0.577  0.2237  0.7500 -0.3370
   85DG     C18 1950   1.740   3.153   0.673  0.3957  0.3720 -0.0995
   85DG     O19 1951   1.612   3.203   0.678 -0.3289  0.4596 -0.2283
   85DG     H20 1952   1.668   3.388   0.589 -0.0911  0.6858  3.4516
   85DG     H21 1953   1.604   3.261   0.480 -1.2292  0.2954 -0.3049
   85DG     H22 1954   1.811   3.225   0.715 -0.6334  2.1201 -1.1975
   85DG     H23 1955   1.773   3.121   0.574  0.4732 -0.2644  0.1298
   86DG      C1 1956   0.111   4.791   0.706  0.0895  0.2070 -0.3883
   86DG      C2 1957   0.641   4.516   0.345  0.7115  0.2631 -0.3451
   86DG      H3 1958   0.025   4.800   0.639 -0.8084 -1.3197  0.4971
   86DG      H4 1959   0.091   4.855   0.792 -0.5692  0.7838 -0.9561
   86DG      H5 1960   0.118   4.685   0.733  0.5655  0.4100  0.3141
   86DG      H6 1961   0.697   4.460   0.420 -0.0642  1.2167  0.9744
   86DG      H7 1962   0.561   4.463   0.293  1.4435  0.7125 -1.9737
   86DG      H8 1963   0.714   4.545   0.270  0.5609 -1.8981 -1.4157
   86DG      O9 1964   0.240   4.818   0.646  0.1826 -0.3873  0.1470
   86DG     O10 1965   0.586   4.635   0.410 -0.0402 -0.0808  0.1536
   86DG     C11 1966   0.319   4.889   0.737  0.2312  0.2712  0.2121
   86DG     C12 1967   0.679   4.728   0.460 -0.3164  0.0969 -0.0751
   86DG     H13 1968   0.352   4.835   0.826 -0.2041 -1.6456 -0.7266
   86DG     H14 1969   0.271   4.976   0.782 -0.6035 -0.3985  0.6498
   86DG     H15 1970   0.723   4.770   0.370  1.1467 -1.1680  0.0007
   86DG     H16 1971   0.759   4.682   0.518  0.7882  1.2941 -0.6070
   86DG     C17 1972   0.442   4.941   0.657 -0.1732 -0.0949  0.1803
   86DG     C18 1973   0.611   4.857   0.515 -0.0348 -0.0607 -0.1144
   86DG     O19 1974   0.501   4.825   0.594 -0.0371  0.0694 -0.4454
   86DG     H20 1975   0.519   4.990   0.717 -0.5571 -1.8483  2.1982
   86DG     H21 1976   0.411   5.009   0.577 -2.0385 -1.2883 -0.1557
   86DG     H22 1977   0.683   4.909   0.577 -1.9127  1.9550  0.5153
   86DG     H23 1978   0.568   4.923   0.440 -1.9577 -0.9195  0.1663
   87DG      C1 1979   2.348   4.073   0.282  0.3290 -0.8724  0.0122
   87DG      C2 1980   2.594   4.471   0.735 -0.3671  0.9768  0.4311
   87DG      H3 1981   2.447   4.083   0.238  0.0151 -1.1526 -0.7723
   87DG      H4 1982   2.285   4.149   0.237 -0.2718  0.3067  2.6191
   87DG      H5 1983   2.313   3.977   0.244  0.8362 -0.0587 -2.7300
   87DG      H6 1984   2.580   4.554   0.666 -0.2916  0.3240 -0.3754
   87DG      H7 1985   2.580   4.511   0.836  0.1683 -0.5671  1.1543
   87DG      H8 1986   2.700   4.446   0.733 -0.3633  1.0461 -0.7083
   87DG      O9 1987   2.351   4.081   0.421 -0.9047  0.0260  0.2346
   87DG     O10 1988   2.515   4.354   0.721 -0.3575 -0.0124  0.1946
   87DG     C11 1989   2.419   3.970   0.484  0.0686 -0.1472  0.3010
   87DG     C12 1990   2.542   4.265   0.827  0.4487 -0.1607  0.2674
   87DG     H13 1991   2.521   3.967   0.447  0.5464  1.1807  1.4245
   87DG     H14 1992   2.374   3.876   0.452 -0.9161  0.8456 -1.3373
   87DG     H15 1993   2.509   4.316   0.917 -1.6662 -0.5992 -0.1934
   87DG     H16 1994   2.647   4.238   0.833  0.1114 -1.5244  0.2923
   87DG     C17 1995   2.427   3.977   0.635  0.1006  0.4618  0.3389
   87DG     C18 1996   2.469   4.141   0.793  0.2891  0.1616  0.7175
   87DG     O19 1997   2.498   4.097   0.661  0.1300 -0.4322  0.0184
   87DG     H20 1998   2.464   3.880   0.666  1.9531  0.9773 -0.0815
   87DG     H21 1999   2.321   3.979   0.659 -0.4855  3.1927 -1.8722
   87DG     H22 2000   2.490   4.057   0.860  1.7057 -1.2615 -1.3898
   87DG     H23 2001   2.363   4.165   0.794  0.1461 -0.4548  0.8537
   88DG      C1 2002   2.979   0.303   1.250  0.1788 -0.1608  0.3636
   88DG      C2 2003   3.576  -0.065   1.172  0.5707  0.4514  0.1732
   88DG      H3 2004   2.876   0.322   1.219  0.5971  1.5729 -0.0482
   88DG      H4 2005   3.027   0.401   1.250  0.9857 -0.5478  0.2576
   88DG      H5 2006   2.978   0.277   1.356 -0.1981  0.4195  0.5077
   88DG      H6 2007   3.653   0.011   1.183  1.1035 -0.2444  1.4907
   88DG      H7 2008   3.548  -0.094   1.273 -0.9874 -1.2969 -0.6881
   88DG      H8 2009   3.615  -0.150   1.114 -1.8411 -0.1310 -0.6955
   88DG      O9 2010   3.042   0.215   1.156  0.1611  0.3293 -0.4681
   88DG     O10 2011   3.459  -0.018   1.107  0.4280 -0.0523  0.5435
   88DG     C11 2012   3.088   0.282   1.041 -0.1378  0.2801 -0.5161
   88DG     C12 2013   3.462   0.011   0.965 -0.8338  0.3211  0.2885
   88DG     H13 2014   3.163   0.356   1.068  2.1072 -1.5445 -1.4431
   88DG     H14 2015   3.005   0.340   1.001  0.2934 -0.2142 -2.2085
   88DG     H15 2016   3.505  -0.075   0.913 -0.5362 -0.3231  1.5611
   88DG     H16 2017   3.522   0.100   0.945  0.2978 -0.2464  1.0618
   88DG     C17 2018   3.136   0.172   0.935 -0.2250  0.0976  0.1541
   88DG     C18 2019   3.322   0.030   0.909  0.3451  0.0799  0.4280
   88DG     O19 2020   3.244   0.108   0.998  0.4524  0.3221 -0.1938
   88DG     H20 2021   3.161   0.217   0.838 -1.8307 -0.7321 -0.6846
   88DG     H21 2022   3.054   0.103   0.921 -0.1465  0.5462 -3.4036
   88DG     H22 2023   3.335   0.079   0.813 -1.3103 -1.7858 -0.8128
   88DG     H23 2024   3.265  -0.059   0.882  0.9410  0.6408 -3.2051
   89DG      C1 2025   5.007   4.254   3.140 -0.8200 -0.3700 -0.3548
   89DG      C2 2026   4.676   4.503   3.683  0.0452 -0.3192 -0.4442
   89DG      H3 2027   5.099   4.217   3.095  0.0054  0.2027  0.8047
   89DG      H4 2028   5.017   4.361   3.120 -0.7599 -0.2057  0.5297
   89DG      H5 2029   4.925   4.218   3.078  0.5766 -0.2486 -2.3874
   89DG      H6 2030   4.656   4.531   3.786 -1.6782 -1.6389 -0.3750
   89DG      H7 2031   4.697   4.596   3.630  0.8932 -0.4707 -0.3866
   89DG      H8 2032   4.580   4.463   3.651 -0.8043  0.8918  0.4726
   89DG      O9 2033   5.004   4.239   3.287 -0.7240 -0.0248  0.0286
   89DG     O10 2034   4.772   4.414   3.645 -0.4185 -0.1243 -0.7259
   89DG     C11 2035   4.981   4.104   3.323 -0.7621 -0.3656  0.5185
   89DG     C12 2036   4.766   4.292   3.723 -0.1768 -0.1072 -0.2585
   89DG     H13 2037   5.065   4.046   3.285 -0.4935 -0.5648  1.3876
   89DG     H14 2038   4.888   4.066   3.280  0.3320 -3.1837  0.4415
   89DG     H15 2039   4.669   4.243   3.715  0.2205 -0.7975 -1.0067
   89DG     H16 2040   4.779   4.314   3.829  0.8250 -1.6874 -0.0092
   89DG     C17 2041   4.979   4.092   3.477  0.1951  0.9941  0.5337
   89DG     C18 2042   4.877   4.196   3.673  0.1475  0.4730  1.1381
   89DG     O19 2043   4.877   4.189   3.531 -0.5434  0.1686  0.5703
   89DG     H20 2044   5.076   4.094   3.525 -0.5910  1.6751  2.1602
   89DG     H21 2045   4.941   3.996   3.512 -0.3814  2.0849  3.1542
   89DG     H22 2046   4.975   4.235   3.701  0.5664  0.9190 -0.8145
   89DG     H23 2047   4.861   4.102   3.726  0.9901 -0.7364 -0.6529
   90DG      C1 2048   1.732   2.221   5.208 -1.1665 -0.0594 -0.0049
   90DG      C2 2049   1.885   2.121   5.918 -0.7748 -0.0890 -0.1412
   90DG      H3 2050   1.709   2.129   5.154  1.4435 -0.8933  0.1995
   90DG      H4 2051   1.837   2.240   5.188 -1.2161  0.5728  0.2978
   90DG      H5 2052   1.675   2.300   5.159 -0.1291  1.6495  1.4127
   90DG      H6 2053   1.878   2.215   5.971  0.0798 -0.2271  0.2320
   90DG      H7 2054   1.857   2.030   5.971  0.3255 -0.7741 -0.6993
   90DG      H8 2055   1.990   2.100   5.895 -0.7473  0.1895 -0.2699
   90DG      O9 2056   1.702   2.207   5.350  0.1380 -0.4303 -0.0263
   90DG     O10 2057   1.801   2.126   5.800 -0.0485  0.1935  0.4666
   90DG     C11 2058   1.569   2.168   5.363  0.4071  0.4462  0.6847
   90DG     C12 2059   1.661   2.125   5.831  0.3177 -0.1957  0.6323
   90DG     H13 2060   1.564   2.060   5.348  3.2090  0.3816 -0.4394
   90DG     H14 2061   1.494   2.198   5.291 -0.9903 -1.8881  1.0497
   90DG     H15 2062   1.645   2.179   5.924  0.3480  0.6412  0.1651
   90DG     H16 2063   1.631   2.021   5.846  3.8859 -1.2424  1.5900
   90DG     C17 2064   1.518   2.202   5.499  0.6375 -0.1837  0.4020
   90DG     C18 2065   1.576   2.188   5.723 -0.2082  0.1237  0.8495
   90DG     O19 2066   1.594   2.130   5.595 -0.5824  0.5239 -0.1555
   90DG     H20 2067   1.413   2.177   5.508  1.0991 -1.5132  3.2413
   90DG     H21 2068   1.533   2.309   5.513 -0.2469 -0.1890  1.5707
   90DG     H22 2069   1.474   2.182   5.761 -0.8915 -2.4957 -1.1345
   90DG     H23 2070   1.610   2.292   5.719 -0.4791  0.1751 -2.0994
   91DG      C1 2071   3.347   5.177   3.201 -0.2355  0.0389  0.4227
   91DG      C2 2072   3.915   5.402   3.096 -0.5099  0.2287 -0.4754
   91DG      H3 2073   3.266   5.249   3.195 -1.6783 -1.3018  2.3515
   91DG      H4 2074   3.383   5.195   3.303 -0.9815 -0.0708  0.7063
   91DG      H5 2075   3.305   5.077   3.196 -1.6927  0.6887 -1.5397
   91DG      H6 2076   3.923   5.314   3.159 -3.0426  0.5280  0.3840
   91DG      H7 2077   4.014   5.408   3.053 -0.2756  0.4241  0.0808
   91DG      H8 2078   3.888   5.486   3.161 -2.4293 -1.4844  1.1075
   91DG      O9 2079   3.448   5.177   3.104  0.0273 -0.4455 -0.2710
   91DG     O10 2080   3.817   5.389   3.000  0.2315  0.0350 -0.1626
   91DG     C11 2081   3.399   5.164   2.966  0.3582 -0.0155 -0.0509
   91DG     C12 2082   3.848   5.286   2.900  0.4316  0.2693  0.0863
   91DG     H13 2083   3.341   5.250   2.932  0.2787 -1.1524 -3.1076
   91DG     H14 2084   3.336   5.078   2.947  0.9117 -0.3441 -0.4220
   91DG     H15 2085   3.875   5.191   2.946 -2.2070 -0.5999  0.0258
   91DG     H16 2086   3.928   5.318   2.834  2.0421 -0.9356  1.3517
   91DG     C17 2087   3.517   5.147   2.879 -0.6160  0.2128 -0.2073
   91DG     C18 2088   3.715   5.256   2.826 -0.2602 -0.1323  0.2196
   91DG     O19 2089   3.619   5.233   2.930  0.8236 -0.0849  0.0112
   91DG     H20 2090   3.493   5.172   2.775 -0.6966  2.5430  0.3213
   91DG     H21 2091   3.555   5.045   2.889 -2.3273 -0.2883  1.7928
   91DG     H22 2092   3.672   5.336   2.767 -2.1565 -1.1677  0.1153
   91DG     H23 2093   3.727   5.174   2.755 -1.4092  0.1545 -0.3223
   92DG      C1 2094   1.112   2.843   4.509  0.0395  0.6743  0.1176
   92DG      C2 2095   0.837   3.440   4.618  0.6871 -0.1522  0.5334
   92DG      H3 2096   1.120   2.845   4.618  0.3408  0.5404  0.0991
   92DG      H4 2097   1.207   2.818   4.463 -1.4035 -1.4978 -1.8944
   92DG      H5 2098   1.065   2.750   4.477  2.6159 -0.2765 -1.1111
   92DG      H6 2099   0.890   3.443   4.713 -1.9600  4.3613  2.1446
   92DG      H7 2100   0.877   3.520   4.556  0.2491  1.2173  1.9748
   92DG      H8 2101   0.739   3.470   4.655  0.5487 -0.8666  0.7684
   92DG      O9 2102   1.053   2.962   4.452  0.1937  0.2387 -0.0147
   92DG     O10 2103   0.820   3.316   4.548 -0.5732 -0.1574  0.2383
   92DG     C11 2104   1.047   2.977   4.315  0.5166  0.1270  0.3421
   92DG     C12 2105   0.757   3.324   4.421 -0.4996  0.0099  0.0499
   92DG     H13 2106   1.058   2.884   4.259 -1.5370 -0.7858  1.3448
   92DG     H14 2107   1.128   3.042   4.282  0.9581 -0.6561 -0.1521
   92DG     H15 2108   0.809   3.399   4.363 -0.6489 -0.3385 -0.5415
   92DG     H16 2109   0.657   3.363   4.441 -0.0573 -0.4431  3.9271
   92DG     C17 2110   0.913   3.033   4.278 -0.2290  0.3717 -0.1961
   92DG     C18 2111   0.750   3.191   4.341  0.3667  0.1674 -0.0210
   92DG     O19 2112   0.881   3.139   4.364 -0.1222  0.3190 -0.3631
   92DG     H20 2113   0.836   2.956   4.275  0.1255 -0.0067  0.3993
   92DG     H21 2114   0.919   3.057   4.171 -1.1164  0.8895 -0.1392
   92DG     H22 2115   0.666   3.126   4.367  0.4875 -0.0247 -0.1044
   92DG     H23 2116   0.733   3.201   4.234  0.6322  0.9063 -0.0006
   93DG      C1 2117   4.710   1.911   5.436  0.5408 -0.3454 -0.3568
   93DG      C2 2118   4.726   1.748   6.207 -0.1886 -0.2175 -0.2482
   93DG      H3 2119   4.741   1.877   5.338  0.2051 -0.7232 -0.3349
   93DG      H4 2120   4.761   2.003   5.465 -0.8133  0.3485 -0.0893
   93DG      H5 2121   4.608   1.948   5.424  0.8116  0.6171  0.1726
   93DG      H6 2122   4.829   1.750   6.244 -0.3852  2.1936  0.3880
   93DG      H7 2123   4.667   1.806   6.278 -0.8729  0.5905 -1.4606
   93DG      H8 2124   4.679   1.650   6.217  0.9835 -0.5987  3.2119
   93DG      O9 2125   4.719   1.823   5.543  0.2967  0.5626 -0.4141
   93DG     O10 2126   4.713   1.793   6.078 -0.0824  0.0424 -0.0112
   93DG     C11 2127   4.836   1.738   5.530 -0.8469  0.2018  1.1266
   93DG     C12 2128   4.778   1.705   5.991  0.4661 -0.3447 -0.0956
   93DG     H13 2129   4.915   1.791   5.476  0.2015  0.8802  3.2174
   93DG     H14 2130   4.807   1.652   5.469  0.7951  0.2349  0.2492
   93DG     H15 2131   4.752   1.603   6.019 -1.8915 -0.0544 -1.0275
   93DG     H16 2132   4.885   1.721   6.005  0.5316 -1.5255  0.9908
   93DG     C17 2133   4.905   1.712   5.666  0.6938 -0.7065  0.3050
   93DG     C18 2134   4.742   1.724   5.845 -0.2289 -0.6871 -0.2373
   93DG     O19 2135   4.823   1.646   5.761  0.1364  0.0132  0.4582
   93DG     H20 2136   4.956   1.802   5.701  0.4580  0.1956 -1.5146
   93DG     H21 2137   4.986   1.642   5.648 -0.3076 -1.9965  0.6866
   93DG     H22 2138   4.638   1.699   5.830  0.6755 -7.3121  1.3728
   93DG     H23 2139   4.761   1.831   5.834  0.2169 -0.8696 -1.3316
   94DG      C1 2140   4.052   0.364   0.491  0.1252 -0.1941  0.1068
   94DG      C2 2141   3.643   0.959   0.456  0.5006 -0.0931  0.2382
   94DG      H3 2142   4.146   0.377   0.544 -0.4647  2.4413  0.6279
   94DG      H4 2143   4.068   0.377   0.384  1.0084 -0.9667  0.1305
   94DG      H5 2144   4.019   0.264   0.521  3.4793 -0.8094  2.3940
   94DG      H6 2145   3.599   0.926   0.362 -2.1469 -2.3065  2.0671
   94DG      H7 2146   3.579   1.034   0.500  0.7081 -0.0333  0.4387
   94DG      H8 2147   3.735   1.006   0.421 -0.2662 -0.3839 -2.3483
   94DG      O9 2148   3.977   0.472   0.539 -0.4646  0.6227  0.2440
   94DG     O10 2149   3.661   0.852   0.550  0.0176 -0.2758  0.9075
   94DG     C11 2150   3.917   0.439   0.672 -0.3567 -0.9064  0.1867
   94DG     C12 2151   3.748   0.896   0.655  0.1512 -0.5746  0.3608
   94DG     H13 2152   3.991   0.389   0.735  0.7419 -0.3734 -0.6419
   94DG     H14 2153   3.830   0.375   0.663 -0.0724 -1.4691  1.2567
   94DG     H15 2154   3.695   0.963   0.722 -1.1125  0.5989 -1.6945
   94DG     H16 2155   3.833   0.951   0.614  0.7334 -2.5556 -1.2981
   94DG     C17 2156   3.893   0.576   0.743 -0.7651  0.2633 -0.2017
   94DG     C18 2157   3.778   0.774   0.745 -0.1331  0.5877  0.5215
   94DG     O19 2158   3.833   0.675   0.660  0.2603  0.1331 -0.3618
   94DG     H20 2159   3.985   0.617   0.783  0.4331 -1.6998 -0.8181
   94DG     H21 2160   3.836   0.551   0.833  1.9987 -3.2516  0.7665
   94DG     H22 2161   3.840   0.806   0.829 -0.0397  0.5382  0.4711
   94DG     H23 2162   3.688   0.731   0.788  1.4951 -4.1516 -0.1847
   95DG      C1 2163   3.147   2.651   4.739  0.0672  0.0385  0.7377
   95DG      C2 2164   2.816   2.634   5.329  0.4548 -0.2622  0.0932
   95DG      H3 2165   3.060   2.711   4.713 -0.4471 -0.6402  0.8641
   95DG      H4 2166   3.122   2.548   4.715  3.2184 -0.2993 -1.8322
   95DG      H5 2167   3.236   2.680   4.683  0.5692  0.0975  1.5472
   95DG      H6 2168   2.765   2.543   5.295  0.7704 -0.7304  0.8660
   95DG      H7 2169   2.812   2.635   5.438  0.6555 -0.9908  0.1102
   95DG      H8 2170   2.768   2.722   5.285  1.5437  0.0223 -0.5567
   95DG      O9 2171   3.170   2.653   4.873  0.4766  0.0155  0.0275
   95DG     O10 2172   2.949   2.626   5.278  0.2754 -0.2515  0.3376
   95DG     C11 2173   3.276   2.568   4.916 -0.1758  0.0029 -0.2011
   95DG     C12 2174   3.036   2.527   5.329  0.1072  0.1318 -0.3023
   95DG     H13 2175   3.363   2.609   4.866 -0.6863 -1.3376 -2.3154
   95DG     H14 2176   3.252   2.467   4.881  0.6351 -0.1440 -0.3350
   95DG     H15 2177   2.997   2.429   5.300  2.2673  0.1623 -3.9197
   95DG     H16 2178   3.043   2.541   5.437  1.0429  0.4716 -0.4020
   95DG     C17 2179   3.298   2.572   5.058 -0.7927  0.2566 -0.0247
   95DG     C18 2180   3.179   2.550   5.267 -0.0333  0.2508  0.3694
   95DG     O19 2181   3.175   2.549   5.125  0.1633 -0.1410  0.2182
   95DG     H20 2182   3.348   2.667   5.080  0.5224 -0.6396  1.0186
   95DG     H21 2183   3.365   2.494   5.093 -1.2355 -0.2176 -0.2206
   95DG     H22 2184   3.222   2.641   5.309  1.8418 -0.0285 -0.8046
   95DG     H23 2185   3.256   2.481   5.302 -0.4259 -1.1461 -1.3988
   96DG      C1 2186   4.159   1.938   0.434  0.8481  0.2429  0.5625
   96DG      C2 2187   4.324   2.552   0.377  0.1635  0.0802  0.1048
   96DG      H3 2188   4.069   1.977   0.386  1.4228 -0.1898 -0.9265
   96DG      H4 2189   4.141   1.954   0.540 -0.4390  0.0098  0.3999
   96DG      H5 2190   4.162   1.830   0.423  0.5084  0.2457  0.4336
   96DG      H6 2191   4.267   2.578   0.289 -0.1969  0.8288  0.5479
   96DG      H7 2192   4.261   2.542   0.466  0.2984  0.3407  0.2329
   96DG      H8 2193   4.401   2.624   0.404  0.3910 -0.6389  1.5169
   96DG      O9 2194   4.278   2.004   0.398 -0.6298  0.2649  0.2364
   96DG     O10 2195   4.399   2.432   0.366  0.2161  0.4357  0.5332
   96DG     C11 2196   4.394   1.951   0.450 -0.1780  0.5263  0.7038
   96DG     C12 2197   4.509   2.414   0.455  0.6587 -0.0144  0.3436
   96DG     H13 2198   4.414   1.861   0.391 -1.1074  2.5028 -2.9482
   96DG     H14 2199   4.374   1.915   0.551  0.3359  0.1793  0.6888
   96DG     H15 2200   4.471   2.430   0.556  1.1084  0.8354  0.3879
   96DG     H16 2201   4.578   2.496   0.436 -0.8929  1.6969  1.7101
   96DG     C17 2202   4.507   2.045   0.428  0.1225  0.2973  0.2615
   96DG     C18 2203   4.573   2.281   0.435 -0.5467  0.2374 -0.5149
   96DG     O19 2204   4.469   2.180   0.437 -0.7323 -0.0122  1.0042
   96DG     H20 2205   4.551   2.029   0.329 -1.2820 -0.9199 -0.2080
   96DG     H21 2206   4.581   2.021   0.504 -1.4726 -1.4454  1.3479
   96DG     H22 2207   4.624   2.282   0.339  2.6401 -0.3522  1.0253
   96DG     H23 2208   4.644   2.250   0.512 -2.3465 -0.8805  0.7721
   97DG      C1 2209   2.399   0.603   1.042 -0.6015 -0.2444  0.3131
   97DG      C2 2210   2.162   0.112   0.602 -1.1663  0.4324  0.1644
   97DG      H3 2211   2.409   0.547   1.135 -0.9882 -0.8904 -0.0255
   97DG      H4 2212   2.418   0.709   1.063  0.8268 -0.8392  2.3799
   97DG      H5 2213   2.472   0.559   0.974 -1.2089  1.2790 -1.3789
   97DG      H6 2214   2.196   0.050   0.686 -2.5017  0.4858  0.7590
   97DG      H7 2215   2.096   0.052   0.539 -2.6600  0.6670  1.4456
   97DG      H8 2216   2.253   0.135   0.547 -0.2772  1.9289  2.1183
   97DG      O9 2217   2.272   0.583   0.981 -0.0889 -0.1129 -0.1068
   97DG     O10 2218   2.113   0.224   0.680  0.0865 -0.6300  0.6961
   97DG     C11 2219   2.243   0.673   0.873  0.4563 -0.2884 -0.3793
   97DG     C12 2220   2.063   0.329   0.595 -0.7725  0.2854 -0.1433
   97DG     H13 2221   2.321   0.656   0.798  0.4477 -0.0403 -0.4462
   97DG     H14 2222   2.241   0.778   0.904 -1.6411  0.0017 -1.3302
   97DG     H15 2223   1.976   0.289   0.542  0.9161 -2.3109 -1.1742
   97DG     H16 2224   2.132   0.346   0.512 -1.4797 -2.8864 -1.5641
   97DG     C17 2225   2.107   0.636   0.813 -0.1839  0.2191  0.0175
   97DG     C18 2226   2.029   0.455   0.672  0.0253  0.0905 -0.5419
   97DG     O19 2227   2.131   0.506   0.753 -0.5625  0.3255  0.1580
   97DG     H20 2228   2.077   0.705   0.735 -1.4270  0.1259  0.3912
   97DG     H21 2229   2.025   0.633   0.885  0.6496  0.2245  0.9990
   97DG     H22 2230   1.973   0.531   0.618 -0.7738 -0.1230 -0.0334
   97DG     H23 2231   1.952   0.419   0.741  0.0258  0.4536 -0.3493
   98DG      C1 2232   2.386   2.455   5.185  0.0809 -0.1250 -0.1159
   98DG      C2 2233   2.031   2.889   4.895 -0.2001 -0.1464  0.0200
   98DG      H3 2234   2.468   2.424   5.120  0.1756  0.1757 -0.1426
   98DG      H4 2235   2.300   2.396   5.153  0.4028  0.2464 -1.7454
   98DG      H5 2236   2.407   2.418   5.286 -1.7091  0.3907  0.4800
   98DG      H6 2237   2.021   2.983   4.843  0.0772  0.2251  0.6248
   98DG      H7 2238   1.989   2.807   4.837 -1.8011  0.7468 -0.1429
   98DG      H8 2239   1.964   2.896   4.981  0.0584  0.1047  0.1998
   98DG      O9 2240   2.359   2.588   5.168  0.3555 -0.1583 -0.3720
   98DG     O10 2241   2.170   2.881   4.924 -0.1810  0.0637  0.8242
   98DG     C11 2242   2.457   2.669   5.224  0.0377  0.2015  0.3761
   98DG     C12 2243   2.218   2.970   5.029  0.0294 -0.0558 -0.0914
   98DG     H13 2244   2.551   2.652   5.172 -0.8558 -1.7254 -0.7161
   98DG     H14 2245   2.461   2.635   5.328  0.9162 -1.3051 -0.1207
   98DG     H15 2246   2.167   2.963   5.125  2.2520 -1.4154  1.0902
   98DG     H16 2247   2.193   3.072   4.998  1.4963  1.1347  2.3154
   98DG     C17 2248   2.409   2.811   5.218 -0.0344 -0.4022  0.5146
   98DG     C18 2249   2.367   2.964   5.036 -0.7586  0.3029 -0.9206
   98DG     O19 2250   2.409   2.836   5.073 -0.0952  0.2346  0.3552
   98DG     H20 2251   2.482   2.877   5.265 -0.5557  1.9827 -1.7549
   98DG     H21 2252   2.318   2.839   5.270  0.3968 -2.8721  2.8540
   98DG     H22 2253   2.414   3.012   4.950  0.8394 -0.2764 -0.4119
   98DG     H23 2254   2.393   3.034   5.116  0.3723 -0.7962 -0.2757
   99DG      C1 2255   4.949   0.588   0.068 -0.1295 -0.1187 -0.6604
   99DG      C2 2256   4.578   0.277  -0.388  0.5456  0.1287  0.3656
   99DG      H3 2257   4.925   0.666  -0.004  0.3524  1.0877  0.4460
   99DG      H4 2258   5.057   0.571   0.063 -0.3074 -1.1214 -1.4770
   99DG      H5 2259   4.923   0.634   0.164 -1.4285 -1.2906 -0.4292
   99DG      H6 2260   4.479   0.234  -0.400  0.1914  0.7522  0.9882
   99DG      H7 2261   4.569   0.384  -0.408 -2.0806 -0.0579  0.2271
   99DG      H8 2262   4.627   0.226  -0.471 -0.4503  0.5729 -0.5280
   99DG      O9 2263   4.875   0.465   0.057  0.2331  0.2009 -0.0860
   99DG     O10 2264   4.633   0.248  -0.267 -0.3204  0.1257 -0.2090
   99DG     C11 2265   4.766   0.451   0.153 -0.2143 -0.1868 -0.2538
   99DG     C12 2266   4.544   0.188  -0.176  0.0045  0.5406 -1.0503
   99DG     H13 2267   4.696   0.533   0.139  0.5063  0.8979  2.0250
   99DG     H14 2268   4.798   0.457   0.257 -2.7774 -0.0554  0.6012
   99DG     H15 2269   4.506   0.092  -0.211 -1.0555  1.1838 -1.7036
   99DG     H16 2270   4.457   0.253  -0.172  0.3620  0.9666  0.8789
   99DG     C17 2271   4.688   0.323   0.134  0.5251 -0.0214 -0.1295
   99DG     C18 2272   4.619   0.166  -0.040  0.0232 -0.0751 -0.2617
   99DG     O19 2273   4.661   0.294  -0.005  0.5100  0.1992 -0.2912
   99DG     H20 2274   4.593   0.322   0.188 -0.0716 -1.2959 -1.1250
   99DG     H21 2275   4.754   0.244   0.170 -1.5429 -1.9001 -0.2562
   99DG     H22 2276   4.549   0.132   0.036  1.3524 -0.6669  0.7448
   99DG     H23 2277   4.703   0.096  -0.041 -0.9634 -1.4802  2.9470
  100DG      C1 2278   4.738   3.456   0.428 -0.2471 -0.2652 -0.2018
  100DG      C2 2279   5.138   2.968   0.824 -0.4253 -0.1799 -0.1658
  100DG      H3 2280   4.671   3.370   0.428  0.3300 -0.7721  1.6187
  100DG      H4 2281   4.794   3.457   0.335  0.9259 -0.2579  0.4813
  100DG      H5 2282   4.690   3.554   0.424  2.0781  0.9696 -0.0409
  100DG      H6 2283   5.098   2.890   0.760  3.6069 -1.2483 -1.7328
  100DG      H7 2284   5.246   2.974   0.809 -0.2809 -3.6783 -1.3534
  100DG      H8 2285   5.129   2.938   0.929 -0.4814  0.1760 -0.0691
  100DG      O9 2286   4.828   3.453   0.539  0.1636 -0.3539  0.5480
  100DG     O10 2287   5.056   3.082   0.798  0.3862 -0.2010 -0.9447
  100DG     C11 2288   4.765   3.477   0.671  0.0210  0.7802  0.1604
  100DG     C12 2289   5.086   3.192   0.882  0.1573  0.1089 -0.6638
  100DG     H13 2290   4.684   3.407   0.694 -1.0209  1.5619 -0.9488
  100DG     H14 2291   4.714   3.573   0.670 -0.3323  0.5933 -1.1541
  100DG     H15 2292   5.178   3.232   0.838 -1.1211  2.5153 -1.3512
  100DG     H16 2293   5.113   3.169   0.984 -1.0893  0.8341 -0.1407
  100DG     C17 2294   4.868   3.475   0.779  0.1866 -0.4734  0.3240
  100DG     C18 2295   4.987   3.309   0.894 -0.0166  0.1712 -0.4782
  100DG     O19 2296   4.929   3.349   0.777 -0.2425 -0.5614  0.2214
  100DG     H20 2297   4.803   3.488   0.866  1.4787 -0.1143  1.2659
  100DG     H21 2298   4.936   3.560   0.774 -2.1981  1.5157  0.1955
  100DG     H22 2299   4.910   3.302   0.971 -2.7554  2.4893 -2.7770
  100DG     H23 2300   5.048   3.390   0.934  1.2869 -1.5659  1.2248
  101DG      C1 2301   3.623   3.313   4.840  0.5653  0.3035 -1.1951
  101DG      C2 2302   3.492   3.500   4.188 -0.8070 -0.5860 -0.2872
  101DG      H3 2303   3.532   3.370   4.860 -0.2360 -0.7741 -1.7156
  101DG      H4 2304   3.696   3.394   4.852 -0.2938  0.7774  1.4683
  101DG      H5 2305   3.638   3.232   4.911  0.5907 -1.1562 -2.8268
  101DG      H6 2306   3.453   3.482   4.088  0.5340  1.6099 -1.2724
  101DG      H7 2307   3.434   3.574   4.243 -0.9856 -0.7902 -0.1953
  101DG      H8 2308   3.579   3.562   4.167 -0.3956 -1.1248 -0.1930
  101DG      O9 2309   3.625   3.258   4.707 -0.6746 -0.4852  0.1038
  101DG     O10 2310   3.522   3.387   4.267  0.0305 -0.0851  0.9175
  101DG     C11 2311   3.751   3.226   4.662 -0.1161 -0.3899 -0.4538
  101DG     C12 2312   3.644   3.327   4.214  0.3608 -0.3039 -0.8356
  101DG     H13 2313   3.793   3.144   4.720 -0.1823 -1.4129 -1.8155
  101DG     H14 2314   3.823   3.308   4.669 -1.3739  0.8340 -1.2740
  101DG     H15 2315   3.722   3.399   4.189 -0.4676  1.4871  1.4399
  101DG     H16 2316   3.630   3.290   4.112  3.4080  1.9662 -2.2554
  101DG     C17 2317   3.735   3.161   4.524 -0.4257 -0.1738  0.4337
  101DG     C18 2318   3.692   3.216   4.303  0.1686 -0.2715 -0.2536
  101DG     O19 2319   3.688   3.255   4.438 -0.0838 -0.2154  0.6013
  101DG     H20 2320   3.664   3.079   4.535 -1.0439  0.2040 -0.5585
  101DG     H21 2321   3.835   3.125   4.497 -0.4419 -1.2318  1.6699
  101DG     H22 2322   3.621   3.135   4.289 -0.0567 -0.2724  0.7882
  101DG     H23 2323   3.786   3.170   4.274 -0.4945 -0.3842 -2.3952
  102DG      C1 2324   0.673   2.166   5.130 -0.1480 -0.1273 -0.4151
  102DG      C2 2325   0.664   2.512   4.580  0.2451 -0.1138 -0.2400
  102DG      H3 2326   0.706   2.236   5.207 -2.8351  1.9462 -0.9921
  102DG      H4 2327   0.758   2.132   5.072  0.4206  2.2577 -1.0970
  102DG      H5 2328   0.634   2.078   5.180  3.0719 -2.0585 -1.0779
  102DG      H6 2329   0.717   2.605   4.600 -0.1401  0.4380 -1.6552
  102DG      H7 2330   0.733   2.428   4.567 -0.8198 -0.9253 -0.7192
  102DG      H8 2331   0.607   2.524   4.488 -2.3327  3.2474  1.5994
  102DG      O9 2332   0.590   2.237   5.034  0.2420  0.1643 -0.0657
  102DG     O10 2333   0.583   2.483   4.697 -0.4224  0.1359 -0.4898
  102DG     C11 2334   0.470   2.285   5.097  0.5180 -0.5987  0.0366
  102DG     C12 2335   0.486   2.583   4.719 -0.2899 -0.2487 -0.1476
  102DG     H13 2336   0.501   2.349   5.179  0.3659  1.5869 -1.5351
  102DG     H14 2337   0.413   2.201   5.138 -1.8199  1.4080  1.1818
  102DG     H15 2338   0.436   2.607   4.625  0.2742 -2.8983 -1.2292
  102DG     H16 2339   0.533   2.673   4.759  0.6540 -0.1743 -1.3876
  102DG     C17 2340   0.393   2.349   4.987 -0.0205  0.6946 -0.1780
  102DG     C18 2341   0.385   2.523   4.822  0.6927 -0.9078  0.0658
  102DG     O19 2342   0.466   2.453   4.919 -0.0831 -0.0512  0.5588
  102DG     H20 2343   0.303   2.393   5.032 -0.8891 -1.6581  0.5601
  102DG     H21 2344   0.352   2.273   4.920  1.3568 -3.1664  2.9866
  102DG     H22 2345   0.342   2.609   4.876 -1.1696 -1.1257 -0.9830
  102DG     H23 2346   0.305   2.461   4.782 -0.2565 -0.2629  0.9174
  103DG      C1 2347   3.260   2.025   0.149 -0.3945 -0.3396 -0.2708
  103DG      C2 2348   3.424   2.055  -0.517 -0.0817 -0.2068  0.0553
  103DG      H3 2349   3.351   2.078   0.119 -0.6253 -0.6334 -1.5525
  103DG      H4 2350   3.316   1.935   0.176 -0.6633 -0.1109  1.1092
  103DG      H5 2351   3.223   2.078   0.237  0.6336  3.0001 -1.6693
  103DG      H6 2352   3.484   1.965  -0.507  1.2509  0.6673  0.1571
  103DG      H7 2353   3.408   2.079  -0.622  0.9188 -0.8322 -0.2569
  103DG      H8 2354   3.483   2.129  -0.464  0.6487 -1.4505  1.0440
  103DG      O9 2355   3.165   2.006   0.045 -0.4415  0.2254  0.3738
  103DG     O10 2356   3.308   2.055  -0.432  0.5296 -0.1707  0.1756
  103DG     C11 2357   3.086   2.121   0.028  0.0495 -0.1260 -0.0074
  103DG     C12 2358   3.229   2.171  -0.446  0.3499 -0.5551  0.1592
  103DG     H13 2359   3.141   2.214   0.044  0.9247 -0.3668 -1.4216
  103DG     H14 2360   2.998   2.122   0.092  1.6638  0.7883  2.3356
  103DG     H15 2361   3.195   2.199  -0.546  3.1621  0.3460 -0.6380
  103DG     H16 2362   3.292   2.255  -0.417 -1.0723 -0.1576  2.2228
  103DG     C17 2363   3.041   2.131  -0.115 -0.5180 -0.2941 -0.3537
  103DG     C18 2364   3.119   2.162  -0.339  0.9682  0.1554  0.2176
  103DG     O19 2365   3.161   2.141  -0.202  0.0109 -0.0126  0.0590
  103DG     H20 2366   2.974   2.215  -0.134 -0.1861  0.3708  1.3054
  103DG     H21 2367   2.990   2.037  -0.137  0.3794 -0.7323 -0.6053
  103DG     H22 2368   3.059   2.253  -0.340  0.6377 -0.0429 -1.6609
  103DG     H23 2369   3.059   2.077  -0.370 -1.4185  1.9080 -0.2507
  104DG      C1 2370   3.049   2.977   5.294 -0.3132  0.7229  0.1816
  104DG      C2 2371   2.859   2.454   4.953 -0.9676 -0.1266  0.2813
  104DG      H3 2372   3.141   2.924   5.271 -1.7706 -2.6141  1.5035
  104DG      H4 2373   3.000   2.944   5.385 -1.0587 -2.5508 -1.2790
  104DG      H5 2374   3.064   3.085   5.287 -1.9573  1.1435  2.0695
  104DG      H6 2375   2.823   2.382   4.879 -0.5091  0.5838 -0.6586
  104DG      H7 2376   2.962   2.419   4.955 -0.5499  0.5783 -2.8420
  104DG      H8 2377   2.810   2.429   5.047  0.3345 -0.9875  0.7570
  104DG      O9 2378   2.976   2.942   5.185 -0.4146 -0.4274 -0.5369
  104DG     O10 2379   2.862   2.588   4.914 -0.0754  0.4252 -0.3673
  104DG     C11 2380   2.845   2.996   5.170  0.7543 -0.1365 -0.2118
  104DG     C12 2381   2.731   2.630   4.869  0.4244  0.4220 -0.2145
  104DG     H13 2382   2.859   3.103   5.186  2.7714 -0.4129  0.1931
  104DG     H14 2383   2.786   2.946   5.246  1.9021 -2.3252 -0.6749
  104DG     H15 2384   2.656   2.574   4.926  0.0079 -0.0103 -1.1707
  104DG     H16 2385   2.714   2.603   4.765  0.7136 -0.3707 -0.0692
  104DG     C17 2386   2.777   2.970   5.040 -0.5038 -0.2141 -0.1659
  104DG     C18 2387   2.717   2.783   4.888 -0.6525  0.4013 -0.1239
  104DG     O19 2388   2.778   2.824   5.014 -0.2879 -0.3898  0.0392
  104DG     H20 2389   2.820   3.026   4.957 -1.6321 -0.8373 -1.2067
  104DG     H21 2390   2.668   2.981   5.046 -0.5565 -1.0237  0.6390
  104DG     H22 2391   2.763   2.836   4.805 -2.3610  0.2099 -1.2587
  104DG     H23 2392   2.611   2.809   4.890 -0.7093  0.3205  3.3866
  105DG      C1 2393   1.461   3.642   3.639 -0.4183  0.4102 -0.0058
  105DG      C2 2394   1.417   2.945   3.562 -0.1622 -0.3683  0.4998
  105DG      H3 2395   1.360   3.642   3.682 -0.5993  0.0726 -0.4284
  105DG      H4 2396   1.434   3.644   3.534  0.0830  0.9941 -0.1308
  105DG      H5 2397   1.503   3.738   3.669  1.5937  0.0372 -1.4697
  105DG      H6 2398   1.344   2.921   3.639 -0.7385  1.4595  0.5580
  105DG      H7 2399   1.360   2.959   3.471 -0.1720 -1.8199  0.2576
  105DG      H8 2400   1.474   2.853   3.544 -4.1292 -2.7467 -1.2355
  105DG      O9 2401   1.531   3.525   3.678  0.3307  0.2059 -0.0111
  105DG     O10 2402   1.497   3.052   3.612 -0.8025 -0.1995  0.6233
  105DG     C11 2403   1.526   3.501   3.816 -0.2712 -0.0644  0.0779
  105DG     C12 2404   1.551   3.019   3.736  0.1603 -1.3755 -0.8293
  105DG     H13 2405   1.422   3.490   3.849  0.1504  1.2794  2.0754
  105DG     H14 2406   1.562   3.579   3.883  0.2562 -1.3062  1.2968
  105DG     H15 2407   1.614   2.930   3.729 -0.1960 -1.6766 -0.2629
  105DG     H16 2408   1.482   2.998   3.817  0.8580 -0.8462 -0.0856
  105DG     C17 2409   1.607   3.375   3.850  0.0125  0.4763  0.5512
  105DG     C18 2410   1.630   3.139   3.799 -0.3732 -0.3552  0.0950
  105DG     O19 2411   1.554   3.259   3.785 -0.0513 -0.3715  0.2773
  105DG     H20 2412   1.611   3.363   3.958 -1.4898  0.3271  0.6154
  105DG     H21 2413   1.709   3.388   3.813  0.0227 -1.2371 -0.1498
  105DG     H22 2414   1.663   3.127   3.902 -0.5189  1.0293  0.3290
  105DG     H23 2415   1.717   3.142   3.733 -0.1691 -2.3401  0.2301
  106DG      C1 2416   2.908   4.110   2.641  0.2636  0.4330 -0.2138
  106DG      C2 2417   2.982   3.516   2.950  0.6376 -0.6173 -0.8210
  106DG      H3 2418   2.802   4.101   2.621  0.2991  1.5812 -1.0636
  106DG      H4 2419   2.951   4.050   2.561 -1.8598  0.9539 -1.8250
  106DG      H5 2420   2.945   4.213   2.639  0.3411  0.4061 -0.1722
  106DG      H6 2421   2.879   3.495   2.978  0.4856  1.5904  0.5463
  106DG      H7 2422   2.993   3.480   2.847 -3.6249  0.4577 -1.8635
  106DG      H8 2423   3.050   3.483   3.028  2.8395 -0.0794 -2.3819
  106DG      O9 2424   2.960   4.066   2.764 -0.2358 -0.0501 -0.3903
  106DG     O10 2425   2.994   3.659   2.962 -0.0444  0.0906 -0.6044
  106DG     C11 2426   2.882   4.123   2.873  0.4582  0.8646 -0.1382
  106DG     C12 2427   2.969   3.712   3.096  0.1832  0.1025 -0.3744
  106DG     H13 2428   2.780   4.084   2.873  0.9699 -0.5447  1.2869
  106DG     H14 2429   2.875   4.231   2.872 -1.3510  0.7869 -0.9887
  106DG     H15 2430   3.036   3.673   3.172 -1.1666  1.0756  1.4174
  106DG     H16 2431   2.867   3.685   3.122 -0.4428  1.6083 -1.1149
  106DG     C17 2432   2.945   4.057   2.996  0.2645 -0.7661 -0.0501
  106DG     C18 2433   2.978   3.869   3.101 -0.3907  0.6549 -0.1524
  106DG     O19 2434   2.928   3.918   2.987  0.8228 -0.5459  0.3385
  106DG     H20 2435   2.880   4.092   3.076 -0.0772  0.9626 -1.0289
  106DG     H21 2436   3.050   4.087   3.002  0.3137 -0.6480 -1.3429
  106DG     H22 2437   2.916   3.903   3.184 -1.6955  0.1314 -0.8987
  106DG     H23 2438   3.084   3.884   3.123 -0.2880 -1.2093  0.8818
  107DG      C1 2439   4.302   4.618   2.372  0.6013 -0.5057  0.3032
  107DG      C2 2440   4.922   4.557   2.076 -0.1121 -0.3516 -0.0603
  107DG      H3 2441   4.277   4.513   2.354 -0.0419 -0.2360 -0.4053
  107DG      H4 2442   4.270   4.681   2.290 -0.8068  2.1108  2.6835
  107DG      H5 2443   4.242   4.646   2.458  0.3255  2.2285 -0.6946
  107DG      H6 2444   5.004   4.504   2.124 -0.3316 -0.2262  0.4624
  107DG      H7 2445   4.860   4.475   2.038 -2.3002  0.7563  0.9453
  107DG      H8 2446   4.944   4.635   2.003 -1.8015  0.8336  0.6332
  107DG      O9 2447   4.439   4.648   2.392 -0.0012 -0.6915 -0.5207
  107DG     O10 2448   4.839   4.604   2.181 -0.1014  0.1393 -0.1419
  107DG     C11 2449   4.455   4.790   2.420  0.2082  0.2681  0.8901
  107DG     C12 2450   4.873   4.733   2.236  1.4638 -0.2434  0.2595
  107DG     H13 2451   4.392   4.821   2.504  0.0304  0.1213  0.8110
  107DG     H14 2452   4.445   4.854   2.332  1.7922 -2.0968 -1.1432
  107DG     H15 2453   4.842   4.808   2.162  1.9983 -0.3111 -0.0384
  107DG     H16 2454   4.982   4.732   2.236  1.5182 -2.4750 -1.8610
  107DG     C17 2455   4.605   4.811   2.456 -0.1882 -0.6008 -0.0260
  107DG     C18 2456   4.821   4.761   2.375 -0.3467 -0.5672  0.0723
  107DG     O19 2457   4.680   4.757   2.351  0.2596 -0.2172  0.6353
  107DG     H20 2458   4.632   4.771   2.554 -0.3809 -0.3252  0.1383
  107DG     H21 2459   4.631   4.916   2.471 -2.9350 -0.0208  1.1966
  107DG     H22 2460   4.849   4.683   2.445  0.0525  0.1724  0.7544
  107DG     H23 2461   4.856   4.855   2.417  0.4921 -0.2955 -1.1745
  108DG      C1 2462   4.194   2.443   3.015  1.5639  0.3355  0.0731
  108DG      C2 2463   3.918   2.036   2.536  0.3220 -0.1107 -0.1974
  108DG      H3 2464   4.273   2.456   3.088 -1.2296  2.5551  3.0111
  108DG      H4 2465   4.104   2.416   3.071 -0.7972  1.6494 -2.7884
  108DG      H5 2466   4.167   2.534   2.960 -0.9753  1.0411  2.2625
  108DG      H6 2467   3.886   2.119   2.472 -1.6040 -0.9524 -0.4123
  108DG      H7 2468   3.920   1.949   2.471 -0.6787  0.8256 -1.5666
  108DG      H8 2469   3.840   2.026   2.612 -0.9973  1.2790 -1.2795
  108DG      O9 2470   4.220   2.345   2.916 -0.3308  0.0202  0.2956
  108DG     O10 2471   4.042   2.079   2.579 -0.0728  0.3051 -0.8115
  108DG     C11 2472   4.340   2.376   2.848  0.0884  0.6214 -0.8343
  108DG     C12 2473   4.136   2.122   2.488 -0.1153 -0.7345  0.8505
  108DG     H13 2474   4.425   2.389   2.915  1.0951 -0.0686 -1.9592
  108DG     H14 2475   4.329   2.477   2.809 -0.7544  0.4050 -1.1862
  108DG     H15 2476   4.113   2.221   2.448  1.7133 -0.2953  0.8192
  108DG     H16 2477   4.136   2.062   2.398 -1.5241  0.0257  0.3062
  108DG     C17 2478   4.367   2.262   2.746  0.1173 -0.6813  0.2836
  108DG     C18 2479   4.265   2.146   2.557  0.4414 -0.8157  0.0409
  108DG     O19 2480   4.243   2.233   2.670  0.2011 -0.2439 -0.0865
  108DG     H20 2481   4.404   2.169   2.789  1.2376 -0.2170  0.3769
  108DG     H21 2482   4.439   2.304   2.675 -1.0595  1.7151  0.4172
  108DG     H22 2483   4.309   2.052   2.590 -1.3086 -1.5046  0.5057
  108DG     H23 2484   4.328   2.188   2.478 -0.4049 -1.1760 -0.8439
  109DG      C1 2485   0.406   2.283   4.305  0.7706  0.1089  0.0005
  109DG      C2 2486   0.741   2.684   3.866  0.7521  0.9507 -0.5779
  109DG      H3 2487   0.419   2.345   4.394  0.5072 -2.6092  2.1006
  109DG      H4 2488   0.366   2.185   4.333  1.5872 -0.6080 -1.2674
  109DG      H5 2489   0.333   2.324   4.236  1.6275  0.2172 -0.8509
  109DG      H6 2490   0.646   2.694   3.814  1.1285  1.9617 -1.0938
  109DG      H7 2491   0.731   2.768   3.935  4.3077  1.0897 -0.0804
  109DG      H8 2492   0.825   2.698   3.798 -0.0467  1.6359 -1.4529
  109DG      O9 2493   0.524   2.264   4.234  0.2303 -0.8740 -0.3237
  109DG     O10 2494   0.752   2.552   3.931 -0.4511 -0.5242  0.2544
  109DG     C11 2495   0.514   2.186   4.113  0.0237 -0.6272  0.2829
  109DG     C12 2496   0.786   2.447   3.839 -0.2016  0.3549 -0.1335
  109DG     H13 2497   0.445   2.227   4.039  1.5058  1.1995 -0.1751
  109DG     H14 2498   0.475   2.088   4.139  0.9231 -1.7219 -2.1108
  109DG     H15 2499   0.879   2.473   3.788 -1.2040  2.5670 -0.9696
  109DG     H16 2500   0.707   2.447   3.764  0.6070 -1.6661 -1.0612
  109DG     C17 2501   0.652   2.168   4.046  0.0341 -0.0900 -0.0329
  109DG     C18 2502   0.783   2.307   3.912 -0.1421 -0.2585 -0.0297
  109DG     O19 2503   0.669   2.304   3.991 -0.4805  0.1549  0.3321
  109DG     H20 2504   0.620   2.092   3.975  0.6572  0.2932 -0.7391
  109DG     H21 2505   0.718   2.129   4.123 -1.0192 -2.5751 -0.2826
  109DG     H22 2506   0.768   2.230   3.837  0.2957  1.2743 -1.7729
  109DG     H23 2507   0.873   2.291   3.971 -0.7822 -0.6249  0.8632
  110DG      C1 2508   4.487   4.687   4.525 -0.0927 -0.3685 -0.3822
  110DG      C2 2509   4.739   5.366   4.381 -0.0438 -0.3767 -0.2650
  110DG      H3 2510   4.524   4.585   4.528  1.8073  0.2843  0.5232
  110DG      H4 2511   4.381   4.695   4.503 -0.0995 -1.8949 -1.0271
  110DG      H5 2512   4.507   4.749   4.612  1.0137 -0.3607 -0.6286
  110DG      H6 2513   4.800   5.351   4.470  0.3394 -0.9274 -0.6156
  110DG      H7 2514   4.787   5.432   4.308  3.8744 -2.9655 -0.2902
  110DG      H8 2515   4.655   5.407   4.437  1.6198 -0.1037  2.1862
  110DG      O9 2516   4.542   4.744   4.402 -0.1184 -0.2922  0.2130
  110DG     O10 2517   4.700   5.249   4.317  0.6777  0.4535  0.4886
  110DG     C11 2518   4.684   4.742   4.387 -0.1116  0.3587  0.4210
  110DG     C12 2519   4.814   5.186   4.265 -0.4699 -0.0326  0.4849
  110DG     H13 2520   4.711   4.637   4.374 -0.9839  0.2643 -0.7446
  110DG     H14 2521   4.735   4.781   4.475  1.4375 -1.4283  0.3901
  110DG     H15 2522   4.891   5.178   4.341  0.2239  1.1911 -0.0517
  110DG     H16 2523   4.865   5.244   4.187  2.6864 -2.7384  0.3494
  110DG     C17 2524   4.720   4.834   4.267  0.5774  0.1151  0.3171
  110DG     C18 2525   4.788   5.052   4.208 -0.0419  0.3937  1.1436
  110DG     O19 2526   4.727   4.969   4.306  0.7168 -0.6314  0.2418
  110DG     H20 2527   4.676   4.821   4.169  0.5258  1.2966  0.1730
  110DG     H21 2528   4.824   4.803   4.255  1.1753  0.8236  2.9556
  110DG     H22 2529   4.722   5.070   4.123  1.5040 -1.8623 -0.6486
  110DG     H23 2530   4.878   5.003   4.171 -0.5581 -1.2111  1.8969
  111DG      C1 2531   1.132   3.410   4.393 -0.7637 -0.0101 -0.1034
  111DG      C2 2532   0.908   2.928   4.835  0.7754  0.1962  0.1460
  111DG      H3 2533   1.150   3.516   4.374 -0.2887  0.3721  2.1776
  111DG      H4 2534   1.052   3.367   4.334 -2.2511 -0.5867  2.2187
  111DG      H5 2535   1.222   3.356   4.362  0.3978  0.9754  1.3749
  111DG      H6 2536   0.839   2.891   4.759  1.0001  1.6066 -0.7799
  111DG      H7 2537   0.986   2.853   4.823 -0.1674 -1.2080  2.1124
  111DG      H8 2538   0.862   2.916   4.934  2.0681 -0.9081  0.6368
  111DG      O9 2539   1.108   3.375   4.531  0.9354  0.3224  0.2650
  111DG     O10 2540   0.975   3.053   4.812  0.0538  0.1563 -0.2532
  111DG     C11 2541   1.214   3.431   4.613  0.6992 -0.1016  0.7564
  111DG     C12 2542   1.060   3.097   4.923  0.3720  0.3138 -0.3411
  111DG     H13 2543   1.230   3.533   4.579  0.9819 -0.4154 -0.0642
  111DG     H14 2544   1.306   3.376   4.592  0.0965 -1.3460  1.2531
  111DG     H15 2545   1.153   3.039   4.923 -0.1464 -0.5695  1.2010
  111DG     H16 2546   1.019   3.086   5.023  1.0299 -0.7284 -0.1747
  111DG     C17 2547   1.180   3.405   4.758 -0.2475 -1.0749  0.3654
  111DG     C18 2548   1.089   3.244   4.906 -0.3101 -0.1713 -0.0277
  111DG     O19 2549   1.143   3.272   4.774 -0.3770 -0.1178 -0.2963
  111DG     H20 2550   1.095   3.467   4.786 -0.9580 -0.8677 -2.0781
  111DG     H21 2551   1.254   3.446   4.828  1.2990  0.6123 -2.0929
  111DG     H22 2552   0.998   3.297   4.933  0.5643  1.2389  0.2903
  111DG     H23 2553   1.155   3.277   4.987  1.1270  0.9435 -1.5793
  112DG      C1 2554   3.369   2.277   3.339 -0.3580  0.0275 -0.5245
  112DG      C2 2555   2.846   1.854   3.468 -0.0718 -0.0516  0.2317
  112DG      H3 2556   3.382   2.219   3.248  0.1425 -0.1540 -0.3373
  112DG      H4 2557   3.443   2.236   3.408 -2.2996 -0.3608  1.4504
  112DG      H5 2558   3.397   2.381   3.320  2.7336 -0.6462 -0.0997
  112DG      H6 2559   2.922   1.779   3.488  1.2875  1.0732 -0.5871
  112DG      H7 2560   2.754   1.829   3.521  0.3741  0.2836  1.2024
  112DG      H8 2561   2.833   1.829   3.363 -0.3061 -3.4804  0.9454
  112DG      O9 2562   3.239   2.274   3.392  0.1170  0.1837 -0.1040
  112DG     O10 2563   2.877   1.986   3.490  0.4331 -0.0609  0.0366
  112DG     C11 2564   3.215   2.345   3.514 -0.2845 -0.2247  0.1225
  112DG     C12 2565   2.919   2.008   3.622  0.1618 -0.0024  0.2867
  112DG     H13 2566   3.268   2.440   3.519 -0.1871 -0.2693 -0.0947
  112DG     H14 2567   3.265   2.280   3.586 -0.2222 -0.9761 -0.5888
  112DG     H15 2568   3.017   1.964   3.641  0.5097  0.3323 -0.6717
  112DG     H16 2569   2.859   1.966   3.703  0.8405  2.4508  2.1612
  112DG     C17 2570   3.071   2.343   3.567 -0.5875  0.6892 -0.3626
  112DG     C18 2571   2.938   2.159   3.646 -0.2315  0.0857 -0.0143
  112DG     O19 2572   3.018   2.211   3.541  0.4488  0.0036  0.2723
  112DG     H20 2573   3.017   2.415   3.507 -0.4638  0.7900 -0.3530
  112DG     H21 2574   3.065   2.366   3.674 -0.0221 -2.1801  0.3945
  112DG     H22 2575   2.844   2.213   3.656 -0.3984  0.0098 -1.1408
  112DG     H23 2576   2.987   2.165   3.744 -1.4612  0.5269  0.6011
  113DG      C1 2577   3.200   3.142   4.363  0.0397 -0.2064 -0.7535
  113DG      C2 2578   3.716   3.559   4.568 -0.4238  0.2413  0.3840
  113DG      H3 2579   3.118   3.136   4.292  1.1612 -1.4508 -1.9910
  113DG      H4 2580   3.189   3.093   4.460 -1.5759 -1.1741 -1.3854
  113DG      H5 2581   3.276   3.081   4.315  2.0244  1.0846  0.6220
  113DG      H6 2582   3.784   3.479   4.539  0.2106  1.1487 -0.7062
  113DG      H7 2583   3.751   3.649   4.518 -1.1068  1.4746  2.0234
  113DG      H8 2584   3.738   3.577   4.673  1.7929 -1.2057  0.2299
  113DG      O9 2585   3.249   3.274   4.391  0.2493  0.4919 -0.3846
  113DG     O10 2586   3.578   3.539   4.547  0.7113  0.2052  0.5648
  113DG     C11 2587   3.154   3.351   4.465 -0.0929 -0.1079  0.1360
  113DG     C12 2588   3.499   3.642   4.604 -0.5924  0.2329  0.4278
  113DG     H13 2589   3.136   3.316   4.567 -2.3726 -0.1867 -0.2381
  113DG     H14 2590   3.054   3.352   4.421  0.8355 -0.9291 -2.1428
  113DG     H15 2591   3.544   3.740   4.586 -1.9949  0.5819 -1.6343
  113DG     H16 2592   3.481   3.630   4.710  0.0811 -0.2240  0.5036
  113DG     C17 2593   3.193   3.498   4.456 -0.0843  0.3493  0.2811
  113DG     C18 2594   3.361   3.640   4.536  0.4497 -0.7286 -0.3221
  113DG     O19 2595   3.311   3.510   4.529  0.1164  0.0453 -0.4082
  113DG     H20 2596   3.110   3.560   4.491  0.7851  1.1037  1.0695
  113DG     H21 2597   3.210   3.505   4.349  0.7164 -1.7626  0.2360
  113DG     H22 2598   3.290   3.708   4.585  0.4615 -0.1074 -1.1448
  113DG     H23 2599   3.379   3.675   4.434  0.4065  2.9931  0.8103
  114DG      C1 2600   5.006   0.176   3.752 -0.1529  0.1263  0.3061
  114DG      C2 2601   5.012   0.676   3.318  0.1372 -0.9469  0.0637
  114DG      H3 2602   5.094   0.115   3.773  0.3868  0.4265 -0.9786
  114DG      H4 2603   4.964   0.140   3.659 -1.4220 -2.7258  1.8709
  114DG      H5 2604   4.929   0.164   3.828 -2.4198  0.6370 -1.8179
  114DG      H6 2605   4.971   0.769   3.356 -1.6929 -1.5357 -0.3738
  114DG      H7 2606   5.061   0.698   3.224  0.8724  1.1200  0.8721
  114DG      H8 2607   4.919   0.622   3.303 -0.6448  0.6892 -1.1556
  114DG      O9 2608   5.033   0.314   3.725 -0.3219  0.5441  0.0331
  114DG     O10 2609   5.097   0.599   3.404 -0.0677  0.3874  0.3475
  114DG     C11 2610   5.085   0.385   3.837 -0.2087  0.1381 -0.1861
  114DG     C12 2611   5.196   0.678   3.473 -0.6572 -0.3187 -0.0998
  114DG     H13 2612   5.188   0.355   3.856 -0.8269 -1.4516  0.8515
  114DG     H14 2613   5.031   0.368   3.930  1.6495 -2.1197  0.5757
  114DG     H15 2614   5.202   0.781   3.437 -0.9980  0.3952  1.7475
  114DG     H16 2615   5.296   0.636   3.469  0.1718  1.4699  0.8817
  114DG     C17 2616   5.084   0.533   3.805 -0.2732 -0.0382  0.1372
  114DG     C18 2617   5.150   0.679   3.621  0.6445 -0.4361  0.3452
  114DG     O19 2618   5.129   0.543   3.667  0.1654 -0.0968  0.3800
  114DG     H20 2619   5.144   0.578   3.884  1.0206 -0.2172 -0.7081
  114DG     H21 2620   4.979   0.563   3.815 -0.9867 -2.0562 -0.7355
  114DG     H22 2621   5.228   0.731   3.677  2.1760 -2.1067 -0.1592
  114DG     H23 2622   5.057   0.735   3.614  0.1500 -1.4228 -1.9236
  115THF     O1 2623   2.858   3.883   0.963  0.9034 -0.1195 -0.1164
  115THF     C2 2624   2.974   3.887   0.891  0.6524  1.0139  0.3906
  115THF     C3 2625   2.790   4.005   0.934 -0.4394 -0.5101 -0.0091
  115THF     H4 2626   2.952   3.854   0.789 -0.6273 -0.3545  1.0755
  115THF     H5 2627   3.046   3.814   0.928  0.1217 -0.7125 -1.7530
  115THF     H6 2628   2.747   4.005   0.834 -3.3503 -1.5957  1.1343
  115THF     H7 2629   2.711   4.023   1.006 -0.2564 -1.7140  0.5179
  115THF     C8 2630   2.898   4.111   0.946  0.9044  0.6421  0.7435
  115THF     C9 2631   3.024   4.034   0.902 -0.5500 -0.7838 -0.1597
  115THF    H10 2632   2.920   4.138   1.049  0.0822  5.0064 -0.0090
  115THF    H11 2633   2.861   4.199   0.892 -0.7313  0.3252  1.2856
  115THF    H12 2634   3.081   4.079   0.821 -2.1874  2.6557  0.3882
  115THF    H13 2635   3.102   4.029   0.978 -0.4094  2.2441  0.0360
  116THF     O1 2636   3.305   0.399   4.429 -0.8393 -0.1273 -0.1377
  116THF     C2 2637   3.211   0.512   4.431 -0.5430  0.0046  0.7462
  116THF     C3 2638   3.370   0.408   4.299 -0.0937 -0.2093 -0.9373
  116THF     H4 2639   3.180   0.523   4.535 -2.1639  0.6023  0.2303
  116THF     H5 2640   3.124   0.497   4.367 -1.5008  2.8116  1.2285
  116THF     H6 2641   3.457   0.342   4.298 -0.8612 -1.2566 -0.5021
  116THF     H7 2642   3.310   0.382   4.212  0.4070 -0.8955 -1.0814
  116THF     C8 2643   3.410   0.551   4.301 -0.2616  0.0019  0.3601
  116THF     C9 2644   3.290   0.619   4.360 -0.5278 -0.1100  0.0811
  116THF    H10 2645   3.426   0.583   4.199 -0.9605 -2.5433 -0.6380
  116THF    H11 2646   3.499   0.577   4.358  0.4688  1.5179 -1.3789
  116THF    H12 2647   3.322   0.698   4.427  0.9291  0.1180 -0.8453
  116THF    H13 2648   3.229   0.658   4.278 -1.1829 -0.1178  0.5568
  117THF     O1 2649   5.185   2.238   0.037 -0.2290 -0.3682  0.7969
  117THF     C2 2650   5.131   2.114   0.050  0.2265  0.6675 -0.3895
  117THF     C3 2651   5.261   2.267   0.153  0.4844  0.2660 -0.2923
  117THF     H4 2652   5.154   2.049  -0.035 -0.0477  0.6913 -0.4840
  117THF     H5 2653   5.022   2.107   0.054  0.1197 -0.2731 -2.9892
  117THF     H6 2654   5.359   2.313   0.146  0.2956  1.2598  2.4104
  117THF     H7 2655   5.210   2.319   0.234 -1.5703 -0.1366 -1.2711
  117THF     C8 2656   5.291   2.132   0.213 -0.6845  0.8882 -0.2542
  117THF     C9 2657   5.173   2.055   0.184 -0.5174 -0.2321 -0.3215
  117THF    H10 2658   5.329   2.128   0.315 -2.1391 -0.8868  0.2735
  117THF    H11 2659   5.357   2.065   0.158 -1.4475  0.5159 -0.7257
  117THF    H12 2660   5.184   1.946   0.189  4.0947  0.1033  2.4077
  117THF    H13 2661   5.091   2.075   0.253  0.2020 -1.1998  0.8688
  118THF     O1 2662   3.045   0.901   3.261 -0.1427 -0.3398 -0.1681
  118THF     C2 2663   3.092   0.934   3.133  0.1930  0.0568  0.5573
  118THF     C3 2664   3.064   1.015   3.348  0.4810  0.7632  0.2663
  118THF     H4 2665   3.049   0.874   3.052  0.2890  0.4931  0.1772
  118THF     H5 2666   3.200   0.934   3.121  0.0453  2.4236 -1.6318
  118THF     H6 2667   2.995   1.003   3.431 -1.8758  0.5991 -1.6281
  118THF     H7 2668   3.169   1.016   3.379  0.3798 -0.5140  0.7134
  118THF     C8 2669   3.044   1.136   3.260 -0.0702  0.0723  0.4893
  118THF     C9 2670   3.052   1.078   3.114 -0.0369 -0.0407 -0.8891
  118THF    H10 2671   3.122   1.209   3.285  0.1400 -0.7779  2.4416
  118THF    H11 2672   2.944   1.167   3.290 -0.6370 -2.6088  1.5812
  118THF    H12 2673   2.963   1.096   3.053 -2.7326 -0.8707  2.4860
  118THF    H13 2674   3.126   1.141   3.065  1.0913  1.3341  2.3239
  119THF     O1 2675   2.072   2.733   2.854  0.0140  0.7054 -0.2965
  119THF     C2 2676   2.008   2.613   2.877  0.0791  0.3182 -0.4460
  119THF     C3 2677   2.058   2.818   2.971 -0.1020  1.0353  0.0097
  119THF     H4 2678   2.046   2.530   2.818 -0.2011  1.1279 -1.7969
  119THF     H5 2679   1.905   2.633   2.849 -0.1715  0.4317  0.4961
  119THF     H6 2680   2.125   2.903   2.980  0.5103  0.4125  1.7612
  119THF     H7 2681   1.954   2.850   2.973 -1.0618 -1.7693  2.0804
  119THF     C8 2682   2.074   2.717   3.081  0.2134 -0.1374 -0.5690
  119THF     C9 2683   2.011   2.592   3.029 -0.2709 -0.4506 -0.2509
  119THF    H10 2684   2.029   2.751   3.174  0.0783  0.8829 -0.9971
  119THF    H11 2685   2.179   2.698   3.102 -0.2422 -1.2225  0.9287
  119THF    H12 2686   2.066   2.500   3.050 -0.0771 -0.6283 -1.4559
  119THF    H13 2687   1.913   2.576   3.072 -0.3219  0.1692 -0.1403
  120THF     O1 2688   2.371   3.717   1.927  0.6251 -0.1368  1.2140
  120THF     C2 2689   2.448   3.656   1.827  0.3221  0.1286 -0.7550
  120THF     C3 2690   2.468   3.765   2.020  0.2263  0.1338 -0.2235
  120THF     H4 2691   2.506   3.722   1.762  1.9722 -1.7807 -1.3077
  120THF     H5 2692   2.391   3.607   1.748 -0.1603  1.5277 -1.3056
  120THF     H6 2693   2.516   3.861   1.999 -1.3013  1.6289  2.5216
  120THF     H7 2694   2.426   3.787   2.118 -0.6394 -2.2757  0.0018
  120THF     C8 2695   2.575   3.657   2.028  0.3236  0.2740  0.5907
  120THF     C9 2696   2.549   3.569   1.908  0.6433  0.0839  0.2282
  120THF    H10 2697   2.572   3.595   2.118 -4.4739 -1.8280 -0.7019
  120THF    H11 2698   2.675   3.699   2.026  0.4423  0.0631 -2.6449
  120THF    H12 2699   2.640   3.552   1.851  0.4590 -0.0800 -0.0195
  120THF    H13 2700   2.511   3.469   1.927 -0.2522  0.5873  1.1964
  121THF     O1 2701   1.058   2.348   1.637  0.5126 -0.1150  0.3063
  121THF     C2 2702   1.203   2.340   1.626 -0.7240 -0.0483  0.2543
  121THF     C3 2703   1.009   2.447   1.551 -0.3369  0.1502  0.0882
  121THF     H4 2704   1.249   2.245   1.598  0.9281 -0.0963  2.8225
  121THF     H5 2705   1.225   2.367   1.729 -2.9064  1.7474  0.3293
  121THF     H6 2706   0.984   2.397   1.457 -1.1182 -1.8142  1.2772
  121THF     H7 2707   0.917   2.490   1.590 -1.3902 -0.0163 -2.0581
  121THF     C8 2708   1.121   2.541   1.518 -0.5665 -0.0768 -0.3322
  121THF     C9 2709   1.245   2.450   1.531 -0.1692  0.2251 -0.0670
  121THF    H10 2710   1.121   2.620   1.593 -2.9489  0.9761 -1.3261
  121THF    H11 2711   1.119   2.588   1.420  0.1359 -1.0504 -0.8264
  121THF    H12 2712   1.274   2.411   1.434  0.0147 -0.9986  0.4589
  121THF    H13 2713   1.336   2.502   1.561  0.6502  0.9981 -3.5535
  122THF     O1 2714   0.248   2.259   2.681  0.4186  0.2307  0.2837
  122THF     C2 2715   0.209   2.393   2.713  0.4987  0.3460  0.0672
  122THF     C3 2716   0.232   2.164   2.784 -0.1032 -0.0870 -0.5992
  122THF     H4 2717   0.175   2.442   2.622 -2.4931  0.9885  1.4129
  122THF     H5 2718   0.283   2.458   2.760 -1.3604  3.3544 -0.9058
  122THF     H6 2719   0.206   2.065   2.746  3.3250 -1.9661  1.4278
  122THF     H7 2720   0.327   2.161   2.838  0.3244  0.8538 -1.2725
  122THF     C8 2721   0.120   2.231   2.868  0.1844 -0.2843  0.5655
  122THF     C9 2722   0.082   2.364   2.801 -0.4865  0.3414 -0.4407
  122THF    H10 2723   0.155   2.250   2.970 -0.8886  1.2426  0.6734
  122THF    H11 2724   0.032   2.169   2.885  0.1437 -0.1543  0.8468
  122THF    H12 2725  -0.001   2.368   2.730 -0.6742  1.0616 -0.1918
  122THF    H13 2726   0.061   2.441   2.876 -0.3897 -0.7679  0.7498
  123THF     O1 2727   5.361   2.219   3.083 -0.4643 -0.2238 -0.3211
  123THF     C2 2728   5.303   2.089   3.082  0.3039 -0.8421 -0.4560
  123THF     C3 2729   5.260   2.316   3.050  0.2719  0.1004  0.2368
  123THF     H4 2730   5.248   2.084   3.176  0.8922  1.0300  0.0262
  123THF     H5 2731   5.381   2.012   3.080  2.6696  1.4173 -0.2217
  123THF     H6 2732   5.230   2.341   3.152  0.9110 -1.4404  0.8299
  123THF     H7 2733   5.291   2.406   2.998 -0.9100  0.6104  0.3789
  123THF     C8 2734   5.157   2.240   2.978 -0.2271 -0.1613  0.4323
  123THF     C9 2735   5.224   2.102   2.959  0.4537 -0.1153  0.2141
  123THF    H10 2736   5.140   2.295   2.886  1.1124  1.4703  1.1107
  123THF    H11 2737   5.059   2.241   3.025 -0.5617 -2.7024 -0.0685
  123THF    H12 2738   5.147   2.025   2.953 -0.9653  1.1175  1.7028
  123THF    H13 2739   5.288   2.083   2.873 -0.7281 -2.9805 -0.1524
  124THF     O1 2740   2.340   3.048   2.430  0.1610 -0.3669 -0.2187
  124THF     C2 2741   2.440   3.034   2.330 -0.3449 -0.1878  0.0461
  124THF     C3 2742   2.217   2.989   2.375 -0.1134  0.1143  0.8222
  124THF     H4 2743   2.540   3.051   2.372 -0.0218 -0.0056 -0.7789
  124THF     H5 2744   2.414   3.097   2.245  0.0316 -3.4377 -2.6869
  124THF     H6 2745   2.143   2.968   2.453 -3.6421 -2.2777 -2.7223
  124THF     H7 2746   2.175   3.050   2.295 -0.1700 -1.3893 -0.3391
  124THF     C8 2747   2.270   2.858   2.320 -0.1320 -1.1732 -0.3781
  124THF     C9 2748   2.412   2.893   2.278 -0.4181 -0.4554 -0.5285
  124THF    H10 2749   2.215   2.820   2.233 -1.9158 -1.1145  0.6772
  124THF    H11 2750   2.280   2.786   2.401  1.1596  0.3866  0.8858
  124THF    H12 2751   2.478   2.825   2.331 -0.3840 -0.5032 -0.6320
  124THF    H13 2752   2.425   2.888   2.169 -2.7332  1.4177 -0.9617
  125THF     O1 2753   0.634   0.797   1.031 -0.0042 -0.1399 -0.2521
  125THF     C2 2754   0.767   0.772   1.070  0.5933  0.1455 -0.5691
  125THF     C3 2755   0.568   0.889   1.118 -0.2657 -0.0004  0.1421
  125THF     H4 2756   0.825   0.858   1.036  0.4944  0.5835  0.3264
  125THF     H5 2757   0.796   0.672   1.040  2.0656  0.4300 -0.2019
  125THF     H6 2758   0.611   0.987   1.097  0.6647 -0.1598  1.1998
  125THF     H7 2759   0.462   0.871   1.101  0.2458 -2.7523 -0.5042
  125THF     C8 2760   0.612   0.834   1.249 -0.0265  0.0021 -0.0147
  125THF     C9 2761   0.748   0.772   1.223  0.6307  0.1957 -0.4849
  125THF    H10 2762   0.549   0.753   1.285  1.1042  0.5676  3.6596
  125THF    H11 2763   0.601   0.901   1.335 -2.5639  1.5114 -1.3914
  125THF    H12 2764   0.838   0.813   1.270  0.5309 -0.5619  0.3973
  125THF    H13 2765   0.743   0.671   1.263  0.6823  0.2601 -0.3137
  126THF     O1 2766   3.203   0.380   0.038  0.5009 -0.1528  0.2457
  126THF     C2 2767   3.114   0.489   0.070 -0.3663 -0.8043 -0.1066
  126THF     C3 2768   3.324   0.430  -0.012 -0.0657  0.0465  0.1382
  126THF     H4 2769   3.141   0.524   0.170  0.2009 -0.6367 -0.3118
  126THF     H5 2770   3.011   0.454   0.067 -0.5591 -0.2150 -3.0870
  126THF     H6 2771   3.393   0.432   0.072 -2.3161 -0.8645  2.1301
  126THF     H7 2772   3.364   0.367  -0.091  0.4902  0.4990  0.0587
  126THF     C8 2773   3.292   0.567  -0.075  0.0204 -0.7328 -0.3175
  126THF     C9 2774   3.147   0.600  -0.027 -0.2347 -0.4247 -0.1592
  126THF    H10 2775   3.282   0.553  -0.183  1.1081 -2.4500 -0.2352
  126THF    H11 2776   3.371   0.642  -0.063 -1.4948  1.0025 -0.7489
  126THF    H12 2777   3.138   0.699   0.017 -1.0208 -0.6039  0.0868
  126THF    H13 2778   3.089   0.585  -0.118 -0.2975  0.6399 -0.2979
  127THF     O1 2779   4.987   2.026   1.062 -0.8419  0.0204 -0.1143
  127THF     C2 2780   4.953   1.898   1.118  0.1520 -0.5770 -1.2371
  127THF     C3 2781   4.962   2.125   1.167 -0.0089  0.4216  0.0205
  127THF     H4 2782   4.981   1.819   1.049  0.1292 -1.4121 -0.3103
  127THF     H5 2783   4.844   1.898   1.114  0.1159 -1.3645 -0.5357
  127THF     H6 2784   5.016   2.218   1.147 -0.1559  0.4915 -0.0514
  127THF     H7 2785   4.856   2.150   1.162  0.2463  1.3449 -2.7650
  127THF     C8 2786   5.025   2.046   1.286  0.2525  0.1210 -0.2455
  127THF     C9 2787   5.013   1.897   1.259 -0.4344  0.0904  0.2662
  127THF    H10 2788   4.981   2.064   1.383 -1.1110 -0.2286 -0.7750
  127THF    H11 2789   5.128   2.082   1.279 -0.4609  1.9776 -3.4812
  127THF    H12 2790   5.116   1.861   1.255 -1.1595 -2.0208 -0.6886
  127THF    H13 2791   4.956   1.834   1.327 -1.4203 -2.3930 -2.6230
  128THF     O1 2792   2.104   5.041   4.076 -0.0665  0.0316 -0.2475
  128THF     C2 2793   2.243   5.048   4.056 -0.3827 -0.5685  0.2028
  128THF     C3 2794   2.065   5.149   4.158  0.0427  0.0976  0.2682
  128THF     H4 2795   2.263   4.998   3.962 -0.7391 -0.1919 -0.0763
  128THF     H5 2796   2.301   4.997   4.133 -1.4355  0.6254  1.8772
  128THF     H6 2797   1.977   5.193   4.110 -2.1307 -1.9849  2.0841
  128THF     H7 2798   2.019   5.123   4.253 -1.4496 -0.6241 -0.6080
  128THF     C8 2799   2.186   5.244   4.172  0.1666  0.0739  0.3305
  128THF     C9 2800   2.274   5.206   4.056  0.3939  0.6005 -0.0911
  128THF    H10 2801   2.244   5.245   4.264  1.1044  0.8702 -0.2565
  128THF    H11 2802   2.155   5.343   4.139 -1.5181 -0.2619  0.7800
  128THF    H12 2803   2.243   5.257   3.965 -0.7952 -1.4280 -0.8696
  128THF    H13 2804   2.378   5.227   4.081 -0.4076  2.1288  2.3782
  129THF     O1 2805   4.030   0.770   4.539  0.2913 -0.0821 -0.1946
  129THF     C2 2806   4.018   0.881   4.453  0.0722  0.1853  0.1975
  129THF     C3 2807   4.019   0.650   4.466 -0.3468 -0.1872 -0.4021
  129THF     H4 2808   4.092   0.957   4.477  1.2668 -1.4661  2.1439
  129THF     H5 2809   3.921   0.925   4.475  0.7899  1.6108  0.6422
  129THF     H6 2810   4.122   0.617   4.459  0.1898  0.9123  1.4293
  129THF     H7 2811   3.958   0.573   4.512 -0.8371 -0.3919 -1.3820
  129THF     C8 2812   3.971   0.688   4.331 -0.1465  0.0567 -0.8617
  129THF     C9 2813   4.026   0.822   4.310 -0.0340  0.1535 -0.6516
  129THF    H10 2814   3.862   0.693   4.336 -0.0815  2.6152 -1.0338
  129THF    H11 2815   3.995   0.607   4.262  1.2664 -0.0528 -0.2789
  129THF    H12 2816   4.131   0.806   4.286  0.6206 -1.7420  2.7582
  129THF    H13 2817   3.978   0.882   4.233 -2.1657 -1.3384 -0.5659
  130THF     O1 2818   0.112   2.824   2.116  0.1468 -0.7579 -1.0963
  130THF     C2 2819   0.214   2.745   2.180  0.2155  0.4492 -0.5472
  130THF     C3 2820   0.013   2.726   2.095  0.3509 -0.2846 -0.2944
  130THF     H4 2821   0.284   2.806   2.237 -1.4423  1.0503  0.9299
  130THF     H5 2822   0.272   2.691   2.105 -0.2085  0.1258 -0.6451
  130THF     H6 2823  -0.080   2.767   2.056 -0.0390 -0.6646  0.2234
  130THF     H7 2824   0.056   2.657   2.022  0.4567 -0.3709 -0.1515
  130THF     C8 2825   0.003   2.653   2.230 -0.0128 -0.8562  0.4551
  130THF     C9 2826   0.148   2.653   2.279 -0.1922 -0.7103 -0.0585
  130THF    H10 2827  -0.056   2.563   2.220 -2.9704  1.0945 -1.3319
  130THF    H11 2828  -0.050   2.715   2.302  1.8748  1.6252 -0.1149
  130THF    H12 2829   0.165   2.696   2.378 -0.0211  1.0845 -0.8382
  130THF    H13 2830   0.200   2.557   2.281  1.8761  0.3527 -0.4060
  131THF     O1 2831   4.761   2.291   1.498 -0.4434  0.5257  0.0880
  131THF     C2 2832   4.798   2.334   1.634 -0.4079 -0.1977  0.0641
  131THF     C3 2833   4.838   2.379   1.416 -0.3159 -0.3812  0.1910
  131THF     H4 2834   4.778   2.249   1.698 -2.1960  0.0864 -0.0734
  131THF     H5 2835   4.734   2.420   1.657 -0.4231  0.4559 -2.1652
  131THF     H6 2836   4.835   2.340   1.314 -1.8058 -0.2395  0.1618
  131THF     H7 2837   4.800   2.481   1.417  0.8879  0.1295  3.2307
  131THF     C8 2838   4.973   2.385   1.488  0.0954 -0.0272 -0.9926
  131THF     C9 2839   4.942   2.382   1.637  0.5374 -0.0429  0.4848
  131THF    H10 2840   5.028   2.473   1.455  0.7083 -1.0115 -2.6679
  131THF    H11 2841   5.021   2.290   1.468 -1.2545 -0.8187 -0.5812
  131THF    H12 2842   5.003   2.323   1.705 -1.2870 -0.7704  1.5757
  131THF    H13 2843   4.966   2.480   1.680  0.6701  0.4446 -0.6663
  132THF     O1 2844   3.282   2.677   1.027  0.5418 -0.0114 -0.2277
  132THF     C2 2845   3.323   2.644   0.901 -0.4399  0.1161 -0.0882
  132THF     C3 2846   3.159   2.603   1.050 -0.7290 -0.2759 -0.1901
  132THF     H4 2847   3.372   2.547   0.895 -0.0363  0.3989 -2.1842
  132THF     H5 2848   3.410   2.700   0.867  1.1390 -1.6767  0.8057
  132THF     H6 2849   3.190   2.507   1.093  0.8394  1.0844  1.9217
  132THF     H7 2850   3.092   2.651   1.121 -1.4601  0.7336 -1.5218
  132THF     C8 2851   3.102   2.579   0.919  0.6166 -1.0297 -0.0285
  132THF     C9 2852   3.198   2.642   0.822 -0.5301 -0.1524  0.0855
  132THF    H10 2853   3.000   2.618   0.922  0.5896 -1.0473 -0.6313
  132THF    H11 2854   3.122   2.473   0.900  1.3986 -0.8825 -0.0330
  132THF    H12 2855   3.206   2.587   0.729 -0.1409  0.2955 -0.1503
  132THF    H13 2856   3.177   2.747   0.802  2.0783  0.3499 -0.3389
  133THF     O1 2857   2.856   1.489   4.196 -0.8399 -0.0917 -0.3856
  133THF     C2 2858   2.990   1.500   4.253 -0.4149 -0.0441  0.8748
  133THF     C3 2859   2.762   1.570   4.267  0.9402  0.2290 -0.0617
  133THF     H4 2860   3.054   1.543   4.177 -0.6262  0.7585  1.1433
  133THF     H5 2861   3.018   1.395   4.266 -0.2598  0.0482  1.3151
  133THF     H6 2862   2.766   1.669   4.221 -1.8424  0.2645 -0.3659
  133THF     H7 2863   2.656   1.546   4.261  1.4331 -1.8055 -3.0249
  133THF     C8 2864   2.828   1.601   4.405  0.1794  0.8449 -0.0663
  133THF     C9 2865   2.978   1.584   4.378  0.7651 -0.1374 -0.6175
  133THF    H10 2866   2.783   1.524   4.467 -0.3602  0.7663 -0.5470
  133THF    H11 2867   2.803   1.698   4.449 -2.6525  0.6957 -1.1460
  133THF    H12 2868   3.020   1.682   4.356 -0.0143  0.2846 -0.2878
  133THF    H13 2869   3.031   1.534   4.459  0.2844 -1.2065 -0.9429
  134THF     O1 2870   5.151   5.493   2.932 -0.1051 -0.8289 -0.1936
  134THF     C2 2871   5.258   5.587   2.946 -0.3651  0.3670 -0.3916
  134THF     C3 2872   5.169   5.403   2.828 -0.3601  0.0638  0.4429
  134THF     H4 2873   5.285   5.614   3.049  1.7357  0.1624 -0.8486
  134THF     H5 2874   5.248   5.674   2.881 -1.2498  0.5472 -0.0385
  134THF     H6 2875   5.178   5.303   2.871 -2.2688 -0.4371 -0.1988
  134THF     H7 2876   5.091   5.408   2.753 -0.6283  0.7002  0.7617
  134THF     C8 2877   5.312   5.436   2.782 -0.0156  0.1705  0.3353
  134THF     C9 2878   5.371   5.497   2.902 -0.3781  0.2608 -0.4447
  134THF    H10 2879   5.299   5.517   2.710  1.6730  1.5706  1.5297
  134THF    H11 2880   5.370   5.352   2.742  0.2057  0.1962  0.5966
  134THF    H12 2881   5.388   5.425   2.982 -1.0820  0.3236 -0.2264
  134THF    H13 2882   5.461   5.556   2.886 -0.8879  1.2665  0.2479
  135THF     O1 2883   3.209   0.185   3.521 -0.2741 -0.2012 -0.2748
  135THF     C2 2884   3.149   0.102   3.415 -0.4439 -0.6129  0.3351
  135THF     C3 2885   3.242   0.311   3.457 -0.5026  1.0044  0.4408
  135THF     H4 2886   3.096   0.021   3.465  0.4336  1.0479  4.3028
  135THF     H5 2887   3.223   0.063   3.345 -1.2128  0.1720 -0.9503
  135THF     H6 2888   3.263   0.385   3.533  1.0147  1.9114 -0.8153
  135THF     H7 2889   3.333   0.319   3.398 -1.2999 -0.0551 -1.0013
  135THF     C8 2890   3.132   0.341   3.357  0.3468  0.3762 -0.7686
  135THF     C9 2891   3.049   0.205   3.346 -0.4180  0.9565 -0.3299
  135THF    H10 2892   3.163   0.372   3.257 -1.6514  0.9155 -1.2660
  135THF    H11 2893   3.083   0.430   3.395 -1.7640 -0.9114 -0.3252
  135THF    H12 2894   2.958   0.203   3.406  0.9133  0.6661  1.7808
  135THF    H13 2895   3.011   0.178   3.248 -2.1152  0.1555  0.5162
  136THF     O1 2896   1.090   5.186   0.880  0.3724 -0.3300  0.0556
  136THF     C2 2897   0.951   5.208   0.914  0.5768 -0.1986  0.3409
  136THF     C3 2898   1.103   5.058   0.834 -0.2874  0.1663 -0.3077
  136THF     H4 2899   0.910   5.303   0.879  1.9874  0.5777  0.7562
  136THF     H5 2900   0.928   5.198   1.020  0.4961  1.6024  0.5199
  136THF     H6 2901   1.189   5.037   0.771 -0.2067  0.4951 -0.3092
  136THF     H7 2902   1.116   4.994   0.921  1.2294  0.9708  0.0934
  136THF     C8 2903   0.974   5.030   0.755 -0.2072  0.5511 -0.5866
  136THF     C9 2904   0.871   5.104   0.842 -0.1950  0.2137 -0.1898
  136THF    H10 2905   0.953   4.923   0.751 -1.4374  0.7643 -0.4064
  136THF    H11 2906   0.957   5.080   0.660 -1.0041  0.3022 -0.5823
  136THF    H12 2907   0.804   5.158   0.775  1.6005  2.4034 -0.3350
  136THF    H13 2908   0.816   5.042   0.912  0.2676 -0.8187 -0.7078
  137THF     O1 2909   3.302   3.756   1.393 -0.2826  0.1022  0.4586
  137THF     C2 2910   3.378   3.633   1.370 -0.1445 -0.4711  0.2912
  137THF     C3 2911   3.367   3.852   1.315  0.5343 -0.2819  0.1065
  137THF     H4 2912   3.332   3.541   1.406  1.5675 -0.5123  2.6033
  137THF     H5 2913   3.480   3.630   1.407 -0.5377  2.3052  1.8574
  137THF     H6 2914   3.302   3.938   1.302  1.5743  0.3885 -0.8329
  137THF     H7 2915   3.467   3.882   1.348 -0.1594  1.1280  1.0696
  137THF     C8 2916   3.388   3.776   1.183  0.1128  0.1394  0.0607
  137THF     C9 2917   3.379   3.628   1.215 -0.3210 -0.2324  0.2718
  137THF    H10 2918   3.484   3.805   1.140 -0.2718 -0.9747 -1.6215
  137THF    H11 2919   3.318   3.816   1.109  0.5098 -0.6024 -0.7284
  137THF    H12 2920   3.287   3.582   1.177  0.2105 -0.6207 -0.5786
  137THF    H13 2921   3.466   3.566   1.193  1.8308  1.8340  2.4557
  138THF     O1 2922   4.344   5.213   1.828 -0.6871 -0.3293 -0.3074
  138THF     C2 2923   4.206   5.253   1.840 -0.1719 -0.7108  0.2658
  138THF     C3 2924   4.408   5.288   1.716 -0.3205  0.3287  0.0290
  138THF     H4 2925   4.207   5.309   1.933 -2.7319  0.2261 -0.1782
  138THF     H5 2926   4.139   5.168   1.849  0.1508 -1.0401 -0.3773
  138THF     H6 2927   4.511   5.310   1.747  0.5837 -2.2504 -0.9038
  138THF     H7 2928   4.390   5.228   1.627 -1.1966  2.1315 -1.0733
  138THF     C8 2929   4.317   5.404   1.687  0.3313 -0.2225  0.9354
  138THF     C9 2930   4.182   5.339   1.717 -0.4182 -0.3515 -0.8842
  138THF    H10 2931   4.342   5.425   1.583  2.6791 -0.9264  1.2982
  138THF    H11 2932   4.346   5.491   1.746 -1.1241  0.9046  0.0421
  138THF    H12 2933   4.122   5.427   1.742  0.6059  0.1312 -0.0645
  138THF    H13 2934   4.141   5.291   1.628 -0.0941  0.0371 -1.2469
  139THF     O1 2935   4.958   2.911   5.173  0.0706 -0.0624 -0.3865
  139THF     C2 2936   4.868   2.856   5.265  1.2221  0.2500  0.0533
  139THF     C3 2937   5.054   2.987   5.251 -0.1145 -0.1565 -0.1933
  139THF     H4 2938   4.920   2.772   5.311 -2.0082 -1.6153  0.6273
  139THF     H5 2939   4.783   2.810   5.216  0.5414 -1.0545  2.2783
  139THF     H6 2940   5.120   2.918   5.303 -0.5086 -0.6144 -0.2845
  139THF     H7 2941   5.107   3.056   5.185  0.2885 -0.9813 -0.7465
  139THF     C8 2942   4.956   3.072   5.333  0.8632  0.1250 -0.0307
  139THF     C9 2943   4.845   2.977   5.356  0.1922  0.0311 -0.5657
  139THF    H10 2944   4.904   3.149   5.276  0.4819 -0.0254  0.1038
  139THF    H11 2945   5.007   3.110   5.421 -0.3627  2.5684 -0.2873
  139THF    H12 2946   4.849   2.939   5.458  1.3996 -1.7536 -1.2389
  139THF    H13 2947   4.744   3.018   5.347 -0.0127 -0.2296  0.4705
  140THF     O1 2948   5.356   3.665   5.142 -0.3844 -0.1457 -0.5238
  140THF     C2 2949   5.359   3.807   5.104 -0.4661  0.0690  0.1807
  140THF     C3 2950   5.335   3.649   5.282 -0.4338 -0.3476 -0.3593
  140THF     H4 2951   5.309   3.810   5.007  3.1473 -1.2510 -1.9096
  140THF     H5 2952   5.460   3.846   5.093 -0.7130  0.3715 -1.2370
  140THF     H6 2953   5.299   3.546   5.289  4.1711 -2.1218  0.8306
  140THF     H7 2954   5.424   3.666   5.342 -0.7087  2.4583 -0.6190
  140THF     C8 2955   5.229   3.758   5.297 -0.0701 -0.0188 -0.1446
  140THF     C9 2956   5.275   3.871   5.209 -0.3365 -0.3847  0.1051
  140THF    H10 2957   5.214   3.796   5.398  1.0350  1.0035 -0.3310
  140THF    H11 2958   5.133   3.736   5.251  0.0008 -0.2305 -0.1922
  140THF    H12 2959   5.195   3.937   5.173  0.4613  0.7481  0.3490
  140THF    H13 2960   5.346   3.930   5.267 -1.1344  0.4972  0.2169
  141THF     O1 2961   1.690   3.908   2.275  0.5721 -0.2899  0.0276
  141THF     C2 2962   1.649   3.965   2.397 -0.1812  0.2530 -0.0563
  141THF     C3 2963   1.831   3.901   2.271 -0.6226 -0.1358 -0.6510
  141THF     H4 2964   1.669   3.899   2.482  1.3402  0.6338 -0.0904
  141THF     H5 2965   1.544   3.996   2.398 -0.0007  0.9130 -0.9174
  141THF     H6 2966   1.855   3.820   2.341 -1.2976  1.8050  1.9731
  141THF     H7 2967   1.868   3.897   2.168  0.6111  0.8744 -0.2706
  141THF     C8 2968   1.880   4.026   2.349 -0.0609  0.1270  0.3646
  141THF     C9 2969   1.758   4.074   2.425 -0.1229 -0.5133  0.4477
  141THF    H10 2970   1.909   4.106   2.280 -0.5715  0.3019  0.3431
  141THF    H11 2971   1.963   4.006   2.416  1.3009  0.1494 -1.2483
  141THF    H12 2972   1.778   4.071   2.532 -2.8639 -1.1102  1.0336
  141THF    H13 2973   1.722   4.174   2.399  0.9031  0.1227  1.4099
  142THF     O1 2974   2.821   4.072   3.503 -0.1839 -0.3313 -0.0253
  142THF     C2 2975   2.683   4.019   3.489 -0.6912 -0.4109 -0.1009
  142THF     C3 2976   2.911   3.972   3.557 -0.1672 -0.3048 -0.1695
  142THF     H4 2977   2.655   4.002   3.385 -2.5436  0.6357  0.1890
  142THF     H5 2978   2.605   4.080   3.534  0.2248  1.4458 -0.9344
  142THF     H6 2979   3.014   3.959   3.524 -0.2536 -0.8558 -0.2252
  142THF     H7 2980   2.920   3.991   3.664 -1.5240  0.8308 -0.2163
  142THF     C8 2981   2.838   3.844   3.535 -0.4475 -0.0263 -0.0495
  142THF     C9 2982   2.696   3.885   3.560  0.1020  0.4714 -0.4366
  142THF    H10 2983   2.876   3.771   3.605 -0.8879 -0.8168 -0.6220
  142THF    H11 2984   2.859   3.823   3.430  2.3486  1.2562  0.1592
  142THF    H12 2985   2.616   3.822   3.521  0.1124  0.2347 -0.0808
  142THF    H13 2986   2.685   3.900   3.667 -0.4072  1.8479 -0.6684
  143THF     O1 2987   4.080   0.157   2.705 -0.1246 -0.8480 -0.1546
  143THF     C2 2988   4.077   0.042   2.626 -0.2076  0.9098 -0.0395
  143THF     C3 2989   4.108   0.274   2.630 -0.4310 -0.5852  0.4397
  143THF     H4 2990   3.976   0.001   2.626 -0.0041  0.3774 -0.9571
  143THF     H5 2991   4.140  -0.038   2.665 -0.1324  0.5333 -0.9005
  143THF     H6 2992   4.036   0.351   2.658  2.2237  1.8465  1.0961
  143THF     H7 2993   4.210   0.304   2.657 -0.5841  0.2974  0.0808
  143THF     C8 2994   4.078   0.225   2.489 -0.0367 -0.4101  0.0084
  143THF     C9 2995   4.120   0.083   2.482 -0.7356  0.4935  0.2550
  143THF    H10 2996   4.137   0.283   2.419 -1.6298  0.3879 -0.7244
  143THF    H11 2997   3.975   0.235   2.457  0.0965  1.2781  0.0048
  143THF    H12 2998   4.079   0.021   2.401  0.0931 -1.6335  1.3752
  143THF    H13 2999   4.229   0.088   2.475 -0.6589  0.5117  1.3754
  144THF     O1 3000   0.642   2.159   4.749  0.0001 -0.0438 -0.1288
  144THF     C2 3001   0.659   2.016   4.770  0.8226  0.1356 -0.2568
  144THF     C3 3002   0.524   2.172   4.673  1.0288  0.4784 -0.0919
  144THF     H4 3003   0.714   2.012   4.864 -0.3723 -1.2864  0.4263
  144THF     H5 3004   0.723   1.973   4.693  1.1965  0.4311 -0.1123
  144THF     H6 3005   0.481   2.270   4.696  3.7783  1.7052  0.3427
  144THF     H7 3006   0.541   2.176   4.565 -0.5503  1.1849 -0.3444
  144THF     C8 3007   0.445   2.048   4.691 -0.2851 -0.2966  0.1732
  144THF     C9 3008   0.518   1.955   4.787  0.4519 -0.1229 -0.0592
  144THF    H10 3009   0.427   1.994   4.598 -0.9915 -2.0756  1.2978
  144THF    H11 3010   0.346   2.068   4.733  0.0181 -1.5255  1.5031
  144THF    H12 3011   0.480   1.970   4.888  1.3066  1.0359  0.1212
  144THF    H13 3012   0.515   1.853   4.750 -2.1211  0.6963 -2.4077
  145THF     O1 3013   4.325   5.473   3.621 -0.7320  0.1391 -0.2446
  145THF     C2 3014   4.330   5.347   3.557  0.1269 -0.0444 -0.2716
  145THF     C3 3015   4.457   5.529   3.600  0.2988 -0.0240 -0.2264
  145THF     H4 3016   4.230   5.315   3.529 -0.2346  1.5274 -0.8738
  145THF     H5 3017   4.377   5.273   3.622  2.0237  0.3423 -1.1160
  145THF     H6 3018   4.460   5.635   3.625 -0.1903  0.1332 -0.7960
  145THF     H7 3019   4.529   5.478   3.663 -0.3894  0.0604  0.6487
  145THF     C8 3020   4.477   5.502   3.452 -0.0982  0.7609 -0.2711
  145THF     C9 3021   4.403   5.375   3.424 -0.9333 -0.7975  0.1588
  145THF    H10 3022   4.584   5.496   3.434 -0.1485 -0.7794 -0.1176
  145THF    H11 3023   4.432   5.581   3.392 -2.4321 -0.7842 -0.6589
  145THF    H12 3024   4.332   5.381   3.341 -1.0476  0.7173  0.3226
  145THF    H13 3025   4.478   5.297   3.416 -0.4916 -0.6098  1.9798
  146THF     O1 3026   3.989   3.786   0.906  0.3961  0.7569  0.1973
  146THF     C2 3027   4.110   3.754   0.841 -0.0359 -0.1571  0.0231
  146THF     C3 3028   3.997   3.777   1.042 -0.6911  0.7755 -0.5623
  146THF     H4 3029   4.168   3.845   0.822 -1.4419  1.1242  1.5620
  146THF     H5 3030   4.080   3.719   0.742 -1.0614 -0.5704  0.4711
  146THF     H6 3031   4.044   3.868   1.078  0.0234  0.8568 -1.6739
  146THF     H7 3032   3.902   3.756   1.092  0.6789 -1.9933  1.1042
  146THF     C8 3033   4.093   3.652   1.060 -0.2074  0.0868 -0.0292
  146THF     C9 3034   4.181   3.660   0.936 -0.0934 -0.0951 -0.3971
  146THF    H10 3035   4.033   3.562   1.050 -2.5166  1.5821 -0.5895
  146THF    H11 3036   4.151   3.660   1.152  1.1230 -0.7756 -0.7756
  146THF    H12 3037   4.284   3.694   0.950 -0.2833  1.2454 -1.9928
  146THF    H13 3038   4.193   3.556   0.904 -4.7472 -1.6838  2.1641
  147THF     O1 3039   5.370   5.164   0.989 -0.5110 -0.0905 -0.0070
  147THF     C2 3040   5.443   5.285   0.957  0.1168 -0.2635 -0.0804
  147THF     C3 3041   5.441   5.095   1.096 -0.4951 -0.2765 -0.1745
  147THF     H4 3042   5.380   5.368   0.925  2.2403  1.9615  1.1958
  147THF     H5 3043   5.515   5.262   0.879 -1.4077 -1.1792 -1.2827
  147THF     H6 3044   5.375   5.020   1.141  0.3135 -0.5093  0.6771
  147THF     H7 3045   5.527   5.042   1.055 -0.3811  0.2568 -0.6340
  147THF     C8 3046   5.486   5.211   1.186  0.0047 -0.1213 -0.0864
  147THF     C9 3047   5.518   5.315   1.085 -0.3034 -0.0108  0.0807
  147THF    H10 3048   5.563   5.190   1.260 -0.7245  0.5124  0.8685
  147THF    H11 3049   5.399   5.232   1.247  0.1084  1.0382 -0.3102
  147THF    H12 3050   5.473   5.407   1.122 -0.1312 -0.3556  1.1808
  147THF    H13 3051   5.625   5.325   1.065 -0.0482  0.6296  1.6077
  148THF     O1 3052   4.952   1.451   3.187  0.1253  0.0184  0.1169
  148THF     C2 3053   5.087   1.490   3.235 -0.3958  0.4500  0.5731
  148THF     C3 3054   4.942   1.310   3.205 -0.0873  0.1502 -0.2863
  148THF     H4 3055   5.084   1.573   3.306 -0.4625  0.6600  0.3285
  148THF     H5 3056   5.148   1.532   3.155 -1.0125  0.0332 -0.1205
  148THF     H6 3057   4.840   1.289   3.239 -0.2080  0.5734 -0.3828
  148THF     H7 3058   4.961   1.257   3.112 -0.0957  2.0845 -1.4433
  148THF     C8 3059   5.043   1.269   3.308 -0.1655  0.2920 -0.4078
  148THF     C9 3060   5.156   1.367   3.294  0.4396  0.0071  0.1735
  148THF    H10 3061   5.083   1.171   3.283  0.3010  1.2218 -3.8055
  148THF    H11 3062   5.009   1.272   3.412 -2.0152  2.9343 -0.9790
  148THF    H12 3063   5.200   1.397   3.389 -0.5817  0.3286  0.5614
  148THF    H13 3064   5.239   1.332   3.233  0.7725  2.1087 -0.6707
  149THF     O1 3065   2.230   3.068   0.765  0.2463  0.8135 -0.1903
  149THF     C2 3066   2.353   3.136   0.795  0.0120  0.0806 -0.1604
  149THF     C3 3067   2.180   3.086   0.629  0.0689  0.0595 -0.8801
  149THF     H4 3068   2.437   3.075   0.761  1.5353  1.2739  1.2811
  149THF     H5 3069   2.370   3.175   0.895  0.0788  0.5670 -0.3586
  149THF     H6 3070   2.209   2.990   0.587  0.2679 -1.4016  2.3156
  149THF     H7 3071   2.074   3.111   0.635  0.0392 -0.3125  0.3292
  149THF     C8 3072   2.276   3.189   0.572  0.5941  0.2367 -0.4370
  149THF     C9 3073   2.344   3.251   0.698 -0.1946  0.3144  0.2649
  149THF    H10 3074   2.222   3.266   0.518  1.7150 -0.0184 -1.9864
  149THF    H11 3075   2.343   3.136   0.504  0.6888 -0.4913  0.2072
  149THF    H12 3076   2.444   3.289   0.678 -0.5640  2.1872  1.6769
  149THF    H13 3077   2.293   3.339   0.738  0.1088  1.4746 -1.7325
  150THF     O1 3078   3.381   0.963   0.169  0.2420  0.2502  0.1877
  150THF     C2 3079   3.255   0.900   0.163  0.5761 -0.3124 -0.1420
  150THF     C3 3080   3.422   0.982   0.035  0.4893 -0.0119  0.2083
  150THF     H4 3081   3.198   0.890   0.256 -0.4081  0.2466 -0.6630
  150THF     H5 3082   3.280   0.796   0.142 -0.1420 -0.6094  0.4087
  150THF     H6 3083   3.487   1.069   0.018  0.0058  0.3369  0.1237
  150THF     H7 3084   3.478   0.899  -0.006  0.2204  0.6582 -1.6219
  150THF     C8 3085   3.293   0.988  -0.056 -0.4434 -0.0677 -0.2318
  150THF     C9 3086   3.174   0.962   0.040 -0.3716 -0.1004 -0.3577
  150THF    H10 3087   3.293   0.916  -0.137 -1.5651  0.4240 -0.6944
  150THF    H11 3088   3.291   1.083  -0.109  0.2419  0.3848  0.5294
  150THF    H12 3089   3.124   1.050   0.080 -0.3320  0.6991 -1.9936
  150THF    H13 3090   3.092   0.904  -0.003  1.1308 -1.4167 -1.5855
  151THF     O1 3091   2.464   3.727   1.225 -0.3728  0.8023  0.2667
  151THF     C2 3092   2.409   3.722   1.094 -0.0025 -0.1977 -0.2117
  151THF     C3 3093   2.405   3.834   1.297  0.2608 -0.4795 -0.6865
  151THF     H4 3094   2.313   3.671   1.085 -0.0350 -0.6216  2.0381
  151THF     H5 3095   2.489   3.678   1.033  0.9104  0.4175  0.5071
  151THF     H6 3096   2.341   3.798   1.377  1.4552  0.6821  0.8472
  151THF     H7 3097   2.488   3.882   1.349 -0.0756 -0.7278  0.0967
  151THF     C8 3098   2.340   3.932   1.195  0.2510  0.0709  0.2709
  151THF     C9 3099   2.395   3.872   1.065  0.2489  0.3388  0.1032
  151THF    H10 3100   2.381   4.031   1.216  2.3793 -0.7199  0.1470
  151THF    H11 3101   2.232   3.940   1.202  0.1610 -0.4987 -0.4284
  151THF    H12 3102   2.330   3.910   0.987  0.1297  0.3437  0.2052
  151THF    H13 3103   2.494   3.914   1.048 -0.2818  1.2029 -0.9569
  152THF     O1 3104   0.079   0.286   1.467 -0.0346 -0.1327 -0.1548
  152THF     C2 3105   0.063   0.289   1.607  0.4613  0.4888 -0.0077
  152THF     C3 3106   0.127   0.157   1.439  0.1198 -0.0846 -0.0776
  152THF     H4 3107  -0.032   0.240   1.629 -0.3103 -0.3327 -4.2031
  152THF     H5 3108   0.078   0.388   1.650 -1.8308  0.6342  0.6133
  152THF     H6 3109   0.054   0.076   1.440 -1.8903  1.6363 -0.3880
  152THF     H7 3110   0.170   0.144   1.340 -0.4269 -3.3250  0.0166
  152THF     C8 3111   0.240   0.145   1.536  0.5808  0.2626 -0.1681
  152THF     C9 3112   0.181   0.201   1.656  0.9820  0.0268 -0.7694
  152THF    H10 3113   0.315   0.220   1.512 -1.5222  2.2020 -0.9666
  152THF    H11 3114   0.291   0.049   1.540 -0.4737 -0.2719  0.9367
  152THF    H12 3115   0.150   0.138   1.739  2.3027  2.7574  1.9972
  152THF    H13 3116   0.245   0.267   1.714 -0.9232  0.4127  1.0496
  153THF     O1 3117   2.823   1.652   2.173  0.6027  0.0339  0.0658
  153THF     C2 3118   2.783   1.741   2.070  0.1989  0.1304  0.5151
  153THF     C3 3119   2.717   1.650   2.270  0.6767  0.1953  0.0739
  153THF     H4 3120   2.697   1.701   2.015  1.5707  0.3595 -1.9452
  153THF     H5 3121   2.864   1.753   1.999 -0.4893  0.5452 -0.2151
  153THF     H6 3122   2.622   1.615   2.231 -0.2690  0.1478  2.2826
  153THF     H7 3123   2.742   1.612   2.369  2.4839 -0.9819 -0.7806
  153THF     C8 3124   2.700   1.802   2.288 -0.2812  0.1350  0.0100
  153THF     C9 3125   2.743   1.861   2.155  0.0354  0.0344 -0.1959
  153THF    H10 3126   2.759   1.850   2.366 -1.6900  1.5088  0.2803
  153THF    H11 3127   2.595   1.827   2.288 -0.2865  0.2177  1.8705
  153THF    H12 3128   2.657   1.912   2.110  1.0224  1.8419 -0.1242
  153THF    H13 3129   2.829   1.927   2.158  0.0076  0.0566  0.0848
  154THF     O1 3130   0.325   4.582   0.210 -0.1018 -0.0945 -0.5371
  154THF     C2 3131   0.386   4.621   0.093 -0.1168  0.2563 -0.1119
  154THF     C3 3132   0.236   4.473   0.179  0.4340 -0.3047 -0.2999
  154THF     H4 3133   0.481   4.675   0.101  1.3205 -2.0911 -0.3695
  154THF     H5 3134   0.316   4.683   0.038 -0.3696  1.8250  1.8430
  154THF     H6 3135   0.253   4.397   0.256  1.8183  0.8691  0.6042
  154THF     H7 3136   0.131   4.500   0.173 -0.0582 -1.6269  1.3743
  154THF     C8 3137   0.281   4.415   0.040  0.2134 -0.7198 -0.4892
  154THF     C9 3138   0.408   4.496   0.008  1.0468  1.0519 -0.8256
  154THF    H10 3139   0.206   4.434  -0.036  1.1220 -1.1336 -1.5102
  154THF    H11 3140   0.306   4.310   0.054 -0.1673 -0.7758 -0.2027
  154THF    H12 3141   0.502   4.444   0.026  0.9278  1.1859  0.2006
  154THF    H13 3142   0.415   4.505  -0.101  0.3218 -2.5721 -1.2778
  155THF     O1 3143   3.354   2.303   3.828 -0.2387 -0.5965 -0.6042
  155THF     C2 3144   3.254   2.230   3.899  0.4314  0.6348  0.1308
  155THF     C3 3145   3.481   2.280   3.889 -0.1425 -0.4805 -0.5738
  155THF     H4 3146   3.176   2.195   3.831  0.5347 -1.3474  0.9589
  155THF     H5 3147   3.205   2.283   3.981 -0.7066  2.1279 -1.4642
  155THF     H6 3148   3.560   2.261   3.817  0.8022 -0.8576  0.5211
  155THF     H7 3149   3.508   2.374   3.937 -0.7054 -0.6413  0.0729
  155THF     C8 3150   3.454   2.164   3.983  0.3680  0.4532  0.2704
  155THF     C9 3151   3.323   2.107   3.944  0.0797 -0.6287  0.3618
  155THF    H10 3152   3.439   2.203   4.084 -2.1196  1.2323 -0.3318
  155THF    H11 3153   3.533   2.089   3.985 -0.9235 -0.9782 -0.2855
  155THF    H12 3154   3.350   2.045   3.858 -0.7323  0.6672 -0.8676
  155THF    H13 3155   3.262   2.056   4.018 -0.0302 -0.2609  0.5226
  156THF     O1 3156   0.655   5.457   4.852  0.0725  0.4906  0.3816
  156THF     C2 3157   0.529   5.459   4.916 -0.4595 -0.3140 -0.2401
  156THF     C3 3158   0.756   5.518   4.939  0.2194  0.3236 -0.2544
  156THF     H4 3159   0.522   5.358   4.956  3.2373 -0.7156 -0.3476
  156THF     H5 3160   0.444   5.484   4.852  0.7463  1.9070 -1.0611
  156THF     H6 3161   0.838   5.453   4.969 -1.4493 -2.0223 -0.5391
  156THF     H7 3162   0.795   5.611   4.896 -2.9199  1.3330 -1.2061
  156THF     C8 3163   0.687   5.552   5.073 -0.1028 -0.1248  0.1800
  156THF     C9 3164   0.548   5.571   5.024 -0.8339  0.2773  0.1745
  156THF    H10 3165   0.726   5.636   5.131  0.9884 -0.6592  0.2455
  156THF    H11 3166   0.690   5.469   5.143  0.2123 -0.6759 -0.4788
  156THF    H12 3167   0.478   5.556   5.107  0.7012 -1.5573  1.2183
  156THF    H13 3168   0.528   5.668   4.979 -0.4200 -0.7035 -2.2382
  157THF     O1 3169   0.378   3.017   3.884  0.5361 -1.0207 -0.1511
  157THF     C2 3170   0.503   3.053   3.823  0.6580  0.0504 -0.1064
  157THF     C3 3171   0.343   3.124   3.973 -0.2687  0.0390 -0.0102
  157THF     H4 3172   0.492   3.142   3.762  0.1072 -0.4600 -0.7800
  157THF     H5 3173   0.548   2.974   3.763  1.6822  1.2459 -0.9629
  157THF     H6 3174   0.316   3.216   3.922  0.2567  0.8247  1.0838
  157THF     H7 3175   0.268   3.096   4.047 -1.0963  1.7134 -0.1621
  157THF     C8 3176   0.478   3.146   4.040 -0.2073 -0.0496 -0.3807
  157THF     C9 3177   0.585   3.097   3.939  0.1150 -0.1129  0.4850
  157THF    H10 3178   0.471   3.094   4.135 -1.1370  1.1585  0.2492
  157THF    H11 3179   0.498   3.250   4.066 -0.0974  0.0616 -0.8940
  157THF    H12 3180   0.654   3.176   3.911 -1.7960  2.0211  1.3942
  157THF    H13 3181   0.635   3.011   3.983 -2.2761 -0.9988  1.6854
  158THF     O1 3182   3.726   4.177   0.813  0.5819 -0.6899 -0.5899
  158THF     C2 3183   3.786   4.130   0.695  0.5199 -0.3749 -0.1084
  158THF     C3 3184   3.814   4.173   0.929 -1.2016 -0.2101  0.2660
  158THF     H4 3185   3.780   4.206   0.617  0.9429 -1.0696 -0.8208
  158THF     H5 3186   3.741   4.038   0.657 -2.0351  0.4602  0.6442
  158THF     H6 3187   3.800   4.257   0.997 -3.9475 -1.8136  1.8580
  158THF     H7 3188   3.801   4.080   0.984  0.2144 -1.9525 -2.1110
  158THF     C8 3189   3.950   4.168   0.867  0.4529  0.2338  0.6237
  158THF     C9 3190   3.928   4.092   0.735  0.3197  0.4875  0.6174
  158THF    H10 3191   4.020   4.114   0.931  1.2787 -0.0616 -0.4965
  158THF    H11 3192   3.987   4.269   0.853 -1.1434  0.9644  1.4408
  158THF    H12 3193   4.005   4.096   0.658 -0.3782  2.2166 -0.0344
  158THF    H13 3194   3.927   3.988   0.767 -0.9241  0.7845  1.6060
  159THF     O1 3195   2.046   3.874   3.083 -0.1466 -0.3623 -0.1141
  159THF     C2 3196   1.964   3.785   3.167 -0.3691 -0.5274  0.8474
  159THF     C3 3197   2.125   3.797   2.998 -0.2231 -0.8378  0.3997
  159THF     H4 3198   1.867   3.788   3.118  0.4405 -1.9695 -0.9562
  159THF     H5 3199   1.959   3.830   3.267  1.5207 -0.2273  0.8554
  159THF     H6 3200   2.070   3.797   2.904 -0.6174  2.2819  0.5046
  159THF     H7 3201   2.215   3.852   2.969 -1.7924  1.5050 -0.3869
  159THF     C8 3202   2.151   3.664   3.070  0.0595  0.1511 -0.0209
  159THF     C9 3203   2.034   3.643   3.160 -0.0871 -0.4108 -0.0389
  159THF    H10 3204   2.243   3.670   3.129 -2.3417  2.3706  3.8765
  159THF    H11 3205   2.167   3.574   3.011 -1.8695 -2.2671  2.8090
  159THF    H12 3206   1.961   3.566   3.133  0.8102 -2.4819  2.8763
  159THF    H13 3207   2.069   3.607   3.257  1.2413 -2.8024 -1.3093
  160THF     O1 3208   3.932   3.487   2.181 -0.5588  0.0213  0.2081
  160THF     C2 3209   3.847   3.547   2.274 -0.1226 -0.6571  0.2688
  160THF     C3 3210   3.940   3.573   2.066  0.0122 -0.5049 -0.4809
  160THF     H4 3211   3.852   3.508   2.376  2.2034 -1.1307  0.0158
  160THF     H5 3212   3.745   3.556   2.236  0.5734  1.5702 -1.2497
  160THF     H6 3213   4.018   3.539   1.998  2.1668  0.2479  1.4707
  160THF     H7 3214   3.846   3.575   2.011 -0.8939  0.3695  1.0218
  160THF     C8 3215   3.964   3.713   2.134  0.0626  0.4766  1.0111
  160THF     C9 3216   3.901   3.691   2.268  0.0804 -0.5003 -0.1609
  160THF    H10 3217   3.928   3.788   2.064  0.1684 -0.9685 -0.6495
  160THF    H11 3218   4.072   3.726   2.144  0.1472  1.3142 -0.6492
  160THF    H12 3219   3.969   3.715   2.350  0.0301  1.2718 -0.6145
  160THF    H13 3220   3.819   3.762   2.278 -0.2083 -0.3996 -2.6035
  161THF     O1 3221   2.291   1.091   5.465  0.3657 -0.0518 -0.4116
  161THF     C2 3222   2.233   1.101   5.337  0.5439  0.5348  0.4829
  161THF     C3 3223   2.263   0.956   5.521 -0.3730  0.3227  0.8889
  161THF     H4 3224   2.266   1.187   5.279  0.7881  0.3927  0.4113
  161THF     H5 3225   2.130   1.131   5.356  0.6343  2.1697 -1.2657
  161THF     H6 3226   2.339   0.921   5.591  0.6781 -0.6163 -0.6696
  161THF     H7 3227   2.165   0.958   5.570 -0.2281  0.4582  1.1711
  161THF     C8 3228   2.253   0.876   5.392  0.4384  1.1832 -0.9187
  161THF     C9 3229   2.267   0.965   5.270 -0.1610 -0.3603 -0.1376
  161THF    H10 3230   2.160   0.823   5.368  1.6811 -0.2534 -2.9268
  161THF    H11 3231   2.317   0.788   5.394  0.2813  0.9921  2.5911
  161THF    H12 3232   2.371   0.965   5.237  0.0049 -0.3126  0.3726
  161THF    H13 3233   2.206   0.934   5.186  0.1073  1.4830 -1.0671
  162THF     O1 3234   1.025   4.609   4.586 -0.6442  0.4137 -0.4235
  162THF     C2 3235   0.983   4.734   4.534 -0.1814  0.5867 -0.0320
  162THF     C3 3236   0.909   4.529   4.604  0.5949  0.0677  0.1710
  162THF     H4 3237   1.068   4.795   4.503 -0.8422  0.0181 -3.4188
  162THF     H5 3238   0.932   4.785   4.616 -1.0078 -0.6138  0.2238
  162THF     H6 3239   0.942   4.426   4.594 -0.2583 -0.0819 -1.6011
  162THF     H7 3240   0.865   4.553   4.701 -2.0811  0.6405 -1.0744
  162THF     C8 3241   0.817   4.575   4.477 -0.0486 -1.1376  0.4439
  162THF     C9 3242   0.895   4.692   4.420  0.4428  0.9553 -1.0571
  162THF    H10 3243   0.718   4.607   4.512 -0.5308  0.6873 -2.3067
  162THF    H11 3244   0.811   4.505   4.394 -1.5103 -0.7982  0.2378
  162THF    H12 3245   0.961   4.658   4.340 -1.2538 -0.7800 -1.8037
  162THF    H13 3246   0.838   4.777   4.381 -0.8561  0.2613 -0.7098
  163THF     O1 3247   2.354   0.234   1.974  0.8754  0.4938  0.4996
  163THF     C2 3248   2.466   0.302   1.973 -0.6904 -1.0238  0.6731
  163THF     C3 3249   2.290   0.256   2.097  0.1948 -0.4497  0.0358
  163THF     H4 3250   2.520   0.290   1.879 -1.0556  0.3620  0.2582
  163THF     H5 3251   2.535   0.282   2.055 -0.4475  2.9804  1.6658
  163THF     H6 3252   2.186   0.228   2.086 -0.1813  0.9976 -0.3140
  163THF     H7 3253   2.341   0.195   2.172 -0.1250 -2.0217 -0.9735
  163THF     C8 3254   2.315   0.406   2.115 -0.2299  0.6342  0.8040
  163THF     C9 3255   2.420   0.440   2.005  0.1742 -0.3441  0.1278
  163THF    H10 3256   2.362   0.429   2.211  0.0985  2.7504  0.1951
  163THF    H11 3257   2.219   0.458   2.106 -1.4554 -1.6438  0.0529
  163THF    H12 3258   2.386   0.499   1.919 -0.3233 -0.8956 -0.0606
  163THF    H13 3259   2.506   0.492   2.046 -0.5584 -0.2788  1.6679
  164THF     O1 3260   1.951   2.489   0.687  1.1922 -0.4353 -0.3803
  164THF     C2 3261   1.888   2.446   0.811 -0.3970  0.0254 -0.1529
  164THF     C3 3262   1.994   2.617   0.712  0.0672  0.0154  0.3106
  164THF     H4 3263   1.964   2.422   0.885 -0.7963 -0.2010  0.1816
  164THF     H5 3264   1.829   2.355   0.800  1.0254 -1.6742  4.2538
  164THF     H6 3265   2.100   2.620   0.736  0.3360 -0.3713 -0.7469
  164THF     H7 3266   1.984   2.676   0.621  2.6908  0.0191 -0.0513
  164THF     C8 3267   1.913   2.680   0.821  0.4892  0.3631  0.2777
  164THF     C9 3268   1.811   2.566   0.850  0.3118 -0.4072 -0.4157
  164THF    H10 3269   1.864   2.772   0.789  2.5168  1.6645  0.7663
  164THF    H11 3270   1.968   2.698   0.914  0.2371 -0.6224  0.6385
  164THF    H12 3271   1.789   2.559   0.956 -1.2863  0.5663 -0.6450
  164THF    H13 3272   1.720   2.592   0.795  0.5590 -0.4421 -0.8438
  165THF     O1 3273   0.855   1.360   0.897 -0.1210 -0.4471 -0.4163
  165THF     C2 3274   0.869   1.481   0.834 -0.2586  0.3866  0.4556
  165THF     C3 3275   0.983   1.334   0.959 -1.0947  0.4789 -1.0859
  165THF     H4 3276   0.769   1.523   0.824  0.2079  1.6361  0.8694
  165THF     H5 3277   0.909   1.458   0.735 -0.5706 -1.9774  0.8236
  165THF     H6 3278   0.995   1.249   1.027  1.0823  1.3535 -0.2711
  165THF     H7 3279   1.047   1.306   0.875 -3.5773  0.3057 -3.0187
  165THF     C8 3280   1.043   1.469   0.989  0.3991 -0.4898 -0.1155
  165THF     C9 3281   0.952   1.570   0.923  0.0485  0.4270 -0.2140
  165THF    H10 3282   1.142   1.480   0.946  0.3510  1.0475  0.1058
  165THF    H11 3283   1.032   1.471   1.098 -0.3503 -1.0572 -0.1701
  165THF    H12 3284   0.878   1.615   0.989 -2.1432 -1.0214 -1.5837
  165THF    H13 3285   1.008   1.642   0.863 -0.4823 -0.0663 -1.3287
  166THF     O1 3286   3.892   3.953   0.438  0.1853  0.2034  0.4506
  166THF     C2 3287   4.021   3.899   0.457 -0.2989  0.3307  0.0188
  166THF     C3 3288   3.855   3.951   0.304 -0.9885 -0.2907 -0.0477
  166THF     H4 3289   4.008   3.833   0.542 -2.2607  0.1760 -0.3465
  166THF     H5 3290   4.093   3.978   0.480 -0.5701  0.4248  0.5508
  166THF     H6 3291   3.789   3.864   0.299 -0.0535 -0.9475 -1.4310
  166THF     H7 3292   3.812   4.045   0.269 -0.0559  0.2126  0.1171
  166THF     C8 3293   3.981   3.921   0.224 -0.5597 -0.2428 -0.3614
  166THF     C9 3294   4.051   3.829   0.325  0.2028  0.2565  0.0586
  166THF    H10 3295   4.037   4.013   0.208  0.7001 -0.9013  0.0276
  166THF    H11 3296   3.976   3.885   0.122  0.7790  2.3105 -1.4201
  166THF    H12 3297   4.006   3.730   0.324  2.4350 -0.8252 -1.2706
  166THF    H13 3298   4.156   3.804   0.311  0.4342  1.2371 -0.0533
  167THF     O1 3299   4.063   1.231   4.392  0.7909 -0.2068  0.3607
  167THF     C2 3300   4.115   1.361   4.439  0.4394  0.2804  0.0252
  167THF     C3 3301   4.062   1.241   4.247  0.2505  0.1530  0.0469
  167THF     H4 3302   4.218   1.378   4.407  0.2287  0.3555 -0.6318
  167THF     H5 3303   4.113   1.372   4.547  0.7254 -2.4876  0.3891
  167THF     H6 3304   4.160   1.269   4.208 -0.5290  1.7835 -0.8339
  167THF     H7 3305   4.013   1.152   4.208 -1.3547  0.7673  0.5539
  167THF     C8 3306   3.976   1.362   4.228 -0.4047  0.4201  0.6312
  167THF     C9 3307   4.005   1.438   4.355 -0.0322  0.3041 -0.0664
  167THF    H10 3308   3.880   1.314   4.245 -1.1233  1.1836 -1.0461
  167THF    H11 3309   3.981   1.410   4.131 -0.8468  0.7500  0.7672
  167THF    H12 3310   4.047   1.534   4.326 -0.7475  0.4568 -0.6432
  167THF    H13 3311   3.911   1.453   4.409  0.3414  1.0392  0.4058
  168THF     O1 3312   5.230   0.822   4.668 -0.1498  0.0581 -0.4981
  168THF     C2 3313   5.271   0.949   4.618 -0.1331 -0.2997 -0.1113
  168THF     C3 3314   5.096   0.818   4.679  0.4966 -0.1610 -0.2419
  168THF     H4 3315   5.316   0.924   4.522 -0.3956 -1.9125  0.1531
  168THF     H5 3316   5.350   0.996   4.677 -1.5257  0.0987  1.5170
  168THF     H6 3317   5.053   0.723   4.649  2.7684 -1.2224 -0.2910
  168THF     H7 3318   5.080   0.839   4.785  0.6685  0.4134 -0.3264
  168THF     C8 3319   5.031   0.934   4.595  0.1706  0.3772  0.5866
  168THF     C9 3320   5.141   1.038   4.610  0.1515 -0.6186 -0.3370
  168THF    H10 3321   4.935   0.964   4.637  0.7478  0.9301  1.5435
  168THF    H11 3322   5.022   0.914   4.488  2.6934  3.3641 -0.3385
  168THF    H12 3323   5.146   1.101   4.521 -0.4056 -2.1335 -1.4763
  168THF    H13 3324   5.119   1.096   4.700  0.9796 -0.8668  0.0302
  169THF     O1 3325   1.243   2.705   2.562 -0.2198  0.6124 -0.4005
  169THF     C2 3326   1.290   2.591   2.499 -0.3484  0.2075 -0.3466
  169THF     C3 3327   1.105   2.695   2.582 -0.5017  0.2582  0.6487
  169THF     H4 3328   1.318   2.508   2.564  1.8910  1.5257  0.4835
  169THF     H5 3329   1.382   2.606   2.443  0.7722 -0.8982  1.0991
  169THF     H6 3330   1.086   2.651   2.680 -0.3662 -0.0750  0.5278
  169THF     H7 3331   1.056   2.792   2.589 -1.8740 -0.4143  0.7403
  169THF     C8 3332   1.057   2.609   2.462  0.7134 -0.2310 -0.4389
  169THF     C9 3333   1.178   2.565   2.389  0.3077 -0.5104  0.3362
  169THF    H10 3334   0.993   2.673   2.400  0.6853  1.9029  1.6708
  169THF    H11 3335   0.994   2.526   2.495  1.9541 -1.3038 -0.6647
  169THF    H12 3336   1.166   2.463   2.354  1.4946 -0.6037  0.1470
  169THF    H13 3337   1.188   2.634   2.304  0.7544 -1.4452 -0.3846
  170THF     O1 3338   1.453   4.676   4.131 -0.3900 -0.2442 -0.5845
  170THF     C2 3339   1.497   4.707   3.999 -0.0822  0.4418  0.0348
  170THF     C3 3340   1.359   4.773   4.170  0.0571  1.2674 -0.0288
  170THF     H4 3341   1.423   4.687   3.922  0.1384  0.7487 -0.2633
  170THF     H5 3342   1.588   4.649   3.984 -0.0405  0.4789  0.1383
  170THF     H6 3343   1.272   4.742   4.114 -0.3278 -1.4252  1.8713
  170THF     H7 3344   1.326   4.786   4.274 -3.6218  3.0872 -1.2577
  170THF     C8 3345   1.415   4.902   4.106 -0.4361  0.0579  0.2905
  170THF     C9 3346   1.524   4.854   4.013 -0.7898 -0.3177  0.2212
  170THF    H10 3347   1.455   4.955   4.193 -1.4297 -1.0761  1.4960
  170THF    H11 3348   1.348   4.978   4.067  1.3607  2.4069  1.5168
  170THF    H12 3349   1.532   4.901   3.915 -1.9166 -1.6934 -0.5572
  170THF    H13 3350   1.616   4.866   4.071  0.0050 -1.0130 -0.8768
  171THF     O1 3351   1.717   1.231   5.360 -0.2471 -0.0355  0.1218
  171THF     C2 3352   1.766   1.279   5.236 -0.4657 -0.4441 -0.2586
  171THF     C3 3353   1.575   1.240   5.357 -0.1839  0.7027 -0.6557
  171THF     H4 3354   1.845   1.206   5.214 -0.4029 -0.5619  0.3297
  171THF     H5 3355   1.816   1.375   5.250  0.2642 -0.8341 -0.1502
  171THF     H6 3356   1.537   1.138   5.355 -1.5800  1.1949 -1.9530
  171THF     H7 3357   1.544   1.285   5.451 -1.6760 -0.3431 -0.6040
  171THF     C8 3358   1.534   1.317   5.232  0.0833 -0.2735 -0.5846
  171THF     C9 3359   1.651   1.288   5.141  0.1805  0.1969  0.0056
  171THF    H10 3360   1.518   1.418   5.270 -1.8334 -1.0604  0.8617
  171THF    H11 3361   1.440   1.283   5.189  0.5605 -1.0638 -1.0354
  171THF    H12 3362   1.651   1.185   5.105  1.4641 -0.1225  0.8665
  171THF    H13 3363   1.657   1.359   5.058  0.1032 -1.9441 -1.9182
  172THF     O1 3364   4.964   3.606   2.628  0.1827 -0.4193 -0.0076
  172THF     C2 3365   4.918   3.487   2.570  0.6418  0.3346  0.1852
  172THF     C3 3366   4.933   3.711   2.538  0.4873 -0.3908 -0.1181
  172THF     H4 3367   4.888   3.414   2.644 -0.6455 -2.1716 -2.5840
  172THF     H5 3368   4.988   3.440   2.500 -1.8842 -2.0058 -0.9351
  172THF     H6 3369   4.894   3.794   2.596 -1.3437 -0.5229 -1.0936
  172THF     H7 3370   5.023   3.746   2.488  0.7992 -0.7148  0.2112
  172THF     C8 3371   4.833   3.661   2.440  0.3722  0.0354  0.1682
  172THF     C9 3372   4.791   3.522   2.492 -0.3864  0.6215  0.3062
  172THF    H10 3373   4.888   3.642   2.348  2.1792 -0.5531  1.3229
  172THF    H11 3374   4.743   3.719   2.418  0.7778  0.4168 -0.4979
  172THF    H12 3375   4.711   3.526   2.566  0.7853  0.9098  1.5972
  172THF    H13 3376   4.763   3.448   2.417  2.4795  0.3025 -0.5471
  173THF     O1 3377   3.512   5.317   0.520  0.0616  0.7918  0.5741
  173THF     C2 3378   3.465   5.204   0.447 -0.1326  0.3041 -0.2566
  173THF     C3 3379   3.403   5.374   0.587 -0.5003  0.3371  0.1000
  173THF     H4 3380   3.555   5.143   0.442  1.3778  2.1777  2.0641
  173THF     H5 3381   3.424   5.234   0.350 -1.1998  0.2891  0.1707
  173THF     H6 3382   3.430   5.432   0.675 -2.3739 -2.6400  2.8068
  173THF     H7 3383   3.347   5.422   0.506  1.7134 -0.9198 -2.3436
  173THF     C8 3384   3.321   5.248   0.627  0.1203 -0.0446  0.3764
  173THF     C9 3385   3.364   5.135   0.539  0.4193  0.2471  0.6055
  173THF    H10 3386   3.213   5.261   0.635  0.2518  0.5551  1.5527
  173THF    H11 3387   3.356   5.225   0.728 -0.1713 -2.6872 -0.0618
  173THF    H12 3388   3.413   5.056   0.597 -1.4788 -0.1466  1.7340
  173THF    H13 3389   3.280   5.093   0.484  0.3827  0.0433  0.8155
  174THF     O1 3390   1.177   3.092   5.237  0.1430  0.2152  0.2478
  174THF     C2 3391   1.315   3.120   5.217 -1.3149  0.2230 -0.0240
  174THF     C3 3392   1.150   2.970   5.298 -0.2972  1.1374 -0.1144
  174THF     H4 3393   1.356   3.163   5.309  0.4502  0.4161 -0.8736
  174THF     H5 3394   1.328   3.184   5.130  2.9009  3.0228  2.3278
  174THF     H6 3395   1.160   2.979   5.406  0.1446 -0.2150 -0.0223
  174THF     H7 3396   1.050   2.939   5.269  0.5059 -0.7601 -1.0727
  174THF     C8 3397   1.263   2.885   5.226 -0.8129 -0.5107 -0.4458
  174THF     C9 3398   1.375   2.984   5.217  0.1513 -0.4416  1.0804
  174THF    H10 3399   1.228   2.858   5.127 -0.5454 -1.5466 -0.2624
  174THF    H11 3400   1.294   2.791   5.272  0.0526  0.5983  1.3604
  174THF    H12 3401   1.437   2.974   5.306  0.4901 -0.8989  0.8015
  174THF    H13 3402   1.443   2.970   5.134 -1.5813  1.8608 -0.8633
  175THF     O1 3403   0.725   5.177   2.389 -0.4347  0.1917 -0.2880
  175THF     C2 3404   0.700   5.046   2.332 -0.1101 -0.8961  0.0277
  175THF     C3 3405   0.658   5.277   2.319 -0.2621 -0.3386  0.6572
  175THF     H4 3406   0.597   5.022   2.360  0.1570  0.5586  2.4983
  175THF     H5 3407   0.776   4.985   2.380  2.5456  2.6384  0.6770
  175THF     H6 3408   0.555   5.273   2.353 -0.0259 -0.4109  1.3676
  175THF     H7 3409   0.712   5.371   2.324  0.1081 -0.5361  0.5016
  175THF     C8 3410   0.648   5.222   2.183 -0.6846  0.6182  0.5962
  175THF     C9 3411   0.713   5.089   2.183  0.4149  0.2747 -0.0986
  175THF    H10 3412   0.696   5.284   2.108  0.3471 -0.7461  0.0891
  175THF    H11 3413   0.544   5.205   2.155 -0.5001  0.1736  0.1654
  175THF    H12 3414   0.676   5.009   2.118  1.7658 -0.7157  0.3014
  175THF    H13 3415   0.816   5.097   2.148  1.1580  0.9649  2.0805
  176THF     O1 3416   1.052   4.076   1.457 -0.2633  0.1631  0.4613
  176THF     C2 3417   0.969   4.189   1.420  0.8371 -0.4622 -0.3501
  176THF     C3 3418   0.994   3.952   1.402  0.2479  0.7725 -0.4316
  176THF     H4 3419   1.017   4.218   1.327  2.5485 -1.1218  0.2910
  176THF     H5 3420   0.976   4.272   1.491 -1.3950  0.3685 -0.9992
  176THF     H6 3421   1.001   3.935   1.294  0.0120 -1.2809 -0.1618
  176THF     H7 3422   1.041   3.870   1.455  0.5286  0.6484 -0.8713
  176THF     C8 3423   0.846   3.980   1.444  0.9802 -0.0966 -0.3007
  176THF     C9 3424   0.830   4.132   1.420 -0.3573  0.4444 -0.4675
  176THF    H10 3425   0.832   3.956   1.550  0.1595  3.1264  0.4049
  176THF    H11 3426   0.783   3.903   1.399  0.8807 -0.7661  0.9347
  176THF    H12 3427   0.786   4.160   1.324  2.0958 -1.2944 -2.2454
  176THF    H13 3428   0.768   4.170   1.501 -0.6162  1.5129 -1.1499
  177THF     O1 3429   0.002   0.486   2.549 -0.1325 -0.0907  0.4328
  177THF     C2 3430  -0.096   0.495   2.654  0.3318 -0.0279 -0.8871
  177THF     C3 3431  -0.047   0.388   2.449 -0.3261  0.1419 -0.1516
  177THF     H4 3432  -0.179   0.565   2.642 -0.3790 -0.7402 -0.2487
  177THF     H5 3433  -0.051   0.526   2.748 -0.5455  1.2568 -0.8610
  177THF     H6 3434  -0.071   0.432   2.352 -2.1076 -0.2832  0.0637
  177THF     H7 3435   0.022   0.304   2.447 -0.2499  0.1503  1.2432
  177THF     C8 3436  -0.172   0.335   2.498  0.0461 -0.3786  0.0991
  177THF     C9 3437  -0.154   0.355   2.655  0.1804 -0.2245  0.0966
  177THF    H10 3438  -0.192   0.231   2.472 -1.4992  0.1237 -0.8716
  177THF    H11 3439  -0.259   0.394   2.468 -0.6176 -0.2668  2.0819
  177THF    H12 3440  -0.247   0.349   2.711  0.1185  1.8737  0.2963
  177THF    H13 3441  -0.095   0.280   2.707  1.8388  1.3805  0.6526
  178THF     O1 3442   1.637   4.155   4.693  0.7832  0.2336 -0.0997
  178THF     C2 3443   1.772   4.120   4.701 -0.7676  0.5574 -0.1202
  178THF     C3 3444   1.619   4.208   4.563  0.2923  0.1395 -0.3052
  178THF     H4 3445   1.779   4.026   4.647 -0.2905 -0.8379  2.2635
  178THF     H5 3446   1.798   4.095   4.804  3.1297 -0.7789 -1.2679
  178THF     H6 3447   1.616   4.131   4.486  0.0060 -0.0479 -0.1092
  178THF     H7 3448   1.520   4.255   4.564 -0.3134 -1.0896 -0.0419
  178THF     C8 3449   1.738   4.302   4.546  0.3786  0.2189 -0.2604
  178THF     C9 3450   1.836   4.249   4.652  0.5299  0.1471  0.3654
  178THF    H10 3451   1.712   4.405   4.571 -2.5414 -0.8491  1.6152
  178THF    H11 3452   1.782   4.311   4.447 -0.1439  2.5694 -0.3276
  178THF    H12 3453   1.937   4.246   4.613  0.1572  0.8321 -0.7186
  178THF    H13 3454   1.825   4.322   4.732 -0.9944  1.0673 -0.6220
  179THF     O1 3455   2.175   3.428   3.598  0.6112 -0.3751  0.2394
  179THF     C2 3456   2.126   3.320   3.674 -0.1512  0.1388  0.5210
  179THF     C3 3457   2.118   3.547   3.639  0.3258 -0.5464  0.1806
  179THF     H4 3458   2.175   3.312   3.771 -1.1191  0.0772  1.0094
  179THF     H5 3459   2.149   3.228   3.622 -1.9117  0.8679 -1.7010
  179THF     H6 3460   2.136   3.587   3.738 -1.0932 -3.5454  1.8043
  179THF     H7 3461   2.143   3.628   3.571 -0.0590  0.0271  0.7229
  179THF     C8 3462   1.971   3.499   3.641  0.1550 -0.3953 -0.1845
  179THF     C9 3463   1.978   3.354   3.670  0.4350  0.4998 -0.2081
  179THF    H10 3464   1.922   3.524   3.547  0.1764  0.4356  0.0160
  179THF    H11 3465   1.923   3.563   3.714  0.2874 -1.2724  0.6902
  179THF    H12 3466   1.941   3.322   3.767  3.4287 -1.0043  0.5546
  179THF    H13 3467   1.924   3.294   3.596  2.0459 -0.3157 -0.7651
  180THF     O1 3468   0.689   4.508   2.272 -0.2395  0.1299  0.6763
  180THF     C2 3469   0.825   4.547   2.295  0.4623 -0.4282  0.8536
  180THF     C3 3470   0.629   4.606   2.181 -0.4229 -0.1619 -0.2683
  180THF     H4 3471   0.885   4.518   2.210 -1.2940 -0.5741 -0.3987
  180THF     H5 3472   0.867   4.503   2.385  0.1046 -1.1712  0.6609
  180THF     H6 3473   0.636   4.565   2.080 -1.0639 -1.6955  0.2912
  180THF     H7 3474   0.521   4.614   2.189 -0.2737  1.0449  0.8592
  180THF     C8 3475   0.700   4.737   2.204  0.2419  0.1034  0.2868
  180THF     C9 3476   0.815   4.704   2.298 -0.4630  0.0921  0.4442
  180THF    H10 3477   0.631   4.807   2.251 -0.4767 -0.9937  0.9097
  180THF    H11 3478   0.734   4.782   2.111  0.4294 -2.0184 -0.7524
  180THF    H12 3479   0.914   4.742   2.275 -1.8068  3.4014 -0.5280
  180THF    H13 3480   0.793   4.740   2.399  0.2839 -3.0288  1.8420
  181THF     O1 3481   5.497   1.754   3.316  0.1201 -0.1361 -0.0067
  181THF     C2 3482   5.364   1.727   3.370 -0.1373  0.2606 -0.6399
  181THF     C3 3483   5.574   1.838   3.404  0.7032  0.5335  0.4515
  181THF     H4 3484   5.373   1.644   3.440  1.1473  1.3461  0.5365
  181THF     H5 3485   5.294   1.706   3.289  0.4319  1.7991 -1.5945
  181THF     H6 3486   5.640   1.772   3.460  0.8821  0.0282 -0.3367
  181THF     H7 3487   5.626   1.915   3.347  0.0836  0.1494 -0.6689
  181THF     C8 3488   5.478   1.877   3.517 -0.3703 -0.4329  1.3158
  181THF     C9 3489   5.339   1.846   3.461 -0.0580 -0.2571 -0.0218
  181THF    H10 3490   5.483   1.984   3.536  0.0562 -0.3660  0.8660
  181THF    H11 3491   5.482   1.830   3.615  2.3957  1.3538  2.1911
  181THF    H12 3492   5.264   1.844   3.540  0.5414  1.6573  0.6345
  181THF    H13 3493   5.312   1.926   3.392  1.1171 -0.5233 -0.8132
  182THF     O1 3494   5.060   0.924   1.642  0.2472  0.4737 -0.2347
  182THF     C2 3495   5.023   1.012   1.751  0.4900 -0.5244 -0.0934
  182THF     C3 3496   5.200   0.948   1.614  0.4636 -0.3630 -0.5025
  182THF     H4 3497   4.994   0.948   1.835 -0.8753 -0.1760 -0.2768
  182THF     H5 3498   4.939   1.075   1.722  2.2896  2.2148  0.2922
  182THF     H6 3499   5.252   0.878   1.679  2.8512  0.9034 -0.9237
  182THF     H7 3500   5.224   0.912   1.514 -1.5838  2.7419 -2.3076
  182THF     C8 3501   5.218   1.100   1.653 -0.4793  0.7173  0.3508
  182THF     C9 3502   5.131   1.119   1.779 -0.1307 -0.2003 -0.5382
  182THF    H10 3503   5.177   1.163   1.574 -1.3770  1.1591  1.1387
  182THF    H11 3504   5.323   1.129   1.660 -0.5338  0.5629  2.4526
  182THF    H12 3505   5.189   1.098   1.869  1.6209  1.7766 -1.1223
  182THF    H13 3506   5.096   1.219   1.803 -1.7245 -1.1763  1.5632
  183THF     O1 3507   4.778   1.325   4.541 -0.5561 -0.1491 -0.3243
  183THF     C2 3508   4.692   1.301   4.431  0.4847 -0.2775  0.1884
  183THF     C3 3509   4.714   1.288   4.661 -0.2105  0.4082 -0.6534
  183THF     H4 3510   4.740   1.240   4.354  0.7076 -0.7772  0.7132
  183THF     H5 3511   4.648   1.394   4.395  0.8942  0.8616  2.4997
  183THF     H6 3512   4.784   1.278   4.744 -0.1924  0.3229 -0.6785
  183THF     H7 3513   4.645   1.368   4.688  1.6813  1.7340  0.4798
  183THF     C8 3514   4.636   1.160   4.619  0.6015  0.1792 -0.3551
  183THF     C9 3515   4.574   1.214   4.494 -0.0423 -0.4455 -0.1735
  183THF    H10 3516   4.564   1.142   4.699  0.3670 -2.0610 -0.9931
  183THF    H11 3517   4.691   1.066   4.606 -0.3985 -0.5301  0.3986
  183THF    H12 3518   4.543   1.136   4.425 -2.4001  0.8406 -0.6678
  183THF    H13 3519   4.490   1.278   4.522  0.2533 -0.5671  1.0512
  184THF     O1 3520   2.865   4.418   3.869  0.3626 -0.3093 -0.5474
  184THF     C2 3521   2.889   4.557   3.872 -0.2906  0.3821 -0.5548
  184THF     C3 3522   2.796   4.387   3.749 -0.2635 -0.4302 -0.4467
  184THF     H4 3523   2.976   4.582   3.934 -0.7698  3.0314 -0.8111
  184THF     H5 3524   2.796   4.601   3.909 -0.5781 -0.8216  0.1959
  184THF     H6 3525   2.801   4.279   3.734 -0.5662 -0.7104  1.2137
  184THF     H7 3526   2.691   4.409   3.768 -0.0969 -0.7718  1.0685
  184THF     C8 3527   2.851   4.482   3.650  0.1166 -0.4045 -0.3688
  184THF     C9 3528   2.900   4.602   3.723 -0.6894 -1.0135 -0.0137
  184THF    H10 3529   2.776   4.509   3.576 -1.4072  1.9230  1.8644
  184THF    H11 3530   2.942   4.440   3.607  0.0133  1.4445 -2.5931
  184THF    H12 3531   3.005   4.616   3.701 -0.7570 -1.0667 -0.3737
  184THF    H13 3532   2.841   4.693   3.709  2.0321  1.3139  2.3496
  185THF     O1 3533   2.631   0.488   3.891  0.3665  0.0976  0.1921
  185THF     C2 3534   2.495   0.447   3.896  0.3687  0.1606 -1.3263
  185THF     C3 3535   2.641   0.615   3.833 -0.3895 -0.4728 -0.2946
  185THF     H4 3536   2.483   0.383   3.984 -1.1580 -1.0957 -2.3780
  185THF     H5 3537   2.467   0.389   3.807 -2.8868 -0.2892 -0.1506
  185THF     H6 3538   2.740   0.645   3.869 -0.8473  0.3818  0.3001
  185THF     H7 3539   2.619   0.622   3.727 -1.3837  1.7617  0.0055
  185THF     C8 3540   2.524   0.679   3.908 -0.1140  0.0140 -0.2741
  185THF     C9 3541   2.416   0.573   3.914  0.1310  0.0661  0.5246
  185THF    H10 3542   2.478   0.766   3.863 -0.8330 -0.9001 -1.3773
  185THF    H11 3543   2.546   0.698   4.013  2.1350  0.3030 -0.7473
  185THF    H12 3544   2.352   0.578   4.003 -0.8602  0.8388 -0.2122
  185THF    H13 3545   2.349   0.579   3.829  0.6137  1.6194  0.2381
  186THF     O1 3546   2.155   1.258   2.178 -0.3246  0.3326 -0.0159
  186THF     C2 3547   2.172   1.343   2.058  0.0499  0.9313 -1.1522
  186THF     C3 3548   2.273   1.245   2.257 -0.1604  0.3713  0.3641
  186THF     H4 3549   2.087   1.411   2.048 -0.1487  1.1420  1.4252
  186THF     H5 3550   2.181   1.279   1.970  0.6088 -1.4953  0.5561
  186THF     H6 3551   2.239   1.227   2.359 -2.1496  1.9640  0.0420
  186THF     H7 3552   2.335   1.166   2.213  0.7747  1.0198  0.4925
  186THF     C8 3553   2.333   1.390   2.233 -0.7762  0.3129  0.0678
  186THF     C9 3554   2.305   1.418   2.083 -0.1089  0.0632 -0.4948
  186THF    H10 3555   2.438   1.373   2.257 -0.3249  1.3766 -1.0615
  186THF    H11 3556   2.295   1.471   2.295  0.5214  2.3230 -1.6191
  186THF    H12 3557   2.283   1.524   2.074  4.1605  0.9579 -2.8079
  186THF    H13 3558   2.379   1.388   2.010 -0.7528 -1.2758 -0.6215
  187THF     O1 3559   0.195   1.823   2.716 -0.0063  0.0729  0.1552
  187THF     C2 3560   0.316   1.753   2.720  0.0144 -0.0124 -0.1986
  187THF     C3 3561   0.109   1.774   2.818 -0.7859  0.4017 -0.2424
  187THF     H4 3562   0.388   1.807   2.657  0.4947 -0.6754 -0.2270
  187THF     H5 3563   0.293   1.656   2.678  1.6708 -0.0522 -1.1035
  187THF     H6 3564   0.017   1.830   2.836 -2.7007 -1.3395 -3.5614
  187THF     H7 3565   0.073   1.674   2.792 -0.6063 -0.0194  1.0465
  187THF     C8 3566   0.213   1.747   2.932  0.0734  0.9109  0.4391
  187THF     C9 3567   0.352   1.753   2.865  0.3686  0.4804  0.0289
  187THF    H10 3568   0.188   1.654   2.984 -1.3603  1.8434  1.4835
  187THF    H11 3569   0.203   1.822   3.010  0.6199 -0.2166  1.6202
  187THF    H12 3570   0.404   1.843   2.899  0.0640  0.9363 -0.6938
  187THF    H13 3571   0.414   1.671   2.902 -0.0860  0.0112 -0.2431
  188THF     O1 3572   3.563   3.793   0.905  0.6988  0.0836  0.1957
  188THF     C2 3573   3.516   3.838   0.777 -0.1144 -0.4960  0.0545
  188THF     C3 3574   3.702   3.780   0.900  0.8416 -0.1191  0.0580
  188THF     H4 3575   3.549   3.940   0.759 -1.3726 -0.0541  0.1070
  188THF     H5 3576   3.407   3.830   0.776 -0.1296 -1.0442  1.8193
  188THF     H6 3577   3.733   3.884   0.907  0.6146 -0.1345  1.5751
  188THF     H7 3578   3.740   3.707   0.971  1.0660 -2.6829 -2.5103
  188THF     C8 3579   3.718   3.722   0.761  0.0096  0.0866 -0.0961
  188THF     C9 3580   3.589   3.746   0.677 -0.3842  0.5763  0.7487
  188THF    H10 3581   3.737   3.616   0.778  4.2517  0.5244 -0.9849
  188THF    H11 3582   3.809   3.760   0.717  0.2027  1.0466  1.0982
  188THF    H12 3583   3.611   3.793   0.581  1.6066 -1.4161  0.1165
  188THF    H13 3584   3.537   3.654   0.648  2.0558 -1.0834  1.2733
  189THF     O1 3585   4.091   4.050   2.204  0.0315  0.6228  0.4838
  189THF     C2 3586   4.225   4.096   2.212  1.1038 -0.2737 -0.1536
  189THF     C3 3587   4.047   4.058   2.340  0.5693  0.1686 -0.1653
  189THF     H4 3588   4.228   4.205   2.224  0.1739  0.0781 -2.3894
  189THF     H5 3589   4.282   4.084   2.120 -0.4585 -0.6880 -1.1155
  189THF     H6 3590   4.008   4.154   2.372  2.8153  0.5373  1.7207
  189THF     H7 3591   3.971   3.984   2.364 -0.2972  1.0706 -0.0594
  189THF     C8 3592   4.170   4.029   2.422  0.0772 -0.4814  0.1741
  189THF     C9 3593   4.289   4.022   2.329  0.3145 -0.1876 -0.3320
  189THF    H10 3594   4.151   3.935   2.474  1.2005 -1.5966 -1.3243
  189THF    H11 3595   4.168   4.105   2.499 -1.0075 -0.8472  0.5241
  189THF    H12 3596   4.375   4.079   2.364  0.1882 -0.7355  0.9580
  189THF    H13 3597   4.313   3.918   2.310  2.0120  0.1832 -0.3518
  190THF     O1 3598   5.092   3.086   0.412 -0.1311  0.4043  0.8919
  190THF     C2 3599   5.109   2.948   0.448 -0.2899  0.2644 -0.9333
  190THF     C3 3600   5.096   3.089   0.268 -0.3831 -0.4372  0.5590
  190THF     H4 3601   5.076   2.925   0.549  1.0377  0.0007 -0.5356
  190THF     H5 3602   5.217   2.932   0.438  0.5868  2.1705  3.3451
  190THF     H6 3603   5.053   3.179   0.224  0.2483 -0.7518 -0.7628
  190THF     H7 3604   5.199   3.098   0.231 -1.2850  0.6590 -1.9087
  190THF     C8 3605   5.025   2.955   0.226 -0.1637 -0.1807  0.3440
  190THF     C9 3606   5.033   2.864   0.355 -0.4737  0.3171  0.1019
  190THF    H10 3607   5.081   2.909   0.145 -1.4392  1.4751 -1.6011
  190THF    H11 3608   4.925   2.971   0.187 -0.6455  1.6833  2.1715
  190THF    H12 3609   4.931   2.847   0.389 -0.4609 -1.2148 -0.5500
  190THF    H13 3610   5.093   2.774   0.344  0.6272  1.0286  0.1675
  191THF     O1 3611   1.325   1.942   1.706  0.5405  0.0340 -0.1044
  191THF     C2 3612   1.199   1.957   1.776 -1.1137  0.6017  0.1433
  191THF     C3 3613   1.304   1.948   1.564 -0.3841  0.3089  0.1532
  191THF     H4 3614   1.205   2.024   1.862  0.9972  0.5571  0.0873
  191THF     H5 3615   1.170   1.865   1.828 -2.5405  0.9291 -0.0183
  191THF     H6 3616   1.335   2.049   1.539  0.7886 -0.0833 -0.0560
  191THF     H7 3617   1.362   1.867   1.519 -1.0104 -1.2195  1.9696
  191THF     C8 3618   1.154   1.924   1.555 -0.5274  0.4600  0.2619
  191THF     C9 3619   1.094   1.980   1.676 -0.2075 -0.0502 -0.0783
  191THF    H10 3620   1.139   1.816   1.557 -0.5347  0.3975 -1.4595
  191THF    H11 3621   1.109   1.946   1.457 -2.8948 -0.9191  0.9417
  191THF    H12 3622   1.073   2.087   1.678 -0.2654 -0.0082 -1.6788
  191THF    H13 3623   1.000   1.936   1.709 -0.9149  2.3195  1.3246
  192THF     O1 3624   1.510   3.394   2.483  0.4719  0.0430 -0.1301
  192THF     C2 3625   1.644   3.444   2.473  0.2692  0.0366 -0.0340
  192THF     C3 3626   1.421   3.498   2.446 -0.2114 -0.2919 -0.5261
  192THF     H4 3627   1.718   3.364   2.478 -0.5711 -0.8576 -1.2870
  192THF     H5 3628   1.659   3.508   2.560 -0.9365 -0.7500  0.7829
  192THF     H6 3629   1.316   3.472   2.432 -0.3097  0.1010 -0.5410
  192THF     H7 3630   1.422   3.573   2.526  0.3519 -0.0296 -0.7785
  192THF     C8 3631   1.489   3.567   2.330  0.0064  0.2718 -0.4060
  192THF     C9 3632   1.637   3.523   2.344  0.7117 -0.2813  0.6660
  192THF    H10 3633   1.494   3.676   2.329 -1.0604  0.3717  1.2528
  192THF    H11 3634   1.451   3.531   2.235 -0.7549  2.0276 -0.7911
  192THF    H12 3635   1.663   3.461   2.258 -1.2982  0.3909 -0.4976
  192THF    H13 3636   1.706   3.606   2.333  0.5990 -0.3013 -0.2708
  193THF     O1 3637   5.069   0.159   3.362 -0.2864 -0.4163  0.6275
  193THF     C2 3638   5.037   0.025   3.331 -1.1277 -0.0238 -0.7498
  193THF     C3 3639   5.059   0.239   3.246  0.7455  0.0143  0.2526
  193THF     H4 3640   4.984  -0.022   3.414 -1.5017 -0.5217 -1.2549
  193THF     H5 3641   5.130  -0.031   3.323 -0.7189  0.7018 -1.0946
  193THF     H6 3642   5.042   0.346   3.263 -0.9847  0.0334 -1.1874
  193THF     H7 3643   5.156   0.233   3.196  0.2644 -1.0550 -0.6134
  193THF     C8 3644   4.946   0.170   3.168  0.4888  0.7293  0.2769
  193THF     C9 3645   4.962   0.026   3.198 -0.2616 -0.1982 -0.4358
  193THF    H10 3646   4.935   0.200   3.063  1.4713  0.5976  0.1333
  193THF    H11 3647   4.847   0.192   3.209 -0.4200 -1.5498 -0.5152
  193THF    H12 3648   4.883  -0.049   3.190  0.1193 -0.5863 -0.6312
  193THF    H13 3649   5.036  -0.019   3.132  1.0971  0.0272  0.9062
  194THF     O1 3650   2.695   3.596   3.855 -0.6121  0.1056  0.5897
  194THF     C2 3651   2.675   3.520   3.741  0.3752  0.6663  0.7833
  194THF     C3 3652   2.579   3.679   3.872  0.3187  0.1195  0.3463
  194THF     H4 3653   2.735   3.429   3.731 -2.4024 -1.1439 -0.7455
  194THF     H5 3654   2.684   3.574   3.647 -2.5881  0.6276  0.4133
  194THF     H6 3655   2.567   3.719   3.973 -1.4244 -0.4631  0.3992
  194THF     H7 3656   2.566   3.763   3.803  1.0845  1.2296  1.4997
  194THF     C8 3657   2.471   3.577   3.847 -0.0314  0.2773  0.1905
  194THF     C9 3658   2.528   3.470   3.760 -0.0492  0.4920  0.9089
  194THF    H10 3659   2.385   3.622   3.797  0.5723 -0.3104 -1.4076
  194THF    H11 3660   2.449   3.530   3.943 -1.9954  1.8814  0.6126
  194THF    H12 3661   2.539   3.378   3.817  1.0264  0.7813  1.1994
  194THF    H13 3662   2.466   3.453   3.672  2.4612  1.5289 -1.1932
  195THF     O1 3663   0.505   2.286   2.283  0.5654 -0.3134  0.3559
  195THF     C2 3664   0.616   2.194   2.300 -0.4582  0.0724 -0.0052
  195THF     C3 3665   0.424   2.281   2.398  0.0190  0.2993 -0.5554
  195THF     H4 3666   0.688   2.252   2.358  1.1310 -1.1146 -0.7201
  195THF     H5 3667   0.657   2.170   2.202 -1.9518 -0.8720 -0.4297
  195THF     H6 3668   0.460   2.344   2.480 -0.7571 -0.6468  0.5530
  195THF     H7 3669   0.320   2.309   2.381 -0.0866  0.0230 -0.3765
  195THF     C8 3670   0.444   2.144   2.446 -0.3647 -0.0958 -0.6236
  195THF     C9 3671   0.561   2.075   2.383  0.2809  0.2952 -0.2139
  195THF    H10 3672   0.356   2.081   2.441  0.2712 -1.3454  2.0117
  195THF    H11 3673   0.457   2.165   2.553  1.5986 -1.6874 -0.4958
  195THF    H12 3674   0.636   2.038   2.454  0.5404  1.1279 -0.0418
  195THF    H13 3675   0.524   1.999   2.314 -1.9613  3.2808 -2.5362
  196THF     O1 3676   3.411   0.430   1.007 -0.0208  0.3101 -0.0395
  196THF     C2 3677   3.346   0.514   0.915 -0.3615  0.1243  0.4172
  196THF     C3 3678   3.546   0.415   0.957  0.2270  0.3407 -0.1887
  196THF     H4 3679   3.381   0.617   0.924  1.6680 -0.2921 -1.6039
  196THF     H5 3680   3.240   0.530   0.932  0.0707  2.5359  1.4077
  196THF     H6 3681   3.590   0.514   0.968 -1.0042  1.1274 -1.8144
  196THF     H7 3682   3.600   0.340   1.013 -0.7829 -0.7516 -0.6290
  196THF     C8 3683   3.528   0.384   0.810  0.0658 -0.2912  0.2833
  196THF     C9 3684   3.397   0.459   0.785 -0.2084 -0.4760  0.6746
  196THF    H10 3685   3.521   0.277   0.786 -0.6883 -0.7859  2.4818
  196THF    H11 3686   3.609   0.416   0.744  0.2771 -0.5389  0.4211
  196THF    H12 3687   3.419   0.532   0.707  0.9683 -4.0909 -2.7144
  196THF    H13 3688   3.326   0.394   0.734  1.0921  0.8065 -3.0824
  197THF     O1 3689   1.633   1.938   3.453 -0.0510 -0.2200 -0.2708
  197THF     C2 3690   1.621   2.050   3.369  0.5626 -0.3233  0.1848
  197THF     C3 3691   1.533   1.939   3.553 -0.4342 -0.0388  0.2600
  197THF     H4 3692   1.581   2.041   3.268  1.3085  0.0885 -0.1571
  197THF     H5 3693   1.722   2.085   3.345  1.1014 -2.5170 -1.0393
  197THF     H6 3694   1.484   1.842   3.548 -0.7534  0.1880 -1.6314
  197THF     H7 3695   1.577   1.946   3.652  2.2444  0.4515 -0.8739
  197THF     C8 3696   1.440   2.059   3.518  0.0944  0.0757  0.7694
  197THF     C9 3697   1.538   2.150   3.441  0.0392 -0.1829 -0.6078
  197THF    H10 3698   1.418   2.109   3.613  0.5758  2.2588 -0.2172
  197THF    H11 3699   1.353   2.031   3.460  1.5292  0.1502 -1.5440
  197THF    H12 3700   1.494   2.237   3.392 -0.3806  1.7488  2.8518
  197THF    H13 3701   1.612   2.197   3.506 -0.7041  2.0952 -1.2973
  198THF     O1 3702   2.707   5.201   2.466  0.2049  0.0936 -0.0782
  198THF     C2 3703   2.745   5.114   2.359 -0.4003 -0.3592 -0.3820
  198THF     C3 3704   2.603   5.129   2.529  0.3806 -0.4944  0.3224
  198THF     H4 3705   2.807   5.047   2.420 -0.5237  1.2432  1.5939
  198THF     H5 3706   2.812   5.162   2.287 -1.6110  0.9490 -0.6821
  198THF     H6 3707   2.641   5.042   2.583  0.7457  0.5374  1.7871
  198THF     H7 3708   2.553   5.194   2.601  2.1321  0.3373  0.8569
  198THF     C8 3709   2.518   5.081   2.412 -0.3087 -0.7231 -0.4987
  198THF     C9 3710   2.623   5.061   2.305 -0.4438 -0.0195 -0.3726
  198THF    H10 3711   2.441   5.152   2.382  1.5311  2.0187  0.7464
  198THF    H11 3712   2.455   4.996   2.440 -3.1435  2.3371  3.6943
  198THF    H12 3713   2.641   4.956   2.284  1.6230 -0.0640  1.3242
  198THF    H13 3714   2.595   5.117   2.215 -0.4342  2.5210  1.1231
  199THF     O1 3715   4.157   2.761   0.486  0.4260 -0.0925  0.2419
  199THF     C2 3716   4.104   2.857   0.568  0.0967  0.1774 -0.1403
  199THF     C3 3717   4.075   2.762   0.375  0.3058  0.5498 -0.0095
  199THF     H4 3718   4.109   2.959   0.528 -2.0007  0.9089  1.3051
  199THF     H5 3719   4.151   2.852   0.666 -0.5186  1.5787  0.2473
  199THF     H6 3720   4.108   2.846   0.314  0.1713  1.7316  1.4951
  199THF     H7 3721   4.086   2.669   0.320  1.8780  1.0065 -0.5210
  199THF     C8 3722   3.931   2.781   0.431 -0.2732 -0.2787  0.1419
  199THF     C9 3723   3.952   2.828   0.576  0.0386  0.0235  0.7131
  199THF    H10 3724   3.878   2.686   0.442  1.7175 -1.5295 -0.4692
  199THF    H11 3725   3.880   2.852   0.365  0.6647  0.0822 -0.2059
  199THF    H12 3726   3.898   2.918   0.605  0.3373  1.0074 -1.5648
  199THF    H13 3727   3.938   2.749   0.650  0.7840  0.7761  1.6907
  200THF     O1 3728   3.022   5.189   4.875 -0.0020  0.7059 -0.3807
  200THF     C2 3729   3.140   5.274   4.874  0.3152 -0.0091 -0.2946
  200THF     C3 3730   2.907   5.264   4.872  0.1055  0.1611  0.0764
  200THF     H4 3731   3.194   5.273   4.780  0.0270  0.2012 -0.4635
  200THF     H5 3732   3.201   5.249   4.961  2.6900  0.9664 -1.6021
  200THF     H6 3733   2.888   5.283   4.766 -0.6113  1.1631  0.3768
  200THF     H7 3734   2.822   5.205   4.906  0.4182  0.0364  0.6548
  200THF     C8 3735   2.941   5.394   4.950 -0.6832 -0.4678  0.0246
  200THF     C9 3736   3.080   5.421   4.895 -0.1664 -0.1949  0.1716
  200THF    H10 3737   2.944   5.374   5.057 -1.9916 -0.6055  0.0486
  200THF    H11 3738   2.875   5.476   4.921  1.7703  1.1246 -1.3980
  200THF    H12 3739   3.070   5.477   4.802  0.1744  0.2279  0.3921
  200THF    H13 3740   3.141   5.486   4.958 -1.4884 -0.9222  2.3092
  201THF     O1 3741   2.013   4.921   0.952 -0.4555 -0.2487 -0.0541
  201THF     C2 3742   2.028   4.781   0.972 -0.0723  0.0280 -0.1245
  201THF     C3 3743   1.962   4.988   1.074 -0.4217  0.1770  0.0118
  201THF     H4 3744   2.094   4.748   0.892 -0.3250 -0.5353 -0.1046
  201THF     H5 3745   1.926   4.744   0.970  0.1937 -0.6961 -1.7672
  201THF     H6 3746   1.990   5.093   1.072 -1.3207  0.4142 -1.3620
  201THF     H7 3747   1.854   4.992   1.080 -0.5860 -0.6732 -1.6907
  201THF     C8 3748   2.030   4.897   1.187 -0.4540  0.0907 -0.0124
  201THF     C9 3749   2.092   4.779   1.112  0.6335 -0.0623  0.7958
  201THF    H10 3750   1.959   4.874   1.266  1.8444  0.0601  2.2052
  201THF    H11 3751   2.108   4.957   1.236  0.1798  0.9748 -1.9915
  201THF    H12 3752   2.200   4.787   1.104  0.9563 -4.0802 -2.0237
  201THF    H13 3753   2.064   4.685   1.159 -0.7047 -0.9027 -1.5139
  202THF     O1 3754   0.796   0.242   2.320 -0.3882  0.7578 -0.2413
  202THF     C2 3755   0.688   0.316   2.257 -0.7932  0.0463  0.3422
  202THF     C3 3756   0.859   0.334   2.409 -0.1820  0.1288  0.1994
  202THF     H4 3757   0.613   0.253   2.209 -0.2656  0.0633 -0.5240
  202THF     H5 3758   0.729   0.393   2.192  0.0116 -0.2842  0.4421
  202THF     H6 3759   0.930   0.288   2.478 -0.3166  0.9284  0.8704
  202THF     H7 3760   0.910   0.410   2.349  0.0292  0.2339  0.5118
  202THF     C8 3761   0.737   0.394   2.484  0.1443  0.2912 -0.0380
  202THF     C9 3762   0.616   0.377   2.380 -0.0212  0.4498  0.0024
  202THF    H10 3763   0.746   0.496   2.520  2.5170  0.0726  0.1858
  202THF    H11 3764   0.713   0.330   2.569 -0.4202  0.5680  0.0183
  202THF    H12 3765   0.546   0.307   2.426  0.0171  0.7741  0.5557
  202THF    H13 3766   0.551   0.460   2.355 -0.1857 -0.2376 -2.0913
  203THF     O1 3767   1.449   3.835   0.516 -1.0826 -0.4313  0.7954
  203THF     C2 3768   1.479   3.700   0.517 -0.5928  0.3234  0.6902
  203THF     C3 3769   1.538   3.894   0.602  0.0868 -0.9494  0.7413
  203THF     H4 3770   1.438   3.657   0.425  1.2708  0.7760 -0.4006
  203THF     H5 3771   1.449   3.654   0.612  2.4019 -0.8128  1.2107
  203THF     H6 3772   1.528   4.003   0.608  1.0137 -0.8418  0.5499
  203THF     H7 3773   1.503   3.854   0.697 -0.7376 -1.2370  0.3168
  203THF     C8 3774   1.672   3.833   0.569  0.8449  0.3770 -0.0139
  203THF     C9 3775   1.632   3.698   0.508  0.7295  0.4285  0.1905
  203THF    H10 3776   1.732   3.812   0.657  0.8321 -1.6298 -0.4382
  203THF    H11 3777   1.719   3.889   0.487  0.8189 -0.6811 -0.7761
  203THF    H12 3778   1.679   3.679   0.412 -1.4476 -0.7492 -0.7111
  203THF    H13 3779   1.674   3.617   0.567  1.6850 -0.9358 -2.2295
  204THF     O1 3780   4.674   2.047   4.611  0.6213 -0.2266  0.3849
  204THF     C2 3781   4.792   2.098   4.666 -0.0423  0.5703  0.2008
  204THF     C3 3782   4.586   2.015   4.715  0.2781  0.7499  0.4584
  204THF     H4 3783   4.777   2.202   4.694  0.3576  0.6772  0.0243
  204THF     H5 3784   4.870   2.104   4.590 -1.2859  0.5101 -1.1388
  204THF     H6 3785   4.533   2.107   4.740 -1.3443 -0.5068  1.8551
  204THF     H7 3786   4.513   1.942   4.681  0.8206 -0.0745  1.0406
  204THF     C8 3787   4.673   1.967   4.822  0.1414  0.1855  0.0196
  204THF     C9 3788   4.813   2.019   4.787  0.5161  0.5397  0.0913
  204THF    H10 3789   4.669   1.859   4.808 -2.4477  0.3561 -1.1818
  204THF    H11 3790   4.627   1.991   4.918  0.9044 -0.5709  0.5889
  204THF    H12 3791   4.855   2.074   4.872  0.3479  1.1230 -0.1984
  204THF    H13 3792   4.874   1.931   4.770 -2.1182 -1.1042 -1.6149
  205THF     O1 3793   1.896   0.385   2.552 -0.3106 -0.4257 -0.0742
  205THF     C2 3794   2.008   0.457   2.598 -0.1849 -0.1060  0.1058
  205THF     C3 3795   1.909   0.248   2.599  0.8725 -0.6450 -0.4178
  205THF     H4 3796   1.993   0.486   2.702 -1.2485 -0.8363  0.1695
  205THF     H5 3797   2.012   0.544   2.533 -0.0414 -1.2760 -1.4989
  205THF     H6 3798   1.836   0.234   2.679 -0.8947 -0.1977 -1.8998
  205THF     H7 3799   1.888   0.184   2.513  3.0094  0.4791 -1.8618
  205THF     C8 3800   2.044   0.232   2.650 -0.3461 -0.1872  0.1541
  205THF     C9 3801   2.116   0.354   2.592 -0.2579 -0.1555 -0.1593
  205THF    H10 3802   2.095   0.139   2.626  0.3576  0.8081 -2.6241
  205THF    H11 3803   2.048   0.225   2.759 -2.0847 -0.2726  0.2302
  205THF    H12 3804   2.205   0.395   2.640 -2.3849  2.8141  1.6402
  205THF    H13 3805   2.141   0.339   2.487 -0.6192 -1.1356 -0.1118
  206THF     O1 3806   4.558   1.017   3.548 -0.0266 -0.2488  0.8558
  206THF     C2 3807   4.532   0.892   3.623 -0.5796 -0.2402  0.5075
  206THF     C3 3808   4.678   0.995   3.468  0.0328 -0.1515 -0.4300
  206THF     H4 3809   4.493   0.808   3.566  0.3593  0.3337 -1.0189
  206THF     H5 3810   4.469   0.921   3.708  1.8651  1.7612  1.7860
  206THF     H6 3811   4.645   0.935   3.384 -1.0408  1.6806 -1.3992
  206THF     H7 3812   4.725   1.089   3.439  3.1830 -0.5281  2.7923
  206THF     C8 3813   4.764   0.913   3.568  0.1389 -0.0188 -0.0751
  206THF     C9 3814   4.673   0.869   3.678  0.2621  0.4180  1.1503
  206THF    H10 3815   4.836   0.981   3.614 -1.3630  1.6479 -0.1013
  206THF    H11 3816   4.824   0.840   3.513 -0.2434 -0.0262 -0.4841
  206THF    H12 3817   4.709   0.771   3.709  1.0907 -0.0145 -0.9763
  206THF    H13 3818   4.681   0.939   3.760  0.1239  3.1457 -1.0370
  207THF     O1 3819   5.321   2.470   1.838 -0.1697 -0.2872  0.0823
  207THF     C2 3820   5.364   2.443   1.706 -0.3013 -0.1327 -0.5033
  207THF     C3 3821   5.358   2.362   1.921  0.3032  0.2498  0.2910
  207THF     H4 3822   5.467   2.476   1.697  0.0319 -0.0812  2.3406
  207THF     H5 3823   5.293   2.490   1.638  0.4270  0.6570 -0.7413
  207THF     H6 3824   5.458   2.387   1.957  0.6392  0.1382 -0.5331
  207THF     H7 3825   5.294   2.347   2.008 -1.4804  1.0875 -0.8088
  207THF     C8 3826   5.368   2.243   1.825  0.0243 -0.0584  0.2816
  207THF     C9 3827   5.357   2.297   1.686  0.5091 -0.1241 -0.8435
  207THF    H10 3828   5.290   2.169   1.842 -0.3875  0.6055  1.4000
  207THF    H11 3829   5.472   2.213   1.814  0.1076 -0.4102  1.7536
  207THF    H12 3830   5.444   2.273   1.626  0.4598  0.8878 -1.3292
  207THF    H13 3831   5.266   2.265   1.635 -0.2468  1.6844 -0.7068
  208THF     O1 3832   1.466   3.256   3.360  0.1170  0.6308 -0.1357
  208THF     C2 3833   1.558   3.358   3.380 -0.6823 -0.3309 -0.1159
  208THF     C3 3834   1.431   3.242   3.226 -0.6822  0.2009  0.1109
  208THF     H4 3835   1.633   3.310   3.443 -0.3443 -0.3868 -0.5595
  208THF     H5 3836   1.511   3.447   3.423 -1.5511 -0.2724 -1.1547
  208THF     H6 3837   1.409   3.141   3.191  0.9376 -0.3879  0.6884
  208THF     H7 3838   1.352   3.307   3.188 -0.5405 -0.2671 -1.0144
  208THF     C8 3839   1.555   3.273   3.154 -0.0090 -0.0532  0.3171
  208THF     C9 3840   1.619   3.380   3.236  0.3775  0.0878  0.1317
  208THF    H10 3841   1.548   3.294   3.047 -1.4412 -2.6272 -0.1879
  208THF    H11 3842   1.619   3.185   3.151  0.4048  0.2719 -0.9867
  208THF    H12 3843   1.726   3.363   3.223  0.1560 -0.9252 -0.4336
  208THF    H13 3844   1.593   3.480   3.200  1.5538  0.9843  1.6537
  209THF     O1 3845   2.914   0.589   2.925  1.0457  0.0343 -0.2956
  209THF     C2 3846   2.868   0.457   2.916  0.1405  0.3056 -0.3320
  209THF     C3 3847   2.819   0.651   3.012  0.4137  0.2343  0.2526
  209THF     H4 3848   2.945   0.390   2.879 -0.1700 -0.8234  0.9501
  209THF     H5 3849   2.782   0.437   2.851 -1.6356 -1.0279  2.2430
  209THF     H6 3850   2.855   0.750   3.040  3.7101  0.1280 -2.8374
  209THF     H7 3851   2.727   0.671   2.957 -0.3103 -1.9813  0.5722
  209THF     C8 3852   2.786   0.555   3.128 -0.1782  0.6749 -0.5286
  209THF     C9 3853   2.840   0.423   3.065 -0.1950 -0.0946 -0.0159
  209THF    H10 3854   2.678   0.540   3.140  0.1755 -2.1485 -0.1571
  209THF    H11 3855   2.843   0.579   3.218 -1.5942  0.3478  0.5145
  209THF    H12 3856   2.933   0.401   3.118  0.1007 -1.8753 -1.1622
  209THF    H13 3857   2.779   0.334   3.081 -1.1245  0.7297  1.2482
  210THF     O1 3858   2.124   0.796   2.803 -0.7361  0.4109 -0.2804
  210THF     C2 3859   2.065   0.928   2.802 -0.2159  0.6589 -0.4742
  210THF     C3 3860   2.265   0.798   2.763 -0.1472  0.4708 -0.1673
  210THF     H4 3861   2.006   0.941   2.893 -0.9298 -0.9087 -0.6779
  210THF     H5 3862   1.987   0.936   2.727 -0.3216  0.3833 -0.3936
  210THF     H6 3863   2.317   0.792   2.858  0.1040  0.2708 -0.3144
  210THF     H7 3864   2.286   0.710   2.702 -0.8739 -0.6813  1.1886
  210THF     C8 3865   2.292   0.934   2.699  0.3935  0.5859 -0.2465
  210THF     C9 3866   2.188   1.020   2.769 -0.3105 -0.2581 -0.6425
  210THF    H10 3867   2.271   0.940   2.592  0.1754 -2.1054 -0.4122
  210THF    H11 3868   2.394   0.967   2.715  1.5809 -2.5600 -0.8430
  210THF    H12 3869   2.224   1.057   2.865 -0.3195 -1.3716 -0.2053
  210THF    H13 3870   2.148   1.106   2.715 -2.9953 -0.6715  0.4949
  211THF     O1 3871   1.961   0.993   1.794  0.4836 -0.1282  0.0373
  211THF     C2 3872   2.087   1.051   1.762 -0.2045  0.2116 -0.5838
  211THF     C3 3873   1.964   0.936   1.930 -0.6764  0.5369 -0.2053
  211THF     H4 3874   2.080   1.149   1.808 -1.6205  0.4678 -1.2735
  211THF     H5 3875   2.099   1.067   1.655  2.4153  3.9261  0.1025
  211THF     H6 3876   1.976   1.015   2.003 -2.4533  1.5926 -0.9838
  211THF     H7 3877   1.880   0.873   1.961  0.0117 -1.1482 -1.5806
  211THF     C8 3878   2.097   0.863   1.908 -0.7101  0.3374  0.2054
  211THF     C9 3879   2.186   0.949   1.819  0.4770 -0.3674 -0.0506
  211THF    H10 3880   2.087   0.768   1.855  1.0187  0.2770 -0.0858
  211THF    H11 3881   2.150   0.825   1.996 -2.8354  0.7294  1.7209
  211THF    H12 3882   2.260   1.003   1.878 -1.6959  1.5172  1.1075
  211THF    H13 3883   2.229   0.889   1.738  2.2581 -0.1443  0.6922
  212THF     O1 3884   5.329   2.755   0.047 -0.2519 -0.2353  0.5918
  212THF     C2 3885   5.348   2.613   0.043  0.3921 -1.1723  0.3347
  212THF     C3 3886   5.437   2.816   0.120 -0.3634 -0.0939 -0.1791
  212THF     H4 3887   5.422   2.580  -0.030  0.1047 -1.1743  0.0427
  212THF     H5 3888   5.252   2.563   0.028 -0.4390 -0.1306  1.9019
  212THF     H6 3889   5.527   2.818   0.059  0.3151 -1.6108  0.7259
  212THF     H7 3890   5.409   2.916   0.153  2.2895  0.3558  0.9978
  212THF     C8 3891   5.445   2.709   0.232  0.2961  0.0669 -0.2819
  212THF     C9 3892   5.402   2.578   0.177 -0.0983  0.7676 -1.1074
  212THF    H10 3893   5.376   2.744   0.309 -1.6916  1.0240 -2.3642
  212THF    H11 3894   5.549   2.707   0.265  0.5485 -0.6204 -1.0926
  212THF    H12 3895   5.484   2.507   0.169  1.0127  1.7696  0.6346
  212THF    H13 3896   5.333   2.524   0.242  2.7677 -0.1890  1.4147
  213THF     O1 3897   2.658   4.705   2.267 -0.0153 -0.0121 -0.9897
  213THF     C2 3898   2.688   4.661   2.137 -0.3045 -0.2568  0.0229
  213THF     C3 3899   2.774   4.683   2.339 -0.0557 -0.0230 -0.8885
  213THF     H4 3900   2.766   4.723   2.094 -0.9624 -0.3679 -1.4005
  213THF     H5 3901   2.597   4.659   2.077 -1.1292 -1.1368  1.2526
  213THF     H6 3902   2.854   4.756   2.324 -0.9407  0.8661 -1.3879
  213THF     H7 3903   2.735   4.685   2.440 -0.3741  1.7831 -1.0126
  213THF     C8 3904   2.825   4.548   2.291  0.2972 -0.1074 -0.2069
  213THF     C9 3905   2.740   4.520   2.172 -0.1692  0.6857 -0.3168
  213THF    H10 3906   2.827   4.478   2.375  0.3315  1.0992  0.8417
  213THF    H11 3907   2.931   4.557   2.268  0.0615 -0.4902 -1.4776
  213THF    H12 3908   2.794   4.481   2.086 -0.1314 -0.3165  0.1472
  213THF    H13 3909   2.657   4.455   2.200 -0.8652  2.2057  1.3383
  214THF     O1 3910   0.856   4.962   0.284  0.4172 -0.5010  0.4924
  214THF     C2 3911   0.995   4.945   0.261 -0.4198 -0.4731  0.4529
  214THF     C3 3912   0.827   5.098   0.326  0.4402  0.4655  0.3623
  214THF     H4 3913   1.015   4.871   0.184  0.2126  2.6712 -2.6685
  214THF     H5 3914   1.050   4.922   0.352 -1.2267 -0.9640  0.8336
  214THF     H6 3915   0.722   5.124   0.314  0.2593 -0.4030 -0.0492
  214THF     H7 3916   0.862   5.109   0.428  3.7533  0.4897 -0.6684
  214THF     C8 3917   0.908   5.176   0.232  0.5973  0.1362  0.1263
  214THF     C9 3918   1.028   5.085   0.197 -0.4977 -0.4421 -0.0173
  214THF    H10 3919   0.938   5.272   0.275  0.2486 -0.7913  2.6052
  214THF    H11 3920   0.853   5.206   0.143 -0.6433 -1.2259  0.3886
  214THF    H12 3921   1.041   5.071   0.090 -0.3175  2.1988 -0.4077
  214THF    H13 3922   1.121   5.129   0.233 -1.4832  1.7082  0.0416
  215THF     O1 3923   4.815   4.896   1.488 -0.4999  0.3461  0.3910
  215THF     C2 3924   4.873   4.857   1.610  0.5080  0.7577 -0.2161
  215THF     C3 3925   4.754   5.022   1.488 -0.6199  0.4369  0.2617
  215THF     H4 3926   4.982   4.852   1.605  0.7274  1.2239  2.4402
  215THF     H5 3927   4.845   4.755   1.637 -0.1040  0.7490 -0.8498
  215THF     H6 3928   4.777   5.077   1.397  0.3472  1.1332  0.9009
  215THF     H7 3929   4.649   4.992   1.481  0.1066 -2.4397  0.2728
  215THF     C8 3930   4.812   5.082   1.612 -0.3658  0.1489 -0.4502
  215THF     C9 3931   4.819   4.956   1.709  0.1491  0.4211  0.2244
  215THF    H10 3932   4.754   5.159   1.663 -0.9784 -0.9954  0.6289
  215THF    H11 3933   4.913   5.119   1.590 -0.8800  1.6963 -0.3436
  215THF    H12 3934   4.898   4.977   1.781  1.0224 -0.1759 -0.5327
  215THF    H13 3935   4.725   4.926   1.754  0.3895 -0.2532  0.2972
  216THF     O1 3936   4.432   0.413   2.757 -0.1318 -0.1999  0.8667
  216THF     C2 3937   4.417   0.550   2.777 -0.2669 -0.1328  0.0718
  216THF     C3 3938   4.488   0.382   2.630  0.1999 -0.5659  1.2357
  216THF     H4 3939   4.515   0.587   2.807  1.1473 -1.4842 -2.5101
  216THF     H5 3940   4.338   0.564   2.851 -0.7345  3.0220 -0.8810
  216THF     H6 3941   4.597   0.388   2.633  0.3088  0.6382 -1.9949
  216THF     H7 3942   4.455   0.286   2.591  1.0200 -0.7915  1.0722
  216THF     C8 3943   4.423   0.489   2.546 -0.6018 -0.0625  0.2296
  216THF     C9 3944   4.368   0.597   2.641 -0.3726  0.0300  0.3494
  216THF    H10 3945   4.342   0.443   2.490 -2.6451  2.0618  1.2073
  216THF    H11 3946   4.496   0.534   2.479 -0.0581 -0.3806  0.6016
  216THF    H12 3947   4.410   0.697   2.629 -1.8857  0.7582  0.8823
  216THF    H13 3948   4.260   0.607   2.633 -0.3781  0.4417  0.8769
  217THF     O1 3949   0.289   3.651   3.088  0.4320  0.0908 -0.0535
  217THF     C2 3950   0.190   3.565   3.032 -0.0220  0.5688 -0.0052
  217THF     C3 3951   0.251   3.784   3.067 -0.1478 -0.3625 -0.4249
  217THF     H4 3952   0.199   3.466   3.077  1.9395  0.6289 -0.1937
  217THF     H5 3953   0.211   3.563   2.925 -0.0427  2.3405 -0.0615
  217THF     H6 3954   0.295   3.862   3.129 -0.5092  1.3212 -2.1700
  217THF     H7 3955   0.288   3.821   2.972  1.0060  0.7782  0.4310
  217THF     C8 3956   0.101   3.785   3.072  0.0838  0.3107 -0.5306
  217THF     C9 3957   0.068   3.635   3.064 -0.0778 -0.0009 -0.2807
  217THF    H10 3958   0.083   3.824   2.971  1.5314  2.9456  0.1142
  217THF    H11 3959   0.045   3.840   3.147 -0.7640 -0.8943 -0.2620
  217THF    H12 3960   0.048   3.609   3.168  0.5884  3.2603  0.8022
  217THF    H13 3961  -0.012   3.594   3.002  0.3189 -0.1951 -0.6633
  218THF     O1 3962   1.466   1.496   0.648 -0.1319  0.1612 -0.5997
  218THF     C2 3963   1.542   1.380   0.638  0.3826  0.5257  0.4020
  218THF     C3 3964   1.327   1.464   0.617  0.0782 -0.2431 -0.0433
  218THF     H4 3965   1.534   1.315   0.726  0.6765  0.2005  0.1918
  218THF     H5 3966   1.649   1.402   0.650  0.7012 -1.2635  1.2392
  218THF     H6 3967   1.272   1.449   0.710 -0.5439  0.5060 -0.2762
  218THF     H7 3968   1.274   1.544   0.565 -5.5878 -2.4411  1.6078
  218THF     C8 3969   1.333   1.339   0.531 -0.1830 -0.5100  0.0081
  218THF     C9 3970   1.483   1.306   0.524 -0.2108 -0.0804  0.2116
  218THF    H10 3971   1.292   1.340   0.430  0.7789 -1.0204 -0.4021
  218THF    H11 3972   1.266   1.266   0.578 -1.4390  0.1093 -0.7783
  218THF    H12 3973   1.503   1.199   0.521 -0.8682 -0.1965 -0.0995
  218THF    H13 3974   1.526   1.354   0.436 -1.9845  0.5350 -0.3500
  219THF     O1 3975   1.901   2.553   2.396 -0.4915 -0.0053  0.0455
  219THF     C2 3976   1.950   2.681   2.438  0.4500 -0.3603 -0.2092
  219THF     C3 3977   1.769   2.535   2.437  0.1464 -0.7413  0.7847
  219THF     H4 3978   1.995   2.733   2.354  0.0506  1.5073  0.6952
  219THF     H5 3979   2.031   2.687   2.511  0.9058  2.0020 -0.8403
  219THF     H6 3980   1.730   2.468   2.361  2.7192 -0.3957 -0.9421
  219THF     H7 3981   1.770   2.506   2.542 -1.0861  1.5450  1.5210
  219THF     C8 3982   1.715   2.678   2.431  0.0291 -0.2437  0.6637
  219THF     C9 3983   1.831   2.751   2.489  0.5764  0.1875 -0.3911
  219THF    H10 3984   1.624   2.696   2.487  0.2069  1.9998  0.3419
  219THF    H11 3985   1.689   2.703   2.328 -1.0573 -2.7463  0.2658
  219THF    H12 3986   1.833   2.857   2.463  0.8978  0.2802 -0.0099
  219THF    H13 3987   1.825   2.736   2.597 -1.0372 -1.8954 -0.7161
  220THF     O1 3988   4.742   3.291   1.738  0.6893 -0.2524  0.6357
  220THF     C2 3989   4.664   3.277   1.622 -0.9587 -1.1758  0.2562
  220THF     C3 3990   4.849   3.381   1.707 -0.0322  0.1155  0.5653
  220THF     H4 3991   4.568   3.228   1.642 -2.2455  0.9911 -0.3166
  220THF     H5 3992   4.722   3.219   1.551 -0.6052  0.1699 -0.5770
  220THF     H6 3993   4.907   3.417   1.792 -0.3849 -1.0967  1.3454
  220THF     H7 3994   4.917   3.340   1.632  1.1650 -0.8916  2.1316
  220THF     C8 3995   4.771   3.491   1.639 -0.3775 -0.5835  0.2689
  220THF     C9 3996   4.647   3.421   1.577  0.4932  0.2559  0.3837
  220THF    H10 3997   4.839   3.526   1.562  0.6565  1.9563  2.1797
  220THF    H11 3998   4.752   3.579   1.702  1.0793  0.2033 -0.3367
  220THF    H12 3999   4.554   3.465   1.612 -0.3701  1.5231 -3.0696
  220THF    H13 4000   4.640   3.438   1.469  0.4284 -1.2219  0.1382
  221THF     O1 4001   0.267   0.539   1.869 -0.2606 -0.6610 -0.0086
  221THF     C2 4002   0.403   0.515   1.888 -0.1459  0.3270 -0.1884
  221THF     C3 4003   0.200   0.517   1.990 -0.0646 -0.5866  0.4432
  221THF     H4 4004   0.459   0.570   1.813  0.4211  1.8673  1.2910
  221THF     H5 4005   0.413   0.407   1.879  1.0290  0.4275 -0.2525
  221THF     H6 4006   0.122   0.590   2.013  0.1634 -0.8664  2.3269
  221THF     H7 4007   0.162   0.415   1.999  0.6993 -0.7720  1.9819
  221THF     C8 4008   0.304   0.528   2.102  0.0302 -0.2344  0.1159
  221THF     C9 4009   0.427   0.571   2.025  0.3507  0.4485 -0.6536
  221THF    H10 4010   0.320   0.437   2.160  3.3067  1.9056  3.0139
  221THF    H11 4011   0.270   0.600   2.177  1.4909 -0.6530  1.2440
  221THF    H12 4012   0.446   0.678   2.020  0.9426  0.2989 -1.9292
  221THF    H13 4013   0.521   0.544   2.074  0.3529  1.2929 -0.1761
  222THF     O1 4014   4.662   1.318   0.228  0.2792  0.7677 -0.5379
  222THF     C2 4015   4.553   1.397   0.181 -0.3580  0.0760 -0.0094
  222THF     C3 4016   4.770   1.313   0.128 -0.3176  0.6262 -0.1004
  222THF     H4 4017   4.575   1.503   0.189 -1.5844  0.3282  0.2163
  222THF     H5 4018   4.468   1.367   0.243 -0.2596  2.0456  1.1523
  222THF     H6 4019   4.841   1.394   0.147  1.5114 -0.6473 -1.1616
  222THF     H7 4020   4.832   1.224   0.131 -0.4981  0.4753 -0.6982
  222THF     C8 4021   4.699   1.333  -0.009 -0.2204  0.1266  0.4281
  222THF     C9 4022   4.552   1.351   0.033 -0.0963 -0.2306  0.2342
  222THF    H10 4023   4.718   1.249  -0.075  0.5524  0.5415  0.1168
  222THF    H11 4024   4.743   1.425  -0.048  1.1632  0.5027  2.6545
  222THF    H12 4025   4.494   1.424  -0.024 -2.1905 -2.6950 -1.0147
  222THF    H13 4026   4.504   1.255   0.014 -0.1796  0.1146 -1.4031
  223THF     O1 4027   4.295   0.015   5.476  0.0916 -0.6168  0.2040
  223THF     C2 4028   4.312  -0.103   5.554 -0.2345  0.0699 -0.2443
  223THF     C3 4029   4.251  -0.035   5.353  0.0223  0.4670 -0.1449
  223THF     H4 4030   4.236  -0.102   5.632  1.4997  3.4821  1.6088
  223THF     H5 4031   4.406  -0.091   5.607 -1.0713  0.4567  1.2406
  223THF     H6 4032   4.146  -0.067   5.353  0.7581 -2.2134 -1.4992
  223THF     H7 4033   4.252   0.036   5.270  0.7101 -1.2280 -1.6572
  223THF     C8 4034   4.332  -0.163   5.331  0.5911  0.2789 -0.3976
  223THF     C9 4035   4.322  -0.230   5.467 -0.4589  0.3799 -0.2085
  223THF    H10 4036   4.436  -0.133   5.326  0.4520  1.9814  3.2284
  223THF    H11 4037   4.296  -0.226   5.250  1.3317  1.2090 -1.4693
  223THF    H12 4038   4.237  -0.295   5.488 -0.7939 -0.1280 -2.8084
  223THF    H13 4039   4.416  -0.285   5.482 -1.9764 -2.2510  0.3246
  224THF     O1 4040   4.116   3.528   1.393  0.1570 -0.1778  0.0882
  224THF     C2 4041   4.161   3.437   1.497 -0.0378  0.2014 -0.2335
  224THF     C3 4042   4.007   3.585   1.461 -0.1641  0.2599 -0.5649
  224THF     H4 4043   4.261   3.408   1.465 -0.5749 -0.8942 -1.0169
  224THF     H5 4044   4.097   3.348   1.492 -0.9961  0.7844  1.1851
  224THF     H6 4045   3.967   3.665   1.400  1.0091  0.7311 -0.7324
  224THF     H7 4046   3.930   3.512   1.487  0.7202 -0.4279  0.2300
  224THF     C8 4047   4.075   3.638   1.582 -0.0380 -0.3496 -0.4525
  224THF     C9 4048   4.158   3.513   1.620 -0.1264  0.6793  0.4335
  224THF    H10 4049   4.006   3.678   1.657 -0.7644 -0.0252 -1.2709
  224THF    H11 4050   4.134   3.727   1.562 -0.8945 -0.1637 -2.2862
  224THF    H12 4051   4.254   3.538   1.664 -0.5402  1.2592  1.0253
  224THF    H13 4052   4.118   3.442   1.694  4.8286 -3.1080  0.0036
  225THF     O1 4053   0.368   1.745   4.913  0.0033  0.1689  0.1417
  225THF     C2 4054   0.252   1.710   4.842  1.0134  0.0187  0.4954
  225THF     C3 4055   0.338   1.758   5.053  0.1365 -0.7076  0.2785
  225THF     H4 4056   0.235   1.603   4.840  0.6268  0.0818  0.1903
  225THF     H5 4057   0.256   1.740   4.737 -1.0428 -0.6695  0.1688
  225THF     H6 4058   0.390   1.683   5.112  1.5773 -0.6636 -0.8975
  225THF     H7 4059   0.374   1.855   5.088  0.3264 -0.6441 -0.0842
  225THF     C8 4060   0.193   1.742   5.068 -0.3476 -0.0569  0.7550
  225THF     C9 4061   0.144   1.774   4.924 -1.0361 -0.0049 -0.3975
  225THF    H10 4062   0.156   1.806   5.148  1.3328  0.3732  1.2355
  225THF    H11 4063   0.169   1.637   5.086 -2.1431  0.2806  0.4833
  225THF    H12 4064   0.042   1.742   4.904 -0.5572  0.1134 -3.6621
  225THF    H13 4065   0.145   1.882   4.906 -1.9428 -0.1263 -1.2717
  226THF     O1 4066   0.450   4.061   0.886 -0.3227  0.2314 -0.0822
  226THF     C2 4067   0.430   3.987   0.769 -0.7303 -0.4278 -0.5172
  226THF     C3 4068   0.392   3.993   0.991  0.4297  0.7027 -0.0597
  226THF     H4 4069   0.513   3.924   0.737  1.3380  2.2016 -0.6520
  226THF     H5 4070   0.430   4.059   0.687  2.8751 -0.9145 -1.1189
  226THF     H6 4071   0.460   3.913   1.022  0.4026  0.8005  0.2537
  226THF     H7 4072   0.374   4.057   1.077  1.5223  1.1128 -0.1184
  226THF     C8 4073   0.261   3.950   0.918 -0.0503  0.2348  0.5717
  226THF     C9 4074   0.307   3.897   0.790  0.2281  0.0523  0.5131
  226THF    H10 4075   0.202   4.040   0.901  0.5661  0.2881 -1.4505
  226THF    H11 4076   0.198   3.876   0.968 -0.3600  0.5568  0.6619
  226THF    H12 4077   0.330   3.791   0.801 -0.0302 -0.3108 -2.0530
  226THF    H13 4078   0.236   3.921   0.711  0.4124  1.5465  0.7760
  227THF     O1 4079   3.051   3.521   5.045 -0.2219  0.3925 -0.1179
  227THF     C2 4080   2.993   3.412   4.980 -0.1156 -0.2152  0.2314
  227THF     C3 4081   3.183   3.537   5.000  0.5877 -0.3861 -0.0339
  227THF     H4 4082   2.884   3.407   4.987 -0.4406  1.5963 -2.2918
  227THF     H5 4083   3.037   3.317   5.009 -0.5895 -1.0471 -1.5833
  227THF     H6 4084   3.218   3.639   5.018 -1.0588  0.2513 -0.2830
  227THF     H7 4085   3.256   3.469   5.044  1.2314 -0.0383 -0.5430
  227THF     C8 4086   3.169   3.517   4.849  0.1544  0.3903 -0.1684
  227THF     C9 4087   3.031   3.443   4.837 -0.7162 -0.2339 -0.2470
  227THF    H10 4088   3.256   3.459   4.819 -1.5776 -1.6861 -1.3959
  227THF    H11 4089   3.167   3.611   4.793 -0.5489  0.1931 -0.4801
  227THF    H12 4090   2.954   3.513   4.804 -2.0531 -1.0482  0.9986
  227THF    H13 4091   3.024   3.361   4.765 -0.3966  0.0742 -0.6288
  228THF     O1 4092   5.282   0.565   2.936 -0.7015 -0.0929  0.0686
  228THF     C2 4093   5.197   0.681   2.917  0.3949  0.2987 -0.0447
  228THF     C3 4094   5.231   0.490   3.041  0.7853  0.2838 -0.4979
  228THF     H4 4095   5.206   0.735   2.822 -0.3191 -0.1333 -0.3659
  228THF     H5 4096   5.219   0.751   2.998  1.7398  0.0664 -0.1875
  228THF     H6 4097   5.289   0.397   3.040 -0.1410 -0.3125 -1.7555
  228THF     H7 4098   5.245   0.531   3.141  2.6084 -0.8367 -0.2249
  228THF     C8 4099   5.080   0.486   3.004 -0.2133  0.1681 -0.3087
  228THF     C9 4100   5.060   0.622   2.943  0.1577 -0.3963  0.2896
  228THF    H10 4101   5.009   0.481   3.086 -0.5277  1.3757 -0.4815
  228THF    H11 4102   5.059   0.401   2.939 -0.9904  0.1488 -0.0416
  228THF    H12 4103   5.006   0.604   2.850 -0.8490  1.3481  0.5037
  228THF    H13 4104   5.016   0.694   3.012 -0.6627 -1.3456  0.7834
  229THF     O1 4105   0.158   4.952   2.007 -0.4803  0.2151  0.0540
  229THF     C2 4106   0.276   4.905   1.941  0.3968  0.4988  0.1143
  229THF     C3 4107   0.178   4.998   2.137 -0.1093  0.6972  0.1013
  229THF     H4 4108   0.325   4.990   1.894  0.0216  0.3741 -0.5173
  229THF     H5 4109   0.238   4.832   1.869 -0.4352  0.2728  0.7656
  229THF     H6 4110   0.195   5.105   2.131  2.3374  0.3018 -1.7400
  229THF     H7 4111   0.084   4.975   2.186  0.8560 -1.1313  1.2395
  229THF     C8 4112   0.315   4.941   2.180 -0.0667  0.0471 -0.8946
  229THF     C9 4113   0.358   4.849   2.064 -0.7019  0.1415  0.5732
  229THF    H10 4114   0.319   4.881   2.271  1.7097  1.6415  0.1568
  229THF    H11 4115   0.383   5.026   2.184 -1.7550  1.6066 -3.1087
  229THF    H12 4116   0.465   4.840   2.042 -0.7774 -0.2668  0.3774
  229THF    H13 4117   0.333   4.748   2.095  3.1752  0.0279  4.3354
  230THF     O1 4118   1.631   0.584   1.618 -0.5368  0.4153 -0.0291
  230THF     C2 4119   1.698   0.707   1.613 -0.6462 -0.0245  0.2449
  230THF     C3 4120   1.496   0.615   1.637 -0.4040  0.2089 -0.5884
  230THF     H4 4121   1.669   0.762   1.524  0.5695  0.2707  0.0036
  230THF     H5 4122   1.807   0.701   1.617 -0.3950  3.0827  1.2950
  230THF     H6 4123   1.439   0.667   1.560 -4.3827  1.5860  2.8794
  230THF     H7 4124   1.442   0.527   1.671  0.5096 -0.3023 -0.4244
  230THF     C8 4125   1.508   0.721   1.749 -0.4313  0.0214  0.1510
  230THF     C9 4126   1.640   0.783   1.735  0.1166 -0.3568  0.4561
  230THF    H10 4127   1.495   0.677   1.848  2.8298 -1.7581 -0.0667
  230THF    H11 4128   1.422   0.787   1.737  0.9071  2.2166  1.7029
  230THF    H12 4129   1.625   0.888   1.709  1.1920 -0.0680  0.9603
  230THF    H13 4130   1.701   0.768   1.824  1.6795 -1.7587 -0.7714
  231THF     O1 4131   1.247   3.845   4.675  0.2288  0.5227 -0.0115
  231THF     C2 4132   1.264   3.963   4.751 -0.6155 -0.0596 -0.3013
  231THF     C3 4133   1.121   3.799   4.726  0.0178  0.7004  0.0438
  231THF     H4 4134   1.336   4.036   4.714 -0.8047 -0.0522 -0.6583
  231THF     H5 4135   1.301   3.941   4.851  1.4807  3.7240 -0.0475
  231THF     H6 4136   1.076   3.724   4.660  0.3274 -0.6235  1.2681
  231THF     H7 4137   1.135   3.753   4.824  0.8541  1.8838  0.4954
  231THF     C8 4138   1.036   3.923   4.723  0.5261 -0.8971 -0.5457
  231THF     C9 4139   1.138   4.039   4.759  0.6143 -0.0726  0.1060
  231THF    H10 4140   0.958   3.919   4.798  1.4191 -2.2040  0.3463
  231THF    H11 4141   0.991   3.943   4.626  1.5960 -0.6600 -1.0138
  231THF    H12 4142   1.128   4.120   4.686 -1.7402  0.1608  0.5888
  231THF    H13 4143   1.107   4.075   4.857 -0.7499  0.0620 -0.3478
  232THF     O1 4144   1.927   4.987   1.774  0.5761  0.1417  0.1222
  232THF     C2 4145   1.946   4.893   1.669 -0.5315  0.1468  0.3963
  232THF     C3 4146   1.864   4.934   1.885  0.5518  0.7197  0.1678
  232THF     H4 4147   2.043   4.845   1.686  0.2605  1.2775 -0.7307
  232THF     H5 4148   1.926   4.931   1.569 -1.2675 -0.3931  0.3297
  232THF     H6 4149   1.943   4.901   1.952 -1.1976  0.7628  2.3594
  232THF     H7 4150   1.800   5.004   1.938 -0.6550  0.6376 -1.1325
  232THF     C8 4151   1.772   4.825   1.830 -0.4055  0.2768  0.5366
  232THF     C9 4152   1.835   4.793   1.696  0.2760  0.9880  0.4186
  232THF    H10 4153   1.674   4.869   1.809 -0.7095 -1.4193 -2.1156
  232THF    H11 4154   1.770   4.736   1.893  2.6710 -1.3181 -1.3275
  232THF    H12 4155   1.880   4.695   1.683  2.4667  1.9470  0.3409
  232THF    H13 4156   1.760   4.797   1.617  0.3739 -0.0757  0.2532
  233THF     O1 4157   1.971   1.077   4.577 -0.7698  0.3802 -0.1050
  233THF     C2 4158   2.061   1.151   4.498 -0.2360  0.0861 -0.6596
  233THF     C3 4159   1.891   0.997   4.489 -0.7485 -0.5069 -0.5047
  233THF     H4 4160   2.147   1.092   4.466  1.7316 -0.1026  4.1576
  233THF     H5 4161   2.095   1.233   4.562 -2.9400 -0.9852  2.4271
  233THF     H6 4162   1.950   0.918   4.443  0.7225 -0.4708  1.1940
  233THF     H7 4163   1.806   0.958   4.544 -0.9829  1.4218  0.5802
  233THF     C8 4164   1.852   1.098   4.379  0.0281 -0.5142 -0.1121
  233THF     C9 4165   1.970   1.193   4.394  0.0461  0.5780  0.9083
  233THF    H10 4166   1.760   1.154   4.397  0.6166 -0.2294  2.4005
  233THF    H11 4167   1.840   1.056   4.279 -0.6738 -1.5775  0.3937
  233THF    H12 4168   2.015   1.205   4.295  0.2260 -0.5440  0.8427
  233THF    H13 4169   1.933   1.293   4.416  0.1626  1.8155 -3.6274
  234THF     O1 4170   1.082   5.488   0.481 -0.2760  0.3508  0.1505
  234THF     C2 4171   1.061   5.397   0.590 -0.3871 -0.3250  0.0941
  234THF     C3 4172   1.069   5.618   0.536  1.2907 -0.3718  0.4453
  234THF     H4 4173   1.082   5.293   0.565 -1.1203 -0.1493 -1.3527
  234THF     H5 4174   0.954   5.403   0.610 -0.3881 -1.6950  0.6173
  234THF     H6 4175   1.098   5.691   0.460  0.8988 -0.6736  0.0019
  234THF     H7 4176   0.963   5.634   0.553  1.4155 -0.1462  1.0421
  234THF     C8 4177   1.157   5.615   0.660 -0.8331  0.8619  0.2327
  234THF     C9 4178   1.148   5.463   0.703  0.8209 -0.1499 -0.3996
  234THF    H10 4179   1.139   5.687   0.740 -0.8428  0.8786  0.2155
  234THF    H11 4180   1.261   5.641   0.640 -0.5776 -0.6220 -0.4791
  234THF    H12 4181   1.247   5.419   0.708  0.6405 -0.4646  0.5195
  234THF    H13 4182   1.087   5.464   0.793 -0.4894  0.0632 -1.2519
  235THF     O1 4183   1.750   3.678   5.270  0.0016 -0.0956 -0.1696
  235THF     C2 4184   1.781   3.749   5.389 -0.4971 -0.7457 -0.8519
  235THF     C3 4185   1.632   3.610   5.302  1.4902  0.3571  0.1633
  235THF     H4 4186   1.861   3.824   5.387 -0.7831 -0.4513 -1.4752
  235THF     H5 4187   1.816   3.683   5.468  2.0846  0.7055 -0.6658
  235THF     H6 4188   1.577   3.565   5.220 -2.3610  1.6601  1.7891
  235THF     H7 4189   1.647   3.539   5.383  0.2899 -1.4371 -1.1324
  235THF     C8 4190   1.545   3.724   5.360  0.7465 -0.2488  0.1808
  235THF     C9 4191   1.651   3.821   5.422 -0.5443 -0.4117  0.5392
  235THF    H10 4192   1.483   3.680   5.438 -0.2449  1.7057  0.5632
  235THF    H11 4193   1.485   3.777   5.285  2.1808 -0.7641 -1.4067
  235THF    H12 4194   1.644   3.926   5.395  0.9171 -0.1988  0.9275
  235THF    H13 4195   1.639   3.810   5.530 -0.4570 -1.9670  0.4191
  236THF     O1 4196   4.263   0.362   1.824 -0.3249 -0.1972  0.1811
  236THF     C2 4197   4.371   0.340   1.735  0.2916 -0.6428  0.0114
  236THF     C3 4198   4.169   0.441   1.750  0.1605  0.4385 -0.1453
  236THF     H4 4199   4.434   0.256   1.762 -1.1843 -1.6688  0.3910
  236THF     H5 4200   4.430   0.430   1.714  1.9101 -1.3379  1.3697
  236THF     H6 4201   4.066   0.431   1.784 -0.1827 -0.2590 -1.3437
  236THF     H7 4202   4.204   0.544   1.756  2.0077 -0.0256 -1.8772
  236THF     C8 4203   4.178   0.392   1.606  0.1716  0.6682  0.0871
  236THF     C9 4204   4.303   0.309   1.602 -0.1640  0.0158 -0.0964
  236THF    H10 4205   4.186   0.464   1.524  0.5657 -0.4449 -0.8866
  236THF    H11 4206   4.097   0.321   1.591  0.3555 -0.1019  2.4130
  236THF    H12 4207   4.272   0.206   1.585  1.1712 -0.0318 -2.7718
  236THF    H13 4208   4.368   0.326   1.517 -1.2184  2.0392 -0.5602
  237THF     O1 4209   2.501   0.893   0.936  0.0174  0.6379 -0.5054
  237THF     C2 4210   2.590   0.866   0.829  0.3048 -0.4081  0.0261
  237THF     C3 4211   2.491   1.038   0.955 -0.0104  0.2215 -0.4308
  237THF     H4 4212   2.573   0.787   0.756 -0.9059  1.7317 -2.1575
  237THF     H5 4213   2.685   0.851   0.880 -0.0967 -0.5986  0.7324
  237THF     H6 4214   2.387   1.067   0.974 -0.0261  1.1950 -1.8527
  237THF     H7 4215   2.546   1.061   1.046 -1.3472  0.9429  0.2335
  237THF     C8 4216   2.559   1.115   0.843  0.0283  0.5589  0.0368
  237THF     C9 4217   2.587   1.001   0.746 -0.8899  0.0418 -0.0447
  237THF    H10 4218   2.650   1.160   0.882 -1.0127  2.4656  0.4317
  237THF    H11 4219   2.504   1.195   0.793  1.0384 -0.1534 -2.3342
  237THF    H12 4220   2.503   0.992   0.677 -0.0843 -0.6512 -0.9567
  237THF    H13 4221   2.671   1.011   0.678 -1.3439  0.9709 -0.4884
  238THF     O1 4222   0.535   5.017   1.801 -0.7939  0.1959  0.5201
  238THF     C2 4223   0.598   5.147   1.784  0.1855 -0.0722 -0.2875
  238THF     C3 4224   0.539   4.956   1.668 -0.1163  0.3519  0.8196
  238THF     H4 4225   0.706   5.137   1.795  0.4592  1.9405 -0.8159
  238THF     H5 4226   0.563   5.218   1.858 -0.0133  3.5815 -3.5805
  238THF     H6 4227   0.633   4.904   1.651 -0.1749  0.0805  1.3091
  238THF     H7 4228   0.463   4.880   1.650  1.2321 -1.0798  0.8853
  238THF     C8 4229   0.527   5.074   1.567 -0.5361  0.5816 -0.2037
  238THF     C9 4230   0.544   5.199   1.646  0.4519  0.2425 -0.2235
  238THF    H10 4231   0.427   5.071   1.524 -1.3558 -1.3209  1.6207
  238THF    H11 4232   0.605   5.062   1.492 -0.0313 -2.3883  0.6439
  238THF    H12 4233   0.596   5.285   1.604  1.2688  0.5015  1.2769
  238THF    H13 4234   0.440   5.233   1.651 -0.1641 -1.4521 -0.8717
  239THF     O1 4235   3.091   2.312   3.158 -0.4695  0.0220  0.0315
  239THF     C2 4236   3.064   2.443   3.197 -0.1847  0.7573  0.5764
  239THF     C3 4237   3.095   2.306   3.014 -0.4374  0.0590  0.5533
  239THF     H4 4238   3.150   2.508   3.216  0.5996 -0.0483 -0.1192
  239THF     H5 4239   3.018   2.418   3.292  0.9643 -1.3154  0.6396
  239THF     H6 4240   3.201   2.314   2.990 -0.1466  1.6349  2.0999
  239THF     H7 4241   3.042   2.216   2.983  1.6985 -1.4795  1.1372
  239THF     C8 4242   3.029   2.427   2.962  0.1276  0.5259 -0.3792
  239THF     C9 4243   2.967   2.493   3.086 -0.4665 -0.3064  0.0792
  239THF    H10 4244   2.947   2.418   2.890 -0.7254  1.8863  0.3712
  239THF    H11 4245   3.093   2.502   2.916 -2.3158  2.5005 -0.8248
  239THF    H12 4246   2.969   2.602   3.082  4.1992 -0.1870 -1.2064
  239THF    H13 4247   2.868   2.451   3.105 -0.3864  0.0716  1.4391
  240THF     O1 4248   3.308   4.910   4.577 -0.1064  0.0085  0.3110
  240THF     C2 4249   3.305   4.809   4.484 -0.3411 -0.0965 -0.8892
  240THF     C3 4250   3.316   5.039   4.512  0.0137 -0.3850  0.0357
  240THF     H4 4251   3.243   4.730   4.527  0.3748 -0.3778 -0.3529
  240THF     H5 4252   3.404   4.772   4.459 -0.0173  0.0543  0.1041
  240THF     H6 4253   3.255   5.117   4.558  0.9168  0.5094 -0.2457
  240THF     H7 4254   3.420   5.072   4.521 -0.1640  0.4702 -0.9082
  240THF     C8 4255   3.277   5.017   4.369  0.0429  0.0571 -0.6462
  240THF     C9 4256   3.237   4.873   4.366  0.2719 -0.2187 -0.5319
  240THF    H10 4257   3.363   5.020   4.302  0.2174 -1.2276 -0.5041
  240THF    H11 4258   3.193   5.075   4.331  0.3980 -0.1018 -1.7135
  240THF    H12 4259   3.129   4.857   4.371  0.6572 -3.5830 -0.8603
  240THF    H13 4260   3.264   4.807   4.283  0.6664 -2.3767  1.2166
  241THF     O1 4261   4.299   2.912   0.051  0.1759 -0.4879  0.5995
  241THF     C2 4262   4.369   2.859   0.162 -0.5031 -0.8891  0.4374
  241THF     C3 4263   4.316   3.053   0.065 -0.0990 -0.1540 -0.1539
  241THF     H4 4264   4.391   2.755   0.139 -0.0279 -0.6919 -0.0386
  241THF     H5 4265   4.310   2.871   0.253 -2.0361 -1.8938 -0.3783
  241THF     H6 4266   4.281   3.116  -0.017  0.4614  1.2973  0.6862
  241THF     H7 4267   4.254   3.099   0.142 -0.3676 -0.1050 -0.3982
  241THF     C8 4268   4.468   3.070   0.107  0.2361  0.6132  0.4666
  241THF     C9 4269   4.505   2.937   0.169  0.0314  0.8992 -0.8013
  241THF    H10 4270   4.487   3.152   0.177  3.0947  0.4205  0.0577
  241THF    H11 4271   4.521   3.092   0.014  0.6646  0.4017  0.6566
  241THF    H12 4272   4.580   2.886   0.108 -1.7775  0.0815 -2.4585
  241THF    H13 4273   4.542   2.947   0.271 -0.6080  0.9535 -0.5694
  242THF     O1 4274   3.705   2.064   3.401  0.2633 -0.5816 -0.1152
  242THF     C2 4275   3.803   2.099   3.496  0.2099 -0.2313  0.1624
  242THF     C3 4276   3.708   1.922   3.389 -0.8629  0.4977 -0.3587
  242THF     H4 4277   3.779   2.061   3.595 -0.2634 -0.7849 -0.1548
  242THF     H5 4278   3.825   2.206   3.497  2.1741 -0.6092  0.3580
  242THF     H6 4279   3.662   1.874   3.475 -0.5513  2.2628  0.8376
  242THF     H7 4280   3.662   1.891   3.295 -3.0747 -1.1745  1.1687
  242THF     C8 4281   3.858   1.891   3.385 -0.1092 -0.3009  0.0933
  242THF     C9 4282   3.924   2.022   3.438 -0.1367 -0.0273  0.2277
  242THF    H10 4283   3.894   1.857   3.288  1.1057  1.5856 -0.1747
  242THF    H11 4284   3.870   1.814   3.462 -0.2526 -1.3209 -0.8889
  242THF    H12 4285   4.007   2.009   3.508 -0.4261  0.5673  0.6967
  242THF    H13 4286   3.953   2.076   3.348  0.7019  0.0483  0.5377
  243THF     O1 4287   3.813   3.262   2.885 -0.2521  0.0372  0.5087
  243THF     C2 4288   3.781   3.219   3.009  0.2764  0.7347 -0.1955
  243THF     C3 4289   3.941   3.321   2.892 -0.0232 -0.2130  0.1691
  243THF     H4 4290   3.734   3.122   2.992 -1.7445  1.2974  1.6470
  243THF     H5 4291   3.712   3.291   3.051 -0.6218 -0.8195  1.1446
  243THF     H6 4292   4.016   3.265   2.836  0.7915 -0.5010  1.5146
  243THF     H7 4293   3.948   3.414   2.835  1.9417 -0.3223  0.1498
  243THF     C8 4294   3.984   3.321   3.040 -0.2818 -0.5228  0.9983
  243THF     C9 4295   3.911   3.201   3.087  0.3130  0.2629 -0.2521
  243THF    H10 4296   3.944   3.415   3.077  0.0072  0.4939 -1.1420
  243THF    H11 4297   4.092   3.311   3.051 -0.0420  0.3017 -0.3777
  243THF    H12 4298   3.962   3.112   3.051  0.9683 -0.1745  1.6437
  243THF    H13 4299   3.905   3.185   3.195 -1.4405 -3.4030 -0.7490
  244THF     O1 4300   2.062   5.207   2.212 -0.2654  0.4282  0.4334
  244THF     C2 4301   2.044   5.095   2.134  0.0624  0.1453 -0.3209
  244THF     C3 4302   2.043   5.171   2.347  0.1373  0.3865 -0.4319
  244THF     H4 4303   2.103   5.119   2.045  1.2788 -0.6430  0.2418
  244THF     H5 4304   1.935   5.096   2.130 -0.0414 -1.5412  1.1361
  244THF     H6 4305   2.103   5.234   2.412  0.9814  0.4585 -1.2620
  244THF     H7 4306   1.939   5.183   2.376  0.5025  0.2755  0.9681
  244THF     C8 4307   2.080   5.030   2.359  0.1208  0.5249  0.5843
  244THF     C9 4308   2.101   4.984   2.216  0.4322  0.4616  0.4376
  244THF    H10 4309   2.010   4.960   2.404 -0.9808  1.6412  0.6386
  244THF    H11 4310   2.174   5.026   2.415  0.6688 -1.8710 -0.3767
  244THF    H12 4311   2.206   4.968   2.189  0.2276  0.9033 -0.7003
  244THF    H13 4312   2.057   4.885   2.206  0.1355  0.5728  0.6350
  245THF     O1 4313   4.423   4.305   0.930 -0.1411  0.1372  0.5006
  245THF     C2 4314   4.364   4.258   1.053 -0.6437 -0.0274  0.1851
  245THF     C3 4315   4.323   4.353   0.844 -0.5663  0.1785 -0.0717
  245THF     H4 4316   4.437   4.259   1.135  0.4873 -0.5323 -0.7826
  245THF     H5 4317   4.340   4.153   1.037 -2.1118  0.4795 -1.1246
  245THF     H6 4318   4.371   4.410   0.764 -3.8117  3.7893  0.2675
  245THF     H7 4319   4.260   4.270   0.812 -1.3942  0.0494  1.7570
  245THF     C8 4320   4.247   4.433   0.948 -0.2202  0.4365  0.3124
  245THF     C9 4321   4.248   4.350   1.075  0.0183  0.4568  0.5085
  245THF    H10 4322   4.140   4.434   0.928 -0.3973 -1.0864  1.0266
  245THF    H11 4323   4.297   4.529   0.966  0.4242 -0.0614  1.2857
  245THF    H12 4324   4.282   4.424   1.148 -0.6399  0.7098  0.5609
  245THF    H13 4325   4.160   4.296   1.112  0.5679  0.0605  1.2943
  246THF     O1 4326   3.355   3.047   1.141 -0.1211 -1.2736  0.1337
  246THF     C2 4327   3.335   3.156   1.239 -0.1121 -0.1032 -0.0297
  246THF     C3 4328   3.227   3.006   1.104  0.9221 -0.3363 -0.2560
  246THF     H4 4329   3.414   3.228   1.255 -0.8852  1.1381 -1.4762
  246THF     H5 4330   3.302   3.117   1.335  2.2317 -1.4563  0.2982
  246THF     H6 4331   3.234   2.944   1.014 -1.6031 -0.5047 -0.4334
  246THF     H7 4332   3.192   2.949   1.190 -1.5746  1.4044  0.0239
  246THF     C8 4333   3.154   3.140   1.088  0.1823 -0.6235 -0.2964
  246THF     C9 4334   3.218   3.229   1.179  0.3386 -0.6065 -0.4840
  246THF    H10 4335   3.048   3.129   1.107  0.5345 -1.4991  1.3110
  246THF    H11 4336   3.150   3.174   0.984  1.0822  0.8791  0.1371
  246THF    H12 4337   3.259   3.317   1.128  0.8156 -1.0819 -0.9289
  246THF    H13 4338   3.147   3.271   1.250  0.2234  1.9835 -1.9900
  247THF     O1 4339   1.926   3.229   0.127  0.4228  0.4133  1.0618
  247THF     C2 4340   2.006   3.209   0.243 -0.6052 -0.3173  0.1955
  247THF     C3 4341   1.944   3.358   0.089  0.1326  0.0958 -0.0140
  247THF     H4 4342   2.108   3.203   0.205 -0.7418 -0.3226 -0.1751
  247THF     H5 4343   1.991   3.114   0.294 -1.4090 -0.2615  0.0824
  247THF     H6 4344   2.044   3.384   0.056  0.4669 -0.8795  0.2026
  247THF     H7 4345   1.866   3.381   0.017 -0.7346 -2.3607  0.0659
  247THF     C8 4346   1.912   3.424   0.228 -0.0804 -0.0010 -0.4573
  247THF     C9 4347   1.965   3.323   0.329 -0.5865  1.0250 -0.7577
  247THF    H10 4348   1.803   3.428   0.238 -0.2504 -3.8904  1.4491
  247THF    H11 4349   1.958   3.520   0.248  2.0686 -0.9747 -0.4246
  247THF    H12 4350   2.049   3.357   0.390 -0.8162  0.2549  0.0010
  247THF    H13 4351   1.888   3.285   0.396 -1.0430  1.8266 -0.8139
  248THF     O1 4352   4.211   3.407   2.578 -0.0941 -0.0086 -0.4139
  248THF     C2 4353   4.247   3.481   2.691  0.5428  0.4137  0.0429
  248THF     C3 4354   4.181   3.489   2.467 -0.4160 -0.2880 -0.3089
  248THF     H4 4355   4.306   3.428   2.766  0.1533  1.0614  0.8234
  248THF     H5 4356   4.152   3.508   2.737 -0.4049  3.0442 -3.0998
  248THF     H6 4357   4.193   3.428   2.377 -2.3339 -0.7890 -0.2683
  248THF     H7 4358   4.078   3.523   2.476 -0.8221 -1.5650  0.1449
  248THF     C8 4359   4.290   3.600   2.483 -0.5398 -0.3713 -0.1868
  248THF     C9 4360   4.330   3.595   2.630 -0.5254  0.1910 -0.2758
  248THF    H10 4361   4.251   3.698   2.455  0.5354 -0.2790 -1.4365
  248THF    H11 4362   4.377   3.576   2.422 -1.2683  0.9126 -1.7969
  248THF    H12 4363   4.437   3.580   2.649 -0.2339 -1.2634 -2.6278
  248THF    H13 4364   4.319   3.693   2.675  1.6499  0.2915  0.1514
  249THF     O1 4365   1.797   4.370   2.843  0.1036  0.5197  0.4453
  249THF     C2 4366   1.716   4.429   2.741  0.1950  0.3016  0.0659
  249THF     C3 4367   1.877   4.475   2.891 -0.0103 -0.0902  0.3519
  249THF     H4 4368   1.635   4.362   2.712  0.6105 -0.1205 -0.1362
  249THF     H5 4369   1.771   4.451   2.649  1.6730  0.3310  0.9191
  249THF     H6 4370   1.914   4.444   2.989  3.9839  0.3659 -0.8044
  249THF     H7 4371   1.966   4.487   2.829 -0.4965  1.7457 -0.0606
  249THF     C8 4372   1.793   4.599   2.898 -0.3247 -0.1998  0.0385
  249THF     C9 4373   1.675   4.563   2.806 -0.6093  0.1137  0.0531
  249THF    H10 4374   1.845   4.691   2.871 -1.1926  0.6647  1.2257
  249THF    H11 4375   1.739   4.610   2.992 -1.3902 -2.3321 -0.2545
  249THF    H12 4376   1.586   4.547   2.866 -0.1908  1.2643  1.0289
  249THF    H13 4377   1.655   4.635   2.727  0.9790 -0.1141 -0.6069
  250THF     O1 4378   2.923   0.207   4.768  0.2742  0.1358  0.3322
  250THF     C2 4379   2.949   0.257   4.898 -0.2644  0.7904 -0.0936
  250THF     C3 4380   2.983   0.304   4.677  0.1011  0.2388  0.0199
  250THF     H4 4381   3.045   0.211   4.921 -0.0963  0.9812 -0.3908
  250THF     H5 4382   2.878   0.219   4.971 -0.0174 -0.6639 -0.5714
  250THF     H6 4383   3.061   0.258   4.617 -1.0355  2.3174 -3.2873
  250THF     H7 4384   2.902   0.335   4.610  0.7507 -1.9260 -1.8917
  250THF     C8 4385   3.029   0.420   4.753  0.7133 -0.4351  0.3127
  250THF     C9 4386   2.967   0.404   4.890 -0.4992 -0.1074 -0.2165
  250THF    H10 4387   2.994   0.515   4.712 -1.4035 -1.7158 -0.9937
  250THF    H11 4388   3.138   0.425   4.756  0.7639 -1.5147  0.4915
  250THF    H12 4389   3.038   0.436   4.966 -0.1726 -1.4257  0.0620
  250THF    H13 4390   2.878   0.468   4.892 -1.1229 -0.9890  0.7717
  251THF     O1 4391   1.720   1.000   0.304 -0.1411 -0.3550 -0.6455
  251THF     C2 4392   1.711   0.967   0.170  0.6785  0.1570 -0.2628
  251THF     C3 4393   1.681   0.891   0.377 -0.3462 -0.5503 -0.1825
  251THF     H4 4394   1.798   0.937   0.113 -1.2768  0.2869 -3.5522
  251THF     H5 4395   1.692   1.052   0.105 -1.9505 -0.7022 -0.7483
  251THF     H6 4396   1.754   0.812   0.396  0.8532  1.0601  2.6227
  251THF     H7 4397   1.646   0.927   0.474 -1.0263  0.1482 -0.6843
  251THF     C8 4398   1.561   0.841   0.300  0.8960 -0.6327  0.1250
  251THF     C9 4399   1.597   0.867   0.161  0.1640  0.8330  0.2011
  251THF    H10 4400   1.473   0.898   0.327  0.2142 -1.1405 -0.9610
  251THF    H11 4401   1.545   0.735   0.322  0.0259 -0.4939  0.1646
  251THF    H12 4402   1.643   0.781   0.112  1.3384  1.7318 -0.3476
  251THF    H13 4403   1.517   0.904   0.097  0.9910 -0.6673 -1.8117
  252THF     O1 4404   4.283   1.980   5.024 -0.3816 -0.2359  0.4919
  252THF     C2 4405   4.290   2.113   4.978 -0.4270 -0.3847  0.3042
  252THF     C3 4406   4.150   1.950   5.042  0.6447 -0.2442 -0.3470
  252THF     H4 4407   4.288   2.118   4.869 -1.8931  1.8556  0.3746
  252THF     H5 4408   4.383   2.155   5.018  0.5606 -0.8745 -1.4104
  252THF     H6 4409   4.109   1.928   4.943  0.7953  0.4669 -0.5752
  252THF     H7 4410   4.139   1.856   5.095 -2.2092 -0.7970 -1.7330
  252THF     C8 4411   4.097   2.074   5.113  0.0764 -0.1049 -0.9380
  252THF     C9 4412   4.164   2.178   5.030 -0.2536 -0.2108 -0.7334
  252THF    H10 4413   4.128   2.067   5.217 -1.2009 -3.1408 -0.6656
  252THF    H11 4414   3.992   2.104   5.109  0.1242  0.6395  1.7235
  252THF    H12 4415   4.100   2.208   4.948  0.7190 -0.4251 -1.5840
  252THF    H13 4416   4.182   2.276   5.075  1.1336 -0.3011 -1.0483
  253THF     O1 4417   1.900   3.182   3.990  0.3231  0.5339 -0.0356
  253THF     C2 4418   1.987   3.079   3.941  0.0597  0.1682 -0.0410
  253THF     C3 4419   1.902   3.166   4.128 -0.4839  0.0472 -0.5677
  253THF     H4 4420   2.091   3.110   3.955  0.3734 -0.8279 -0.1027
  253THF     H5 4421   1.980   3.071   3.832 -0.5603  0.1101  0.0018
  253THF     H6 4422   1.991   3.210   4.173 -2.0333  0.9762  1.8046
  253THF     H7 4423   1.817   3.215   4.174  0.1321 -0.5878  1.3458
  253THF     C8 4424   1.888   3.013   4.151 -0.1561 -0.0358  0.5172
  253THF     C9 4425   1.945   2.956   4.021  1.1954  0.4741 -0.5899
  253THF    H10 4426   1.783   2.986   4.152  0.1326 -1.3121 -0.4160
  253THF    H11 4427   1.938   2.981   4.243 -0.6011  0.7132  1.0287
  253THF    H12 4428   2.027   2.886   4.036 -0.2554 -1.1755  0.0117
  253THF    H13 4429   1.866   2.905   3.965  0.0346  2.0733 -0.4707
  254THF     O1 4430   3.340   4.347   0.440  0.2583  0.4222  0.2200
  254THF     C2 4431   3.330   4.272   0.560 -0.2429 -0.5550  0.2468
  254THF     C3 4432   3.443   4.298   0.353  0.3786 -0.0275 -0.0100
  254THF     H4 4433   3.242   4.207   0.551 -0.5872  0.1350 -1.7980
  254THF     H5 4434   3.318   4.332   0.650  2.6507  2.3424 -1.0988
  254THF     H6 4435   3.399   4.224   0.287  0.6810  0.5312 -0.8571
  254THF     H7 4436   3.476   4.378   0.287 -2.3172  0.2467 -1.1503
  254THF     C8 4437   3.539   4.231   0.435 -0.2472 -0.0091 -0.2515
  254THF     C9 4438   3.458   4.194   0.567 -0.2200  0.2890  0.0174
  254THF    H10 4439   3.632   4.284   0.453  0.4068  0.0264 -3.1974
  254THF    H11 4440   3.567   4.134   0.394  1.4051 -0.3581  1.5618
  254THF    H12 4441   3.440   4.088   0.586 -1.3089  0.5682  0.6000
  254THF    H13 4442   3.511   4.231   0.654  0.1527  3.8523 -1.5683
  255THF     O1 4443   1.235   4.063   1.048 -0.1900 -0.5739  0.0003
  255THF     C2 4444   1.269   4.015   0.918  0.4662  0.1073 -1.1609
  255THF     C3 4445   1.351   4.131   1.097 -0.5678  0.2346 -0.0437
  255THF     H4 4446   1.284   4.093   0.843  1.3128  2.4071  1.2318
  255THF     H5 4447   1.194   3.940   0.897 -1.0899  1.2005  0.2591
  255THF     H6 4448   1.354   4.229   1.049 -1.2540  1.1554  1.6962
  255THF     H7 4449   1.354   4.135   1.206  0.0168 -0.0469 -0.0457
  255THF     C8 4450   1.467   4.037   1.053 -0.1646 -0.3642  0.2465
  255THF     C9 4451   1.409   3.962   0.936  0.1917  0.0292  0.0947
  255THF    H10 4452   1.499   3.963   1.127  2.8298  1.2736  0.7801
  255THF    H11 4453   1.553   4.100   1.028 -0.8735  0.4839 -0.0946
  255THF    H12 4454   1.474   3.999   0.858  0.4323 -0.4413  0.0663
  255THF    H13 4455   1.431   3.856   0.924 -0.2640 -0.1002  0.3807
  256THF     O1 4456   2.888   4.691   2.881  0.1440  0.6036  0.2210
  256THF     C2 4457   2.959   4.613   2.790 -0.3021 -0.5469  1.0925
  256THF     C3 4458   2.745   4.673   2.854  0.0123  0.1253  0.5633
  256THF     H4 4459   2.951   4.505   2.786  3.6747 -1.0524 -3.9432
  256THF     H5 4460   3.065   4.639   2.778 -0.1734 -0.4316  2.3768
  256THF     H6 4461   2.709   4.579   2.896 -0.4947  0.3728  0.6825
  256THF     H7 4462   2.683   4.758   2.882  0.8970  1.7856 -2.1523
  256THF     C8 4463   2.734   4.660   2.701  0.5565  0.4274 -0.7323
  256THF     C9 4464   2.881   4.641   2.664 -0.5059 -0.3465  0.0109
  256THF    H10 4465   2.685   4.748   2.659 -1.3782 -0.4745 -0.4405
  256THF    H11 4466   2.667   4.577   2.680  1.0237 -0.4806  1.1836
  256THF    H12 4467   2.911   4.578   2.580  0.6178  1.8574 -1.3227
  256THF    H13 4468   2.914   4.740   2.633 -2.1533 -0.3916 -2.1885
  257THF     O1 4469   4.941   1.124   2.884 -0.0245  0.3487  0.1282
  257THF     C2 4470   4.858   1.237   2.855  0.0432  0.8270 -0.8412
  257THF     C3 4471   5.006   1.087   2.769 -0.6562 -0.6960 -0.3171
  257THF     H4 4472   4.916   1.330   2.851 -0.3173  1.1338  0.4188
  257THF     H5 4473   4.785   1.248   2.936 -0.2389 -0.9702 -0.8131
  257THF     H6 4474   5.109   1.122   2.775 -0.4614 -1.4677  1.3577
  257THF     H7 4475   5.010   0.978   2.779 -2.5923 -0.7896 -0.2993
  257THF     C8 4476   4.917   1.149   2.652  0.0207  0.6093 -0.2009
  257THF     C9 4477   4.794   1.197   2.734  0.2480  0.0600  0.2066
  257THF    H10 4478   4.905   1.086   2.564  2.7560  1.4037 -1.2289
  257THF    H11 4479   4.958   1.240   2.608  0.8570 -1.5080 -4.2653
  257THF    H12 4480   4.746   1.286   2.692 -0.1968  0.6045  1.7986
  257THF    H13 4481   4.710   1.128   2.737 -0.8745  1.3271 -0.7330
  258THF     O1 4482   4.771   2.906   3.579  0.2922 -0.0143 -0.3611
  258THF     C2 4483   4.813   2.773   3.567 -0.1978 -0.4127 -0.2284
  258THF     C3 4484   4.886   2.986   3.586 -0.2391 -0.2012 -0.5730
  258THF     H4 4485   4.742   2.717   3.506  0.9425 -1.6508 -0.4772
  258THF     H5 4486   4.823   2.735   3.669  0.2001  1.2255  0.3745
  258THF     H6 4487   4.882   3.075   3.523  1.6775 -0.5238 -1.2191
  258THF     H7 4488   4.880   3.024   3.688 -1.4837  1.4009 -1.1981
  258THF     C8 4489   5.011   2.897   3.551 -0.1916  0.2360 -0.7464
  258THF     C9 4490   4.947   2.776   3.493  0.3949  0.5950 -0.3143
  258THF    H10 4491   5.067   2.874   3.641 -1.3227 -0.2043 -0.1497
  258THF    H11 4492   5.087   2.936   3.483  1.5971  0.0408  1.0617
  258THF    H12 4493   4.931   2.778   3.385 -0.9392 -0.6945 -0.1748
  258THF    H13 4494   5.000   2.684   3.514 -0.1724  0.0973 -0.9785
  259THF     O1 4495   3.321   4.317   1.001 -0.3659 -0.1907  0.1625
  259THF     C2 4496   3.428   4.236   0.968  0.0618 -0.7767 -0.0055
  259THF     C3 4497   3.332   4.351   1.140  0.2482 -0.0768 -0.4599
  259THF     H4 4498   3.506   4.306   0.938 -0.0075 -0.1415  1.2589
  259THF     H5 4499   3.397   4.166   0.890 -2.2726 -1.5360  1.4874
  259THF     H6 4500   3.346   4.457   1.159 -1.2734  0.0893 -0.1563
  259THF     H7 4501   3.238   4.305   1.171 -0.0679  0.3030 -0.8648
  259THF     C8 4502   3.449   4.266   1.199  0.7150 -0.1350  0.2244
  259THF     C9 4503   3.463   4.158   1.093  0.2866  0.0043 -0.5498
  259THF    H10 4504   3.416   4.220   1.293 -2.1755  0.9745 -0.1463
  259THF    H11 4505   3.539   4.326   1.209  1.8291 -1.6174 -0.4949
  259THF    H12 4506   3.559   4.105   1.100  0.6814  0.8028  0.3223
  259THF    H13 4507   3.388   4.081   1.110  0.1862  0.4939  1.4343
  260THF     O1 4508   2.250   4.436   5.244 -0.3459 -0.1408  0.5714
  260THF     C2 4509   2.229   4.572   5.285 -0.0968  0.5394 -0.0623
  260THF     C3 4510   2.189   4.346   5.340  0.1962 -0.1597  0.2929
  260THF     H4 4511   2.233   4.637   5.198  2.1548 -0.1263 -0.5159
  260THF     H5 4512   2.304   4.618   5.350 -1.0775  2.6737 -0.3531
  260THF     H6 4513   2.150   4.260   5.286  0.8870 -0.3544  0.1018
  260THF     H7 4514   2.275   4.314   5.398  1.5753 -0.8826 -2.0347
  260THF     C8 4515   2.081   4.428   5.411  0.0681  0.1999 -0.3848
  260THF     C9 4516   2.088   4.566   5.341 -0.2172  0.4835  0.0513
  260THF    H10 4517   2.110   4.453   5.513  0.2827 -0.1940 -0.3477
  260THF    H11 4518   1.982   4.383   5.419  0.1515  0.3061  2.0663
  260THF    H12 4519   2.007   4.579   5.269  0.4554 -0.3401 -0.8706
  260THF    H13 4520   2.071   4.638   5.422 -1.3121 -0.5383  0.7593
  261THF     O1 4521   2.973   0.668   1.273  0.2593  0.4680 -0.4255
  261THF     C2 4522   3.094   0.722   1.219  0.8995 -0.5088  0.2592
  261THF     C3 4523   2.864   0.713   1.186 -0.1684  0.0687 -0.2277
  261THF     H4 4524   3.129   0.663   1.135 -0.9508 -0.6155 -0.4792
  261THF     H5 4525   3.174   0.735   1.293  1.2912  2.1906 -0.5466
  261THF     H6 4526   2.873   0.637   1.109 -0.8937 -2.3057  1.8740
  261THF     H7 4527   2.766   0.704   1.234  0.8528 -1.4821  1.7367
  261THF     C8 4528   2.900   0.858   1.160  0.0299 -0.3552 -0.1605
  261THF     C9 4529   3.056   0.861   1.172 -0.1086  0.3096 -0.7094
  261THF    H10 4530   2.862   0.929   1.233  1.1827  2.5951 -2.2357
  261THF    H11 4531   2.871   0.885   1.059  0.3160  1.0205  0.1056
  261THF    H12 4532   3.102   0.880   1.075  1.2803  1.9740  0.2267
  261THF    H13 4533   3.090   0.932   1.247 -2.6056  0.0566  0.7829
  262THF     O1 4534   4.019   0.565   1.260 -0.8487  0.3698 -0.7617
  262THF     C2 4535   4.036   0.460   1.164  0.0489  0.5383  0.1241
  262THF     C3 4536   3.930   0.650   1.190  0.1300 -0.4539 -0.4864
  262THF     H4 4537   4.086   0.374   1.210  0.6710  2.4532  3.3736
  262THF     H5 4538   4.107   0.501   1.093 -0.8474  0.1484 -1.0250
  262THF     H6 4539   3.893   0.728   1.258  1.9636  1.2969 -1.3826
  262THF     H7 4540   3.979   0.708   1.112 -0.1778 -0.0175 -0.3627
  262THF     C8 4541   3.825   0.561   1.136 -0.5893  0.5227 -0.6941
  262THF     C9 4542   3.897   0.433   1.104 -0.1131  0.1077 -0.1512
  262THF    H10 4543   3.778   0.604   1.047  0.5381  1.0062 -1.0694
  262THF    H11 4544   3.742   0.549   1.205 -0.9088  0.6371 -1.0545
  262THF    H12 4545   3.860   0.347   1.160  0.5805  0.2450  0.5377
  262THF    H13 4546   3.889   0.396   1.001 -1.4816 -0.5464  0.1701
  263THF     O1 4547   3.785   2.651   4.499  0.3219  0.1881 -0.1733
  263THF     C2 4548   3.680   2.627   4.407  0.3570  0.3003 -0.2313
  263THF     C3 4549   3.889   2.714   4.429 -0.0739 -0.3054  0.1541
  263THF     H4 4550   3.578   2.622   4.445  0.0194  0.3451 -1.1076
  263THF     H5 4551   3.701   2.536   4.351 -0.0906 -0.4561  0.7895
  263THF     H6 4552   3.935   2.794   4.487 -0.5795  0.5308 -0.5756
  263THF     H7 4553   3.967   2.641   4.406  1.5845  1.8318 -1.3542
  263THF     C8 4554   3.821   2.772   4.302 -0.0482  0.4003  0.8453
  263THF     C9 4555   3.681   2.745   4.313 -0.2498 -0.6475 -0.0972
  263THF    H10 4556   3.838   2.733   4.201 -1.4217  1.7303  0.0604
  263THF    H11 4557   3.857   2.875   4.302 -0.1986  0.4533  1.6831
  263THF    H12 4558   3.637   2.830   4.366  1.3444 -0.9166  1.7683
  263THF    H13 4559   3.623   2.728   4.222  0.1824  0.3430 -0.5861
  264THF     O1 4560   0.688   4.947   5.358  0.2162  0.2694 -0.3501
  264THF     C2 4561   0.696   4.818   5.298 -0.4687  0.1223  0.1057
  264THF     C3 4562   0.677   4.929   5.503  0.4844 -0.3359 -0.1809
  264THF     H4 4563   0.775   4.815   5.223 -0.7998 -1.4588 -0.2148
  264THF     H5 4564   0.606   4.794   5.241 -1.8653 -0.7791  2.5273
  264THF     H6 4565   0.704   5.010   5.570 -0.2055 -1.1290  1.1032
  264THF     H7 4566   0.575   4.902   5.528  0.3023 -0.6919 -1.2619
  264THF     C8 4567   0.779   4.810   5.516 -0.1421 -0.7851 -0.0984
  264THF     C9 4568   0.721   4.720   5.410  0.1783 -0.1336  0.2194
  264THF    H10 4569   0.792   4.765   5.615  0.5480  1.9033  1.1258
  264THF    H11 4570   0.877   4.848   5.487 -1.6073  3.9919  0.3700
  264THF    H12 4571   0.790   4.639   5.384  2.2157  1.0939  1.5035
  264THF    H13 4572   0.625   4.675   5.437  0.5096  0.0685  1.8684
  265THF     O1 4573   3.605   3.666   3.264  0.0764 -0.1492  1.1406
  265THF     C2 4574   3.736   3.626   3.212 -0.3837  0.2482  0.3076
  265THF     C3 4575   3.575   3.786   3.194 -0.0321 -0.0193  0.4780
  265THF     H4 4576   3.722   3.562   3.124 -2.2537 -0.0897  0.7965
  265THF     H5 4577   3.789   3.569   3.289  1.5379  1.8081  0.2021
  265THF     H6 4578   3.499   3.762   3.119  0.5659 -1.3412  0.2719
  265THF     H7 4579   3.527   3.856   3.262 -1.0923 -1.9918  1.8544
  265THF     C8 4580   3.703   3.846   3.133 -0.2311  0.1448 -0.3266
  265THF     C9 4581   3.809   3.752   3.193 -0.4367 -0.0893  0.3488
  265THF    H10 4582   3.715   3.949   3.167 -0.5223 -0.3270  1.3097
  265THF    H11 4583   3.703   3.846   3.024 -1.3655  1.5336 -0.3642
  265THF    H12 4584   3.893   3.735   3.127  0.8534  2.7966  1.0557
  265THF    H13 4585   3.850   3.796   3.284  2.1126  0.0762 -0.7893
  266THF     O1 4586   3.230   0.803   1.529  0.0003  0.3155  0.1730
  266THF     C2 4587   3.209   0.707   1.631  0.3948  0.1990 -0.0938
  266THF     C3 4588   3.236   0.931   1.589  0.3875 -0.1583  0.1971
  266THF     H4 4589   3.304   0.692   1.682  2.5176  0.1202 -3.7191
  266THF     H5 4590   3.170   0.609   1.601 -1.3787  0.8343  0.0150
  266THF     H6 4591   3.337   0.939   1.629  0.0558 -1.6204  1.3893
  266THF     H7 4592   3.206   1.008   1.518 -1.8330  1.9783  3.1517
  266THF     C8 4593   3.135   0.921   1.698  0.3753  0.8917  0.3994
  266THF     C9 4594   3.110   0.777   1.726  0.5454  0.5149  0.3042
  266THF    H10 4595   3.043   0.963   1.659 -0.5482 -1.1164  0.2956
  266THF    H11 4596   3.162   0.980   1.786 -1.6255  0.7522  1.1613
  266THF    H12 4597   3.138   0.751   1.829 -0.7214  0.4996  0.6710
  266THF    H13 4598   3.011   0.745   1.694  0.0663  0.8810  1.3684
  267THF     O1 4599   4.679   5.007   2.829 -0.1642 -1.2538  0.2477
  267THF     C2 4600   4.540   4.970   2.857  0.3237 -0.0620  0.1369
  267THF     C3 4601   4.731   5.051   2.952  0.3441  0.0478 -0.3859
  267THF     H4 4602   4.498   4.911   2.775 -1.5042  0.3067  0.7662
  267THF     H5 4603   4.484   5.062   2.872 -0.1462 -0.5022  1.1963
  267THF     H6 4604   4.834   5.018   2.967  1.4321  2.2919 -2.3610
  267THF     H7 4605   4.724   5.159   2.961 -0.1512  0.1581 -1.7995
  267THF     C8 4606   4.646   4.978   3.067  0.2608  0.3201  0.1247
  267THF     C9 4607   4.546   4.898   2.992 -0.5394 -0.1430 -0.8192
  267THF    H10 4608   4.601   5.055   3.129 -0.0966  0.1613  0.0674
  267THF    H11 4609   4.717   4.916   3.121  1.9235  0.6547 -1.5856
  267THF    H12 4610   4.594   4.802   2.971  3.4530  1.1654  1.2779
  267THF    H13 4611   4.451   4.882   3.042 -0.5715  0.3585 -0.7149
  268THF     O1 4612   4.866   2.556   1.975  0.2273 -0.1600  0.4345
  268THF     C2 4613   4.893   2.419   2.008  0.0646  0.2763  0.1851
  268THF     C3 4614   4.972   2.631   2.035 -0.3069 -0.1984  0.0846
  268THF     H4 4615   4.987   2.385   1.963  1.8366  2.9605  1.6246
  268THF     H5 4616   4.821   2.339   1.994  1.2363 -0.4873 -2.1784
  268THF     H6 4617   5.048   2.653   1.959  0.7941  0.6951  1.3926
  268THF     H7 4618   4.940   2.733   2.059 -1.9085 -0.3267 -1.2990
  268THF     C8 4619   5.026   2.548   2.147 -0.0134 -0.4629 -0.6510
  268THF     C9 4620   4.939   2.427   2.152  0.5531  0.2079  0.5233
  268THF    H10 4621   5.036   2.600   2.242  0.0913  0.1035 -0.9636
  268THF    H11 4622   5.128   2.514   2.129  0.6602 -0.0782  1.9756
  268THF    H12 4623   4.998   2.340   2.183 -2.0127 -1.5826  0.7245
  268THF    H13 4624   4.853   2.430   2.219  0.3614 -1.3265  0.3923
  269THF     O1 4625   3.327   3.869   0.477 -0.1952  0.3022 -0.0283
  269THF     C2 4626   3.213   3.943   0.454 -0.4519 -0.6873 -0.0814
  269THF     C3 4627   3.371   3.822   0.348  0.6240 -0.0435 -0.0183
  269THF     H4 4628   3.230   4.032   0.394 -0.7958 -0.6532 -0.1312
  269THF     H5 4629   3.151   3.965   0.541 -0.3079 -2.3075  0.4616
  269THF     H6 4630   3.418   3.900   0.289 -1.2268 -0.7020 -2.5387
  269THF     H7 4631   3.437   3.737   0.364 -2.4539 -2.3345  1.6889
  269THF     C8 4632   3.249   3.783   0.271  0.0462  0.4360 -0.6877
  269THF     C9 4633   3.138   3.854   0.348 -0.7438  0.4120 -0.5074
  269THF    H10 4634   3.245   3.674   0.281 -1.0597  0.4836 -0.5005
  269THF    H11 4635   3.253   3.801   0.164  1.6009  2.9081 -0.2760
  269THF    H12 4636   3.089   3.919   0.276 -2.7571 -1.3558 -0.8262
  269THF    H13 4637   3.080   3.771   0.387 -1.2029  0.5345 -0.9294
  270THF     O1 4638   0.770   3.900   4.255 -0.9185  0.1476 -0.2963
  270THF     C2 4639   0.905   3.900   4.304  0.3963 -0.3945  0.5321
  270THF     C3 4640   0.681   3.854   4.355  0.0087  0.2455 -0.1604
  270THF     H4 4641   0.919   3.993   4.359 -1.1547  0.8403 -1.0058
  270THF     H5 4642   0.988   3.891   4.234  0.1504 -1.8232  0.4069
  270THF     H6 4643   0.623   3.918   4.421  0.1753  0.1112  0.1191
  270THF     H7 4644   0.610   3.783   4.313  0.5566 -0.3477 -0.0887
  270THF     C8 4645   0.767   3.775   4.449 -0.2620  0.3775 -0.3098
  270THF     C9 4646   0.913   3.778   4.390 -0.4549  0.1629 -0.0404
  270THF    H10 4647   0.732   3.672   4.452 -0.1269  0.3277 -0.4323
  270THF    H11 4648   0.773   3.824   4.547  0.1979  0.9979 -0.6394
  270THF    H12 4649   0.982   3.778   4.475  0.3541  1.4005 -0.6715
  270THF    H13 4650   0.940   3.691   4.331 -0.5280 -0.1811  0.4247
  271THF     O1 4651   2.821   1.074   2.509  0.0756 -0.3790  0.0544
  271THF     C2 4652   2.763   1.199   2.549  0.7703  0.3436  0.3590
  271THF     C3 4653   2.750   1.025   2.398 -0.9511  0.3204 -0.3035
  271THF     H4 4654   2.787   1.288   2.490 -4.7564  1.1085 -1.3415
  271THF     H5 4655   2.794   1.224   2.651  2.2280  0.7965 -0.1687
  271THF     H6 4656   2.776   1.082   2.309 -0.5568  0.7781  0.0999
  271THF     H7 4657   2.765   0.917   2.385  1.2031  0.6694 -1.0252
  271THF     C8 4658   2.607   1.062   2.429 -0.1000  0.9108 -0.5979
  271THF     C9 4659   2.620   1.169   2.536 -0.4288 -0.0556 -0.6908
  271THF    H10 4660   2.555   0.986   2.488  0.8069  1.8271  1.4763
  271THF    H11 4661   2.546   1.095   2.345 -0.9801  0.9808  0.0454
  271THF    H12 4662   2.556   1.254   2.514  1.0729  0.7244 -2.3340
  271THF    H13 4663   2.594   1.118   2.629 -0.6728  1.1676 -0.0750
  272THF     O1 4664   4.056   3.052   4.564 -0.4835  0.4325 -0.0772
  272THF     C2 4665   4.092   2.974   4.678  1.0132 -0.2147  0.0828
  272THF     C3 4666   4.154   3.020   4.459  1.3901 -0.2842 -0.4879
  272THF     H4 4667   4.056   2.875   4.651 -0.1823  0.9255 -2.8937
  272THF     H5 4668   4.038   3.020   4.762  0.2384 -0.0717 -0.4849
  272THF     H6 4669   4.138   2.922   4.414 -0.9868  0.7652 -2.1473
  272THF     H7 4670   4.143   3.097   4.383  1.9918 -0.1416 -0.4371
  272THF     C8 4671   4.276   3.031   4.539 -0.1513 -0.6304  0.0994
  272THF     C9 4672   4.239   2.974   4.678  0.0768 -0.1118  0.5066
  272THF    H10 4673   4.309   3.135   4.540 -1.4510 -0.2077  0.6000
  272THF    H11 4674   4.357   2.966   4.506  1.9318  0.7447  2.1276
  272THF    H12 4675   4.270   2.872   4.701 -0.3274 -0.2991  0.2278
  272THF    H13 4676   4.286   3.026   4.761  0.7668 -1.1691  0.8048
  273THF     O1 4677   3.524   4.807   0.177 -0.3511  0.4464 -0.1510
  273THF     C2 4678   3.408   4.878   0.205  0.2002  0.5983  0.5338
  273THF     C3 4679   3.517   4.688   0.256  0.8949 -0.4558 -0.1858
  273THF     H4 4680   3.385   4.926   0.110 -1.1020  1.0870  1.0703
  273THF     H5 4681   3.418   4.960   0.277  0.0180  0.8989  0.2231
  273THF     H6 4682   3.507   4.597   0.196  1.9769 -1.2060  0.7235
  273THF     H7 4683   3.604   4.690   0.321 -0.4156  3.8582  1.7764
  273THF     C8 4684   3.394   4.694   0.340  0.1605  0.4950  0.0911
  273THF     C9 4685   3.304   4.774   0.257 -0.3582 -0.5454 -1.1677
  273THF    H10 4686   3.401   4.756   0.429 -1.2837  1.4120 -0.3910
  273THF    H11 4687   3.351   4.597   0.365  0.5976 -0.2902 -1.9497
  273THF    H12 4688   3.269   4.711   0.176  1.6890 -2.6519 -0.5155
  273THF    H13 4689   3.228   4.831   0.312 -0.4488 -2.2357  0.5502
  274THF     O1 4690   3.050   4.064   4.648 -0.0574 -0.5769  0.1651
  274THF     C2 4691   3.116   4.047   4.520 -0.0941  0.2404 -0.0622
  274THF     C3 4692   3.056   3.938   4.698  0.1798 -0.5401  0.9471
  274THF     H4 4693   3.225   4.056   4.521 -0.1271  1.5551 -1.9320
  274THF     H5 4694   3.093   4.130   4.453 -1.9644  1.0503  1.4982
  274THF     H6 4695   3.156   3.914   4.735  2.1974  1.1377 -2.8193
  274THF     H7 4696   2.987   3.953   4.781 -1.0774 -0.4024 -0.0771
  274THF     C8 4697   3.006   3.847   4.587 -0.7372  0.0648 -0.0168
  274THF     C9 4698   3.067   3.905   4.466  0.3249  0.2749 -0.5690
  274THF    H10 4699   2.897   3.841   4.586 -0.7720 -0.2836  1.8224
  274THF    H11 4700   3.041   3.744   4.600  2.2264  1.0137  0.1689
  274THF    H12 4701   3.150   3.850   4.422  0.2265 -0.3905  0.0745
  274THF    H13 4702   2.986   3.919   4.394 -1.2168 -0.3071  0.9861
  275THF     O1 4703   0.230   0.896   0.379 -0.3347 -0.7640 -0.1394
  275THF     C2 4704   0.278   0.859   0.254  1.0600  0.5204 -0.9353
  275THF     C3 4705   0.351   0.916   0.446 -0.0452 -0.1198 -0.0592
  275THF     H4 4706   0.316   0.946   0.201  0.2177  1.5792  0.1105
  275THF     H5 4707   0.195   0.827   0.190  0.7152  1.7342 -1.1281
  275THF     H6 4708   0.401   1.009   0.419  0.0566  0.4337  1.8789
  275THF     H7 4709   0.330   0.931   0.552  0.6895 -2.3030  0.4371
  275THF     C8 4710   0.446   0.808   0.400  0.0452 -0.1579 -0.6993
  275THF     C9 4711   0.391   0.764   0.271 -0.3892 -0.8572  0.1432
  275THF    H10 4712   0.451   0.728   0.474  1.0159  0.3928 -0.1516
  275THF    H11 4713   0.546   0.850   0.389 -0.3652  0.5807 -1.7006
  275THF    H12 4714   0.464   0.772   0.191  2.4820  2.0122  2.8082
  275THF    H13 4715   0.358   0.660   0.282 -2.7133 -0.3311 -1.1599
  276THF     O1 4716   0.511   0.981   3.323 -0.2922 -0.0275 -0.0772
  276THF     C2 4717   0.525   1.030   3.190 -0.1629  0.3555  0.2670
  276THF     C3 4718   0.442   0.861   3.314  0.1644  0.7837 -0.1101
  276THF     H4 4719   0.588   1.119   3.187  0.4480 -0.0938 -0.8183
  276THF     H5 4720   0.432   1.070   3.148 -0.3139  0.9844  1.1808
  276THF     H6 4721   0.467   0.795   3.397  0.8220 -0.1823 -1.0493
  276THF     H7 4722   0.334   0.870   3.300  0.0868 -1.9517 -2.1353
  276THF     C8 4723   0.500   0.802   3.177  0.0645  0.3944  0.0567
  276THF     C9 4724   0.582   0.912   3.111 -0.0250 -0.8368  0.4142
  276THF    H10 4725   0.418   0.786   3.107  1.2622  0.7875 -1.4932
  276THF    H11 4726   0.563   0.714   3.191 -3.4734 -2.7189 -1.7679
  276THF    H12 4727   0.689   0.899   3.131  0.4019  1.6453  0.0067
  276THF    H13 4728   0.565   0.909   3.004 -0.0600 -1.0521  0.4237
  277THF     O1 4729   3.834   4.993   0.450  0.2974 -0.7793  0.2231
  277THF     C2 4730   3.898   5.067   0.551 -0.1073  0.0093 -0.2634
  277THF     C3 4731   3.757   4.885   0.508 -1.6112 -0.1387  0.7773
  277THF     H4 4732   3.897   5.170   0.515 -0.2339 -0.0973 -0.5694
  277THF     H5 4733   4.000   5.039   0.577 -0.4377 -0.7183  0.2705
  277THF     H6 4734   3.656   4.890   0.467 -0.1448  2.4373 -3.1009
  277THF     H7 4735   3.804   4.790   0.482 -1.1301 -0.1552  1.6854
  277THF     C8 4736   3.769   4.907   0.655  0.1530  0.4165  0.2556
  277THF     C9 4737   3.802   5.047   0.668  0.2929 -0.8259 -0.2680
  277THF    H10 4738   3.850   4.844   0.692 -1.8195 -1.8084  1.1036
  277THF    H11 4739   3.684   4.880   0.718  0.1338 -1.6339 -0.5437
  277THF    H12 4740   3.716   5.112   0.651  2.1923  2.3805  1.4065
  277THF    H13 4741   3.838   5.074   0.767 -1.8421  2.2195 -0.1618
  278THF     O1 4742   4.451   4.577   2.929 -0.1491 -0.0521 -0.7539
  278THF     C2 4743   4.322   4.528   2.930  0.5753 -0.1117 -0.8778
  278THF     C3 4744   4.518   4.576   2.805  0.4644 -0.0509  0.5017
  278THF     H4 4745   4.252   4.599   2.973  0.3925 -1.5653  1.4601
  278THF     H5 4746   4.322   4.441   2.997 -1.2795  0.4036 -0.1610
  278THF     H6 4747   4.521   4.676   2.761 -1.1213 -0.6103 -0.9936
  278THF     H7 4748   4.618   4.537   2.823  0.4333 -0.2148  0.3184
  278THF     C8 4749   4.437   4.482   2.724  0.7617 -0.6024 -0.4661
  278THF     C9 4750   4.301   4.498   2.786  0.6101  0.8088 -0.5120
  278THF    H10 4751   4.474   4.383   2.749 -0.2761 -0.8849 -0.0197
  278THF    H11 4752   4.447   4.494   2.616 -0.2658  1.8001 -0.3686
  278THF    H12 4753   4.238   4.577   2.745  0.8578  0.8119 -0.8965
  278THF    H13 4754   4.233   4.415   2.768  1.1242  0.0337  0.9566
  279THF     O1 4755   1.406   2.525   5.259  0.0615  0.0965 -0.1421
  279THF     C2 4756   1.317   2.475   5.353 -0.2711  0.1562 -0.5327
  279THF     C3 4757   1.539   2.551   5.308 -0.0873  0.3437  0.4187
  279THF     H4 4758   1.315   2.367   5.365 -0.5230  0.3727  1.7364
  279THF     H5 4759   1.221   2.516   5.325 -0.8927  0.4082  1.7713
  279THF     H6 4760   1.606   2.465   5.303 -2.3231 -1.5383  1.3370
  279THF     H7 4761   1.577   2.634   5.248 -1.0275  0.5429  0.0890
  279THF     C8 4762   1.513   2.579   5.454  0.2495  0.0559  0.0085
  279THF     C9 4763   1.368   2.539   5.483  0.4350  0.6616  0.2398
  279THF    H10 4764   1.511   2.688   5.465 -1.2789  0.0853 -0.3804
  279THF    H11 4765   1.580   2.530   5.525 -1.7493 -3.2426 -0.2154
  279THF    H12 4766   1.359   2.467   5.564  0.4348 -0.5008 -0.7642
  279THF    H13 4767   1.316   2.625   5.525  0.2994  0.1644  1.1234
  280THF     O1 4768   2.220   2.092   0.566  0.8080 -0.2534 -0.1290
  280THF     C2 4769   2.358   2.125   0.576 -0.4597 -0.0822  0.3382
  280THF     C3 4770   2.169   2.104   0.698  0.0226  0.1607 -0.1466
  280THF     H4 4771   2.408   2.164   0.488 -1.1594 -1.2595 -0.6062
  280THF     H5 4772   2.404   2.033   0.611  1.8371  0.2797 -1.4581
  280THF     H6 4773   2.061   2.103   0.708 -0.0808 -1.7476 -0.8720
  280THF     H7 4774   2.196   2.017   0.759  0.8840 -0.3334 -1.1920
  280THF     C8 4775   2.239   2.232   0.739 -0.2007 -0.8272 -0.1958
  280THF     C9 4776   2.378   2.222   0.695 -0.2783 -0.1208 -0.3466
  280THF    H10 4777   2.226   2.255   0.844 -0.9741 -0.0011 -0.4602
  280THF    H11 4778   2.201   2.324   0.695 -0.7396 -0.3680  1.1845
  280THF    H12 4779   2.417   2.322   0.677  3.3811 -1.2566  0.4437
  280THF    H13 4780   2.453   2.191   0.768 -0.5489  0.6312  0.2593
  281THF     O1 4781   5.029   4.569   4.273 -0.3789  0.0813 -0.2373
  281THF     C2 4782   5.089   4.576   4.142 -0.1773 -0.3193  0.6023
  281THF     C3 4783   5.099   4.461   4.344  0.3337 -0.8532 -0.0289
  281THF     H4 4784   5.189   4.615   4.162 -1.1816  1.0185  3.7074
  281THF     H5 4785   5.029   4.629   4.068  1.2466 -0.0026 -0.3645
  281THF     H6 4786   5.189   4.502   4.389  1.6466 -1.3747 -2.0643
  281THF     H7 4787   5.045   4.438   4.436  0.2638  3.4648  1.2728
  281THF     C8 4788   5.126   4.364   4.232 -0.4142  0.4262  0.0621
  281THF     C9 4789   5.098   4.433   4.095 -0.1899  0.2738  0.2363
  281THF    H10 4790   5.063   4.275   4.241  0.2750 -0.0246  0.6220
  281THF    H11 4791   5.230   4.331   4.229 -0.6256 -0.2152 -1.8868
  281THF    H12 4792   5.176   4.429   4.019 -0.0667  1.3543  0.2925
  281THF    H13 4793   5.016   4.381   4.046  1.0378 -2.2152  0.6866
  282THF     O1 4794   0.956   3.323   1.370 -0.5807  0.4153  0.3531
  282THF     C2 4795   0.893   3.444   1.408 -0.6606  0.3221  0.2362
  282THF     C3 4796   1.053   3.352   1.270  0.6250 -0.0535 -0.0933
  282THF     H4 4797   0.836   3.438   1.500  0.8019  0.1583  1.1565
  282THF     H5 4798   0.818   3.459   1.330  0.6634 -1.8061 -1.6113
  282THF     H6 4799   1.134   3.279   1.267 -0.9190 -1.9046  1.1773
  282THF     H7 4800   1.007   3.355   1.171  0.6657 -2.8461 -0.2762
  282THF     C8 4801   1.108   3.495   1.304  0.6948  0.1739 -0.1737
  282THF     C9 4802   1.001   3.553   1.392 -0.2222  0.9913 -0.6601
  282THF    H10 4803   1.131   3.559   1.219 -0.8905  1.0362  0.0105
  282THF    H11 4804   1.203   3.484   1.358 -0.2888 -0.7246  1.4696
  282THF    H12 4805   1.038   3.578   1.491 -1.2046 -2.8236  0.8373
  282THF    H13 4806   0.964   3.644   1.343 -1.3982  1.4758  1.0435
  283THF     O1 4807   5.271   5.180   2.063  0.5683  0.4870 -0.7734
  283THF     C2 4808   5.290   5.055   2.001  0.5645  0.2094 -0.2295
  283THF     C3 4809   5.148   5.224   2.021  0.3187 -0.2606  0.7897
  283THF     H4 4810   5.214   5.003   2.060  0.4946 -0.1044 -0.5943
  283THF     H5 4811   5.388   5.009   2.015 -0.1305 -1.9532 -1.8797
  283THF     H6 4812   5.066   5.176   2.073 -0.3796  0.9670  0.8677
  283THF     H7 4813   5.132   5.331   2.038  1.0134  0.1645 -0.9523
  283THF     C8 4814   5.159   5.195   1.873 -0.1160  0.4055 -0.5592
  283THF     C9 4815   5.257   5.082   1.856  0.2553  0.8209  0.4348
  283THF    H10 4816   5.195   5.290   1.834 -0.5435  0.4733 -0.7879
  283THF    H11 4817   5.069   5.174   1.815  0.7890 -0.1840 -1.8116
  283THF    H12 4818   5.215   4.994   1.807  0.6969  0.8562 -0.0126
  283THF    H13 4819   5.341   5.124   1.801 -0.7605  1.2727 -0.8149
  284THF     O1 4820   1.005   5.299   1.807 -1.3675 -0.2165  0.4340
  284THF     C2 4821   1.042   5.358   1.683 -0.1873  0.4866  0.1001
  284THF     C3 4822   1.097   5.334   1.911  0.3832 -0.4879  1.2853
  284THF     H4 4823   0.956   5.380   1.620 -0.6619 -2.1174 -0.2581
  284THF     H5 4824   1.099   5.295   1.614 -0.2386  1.7610 -1.1693
  284THF     H6 4825   1.061   5.314   2.012  0.6877  0.3337  1.5595
  284THF     H7 4826   1.190   5.277   1.911  0.9288  0.2604 -1.3959
  284THF     C8 4827   1.116   5.485   1.882  0.1739 -0.2401  0.1377
  284THF     C9 4828   1.111   5.486   1.729  0.2365  0.0761  0.7785
  284THF    H10 4829   1.208   5.523   1.927  0.7689 -0.2752 -1.0085
  284THF    H11 4830   1.024   5.530   1.920 -0.2442 -0.7408 -0.2659
  284THF    H12 4831   1.063   5.577   1.693 -0.7679 -0.4649  0.7288
  284THF    H13 4832   1.210   5.486   1.684  1.7398  0.1361  3.8145
  285THF     O1 4833   3.792   3.658   5.199  0.4391  0.6357 -0.4094
  285THF     C2 4834   3.841   3.577   5.312  0.2906 -0.5333 -0.3128
  285THF     C3 4835   3.713   3.564   5.123 -0.0184  0.1054 -0.1103
  285THF     H4 4836   3.850   3.643   5.399 -1.3108 -0.6225 -0.0581
  285THF     H5 4837   3.943   3.542   5.298  1.5221  2.0668  1.4090
  285THF     H6 4838   3.650   3.610   5.047 -0.1482  0.9173  0.4741
  285THF     H7 4839   3.785   3.498   5.073  0.3555  0.6548 -0.3057
  285THF     C8 4840   3.633   3.495   5.231  0.3642  0.2888  0.5060
  285THF     C9 4841   3.730   3.475   5.339  0.4623  0.0283  0.3131
  285THF    H10 4842   3.586   3.403   5.198  1.1986  0.2141 -0.5140
  285THF    H11 4843   3.558   3.571   5.255  1.5771  1.6206  0.2509
  285THF    H12 4844   3.686   3.481   5.439  0.2444 -1.0592  0.3004
  285THF    H13 4845   3.770   3.374   5.332 -1.8745 -0.8894 -0.7491
  286THF     O1 4846   0.544   0.530   4.754 -1.0326  0.3306  0.0154
  286THF     C2 4847   0.448   0.564   4.853 -0.9038  0.4202 -0.3828
  286THF     C3 4848   0.592   0.655   4.698 -0.7682 -0.3756  0.0489
  286THF     H4 4849   0.437   0.477   4.917  0.2357  1.6034  1.5129
  286THF     H5 4850   0.353   0.606   4.823 -1.9669 -2.4657 -1.4448
  286THF     H6 4851   0.689   0.654   4.648 -0.2514 -1.4938  1.0224
  286THF     H7 4852   0.511   0.692   4.635  1.1581  0.8723 -1.8340
  286THF     C8 4853   0.614   0.733   4.824  0.4598 -1.1481 -0.0800
  286THF     C9 4854   0.518   0.680   4.924 -0.0599 -0.5297  0.0967
  286THF    H10 4855   0.605   0.841   4.808 -0.1102 -1.1994 -0.1515
  286THF    H11 4856   0.713   0.708   4.861  0.1331 -1.1623  0.8152
  286THF    H12 4857   0.561   0.646   5.019 -0.4732  1.7115  1.1544
  286THF    H13 4858   0.458   0.765   4.954  1.5294  0.1673  1.5073
  287THF     O1 4859   2.832   2.880   4.544 -0.4820 -0.2255  0.3480
  287THF     C2 4860   2.872   2.910   4.410  0.2718 -0.2015  0.5428
  287THF     C3 4861   2.826   3.008   4.607 -0.1372 -0.4084 -0.9551
  287THF     H4 4862   2.856   2.824   4.344  1.7910 -0.4766  0.4906
  287THF     H5 4863   2.978   2.935   4.405  0.0095  1.3231  1.9362
  287THF     H6 4864   2.761   3.006   4.694 -3.1154 -1.5813 -3.0251
  287THF     H7 4865   2.929   3.037   4.629 -0.6033  1.1874 -0.6995
  287THF     C8 4866   2.769   3.105   4.506 -0.2890 -0.5696 -0.2404
  287THF     C9 4867   2.792   3.037   4.372 -0.0850 -0.7436 -0.8217
  287THF    H10 4868   2.806   3.208   4.513 -1.0268 -0.4113  2.7340
  287THF    H11 4869   2.661   3.112   4.516 -0.0519  1.2923  2.0354
  287THF    H12 4870   2.699   2.995   4.334 -1.3475 -0.1060  1.4188
  287THF    H13 4871   2.848   3.095   4.298  0.5970 -1.9195 -1.2718
  288THF     O1 4872   3.783   0.029   1.651 -0.6152  0.4848  0.2515
  288THF     C2 4873   3.822   0.169   1.639 -0.1020 -0.1863 -0.2759
  288THF     C3 4874   3.668   0.010   1.566  0.4388 -0.5054  1.0414
  288THF     H4 4875   3.929   0.184   1.658  0.4595 -1.1142 -2.4219
  288THF     H5 4876   3.761   0.229   1.707  0.9720 -0.8054  1.2948
  288THF     H6 4877   3.647  -0.094   1.541 -1.3050  0.3095 -1.2244
  288THF     H7 4878   3.583   0.059   1.612 -0.5384 -0.2992 -0.8698
  288THF     C8 4879   3.710   0.090   1.440 -0.0951 -0.2348 -0.6725
  288THF     C9 4880   3.788   0.212   1.493 -0.3518  0.5521  0.1169
  288THF    H10 4881   3.617   0.124   1.395 -0.2644  0.9592  0.4931
  288THF    H11 4882   3.774   0.039   1.369  0.4726  0.1953 -0.4808
  288THF    H12 4883   3.874   0.246   1.436 -1.0334  1.0816 -0.6164
  288THF    H13 4884   3.729   0.304   1.492 -1.2693 -0.0203 -1.0174
  289THF     O1 4885   2.308   2.249   3.775  0.3324  0.2353 -0.3636
  289THF     C2 4886   2.385   2.142   3.728 -0.1165 -0.1361  0.4080
  289THF     C3 4887   2.316   2.357   3.691 -0.1901 -0.2832  0.5452
  289THF     H4 4888   2.317   2.081   3.669  0.1903  0.7385 -0.8885
  289THF     H5 4889   2.418   2.085   3.815  2.0587  0.3569 -0.0357
  289THF     H6 4890   2.250   2.342   3.606  0.1933 -2.6441  0.5837
  289THF     H7 4891   2.282   2.448   3.739  1.3812  0.9818 -0.6051
  289THF     C8 4892   2.465   2.352   3.648 -0.5371  0.1282  0.1408
  289THF     C9 4893   2.500   2.204   3.648 -0.6400  0.7509  0.1292
  289THF    H10 4894   2.517   2.394   3.734 -1.2649 -0.4340  0.8725
  289THF    H11 4895   2.497   2.407   3.560 -0.6182 -0.7169 -0.4215
  289THF    H12 4896   2.485   2.157   3.550 -0.0202  0.2102  0.2859
  289THF    H13 4897   2.602   2.182   3.679 -0.6636 -1.3724 -1.0914
  290THF     O1 4898   2.048   4.171   0.094  0.0681 -1.2311 -0.0368
  290THF     C2 4899   1.928   4.179   0.175 -0.4831  0.2605 -0.0179
  290THF     C3 4900   2.067   4.034   0.081 -0.3325 -0.0458  0.0509
  290THF     H4 4901   1.843   4.167   0.108  0.0069  1.4623 -0.8926
  290THF     H5 4902   1.914   4.282   0.210  1.2270  0.3366  0.5326
  290THF     H6 4903   2.015   4.000  -0.008 -0.7099  0.6571  0.0011
  290THF     H7 4904   2.171   4.021   0.051 -0.0727 -0.4033  1.0533
  290THF     C8 4905   2.026   3.970   0.218 -0.0775  0.1938 -0.4315
  290THF     C9 4906   1.951   4.082   0.286  0.2361  0.0329 -0.0319
  290THF    H10 4907   2.105   3.929   0.280  0.1855 -0.3618 -1.1178
  290THF    H11 4908   1.965   3.881   0.201  0.0215 -0.3263  1.7494
  290THF    H12 4909   1.861   4.052   0.340  0.5243  0.1720  0.5379
  290THF    H13 4910   2.018   4.132   0.357 -1.0261  0.7068  0.7259
  291THF     O1 4911   2.437   4.635   4.271  0.2642  0.2710 -0.2509
  291THF     C2 4912   2.487   4.702   4.158 -0.4616 -0.4758  0.2139
  291THF     C3 4913   2.300   4.680   4.285 -0.3956 -0.4656 -0.2893
  291THF     H4 4914   2.587   4.677   4.120 -1.1337  1.1677 -3.0034
  291THF     H5 4915   2.500   4.806   4.188  0.7124 -0.4056 -0.4855
  291THF     H6 4916   2.234   4.609   4.334  0.4967 -3.0583 -2.5639
  291THF     H7 4917   2.295   4.772   4.344  1.9564 -0.9557  0.8020
  291THF     C8 4918   2.248   4.700   4.148 -0.0781 -0.5980  0.7315
  291THF     C9 4919   2.372   4.697   4.062 -0.0938  0.3122  0.3662
  291THF    H10 4920   2.195   4.795   4.143  1.2950  0.1745 -3.0391
  291THF    H11 4921   2.176   4.623   4.119 -0.6801  0.4705 -0.7953
  291THF    H12 4922   2.374   4.601   4.010 -0.7008 -0.7032  2.1603
  291THF    H13 4923   2.374   4.781   3.992  1.5905  1.9381  2.2374
  292THF     O1 4924   0.779   0.329   0.935 -0.2745 -0.2933  0.3136
  292THF     C2 4925   0.875   0.288   1.031  0.6825 -0.7367  0.4316
  292THF     C3 4926   0.828   0.255   0.817 -0.2117 -0.1155 -0.4791
  292THF     H4 4927   0.814   0.288   1.121 -2.0911  0.5991 -1.3185
  292THF     H5 4928   0.959   0.354   1.051  1.2442 -1.2154 -0.2791
  292THF     H6 4929   0.760   0.263   0.732 -1.4900 -0.8241  0.4572
  292THF     H7 4930   0.918   0.310   0.788 -0.2309  0.6030  0.7859
  292THF     C8 4931   0.851   0.117   0.865  0.8941 -0.1053 -0.6730
  292THF     C9 4932   0.920   0.139   1.002  0.2445  0.6708 -0.3582
  292THF    H10 4933   0.909   0.065   0.789  1.0637  0.1060 -0.6865
  292THF    H11 4934   0.759   0.058   0.871  0.7193  0.2305  0.0815
  292THF    H12 4935   0.882   0.063   1.070 -0.3396  1.1461 -0.1409
  292THF    H13 4936   1.028   0.128   0.992  0.3853  2.5912 -1.4317
  293THF     O1 4937   3.686   1.402   5.089 -0.3471  0.0966 -0.4030
  293THF     C2 4938   3.754   1.277   5.132  0.1217 -0.6323 -0.0111
  293THF     C3 4939   3.552   1.393   5.139 -0.6127 -0.2717 -0.3091
  293THF     H4 4940   3.857   1.312   5.138 -0.4341  1.4371 -1.5187
  293THF     H5 4941   3.748   1.203   5.052 -0.6739  0.6996 -1.2296
  293THF     H6 4942   3.545   1.491   5.187 -1.9945  0.9394 -2.7897
  293THF     H7 4943   3.471   1.388   5.067 -0.0699 -2.8289 -0.8314
  293THF     C8 4944   3.541   1.281   5.243 -0.0378  0.1123 -0.1484
  293THF     C9 4945   3.688   1.235   5.260  0.3594 -0.4158 -0.1944
  293THF    H10 4946   3.483   1.193   5.213 -1.6947  0.5806  1.4972
  293THF    H11 4947   3.496   1.324   5.332 -0.4799  1.6707 -1.0805
  293THF    H12 4948   3.737   1.287   5.343  2.3783 -1.6447 -0.5404
  293THF    H13 4949   3.710   1.132   5.288  2.3392 -0.3703 -1.4066
  294THF     O1 4950   3.383   4.935   2.112  0.0985 -0.0812 -0.6307
  294THF     C2 4951   3.379   4.965   2.246  0.4676  0.6932 -0.3523
  294THF     C3 4952   3.515   4.897   2.079  0.3858  0.1830  0.2820
  294THF     H4 4953   3.384   4.871   2.301  0.8434  1.6220  1.2812
  294THF     H5 4954   3.288   5.018   2.272 -0.0987 -1.4996  2.6058
  294THF     H6 4955   3.537   4.797   2.117 -2.3577  0.2623  2.3939
  294THF     H7 4956   3.532   4.900   1.972 -0.9183 -0.0543  0.0518
  294THF     C8 4957   3.594   5.006   2.156  0.2701  0.2373 -0.3523
  294THF     C9 4958   3.499   5.051   2.272 -0.0252 -0.2551  0.4065
  294THF    H10 4959   3.609   5.090   2.089  0.4533  0.0737 -0.5165
  294THF    H11 4960   3.689   4.974   2.201 -1.1940  0.1901  3.0633
  294THF    H12 4961   3.548   5.050   2.369 -0.1367  0.5010  0.4775
  294THF    H13 4962   3.471   5.157   2.269  1.8624  0.2625 -0.3660
  295THF     O1 4963   4.720   3.851   0.774  0.2741  0.5051 -0.2135
  295THF     C2 4964   4.799   3.871   0.889  0.5948  0.3517 -0.6023
  295THF     C3 4965   4.593   3.793   0.810  0.7191 -0.5121  0.9545
  295THF     H4 4966   4.849   3.968   0.890  0.4215  0.5675 -3.3833
  295THF     H5 4967   4.879   3.796   0.887 -1.0116 -1.4364 -1.4151
  295THF     H6 4968   4.520   3.811   0.732  2.1592 -1.8174 -0.7943
  295THF     H7 4969   4.607   3.685   0.819  0.1145 -0.8137 -1.1522
  295THF     C8 4970   4.568   3.863   0.943  0.2502  0.2257  0.5067
  295THF     C9 4971   4.705   3.855   1.002  0.9726 -1.0424  0.0708
  295THF    H10 4972   4.488   3.802   0.985  0.4183  0.1097  0.6616
  295THF    H11 4973   4.546   3.968   0.921  1.8710  0.3700 -0.5886
  295THF    H12 4974   4.712   3.926   1.084 -1.9496  0.4189 -0.8455
  295THF    H13 4975   4.720   3.757   1.048  2.3612  0.0466  2.1023
  296THF     O1 4976   2.746   4.169   0.407 -0.4102 -0.3111 -0.1822
  296THF     C2 4977   2.856   4.245   0.367  0.3327  0.0750  0.1364
  296THF     C3 4978   2.789   4.055   0.481  0.2538 -0.0057  0.0303
  296THF     H4 4979   2.838   4.349   0.337  0.1872 -0.1041 -0.4140
  296THF     H5 4980   2.897   4.210   0.272 -1.2833 -1.6607  0.0401
  296THF     H6 4981   2.714   4.022   0.553 -1.6821  1.0290 -1.4259
  296THF     H7 4982   2.818   3.963   0.431 -2.1767 -1.1992  0.6542
  296THF     C8 4983   2.904   4.110   0.560  0.1990  0.0515  0.6446
  296THF     C9 4984   2.954   4.231   0.476  0.3075 -0.8337  0.0840
  296THF    H10 4985   2.981   4.037   0.587 -0.6981 -1.9548 -1.7999
  296THF    H11 4986   2.862   4.149   0.653 -1.4347 -0.6386  0.2285
  296THF    H12 4987   2.941   4.319   0.538  1.0804  0.2799 -1.2649
  296THF    H13 4988   3.057   4.211   0.443  0.1584  0.4508 -1.2738
  297THF     O1 4989   0.028   4.639   4.324  0.1026  0.1413  0.1154
  297THF     C2 4990   0.153   4.709   4.337  0.4324  0.1052  0.0627
  297THF     C3 4991  -0.013   4.658   4.186  0.0196 -0.2296 -0.4664
  297THF     H4 4992   0.221   4.663   4.408 -0.7590 -3.1927 -0.7103
  297THF     H5 4993   0.129   4.810   4.369  0.5389 -0.4153  1.8681
  297THF     H6 4994  -0.050   4.568   4.136  1.0889  0.2235 -2.1450
  297THF     H7 4995  -0.097   4.727   4.179  0.7645  0.6234 -1.2973
  297THF     C8 4996   0.104   4.710   4.107 -0.2082 -0.4227  1.1379
  297THF     C9 4997   0.218   4.689   4.202 -0.3612 -0.0554  0.1883
  297THF    H10 4998   0.095   4.815   4.081  2.6505 -0.1883  0.7002
  297THF    H11 4999   0.113   4.648   4.017  2.1573 -1.7295  2.1711
  297THF    H12 5000   0.253   4.587   4.186 -1.5846 -0.8596  2.3214
  297THF    H13 5001   0.306   4.749   4.177  0.1742 -1.3889 -1.3451
  298THF     O1 5002   0.189   2.393   3.283  0.1918  0.0081  0.1702
  298THF     C2 5003   0.089   2.291   3.305 -1.4207  0.0196  0.2015
  298THF     C3 5004   0.206   2.457   3.412  0.6472 -0.5632 -0.1319
  298THF     H4 5005   0.069   2.232   3.215 -0.5459  0.8090 -0.5319
  298THF     H5 5006  -0.007   2.339   3.326 -1.1290  1.7777 -2.0729
  298THF     H6 5007   0.305   2.504   3.419  0.4124 -0.1911  0.9238
  298THF     H7 5008   0.128   2.530   3.434 -0.5678 -2.4415  2.2062
  298THF     C8 5009   0.203   2.339   3.509 -0.3449  0.3233  0.2389
  298THF     C9 5010   0.136   2.222   3.434  0.1431 -0.0838 -0.4139
  298THF    H10 5011   0.150   2.366   3.600  1.1650  0.0130  1.2452
  298THF    H11 5012   0.302   2.302   3.535 -0.6212  0.3962  1.4368
  298THF    H12 5013   0.212   2.147   3.412  1.9521  0.6462  2.6782
  298THF    H13 5014   0.056   2.176   3.493 -0.6472  1.5750 -0.1415
  299THF     O1 5015   4.619   5.403   2.946 -0.0017  0.1799  0.5396
  299THF     C2 5016   4.509   5.495   2.944 -0.1791 -0.2061  0.6210
  299THF     C3 5017   4.735   5.459   2.885 -1.7360 -0.0195  0.7700
  299THF     H4 5018   4.476   5.521   3.044  3.3304  1.5920  1.5035
  299THF     H5 5019   4.434   5.469   2.869 -0.5356  2.0343  0.1426
  299THF     H6 5020   4.806   5.487   2.963 -0.1845  0.9321 -0.9194
  299THF     H7 5021   4.784   5.393   2.814  0.5830  1.4358  0.9265
  299THF     C8 5022   4.680   5.585   2.813  0.4097 -0.1725 -0.1107
  299THF     C9 5023   4.568   5.634   2.901  0.6776 -1.2101  0.5100
  299THF    H10 5024   4.638   5.558   2.716  0.5336 -1.5408  0.1969
  299THF    H11 5025   4.761   5.657   2.800  2.4657 -2.1147  1.1507
  299THF    H12 5026   4.600   5.702   2.980 -2.4320  2.2978 -0.9392
  299THF    H13 5027   4.495   5.701   2.855  1.2837 -0.6711  0.3279
  300THF     O1 5028   1.741   4.207   3.335 -0.0958  1.0184 -0.0025
  300THF     C2 5029   1.814   4.214   3.211  0.2954  1.0789 -0.0339
  300THF     C3 5030   1.812   4.285   3.437 -0.0691  0.0927 -0.3581
  300THF     H4 5031   1.768   4.292   3.150  2.1658  1.6579 -0.7824
  300THF     H5 5032   1.789   4.119   3.163 -0.0763  0.0913  2.0222
  300THF     H6 5033   1.753   4.377   3.435 -1.2925 -0.6778 -0.9001
  300THF     H7 5034   1.807   4.236   3.534  1.4701 -1.3975 -0.9739
  300THF     C8 5035   1.954   4.300   3.388 -0.2749  0.1632 -0.7690
  300THF     C9 5036   1.958   4.226   3.258  0.2061  0.5996 -0.3283
  300THF    H10 5037   2.025   4.256   3.458 -0.7273  0.9396  0.2105
  300THF    H11 5038   1.977   4.403   3.362  0.8123 -0.1923 -1.2693
  300THF    H12 5039   2.025   4.274   3.185  2.0449  0.0551  0.9411
  300THF    H13 5040   1.999   4.126   3.269 -0.5523  0.3716  0.5355
  301THF     O1 5041   0.355   2.580   0.921  0.7976  0.5500 -0.6483
  301THF     C2 5042   0.474   2.604   0.855 -0.8277 -0.1215 -0.6129
  301THF     C3 5043   0.360   2.443   0.956 -0.2987  0.2345  0.2614
  301THF     H4 5044   0.556   2.628   0.924 -1.2650  0.5094 -0.3045
  301THF     H5 5045   0.472   2.686   0.784 -2.7049  0.6065  0.2136
  301THF     H6 5046   0.405   2.427   1.054  1.0352 -0.0754 -0.3803
  301THF     H7 5047   0.262   2.394   0.956 -1.4074  2.3247 -0.5409
  301THF     C8 5048   0.455   2.372   0.852  0.0981  0.4317 -0.1195
  301THF     C9 5049   0.504   2.484   0.763 -0.5645 -0.5211 -0.3814
  301THF    H10 5050   0.403   2.291   0.801 -1.8389  0.7430  1.2750
  301THF    H11 5051   0.537   2.333   0.913 -2.3028 -0.7374  2.5887
  301THF    H12 5052   0.610   2.482   0.741 -0.5268  0.2975 -0.2953
  301THF    H13 5053   0.449   2.482   0.669  0.9179  0.5973 -1.3227
  302THF     O1 5054   4.959   1.639   4.423  0.3473  0.1818  0.0039
  302THF     C2 5055   5.006   1.773   4.447 -0.3721  0.5578  0.1249
  302THF     C3 5056   4.836   1.649   4.356 -0.7005  0.3283  0.6884
  302THF     H4 5057   5.114   1.777   4.462  0.0459 -0.9742 -2.0029
  302THF     H5 5058   4.942   1.807   4.528  0.6066 -2.1409  2.1631
  302THF     H6 5059   4.815   1.553   4.310  1.4294  1.2121 -2.4983
  302THF     H7 5060   4.763   1.678   4.431 -0.5240 -0.5224  1.1931
  302THF     C8 5061   4.851   1.763   4.259  0.5636 -0.6580  0.8799
  302THF     C9 5062   4.958   1.846   4.326 -0.3870 -0.0863  0.3743
  302THF    H10 5063   4.761   1.824   4.250  0.5158 -0.9762 -1.0410
  302THF    H11 5064   4.868   1.741   4.154 -0.9839  1.3640  0.1334
  302THF    H12 5065   5.048   1.861   4.267 -0.4883  0.1853  0.2861
  302THF    H13 5066   4.904   1.937   4.351  0.4735  0.7928 -0.8463
  303THF     O1 5067   0.088   2.293   4.709  0.2701  0.0361 -0.4266
  303THF     C2 5068   0.120   2.225   4.587  0.0321  0.4847 -0.4217
  303THF     C3 5069   0.050   2.427   4.671  0.4951  0.3586 -0.6801
  303THF     H4 5070   0.064   2.131   4.591  1.2031 -0.2635 -0.7367
  303THF     H5 5071   0.227   2.205   4.578  0.0897  0.6154 -0.0300
  303THF     H6 5072  -0.011   2.470   4.750  0.7702 -1.7204  0.7541
  303THF     H7 5073   0.133   2.496   4.655 -0.0313  0.7979 -1.6365
  303THF     C8 5074  -0.032   2.413   4.552  0.7090  0.1434  0.1102
  303THF     C9 5075   0.040   2.302   4.480 -0.0889 -0.7342  0.5362
  303THF    H10 5076  -0.053   2.501   4.491  0.7578  1.2743  1.6757
  303THF    H11 5077  -0.125   2.374   4.593  0.2232  0.5663 -0.5693
  303THF    H12 5078  -0.028   2.227   4.440 -2.2116  1.0278  0.6821
  303THF    H13 5079   0.104   2.348   4.405 -1.7024 -0.5041 -0.7500
  304THF     O1 5080   2.324   0.348   4.179 -0.2544  0.0614 -0.1862
  304THF     C2 5081   2.371   0.216   4.202  0.0348 -0.2165  1.1087
  304THF     C3 5082   2.185   0.340   4.171  0.6651  0.1826 -0.0719
  304THF     H4 5083   2.364   0.197   4.310  0.3005 -0.5697  1.0670
  304THF     H5 5084   2.470   0.212   4.158 -0.9592 -1.2139 -1.1928
  304THF     H6 5085   2.142   0.342   4.271 -0.0078 -1.2823 -0.3047
  304THF     H7 5086   2.132   0.420   4.120 -1.4519  0.4202  2.3506
  304THF     C8 5087   2.147   0.200   4.110  0.1517 -0.1728 -0.4553
  304THF     C9 5088   2.273   0.127   4.116  0.3243 -0.0763  0.0463
  304THF    H10 5089   2.104   0.216   4.011  2.7275  1.2214 -1.4184
  304THF    H11 5090   2.068   0.146   4.163 -0.0753  0.9872  0.4288
  304THF    H12 5091   2.264   0.024   4.152 -0.0939  0.2919  1.0000
  304THF    H13 5092   2.319   0.115   4.018  1.6572 -1.4884  0.8078
  305THF     O1 5093   2.667   4.465   3.240 -0.0620 -0.3288 -0.5982
  305THF     C2 5094   2.702   4.383   3.133 -1.0728  0.4215 -0.2196
  305THF     C3 5095   2.745   4.581   3.231 -0.4208 -0.2813 -0.8040
  305THF     H4 5096   2.659   4.422   3.041 -1.0147 -0.2008 -0.5138
  305THF     H5 5097   2.671   4.279   3.128 -1.1579  0.4991 -2.4845
  305THF     H6 5098   2.708   4.647   3.153  1.9816  0.6572 -1.2310
  305THF     H7 5099   2.732   4.646   3.317 -1.7395 -0.2184 -1.0359
  305THF     C8 5100   2.885   4.522   3.207  0.2921 -0.9157 -0.3655
  305THF     C9 5101   2.854   4.406   3.120 -0.0687  0.3415  0.7892
  305THF    H10 5102   2.921   4.484   3.302 -0.7165 -0.4455  0.2178
  305THF    H11 5103   2.954   4.596   3.166  0.7334 -0.8055  0.5657
  305THF    H12 5104   2.891   4.409   3.017  1.6766  1.0429  1.3873
  305THF    H13 5105   2.896   4.313   3.159  1.7794 -0.0439 -1.8061
  306THF     O1 5106   4.085   1.632   0.067 -0.1870  0.4179  0.4733
  306THF     C2 5107   4.077   1.652  -0.073 -0.1645  0.1173 -0.5333
  306THF     C3 5108   4.215   1.602   0.114 -0.4520 -0.8408 -0.2928
  306THF     H4 5109   3.995   1.723  -0.083 -1.5196 -1.0784  1.2611
  306THF     H5 5110   4.052   1.557  -0.119 -0.6866  0.7607 -1.6158
  306THF     H6 5111   4.216   1.634   0.219 -3.7182  2.9354 -1.1637
  306THF     H7 5112   4.224   1.494   0.102 -1.0972 -0.7075 -2.3455
  306THF     C8 5113   4.299   1.691   0.017  0.5757  0.0406  0.4653
  306THF     C9 5114   4.217   1.711  -0.113 -0.1430  0.3744  0.5829
  306THF    H10 5115   4.402   1.655   0.008  0.5538 -0.3235  1.4984
  306THF    H11 5116   4.317   1.791   0.057  0.8017  0.0021  0.4641
  306THF    H12 5117   4.202   1.818  -0.128 -1.5212  0.2104  0.6536
  306THF    H13 5118   4.254   1.661  -0.203 -0.1338  0.9006  0.2912
  307THF     O1 5119   4.955   3.069   3.033 -0.3511  0.1703  0.0149
  307THF     C2 5120   5.069   3.007   2.963 -0.0086  0.4639  0.2972
  307THF     C3 5121   5.016   3.197   3.060  0.1948 -0.0552 -0.2495
  307THF     H4 5122   5.056   2.905   2.928  0.7915  0.6471 -0.5561
  307THF     H5 5123   5.158   3.007   3.026 -0.2970 -0.8123  0.7203
  307THF     H6 5124   4.961   3.277   3.110  2.5245  0.7231  1.2075
  307THF     H7 5125   5.100   3.182   3.127  0.5524 -0.2325 -0.7327
  307THF     C8 5126   5.063   3.238   2.927 -1.2661  0.0887  0.6935
  307THF     C9 5127   5.095   3.110   2.856  0.7369 -0.0462  0.5197
  307THF    H10 5128   5.152   3.299   2.939 -0.9053 -0.2599 -0.1725
  307THF    H11 5129   4.987   3.299   2.878  0.9961  1.0449 -1.8771
  307THF    H12 5130   5.031   3.100   2.768  0.5952 -1.1013  0.7315
  307THF    H13 5131   5.194   3.105   2.810  0.3105 -0.6446 -0.3636
  308THF     O1 5132   0.583   1.065   1.924  0.4810  0.0356  0.0934
  308THF     C2 5133   0.590   1.206   1.942 -0.2345  0.0323  0.5938
  308THF     C3 5134   0.657   1.035   1.806  0.0380  0.5864  0.3781
  308THF     H4 5135   0.549   1.245   2.035 -0.2204 -0.9124  1.0118
  308THF     H5 5136   0.538   1.257   1.861 -0.5324 -1.3489 -0.1223
  308THF     H6 5137   0.688   0.931   1.813 -0.1339  0.6140  1.7254
  308THF     H7 5138   0.609   1.065   1.713  2.7183  0.5792 -1.1289
  308THF     C8 5139   0.784   1.123   1.821 -0.3098 -0.6205  0.1940
  308THF     C9 5140   0.744   1.235   1.923  0.0517 -0.1271 -0.3817
  308THF    H10 5141   0.798   1.177   1.727 -1.5815  1.5647  1.1878
  308THF    H11 5142   0.869   1.075   1.870 -0.1241  0.5589  1.0695
  308THF    H12 5143   0.790   1.226   2.021  1.8511 -2.7185 -1.3564
  308THF    H13 5144   0.769   1.336   1.891 -1.4659  0.4089  0.0198
  309THF     O1 5145   2.361   2.721   4.692 -0.0386  0.0001  0.4207
  309THF     C2 5146   2.424   2.654   4.578  0.6377 -0.1384 -0.6443
  309THF     C3 5147   2.323   2.851   4.650  0.4220 -0.2907  0.5693
  309THF     H4 5148   2.343   2.608   4.522  1.6668 -1.8351 -0.7917
  309THF     H5 5149   2.505   2.590   4.611  2.9620  1.5472 -2.7697
  309THF     H6 5150   2.232   2.830   4.594  0.7324 -2.5903  0.8099
  309THF     H7 5151   2.295   2.922   4.727 -0.5998  1.3730 -1.2682
  309THF     C8 5152   2.440   2.894   4.564 -0.4872 -0.4185 -0.4922
  309THF     C9 5153   2.487   2.762   4.493 -0.3039 -0.5456  0.6912
  309THF    H10 5154   2.514   2.917   4.642  0.3531 -1.2578 -1.0138
  309THF    H11 5155   2.438   2.987   4.508  1.4265 -0.3994 -0.6042
  309THF    H12 5156   2.467   2.753   4.386 -0.6551 -0.1389  0.7210
  309THF    H13 5157   2.595   2.759   4.504 -0.3548 -0.9583  1.0995
  310THF     O1 5158   1.970   2.029   4.773  0.1285 -0.1009  0.2612
  310THF     C2 5159   1.867   2.019   4.875 -0.4151  0.1184 -0.4179
  310THF     C3 5160   2.057   1.916   4.804 -0.7979  0.6215  0.5018
  310THF     H4 5161   1.791   1.950   4.838  0.9993 -2.1777  0.7397
  310THF     H5 5162   1.819   2.115   4.891  0.7098  1.1006 -2.5359
  310THF     H6 5163   2.014   1.821   4.772  1.2614 -0.5276  0.9852
  310THF     H7 5164   2.152   1.921   4.752 -1.4143 -0.1821 -0.7431
  310THF     C8 5165   2.066   1.915   4.956  0.1941  0.6897  0.1393
  310THF     C9 5166   1.929   1.966   5.004  0.5982  0.6457  0.2065
  310THF    H10 5167   2.144   1.986   4.980  1.4917 -0.7111  0.2425
  310THF    H11 5168   2.101   1.823   5.003 -3.8497 -0.9802  0.2869
  310THF    H12 5169   1.872   1.884   5.048 -0.2627  0.6097 -0.9292
  310THF    H13 5170   1.941   2.041   5.082  0.9477  1.2226 -0.3934
  311THF     O1 5171   2.826   0.020   3.727  0.1745  0.0743 -0.0829
  311THF     C2 5172   2.915   0.113   3.788 -0.2801 -0.7962 -0.2506
  311THF     C3 5173   2.858  -0.111   3.783  0.3946 -0.2805 -0.2568
  311THF     H4 5174   2.876   0.176   3.869 -0.9123 -1.0481 -0.3547
  311THF     H5 5175   2.941   0.188   3.714 -3.2940 -0.0438 -0.7003
  311THF     H6 5176   2.814  -0.119   3.882 -0.8370 -0.8893 -0.8331
  311THF     H7 5177   2.816  -0.191   3.721 -0.1771 -0.0385 -0.1856
  311THF     C8 5178   3.003  -0.107   3.793 -0.8463 -0.0036  0.2922
  311THF     C9 5179   3.031   0.030   3.838 -0.2554 -0.0616 -0.1041
  311THF    H10 5180   3.057  -0.110   3.698 -1.2987 -0.1391  0.0396
  311THF    H11 5181   3.044  -0.189   3.851  1.1928  1.3049  0.8161
  311THF    H12 5182   3.032   0.030   3.947  0.9521 -1.8395 -0.0690
  311THF    H13 5183   3.127   0.068   3.802 -0.1753 -0.3505 -0.2003
  312THF     O1 5184   1.904   2.175   4.518 -0.5358  0.7990  0.2731
  312THF     C2 5185   1.766   2.190   4.483 -0.1295 -0.5818 -0.4341
  312THF     C3 5186   1.955   2.059   4.451 -0.1143 -0.6733 -0.0153
  312THF     H4 5187   1.769   2.235   4.384 -1.7656  3.5974  1.1448
  312THF     H5 5188   1.718   2.262   4.550 -0.0331 -0.9935  0.0798
  312THF     H6 5189   1.965   2.085   4.346 -1.1874 -0.5042 -0.0834
  312THF     H7 5190   2.043   2.021   4.504 -1.7640 -1.0317  2.6422
  312THF     C8 5191   1.839   1.962   4.459  0.2077  0.6280 -0.5174
  312THF     C9 5192   1.717   2.053   4.486  0.3055 -0.2262 -0.1781
  312THF    H10 5193   1.843   1.892   4.542  1.9395  0.0000 -1.1059
  312THF    H11 5194   1.849   1.898   4.372  2.1933 -0.0932  0.1991
  312THF    H12 5195   1.647   2.055   4.403  1.3075  0.2489 -1.0251
  312THF    H13 5196   1.661   2.037   4.578 -2.7518  0.5004 -1.7785
  313THF     O1 5197   0.769   4.111   0.018  0.5467  0.3107 -0.1291
  313THF     C2 5198   0.724   4.240  -0.007  0.4248 -0.1115  0.1452
  313THF     C3 5199   0.906   4.120   0.024 -0.1964 -0.7115  0.0150
  313THF     H4 5200   0.617   4.254   0.000  0.2104 -0.6363 -1.5929
  313THF     H5 5201   0.753   4.260  -0.110 -0.9182  0.2835 -0.1720
  313THF     H6 5202   0.948   4.023   0.053 -0.4145 -0.3587  1.6285
  313THF     H7 5203   0.940   4.139  -0.078 -1.1064  0.3329 -0.1202
  313THF     C8 5204   0.936   4.247   0.108  0.2182 -0.2933  0.0196
  313THF     C9 5205   0.803   4.321   0.093  0.2294  0.0396  0.0319
  313THF    H10 5206   1.018   4.311   0.075 -0.8825  1.3029  0.2523
  313THF    H11 5207   0.948   4.217   0.212 -0.9606 -1.9501 -0.2803
  313THF    H12 5208   0.745   4.318   0.185 -0.7739 -1.4070 -0.6257
  313THF    H13 5209   0.810   4.427   0.067 -0.7639  0.2872  0.7116
  314THF     O1 5210   0.929   4.102   0.484  0.3496  0.3214 -0.1511
  314THF     C2 5211   1.043   4.189   0.517  0.5616 -0.0473 -0.1649
  314THF     C3 5212   0.973   3.968   0.441  0.2693  0.2136 -0.0223
  314THF     H4 5213   1.013   4.277   0.575  2.3493 -0.1563  0.9795
  314THF     H5 5214   1.095   4.227   0.428 -1.4213  0.9074 -0.9932
  314THF     H6 5215   0.900   3.899   0.485 -0.1468  2.1002  2.4411
  314THF     H7 5216   0.981   3.962   0.332  0.1939 -1.9875  0.0425
  314THF     C8 5217   1.101   3.958   0.518 -0.8542 -0.2001 -0.8173
  314THF     C9 5218   1.133   4.088   0.592  0.7866  0.4320 -0.4961
  314THF    H10 5219   1.177   3.944   0.440 -1.2863 -1.8152 -0.9992
  314THF    H11 5220   1.119   3.873   0.584  2.9236  1.1082  0.0813
  314THF    H12 5221   1.097   4.074   0.694  0.2403  2.1470 -0.4082
  314THF    H13 5222   1.240   4.106   0.592  0.9672 -0.3223 -2.8978
  315THF     O1 5223   2.061   0.294   1.051  0.0764 -0.3917  0.4000
  315THF     C2 5224   1.943   0.370   1.070  1.1099 -0.3507 -0.0426
  315THF     C3 5225   2.020   0.159   1.069  0.6074  0.2993  0.0879
  315THF     H4 5226   1.944   0.473   1.035  0.9062  0.9937  3.4900
  315THF     H5 5227   1.913   0.360   1.174  0.7188  0.3206 -0.0880
  315THF     H6 5228   2.104   0.093   1.045  0.8474  0.1520  1.2470
  315THF     H7 5229   2.003   0.143   1.176  0.7397 -0.5231 -0.0068
  315THF     C8 5230   1.900   0.162   0.972 -0.2817  0.1345  0.2883
  315THF     C9 5231   1.837   0.299   0.987  0.5298  0.5854  0.2209
  315THF    H10 5232   1.839   0.077   1.000  1.5541 -0.5448  2.6021
  315THF    H11 5233   1.938   0.144   0.872 -1.8600  0.9552 -0.4987
  315THF    H12 5234   1.810   0.343   0.891  1.1173 -1.3397 -0.8713
  315THF    H13 5235   1.745   0.292   1.045 -0.8167  2.5203 -1.5220
  316THF     O1 5236   1.469   1.318   1.627  0.0984 -0.2792  0.2495
  316THF     C2 5237   1.515   1.379   1.500  0.7765  1.2149 -0.6035
  316THF     C3 5238   1.571   1.250   1.700 -0.7400 -0.4378  0.6842
  316THF     H4 5239   1.493   1.485   1.504  2.3784  1.5403  2.3535
  316THF     H5 5240   1.473   1.330   1.412  0.9319  0.0098 -0.0287
  316THF     H6 5241   1.550   1.258   1.806  0.9747 -0.8137  1.0800
  316THF     H7 5242   1.571   1.144   1.676  1.5890 -0.6046  1.2342
  316THF     C8 5243   1.698   1.331   1.651  0.9532  0.0203  0.5228
  316THF     C9 5244   1.663   1.363   1.505  0.0228 -0.3574  0.0827
  316THF    H10 5245   1.787   1.271   1.666  1.3893 -1.0051 -4.4252
  316THF    H11 5246   1.693   1.424   1.708 -2.2556 -0.3080  0.9486
  316THF    H12 5247   1.719   1.450   1.473  2.3700 -1.2475  1.5424
  316THF    H13 5248   1.699   1.279   1.446  0.5663  0.5435 -0.8955
  317THF     O1 5249   2.142   5.145   4.711  0.2197 -0.8801 -0.1857
  317THF     C2 5250   2.074   5.138   4.580  1.2358  0.8219  0.2606
  317THF     C3 5251   2.162   5.016   4.765 -0.8239 -0.7913 -0.4604
  317THF     H4 5252   2.085   5.220   4.509  0.8876  0.5089 -0.1574
  317THF     H5 5253   1.970   5.132   4.611  0.8296  0.7455 -1.0335
  317THF     H6 5254   2.238   5.013   4.844 -0.4916 -1.2265 -0.7842
  317THF     H7 5255   2.070   4.983   4.814  0.1419 -0.1114  1.9821
  317THF     C8 5256   2.194   4.931   4.640 -0.0877  0.4519  0.0569
  317THF     C9 5257   2.120   4.996   4.526  0.4840 -0.1086  0.4545
  317THF    H10 5258   2.159   4.830   4.659 -1.5635  0.5440 -1.8607
  317THF    H11 5259   2.300   4.930   4.614 -0.3182 -1.0779 -0.9578
  317THF    H12 5260   2.184   5.005   4.437  1.2182 -1.9388  0.7498
  317THF    H13 5261   2.035   4.936   4.494  0.9696 -0.3548 -0.4024
  318THF     O1 5262   3.840   2.268   2.974  0.0994  0.4731  0.0131
  318THF     C2 5263   3.716   2.250   2.918  0.4915 -1.0837 -0.7934
  318THF     C3 5264   3.830   2.357   3.088 -0.1758 -0.0959  0.0721
  318THF     H4 5265   3.714   2.168   2.847  0.7473 -1.7589 -0.0324
  318THF     H5 5266   3.687   2.346   2.875 -1.7797 -0.8809  1.0010
  318THF     H6 5267   3.914   2.365   3.157 -0.8682 -0.5414  0.9835
  318THF     H7 5268   3.820   2.457   3.045  0.2956 -0.1037 -0.0560
  318THF     C8 5269   3.697   2.316   3.147 -0.0048  0.7259  0.0352
  318THF     C9 5270   3.623   2.232   3.042  0.1680 -0.3413 -0.1854
  318THF    H10 5271   3.635   2.404   3.168  2.6186  3.3536 -2.3642
  318THF    H11 5272   3.711   2.261   3.240  2.1204  3.1162  1.2326
  318THF    H12 5273   3.620   2.125   3.062 -0.0209 -0.2640  0.1875
  318THF    H13 5274   3.521   2.259   3.015  0.3683  1.7965  1.0254
  319THF     O1 5275   1.281   2.707   3.403  0.0048  0.3865  0.6221
  319THF     C2 5276   1.343   2.601   3.482 -0.0080  0.3324 -0.5237
  319THF     C3 5277   1.142   2.684   3.398  0.0056 -0.1245  0.0937
  319THF     H4 5278   1.437   2.630   3.527  1.0311 -2.9913 -0.3162
  319THF     H5 5279   1.382   2.519   3.422 -1.0720  0.0117 -0.8109
  319THF     H6 5280   1.094   2.782   3.393 -0.9554 -0.5624  0.4613
  319THF     H7 5281   1.117   2.618   3.315 -0.3868 -3.6474  2.7776
  319THF     C8 5282   1.113   2.615   3.529  0.4987 -0.2389 -0.1218
  319THF     C9 5283   1.243   2.553   3.577 -0.2687  0.3250 -0.2746
  319THF    H10 5284   1.043   2.536   3.503  0.3535  0.0413 -0.6134
  319THF    H11 5285   1.073   2.681   3.607  0.4139  0.5343 -0.8051
  319THF    H12 5286   1.261   2.574   3.682 -0.4832  2.2797 -0.5934
  319THF    H13 5287   1.225   2.445   3.576 -0.2986  0.3139  0.5595
  320THF     O1 5288   5.174   3.243   4.762 -0.3264 -0.6633 -0.2069
  320THF     C2 5289   5.195   3.345   4.666 -0.1350  0.1196  0.0615
  320THF     C3 5290   5.243   3.279   4.882 -0.1984  0.5056  0.2992
  320THF     H4 5291   5.103   3.376   4.616  0.1294 -0.7248 -0.9635
  320THF     H5 5292   5.255   3.298   4.589  0.3803 -2.3142  1.8396
  320THF     H6 5293   5.179   3.231   4.956 -0.4950 -0.8375 -0.7951
  320THF     H7 5294   5.338   3.228   4.869 -0.9973 -1.7739  2.6845
  320THF     C8 5295   5.256   3.432   4.887  0.3753 -0.1737  0.1679
  320THF     C9 5296   5.263   3.470   4.738  0.3132 -1.1569  0.1737
  320THF    H10 5297   5.344   3.467   4.940 -0.2398  2.5888 -0.4390
  320THF    H11 5298   5.167   3.478   4.931 -0.4157  0.9059 -2.3465
  320THF    H12 5299   5.226   3.567   4.707  2.3467 -1.2580 -2.9914
  320THF    H13 5300   5.367   3.474   4.705  0.7124 -1.0900  1.3859
  321THF     O1 5301   4.203   2.778   2.964  0.1648  0.8149  0.1550
  321THF     C2 5302   4.328   2.760   2.902  0.4604  0.0965  0.0926
  321THF     C3 5303   4.145   2.897   2.916  0.1421 -0.0471 -0.5754
  321THF     H4 5304   4.324   2.709   2.806  0.0108  3.2805 -1.7075
  321THF     H5 5305   4.396   2.709   2.971  1.2923  1.2289  0.1570
  321THF     H6 5306   4.045   2.881   2.875 -2.0676  2.3121  3.2336
  321THF     H7 5307   4.115   2.965   2.996 -4.3530  0.4931 -2.4288
  321THF     C8 5308   4.247   2.964   2.829 -0.1982  0.0409 -0.4044
  321THF     C9 5309   4.374   2.904   2.877  0.4806  0.0284 -0.0016
  321THF    H10 5310   4.241   3.070   2.855  0.9845  0.3524 -1.2945
  321THF    H11 5311   4.214   2.937   2.729 -0.7891 -0.7434 -0.0022
  321THF    H12 5312   4.455   2.899   2.804 -0.3158  0.5032 -0.9297
  321THF    H13 5313   4.414   2.961   2.961  2.0913  1.7704 -1.8516
  322THF     O1 5314   3.938   0.198   2.158 -0.6716 -0.6012  0.5849
  322THF     C2 5315   3.826   0.113   2.137 -0.0081 -0.1047 -0.1788
  322THF     C3 5316   4.045   0.176   2.069  0.5476 -0.1017 -0.1719
  322THF     H4 5317   3.737   0.160   2.179 -1.1168 -1.5596 -0.8348
  322THF     H5 5318   3.841   0.016   2.183  0.1388 -0.5851 -1.2258
  322THF     H6 5319   4.091   0.267   2.030  1.9361  0.4352  2.4608
  322THF     H7 5320   4.125   0.130   2.128  1.4415 -0.5213 -1.6522
  322THF     C8 5321   3.975   0.089   1.957  0.1304 -0.3703 -0.0485
  322THF     C9 5322   3.830   0.097   1.982  0.2895 -0.9849 -0.3377
  322THF    H10 5323   3.998  -0.017   1.967  0.6154 -0.4446 -1.6457
  322THF    H11 5324   4.001   0.112   1.854 -0.1468 -0.7776 -0.2119
  322THF    H12 5325   3.793   0.187   1.932  3.4892  0.4502 -0.3490
  322THF    H13 5326   3.779   0.008   1.944  2.3985 -2.6166  0.4632
  323THF     O1 5327   0.448   0.003   5.351  0.5673 -0.4011  0.5269
  323THF     C2 5328   0.537   0.078   5.432  0.1692  0.4626 -0.1815
  323THF     C3 5329   0.452  -0.129   5.411  0.3426  0.0688 -0.3876
  323THF     H4 5330   0.486   0.104   5.525 -1.3484  2.6625 -1.5483
  323THF     H5 5331   0.553   0.178   5.392 -0.4100  0.3615 -0.6733
  323THF     H6 5332   0.373  -0.115   5.485 -1.6297  1.4982 -2.6420
  323THF     H7 5333   0.411  -0.209   5.350 -0.3223 -0.5214  0.7874
  323THF     C8 5334   0.589  -0.147   5.460 -0.1380  0.5671  0.2849
  323THF     C9 5335   0.655  -0.006   5.468  0.3809  0.5934  0.3894
  323THF    H10 5336   0.650  -0.212   5.397 -0.5671  1.0902 -0.6940
  323THF    H11 5337   0.587  -0.185   5.562  0.7478  2.1084  0.9086
  323THF    H12 5338   0.688  -0.002   5.572  1.8526  0.1648 -0.0422
  323THF    H13 5339   0.744  -0.000   5.405 -0.4365 -0.9253 -0.9881
  324THF     O1 5340   1.246   0.686   5.152  0.4286 -0.4623 -0.3594
  324THF     C2 5341   1.117   0.734   5.116 -0.1187 -0.1002 -0.8298
  324THF     C3 5342   1.241   0.595   5.255  0.2982  0.0461  0.0441
  324THF     H4 5343   1.069   0.682   5.033 -1.3916 -0.5450  0.1623
  324THF     H5 5344   1.133   0.834   5.074 -0.4371  0.0571 -0.5881
  324THF     H6 5345   1.208   0.498   5.218  4.8463 -0.9968 -2.0431
  324THF     H7 5346   1.337   0.577   5.303  0.6471  0.5262 -0.4697
  324THF     C8 5347   1.140   0.666   5.339  0.1012 -0.1321 -0.4887
  324THF     C9 5348   1.034   0.721   5.239  0.6191  0.2453 -0.4539
  324THF    H10 5349   1.184   0.736   5.411  1.2113 -0.9609 -0.3422
  324THF    H11 5350   1.084   0.600   5.406  0.7150 -1.6331 -1.4158
  324THF    H12 5351   0.962   0.641   5.225 -1.0486  1.4544  0.7640
  324THF    H13 5352   0.987   0.817   5.261  1.7089  0.8281 -0.5757
  325THF     O1 5353   0.763   1.873   2.729  0.7750 -0.4715 -0.2949
  325THF     C2 5354   0.746   1.772   2.636 -0.6393 -0.3127  0.1822
  325THF     C3 5355   0.870   1.839   2.817 -0.2553  0.1254 -0.0213
  325THF     H4 5356   0.681   1.792   2.551 -0.1348 -0.0955 -0.1571
  325THF     H5 5357   0.691   1.690   2.681 -1.1126  0.5591  1.2429
  325THF     H6 5358   0.904   1.932   2.863 -1.9001 -0.1129  1.8553
  325THF     H7 5359   0.837   1.776   2.900 -1.0815  0.6090  0.0311
  325THF     C8 5360   0.973   1.767   2.727  0.4557 -0.4147 -0.6436
  325THF     C9 5361   0.893   1.730   2.598  0.0907  0.2968 -0.6259
  325THF    H10 5362   1.008   1.678   2.778  0.7826  0.9950  1.7348
  325THF    H11 5363   1.062   1.823   2.698  0.5082 -0.8049 -1.2641
  325THF    H12 5364   0.924   1.798   2.518  0.4665  2.4409  1.2421
  325THF    H13 5365   0.904   1.624   2.577  0.9125  0.0132  1.0903
  326THF     O1 5366   3.176   0.961   4.549  0.4161  0.2247  0.0914
  326THF     C2 5367   3.094   1.053   4.615 -0.8746 -0.2569 -0.5332
  326THF     C3 5368   3.294   1.032   4.517 -0.1717  0.0961 -0.1259
  326THF     H4 5369   3.123   1.055   4.720 -1.4368  0.3020 -0.3792
  326THF     H5 5370   2.987   1.031   4.608 -1.2151  0.8878  0.6057
  326THF     H6 5371   3.369   1.023   4.596  1.2836 -0.1163 -1.4997
  326THF     H7 5372   3.345   0.997   4.428  0.2414  2.3512 -0.8451
  326THF     C8 5373   3.260   1.180   4.501  0.3046  0.5766  0.0089
  326THF     C9 5374   3.122   1.195   4.570 -0.7946 -0.4805  0.3626
  326THF    H10 5375   3.257   1.191   4.392  1.4952  1.3091  0.0414
  326THF    H11 5376   3.329   1.255   4.539  0.8086  0.3739 -0.4863
  326THF    H12 5377   3.126   1.266   4.653  1.0588  0.6100 -0.6189
  326THF    H13 5378   3.052   1.229   4.494 -0.5787  0.6253  0.6405
  327THF     O1 5379   2.720   3.323   2.751  0.0511  0.5324 -0.3063
  327THF     C2 5380   2.585   3.283   2.753  0.8522  0.3886  0.6005
  327THF     C3 5381   2.755   3.368   2.623  0.4308 -0.4582  0.5235
  327THF     H4 5382   2.519   3.365   2.781  0.5404  1.2237 -2.1967
  327THF     H5 5383   2.578   3.200   2.823  1.0020 -0.7723 -0.6989
  327THF     H6 5384   2.716   3.470   2.631  1.0465 -0.2357  0.7377
  327THF     H7 5385   2.862   3.372   2.602  0.0326  0.2516 -1.6402
  327THF     C8 5386   2.677   3.286   2.524 -0.1820  0.3012 -0.4433
  327THF     C9 5387   2.563   3.235   2.608  0.3341  0.1946 -0.9415
  327THF    H10 5388   2.735   3.195   2.515  0.6067  0.7681 -0.1596
  327THF    H11 5389   2.647   3.343   2.436 -1.7747  1.0559  0.5360
  327THF    H12 5390   2.467   3.276   2.577  1.2115  1.6719 -1.8570
  327THF    H13 5391   2.551   3.127   2.605 -0.3313  0.1795  0.9230
  328THF     O1 5392   3.082   1.926   4.699  0.0191  0.0775  0.9736
  328THF     C2 5393   3.003   1.846   4.781  0.4478 -0.8212 -0.7693
  328THF     C3 5394   3.018   2.051   4.671 -0.1930 -0.2554  0.1350
  328THF     H4 5395   3.063   1.822   4.869  1.4294  0.7136 -0.9895
  328THF     H5 5396   2.983   1.750   4.733 -1.0764 -1.0580  0.2618
  328THF     H6 5397   3.088   2.134   4.680  0.4158 -0.9321  2.0799
  328THF     H7 5398   2.974   2.047   4.571 -1.1138  1.7652  0.4047
  328THF     C8 5399   2.900   2.068   4.778 -0.9116  0.1441  0.2709
  328THF     C9 5400   2.865   1.925   4.807 -0.6438  0.3081  0.6310
  328THF    H10 5401   2.813   2.121   4.740 -0.9754  0.3306  0.6791
  328THF    H11 5402   2.931   2.121   4.868 -0.3390 -2.2101  1.5532
  328THF    H12 5403   2.834   1.901   4.908  2.3651 -0.6124  1.4545
  328THF    H13 5404   2.781   1.891   4.747 -0.3946 -1.3855  1.1886
  329THF     O1 5405   3.539   0.775   4.798  0.1647  0.4323  0.2114
  329THF     C2 5406   3.595   0.836   4.681 -0.5104 -0.6128  0.4361
  329THF     C3 5407   3.526   0.643   4.758  0.5759 -0.1094 -0.0420
  329THF     H4 5408   3.649   0.930   4.693 -0.0818 -0.7163 -0.5603
  329THF     H5 5409   3.527   0.856   4.598  0.4131 -1.6781 -0.6156
  329THF     H6 5410   3.496   0.580   4.842  1.8816  0.3425  0.7778
  329THF     H7 5411   3.438   0.630   4.694  0.2129  1.4430  0.1078
  329THF     C8 5412   3.645   0.604   4.686 -0.3872 -0.4002  0.5737
  329THF     C9 5413   3.696   0.731   4.624  0.3226  0.0571  0.4976
  329THF    H10 5414   3.621   0.528   4.611 -1.5175 -1.0979  1.6065
  329THF    H11 5415   3.714   0.559   4.757 -1.2673 -1.7872  0.6031
  329THF    H12 5416   3.797   0.762   4.651  0.2631  0.3832  0.3508
  329THF    H13 5417   3.698   0.720   4.516  2.7770 -2.2495  0.6706
  330THF     O1 5418   3.608   5.286   0.160  0.0417  0.0957  0.6236
  330THF     C2 5419   3.585   5.200   0.055 -0.0825 -0.4049  0.3255
  330THF     C3 5420   3.753   5.303   0.155 -0.6839  0.7493  0.0436
  330THF     H4 5421   3.484   5.206   0.015  0.3540  0.9725 -0.6525
  330THF     H5 5422   3.599   5.096   0.086  1.4611  0.1381  1.5804
  330THF     H6 5423   3.783   5.389   0.214  2.2763 -0.2468  0.1134
  330THF     H7 5424   3.801   5.216   0.200  0.7579  0.4593 -1.9314
  330THF     C8 5425   3.789   5.308   0.009  0.1134  0.4298  0.8265
  330THF     C9 5426   3.678   5.231  -0.065  0.2264  0.5814 -0.7950
  330THF    H10 5427   3.885   5.264  -0.017  0.2953  0.6526  1.1203
  330THF    H11 5428   3.794   5.409  -0.032 -0.8110 -0.2934 -1.2154
  330THF    H12 5429   3.625   5.282  -0.145 -0.2317  1.7110  0.1986
  330THF    H13 5430   3.711   5.137  -0.109 -3.3448 -0.7897 -0.9030
  331THF     O1 5431   2.655   3.536   3.189 -0.0222  0.3292 -0.4185
  331THF     C2 5432   2.732   3.493   3.305  0.3460 -0.0526 -0.0160
  331THF     C3 5433   2.555   3.435   3.174  0.2765  0.3159 -0.8601
  331THF     H4 5434   2.727   3.569   3.383  1.1634  0.6731 -0.6473
  331THF     H5 5435   2.841   3.496   3.299  0.2962  0.5410 -0.8570
  331THF     H6 5436   2.457   3.469   3.209  0.1833 -1.2832  0.5681
  331THF     H7 5437   2.541   3.428   3.066  0.5871 -1.2519 -0.8153
  331THF     C8 5438   2.608   3.308   3.245 -0.3493  0.1852  0.4093
  331THF     C9 5439   2.675   3.366   3.365  0.1506  0.2329 -0.2941
  331THF    H10 5440   2.676   3.254   3.179 -0.2369  1.6171 -0.6993
  331THF    H11 5441   2.524   3.245   3.273 -3.2933  2.5516 -2.3981
  331THF    H12 5442   2.601   3.413   3.430  0.7238  1.1028 -0.2551
  331THF    H13 5443   2.749   3.308   3.420  0.6972  2.0792  1.0470
  332THF     O1 5444   4.305   2.928   2.264 -0.1604  0.1346 -0.5100
  332THF     C2 5445   4.182   2.969   2.311 -0.4746 -0.4937  0.2140
  332THF     C3 5446   4.390   3.044   2.259  0.0601 -0.1207  0.5166
  332THF     H4 5447   4.188   2.952   2.418  1.7556  0.4400  0.2862
  332THF     H5 5448   4.104   2.905   2.268 -1.4943  0.8927 -0.0608
  332THF     H6 5449   4.420   3.079   2.358 -1.0130 -0.3702  0.9501
  332THF     H7 5450   4.478   3.028   2.196 -1.5526  1.1559 -2.2295
  332THF     C8 5451   4.292   3.145   2.194  0.4609 -0.3428  0.5613
  332THF     C9 5452   4.165   3.121   2.279 -0.1680  0.1623 -0.1823
  332THF    H10 5453   4.284   3.120   2.089  0.9898 -1.3340  0.7474
  332THF    H11 5454   4.336   3.245   2.200 -0.6269  0.2280 -0.5759
  332THF    H12 5455   4.178   3.179   2.371 -1.4694  0.7168 -0.3290
  332THF    H13 5456   4.073   3.151   2.230 -0.5002 -0.9328 -0.2685
  333THF     O1 5457   2.796   5.393   4.325  0.4127  0.0098  0.4349
  333THF     C2 5458   2.768   5.454   4.198  0.2505 -0.2471 -0.2966
  333THF     C3 5459   2.884   5.483   4.397 -0.1493  0.0866  0.7603
  333THF     H4 5460   2.691   5.404   4.139  0.1380 -0.3472 -0.0663
  333THF     H5 5461   2.853   5.464   4.131  0.1948 -1.6674 -0.6248
  333THF     H6 5462   2.904   5.463   4.502  2.2506  2.4416  0.8693
  333THF     H7 5463   2.978   5.483   4.342 -1.1927 -0.6204 -1.1334
  333THF     C8 5464   2.821   5.621   4.361  0.0174 -0.3397 -0.1971
  333THF     C9 5465   2.732   5.595   4.238  0.2705  0.2211 -0.2042
  333THF    H10 5466   2.903   5.691   4.340  0.4103 -1.0340 -1.0389
  333THF    H11 5467   2.758   5.652   4.445 -0.3061 -2.5038  0.4152
  333THF    H12 5468   2.625   5.612   4.246  0.3551  0.9221 -0.4593
  333THF    H13 5469   2.768   5.657   4.156 -2.2928  0.4947 -1.1831
  334THF     O1 5470   3.480   4.278   3.923  0.2112  0.2839 -0.4651
  334THF     C2 5471   3.483   4.347   4.048  0.0835  0.0692  0.2577
  334THF     C3 5472   3.345   4.236   3.904 -0.1391  0.1761 -0.3413
  334THF     H4 5473   3.575   4.404   4.063 -0.8073  1.5944  0.1742
  334THF     H5 5474   3.479   4.272   4.127 -2.2846 -0.5614 -0.4013
  334THF     H6 5475   3.326   4.221   3.798 -1.4496  0.8513 -0.2235
  334THF     H7 5476   3.345   4.140   3.955  0.7418  1.1554  1.6168
  334THF     C8 5477   3.264   4.349   3.978 -0.5411 -0.6811  0.5211
  334THF     C9 5478   3.368   4.442   4.038 -0.2056 -0.5888 -0.3497
  334THF    H10 5479   3.201   4.313   4.060 -1.1076 -0.5859  0.1275
  334THF    H11 5480   3.199   4.410   3.916  2.1802  2.0727  0.1214
  334THF    H12 5481   3.388   4.517   3.961  1.7496 -2.1107 -1.4262
  334THF    H13 5482   3.340   4.486   4.133 -0.7706 -0.8603 -0.3840
  335THF     O1 5483   5.025   0.797   2.401  0.1932  0.3111  0.0433
  335THF     C2 5484   4.901   0.801   2.469 -0.1061 -0.1568 -0.6275
  335THF     C3 5485   5.074   0.666   2.405 -0.5858  0.3732  0.0602
  335THF     H4 5486   4.829   0.880   2.449 -1.0296  0.6713  4.5007
  335THF     H5 5487   4.924   0.805   2.576 -0.5168 -1.0809 -0.4920
  335THF     H6 5488   5.092   0.640   2.301 -0.9625 -1.0020  0.3262
  335THF     H7 5489   5.163   0.651   2.465 -1.7741  0.0954  1.8419
  335THF     C8 5490   4.962   0.572   2.462  0.1022  0.1611 -0.1781
  335THF     C9 5491   4.835   0.660   2.447 -0.2402 -0.2207  0.0676
  335THF    H10 5492   4.993   0.547   2.564 -2.1999 -1.8630  0.1001
  335THF    H11 5493   4.947   0.480   2.405 -2.8096  0.5941 -0.2435
  335THF    H12 5494   4.808   0.661   2.341  2.0094  0.1045 -0.5479
  335THF    H13 5495   4.747   0.644   2.510  1.0299  0.7523  2.1873
  336THF     O1 5496   2.454   1.226   0.386  0.7009 -0.5586 -0.2564
  336THF     C2 5497   2.447   1.192   0.250 -0.4159  0.1086 -0.0027
  336THF     C3 5498   2.594   1.258   0.404  0.2762 -0.1880 -0.8573
  336THF     H4 5499   2.351   1.225   0.207 -1.2169  0.9526  2.2754
  336THF     H5 5500   2.444   1.084   0.247 -2.5426  0.1163 -0.3417
  336THF     H6 5501   2.585   1.346   0.466 -0.5730 -1.4933  0.9733
  336THF     H7 5502   2.636   1.179   0.467  0.2593  1.3492  1.1499
  336THF     C8 5503   2.673   1.272   0.269 -0.3904 -0.2516 -0.3363
  336THF     C9 5504   2.564   1.259   0.169  0.3330  0.4366  0.0411
  336THF    H10 5505   2.746   1.193   0.250 -0.1972 -0.4881  1.3016
  336THF    H11 5506   2.733   1.363   0.260 -1.1390  0.5004  1.7477
  336THF    H12 5507   2.540   1.362   0.141  0.1767 -0.0288 -1.6001
  336THF    H13 5508   2.596   1.203   0.082 -0.3178  0.0949  0.0200
  337THF     O1 5509   1.904   1.470   1.110 -0.3067 -0.0544  0.5796
  337THF     C2 5510   1.995   1.368   1.063 -0.7445  0.0650 -0.7707
  337THF     C3 5511   1.767   1.417   1.109  0.5345 -1.2405 -0.7424
  337THF     H4 5512   2.082   1.380   1.128 -1.0511 -1.7181  0.0311
  337THF     H5 5513   2.016   1.388   0.958  1.6282 -1.0391 -0.5799
  337THF     H6 5514   1.744   1.420   1.215 -0.6149 -2.3276 -0.9471
  337THF     H7 5515   1.703   1.479   1.046  1.5878 -0.9237 -1.5357
  337THF     C8 5516   1.783   1.273   1.058  0.5644  0.3011  0.5092
  337THF     C9 5517   1.924   1.236   1.085 -1.2493 -0.0961  0.4929
  337THF    H10 5518   1.762   1.282   0.951  2.2072  1.6181  0.2568
  337THF    H11 5519   1.720   1.195   1.101 -0.7492  2.4554  2.7511
  337THF    H12 5520   1.923   1.209   1.191 -0.8626  0.4706  0.6428
  337THF    H13 5521   1.964   1.161   1.018  0.9964  0.7526  0.8081
  338THF     O1 5522   1.174   1.272   2.896 -0.8119  0.0822 -0.3456
  338THF     C2 5523   1.291   1.202   2.860 -0.6464  0.1693 -0.1071
  338THF     C3 5524   1.213   1.395   2.953  0.6326 -0.0113  0.0309
  338THF     H4 5525   1.340   1.242   2.771 -2.8452  3.0762 -0.1332
  338THF     H5 5526   1.272   1.096   2.843  1.3430 -0.3453  0.6220
  338THF     H6 5527   1.218   1.473   2.877 -0.4339  0.7813  0.7595
  338THF     H7 5528   1.125   1.426   3.009  0.6553 -1.0841  0.6760
  338THF     C8 5529   1.336   1.358   3.027 -0.0616  0.3519  0.2647
  338THF     C9 5530   1.371   1.215   2.989 -0.0230 -0.4349  0.5483
  338THF    H10 5531   1.305   1.360   3.131  0.7342  2.3470  0.5099
  338THF    H11 5532   1.413   1.433   3.010 -1.3980  1.4468 -1.2434
  338THF    H12 5533   1.479   1.215   2.970 -0.2968  1.2076 -1.3607
  338THF    H13 5534   1.348   1.148   3.072 -0.2013 -1.1597 -0.0777
  339THF     O1 5535   0.553   3.257   4.738 -0.3817 -0.4200 -0.1421
  339THF     C2 5536   0.454   3.216   4.641 -0.6430  0.1147 -0.2742
  339THF     C3 5537   0.630   3.151   4.778  0.1770 -0.3054 -0.0142
  339THF     H4 5538   0.505   3.217   4.545 -0.9187  0.5132 -0.4166
  339THF     H5 5539   0.366   3.278   4.623 -0.8905 -0.4505 -1.0611
  339THF     H6 5540   0.695   3.132   4.692  0.6567 -2.7385  0.8015
  339THF     H7 5541   0.685   3.160   4.871  0.0616 -1.2558  0.1581
  339THF     C8 5542   0.544   3.029   4.770  0.1742  0.8114 -0.2373
  339THF     C9 5543   0.420   3.075   4.688 -0.6607 -0.2926 -0.3523
  339THF    H10 5544   0.510   2.989   4.866 -1.1319  1.2515 -0.4942
  339THF    H11 5545   0.594   2.946   4.719 -1.4332  0.2570 -0.9831
  339THF    H12 5546   0.398   2.999   4.613 -1.9761  0.0824 -0.3732
  339THF    H13 5547   0.337   3.089   4.758  0.9542  2.3086  1.2184
  340THF     O1 5548   3.917   5.054   1.683  0.1742  0.3549 -0.3590
  340THF     C2 5549   3.830   5.165   1.726 -0.1881  0.0381  0.4136
  340THF     C3 5550   3.843   4.937   1.707  0.0643  0.4446 -0.5021
  340THF     H4 5551   3.839   5.256   1.667  2.6491  0.2892  1.0744
  340THF     H5 5552   3.860   5.199   1.825  1.0698 -0.0871  0.0949
  340THF     H6 5553   3.889   4.858   1.648  1.0134 -0.8211  1.7983
  340THF     H7 5554   3.840   4.904   1.811 -0.5954  0.5833 -0.4738
  340THF     C8 5555   3.704   4.967   1.668 -0.2161 -0.6030  1.1799
  340THF     C9 5556   3.686   5.111   1.724  0.0629  0.4358  0.4485
  340THF    H10 5557   3.634   4.898   1.716 -1.8103 -1.1473 -1.7045
  340THF    H11 5558   3.682   4.965   1.561 -0.5409  0.8672  1.1967
  340THF    H12 5559   3.622   5.175   1.664  0.4947  1.2753  0.8625
  340THF    H13 5560   3.654   5.111   1.828 -2.0501  0.8512 -0.1476
  341THF     O1 5561   3.865   2.187   4.302 -0.2231 -0.0420 -0.3054
  341THF     C2 5562   3.738   2.127   4.339 -0.2940 -0.2123 -0.2207
  341THF     C3 5563   3.967   2.087   4.289  1.1525  0.0861 -0.4444
  341THF     H4 5564   3.702   2.080   4.247  0.5060  0.5659 -0.9548
  341THF     H5 5565   3.668   2.197   4.383 -0.3947  0.2065 -1.0207
  341THF     H6 5566   3.942   2.017   4.210  1.2233  0.5976 -0.9234
  341THF     H7 5567   4.070   2.120   4.279  1.0993  0.7168  0.8057
  341THF     C8 5568   3.939   2.011   4.417  0.4215  0.5018 -0.1872
  341THF     C9 5569   3.789   2.033   4.449 -0.0662  0.2181  0.4590
  341THF    H10 5570   4.011   2.050   4.489  2.8491 -0.3827 -2.0172
  341THF    H11 5571   3.963   1.906   4.408 -2.3869 -0.3147  0.7954
  341THF    H12 5572   3.737   1.937   4.447  0.1167  0.1081  0.9887
  341THF    H13 5573   3.780   2.075   4.549 -0.7469  0.4394  0.3136
  342THF     O1 5574   0.917   0.064   3.488 -0.2278  0.9602 -0.5522
  342THF     C2 5575   0.953   0.037   3.352  0.4798  0.1671  0.0807
  342THF     C3 5576   1.018   0.154   3.537  0.1914  0.5757 -0.3691
  342THF     H4 5577   0.931   0.116   3.280  2.6792  0.5143 -0.2794
  342THF     H5 5578   0.900  -0.049   3.311 -0.1889  0.1984  0.8643
  342THF     H6 5579   1.027   0.250   3.485  0.8326  0.0998 -1.1636
  342THF     H7 5580   1.004   0.175   3.643 -0.6248 -1.4801 -0.0235
  342THF     C8 5581   1.144   0.092   3.500 -0.4695  0.0405 -0.0145
  342THF     C9 5582   1.110   0.031   3.367 -0.3378  0.7278  0.6770
  342THF    H10 5583   1.182   0.024   3.576 -0.4453  0.2496  0.1636
  342THF    H11 5584   1.214   0.175   3.486 -1.3623  0.6780 -0.8498
  342THF    H12 5585   1.163   0.068   3.279  0.0547  1.7504  1.3296
  342THF    H13 5586   1.144  -0.073   3.369 -0.6945  0.5381 -1.3823
  343THF     O1 5587   1.773   4.950   3.079 -0.4308  0.0568 -0.2204
  343THF     C2 5588   1.894   4.985   3.017 -0.1678 -0.0275  0.1003
  343THF     C3 5589   1.797   4.888   3.201  0.2716 -0.1001  0.7610
  343THF     H4 5590   1.880   5.092   3.000 -1.9997 -0.3281 -0.4847
  343THF     H5 5591   1.905   4.941   2.918  1.6198 -0.0997  0.2915
  343THF     H6 5592   1.712   4.895   3.270 -0.4286 -0.7335 -0.0181
  343THF     H7 5593   1.814   4.785   3.169  1.5580  0.3827 -0.1878
  343THF     C8 5594   1.929   4.940   3.249  0.0845 -0.5404  0.1614
  343THF     C9 5595   2.001   4.964   3.122  0.1810 -0.3766 -0.0900
  343THF    H10 5596   1.972   4.864   3.314 -2.5581 -1.9045  0.4503
  343THF    H11 5597   1.915   5.029   3.309 -3.8096 -0.3974 -0.7104
  343THF    H12 5598   2.063   5.054   3.126 -3.2286  2.1468  0.4581
  343THF    H13 5599   2.040   4.866   3.093 -1.7925 -1.5745  1.1274
  344THF     O1 5600   1.063   0.424   1.366  0.4023  0.4305 -0.2055
  344THF     C2 5601   1.136   0.503   1.451  0.0750  0.1209  0.0818
  344THF     C3 5602   0.937   0.386   1.422  0.4651  0.5521  0.2786
  344THF     H4 5603   1.197   0.569   1.388 -1.1345  0.8254 -0.3935
  344THF     H5 5604   1.206   0.449   1.515 -2.0738 -0.7560  1.7968
  344THF     H6 5605   0.862   0.400   1.344 -0.2178  2.5307  1.2176
  344THF     H7 5606   0.940   0.289   1.470  1.3233 -0.5811 -1.9342
  344THF     C8 5607   0.917   0.484   1.540  0.5890  0.3463 -0.2340
  344THF     C9 5608   1.035   0.576   1.532  0.6653 -0.2738 -0.5478
  344THF    H10 5609   0.911   0.441   1.640 -0.0197  1.1469  0.0762
  344THF    H11 5610   0.819   0.532   1.540 -2.3313 -4.8021  1.8002
  344THF    H12 5611   1.005   0.666   1.479 -1.6590 -0.5217  0.2341
  344THF    H13 5612   1.079   0.594   1.630  0.5465  0.1269 -0.5692
  345THF     O1 5613   4.952   4.540   0.707  0.1331 -0.4801  0.3894
  345THF     C2 5614   5.017   4.416   0.734 -0.2800 -0.4573  0.3194
  345THF     C3 5615   4.889   4.572   0.832 -0.2640 -0.2573  0.4311
  345THF     H4 5616   5.103   4.425   0.800 -0.7077 -0.0167  0.8232
  345THF     H5 5617   5.050   4.361   0.645 -0.4191 -2.7973  1.6491
  345THF     H6 5618   4.960   4.638   0.883  0.7622  1.6334 -3.0634
  345THF     H7 5619   4.804   4.636   0.807  0.1995 -0.6160 -2.4501
  345THF     C8 5620   4.847   4.448   0.899  0.0542  0.3377  0.8345
  345THF     C9 5621   4.903   4.337   0.809 -0.5524 -0.2519 -0.2022
  345THF    H10 5622   4.739   4.442   0.886  0.1924 -2.4877  0.2742
  345THF    H11 5623   4.873   4.449   1.005  1.0768  0.5360  0.5891
  345THF    H12 5624   4.954   4.257   0.863  0.5345 -0.6289 -1.7427
  345THF    H13 5625   4.822   4.300   0.746 -0.2885  0.9323 -1.2734
  346THF     O1 5626   3.494   4.660   0.888  0.3923  0.5750  0.2286
  346THF     C2 5627   3.604   4.584   0.940 -0.0525  0.3415 -0.1494
  346THF     C3 5628   3.444   4.597   0.770  0.0101  0.0508  0.3790
  346THF     H4 5629   3.567   4.504   1.003 -0.1115  1.5979  1.4928
  346THF     H5 5630   3.670   4.630   1.013  2.5271 -2.5113 -0.4906
  346THF     H6 5631   3.372   4.522   0.802 -0.5941  0.1772 -0.6692
  346THF     H7 5632   3.393   4.671   0.709  2.0722 -0.3177 -1.9543
  346THF     C8 5633   3.565   4.544   0.698 -0.2135  0.1718  1.1230
  346THF     C9 5634   3.678   4.555   0.809  0.0090  0.4793 -0.4659
  346THF    H10 5635   3.586   4.609   0.612 -2.0903  0.2126  0.6676
  346THF    H11 5636   3.548   4.443   0.661  0.4503  1.0345 -1.7880
  346THF    H12 5637   3.726   4.459   0.828 -0.8558  0.3029  0.9918
  346THF    H13 5638   3.740   4.642   0.785 -1.8578  2.1397  0.4456
  347THF     O1 5639   3.371   1.243   1.550 -0.3692 -0.3198 -0.3704
  347THF     C2 5640   3.327   1.374   1.510 -0.6669  0.1557  0.2235
  347THF     C3 5641   3.412   1.168   1.441 -0.4860 -0.3400  0.0451
  347THF     H4 5642   3.324   1.444   1.594  1.7379 -0.6173  1.0392
  347THF     H5 5643   3.224   1.364   1.476 -0.7866 -0.2820  0.6923
  347THF     H6 5644   3.466   1.077   1.466 -1.0074 -0.2221  1.7649
  347THF     H7 5645   3.313   1.149   1.402  0.1127 -1.3834 -1.0062
  347THF     C8 5646   3.486   1.263   1.351 -0.1861 -0.2976  0.3023
  347THF     C9 5647   3.443   1.397   1.408 -0.1036 -0.0638  0.2818
  347THF    H10 5648   3.472   1.255   1.244 -0.7136  1.0267  0.2527
  347THF    H11 5649   3.593   1.243   1.364 -0.1450 -0.3794 -0.1595
  347THF    H12 5650   3.519   1.454   1.462 -0.0316 -1.7210  2.0428
  347THF    H13 5651   3.404   1.455   1.324  1.0366 -1.8620 -1.5582
  348THF     O1 5652   5.483   0.960   2.503 -0.0819 -0.0917 -0.0921
  348THF     C2 5653   5.408   1.079   2.496 -0.3845 -0.3408  0.0920
  348THF     C3 5654   5.414   0.872   2.591  0.6418 -0.0322 -0.3101
  348THF     H4 5655   5.430   1.121   2.398  0.5618 -1.2423 -0.1059
  348THF     H5 5656   5.444   1.150   2.570 -0.7555  0.5387 -0.5660
  348THF     H6 5657   5.428   0.766   2.573 -1.0009 -0.4901  0.8812
  348THF     H7 5658   5.464   0.879   2.687  1.1591  2.4488 -0.6874
  348THF     C8 5659   5.270   0.921   2.597 -0.8496 -0.3314 -0.5533
  348THF     C9 5660   5.262   1.050   2.518  0.2978 -0.1584  0.1980
  348THF    H10 5661   5.248   0.945   2.701  0.1900 -1.0520 -0.1593
  348THF    H11 5662   5.200   0.843   2.566 -0.5129 -1.2301  0.8563
  348THF    H12 5663   5.204   1.039   2.426  0.4522  1.3235 -0.1027
  348THF    H13 5664   5.215   1.124   2.583 -1.4292  0.1953 -1.3531
  349THF     O1 5665   0.020   0.799   3.115  0.6581 -0.1491  0.9181
  349THF     C2 5666   0.000   0.845   3.249 -1.3152 -0.6145  0.3902
  349THF     C3 5667   0.019   0.909   3.021 -0.1410 -0.7542  0.2753
  349THF     H4 5668   0.097   0.875   3.291 -0.4062  2.4897 -3.3579
  349THF     H5 5669  -0.048   0.764   3.304 -1.7296 -0.7422 -0.1557
  349THF     H6 5670   0.117   0.952   3.041 -1.1044  2.5722 -1.2813
  349THF     H7 5671  -0.002   0.883   2.917 -1.1359 -0.3778  0.3683
  349THF     C8 5672  -0.089   1.001   3.085  0.3484  0.4101 -0.1618
  349THF     C9 5673  -0.090   0.966   3.232  0.3652  0.3211  0.3233
  349THF    H10 5674  -0.181   0.968   3.037  0.9864 -3.9570  1.1493
  349THF    H11 5675  -0.072   1.106   3.065 -1.7673  1.0133  0.9419
  349THF    H12 5676  -0.054   1.044   3.298 -3.5070  2.3278  0.3723
  349THF    H13 5677  -0.194   0.957   3.265 -0.1323 -2.0716 -1.5795
  350THF     O1 5678   4.681   3.301   2.619 -0.0954 -0.1558 -0.5521
  350THF     C2 5679   4.747   3.208   2.700 -0.9040 -0.5876  0.3382
  350THF     C3 5680   4.573   3.225   2.561 -0.1972 -0.5204 -0.6425
  350THF     H4 5681   4.803   3.243   2.787 -2.1708  0.0122  0.9460
  350THF     H5 5682   4.815   3.152   2.637 -0.2077  0.2116  0.3504
  350THF     H6 5683   4.502   3.287   2.507 -1.6997  1.1288  2.8767
  350THF     H7 5684   4.625   3.155   2.496  2.0192  0.0506  0.4327
  350THF     C8 5685   4.519   3.154   2.679 -0.0511 -0.3135 -0.2533
  350THF     C9 5686   4.644   3.114   2.752  0.4108 -0.4712 -0.3804
  350THF    H10 5687   4.456   3.071   2.647 -0.7835 -0.5569  1.7012
  350THF    H11 5688   4.452   3.216   2.737  1.2556 -0.5233  1.5401
  350THF    H12 5689   4.625   3.112   2.859  0.5099  2.1520 -0.2368
  350THF    H13 5690   4.675   3.012   2.733  0.3477 -0.4428 -0.6425
  351THF     O1 5691   4.095   4.698   2.125  0.0458  0.5268  0.0028
  351THF     C2 5692   4.103   4.763   2.001 -0.1435  0.1224 -0.3856
  351THF     C3 5693   3.997   4.772   2.213 -0.8999  0.2356  0.4915
  351THF     H4 5694   4.014   4.733   1.947  1.7080 -0.7865 -3.1161
  351THF     H5 5695   4.189   4.733   1.942  0.1170  1.1140 -0.5212
  351THF     H6 5696   3.895   4.749   2.184 -1.5531  0.6241  2.3620
  351THF     H7 5697   4.015   4.749   2.318 -1.4103  0.4462  0.6249
  351THF     C8 5698   4.014   4.921   2.163 -0.0193 -0.4025  0.2840
  351THF     C9 5699   4.105   4.909   2.036  0.1400  0.0039 -0.1286
  351THF    H10 5700   4.085   4.965   2.233  0.4057 -0.8900  0.1649
  351THF    H11 5701   3.922   4.978   2.148 -0.3817 -0.6813  1.3108
  351THF    H12 5702   4.077   4.975   1.954  0.8494  2.0949  1.2262
  351THF    H13 5703   4.201   4.955   2.062 -0.5714  0.7177  1.3563
  352THF     O1 5704   0.997   1.617   4.094 -0.1209  0.3351  0.5055
  352THF     C2 5705   1.017   1.479   4.107 -0.0948  0.9178 -0.5652
  352THF     C3 5706   1.065   1.677   4.203 -0.3810 -0.0321 -0.7897
  352THF     H4 5707   1.121   1.453   4.088  0.3335  2.6117 -0.6517
  352THF     H5 5708   0.952   1.415   4.048 -1.4923 -0.7669  2.5675
  352THF     H6 5709   1.174   1.677   4.197 -0.1787  3.4037  0.2540
  352THF     H7 5710   1.029   1.780   4.212 -1.1638 -0.3465 -0.2116
  352THF     C8 5711   1.030   1.596   4.327  0.0314  0.5337  0.0864
  352THF     C9 5712   0.990   1.469   4.259 -0.0197 -1.1328  0.0858
  352THF    H10 5713   0.950   1.656   4.370 -1.1740 -0.2677 -0.9576
  352THF    H11 5714   1.111   1.577   4.397 -2.7465 -1.5003  3.0801
  352THF    H12 5715   1.058   1.391   4.293  0.2638 -1.0207 -0.2073
  352THF    H13 5716   0.885   1.447   4.275 -0.9367  2.0641 -0.6638
  353THF     O1 5717   2.593   4.105   5.425 -0.7172 -0.3508 -0.2206
  353THF     C2 5718   2.522   4.115   5.302  0.4561 -0.0556  0.6297
  353THF     C3 5719   2.718   4.162   5.404 -0.0954 -0.0082  0.2149
  353THF     H4 5720   2.482   4.216   5.300  1.6808  0.4414  0.1980
  353THF     H5 5721   2.441   4.044   5.289  1.3480 -0.5737 -2.9358
  353THF     H6 5722   2.713   4.271   5.398  1.2559  0.0184 -1.4092
  353THF     H7 5723   2.788   4.146   5.486  1.1858 -1.7165 -1.1339
  353THF     C8 5724   2.765   4.119   5.261  0.4560 -0.0502  0.6531
  353THF     C9 5725   2.628   4.083   5.202  0.0397 -0.3232  0.2821
  353THF    H10 5726   2.836   4.037   5.255  0.2590 -0.2335  0.8207
  353THF    H11 5727   2.793   4.208   5.205 -3.4852  1.9513  1.4782
  353THF    H12 5728   2.598   4.113   5.102  1.3701 -1.8088 -0.6191
  353THF    H13 5729   2.639   3.975   5.192  0.1624 -0.1928 -1.1273
  354THF     O1 5730   0.626   0.004   3.283 -0.4575  0.3628  0.7663
  354THF     C2 5731   0.565   0.121   3.231  0.3553 -1.0412 -0.1273
  354THF     C3 5732   0.662  -0.079   3.171  0.7640  0.7724  0.5405
  354THF     H4 5733   0.634   0.188   3.180  0.4855 -0.2514  1.0486
  354THF     H5 5734   0.504   0.186   3.294  0.6724  0.6332 -1.4778
  354THF     H6 5735   0.754  -0.041   3.127 -0.1427  0.2494 -1.9768
  354THF     H7 5736   0.672  -0.177   3.217 -3.2260  0.4527  1.1679
  354THF     C8 5737   0.539  -0.063   3.080  0.2027 -0.5273  0.6951
  354THF     C9 5738   0.467   0.063   3.127  0.1917 -0.1941 -0.3484
  354THF    H10 5739   0.483  -0.157   3.089  0.3284 -0.9065 -1.8334
  354THF    H11 5740   0.561  -0.058   2.973 -0.6521  0.0681  0.5442
  354THF    H12 5741   0.455   0.124   3.038  1.8232  2.0439  0.8758
  354THF    H13 5742   0.369   0.036   3.167  0.7522  0.5333  1.6619
  355THF     O1 5743   0.053   0.721   3.641 -0.3195  0.4254 -0.0142
  355THF     C2 5744   0.134   0.639   3.549 -0.1310  0.0493 -0.6189
  355THF     C3 5745   0.108   0.722   3.771 -0.2380  0.1626 -0.5680
  355THF     H4 5746   0.182   0.698   3.471 -1.1198 -1.5736 -2.5432
  355THF     H5 5747   0.065   0.581   3.487 -0.1615  2.8067 -3.4360
  355THF     H6 5748   0.184   0.800   3.774 -2.1695  2.1770 -1.2453
  355THF     H7 5749   0.037   0.748   3.849  0.7827  3.1702 -0.5195
  355THF     C8 5750   0.168   0.573   3.784  0.2524  0.0379  0.0111
  355THF     C9 5751   0.229   0.557   3.640  0.4969  0.2415  0.4278
  355THF    H10 5752   0.098   0.491   3.805  2.4554 -1.5848  1.3816
  355THF    H11 5753   0.249   0.571   3.856  1.1503 -0.9541 -0.9707
  355THF    H12 5754   0.331   0.591   3.627 -0.1251  1.2141 -2.6118
  355THF    H13 5755   0.236   0.451   3.616  2.0907 -0.3236  2.9384
  356THF     O1 5756   2.243   1.705   4.164  0.0880  0.9786  0.9069
  356THF     C2 5757   2.104   1.741   4.157 -0.5625 -1.0958 -0.5827
  356THF     C3 5758   2.261   1.630   4.282 -0.0134  1.1755 -0.4400
  356THF     H4 5759   2.058   1.758   4.060 -2.2633  0.5373  0.4447
  356THF     H5 5760   2.088   1.838   4.203 -0.5684 -1.3159 -0.1177
  356THF     H6 5761   2.351   1.569   4.270 -0.4522  0.2162  0.9873
  356THF     H7 5762   2.278   1.683   4.376  0.4211  0.5635 -0.1643
  356THF     C8 5763   2.140   1.543   4.283 -0.0259  0.0854 -0.0741
  356THF     C9 5764   2.029   1.631   4.229  0.3925 -0.1615 -0.0280
  356THF    H10 5765   2.122   1.509   4.385  1.5096  0.1127  0.2247
  356THF    H11 5766   2.154   1.464   4.208  2.3694  0.2262  0.1742
  356THF    H12 5767   1.966   1.571   4.164  1.3715 -0.9256 -0.2993
  356THF    H13 5768   1.958   1.662   4.305 -1.4207 -2.9431 -0.4356
  357THF     O1 5769   4.702   2.471   0.069 -0.4897  0.0475  0.1728
  357THF     C2 5770   4.845   2.448   0.083 -0.1736  0.2408 -0.4621
  357THF     C3 5771   4.670   2.596   0.119  0.7185 -0.3347 -0.2326
  357THF     H4 5772   4.904   2.412  -0.001  1.8210  0.3012  0.8133
  357THF     H5 5773   4.860   2.372   0.160  0.7910 -0.6805 -1.5126
  357THF     H6 5774   4.583   2.635   0.067  0.2908 -1.5131 -0.4297
  357THF     H7 5775   4.660   2.587   0.228  2.0495  0.2431 -0.0429
  357THF     C8 5776   4.789   2.680   0.098 -0.7162 -0.4433 -0.3524
  357THF     C9 5777   4.909   2.588   0.117 -0.0592 -1.1201  0.4698
  357THF    H10 5778   4.795   2.778   0.146  0.0728  0.3548 -1.9746
  357THF    H11 5779   4.796   2.704  -0.008  1.1833 -1.6545 -0.5540
  357THF    H12 5780   4.987   2.613   0.044 -0.9090  3.2727  0.8062
  357THF    H13 5781   4.954   2.574   0.215 -0.1507 -0.6274  0.5815
  358THF     O1 5782   3.788   1.125   4.773 -0.1037 -0.0888 -0.2966
  358THF     C2 5783   3.678   1.212   4.768  0.0909 -0.2407 -0.1133
  358THF     C3 5784   3.877   1.158   4.666  0.3273  0.2762  0.9341
  358THF     H4 5785   3.690   1.298   4.833 -1.0447 -0.0239 -0.1693
  358THF     H5 5786   3.579   1.171   4.790 -0.3108 -0.7059 -2.4406
  358THF     H6 5787   3.940   1.241   4.698 -0.5881 -0.1364  4.1580
  358THF     H7 5788   3.941   1.072   4.650 -2.1127 -1.2953 -1.0859
  358THF     C8 5789   3.783   1.194   4.545  0.4757  0.6094  0.2932
  358THF     C9 5790   3.667   1.264   4.622 -0.4646  0.7240 -0.0227
  358THF    H10 5791   3.763   1.098   4.498  1.1043 -0.0822  1.4000
  358THF    H11 5792   3.815   1.272   4.476  0.5977  0.6374  0.3819
  358THF    H12 5793   3.683   1.372   4.613  2.7505  0.4919  1.2324
  358THF    H13 5794   3.570   1.250   4.576 -0.2557  0.4346 -0.3812
  359THF     O1 5795   3.440   1.473   4.260 -0.0958  0.3153 -0.0119
  359THF     C2 5796   3.575   1.448   4.226 -0.3581 -0.0993 -0.1942
  359THF     C3 5797   3.365   1.414   4.160 -0.0620  0.1285  0.0664
  359THF     H4 5798   3.623   1.453   4.324  1.2099  2.7756 -0.9857
  359THF     H5 5799   3.610   1.532   4.166 -0.8033  0.4781  0.3342
  359THF     H6 5800   3.270   1.379   4.202 -0.1174  0.7525  0.4765
  359THF     H7 5801   3.339   1.491   4.087  1.9430 -0.2708 -1.1366
  359THF     C8 5802   3.450   1.289   4.104  0.4547 -0.8184 -0.0449
  359THF     C9 5803   3.592   1.317   4.156 -0.7372  0.2592  0.1669
  359THF    H10 5804   3.451   1.287   3.995  1.3978 -1.5943 -0.0420
  359THF    H11 5805   3.418   1.194   4.147 -0.8621  0.0157  0.8990
  359THF    H12 5806   3.636   1.245   4.225  1.2006  0.8325 -0.4068
  359THF    H13 5807   3.663   1.332   4.075 -1.7315  2.4892 -0.3622
  360THF     O1 5808   1.991   0.657   4.075 -0.2454 -0.3530 -0.6228
  360THF     C2 5809   1.978   0.608   3.946  0.1940 -0.2488  0.2974
  360THF     C3 5810   1.862   0.713   4.113 -0.2937 -0.1382 -0.3251
  360THF     H4 5811   1.928   0.512   3.957 -0.3732  0.0774  0.5742
  360THF     H5 5812   2.074   0.599   3.895  0.9694  1.1524  1.4513
  360THF     H6 5813   1.798   0.637   4.157 -0.9850  0.0727 -0.9547
  360THF     H7 5814   1.875   0.794   4.184  2.0270 -1.2739  0.6660
  360THF     C8 5815   1.790   0.747   3.984 -0.3731 -0.0894 -0.3374
  360THF     C9 5816   1.885   0.704   3.874 -0.1153 -0.2601  0.1389
  360THF    H10 5817   1.777   0.855   3.978  0.8903  0.1252  0.3948
  360THF    H11 5818   1.695   0.693   3.984  0.7112 -2.1910  2.1024
  360THF    H12 5819   1.836   0.646   3.795  0.6766 -0.0432 -0.5236
  360THF    H13 5820   1.929   0.792   3.826 -1.6322  1.0734  1.0568
  361THF     O1 5821   1.575   0.564   2.733  0.0414 -0.6011 -0.1155
  361THF     C2 5822   1.598   0.670   2.648  0.0751 -0.3666 -0.0449
  361THF     C3 5823   1.691   0.546   2.815 -0.8787  0.2363 -0.9553
  361THF     H4 5824   1.513   0.720   2.603 -0.1268 -1.8232 -1.3735
  361THF     H5 5825   1.670   0.641   2.571  2.3051  1.0152  1.3902
  361THF     H6 5826   1.660   0.524   2.917 -0.2555 -0.3359 -0.8834
  361THF     H7 5827   1.753   0.467   2.774  1.8378  1.4783  0.5418
  361THF     C8 5828   1.755   0.679   2.824  0.4313 -0.1522 -0.0251
  361THF     C9 5829   1.668   0.767   2.739 -0.3605  0.2475  0.0846
  361THF    H10 5830   1.854   0.694   2.780  0.4815  3.5703  0.9461
  361THF    H11 5831   1.755   0.720   2.925 -1.8612  2.6108 -0.9693
  361THF    H12 5832   1.594   0.804   2.810 -1.5438 -0.7111 -0.6149
  361THF    H13 5833   1.716   0.848   2.683  0.4957 -0.6091 -0.4477
  362THF     O1 5834   1.061   5.304   2.450 -0.1211  0.0430  0.3032
  362THF     C2 5835   1.200   5.321   2.431 -0.0575 -0.5321  0.0077
  362THF     C3 5836   1.005   5.430   2.421  0.3364 -0.7644 -0.1769
  362THF     H4 5837   1.252   5.234   2.391 -3.5727 -1.9875 -1.7751
  362THF     H5 5838   1.245   5.358   2.524  0.8631 -0.4213 -0.4706
  362THF     H6 5839   0.897   5.431   2.410  0.1686  1.6501  1.0628
  362THF     H7 5840   1.014   5.511   2.493 -1.5552  0.0948 -0.8586
  362THF     C8 5841   1.087   5.479   2.306 -0.2669 -0.6161 -0.2347
  362THF     C9 5842   1.227   5.430   2.334  0.9680 -0.0388  0.8463
  362THF    H10 5843   1.092   5.585   2.284 -0.2550 -0.1252  1.9282
  362THF    H11 5844   1.052   5.448   2.207  2.1297  0.8831 -1.6588
  362THF    H12 5845   1.279   5.392   2.246  1.5101 -0.7243  1.4478
  362THF    H13 5846   1.292   5.508   2.373  1.1474  0.8333 -1.1171
  363THF     O1 5847   3.706   4.226   3.442 -0.1290 -0.8022  0.0594
  363THF     C2 5848   3.800   4.304   3.370  0.1771 -0.0081 -0.1670
  363THF     C3 5849   3.714   4.269   3.578  0.2589 -0.3801 -0.4133
  363THF     H4 5850   3.741   4.371   3.308 -0.5445 -0.2714  0.2232
  363THF     H5 5851   3.867   4.241   3.311  1.3220  0.9968  0.0344
  363THF     H6 5852   3.613   4.291   3.612 -0.1191 -0.2525 -1.5938
  363THF     H7 5853   3.763   4.204   3.651  2.0282  0.0154 -1.1905
  363THF     C8 5854   3.790   4.401   3.576 -0.1692  0.2662 -0.9715
  363THF     C9 5855   3.882   4.392   3.461 -0.4582  0.2155  0.4181
  363THF    H10 5856   3.829   4.432   3.673 -1.3440  0.7026 -0.6202
  363THF    H11 5857   3.724   4.485   3.549 -0.8235  0.5823  1.4152
  363THF    H12 5858   3.906   4.480   3.401  0.7127  1.0539  2.0351
  363THF    H13 5859   3.974   4.345   3.493  0.4209  1.5227 -0.0695
  364THF     O1 5860   4.033   3.973   5.262 -0.5722  0.1908 -0.2661
  364THF     C2 5861   4.086   4.060   5.366 -0.0819 -0.0430  0.7798
  364THF     C3 5862   4.133   3.890   5.221 -0.4545 -0.0327  0.2350
  364THF     H4 5863   4.014   4.081   5.445 -1.3852 -1.5181  0.0433
  364THF     H5 5864   4.109   4.150   5.310 -2.0565 -0.3756 -0.6850
  364THF     H6 5865   4.104   3.791   5.256 -0.2003 -1.3137 -2.8808
  364THF     H7 5866   4.139   3.893   5.112  0.4824  1.7209  0.3050
  364THF     C8 5867   4.269   3.941   5.278  0.1224  0.0442  0.1289
  364THF     C9 5868   4.214   4.000   5.410 -0.8263 -0.1082  0.5912
  364THF    H10 5869   4.327   4.017   5.227 -0.2744  1.0953  1.1894
  364THF    H11 5870   4.329   3.856   5.311  0.1795  0.3016  0.6962
  364THF    H12 5871   4.212   3.920   5.484  2.6480 -1.2258 -0.3523
  364THF    H13 5872   4.280   4.069   5.463 -0.0930 -1.1575  1.0745
  365THF     O1 5873   3.791   1.204   0.707  0.4234  0.0900 -0.2484
  365THF     C2 5874   3.745   1.324   0.770  0.2147  1.1280 -0.2465
  365THF     C3 5875   3.871   1.252   0.603 -0.0185  0.2893  1.0190
  365THF     H4 5876   3.820   1.373   0.832 -1.6359 -0.2202  3.3331
  365THF     H5 5877   3.670   1.299   0.844  1.1208 -1.1642 -0.0023
  365THF     H6 5878   3.969   1.288   0.631  0.3551  0.3498 -0.2954
  365THF     H7 5879   3.876   1.169   0.533  0.6267 -1.7730  3.3827
  365THF     C8 5880   3.797   1.377   0.545  0.0514 -0.4228 -0.0486
  365THF     C9 5881   3.699   1.412   0.657 -0.4604 -0.4620  0.5914
  365THF    H10 5882   3.734   1.353   0.459  1.1308 -2.7165 -0.2594
  365THF    H11 5883   3.861   1.462   0.520  0.3619 -0.5447  0.3292
  365THF    H12 5884   3.692   1.518   0.681  2.0290  0.4830 -2.2604
  365THF    H13 5885   3.595   1.385   0.638 -0.4893 -0.0883  0.2161
  366THF     O1 5886   4.390   5.176   2.400  0.2315 -0.3288  0.6125
  366THF     C2 5887   4.306   5.228   2.304  0.0351 -0.3705  0.1139
  366THF     C3 5888   4.432   5.294   2.469 -0.3574  0.1619 -1.0313
  366THF     H4 5889   4.213   5.235   2.361 -0.6385 -1.6255 -0.7803
  366THF     H5 5890   4.286   5.172   2.213 -0.2486  0.9637 -0.6608
  366THF     H6 5891   4.362   5.349   2.532  0.8182  1.9245 -1.2158
  366THF     H7 5892   4.513   5.259   2.533 -0.3043  0.5543 -0.8789
  366THF     C8 5893   4.465   5.409   2.372  0.4666  0.3757  0.0302
  366THF     C9 5894   4.357   5.366   2.264 -0.4908 -0.0093 -0.5742
  366THF    H10 5895   4.567   5.397   2.335  1.0195 -0.4248  1.7416
  366THF    H11 5896   4.455   5.512   2.404 -0.6778  0.3243 -0.1282
  366THF    H12 5897   4.270   5.431   2.269 -0.5182 -0.1302  1.1272
  366THF    H13 5898   4.389   5.362   2.160 -1.3922 -2.4039 -0.8146
  367THF     O1 5899   1.831   5.409   3.778 -0.2378  0.3509  0.2122
  367THF     C2 5900   1.837   5.372   3.645  0.2444 -0.4971 -0.3022
  367THF     C3 5901   1.948   5.369   3.841 -0.2538 -0.4862 -0.1634
  367THF     H4 5902   1.884   5.451   3.586  0.1550  0.9750  1.5129
  367THF     H5 5903   1.734   5.362   3.611 -0.0440  2.7716 -0.7091
  367THF     H6 5904   2.014   5.454   3.820  0.1726 -0.8467 -0.2809
  367THF     H7 5905   1.931   5.360   3.948 -0.1276  0.6352 -0.0284
  367THF     C8 5906   2.003   5.243   3.770 -0.2427  0.6619 -1.3092
  367THF     C9 5907   1.916   5.238   3.645  0.2653  0.3820 -0.1778
  367THF    H10 5908   1.999   5.152   3.830 -0.8665  2.3702  1.4025
  367THF    H11 5909   2.110   5.260   3.754  0.0958  0.2565  0.3128
  367THF    H12 5910   1.964   5.214   3.549  0.3054 -1.3884  0.2419
  367THF    H13 5911   1.847   5.156   3.665  0.0592  1.0036  1.7771
  368THF     O1 5912   4.221   1.715   4.664 -0.3382  0.1991  0.3112
  368THF     C2 5913   4.275   1.723   4.530 -0.2324 -0.3532  0.3371
  368THF     C3 5914   4.326   1.688   4.747 -0.8339  0.4588  0.2919
  368THF     H4 5915   4.312   1.824   4.514 -0.0256 -0.7281 -1.8498
  368THF     H5 5916   4.194   1.696   4.462 -1.2738  1.0358  0.9788
  368THF     H6 5917   4.389   1.772   4.775  0.5355 -1.0930  2.1766
  368THF     H7 5918   4.299   1.653   4.847 -0.5724  1.2471  0.6473
  368THF     C8 5919   4.408   1.579   4.672 -0.4553  0.0216  1.2363
  368THF     C9 5920   4.394   1.628   4.530 -0.1104  0.2644 -0.7486
  368THF    H10 5921   4.375   1.476   4.666 -0.9916  0.2667 -2.2405
  368THF    H11 5922   4.515   1.581   4.691  0.3160 -1.4405 -2.1049
  368THF    H12 5923   4.481   1.692   4.515 -1.2543  1.8481 -0.8892
  368THF    H13 5924   4.381   1.540   4.467 -1.3931 -2.0633  2.5004
  369THF     O1 5925   1.154   1.840   3.348  0.3163 -0.5101 -0.4365
  369THF     C2 5926   1.203   1.703   3.345  0.2189  0.1382 -0.4846
  369THF     C3 5927   1.066   1.855   3.240 -0.1833  0.1513  1.0738
  369THF     H4 5928   1.131   1.641   3.399 -0.6926  1.3708 -0.2520
  369THF     H5 5929   1.296   1.688   3.400 -0.0034 -1.6954 -0.5365
  369THF     H6 5930   0.973   1.799   3.252  1.2770 -3.2290 -1.4066
  369THF     H7 5931   1.044   1.954   3.201  0.6548 -0.3960 -0.9653
  369THF     C8 5932   1.140   1.777   3.120  0.5842 -0.3110  0.0691
  369THF     C9 5933   1.220   1.668   3.197  0.1636  0.1703 -0.1235
  369THF    H10 5934   1.202   1.845   3.061  1.0574 -1.6354 -1.0291
  369THF    H11 5935   1.077   1.731   3.043  1.3280  1.7632 -1.9230
  369THF    H12 5936   1.186   1.566   3.182 -0.7274  0.5880 -1.0958
  369THF    H13 5937   1.325   1.680   3.170  0.0976  0.3526 -0.3065
  370THF     O1 5938   2.692   2.780   1.284 -0.1374  0.7410 -0.5796
  370THF     C2 5939   2.812   2.698   1.306  0.2653  0.0223  0.0177
  370THF     C3 5940   2.720   2.916   1.295  0.4391 -0.4556  0.9667
  370THF     H4 5941   2.832   2.624   1.229 -2.0836 -1.4545  0.7024
  370THF     H5 5942   2.797   2.655   1.405 -2.0747  0.6864  0.0150
  370THF     H6 5943   2.646   2.987   1.257  1.5464  0.2042 -0.0423
  370THF     H7 5944   2.703   2.929   1.402 -2.0500 -1.9724  0.8195
  370THF     C8 5945   2.859   2.931   1.248 -0.1966  0.0016  0.5717
  370THF     C9 5946   2.922   2.807   1.315 -0.2558 -0.4678  0.2947
  370THF    H10 5947   2.901   3.029   1.273 -0.3360  0.0481  0.6208
  370THF    H11 5948   2.851   2.923   1.140 -0.2693 -1.4816  0.6718
  370THF    H12 5949   3.012   2.776   1.263  1.5566  3.0552  1.0314
  370THF    H13 5950   2.932   2.819   1.423 -3.1301  0.7343  0.5347
  371THF     O1 5951   0.276   3.125   5.425 -0.0162  0.1009  0.4817
  371THF     C2 5952   0.236   3.184   5.544  0.2188 -0.2604  0.8705
  371THF     C3 5953   0.311   2.991   5.457 -0.5336 -0.4937 -0.9074
  371THF     H4 5954   0.136   3.146   5.563 -0.6272  0.4722 -1.6403
  371THF     H5 5955   0.247   3.291   5.527 -0.6278 -0.4715 -1.5081
  371THF     H6 5956   0.223   2.933   5.486  0.5871 -1.9691 -0.3432
  371THF     H7 5957   0.373   2.941   5.382  0.5679  0.3127 -0.5643
  371THF     C8 5958   0.383   3.003   5.585 -0.4388  1.0499 -0.3553
  371THF     C9 5959   0.349   3.138   5.637  0.7487 -0.3530 -0.4304
  371THF    H10 5960   0.490   2.985   5.575 -0.2011  2.2721 -0.1936
  371THF    H11 5961   0.346   2.941   5.666 -0.3977  1.1542 -0.2560
  371THF    H12 5962   0.324   3.129   5.743 -2.1339 -0.1696 -1.0043
  371THF    H13 5963   0.437   3.202   5.628  0.0114  0.6426 -0.8471
  372THF     O1 5964   2.521   2.178   0.073  0.0910  0.1146 -0.1018
  372THF     C2 5965   2.645   2.140   0.126 -1.0073 -0.2372 -0.1138
  372THF     C3 5966   2.467   2.287   0.155 -0.5896 -0.3335 -0.0495
  372THF     H4 5967   2.704   2.079   0.058 -0.6143  0.8801 -0.8181
  372THF     H5 5968   2.640   2.079   0.216  1.1741  0.3196  0.4559
  372THF     H6 5969   2.387   2.348   0.111 -0.8064  0.7976  1.8175
  372THF     H7 5970   2.429   2.233   0.241  0.2119  0.9121  1.1234
  372THF     C8 5971   2.593   2.361   0.185  0.2696 -0.0319  0.1643
  372THF     C9 5972   2.711   2.278   0.141 -0.2687  0.4126 -0.2590
  372THF    H10 5973   2.593   2.370   0.294 -0.1520 -3.0154  0.4933
  372THF    H11 5974   2.589   2.464   0.148  0.8351 -0.7348 -1.9357
  372THF    H12 5975   2.753   2.322   0.051  0.2865  3.8177  1.4585
  372THF    H13 5976   2.785   2.251   0.217 -0.0301  0.0261 -0.6276
  373THF     O1 5977   4.215   1.578   1.501  0.1048 -0.1973  0.0138
  373THF     C2 5978   4.079   1.551   1.500  0.2729  0.0977  0.1202
  373THF     C3 5979   4.254   1.613   1.374 -0.7504 -0.4366  0.6905
  373THF     H4 5980   4.029   1.644   1.527  0.8362  0.3351  0.3614
  373THF     H5 5981   4.054   1.481   1.581 -2.0097  1.3419  0.5737
  373THF     H6 5982   4.234   1.716   1.345 -1.5337 -0.4125  1.2869
  373THF     H7 5983   4.362   1.597   1.373 -0.2144  2.5967  1.7175
  373THF     C8 5984   4.176   1.502   1.293 -0.0009  0.6073  0.3376
  373THF     C9 5985   4.039   1.497   1.360  0.3841 -0.7370  0.2337
  373THF    H10 5986   4.222   1.403   1.291  1.0518  1.0948 -0.2628
  373THF    H11 5987   4.166   1.533   1.189 -1.2403 -0.8501 -0.0188
  373THF    H12 5988   3.970   1.564   1.308  1.3744 -0.9616 -1.4047
  373THF    H13 5989   3.991   1.400   1.357  0.0122 -0.6572  2.1317
  374THF     O1 5990   3.992   5.193   1.134 -0.4675  0.0273  0.2166
  374THF     C2 5991   3.905   5.196   1.248  0.6020 -0.8490  0.1365
  374THF     C3 5992   4.102   5.282   1.145 -0.5235 -0.0264  0.4138
  374THF     H4 5993   3.857   5.103   1.279  2.3232 -1.6442  0.4842
  374THF     H5 5994   3.826   5.264   1.214 -0.8375 -2.1369  0.7922
  374THF     H6 5995   4.192   5.225   1.165 -0.3762 -0.3832 -1.1115
  374THF     H7 5996   4.116   5.344   1.057  0.3563 -4.0012 -2.5618
  374THF     C8 5997   4.068   5.368   1.271  1.0186 -0.6994  0.0676
  374THF     C9 5998   3.976   5.271   1.351  0.0170  0.5669 -0.1446
  374THF    H10 5999   4.006   5.454   1.247  0.9940  0.3637  3.3345
  374THF    H11 6000   4.159   5.408   1.316  1.2289 -0.1960 -0.7905
  374THF    H12 6001   4.029   5.201   1.415 -1.7095 -1.1685 -0.4968
  374THF    H13 6002   3.906   5.321   1.419 -0.8581  0.4112 -0.9129
  375THF     O1 6003   0.060   5.360   1.622  0.1813  0.1163 -0.9543
  375THF     C2 6004   0.106   5.343   1.762  0.6537  0.2159  0.7936
  375THF     C3 6005  -0.006   5.242   1.579  0.1253 -0.3731  0.3471
  375THF     H4 6006   0.015   5.357   1.819 -1.9128 -3.9098 -1.7818
  375THF     H5 6007   0.192   5.407   1.782 -0.3148  1.6960  0.3408
  375THF     H6 6008  -0.109   5.244   1.615 -0.2716  0.8576 -0.7926
  375THF     H7 6009  -0.004   5.217   1.473 -0.9939 -1.1956  0.5051
  375THF     C8 6010   0.092   5.133   1.639 -0.0558 -0.0420  0.4241
  375THF     C9 6011   0.139   5.190   1.770 -0.9782 -0.3645  0.2777
  375THF    H10 6012   0.176   5.118   1.571 -0.0060 -0.7301  0.6271
  375THF    H11 6013   0.042   5.037   1.654  2.2542 -1.3129  0.3885
  375THF    H12 6014   0.083   5.134   1.845 -0.9030 -2.5789 -1.2431
  375THF    H13 6015   0.242   5.174   1.803 -1.3947 -1.5812  1.0503
  376THF     O1 6016   1.774   0.706   5.227  0.4402 -0.1837 -0.2879
  376THF     C2 6017   1.744   0.795   5.117  0.8995  0.0878  0.3138
  376THF     C3 6018   1.873   0.769   5.302  0.3513  0.4392 -0.3279
  376THF     H4 6019   1.644   0.832   5.141  0.0112 -0.8561 -1.7468
  376THF     H5 6020   1.740   0.739   5.024  0.1635 -0.5455  0.7110
  376THF     H6 6021   1.858   0.757   5.409  0.9103  0.2117 -0.2732
  376THF     H7 6022   1.976   0.738   5.288  0.5973  0.3767  1.4031
  376THF     C8 6023   1.872   0.917   5.271  0.7218 -0.5210 -0.0357
  376THF     C9 6024   1.838   0.915   5.121 -0.4118  0.2689 -0.1072
  376THF    H10 6025   1.968   0.955   5.305  0.3975 -0.6833  1.1361
  376THF    H11 6026   1.788   0.961   5.325  1.3474  1.2091 -0.4280
  376THF    H12 6027   1.795   1.012   5.097 -1.0807 -0.2479 -1.0363
  376THF    H13 6028   1.930   0.900   5.065 -0.3509  1.1334 -0.2539
  377THF     O1 6029   0.813   3.552   1.026 -0.3711  0.1717  0.0017
  377THF     C2 6030   0.885   3.671   0.991  0.1148 -0.3325  0.2964
  377THF     C3 6031   0.831   3.462   0.923 -0.1318 -0.0652 -0.1484
  377THF     H4 6032   0.903   3.737   1.076  0.1865 -0.9633  0.7774
  377THF     H5 6033   0.823   3.714   0.912  0.3861 -0.6316 -0.0827
  377THF     H6 6034   0.797   3.363   0.953  0.0510 -0.0751  0.0207
  377THF     H7 6035   0.768   3.485   0.836 -0.5589 -0.1125  0.1469
  377THF     C8 6036   0.980   3.479   0.899  0.0072  0.3208  0.2206
  377THF     C9 6037   1.018   3.624   0.931 -0.5505 -0.4742  0.9798
  377THF    H10 6038   0.994   3.450   0.795 -0.1214  0.8674  0.0485
  377THF    H11 6039   1.031   3.415   0.971  0.9190  1.2850  0.4553
  377THF    H12 6040   1.087   3.617   1.015 -1.4849 -1.4721  1.6770
  377THF    H13 6041   1.066   3.668   0.843  2.9762  0.0102  2.9372
  378THF     O1 6042   4.946   5.105   0.788 -0.2451 -0.4975 -0.5609
  378THF     C2 6043   4.834   5.197   0.786 -0.0733  0.5398 -0.1277
  378THF     C3 6044   4.897   4.974   0.763 -0.7528 -0.3737 -0.3276
  378THF     H4 6045   4.835   5.248   0.690 -0.0190 -1.4590 -1.2589
  378THF     H5 6046   4.850   5.265   0.869  1.3392  0.1294 -0.0474
  378THF     H6 6047   4.890   4.955   0.656  0.7796  0.8887 -0.6830
  378THF     H7 6048   4.955   4.893   0.806 -0.1401 -0.2026 -0.8136
  378THF     C8 6049   4.755   4.973   0.814  0.4031  0.1399 -0.1425
  378THF     C9 6050   4.707   5.112   0.800  0.6965 -0.1134  0.4494
  378THF    H10 6051   4.758   4.934   0.916  0.0780 -0.4487 -0.3555
  378THF    H11 6052   4.693   4.895   0.770  0.3851  0.1853 -0.1975
  378THF    H12 6053   4.646   5.118   0.710  2.8007 -1.4754 -1.1681
  378THF    H13 6054   4.664   5.139   0.896 -0.0842 -2.2794  0.7607
  379THF     O1 6055   3.372   2.662   4.106 -0.6688  0.1172 -0.4541
  379THF     C2 6056   3.327   2.542   4.170  0.1723 -0.2436  0.9367
  379THF     C3 6057   3.261   2.740   4.081  0.0264 -0.2604  0.2505
  379THF     H4 6058   3.400   2.522   4.249  2.5060  0.2027 -0.9882
  379THF     H5 6059   3.323   2.466   4.092 -1.3403  2.1466 -1.4791
  379THF     H6 6060   3.297   2.843   4.070 -0.2519 -0.2027 -0.1595
  379THF     H7 6061   3.209   2.706   3.991  0.3166 -2.2125  0.7857
  379THF     C8 6062   3.168   2.712   4.201  0.1522  0.0020  0.2497
  379THF     C9 6063   3.185   2.558   4.225 -0.3520  0.4512  0.1453
  379THF    H10 6064   3.064   2.742   4.204  0.0201 -0.2147 -1.4078
  379THF    H11 6065   3.211   2.765   4.287  1.0431 -1.6516  0.8827
  379THF    H12 6066   3.175   2.517   4.326  1.0706  1.3228  0.6582
  379THF    H13 6067   3.117   2.501   4.161  0.2583  1.7997 -1.7878
  380THF     O1 6068   3.719   5.305   4.121 -0.2401 -0.0324 -0.2048
  380THF     C2 6069   3.626   5.410   4.084 -0.5358  0.2430 -0.2637
  380THF     C3 6070   3.714   5.199   4.031  0.5729  0.5345  0.0091
  380THF     H4 6071   3.669   5.508   4.104  2.2741 -0.6896 -1.2350
  380THF     H5 6072   3.535   5.411   4.143  1.0315  0.6092  2.2863
  380THF     H6 6073   3.807   5.156   3.995 -1.2785 -1.1048 -3.2548
  380THF     H7 6074   3.669   5.119   4.091  1.3253  1.3956  1.7985
  380THF     C8 6075   3.628   5.231   3.911 -0.1916 -0.3848 -0.0549
  380THF     C9 6076   3.612   5.386   3.931  0.0867  0.1023  0.5437
  380THF    H10 6077   3.532   5.179   3.907 -0.1175 -0.4398 -1.3553
  380THF    H11 6078   3.673   5.206   3.815 -0.7521 -0.6407 -0.2532
  380THF    H12 6079   3.692   5.446   3.886 -0.6608  2.3763  2.0631
  380THF    H13 6080   3.518   5.415   3.884  0.4025 -1.8382 -1.4507
  381THF     O1 6081   3.184   1.619   3.752  0.3342 -0.6286 -0.1030
  381THF     C2 6082   3.161   1.539   3.641 -0.3080  0.3650 -0.3540
  381THF     C3 6083   3.054   1.659   3.803 -0.1887  0.1207 -0.3069
  381THF     H4 6084   3.248   1.481   3.611 -2.2803 -2.0672 -1.7011
  381THF     H5 6085   3.128   1.613   3.567  0.1272  2.8015  1.7249
  381THF     H6 6086   3.067   1.681   3.909  0.9114  0.2203 -0.4455
  381THF     H7 6087   3.001   1.733   3.745 -0.2073  0.9765  0.7656
  381THF     C8 6088   2.994   1.521   3.803  0.7603 -0.1364  0.1792
  381THF     C9 6089   3.050   1.450   3.685  0.2105 -0.0679  0.0568
  381THF    H10 6090   2.886   1.529   3.789  1.0114  0.9217 -1.2925
  381THF    H11 6091   3.000   1.460   3.893  0.2178 -0.9685 -0.3314
  381THF    H12 6092   3.073   1.350   3.722 -1.5094 -0.8030 -0.7391
  381THF    H13 6093   2.968   1.435   3.614 -0.3185 -1.0377  0.8539
  382THF     O1 6094   0.072   2.933   3.786  0.0108 -0.2513  0.2718
  382THF     C2 6095  -0.062   2.964   3.752 -0.3564  0.3934  0.3983
  382THF     C3 6096   0.157   2.953   3.678 -0.6221  0.4604 -0.9200
  382THF     H4 6097  -0.085   3.071   3.753 -2.4573 -0.0187 -0.3885
  382THF     H5 6098  -0.123   2.904   3.819  0.5271 -1.6847 -0.5929
  382THF     H6 6099   0.190   3.056   3.680 -0.1933  0.3264  1.5744
  382THF     H7 6100   0.239   2.882   3.686  0.6302  2.1045  1.7274
  382THF     C8 6101   0.065   2.933   3.555 -0.2222 -0.0017  0.6418
  382THF     C9 6102  -0.068   2.904   3.610  0.2244 -0.5471  0.3976
  382THF    H10 6103   0.102   2.848   3.498  0.9790 -0.4882  2.0577
  382THF    H11 6104   0.066   3.024   3.495 -0.5890  0.1897  0.9149
  382THF    H12 6105  -0.152   2.935   3.548  1.9655  2.0361 -0.8071
  382THF    H13 6106  -0.078   2.796   3.623 -0.9307 -0.5055 -0.0109
  383THF     O1 6107   3.859   3.919   1.486  0.0404  0.2657 -0.5591
  383THF     C2 6108   3.973   4.000   1.462 -0.0037 -0.3516 -0.1767
  383THF     C3 6109   3.769   3.966   1.388 -0.1020  0.0513  0.5138
  383THF     H4 6110   4.065   3.955   1.501  1.3967  1.6810 -0.9401
  383THF     H5 6111   3.983   4.105   1.492 -0.9166  1.2448 -4.7093
  383THF     H6 6112   3.703   3.880   1.374  0.8485 -1.0230  2.2810
  383THF     H7 6113   3.704   4.046   1.421 -0.5324 -0.4841  0.9845
  383THF     C8 6114   3.848   4.007   1.262 -0.4947  0.2355  0.5580
  383THF     C9 6115   3.989   3.992   1.313 -0.4212  0.1064  0.7157
  383THF    H10 6116   3.824   4.111   1.243 -0.3421  0.2650  0.5260
  383THF    H11 6117   3.809   3.947   1.180 -4.2128  0.1562  2.1573
  383THF    H12 6118   4.030   3.896   1.281  1.5742  0.8516  0.8942
  383THF    H13 6119   4.059   4.060   1.264  0.0905 -1.6289 -1.1008
  384THF     O1 6120   1.128   0.606   1.862 -0.0952  0.3551  0.5006
  384THF     C2 6121   1.236   0.526   1.916  0.0237 -0.0131  0.3135
  384THF     C3 6122   1.008   0.569   1.922 -0.2800 -0.4505  1.1939
  384THF     H4 6123   1.322   0.583   1.950 -0.1564  0.5164 -0.1214
  384THF     H5 6124   1.266   0.457   1.837  2.3776 -1.1324  2.0520
  384THF     H6 6125   0.933   0.647   1.929 -0.3869 -0.6851  3.0176
  384THF     H7 6126   0.974   0.488   1.857  0.2320 -0.5481  1.0426
  384THF     C8 6127   1.040   0.513   2.056 -0.1443 -0.3240 -0.8423
  384THF     C9 6128   1.180   0.455   2.034  1.2172 -0.7002  0.1009
  384THF    H10 6129   0.973   0.437   2.097  0.5648  0.2190  1.4654
  384THF    H11 6130   1.058   0.586   2.135 -0.7651 -1.2386  0.1720
  384THF    H12 6131   1.227   0.470   2.131 -0.9687 -2.9544  1.6719
  384THF    H13 6132   1.163   0.347   2.031 -1.7642 -0.3137 -0.4115
  385THF     O1 6133   5.323   0.309   3.484 -0.1275 -0.3208  0.2542
  385THF     C2 6134   5.420   0.267   3.388  0.0303 -0.4102  0.4342
  385THF     C3 6135   5.334   0.218   3.593  0.3921  0.0231  0.3081
  385THF     H4 6136   5.449   0.346   3.319  1.0208  0.8867  2.2434
  385THF     H5 6137   5.363   0.190   3.336  0.9884 -0.8574  0.0029
  385THF     H6 6138   5.267   0.246   3.675 -0.0779  1.0976 -0.4254
  385THF     H7 6139   5.312   0.114   3.569 -0.4638  0.4487 -0.7962
  385THF     C8 6140   5.478   0.239   3.620 -0.5114  0.1983 -0.1115
  385THF     C9 6141   5.525   0.219   3.479 -0.0882 -0.2403 -0.0487
  385THF    H10 6142   5.505   0.167   3.697 -1.8299  0.4481  0.6203
  385THF    H11 6143   5.491   0.340   3.659  0.9375  0.2753 -0.7569
  385THF    H12 6144   5.605   0.292   3.468  0.4125 -0.6978  0.4578
  385THF    H13 6145   5.567   0.121   3.453 -1.1319 -1.2232  1.7556
  386THF     O1 6146   0.394   4.305   1.153 -0.9009 -0.2449  0.1934
  386THF     C2 6147   0.437   4.321   1.293  0.0885 -0.2778 -1.0165
  386THF     C3 6148   0.253   4.311   1.142  0.3660 -0.6666 -1.4560
  386THF     H4 6149   0.455   4.427   1.311  1.0393 -0.3819 -1.3129
  386THF     H5 6150   0.523   4.265   1.329 -1.5184 -3.0403 -1.2181
  386THF     H6 6151   0.230   4.418   1.143  0.3992 -0.6472 -2.2683
  386THF     H7 6152   0.210   4.276   1.049 -1.3019  2.9581 -2.2538
  386THF     C8 6153   0.207   4.242   1.274  0.5961  0.4571  0.2392
  386THF     C9 6154   0.322   4.262   1.372  0.0925 -0.0319 -0.0592
  386THF    H10 6155   0.187   4.137   1.250  0.7850  0.2478  0.9593
  386THF    H11 6156   0.117   4.289   1.314  1.1136  1.2485  0.4884
  386THF    H12 6157   0.300   4.327   1.457  1.6933 -0.8713  1.0522
  386THF    H13 6158   0.358   4.166   1.409 -1.2664  0.1802  2.0095
  387THF     O1 6159   3.604   2.931   2.110 -0.1041 -0.5691 -0.2160
  387THF     C2 6160   3.589   2.804   2.055 -0.0487  0.0036 -1.2873
  387THF     C3 6161   3.690   2.923   2.224  0.5177  0.3062  0.3015
  387THF     H4 6162   3.561   2.790   1.950  1.4587 -1.2676 -1.5683
  387THF     H5 6163   3.528   2.747   2.124  0.4948 -1.2021 -1.7661
  387THF     H6 6164   3.738   3.016   2.255  0.2021  1.3794 -2.2471
  387THF     H7 6165   3.620   2.899   2.305  1.3773  0.7610  1.1940
  387THF     C8 6166   3.788   2.809   2.188 -0.1267  0.1639 -0.1771
  387THF     C9 6167   3.724   2.745   2.067 -0.0127  0.1981  0.4455
  387THF    H10 6168   3.790   2.734   2.267 -2.0323 -1.7431 -1.8656
  387THF    H11 6169   3.886   2.853   2.167  0.0780  0.9034  2.0021
  387THF    H12 6170   3.792   2.780   1.990  1.0404 -1.3550  0.6246
  387THF    H13 6171   3.719   2.636   2.066  0.2342  0.1690 -1.5933
  388THF     O1 6172   4.362   3.175   3.449  0.4449 -0.2273  0.3216
  388THF     C2 6173   4.308   3.209   3.576  0.1576  0.1612 -0.2470
  388THF     C3 6174   4.314   3.270   3.351 -0.2176  0.7708 -0.2449
  388THF     H4 6175   4.361   3.291   3.625  1.1036 -0.1663 -0.7066
  388THF     H5 6176   4.316   3.123   3.642 -1.2156  0.7855  0.7816
  388THF     H6 6177   4.383   3.354   3.362 -0.5099  1.4492 -2.7988
  388THF     H7 6178   4.323   3.222   3.253  0.4216  0.8309 -0.2223
  388THF     C8 6179   4.174   3.298   3.394  0.2016  0.2309 -0.3532
  388THF     C9 6180   4.163   3.248   3.539 -0.6363  0.4791 -0.3293
  388THF    H10 6181   4.096   3.255   3.332 -0.3367  1.6736 -0.7306
  388THF    H11 6182   4.156   3.405   3.403  0.3978  0.1566  1.3144
  388THF    H12 6183   4.129   3.328   3.604  0.4108  0.3049  0.4588
  388THF    H13 6184   4.089   3.169   3.549 -0.4419  0.4678  1.3170
  389THF     O1 6185   3.597   1.944   5.403 -0.1975  0.3403  0.5340
  389THF     C2 6186   3.631   1.834   5.489  0.4090  0.4191 -0.0316
  389THF     C3 6187   3.671   1.936   5.278  0.4971  0.3653  0.4777
  389THF     H4 6188   3.558   1.827   5.570 -0.5317  0.1143 -0.8828
  389THF     H5 6189   3.720   1.833   5.551 -0.9898 -0.1177  2.0929
  389THF     H6 6190   3.622   1.982   5.191  0.0700 -2.5771 -0.9839
  389THF     H7 6191   3.771   1.977   5.286  0.8674 -0.1225 -1.2307
  389THF     C8 6192   3.671   1.783   5.255  0.1484  0.4970  0.3476
  389THF     C9 6193   3.649   1.721   5.391 -0.1130  0.0792  0.0677
  389THF    H10 6194   3.767   1.742   5.222 -0.8763 -0.3207 -1.8427
  389THF    H11 6195   3.592   1.761   5.183  1.9449 -0.6450 -1.4068
  389THF    H12 6196   3.562   1.657   5.384  0.5719 -0.8088 -0.6297
  389THF    H13 6197   3.737   1.665   5.424  1.0981  1.9427  0.1109
  390THF     O1 6198   1.706   2.884   4.568 -0.3655 -0.0082  0.1782
  390THF     C2 6199   1.670   2.938   4.451 -0.0062  0.4323 -0.0392
  390THF     C3 6200   1.652   2.959   4.682 -0.4396 -0.7817 -0.3281
  390THF     H4 6201   1.681   2.865   4.371  1.0762  1.2043 -0.6232
  390THF     H5 6202   1.732   3.027   4.438 -0.1249  0.3344 -1.4267
  390THF     H6 6203   1.659   2.910   4.779  2.3904  1.2031  0.5829
  390THF     H7 6204   1.708   3.051   4.693 -1.1749 -0.5019  1.3444
  390THF     C8 6205   1.514   2.997   4.633  0.1789 -0.2728  0.2015
  390THF     C9 6206   1.530   2.975   4.477 -0.0397 -0.6743  0.7118
  390THF    H10 6207   1.488   3.103   4.631 -0.6382 -0.3828 -3.8927
  390THF    H11 6208   1.437   2.939   4.683 -0.2037  1.4354  1.7138
  390THF    H12 6209   1.471   2.888   4.449  0.0664  0.1747 -2.4474
  390THF    H13 6210   1.499   3.065   4.424  0.3969 -1.2037 -0.4625
  391THF     O1 6211   2.249   2.169   4.237 -0.1188 -0.0608 -0.5449
  391THF     C2 6212   2.311   2.194   4.116  0.7049 -0.1626  0.0111
  391THF     C3 6213   2.318   2.056   4.297  0.1520 -0.8163  0.1880
  391THF     H4 6214   2.279   2.293   4.083 -1.9703 -0.9463  0.0745
  391THF     H5 6215   2.280   2.120   4.042 -0.3412 -0.3308  0.5974
  391THF     H6 6216   2.289   2.056   4.402  1.7293  0.6704  0.6556
  391THF     H7 6217   2.296   1.959   4.252 -0.2532 -0.0395 -1.3940
  391THF     C8 6218   2.466   2.089   4.273  0.3280  0.6329  0.3557
  391THF     C9 6219   2.463   2.181   4.148 -0.1817 -0.4889 -0.1036
  391THF    H10 6220   2.526   2.000   4.251  1.8628  1.2596  1.7436
  391THF    H11 6221   2.518   2.139   4.355  0.9510 -0.6368  0.7593
  391THF    H12 6222   2.517   2.274   4.165 -3.0885  1.4230 -0.5192
  391THF    H13 6223   2.508   2.133   4.061 -0.0167 -1.9943  0.7882
  392THF     O1 6224   3.653   3.434   0.429 -0.4621  0.5219  0.0509
  392THF     C2 6225   3.522   3.419   0.392 -0.6754 -0.1818 -0.0501
  392THF     C3 6226   3.699   3.540   0.351 -0.3270 -0.3034  0.5192
  392THF     H4 6227   3.453   3.487   0.442 -0.0356 -0.5488  1.3689
  392THF     H5 6228   3.493   3.319   0.422  2.5764 -1.8550 -1.9845
  392THF     H6 6229   3.675   3.628   0.410  1.2562  0.7248 -0.3212
  392THF     H7 6230   3.807   3.532   0.356 -0.2078 -0.0807 -1.2642
  392THF     C8 6231   3.638   3.536   0.223  0.5370  0.3351 -0.2351
  392THF     C9 6232   3.513   3.445   0.248  0.0684 -0.0033  0.7168
  392THF    H10 6233   3.715   3.488   0.163  1.0834 -0.5084  1.1064
  392THF    H11 6234   3.611   3.629   0.173 -1.2928  0.0653  0.1660
  392THF    H12 6235   3.418   3.489   0.216 -0.2794  1.6557  3.6181
  392THF    H13 6236   3.538   3.360   0.184  1.4805  1.1755 -0.3691
  393THF     O1 6237   1.269   4.444   1.043 -0.0285 -0.2527  0.2689
  393THF     C2 6238   1.173   4.475   1.138  0.1191 -0.3417 -0.8486
  393THF     C3 6239   1.216   4.491   0.923 -0.2646 -0.2678 -0.1660
  393THF     H4 6240   1.162   4.582   1.154  1.9371 -0.1332 -0.7624
  393THF     H5 6241   1.187   4.421   1.231 -0.5438  1.1804  0.1713
  393THF     H6 6242   1.235   4.598   0.918 -0.7707 -0.2284 -2.2321
  393THF     H7 6243   1.278   4.452   0.842  0.5082  0.9776 -0.2067
  393THF     C8 6244   1.065   4.460   0.924 -0.6528 -0.5025  0.4819
  393THF     C9 6245   1.045   4.426   1.076 -0.8895 -0.2030  0.6065
  393THF    H10 6246   1.055   4.364   0.875 -0.5513 -1.7623  2.7791
  393THF    H11 6247   0.999   4.539   0.888  0.1521  1.0799  2.2874
  393THF    H12 6248   0.948   4.463   1.110 -1.8968 -0.3022 -1.9535
  393THF    H13 6249   1.043   4.317   1.075  0.9197 -0.3047 -2.3994
  394THF     O1 6250   1.349   4.967   0.183  0.4086  0.2655  0.2972
  394THF     C2 6251   1.457   4.888   0.158 -0.2332 -0.1862  0.0965
  394THF     C3 6252   1.344   5.059   0.075 -0.6376 -0.1003  0.0445
  394THF     H4 6253   1.423   4.826   0.075 -1.2740  1.0075 -0.4049
  394THF     H5 6254   1.484   4.824   0.242 -0.5851 -0.0639  0.3009
  394THF     H6 6255   1.296   5.015  -0.013 -0.2879  0.2928 -0.3460
  394THF     H7 6256   1.294   5.155   0.091 -1.2112 -0.5541  1.0569
  394THF     C8 6257   1.483   5.081   0.027  0.7035  1.0586  0.1476
  394THF     C9 6258   1.564   4.980   0.110  0.1779 -0.1615  0.3380
  394THF    H10 6259   1.520   5.183   0.038  1.5207  0.7188  0.6311
  394THF    H11 6260   1.479   5.054  -0.078 -0.0112 -0.4437  0.5265
  394THF    H12 6261   1.638   4.926   0.052  0.2991 -1.0180  1.2531
  394THF    H13 6262   1.606   5.022   0.201  2.0370 -2.6952  0.7428
  395THF     O1 6263   5.127   2.278   3.542 -0.1557  1.0171  0.5814
  395THF     C2 6264   5.174   2.147   3.511  0.5176  0.3216  0.2373
  395THF     C3 6265   5.061   2.333   3.435  0.3348  0.0920 -0.4542
  395THF     H4 6266   5.205   2.084   3.595 -0.9697  0.2509  0.7665
  395THF     H5 6267   5.257   2.152   3.441  0.2119  1.4074 -0.0637
  395THF     H6 6268   5.009   2.420   3.474 -0.5207  0.4640 -2.2873
  395THF     H7 6269   5.122   2.379   3.357 -1.5481 -0.4053 -2.3323
  395THF     C8 6270   4.977   2.215   3.387  0.3933 -0.2550 -0.2454
  395THF     C9 6271   5.051   2.091   3.435 -1.1184  0.2649 -0.0629
  395THF    H10 6272   4.973   2.224   3.279 -0.9985  0.9826 -0.1233
  395THF    H11 6273   4.875   2.214   3.424  2.0378 -2.6351  5.3129
  395THF    H12 6274   4.987   2.031   3.498  0.3439 -1.0357  0.2491
  395THF    H13 6275   5.072   2.027   3.349  0.1969 -0.6346  0.8927
  396THF     O1 6276   3.825   5.401   4.892 -0.1065  0.2668  0.0712
  396THF     C2 6277   3.943   5.353   4.841  0.4580  1.1469  0.2416
  396THF     C3 6278   3.857   5.530   4.945  0.4302 -0.1804 -0.1788
  396THF     H4 6279   3.967   5.411   4.752  1.2974  0.3790 -0.0508
  396THF     H5 6280   3.939   5.250   4.804  1.0093  1.5505 -0.9815
  396THF     H6 6281   3.888   5.613   4.881 -1.0105  1.4218  1.0879
  396THF     H7 6282   3.769   5.551   5.005  1.0752 -2.1350  1.5592
  396THF     C8 6283   3.979   5.496   5.033  0.0078  0.0372  0.2088
  396THF     C9 6284   4.042   5.374   4.959  0.0604  0.5198 -0.3789
  396THF    H10 6285   3.940   5.480   5.134 -1.1754  0.8062 -0.1190
  396THF    H11 6286   4.043   5.584   5.029  0.8932 -0.6374 -2.4369
  396THF    H12 6287   4.144   5.392   4.925  0.0676  2.5211  0.5511
  396THF    H13 6288   4.045   5.291   5.029  3.3096  2.0332  1.5109
  397THF     O1 6289   3.597   2.384   2.406  0.1464  0.4429 -0.1973
  397THF     C2 6290   3.543   2.255   2.421  0.3366  0.0851 -0.0499
  397THF     C3 6291   3.504   2.464   2.475  0.6455  0.4656  0.2646
  397THF     H4 6292   3.623   2.186   2.396  1.7864  1.5417  0.3863
  397THF     H5 6293   3.467   2.248   2.343  1.1897  1.2511 -1.0222
  397THF     H6 6294   3.556   2.555   2.503  0.5932  0.4050  0.5580
  397THF     H7 6295   3.410   2.490   2.425 -0.7237  0.7276  2.7831
  397THF     C8 6296   3.455   2.393   2.598  0.5940 -0.2927  0.1894
  397THF     C9 6297   3.501   2.252   2.570 -0.0534  0.9066 -0.0512
  397THF    H10 6298   3.346   2.396   2.601  0.6011 -0.2306  0.4005
  397THF    H11 6299   3.486   2.437   2.692  1.3533 -2.4525  1.0217
  397THF    H12 6300   3.581   2.252   2.644  0.7936  1.2810 -0.9433
  397THF    H13 6301   3.434   2.168   2.590 -0.2715  0.5441 -2.0393
  398THF     O1 6302   3.922   4.584   3.202 -0.4037 -0.0681  0.0851
  398THF     C2 6303   4.020   4.685   3.235  0.3072 -0.5513  0.1793
  398THF     C3 6304   3.793   4.638   3.185  0.3192 -0.1304 -0.5157
  398THF     H4 6305   4.076   4.711   3.144 -1.3114  0.3099 -0.6124
  398THF     H5 6306   4.080   4.658   3.321  0.3276  1.9981  1.0644
  398THF     H6 6307   3.791   4.674   3.082  0.1636  0.1824 -0.4056
  398THF     H7 6308   3.725   4.554   3.193 -0.3626  0.3568 -1.0752
  398THF     C8 6309   3.795   4.741   3.293  0.0688  0.0096 -0.0499
  398THF     C9 6310   3.932   4.807   3.270  0.5086 -0.4193  0.2734
  398THF    H10 6311   3.773   4.696   3.390 -1.7245 -0.5700 -0.6742
  398THF    H11 6312   3.716   4.812   3.268 -1.4768 -2.0858 -1.5318
  398THF    H12 6313   3.938   4.880   3.190 -0.4211 -0.8165 -0.1726
  398THF    H13 6314   3.952   4.856   3.365  1.0062 -2.4478  1.2702
  399THF     O1 6315   5.016   4.710   2.653  0.4644 -0.0392 -0.2821
  399THF     C2 6316   4.967   4.698   2.784 -0.5682 -0.0187  0.2665
  399THF     C3 6317   5.096   4.602   2.617  0.1489 -0.4690  0.2068
  399THF     H4 6318   4.871   4.747   2.804 -0.6383 -0.5155  1.2075
  399THF     H5 6319   5.050   4.725   2.850 -0.1176 -2.6936  0.9309
  399THF     H6 6320   5.122   4.610   2.512 -0.8609 -0.3356 -0.0359
  399THF     H7 6321   5.182   4.598   2.685 -0.0780 -2.4503  0.4491
  399THF     C8 6322   5.003   4.485   2.674  0.5248  0.1789  0.2501
  399THF     C9 6323   4.928   4.549   2.794 -0.2790 -0.1539  0.0655
  399THF    H10 6324   5.065   4.398   2.697  0.5808  0.5814  1.7803
  399THF    H11 6325   4.931   4.459   2.597 -1.4951  1.0523  1.7236
  399THF    H12 6326   4.822   4.523   2.797 -0.0879 -0.8626  1.2632
  399THF    H13 6327   4.969   4.508   2.886  0.4829  0.2474 -0.0898
  400THF     O1 6328   2.285   1.442   1.629 -0.0896 -0.2480 -0.2786
  400THF     C2 6329   2.159   1.479   1.682 -0.1627 -0.6973  0.5823
  400THF     C3 6330   2.265   1.341   1.531 -0.5405  0.1814  0.0758
  400THF     H4 6331   2.142   1.587   1.692 -1.3942 -1.0765  3.4918
  400THF     H5 6332   2.142   1.443   1.783 -0.6551 -1.1775  0.3353
  400THF     H6 6333   2.334   1.359   1.449 -0.0433 -0.6844  0.2963
  400THF     H7 6334   2.277   1.243   1.577  0.4766  0.4533  0.4035
  400THF     C8 6335   2.134   1.373   1.469  0.5784 -0.2140 -0.0510
  400THF     C9 6336   2.055   1.419   1.585  0.1928 -0.2242 -0.7039
  400THF    H10 6337   2.084   1.289   1.421  1.6295 -0.8622 -0.0406
  400THF    H11 6338   2.145   1.454   1.397 -1.1128 -0.5261 -0.7006
  400THF    H12 6339   1.979   1.493   1.558  1.2428  0.5915 -1.5464
  400THF    H13 6340   2.005   1.348   1.650  0.0097  0.5286  0.0013
  401THF     O1 6341   1.271   5.128   4.458 -0.4567  0.0306  0.4250
  401THF     C2 6342   1.228   5.255   4.425  0.0039 -0.6172  0.2133
  401THF     C3 6343   1.212   5.073   4.566 -0.1522 -0.0480  0.0652
  401THF     H4 6344   1.139   5.253   4.361  0.1024 -1.3102  0.0906
  401THF     H5 6345   1.294   5.321   4.369 -1.4300 -0.4579 -1.3843
  401THF     H6 6346   1.148   4.988   4.544 -1.2698  0.0711  2.4797
  401THF     H7 6347   1.287   5.040   4.638  0.5202 -0.6204 -0.8847
  401THF     C8 6348   1.129   5.181   4.636 -0.1244  0.5488  0.3579
  401THF     C9 6349   1.194   5.308   4.566 -0.0976 -0.2641  0.1224
  401THF    H10 6350   1.128   5.180   4.745  1.0311  0.6784  0.3807
  401THF    H11 6351   1.025   5.167   4.608  0.0700  1.2096 -0.8104
  401THF    H12 6352   1.140   5.403   4.575 -0.1758 -0.4131  1.2985
  401THF    H13 6353   1.283   5.332   4.624  0.4231 -1.3501 -0.2045
  402THF     O1 6354   2.553   3.617   4.733  0.5486 -0.3120 -0.8757
  402THF     C2 6355   2.496   3.589   4.858 -0.7074 -0.1051 -0.1225
  402THF     C3 6356   2.570   3.494   4.659 -0.0214  0.1454  0.1728
  402THF     H4 6357   2.389   3.586   4.839 -0.6675  0.8782 -0.5583
  402THF     H5 6358   2.516   3.671   4.927 -2.3007  1.1772 -1.0915
  402THF     H6 6359   2.502   3.479   4.575  1.5903 -0.6973 -1.0247
  402THF     H7 6360   2.674   3.514   4.632 -0.5308  1.5729 -0.9146
  402THF     C8 6361   2.555   3.380   4.760  0.3015  0.2645 -0.5149
  402THF     C9 6362   2.547   3.452   4.893 -0.1462 -0.0316 -0.2969
  402THF    H10 6363   2.628   3.303   4.736 -0.0917  0.1714 -1.4892
  402THF    H11 6364   2.456   3.337   4.743 -0.5150  2.1441 -0.7609
  402THF    H12 6365   2.476   3.412   4.966  1.0345  1.6206  1.9018
  402THF    H13 6366   2.644   3.443   4.944 -0.0018 -4.0298 -0.9252
  403THF     O1 6367   1.538   2.385   0.708  0.4295  0.2699  0.6291
  403THF     C2 6368   1.501   2.427   0.838 -0.2342 -0.0781 -0.1165
  403THF     C3 6369   1.448   2.452   0.609 -1.1768  0.3387 -0.7024
  403THF     H4 6370   1.515   2.535   0.844 -1.3153  0.0354  0.6065
  403THF     H5 6371   1.548   2.365   0.914 -0.7668 -3.7368 -2.5067
  403THF     H6 6372   1.468   2.554   0.576 -1.1347  0.4019 -0.4859
  403THF     H7 6373   1.452   2.392   0.518 -1.8050  0.1961 -0.6350
  403THF     C8 6374   1.317   2.444   0.685 -0.5141  0.1700  0.5235
  403THF     C9 6375   1.356   2.398   0.824  0.4792  0.2526  0.1878
  403THF    H10 6376   1.249   2.381   0.628  1.3635 -0.0160 -1.6791
  403THF    H11 6377   1.270   2.542   0.690 -1.0656  0.0352 -1.1229
  403THF    H12 6378   1.296   2.439   0.905  0.3866  2.0263 -0.7291
  403THF    H13 6379   1.342   2.290   0.815 -1.2408  0.4555  0.0767
  404THF     O1 6380   4.572   1.358   1.824 -0.3657 -0.2286  0.9907
  404THF     C2 6381   4.660   1.375   1.936 -0.0349  0.2764 -0.7035
  404THF     C3 6382   4.562   1.490   1.767  0.5904 -0.7801  0.0273
  404THF     H4 6383   4.698   1.275   1.959  0.5640  0.9663  1.4475
  404THF     H5 6384   4.609   1.404   2.027  2.5074  1.4390  0.4570
  404THF     H6 6385   4.526   1.496   1.664 -0.9559  0.0843  0.5949
  404THF     H7 6386   4.494   1.555   1.822 -0.9714 -2.2701 -0.0651
  404THF     C8 6387   4.706   1.554   1.784  0.3620 -0.1519 -0.0589
  404THF     C9 6388   4.762   1.475   1.900 -0.2326  0.0399 -0.7644
  404THF    H10 6389   4.703   1.660   1.810  1.2623  0.3758 -1.8813
  404THF    H11 6390   4.763   1.544   1.691 -0.2385  2.5277 -0.8172
  404THF    H12 6391   4.847   1.421   1.861  0.0990 -1.4830  1.8117
  404THF    H13 6392   4.795   1.538   1.983  1.6866  0.9330 -2.1466
  405THF     O1 6393   1.085   0.133   4.356 -0.1788 -0.3119 -0.5398
  405THF     C2 6394   1.121   0.076   4.234 -0.0129 -0.4201  0.3359
  405THF     C3 6395   1.205   0.200   4.402  0.4605  0.7324  0.6393
  405THF     H4 6396   1.035   0.051   4.172 -0.1436  1.6945 -0.4161
  405THF     H5 6397   1.182  -0.013   4.253  1.6786  0.8488  1.1448
  405THF     H6 6398   1.175   0.284   4.465 -1.6631  0.1238  0.5429
  405THF     H7 6399   1.247   0.118   4.461 -0.1617 -1.3955 -1.6825
  405THF     C8 6400   1.297   0.232   4.285  0.4041 -0.2332 -0.6539
  405THF     C9 6401   1.215   0.183   4.164 -0.3572  0.8156  0.3216
  405THF    H10 6402   1.388   0.177   4.311 -0.5614 -0.6712  2.1834
  405THF    H11 6403   1.319   0.339   4.283 -1.1805  0.1002 -2.5060
  405THF    H12 6404   1.154   0.257   4.111 -1.2763 -0.4462 -0.4416
  405THF    H13 6405   1.280   0.133   4.093 -0.7013  0.2213  0.4151
  406THF     O1 6406   2.937   2.350   2.474 -0.2862  0.3813  0.1705
  406THF     C2 6407   2.834   2.448   2.451  0.1087  0.3932 -0.0457
  406THF     C3 6408   3.028   2.404   2.573 -0.1881  0.3261  0.7633
  406THF     H4 6409   2.763   2.442   2.533 -0.9430  3.4056 -0.5881
  406THF     H5 6410   2.779   2.433   2.358  0.2894 -0.4167 -0.0226
  406THF     H6 6411   2.972   2.388   2.665  0.0562 -1.6017  0.6135
  406THF     H7 6412   3.122   2.350   2.582 -0.9630 -1.1479  0.2659
  406THF     C8 6413   3.039   2.553   2.528 -0.6076  0.4479 -1.0377
  406THF     C9 6414   2.899   2.586   2.474  0.8489 -0.0771 -0.6128
  406THF    H10 6415   3.115   2.557   2.451  0.4814  3.2825  0.0633
  406THF    H11 6416   3.071   2.616   2.611  0.3819 -0.9989 -0.2779
  406THF    H12 6417   2.840   2.642   2.546 -0.2364  0.5565 -1.9722
  406THF    H13 6418   2.905   2.646   2.384  1.3934 -0.1345 -0.6227
  407THF     O1 6419   2.394   1.031   1.440 -0.5478  0.2498 -0.1009
  407THF     C2 6420   2.300   1.022   1.336  0.2896 -0.1791  0.4031
  407THF     C3 6421   2.462   0.901   1.437 -0.3185 -0.6492 -0.0052
  407THF     H4 6422   2.349   1.019   1.238 -2.1100 -1.5082 -0.8626
  407THF     H5 6423   2.227   1.103   1.342  3.1333  2.4462  1.8280
  407THF     H6 6424   2.538   0.897   1.359 -1.9791 -0.5774 -1.6843
  407THF     H7 6425   2.502   0.895   1.539 -0.2465  0.3689  0.0280
  407THF     C8 6426   2.353   0.804   1.422 -0.4603 -0.2891  0.4644
  407THF     C9 6427   2.244   0.880   1.357  0.0930 -0.3626 -0.3284
  407THF    H10 6428   2.319   0.771   1.521 -0.0116 -0.3042  0.6127
  407THF    H11 6429   2.372   0.711   1.368 -0.6769 -0.0240 -0.0665
  407THF    H12 6430   2.209   0.835   1.264  1.1413  0.0179 -0.9261
  407THF    H13 6431   2.164   0.897   1.428 -0.7821 -1.8140 -0.9392
  408THF     O1 6432   0.894   1.221   3.443  0.2730 -0.1103 -0.2477
  408THF     C2 6433   0.908   1.225   3.306  1.2209 -0.8517  0.3077
  408THF     C3 6434   1.022   1.180   3.504  0.4935  0.2388  0.6842
  408THF     H4 6435   0.846   1.296   3.252  1.8186 -0.9899 -0.5900
  408THF     H5 6436   0.889   1.129   3.258 -1.6512 -0.0299 -0.3595
  408THF     H6 6437   1.055   1.239   3.589 -0.9713 -0.4133  1.7494
  408THF     H7 6438   1.013   1.074   3.527  1.9613 -0.6697 -2.3115
  408THF     C8 6439   1.128   1.200   3.403  0.2823  0.6573 -0.2884
  408THF     C9 6440   1.055   1.258   3.282  0.5816  0.0843 -0.6585
  408THF    H10 6441   1.156   1.098   3.380 -1.8960  0.0398 -0.4296
  408THF    H11 6442   1.220   1.246   3.439  1.0120 -0.3925 -0.7852
  408THF    H12 6443   1.069   1.367   3.282 -0.3196  0.2161 -1.8790
  408THF    H13 6444   1.087   1.213   3.188  0.1804  0.5836 -1.0425
  409THF     O1 6445   0.431   3.124   5.087 -0.4530  0.0279  0.5669
  409THF     C2 6446   0.320   3.027   5.083 -0.3638 -0.1774 -0.1800
  409THF     C3 6447   0.533   3.062   5.159 -0.2423  0.2427  0.0811
  409THF     H4 6448   0.256   3.047   4.997 -0.5798  1.8628  0.3839
  409THF     H5 6449   0.265   3.043   5.176 -0.1194  1.2359 -0.2443
  409THF     H6 6450   0.630   3.103   5.128 -0.3759  0.3588 -0.1913
  409THF     H7 6451   0.537   3.095   5.263 -2.1111  0.6616  0.0515
  409THF     C8 6452   0.520   2.907   5.151 -0.5922 -0.5189 -0.6744
  409THF     C9 6453   0.381   2.886   5.087  0.3207 -0.8272  0.2606
  409THF    H10 6454   0.530   2.864   5.250  3.0987  2.1144  0.3234
  409THF    H11 6455   0.598   2.854   5.096 -0.9277 -1.0850 -0.6016
  409THF    H12 6456   0.389   2.837   4.990  1.7193 -0.0141 -0.0609
  409THF    H13 6457   0.322   2.822   5.153 -0.6435 -0.2759 -0.0477
  410THF     O1 6458   0.555   4.234   4.675  0.2832 -0.2525 -0.6989
  410THF     C2 6459   0.554   4.289   4.542 -0.1240 -0.0073 -0.2208
  410THF     C3 6460   0.631   4.120   4.667  0.2186 -0.1267  0.1551
  410THF     H4 6461   0.570   4.397   4.547  1.9018 -0.3141  0.9886
  410THF     H5 6462   0.456   4.269   4.500  0.4899 -1.0274 -1.2174
  410THF     H6 6463   0.671   4.087   4.762 -1.2942 -0.3211  0.7518
  410THF     H7 6464   0.562   4.042   4.633 -2.3300  1.4751  1.3230
  410THF     C8 6465   0.740   4.155   4.568 -0.5728 -0.7587 -0.2294
  410THF     C9 6466   0.656   4.212   4.460 -0.1266  0.2732  0.1811
  410THF    H10 6467   0.805   4.071   4.543  1.8829  1.2902 -1.1923
  410THF    H11 6468   0.798   4.238   4.608 -1.7872 -1.3659  3.0764
  410THF    H12 6469   0.699   4.280   4.387  1.4156 -1.7610 -0.8951
  410THF    H13 6470   0.610   4.127   4.410  1.0516 -0.8425  0.9358
  411THF     O1 6471   0.347   0.027   2.668 -0.0601 -0.7267 -0.0478
  411THF     C2 6472   0.230   0.088   2.719  0.2164  0.7892  0.3172
  411THF     C3 6473   0.435   0.119   2.612 -0.6465 -0.0938 -0.4788
  411THF     H4 6474   0.239   0.090   2.827 -0.8127  0.4310  0.4244
  411THF     H5 6475   0.139   0.030   2.698  0.4486  0.3981  0.3951
  411THF     H6 6476   0.536   0.094   2.646 -1.6001 -1.5860  1.3930
  411THF     H7 6477   0.430   0.117   2.503 -3.8269 -2.1436 -0.4253
  411THF     C8 6478   0.388   0.244   2.676  0.2201  0.5458 -0.0314
  411THF     C9 6479   0.241   0.220   2.655 -0.1189 -0.0104 -0.5091
  411THF    H10 6480   0.425   0.334   2.627  1.0773 -0.3013 -0.9871
  411THF    H11 6481   0.416   0.248   2.782  0.1373  1.7665 -0.0423
  411THF    H12 6482   0.178   0.296   2.702 -0.1656 -0.6158  0.4461
  411THF    H13 6483   0.210   0.218   2.550 -2.9825 -1.4582  0.2704
  412THF     O1 6484   0.059   1.445   4.735 -0.3122 -0.4464 -0.6134
  412THF     C2 6485   0.085   1.309   4.727  0.0283  0.3776 -0.0108
  412THF     C3 6486   0.045   1.510   4.605 -0.4068  0.8762 -0.3494
  412THF     H4 6487   0.038   1.254   4.809  0.1081  2.3473  1.4222
  412THF     H5 6488   0.192   1.314   4.746  0.4584 -2.7444 -1.0318
  412THF     H6 6489  -0.023   1.596   4.610 -0.8722  0.4323  1.6376
  412THF     H7 6490   0.146   1.540   4.576  0.4423 -1.7791 -0.3794
  412THF     C8 6491  -0.001   1.392   4.523 -0.1823 -0.2015  0.1040
  412THF     C9 6492   0.049   1.265   4.585  0.0860  0.2713 -0.1467
  412THF    H10 6493   0.024   1.401   4.417  2.6026  0.9579  0.7649
  412THF    H11 6494  -0.110   1.384   4.524 -0.1133 -1.2670  0.0335
  412THF    H12 6495  -0.022   1.183   4.589 -1.3497  1.4678 -0.2606
  412THF    H13 6496   0.141   1.229   4.539  1.0588 -0.7351  2.3992
  413THF     O1 6497   1.318   3.769   1.529  0.3018  0.1037  0.4606
  413THF     C2 6498   1.421   3.732   1.610 -0.5939 -0.0918 -0.7137
  413THF     C3 6499   1.381   3.841   1.418 -0.0429  0.1242  0.2708
  413THF     H4 6500   1.379   3.657   1.677  0.5441  1.2687  1.6352
  413THF     H5 6501   1.460   3.824   1.654  0.2920 -0.0463 -1.5419
  413THF     H6 6502   1.329   3.805   1.329  1.7013  0.2851 -0.8612
  413THF     H7 6503   1.374   3.949   1.415  0.3170  0.1502  0.3488
  413THF     C8 6504   1.526   3.789   1.414  0.1348  0.1527  0.2910
  413THF     C9 6505   1.521   3.678   1.512  0.2351 -0.2448 -0.1036
  413THF    H10 6506   1.599   3.864   1.443  1.8546 -1.4475  0.2906
  413THF    H11 6507   1.557   3.743   1.320  2.3430 -1.3686  1.6634
  413THF    H12 6508   1.488   3.591   1.456 -1.3704  1.5477 -2.0863
  413THF    H13 6509   1.616   3.654   1.561  1.3223  0.9191 -1.5581
  414THF     O1 6510   2.880   3.671   5.462 -0.2380  0.2635  0.5686
  414THF     C2 6511   2.876   3.625   5.601  0.2718  0.4216  1.1153
  414THF     C3 6512   2.780   3.772   5.446  0.2622 -0.0780 -0.0664
  414THF     H4 6513   2.968   3.573   5.627  2.2632  3.0418 -0.3122
  414THF     H5 6514   2.784   3.566   5.605 -0.5513  1.6000  0.4095
  414THF     H6 6515   2.789   3.835   5.358  1.8677 -0.4283 -0.1840
  414THF     H7 6516   2.680   3.731   5.435  0.7447 -1.1427 -0.6580
  414THF     C8 6517   2.786   3.849   5.578  0.3549  0.8320  0.1498
  414THF     C9 6518   2.868   3.764   5.670  0.4257  0.4267 -0.9564
  414THF    H10 6519   2.689   3.877   5.618 -0.3977 -0.4990 -0.6637
  414THF    H11 6520   2.847   3.939   5.568  1.7341 -0.2356 -1.7032
  414THF    H12 6521   2.965   3.812   5.671  0.6305  0.1257  2.1716
  414THF    H13 6522   2.838   3.764   5.775  1.8917 -0.6017 -0.5087
  415THF     O1 6523   4.179   1.415   2.060 -0.9764  0.8307  0.0941
  415THF     C2 6524   4.284   1.358   2.143  0.4879 -0.4086 -0.0959
  415THF     C3 6525   4.231   1.385   1.927  0.2636 -0.3458 -0.0320
  415THF     H4 6526   4.253   1.341   2.246 -1.8900  0.6488 -0.5814
  415THF     H5 6527   4.365   1.430   2.154 -0.3681  0.3427  1.7335
  415THF     H6 6528   4.172   1.418   1.841 -1.1940 -2.9436 -0.1356
  415THF     H7 6529   4.322   1.444   1.917  0.4038 -0.2057  1.7374
  415THF     C8 6530   4.257   1.241   1.940 -0.4636 -0.4357  0.1340
  415THF     C9 6531   4.325   1.229   2.080 -1.1466  0.2284 -0.0540
  415THF    H10 6532   4.327   1.215   1.860 -1.4882  1.0369 -1.3046
  415THF    H11 6533   4.163   1.186   1.944 -0.4421 -0.3864  1.7476
  415THF    H12 6534   4.289   1.144   2.137 -0.0343  0.9562  1.8049
  415THF    H13 6535   4.432   1.222   2.061 -0.8502 -2.1491  2.0796
  416THF     O1 6536   0.637   3.495   0.041  0.0633  0.1033 -0.3729
  416THF     C2 6537   0.725   3.602   0.078 -0.1531 -0.4842 -0.8539
  416THF     C3 6538   0.541   3.506   0.145  0.0694  0.4838  0.4942
  416THF     H4 6539   0.797   3.633   0.002 -0.0543  1.9100  0.1158
  416THF     H5 6540   0.790   3.566   0.158 -0.8978 -1.0548 -0.5002
  416THF     H6 6541   0.448   3.464   0.106  0.2648  1.8183 -1.5350
  416THF     H7 6542   0.562   3.445   0.233 -0.5344  1.3810  1.2698
  416THF     C8 6543   0.517   3.652   0.171 -0.3033  0.4296  0.1944
  416THF     C9 6544   0.647   3.716   0.147  0.7468  0.2959 -0.1094
  416THF    H10 6545   0.481   3.676   0.271 -1.0630  1.3210 -0.2785
  416THF    H11 6546   0.438   3.692   0.108 -0.8243 -0.3371  0.3517
  416THF    H12 6547   0.635   3.806   0.088 -0.0040 -0.7653 -1.6419
  416THF    H13 6548   0.694   3.742   0.242 -0.8440 -1.2303  1.1617
  417THF     O1 6549   1.366   0.714   4.296  0.0906  0.3066  0.1449
  417THF     C2 6550   1.504   0.696   4.285 -0.0726  0.1738 -0.0421
  417THF     C3 6551   1.352   0.820   4.390  0.0940 -0.0962 -0.0688
  417THF     H4 6552   1.532   0.635   4.199 -0.5650 -0.4395  0.2271
  417THF     H5 6553   1.533   0.645   4.376  0.9377  1.6306  0.4888
  417THF     H6 6554   1.255   0.868   4.377  0.0595 -0.3109 -0.6244
  417THF     H7 6555   1.376   0.780   4.489  1.2038 -0.4605 -0.4701
  417THF     C8 6556   1.466   0.915   4.347 -0.2311 -0.3807 -0.8083
  417THF     C9 6557   1.566   0.830   4.267 -0.4852 -0.1906 -0.5459
  417THF    H10 6558   1.504   0.958   4.440  2.1954 -0.7550 -1.5650
  417THF    H11 6559   1.439   0.994   4.277  0.1836 -0.8518 -1.5087
  417THF    H12 6560   1.574   0.864   4.164  0.5594 -0.1667 -0.4637
  417THF    H13 6561   1.664   0.832   4.315 -0.5210  0.5694 -0.4883
  418THF     O1 6562   1.780   4.820   2.360  0.0788  0.2831 -0.0308
  418THF     C2 6563   1.663   4.866   2.308  0.6977 -0.0516 -0.0336
  418THF     C3 6564   1.783   4.785   2.499  0.0269 -0.1614 -0.1237
  418THF     H4 6565   1.592   4.785   2.287  0.9148 -1.0315  2.6547
  418THF     H5 6566   1.673   4.935   2.224 -1.7623  1.1955  0.5910
  418THF     H6 6567   1.800   4.680   2.524 -2.1263 -0.5799 -0.1920
  418THF     H7 6568   1.865   4.833   2.553  0.3953 -2.2337  1.2700
  418THF     C8 6569   1.651   4.849   2.547  0.9042  0.4386 -0.4366
  418THF     C9 6570   1.620   4.943   2.438  0.0056  0.1572 -0.2605
  418THF    H10 6571   1.674   4.885   2.648 -0.2117 -0.6287  0.2202
  418THF    H11 6572   1.571   4.776   2.557 -0.8126  2.3618  0.5920
  418THF    H12 6573   1.518   4.979   2.433 -0.3351 -0.8638 -0.7849
  418THF    H13 6574   1.693   5.024   2.444  1.4464 -0.9911 -1.3847
  419THF     O1 6575   3.051   4.228   5.073 -0.0880  0.1682  0.0458
  419THF     C2 6576   3.017   4.330   4.981  0.2477  0.3981 -0.6009
  419THF     C3 6577   3.185   4.242   5.107  0.2751  0.4570  0.2542
  419THF     H4 6578   2.992   4.426   5.024 -2.4127 -0.2738 -0.4728
  419THF     H5 6579   2.933   4.301   4.918  0.7659  0.3678 -1.2931
  419THF     H6 6580   3.196   4.287   5.206  0.4052  2.9365 -0.8170
  419THF     H7 6581   3.215   4.140   5.133 -2.7353 -0.1452  1.8816
  419THF     C8 6582   3.259   4.311   4.988  0.6161 -0.7191 -0.0368
  419THF     C9 6583   3.147   4.339   4.892  0.7386 -0.3460  0.3337
  419THF    H10 6584   3.347   4.264   4.945  1.1243  0.4680 -0.3305
  419THF    H11 6585   3.313   4.398   5.024  0.2269 -0.9517  1.1532
  419THF    H12 6586   3.166   4.437   4.848  0.6715 -1.1472 -1.5609
  419THF    H13 6587   3.162   4.261   4.817  0.8490  0.6129 -0.6673
  420THF     O1 6588   0.925   1.318   4.980 -0.2562 -0.2598 -0.0333
  420THF     C2 6589   0.829   1.288   5.068  0.7828  0.1252 -0.1553
  420THF     C3 6590   1.045   1.251   5.020 -0.7124 -0.3700  0.2548
  420THF     H4 6591   0.728   1.297   5.029  0.2063 -0.0481  1.2448
  420THF     H5 6592   0.830   1.357   5.152 -0.1513 -0.5013  0.3814
  420THF     H6 6593   1.109   1.241   4.932 -0.9582 -0.5561  0.0954
  420THF     H7 6594   1.098   1.300   5.101 -0.1043 -1.9056  0.8229
  420THF     C8 6595   1.001   1.120   5.080  0.8613 -0.3374 -0.0809
  420THF     C9 6596   0.853   1.145   5.121 -0.1131  0.4217  0.1685
  420THF    H10 6597   1.065   1.086   5.162 -0.7432 -0.0583  1.3440
  420THF    H11 6598   1.008   1.028   5.023 -0.3655 -1.1868  1.0680
  420THF    H12 6599   0.784   1.074   5.076 -1.3818  1.8860 -0.2904
  420THF    H13 6600   0.837   1.133   5.228  0.3936 -2.9629 -0.0282
  421THF     O1 6601   2.880   3.630   1.423 -0.1942  0.2975 -0.4275
  421THF     C2 6602   2.983   3.573   1.342  0.1138 -0.4798 -0.3736
  421THF     C3 6603   2.759   3.642   1.345 -0.8466 -0.3491 -0.1705
  421THF     H4 6604   2.988   3.466   1.321  1.4277 -0.3237 -0.9194
  421THF     H5 6605   3.073   3.609   1.391  0.2830 -2.0782  0.5517
  421THF     H6 6606   2.706   3.553   1.310 -0.3108 -0.7147 -0.0656
  421THF     H7 6607   2.688   3.695   1.408 -1.6695 -1.4517 -0.1409
  421THF     C8 6608   2.821   3.728   1.235  0.5631  0.5744  0.1339
  421THF     C9 6609   2.959   3.655   1.212  1.0673 -0.0870 -0.0948
  421THF    H10 6610   2.824   3.832   1.268 -0.8835  1.0368 -1.0969
  421THF    H11 6611   2.761   3.731   1.144  0.9132 -0.1496 -0.1262
  421THF    H12 6612   2.949   3.587   1.128 -2.6001 -0.0986  0.2192
  421THF    H13 6613   3.045   3.716   1.181 -0.2178  1.6535 -0.3996
  422THF     O1 6614   1.741   2.711   1.669  0.0952  0.1556 -0.5910
  422THF     C2 6615   1.851   2.660   1.597  0.0591  0.0588 -0.4840
  422THF     C3 6616   1.765   2.846   1.710  0.4824  0.1537  0.0871
  422THF     H4 6617   1.832   2.577   1.529  1.0806 -1.7709  1.3313
  422THF     H5 6618   1.926   2.620   1.666  1.8882  0.9145 -1.9138
  422THF     H6 6619   1.670   2.886   1.744  0.0458 -0.3586 -0.4945
  422THF     H7 6620   1.837   2.860   1.790  3.1465  1.1563 -2.2884
  422THF     C8 6621   1.825   2.899   1.579  0.4138 -0.3525 -0.0828
  422THF     C9 6622   1.906   2.781   1.526 -0.4090 -0.7152 -0.1674
  422THF    H10 6623   1.876   2.994   1.592 -2.2175  1.0280  1.0837
  422THF    H11 6624   1.740   2.926   1.517 -0.6336 -1.5529  0.7614
  422THF    H12 6625   1.881   2.758   1.422 -0.9025 -0.4108 -0.1210
  422THF    H13 6626   2.010   2.812   1.532 -0.8965  0.9020  0.5231
  423THF     O1 6627   1.817   5.312   4.293  0.0806 -0.3228  0.4343
  423THF     C2 6628   1.710   5.321   4.193 -0.5988 -0.0952 -0.0167
  423THF     C3 6629   1.771   5.355   4.415 -0.2011  0.2621  0.3607
  423THF     H4 6630   1.714   5.242   4.119 -0.2428 -0.3791  0.3022
  423THF     H5 6631   1.720   5.414   4.136  1.2347  0.2729  0.8504
  423THF     H6 6632   1.793   5.285   4.495 -2.8205  1.2728  2.0927
  423THF     H7 6633   1.809   5.456   4.432  0.8702 -0.0685  0.0121
  423THF     C8 6634   1.617   5.368   4.406 -0.7424 -0.5991  0.1744
  423THF     C9 6635   1.583   5.304   4.272 -0.1157  0.4324 -0.2043
  423THF    H10 6636   1.603   5.476   4.403  1.2173 -0.2866  0.8439
  423THF    H11 6637   1.552   5.331   4.485 -1.4444  1.9591  0.9129
  423THF    H12 6638   1.572   5.196   4.287 -0.0652  0.2444 -1.3925
  423THF    H13 6639   1.486   5.331   4.230 -2.4801 -2.1982  3.0143
  424THF     O1 6640   4.470   0.346   2.294  0.2136  0.6169 -0.5199
  424THF     C2 6641   4.396   0.293   2.179 -0.0802  0.2791 -0.0304
  424THF     C3 6642   4.598   0.287   2.299 -0.0278  0.6619 -0.1733
  424THF     H4 6643   4.361   0.380   2.124  0.1003  0.1066 -0.4197
  424THF     H5 6644   4.316   0.229   2.214  0.0894  0.7089  1.1957
  424THF     H6 6645   4.673   0.365   2.282  1.6961 -0.9093  0.0012
  424THF     H7 6646   4.606   0.242   2.398 -2.8368 -0.1315 -0.2241
  424THF     C8 6647   4.602   0.176   2.184 -0.2598 -0.2888 -1.4312
  424THF     C9 6648   4.492   0.219   2.088  0.1812  0.1690  0.6615
  424THF    H10 6649   4.579   0.080   2.231  1.5397  0.0526  0.2499
  424THF    H11 6650   4.701   0.157   2.144  1.0271  0.1400  1.3354
  424THF    H12 6651   4.526   0.290   2.013 -2.5206  0.3615 -0.5055
  424THF    H13 6652   4.444   0.144   2.026  0.2905 -0.3019  1.1412
  425THF     O1 6653   1.580   4.550   0.256  0.4495 -0.0496  0.4686
  425THF     C2 6654   1.689   4.613   0.188  0.7470 -0.7743  0.2858
  425THF     C3 6655   1.567   4.422   0.192 -0.4517 -0.3496  0.1320
  425THF     H4 6656   1.776   4.559   0.228  2.4133  0.9813 -0.7916
  425THF     H5 6657   1.702   4.717   0.219 -1.5645 -0.2536 -0.3205
  425THF     H6 6658   1.638   4.343   0.217 -2.2864 -1.9160  0.6571
  425THF     H7 6659   1.472   4.372   0.210 -0.2768 -0.2567  1.3715
  425THF     C8 6660   1.583   4.452   0.049  0.2181 -0.4911  0.3271
  425THF     C9 6661   1.663   4.584   0.040 -0.0825  0.3745 -0.1032
  425THF    H10 6662   1.485   4.477   0.009  0.2186  1.6995  1.5125
  425THF    H11 6663   1.626   4.375  -0.015 -0.7789 -1.1401  0.4218
  425THF    H12 6664   1.760   4.574  -0.010  0.2265 -0.9399  0.6985
  425THF    H13 6665   1.603   4.666   0.002 -0.2891 -0.2053 -1.0516
  426THF     O1 6666   4.727   1.050   1.373  1.0883 -0.3980  0.3763
  426THF     C2 6667   4.793   1.071   1.496 -1.2553 -0.0113 -1.0056
  426THF     C3 6668   4.586   1.057   1.400 -0.3860 -0.2627  0.0097
  426THF     H4 6669   4.896   1.101   1.482 -1.0863 -0.3908 -0.6140
  426THF     H5 6670   4.800   0.984   1.561 -1.1467  0.3611 -0.5180
  426THF     H6 6671   4.526   1.065   1.310 -0.7228  0.9889  0.3187
  426THF     H7 6672   4.553   0.963   1.446 -0.7285 -0.9515 -1.5705
  426THF     C8 6673   4.583   1.185   1.488 -0.3572 -0.0973  0.2174
  426THF     C9 6674   4.712   1.178   1.564 -0.9598  0.6323 -0.5830
  426THF    H10 6675   4.507   1.193   1.566  1.9575 -0.7770  2.6988
  426THF    H11 6676   4.580   1.268   1.418  0.2124 -2.4546 -2.8323
  426THF    H12 6677   4.770   1.267   1.541  0.1151  0.0276 -0.2738
  426THF    H13 6678   4.704   1.163   1.671  2.7000 -0.2636 -0.2943
  427THF     O1 6679   1.865   1.744   0.595  0.4786  0.3786  0.6079
  427THF     C2 6680   2.005   1.752   0.598 -0.0149 -0.5428 -0.2127
  427THF     C3 6681   1.831   1.613   0.549 -0.0178  0.2526 -0.3361
  427THF     H4 6682   2.050   1.831   0.659 -0.4347  0.1573 -0.8010
  427THF     H5 6683   2.045   1.765   0.498 -0.2905 -1.8582 -0.5108
  427THF     H6 6684   1.728   1.594   0.577 -0.0413  1.7295  0.7419
  427THF     H7 6685   1.823   1.625   0.441 -0.0260  2.0386 -0.1753
  427THF     C8 6686   1.934   1.516   0.595 -0.0366 -0.5179 -0.4534
  427THF     C9 6687   2.040   1.609   0.648 -0.5063 -0.3831  0.2920
  427THF    H10 6688   1.969   1.451   0.514  2.0740 -2.8466  2.1282
  427THF    H11 6689   1.889   1.463   0.679 -0.1082  1.0843  0.5490
  427THF    H12 6690   2.048   1.618   0.756  2.9298 -1.2590  0.2198
  427THF    H13 6691   2.141   1.579   0.618 -0.1288 -0.0629  1.1973
  428THF     O1 6692   2.942   1.372   1.227 -0.0761 -0.4025 -0.2884
  428THF     C2 6693   3.062   1.441   1.196  0.0254  0.5273 -0.5056
  428THF     C3 6694   2.920   1.277   1.122  0.6595 -0.0177 -0.0510
  428THF     H4 6695   3.099   1.481   1.290  0.8691  1.1757 -1.0934
  428THF     H5 6696   3.051   1.519   1.121 -2.2282 -0.7931 -1.6798
  428THF     H6 6697   2.893   1.177   1.158  0.6480 -0.5732 -1.5311
  428THF     H7 6698   2.840   1.315   1.058 -1.6964  0.0579  2.7431
  428THF     C8 6699   3.060   1.266   1.055  0.3408 -0.2511  0.3889
  428THF     C9 6700   3.160   1.334   1.144 -0.6018  0.0263 -0.1796
  428THF    H10 6701   3.050   1.321   0.962 -1.7859  2.1569  1.8936
  428THF    H11 6702   3.081   1.163   1.026  1.6707  0.6425 -2.0840
  428THF    H12 6703   3.196   1.260   1.217  0.9940 -1.0807 -1.9822
  428THF    H13 6704   3.249   1.369   1.092 -0.0551 -1.9632 -0.6771
  429THF     O1 6705   5.254   5.239   5.316 -0.1314  0.1143 -0.2711
  429THF     C2 6706   5.132   5.184   5.274  0.0693 -0.0375 -0.0976
  429THF     C3 6707   5.362   5.158   5.262  1.2652  0.0517 -0.5971
  429THF     H4 6708   5.051   5.256   5.289  0.6189  0.4469  0.6064
  429THF     H5 6709   5.108   5.103   5.343 -1.3797  0.8651  0.5189
  429THF     H6 6710   5.451   5.221   5.256 -0.1756  2.2815  0.1899
  429THF     H7 6711   5.378   5.073   5.329 -1.5281 -0.6914 -0.7390
  429THF     C8 6712   5.308   5.110   5.128  0.0071  0.7152 -0.7543
  429THF     C9 6713   5.164   5.149   5.125 -0.2918 -0.1210  0.0269
  429THF    H10 6714   5.334   5.004   5.117  0.1679  0.7350 -0.5691
  429THF    H11 6715   5.363   5.145   5.041  2.2596 -2.7613 -0.9582
  429THF    H12 6716   5.150   5.246   5.077  0.0903  0.2708  0.6909
  429THF    H13 6717   5.097   5.071   5.090 -0.9332  0.7814 -0.8160
  430THF     O1 6718   0.839   3.689   1.715 -0.4611 -0.1138  0.5000
  430THF     C2 6719   0.963   3.710   1.778  0.0759  0.7643  0.3057
  430THF     C3 6720   0.782   3.567   1.754 -0.6431  0.1544  0.2342
  430THF     H4 6721   1.002   3.811   1.776  3.0866 -0.2362 -2.9194
  430THF     H5 6722   1.039   3.640   1.743  0.2379  1.6335 -1.1453
  430THF     H6 6723   0.675   3.559   1.731 -0.8260 -0.4332  1.2224
  430THF     H7 6724   0.851   3.498   1.705  0.1315 -1.1240  2.9376
  430THF     C8 6725   0.802   3.568   1.904  0.0378 -0.4379 -0.4094
  430THF     C9 6726   0.918   3.668   1.919 -0.1713 -0.2838  0.5388
  430THF    H10 6727   0.835   3.470   1.941 -2.8111 -1.8328 -1.2295
  430THF    H11 6728   0.716   3.619   1.947  1.2199  3.0925 -1.9235
  430THF    H12 6729   0.890   3.756   1.977 -1.2189 -0.4297  0.2711
  430THF    H13 6730   0.998   3.621   1.977 -0.9020 -0.7394  1.2050
  431THF     O1 6731   1.798   3.481   4.469  0.1026  0.3582 -0.3216
  431THF     C2 6732   1.920   3.519   4.536  0.2366  0.3645  0.0445
  431THF     C3 6733   1.738   3.379   4.546  0.3397 -0.1838  0.0358
  431THF     H4 6734   1.912   3.621   4.572 -2.0352  0.0358  0.6548
  431THF     H5 6735   2.001   3.507   4.464 -0.5134 -0.1042 -0.7630
  431THF     H6 6736   1.676   3.429   4.620  2.9297  1.2648  1.3526
  431THF     H7 6737   1.689   3.316   4.471  1.6307  0.9098 -1.8031
  431THF     C8 6738   1.843   3.306   4.623 -0.2394  0.1495 -0.2738
  431THF     C9 6739   1.933   3.423   4.648  0.0744 -0.5244 -0.7167
  431THF    H10 6740   1.907   3.241   4.562 -1.3151 -1.7284  0.5114
  431THF    H11 6741   1.806   3.252   4.710  2.4478 -0.4088  0.6209
  431THF    H12 6742   1.891   3.481   4.730 -0.5554  0.5202 -1.7557
  431THF    H13 6743   2.031   3.393   4.687 -0.4602 -0.4332  0.7464
  432THF     O1 6744   2.422   4.127   2.294  0.4255  0.3449 -0.1507
  432THF     C2 6745   2.486   4.082   2.411 -0.1165 -0.3030 -0.0823
  432THF     C3 6746   2.348   4.237   2.342 -0.1971  0.1230 -0.4795
  432THF     H4 6747   2.576   4.029   2.380  0.9591  1.4506 -0.0843
  432THF     H5 6748   2.417   4.024   2.472  1.0227 -1.5001  0.1179
  432THF     H6 6749   2.321   4.307   2.262  3.7742  0.5856 -1.6404
  432THF     H7 6750   2.264   4.212   2.406 -0.5218 -1.2073 -1.3964
  432THF     C8 6751   2.444   4.315   2.432  0.7235 -0.1443 -0.0348
  432THF     C9 6752   2.536   4.211   2.476 -0.5657  0.5064 -0.0062
  432THF    H10 6753   2.400   4.371   2.515 -1.0908 -1.7986  0.1912
  432THF    H11 6754   2.494   4.383   2.363 -0.5607  0.3966 -0.4536
  432THF    H12 6755   2.632   4.231   2.428 -1.5016 -0.5051 -2.4582
  432THF    H13 6756   2.548   4.210   2.584  1.6170  0.0288 -0.2149
  433THF     O1 6757   3.988   2.912   3.229 -0.6515  0.1606  0.1273
  433THF     C2 6758   4.055   2.804   3.299 -0.6217 -0.7603 -0.1047
  433THF     C3 6759   3.859   2.859   3.197 -0.2676  0.3572  0.3933
  433THF     H4 6760   4.080   2.837   3.399  0.1787  0.5302 -0.7063
  433THF     H5 6761   4.152   2.773   3.260  0.0064 -0.5559  1.2622
  433THF     H6 6762   3.785   2.883   3.274 -0.8923  2.7429 -0.8497
  433THF     H7 6763   3.832   2.896   3.098  1.9344  0.2195 -0.2915
  433THF     C8 6764   3.861   2.708   3.196 -0.3651 -0.5573 -0.0359
  433THF     C9 6765   3.963   2.675   3.299 -0.0136  0.9902 -0.9034
  433THF    H10 6766   3.897   2.677   3.098  0.4395  0.2688 -0.0282
  433THF    H11 6767   3.762   2.666   3.211 -0.3350 -0.0608  1.7946
  433THF    H12 6768   3.923   2.657   3.398 -0.1642  0.0193 -1.1360
  433THF    H13 6769   4.013   2.580   3.281 -2.2681 -0.7904  1.4778
  434THF     O1 6770   2.785   0.623   0.087 -0.3308  0.0344 -0.1780
  434THF     C2 6771   2.815   0.715   0.196  0.2749 -0.8658 -1.0215
  434THF     C3 6772   2.677   0.547   0.141 -0.0495 -0.4134 -0.6796
  434THF     H4 6773   2.752   0.804   0.203  2.6901  0.9659 -1.3415
  434THF     H5 6774   2.913   0.757   0.175  0.5433 -1.2472 -0.5472
  434THF     H6 6775   2.588   0.610   0.139 -0.8811 -1.2782  2.7952
  434THF     H7 6776   2.671   0.457   0.079 -3.3102 -0.4971 -0.3772
  434THF     C8 6777   2.731   0.509   0.282  0.1249 -0.1490 -0.3652
  434THF     C9 6778   2.810   0.627   0.319  0.0434 -0.5676  0.5711
  434THF    H10 6779   2.786   0.416   0.267 -0.6631 -0.6233 -0.3917
  434THF    H11 6780   2.665   0.477   0.362  0.9489 -1.1295 -0.0540
  434THF    H12 6781   2.769   0.684   0.402  1.1328 -0.5460  1.1151
  434THF    H13 6782   2.910   0.593   0.347  0.0377 -0.4485  0.7366
  435THF     O1 6783   1.810   1.868   0.079  0.0824 -0.0575 -0.7031
  435THF     C2 6784   1.786   1.796   0.197 -0.0008 -0.7508  0.2821
  435THF     C3 6785   1.777   1.779  -0.029  0.0739 -0.2343 -0.8944
  435THF     H4 6786   1.787   1.867   0.280  1.0872 -0.7367  0.2798
  435THF     H5 6787   1.872   1.730   0.212 -0.7330 -1.4436  1.6492
  435THF     H6 6788   1.769   1.844  -0.117  0.5119  0.7451 -0.2281
  435THF     H7 6789   1.855   1.703  -0.036  1.3038  0.7503  1.1734
  435THF     C8 6790   1.653   1.712   0.018 -0.4575  0.6458  0.1536
  435THF     C9 6791   1.661   1.720   0.170  0.0900 -0.5181  1.1149
  435THF    H10 6792   1.658   1.607  -0.012  2.6557  1.1026 -1.3154
  435THF    H11 6793   1.572   1.761  -0.035  0.4831 -0.1753 -2.2180
  435THF    H12 6794   1.577   1.761   0.226  0.8731  0.1404  1.8446
  435THF    H13 6795   1.665   1.621   0.217 -0.0452 -1.0932 -0.0544
  436THF     O1 6796   0.384   3.625   1.715 -0.4017  0.2374 -0.2777
  436THF     C2 6797   0.369   3.724   1.817 -0.0029  0.0108 -0.1524
  436THF     C3 6798   0.436   3.704   1.604  0.2504 -0.7506  0.7579
  436THF     H4 6799   0.350   3.682   1.916 -2.0830  1.4947  0.1563
  436THF     H5 6800   0.293   3.799   1.796  0.1737  0.3085  0.2587
  436THF     H6 6801   0.511   3.650   1.546  1.3589  1.6693 -0.2111
  436THF     H7 6802   0.360   3.739   1.533  1.3725  0.0087 -0.0953
  436THF     C8 6803   0.514   3.816   1.664  0.7222  0.0621  0.3570
  436THF     C9 6804   0.490   3.805   1.813 -0.7809 -0.7747 -0.3243
  436THF    H10 6805   0.478   3.910   1.622  1.0953 -0.8392 -2.1106
  436THF    H11 6806   0.618   3.809   1.634  0.4767 -0.6663 -0.3513
  436THF    H12 6807   0.577   3.761   1.863  0.3433  0.8094 -0.8092
  436THF    H13 6808   0.490   3.896   1.873 -0.3224 -1.2375  0.4024
  437THF     O1 6809   5.302   4.801   4.651  0.0721  0.0603 -0.5070
  437THF     C2 6810   5.163   4.836   4.641 -0.0995 -0.2912  0.1758
  437THF     C3 6811   5.343   4.755   4.527 -0.2794  0.0808  0.9378
  437THF     H4 6812   5.132   4.904   4.720 -1.2507 -0.6935  0.1011
  437THF     H5 6813   5.102   4.746   4.651 -0.5006 -0.0788 -0.2902
  437THF     H6 6814   5.446   4.790   4.523 -0.8795  1.8989 -1.7194
  437THF     H7 6815   5.345   4.647   4.511  2.1115  0.1655  0.2148
  437THF     C8 6816   5.256   4.826   4.421  0.6433  0.5708  0.0899
  437THF     C9 6817   5.147   4.898   4.502 -0.2801 -0.1107 -0.4243
  437THF    H10 6818   5.227   4.749   4.349 -0.4745  0.1435  0.9774
  437THF    H11 6819   5.314   4.889   4.354  1.3191 -0.0355  0.0866
  437THF    H12 6820   5.165   5.005   4.512 -0.5184  0.2496 -3.1292
  437THF    H13 6821   5.051   4.877   4.455  0.1780  1.1742 -1.9955
  438THF     O1 6822   2.414   1.041   3.197  0.3980  0.3715 -0.1085
  438THF     C2 6823   2.546   1.056   3.230 -0.0375  0.4107 -0.3448
  438THF     C3 6824   2.399   0.921   3.122 -0.2014 -0.2437 -0.0203
  438THF     H4 6825   2.563   1.008   3.326 -1.4651 -1.1916 -0.8498
  438THF     H5 6826   2.568   1.162   3.244 -0.6536  0.5905 -0.6787
  438THF     H6 6827   2.335   0.843   3.163  1.7679 -1.0213  1.7227
  438THF     H7 6828   2.353   0.950   3.027  2.6803  2.2388 -0.8225
  438THF     C8 6829   2.542   0.863   3.089 -0.2971 -0.4774 -0.1910
  438THF     C9 6830   2.627   0.975   3.132  0.2958  0.6835  0.3896
  438THF    H10 6831   2.549   0.827   2.986  0.1525 -1.1221  0.0549
  438THF    H11 6832   2.570   0.778   3.151  0.6624  0.1726  0.3018
  438THF    H12 6833   2.722   0.948   3.178  0.4130 -1.2124 -0.8517
  438THF    H13 6834   2.648   1.040   3.047 -1.1539  0.6678 -0.0056
  439THF     O1 6835   3.980   2.698   3.651  0.3002  0.4687 -0.4443
  439THF     C2 6836   3.937   2.836   3.648  0.7984 -0.3500 -0.1267
  439THF     C3 6837   3.950   2.633   3.776 -0.1830  0.1119  0.2734
  439THF     H4 6838   3.875   2.847   3.559 -1.5946 -2.6694  1.1149
  439THF     H5 6839   4.020   2.906   3.659 -0.2384  0.8487  0.3831
  439THF     H6 6840   3.873   2.556   3.759  0.7692 -0.9792  0.7510
  439THF     H7 6841   4.035   2.578   3.815 -0.9748 -0.7039  0.9037
  439THF     C8 6842   3.910   2.745   3.865 -0.1450 -0.4620  0.1805
  439THF     C9 6843   3.848   2.852   3.773  0.5895 -0.3463  0.4709
  439THF    H10 6844   3.997   2.796   3.907 -0.7435  0.2824  0.5549
  439THF    H11 6845   3.836   2.722   3.942 -0.2290  0.2688  0.3228
  439THF    H12 6846   3.746   2.821   3.750  0.4999 -0.4703  1.0415
  439THF    H13 6847   3.847   2.951   3.819 -1.6425 -0.0617 -0.0541
  440THF     O1 6848   1.060   2.085   1.235  0.1914  1.3331  0.1943
  440THF     C2 6849   1.033   2.053   1.098 -0.4229 -0.3922  0.1796
  440THF     C3 6850   1.150   2.185   1.263  0.2651  0.4589  0.2520
  440THF     H4 6851   0.927   2.054   1.072 -0.1897 -1.4176 -0.8867
  440THF     H5 6852   1.077   1.956   1.075  0.0790  0.0227 -0.6318
  440THF     H6 6853   1.100   2.281   1.279  0.0073  0.0416  2.1642
  440THF     H7 6854   1.207   2.158   1.351  0.7964  2.2831  0.5131
  440THF     C8 6855   1.227   2.195   1.131  0.0198  0.1938  0.6388
  440THF     C9 6856   1.119   2.159   1.022 -0.0953 -0.7198  0.1941
  440THF    H10 6857   1.302   2.117   1.140  0.1957  0.2460 -0.2845
  440THF    H11 6858   1.268   2.296   1.120  0.9675 -0.1516  0.9597
  440THF    H12 6859   1.064   2.247   0.989 -0.7880 -1.9114 -1.9631
  440THF    H13 6860   1.160   2.138   0.924 -0.9403  0.3582 -0.4065
  441THF     O1 6861   4.204   4.887   3.425 -0.2635  0.2109  0.6483
  441THF     C2 6862   4.290   4.995   3.410 -0.6228  0.0390  0.3099
  441THF     C3 6863   4.278   4.782   3.486  0.3820  0.3502 -0.0366
  441THF     H4 6864   4.295   5.052   3.503 -0.1227  1.2841 -0.4503
  441THF     H5 6865   4.260   5.062   3.330 -1.0974 -1.4850 -0.8256
  441THF     H6 6866   4.285   4.798   3.594 -1.2270  0.4010  0.0925
  441THF     H7 6867   4.236   4.682   3.476  1.3614 -0.0689 -0.0136
  441THF     C8 6868   4.408   4.792   3.422 -0.2247  0.1643  0.5064
  441THF     C9 6869   4.415   4.925   3.354 -0.3899  0.3248 -0.0597
  441THF    H10 6870   4.413   4.717   3.343  0.7114  0.6896  0.0588
  441THF    H11 6871   4.495   4.763   3.483  0.5111  2.6458  0.7553
  441THF    H12 6872   4.509   4.980   3.360 -0.0282 -0.2157 -0.6667
  441THF    H13 6873   4.394   4.912   3.248 -1.7643  2.1710 -0.0521
  442THF     O1 6874   2.028   3.438   5.149 -0.1872  0.3784  0.0405
  442THF     C2 6875   2.106   3.384   5.038  0.1660  0.2513 -0.0610
  442THF     C3 6876   2.083   3.383   5.265 -0.3772 -0.4271  0.0976
  442THF     H4 6877   2.104   3.449   4.951  1.8846  0.5169  0.0644
  442THF     H5 6878   2.051   3.295   5.009 -0.6684  0.6076  0.3801
  442THF     H6 6879   2.138   3.464   5.313  1.2337 -0.9664 -0.7914
  442THF     H7 6880   2.010   3.357   5.342 -0.3674  0.0453  0.2723
  442THF     C8 6881   2.190   3.277   5.221  0.1482 -0.7024 -0.0224
  442THF     C9 6882   2.240   3.348   5.092 -0.4961  1.8120 -0.6204
  442THF    H10 6883   2.141   3.183   5.198 -1.7935  0.5756 -1.4621
  442THF    H11 6884   2.270   3.275   5.295 -0.9646  1.1350  1.3327
  442THF    H12 6885   2.301   3.434   5.118  1.7504 -0.2363  1.3056
  442THF    H13 6886   2.299   3.277   5.035 -0.9233  0.8565  0.0948
  443THF     O1 6887   2.197   4.476   1.030 -0.1765 -0.0547  0.2933
  443THF     C2 6888   2.086   4.386   1.022  0.6319 -0.2301  0.4194
  443THF     C3 6889   2.291   4.431   1.131 -0.4670  0.2791  0.1596
  443THF     H4 6890   2.031   4.392   0.929  0.2512  0.1089  0.6638
  443THF     H5 6891   2.018   4.390   1.107 -0.5479 -2.6656 -0.3178
  443THF     H6 6892   2.389   4.461   1.096  0.3812  2.0781  3.6742
  443THF     H7 6893   2.296   4.480   1.228  3.2071 -0.2741  0.3928
  443THF     C8 6894   2.265   4.280   1.144 -0.4851 -0.1203 -0.1241
  443THF     C9 6895   2.163   4.252   1.030  0.6777 -0.3084 -0.1847
  443THF    H10 6896   2.213   4.236   1.230 -2.7996  1.5718 -0.5759
  443THF    H11 6897   2.359   4.224   1.147 -1.7739 -2.4736 -1.0394
  443THF    H12 6898   2.215   4.227   0.938  0.2288 -0.8040 -0.3111
  443THF    H13 6899   2.097   4.172   1.065  2.0662 -1.2297  0.4133
  444THF     O1 6900   2.869   4.951   4.553 -0.0570  0.0024  0.1466
  444THF     C2 6901   2.769   4.979   4.657 -0.1925 -0.3305 -0.4136
  444THF     C3 6902   2.816   4.995   4.429  0.1399  0.3389  0.3126
  444THF     H4 6903   2.787   5.081   4.692  1.8898 -0.4946 -0.8870
  444THF     H5 6904   2.781   4.933   4.754  1.1809  0.0240 -0.4014
  444THF     H6 6905   2.822   5.103   4.424  0.8993  0.5253  3.4316
  444THF     H7 6906   2.869   4.945   4.347 -0.8614 -2.2162  1.1236
  444THF     C8 6907   2.665   4.958   4.442  0.8046 -0.7153 -0.2374
  444THF     C9 6908   2.636   4.950   4.590  0.1228  0.3352  0.2867
  444THF    H10 6909   2.653   4.852   4.418  1.5535 -1.1845  1.3598
  444THF    H11 6910   2.600   5.026   4.387 -1.4649 -0.6731  2.2989
  444THF    H12 6911   2.548   5.003   4.626  0.1540  0.4031  0.2626
  444THF    H13 6912   2.605   4.851   4.622 -0.3383  0.1939 -0.5817
  445THF     O1 6913   2.103   2.939   1.870  0.9561  0.0614 -0.1606
  445THF     C2 6914   2.234   2.916   1.913  1.3458  0.1267 -0.0350
  445THF     C3 6915   2.090   3.069   1.809 -0.2218 -0.1765  0.6191
  445THF     H4 6916   2.282   2.843   1.847  2.6139 -0.3462  1.3696
  445THF     H5 6917   2.228   2.881   2.016  2.5134  1.6884  0.5913
  445THF     H6 6918   2.067   3.076   1.703 -0.6180 -0.6923  0.6702
  445THF     H7 6919   2.022   3.138   1.859 -0.4463  1.4979 -1.8466
  445THF     C8 6920   2.232   3.122   1.802 -0.1098  0.0810 -0.7173
  445THF     C9 6921   2.300   3.053   1.917  0.1605 -0.2169  0.0779
  445THF    H10 6922   2.229   3.231   1.812  1.4054  0.0915  0.0334
  445THF    H11 6923   2.276   3.095   1.705 -0.5083 -0.2086 -0.8180
  445THF    H12 6924   2.408   3.040   1.907 -0.1472 -2.5314 -0.9312
  445THF    H13 6925   2.266   3.106   2.006  0.7602 -0.0995  0.2381
  446THF     O1 6926   0.656   2.236   3.230 -0.1111  0.6278 -0.4416
  446THF     C2 6927   0.511   2.216   3.242 -0.8184 -0.9303  0.3267
  446THF     C3 6928   0.708   2.127   3.155 -0.1074 -0.4191 -0.0024
  446THF     H4 6929   0.467   2.301   3.191  0.0601 -0.2847  0.6196
  446THF     H5 6930   0.471   2.233   3.342 -0.2204  3.4723  0.0237
  446THF     H6 6931   0.776   2.166   3.079  0.7805  1.5555  1.7143
  446THF     H7 6932   0.763   2.062   3.223  0.0254 -0.4368 -0.1253
  446THF     C8 6933   0.601   2.050   3.087  0.1343  0.4436  0.2400
  446THF     C9 6934   0.482   2.074   3.186 -0.2661 -0.4652 -0.2332
  446THF    H10 6935   0.631   1.946   3.076  1.8999  0.9222  0.3080
  446THF    H11 6936   0.581   2.090   2.988  2.7136 -1.7809 -1.3118
  446THF    H12 6937   0.389   2.060   3.132  0.3969  0.6559 -1.7339
  446THF    H13 6938   0.482   1.996   3.262 -1.4308  1.3315  1.7382
  447THF     O1 6939   1.728   0.175   1.668  0.6469 -0.0693  0.5685
  447THF     C2 6940   1.619   0.228   1.595  0.4180 -0.2286 -0.2353
  447THF     C3 6941   1.817   0.114   1.579 -0.0698 -0.0679 -0.7602
  447THF     H4 6942   1.625   0.336   1.608  1.2066 -0.2728 -0.1824
  447THF     H5 6943   1.520   0.198   1.632  0.5709  0.0883  0.4477
  447THF     H6 6944   1.920   0.126   1.613 -0.3993  1.0314 -0.0990
  447THF     H7 6945   1.803   0.006   1.575  2.7197 -0.6218  1.1605
  447THF     C8 6946   1.787   0.184   1.445  1.0126  0.0085 -0.1810
  447THF     C9 6947   1.640   0.199   1.442  0.2330 -0.3042 -0.6892
  447THF    H10 6948   1.811   0.117   1.362  0.1489  1.0640 -1.3160
  447THF    H11 6949   1.835   0.280   1.424  0.1002  0.2798 -1.1199
  447THF    H12 6950   1.617   0.286   1.381  0.6577  0.8050  0.6625
  447THF    H13 6951   1.580   0.114   1.410 -1.1120 -0.0141  0.9173
  448THF     O1 6952   5.302   0.131   5.198  0.1317  0.2170  0.6886
  448THF     C2 6953   5.345   0.034   5.098  0.3506 -0.0944  0.6790
  448THF     C3 6954   5.409   0.127   5.289  0.3059  0.5483 -0.0520
  448THF     H4 6955   5.283   0.031   5.009  0.7407  1.1213  0.3516
  448THF     H5 6956   5.338  -0.069   5.134  0.4267 -0.5674 -0.6015
  448THF     H6 6957   5.414   0.203   5.367 -3.2780  0.4104  0.4970
  448THF     H7 6958   5.406   0.036   5.349  1.5060  1.0052  0.7465
  448THF     C8 6959   5.535   0.117   5.207 -0.6424  0.2083  0.4044
  448THF     C9 6960   5.482   0.086   5.068 -0.0324 -0.2262  0.4850
  448THF    H10 6961   5.598   0.030   5.229 -1.0610  0.4087  2.6326
  448THF    H11 6962   5.608   0.198   5.204  0.5371 -0.8259  0.3201
  448THF    H12 6963   5.471   0.177   5.009  1.9573 -0.8012 -0.8603
  448THF    H13 6964   5.544   0.015   5.014  0.9917  1.3897 -0.5700
  449THF     O1 6965   5.141   5.096   3.675 -0.0561 -0.1961 -0.1660
  449THF     C2 6966   5.229   5.190   3.612  0.1103  0.0389  0.2614
  449THF     C3 6967   5.014   5.149   3.697 -0.1735 -0.5624 -0.4249
  449THF     H4 6968   5.273   5.146   3.522 -1.7279 -0.2601 -0.5292
  449THF     H5 6969   5.321   5.202   3.669  0.9614 -2.3579 -0.4986
  449THF     H6 6970   4.934   5.119   3.631  0.4263  0.6915 -1.7799
  449THF     H7 6971   4.994   5.117   3.799  2.0065  1.7641  0.8692
  449THF     C8 6972   5.026   5.301   3.689 -0.1857 -0.3788 -0.5935
  449THF     C9 6973   5.143   5.311   3.580 -0.0585 -0.0232  0.3089
  449THF    H10 6974   5.053   5.356   3.780 -0.7960  0.0700 -0.6694
  449THF    H11 6975   4.940   5.365   3.667  1.1812  2.5359  1.7472
  449THF    H12 6976   5.099   5.303   3.481  0.5011  0.0578  0.0491
  449THF    H13 6977   5.195   5.407   3.585 -1.9256  1.0668 -0.3405
  450THF     O1 6978   1.321   2.978   2.502 -0.9652 -0.6020  0.1057
  450THF     C2 6979   1.229   3.090   2.509 -0.1172 -0.2335 -0.1371
  450THF     C3 6980   1.380   2.990   2.373  0.6286  0.1269  0.7291
  450THF     H4 6981   1.270   3.190   2.521 -0.0961 -0.1042 -1.1945
  450THF     H5 6982   1.154   3.085   2.589 -0.9362  0.0148 -0.8703
  450THF     H6 6983   1.436   3.081   2.353 -0.1913  0.2212 -1.3170
  450THF     H7 6984   1.442   2.905   2.345 -1.3273 -0.3870 -2.5508
  450THF     C8 6985   1.258   3.008   2.285 -0.6638  0.0805  0.3959
  450THF     C9 6986   1.157   3.080   2.373 -0.9299  0.1404  0.0441
  450THF    H10 6987   1.229   2.907   2.256 -1.1128  0.7704 -1.7358
  450THF    H11 6988   1.283   3.071   2.200 -0.8225 -0.0846  0.2249
  450THF    H12 6989   1.129   3.180   2.339  0.3919  0.0451 -1.4319
  450THF    H13 6990   1.068   3.018   2.386 -0.1872 -0.7022  1.3855
  451THF     O1 6991   4.316   4.478   4.618 -0.1403 -0.1982  0.1664
  451THF     C2 6992   4.258   4.426   4.502 -0.3671  0.1239 -0.2276
  451THF     C3 6993   4.209   4.530   4.703 -0.2435 -0.0232 -0.7669
  451THF     H4 6994   4.227   4.325   4.530  2.0219 -1.4488 -2.7843
  451THF     H5 6995   4.342   4.423   4.433  1.2796  0.0654  1.6676
  451THF     H6 6996   4.195   4.446   4.771  0.2491 -1.1796 -2.0493
  451THF     H7 6997   4.235   4.620   4.760  0.1332  0.3040 -1.4394
  451THF     C8 6998   4.088   4.553   4.605 -0.5365 -0.1485 -0.1008
  451THF     C9 6999   4.143   4.517   4.464  0.0241 -0.0299  0.4163
  451THF    H10 7000   4.043   4.652   4.592 -0.3870 -0.2762 -1.8593
  451THF    H11 7001   4.012   4.484   4.640 -0.0861 -1.3471 -1.3807
  451THF    H12 7002   4.068   4.457   4.413  0.2868 -1.7334  1.9140
  451THF    H13 7003   4.172   4.612   4.418  2.5027  0.9401  3.5864
  452THF     O1 7004   0.347   4.485   4.711  0.2423  0.0742  0.1527
  452THF     C2 7005   0.228   4.462   4.644  0.7171 -0.3608 -0.6077
  452THF     C3 7006   0.356   4.624   4.734  0.3816 -0.1607 -0.0825
  452THF     H4 7007   0.194   4.361   4.668 -0.9712  0.2940 -0.0795
  452THF     H5 7008   0.225   4.480   4.536  1.0368  2.3781 -0.2429
  452THF     H6 7009   0.408   4.640   4.829  0.4060 -0.0625 -0.1129
  452THF     H7 7010   0.421   4.666   4.657 -0.7934 -1.0931 -1.6352
  452THF     C8 7011   0.217   4.681   4.732 -0.7196 -0.3287 -0.0030
  452THF     C9 7012   0.133   4.560   4.692  0.3937 -0.4283  0.3457
  452THF    H10 7013   0.210   4.769   4.667  0.1898  0.6769  1.2203
  452THF    H11 7014   0.196   4.713   4.834  0.9536 -2.0711  0.9375
  452THF    H12 7015   0.066   4.511   4.763  0.1747 -0.4269  0.1403
  452THF    H13 7016   0.065   4.585   4.611  1.0403 -0.9585 -0.3660
  453THF     O1 7017   2.414   1.575   4.841  0.2652 -0.1262  0.1511
  453THF     C2 7018   2.400   1.678   4.941 -0.0549  0.0735  0.4573
  453THF     C3 7019   2.389   1.636   4.714  0.4723 -0.1180 -0.2256
  453THF     H4 7020   2.468   1.653   5.023  0.3345 -0.0410  0.1050
  453THF     H5 7021   2.297   1.687   4.975  0.0299  1.1526  0.4534
  453THF     H6 7022   2.423   1.593   4.620 -0.2702 -1.5342  0.1199
  453THF     H7 7023   2.281   1.645   4.700  0.2118 -2.3672 -0.0210
  453THF     C8 7024   2.459   1.769   4.726  0.1264 -0.6080  0.4139
  453THF     C9 7025   2.439   1.809   4.873 -0.5052  0.5124  0.0693
  453THF    H10 7026   2.421   1.842   4.655  1.0238 -2.1481 -1.7576
  453THF    H11 7027   2.567   1.766   4.710  0.0992  3.4605 -1.9851
  453THF    H12 7028   2.533   1.847   4.913  0.2374 -0.7322 -0.4407
  453THF    H13 7029   2.358   1.882   4.885 -0.3755  0.5511  0.7382
  454THF     O1 7030   2.530   2.642   3.158 -0.2264  1.1776  0.0799
  454THF     C2 7031   2.630   2.745   3.134 -0.2508  0.5386  0.2640
  454THF     C3 7032   2.550   2.574   3.278 -0.0093  0.1336  0.4267
  454THF     H4 7033   2.571   2.830   3.099 -0.4742  0.2899  0.0304
  454THF     H5 7034   2.706   2.707   3.065 -1.3492 -0.0957 -0.6286
  454THF     H6 7035   2.456   2.556   3.331 -1.4234  4.3399 -0.2893
  454THF     H7 7036   2.603   2.480   3.260  1.0923  1.2451 -2.6576
  454THF     C8 7037   2.631   2.672   3.358  0.0587 -0.1811 -0.4272
  454THF     C9 7038   2.689   2.775   3.267 -0.1992 -0.2476  0.9808
  454THF    H10 7039   2.717   2.629   3.409 -0.6960 -0.2624  0.7968
  454THF    H11 7040   2.573   2.720   3.437  0.1119  1.1079 -1.1354
  454THF    H12 7041   2.678   2.877   3.303 -1.0179 -0.1081  0.3660
  454THF    H13 7042   2.798   2.783   3.267 -0.3090  1.9151 -0.0327
  455THF     O1 7043   3.376   3.875   4.274  0.5205  0.0661 -0.4641
  455THF     C2 7044   3.476   3.974   4.297 -0.0571  0.2583  0.3421
  455THF     C3 7045   3.347   3.858   4.136 -0.5024  0.6079 -0.7092
  455THF     H4 7046   3.526   3.974   4.394  0.0401  1.2377  0.2985
  455THF     H5 7047   3.444   4.073   4.263 -2.6495 -1.1375 -1.7230
  455THF     H6 7048   3.300   3.766   4.101  1.2619 -0.0268 -1.5142
  455THF     H7 7049   3.294   3.945   4.097 -2.7056  0.1384  1.0490
  455THF     C8 7050   3.487   3.850   4.081  0.4290  0.1241  0.0383
  455THF     C9 7051   3.570   3.917   4.188  0.3267 -0.2298  0.2107
  455THF    H10 7052   3.492   3.915   3.993 -0.4540 -2.0562 -1.7272
  455THF    H11 7053   3.520   3.747   4.062  1.2782  0.2011  1.0415
  455THF    H12 7054   3.623   3.837   4.238 -0.9093 -0.2378  1.5821
  455THF    H13 7055   3.641   3.987   4.144 -0.3846 -1.3373 -2.9550
  456THF     O1 7056   4.391   4.121   1.807  0.1221  0.8549  0.6725
  456THF     C2 7057   4.273   4.048   1.783 -0.7233  0.2241  0.1745
  456THF     C3 7058   4.499   4.035   1.785  0.4558 -0.4021  0.2836
  456THF     H4 7059   4.240   4.052   1.679 -4.0607 -1.6156  1.0082
  456THF     H5 7060   4.193   4.091   1.844 -0.6516 -0.4891  0.7893
  456THF     H6 7061   4.502   4.021   1.677 -0.7440  1.6658 -0.0711
  456THF     H7 7062   4.591   4.079   1.824  0.8473  1.9585 -2.8640
  456THF     C8 7063   4.454   3.909   1.854 -0.0129 -0.3868 -0.6941
  456THF     C9 7064   4.301   3.907   1.823  0.5000  0.1598 -0.0792
  456THF    H10 7065   4.483   3.920   1.958 -0.2345 -0.7593 -0.5928
  456THF    H11 7066   4.503   3.822   1.810  1.5018  1.9868 -4.1968
  456THF    H12 7067   4.278   3.848   1.735  0.3154 -0.2211  0.2234
  456THF    H13 7068   4.228   3.884   1.900  0.0499  2.1543  0.1492
  457THF     O1 7069   3.800   4.855   4.690 -0.6683  0.4953  0.4249
  457THF     C2 7070   3.674   4.795   4.665  0.0458  0.7552  0.3157
  457THF     C3 7071   3.855   4.798   4.811 -0.3802  0.2114 -0.7023
  457THF     H4 7072   3.682   4.763   4.561 -1.7133  0.1004  0.3372
  457THF     H5 7073   3.596   4.872   4.660 -0.7055 -0.0268 -4.0851
  457THF     H6 7074   3.934   4.727   4.788  1.6401  1.5048  1.7521
  457THF     H7 7075   3.912   4.875   4.864 -2.1219  1.6159 -0.7618
  457THF     C8 7076   3.740   4.739   4.896 -0.6082 -0.0049  0.2903
  457THF     C9 7077   3.651   4.695   4.779  0.1351 -0.6919 -0.0909
  457THF    H10 7078   3.687   4.821   4.946 -0.1380  0.7535 -0.4211
  457THF    H11 7079   3.767   4.665   4.971 -0.1738  1.1891  1.3539
  457THF    H12 7080   3.693   4.601   4.742 -0.7585 -2.5077  3.1693
  457THF    H13 7081   3.545   4.686   4.803 -0.5772 -1.7234 -3.0703
  458THF     O1 7082   2.461   2.181   2.404 -0.5442  0.5363  0.7321
  458THF     C2 7083   2.431   2.314   2.386  0.2386 -0.0683 -0.1249
  458THF     C3 7084   2.585   2.163   2.339 -0.9625  0.7491  0.3802
  458THF     H4 7085   2.498   2.380   2.440 -0.1859  0.5616 -0.3500
  458THF     H5 7086   2.330   2.331   2.425  0.7281  0.4301  0.9710
  458THF     H6 7087   2.666   2.217   2.388  0.0659 -1.8740  1.7528
  458THF     H7 7088   2.611   2.057   2.336 -1.3924  0.4388  3.7552
  458THF     C8 7089   2.553   2.232   2.203 -0.0588 -0.4027 -0.4360
  458THF     C9 7090   2.438   2.333   2.238 -0.1698 -0.3932 -0.2960
  458THF    H10 7091   2.520   2.153   2.135  1.2157  0.9339 -2.7293
  458THF    H11 7092   2.639   2.271   2.148 -0.3393  0.6366 -0.1533
  458THF    H12 7093   2.450   2.437   2.210  1.0391  0.4414  2.9737
  458THF    H13 7094   2.347   2.297   2.189 -1.8254  0.5894  1.8801
  459THF     O1 7095   4.156   2.618   4.216  0.8249  0.1583 -0.0844
  459THF     C2 7096   4.273   2.550   4.185 -0.0573  0.0667 -0.0651
  459THF     C3 7097   4.160   2.747   4.151 -0.4224  0.0247 -0.4643
  459THF     H4 7098   4.278   2.442   4.193  4.2372 -0.0612 -1.7642
  459THF     H5 7099   4.356   2.592   4.242  0.0958  0.0743 -0.2941
  459THF     H6 7100   4.060   2.786   4.132 -0.5532  0.0204  0.1953
  459THF     H7 7101   4.220   2.816   4.210  1.0564 -1.2733 -0.3706
  459THF     C8 7102   4.240   2.714   4.024 -0.4757  0.6688 -0.3857
  459THF     C9 7103   4.288   2.574   4.034 -0.3682 -0.6515  0.2606
  459THF    H10 7104   4.323   2.785   4.027  0.4948 -0.4648  1.7742
  459THF    H11 7105   4.193   2.731   3.927 -2.6909 -1.7550  0.1498
  459THF    H12 7106   4.225   2.505   3.977 -2.2595  0.6965  0.6195
  459THF    H13 7107   4.389   2.561   3.997  0.6853 -0.0821  2.7205
  460THF     O1 7108   0.248   4.218   4.360  0.2007  0.1581 -0.2867
  460THF     C2 7109   0.118   4.278   4.346  0.0101 -1.0261 -0.7324
  460THF     C3 7110   0.244   4.115   4.265  0.6742  1.0344  0.2381
  460THF     H4 7111   0.102   4.371   4.401  3.3786 -0.8857  0.2506
  460THF     H5 7112   0.041   4.212   4.386 -0.1294 -2.0410 -2.5981
  460THF     H6 7113   0.341   4.071   4.238 -0.1244  0.0886 -1.2341
  460THF     H7 7114   0.182   4.033   4.303  1.1381 -1.1600 -3.2419
  460THF     C8 7115   0.179   4.175   4.140 -0.4088  0.3362  0.1915
  460THF     C9 7116   0.098   4.291   4.201 -0.3894  0.1517  0.2937
  460THF    H10 7117   0.122   4.104   4.080  0.7401  0.3385 -0.9700
  460THF    H11 7118   0.249   4.230   4.076 -0.5073  1.7158  1.2383
  460THF    H12 7119   0.132   4.385   4.158  0.4600 -1.0593 -1.8397
  460THF    H13 7120  -0.008   4.291   4.175 -0.0395  1.1288 -1.3155
  461THF     O1 7121   3.846   4.447   1.469 -0.2701 -0.0717 -0.3050
  461THF     C2 7122   3.731   4.372   1.512 -0.3834 -0.1457  0.9011
  461THF     C3 7123   3.891   4.518   1.581  0.4470  0.4722 -0.4720
  461THF     H4 7124   3.740   4.269   1.476 -1.4346  0.2311 -0.5459
  461THF     H5 7125   3.632   4.395   1.474 -1.2439 -1.2797  2.3422
  461THF     H6 7126   3.987   4.471   1.600  0.7858  1.7910  1.3868
  461THF     H7 7127   3.914   4.623   1.558 -0.1674  1.0381  1.3147
  461THF     C8 7128   3.797   4.509   1.697 -0.3957 -0.2809 -0.5028
  461THF     C9 7129   3.720   4.383   1.663 -0.0492  0.7149 -0.5719
  461THF    H10 7130   3.727   4.590   1.716 -0.1096  0.3235 -1.8981
  461THF    H11 7131   3.865   4.508   1.783  1.0441  1.9355 -1.5402
  461THF    H12 7132   3.761   4.295   1.713  2.2360  0.6747 -2.3591
  461THF    H13 7133   3.615   4.387   1.694  0.0434 -0.5550 -0.0141
  462THF     O1 7134   3.035   2.841   0.268  0.5681  0.9374 -0.3539
  462THF     C2 7135   3.015   2.695   0.281 -0.1895 -0.2520 -0.0973
  462THF     C3 7136   3.116   2.854   0.161 -0.8067  0.1336  0.0533
  462THF     H4 7137   2.946   2.669   0.200 -1.0113 -1.2156  0.8898
  462THF     H5 7138   2.963   2.672   0.374 -0.9458  1.3715 -0.0887
  462THF     H6 7139   3.057   2.838   0.071 -0.1245 -2.0096 -0.0744
  462THF     H7 7140   3.156   2.955   0.151  1.1968 -0.7147 -1.1937
  462THF     C8 7141   3.219   2.734   0.164  0.2881 -0.4240 -0.3586
  462THF     C9 7142   3.161   2.648   0.262 -0.7915 -0.1981 -0.3938
  462THF    H10 7143   3.317   2.774   0.189 -0.4030  1.9352 -1.1264
  462THF    H11 7144   3.235   2.679   0.071  0.9720 -0.2369 -0.3589
  462THF    H12 7145   3.160   2.542   0.236  0.4943  0.1756 -2.1069
  462THF    H13 7146   3.198   2.655   0.365 -1.3241 -2.4746  0.0213
  463THF     O1 7147   4.855   1.943   3.138 -0.4803 -0.2016  0.1936
  463THF     C2 7148   4.839   1.823   3.063 -0.5083 -0.1217  0.4014
  463THF     C3 7149   4.725   1.978   3.181  0.6383  0.1440 -0.3384
  463THF     H4 7150   4.838   1.735   3.128 -0.2676  0.1632  0.7985
  463THF     H5 7151   4.927   1.807   3.002  0.1369 -2.7431  1.8806
  463THF     H6 7152   4.706   1.898   3.253  0.2415  0.3958 -0.1579
  463THF     H7 7153   4.719   2.081   3.216  1.8746 -0.0918  0.6696
  463THF     C8 7154   4.639   1.955   3.060 -0.2252  0.1203 -0.1649
  463THF     C9 7155   4.710   1.856   2.976 -0.0076  0.0766  0.1337
  463THF    H10 7156   4.631   2.049   3.005 -0.1172  0.2257 -0.0020
  463THF    H11 7157   4.535   1.933   3.084 -0.4961  2.1999  0.7455
  463THF    H12 7158   4.669   1.760   2.943 -1.9448  1.3745 -1.4481
  463THF    H13 7159   4.731   1.903   2.880  1.2302 -1.0112 -0.1624
  464THF     O1 7160   1.396   3.984   3.153 -0.1740  0.4569 -0.3570
  464THF     C2 7161   1.379   3.847   3.206 -0.3554 -1.3119 -0.3278
  464THF     C3 7162   1.541   4.000   3.142  0.2621 -1.0577  0.2419
  464THF     H4 7163   1.393   3.786   3.117  0.8492 -1.0166 -0.3590
  464THF     H5 7164   1.284   3.823   3.254 -0.5689  0.7486  0.3911
  464THF     H6 7165   1.578   4.003   3.040  0.6282 -0.4545  0.3887
  464THF     H7 7166   1.575   4.100   3.167  0.9449 -1.3505  0.5034
  464THF     C8 7167   1.608   3.881   3.210 -0.2025 -0.5260 -0.2899
  464THF     C9 7168   1.503   3.829   3.303  0.1633  0.2968 -0.0284
  464THF    H10 7169   1.700   3.892   3.268  0.1001 -2.0420 -0.4463
  464THF    H11 7170   1.621   3.805   3.134  2.1699  0.7831 -1.3185
  464THF    H12 7171   1.523   3.723   3.318  0.4832  0.2230 -0.8844
  464THF    H13 7172   1.485   3.884   3.395 -0.0079 -0.6912  0.5345
  465THF     O1 7173   1.295   0.536   3.282 -0.0510  0.1487 -0.2819
  465THF     C2 7174   1.431   0.527   3.253 -0.0655  0.1002 -0.0152
  465THF     C3 7175   1.225   0.533   3.157 -0.9151 -0.0844  0.5341
  465THF     H4 7176   1.443   0.421   3.229  0.9486 -0.0411  1.0377
  465THF     H5 7177   1.507   0.542   3.330  2.4351 -0.2888 -2.2430
  465THF     H6 7178   1.197   0.430   3.137 -2.1025  0.6061 -1.7344
  465THF     H7 7179   1.140   0.602   3.158 -0.9798 -0.0989 -1.1364
  465THF     C8 7180   1.325   0.590   3.052  0.0361 -0.3237 -1.1057
  465THF     C9 7181   1.453   0.625   3.138 -0.4272  0.1090  0.1965
  465THF    H10 7182   1.292   0.683   3.006 -1.5333 -1.3045 -2.0674
  465THF    H11 7183   1.354   0.525   2.969  1.2780  1.0335 -1.7945
  465THF    H12 7184   1.543   0.605   3.079 -2.0549 -2.2000 -1.6892
  465THF    H13 7185   1.452   0.730   3.167  0.4659  0.1928 -0.0172
  466THF     O1 7186   4.093   0.708   2.228  0.0039  0.7084  0.1137
  466THF     C2 7187   4.049   0.609   2.326 -0.0387 -0.4993  0.4375
  466THF     C3 7188   4.062   0.660   2.101  0.4812 -0.4832 -0.0535
  466THF     H4 7189   4.033   0.660   2.421  1.1170  0.7709 -0.0140
  466THF     H5 7190   4.126   0.533   2.340  1.8581  1.3919  0.9115
  466THF     H6 7191   4.054   0.751   2.042 -0.0309 -0.8683 -0.5863
  466THF     H7 7192   4.143   0.593   2.070  2.1218  0.0688  2.6814
  466THF     C8 7193   3.925   0.581   2.119  0.0829 -0.2345  0.1154
  466THF     C9 7194   3.921   0.554   2.266 -0.3745  0.3821 -0.0350
  466THF    H10 7195   3.940   0.485   2.070  0.5147 -1.3521  2.3241
  466THF    H11 7196   3.843   0.640   2.079  1.9356  2.6720  0.2351
  466THF    H12 7197   3.837   0.615   2.299  1.5113  2.8732  0.5207
  466THF    H13 7198   3.911   0.449   2.292 -1.0696  0.8776  1.8923
  467THF     O1 7199   4.799   3.461   0.053 -0.2517 -0.2046 -0.3397
  467THF     C2 7200   4.835   3.597   0.013  0.8681  0.6466  0.6179
  467THF     C3 7201   4.903   3.385   0.004 -0.5350 -0.5949  0.4125
  467THF     H4 7202   4.779   3.672   0.069 -0.2322 -0.3309  0.8458
  467THF     H5 7203   4.815   3.609  -0.094  2.5594 -0.8180  0.0829
  467THF     H6 7204   4.923   3.306   0.076 -0.4028 -2.5246 -1.6160
  467THF     H7 7205   4.876   3.349  -0.096  2.2941  4.2792 -2.5235
  467THF     C8 7206   5.034   3.472  -0.002  0.2819  0.3680 -0.1165
  467THF     C9 7207   4.985   3.606   0.055 -0.0256  0.4555  0.0230
  467THF    H10 7208   5.052   3.483  -0.109 -0.1342  0.4101 -0.1831
  467THF    H11 7209   5.129   3.438   0.041  0.0563 -1.0204 -0.6764
  467THF    H12 7210   4.998   3.611   0.163 -0.7269 -1.6159  0.2448
  467THF    H13 7211   5.033   3.693   0.010  3.2343 -1.4891 -0.6307
  468THF     O1 7212   2.498   0.655   0.496  0.3802  0.8704  0.4148
  468THF     C2 7213   2.437   0.782   0.464  0.7535  0.8426  0.2974
  468THF     C3 7214   2.401   0.559   0.490 -0.0810 -0.0676  0.2757
  468THF     H4 7215   2.491   0.823   0.379  0.2250 -0.8890 -0.9375
  468THF     H5 7216   2.425   0.839   0.556 -0.3668 -0.4832  1.0277
  468THF     H6 7217   2.451   0.463   0.474 -2.5458 -1.3962  0.0808
  468THF     H7 7218   2.355   0.542   0.587 -2.4972  0.2060 -0.7524
  468THF     C8 7219   2.309   0.602   0.380 -0.5559  0.3442  0.0012
  468THF     C9 7220   2.294   0.756   0.417 -0.7124  0.2368  0.0327
  468THF    H10 7221   2.218   0.543   0.378 -0.5435  0.2324  1.5409
  468THF    H11 7222   2.347   0.599   0.278 -4.0679  1.9088 -1.5367
  468THF    H12 7223   2.283   0.827   0.335  1.2842  1.1736  0.5152
  468THF    H13 7224   2.220   0.777   0.494 -0.3928  1.0023  0.1362
  469THF     O1 7225   0.298   0.156   2.078 -0.0348  0.6713 -0.0962
  469THF     C2 7226   0.309   0.100   2.213 -0.4774 -0.2865  0.3752
  469THF     C3 7227   0.266   0.052   1.992  0.4213 -0.3434  0.3597
  469THF     H4 7228   0.211   0.078   2.256 -2.3301  1.9342 -2.3782
  469THF     H5 7229   0.372   0.166   2.273  0.2078  0.8406 -1.4942
  469THF     H6 7230   0.159   0.037   2.003 -0.1014  2.0616 -0.8297
  469THF     H7 7231   0.285   0.079   1.888  1.0226  3.0386  1.2448
  469THF     C8 7232   0.352  -0.069   2.042 -0.2534 -0.6967 -0.8552
  469THF     C9 7233   0.386  -0.031   2.185 -0.5045  0.4989 -0.6117
  469THF    H10 7234   0.433  -0.077   1.970  0.7555 -1.4020  0.3187
  469THF    H11 7235   0.308  -0.169   2.034 -0.0091 -0.7589 -1.4718
  469THF    H12 7236   0.367  -0.114   2.253 -0.0976  0.4328 -0.5746
  469THF    H13 7237   0.491  -0.002   2.190 -0.3944  0.0232 -0.0430
  470THF     O1 7238   4.368   2.287   0.119 -0.4981  0.2796  0.1102
  470THF     C2 7239   4.341   2.393   0.024  0.1187  0.2215 -0.0371
  470THF     C3 7240   4.466   2.197   0.060 -0.1861  0.4112  0.3325
  470THF     H4 7241   4.415   2.473   0.027  0.2915  0.3259 -3.2433
  470THF     H5 7242   4.244   2.441   0.040  0.0469  0.7096 -1.7102
  470THF     H6 7243   4.558   2.257   0.057  1.3270 -1.8176  0.1890
  470THF     H7 7244   4.476   2.106   0.119 -0.0650  0.8619  1.0183
  470THF     C8 7245   4.396   2.184  -0.077  0.2308 -0.7022 -0.9274
  470THF     C9 7246   4.347   2.319  -0.110  0.0895 -0.4033 -0.2540
  470THF    H10 7247   4.321   2.107  -0.058  0.3533 -0.6292 -0.1201
  470THF    H11 7248   4.470   2.149  -0.149  0.5420  0.3187 -1.1071
  470THF    H12 7249   4.412   2.371  -0.180  0.5584 -1.1963 -0.4209
  470THF    H13 7250   4.260   2.317  -0.176  0.6616  0.4223 -1.0547
  471THF     O1 7251   0.315   3.710   2.538  0.4160  0.3109 -0.1499
  471THF     C2 7252   0.331   3.748   2.674  0.0486  0.0376 -0.6806
  471THF     C3 7253   0.296   3.569   2.526 -0.0514 -0.6922  0.5880
  471THF     H4 7254   0.237   3.740   2.729 -0.2191 -0.0996 -1.1583
  471THF     H5 7255   0.379   3.845   2.685  2.4072 -1.1699  0.7155
  471THF     H6 7256   0.193   3.551   2.556 -1.1705  0.2455 -2.3872
  471THF     H7 7257   0.316   3.551   2.420  0.8299 -0.1281  0.6501
  471THF     C8 7258   0.399   3.513   2.628  0.1366  0.6184 -0.0078
  471THF     C9 7259   0.432   3.631   2.717  0.1261  0.3405  0.5843
  471THF    H10 7260   0.494   3.473   2.591  0.4488 -0.3887  1.7374
  471THF    H11 7261   0.350   3.432   2.681 -0.1280 -0.4153 -1.7500
  471THF    H12 7262   0.429   3.608   2.824  1.8192 -2.5186  0.1308
  471THF    H13 7263   0.533   3.660   2.688 -0.5449 -0.9713 -3.7310
  472THF     O1 7264   0.831   2.472   4.234  0.0075 -0.0590  0.5284
  472THF     C2 7265   0.947   2.548   4.204  0.1357  0.3262  0.7069
  472THF     C3 7266   0.882   2.382   4.332 -0.0407 -0.6412  0.6840
  472THF     H4 7267   0.970   2.625   4.278 -1.9850  0.8799  0.8409
  472THF     H5 7268   0.934   2.605   4.113 -0.7705 -2.3112 -0.9205
  472THF     H6 7269   0.904   2.430   4.427  1.5703  0.1783 -0.0524
  472THF     H7 7270   0.819   2.298   4.362 -0.2070 -0.1949  1.6080
  472THF     C8 7271   1.025   2.341   4.289  0.0264 -0.1299  0.3854
  472THF     C9 7272   1.066   2.458   4.197 -0.3244  0.7521 -0.1009
  472THF    H10 7273   1.033   2.255   4.223 -0.1896 -0.3351  0.6247
  472THF    H11 7274   1.101   2.329   4.367  1.2404 -0.2737 -0.7824
  472THF    H12 7275   1.160   2.503   4.230  0.0414  0.1991 -0.3654
  472THF    H13 7276   1.092   2.439   4.092  2.3990  1.3109  0.3969
  473THF     O1 7277   0.402   4.475   1.955 -0.0002 -0.8396 -0.7140
  473THF     C2 7278   0.464   4.491   1.829  0.1010 -0.0657  0.1823
  473THF     C3 7279   0.349   4.349   1.948  0.4569  0.1565  0.3095
  473THF     H4 7280   0.559   4.437   1.838 -0.8053 -1.5186  1.8175
  473THF     H5 7281   0.480   4.596   1.809 -2.2017  0.0478 -1.4457
  473THF     H6 7282   0.424   4.270   1.947  0.1378 -0.1716  1.2322
  473THF     H7 7283   0.293   4.337   2.041  3.0491 -0.2615  1.9032
  473THF     C8 7284   0.278   4.347   1.814 -0.2589 -0.0474  0.1723
  473THF     C9 7285   0.374   4.425   1.728  0.1786 -0.2105 -0.4832
  473THF    H10 7286   0.184   4.402   1.816  0.2195  0.8577 -0.8536
  473THF    H11 7287   0.263   4.246   1.776  1.8412 -0.2820 -0.1597
  473THF    H12 7288   0.422   4.369   1.648 -0.0453  1.5795 -1.9632
  473THF    H13 7289   0.321   4.502   1.672  1.0596 -0.1560 -1.2610
  474THF     O1 7290   1.953   1.567   4.741 -0.3437 -0.5857  0.3447
  474THF     C2 7291   1.858   1.534   4.843  0.4062 -0.8089  0.6359
  474THF     C3 7292   1.880   1.562   4.621 -0.0757 -0.3281  0.3535
  474THF     H4 7293   1.805   1.621   4.881 -1.3773 -0.4239 -2.4059
  474THF     H5 7294   1.908   1.487   4.927  1.4235  1.8215  1.6229
  474THF     H6 7295   1.817   1.650   4.614 -1.3222 -1.1022  1.4508
  474THF     H7 7296   1.943   1.545   4.533  1.5408  1.0786  1.1697
  474THF     C8 7297   1.791   1.441   4.634  0.2794 -0.4097 -0.0099
  474THF     C9 7298   1.762   1.432   4.785  0.1018  0.3856  0.0869
  474THF    H10 7299   1.834   1.345   4.606 -0.6929 -0.2937 -2.0464
  474THF    H11 7300   1.707   1.469   4.570  0.6802  2.5666  0.5995
  474THF    H12 7301   1.657   1.451   4.808 -0.4456 -1.6814 -0.4868
  474THF    H13 7302   1.780   1.333   4.826 -0.7365 -0.7342 -2.0955
  475THF     O1 7303   0.746   3.081   5.415  0.3015  0.0968 -0.8606
  475THF     C2 7304   0.784   2.988   5.515  0.7900  0.1971 -0.1963
  475THF     C3 7305   0.754   3.212   5.473  0.9856  0.6956 -0.4343
  475THF     H4 7306   0.810   2.891   5.472 -0.0314  1.6550 -4.4775
  475THF     H5 7307   0.704   2.977   5.588  1.4229 -0.6229  0.3883
  475THF     H6 7308   0.764   3.290   5.397 -0.2488 -0.5372 -1.9362
  475THF     H7 7309   0.662   3.235   5.528  1.0620 -0.7486  0.3393
  475THF     C8 7310   0.862   3.211   5.572 -0.6871  0.1797 -0.7725
  475THF     C9 7311   0.898   3.061   5.581  0.0636  0.0032 -0.0053
  475THF    H10 7312   0.836   3.261   5.666  0.0547  0.7867 -0.8847
  475THF    H11 7313   0.959   3.247   5.540 -0.1728  0.4413  0.9502
  475THF    H12 7314   0.990   3.049   5.525 -0.4207  3.1532 -1.7343
  475THF    H13 7315   0.912   3.041   5.687  1.4573  0.6745 -0.0421
  476THF     O1 7316   5.380   0.419   0.720  0.4191 -0.5732 -0.3937
  476THF     C2 7317   5.241   0.391   0.728 -0.4597  0.2363 -0.6637
  476THF     C3 7318   5.427   0.437   0.855 -0.0851  0.0476  0.0484
  476THF     H4 7319   5.188   0.354   0.640 -0.9157  1.4042 -0.9020
  476THF     H5 7320   5.196   0.487   0.754  0.5446  1.5494 -3.3910
  476THF     H6 7321   5.536   0.435   0.846 -0.0570  1.0043  0.0770
  476THF     H7 7322   5.393   0.535   0.891 -2.1119  0.2645 -2.1996
  476THF     C8 7323   5.357   0.319   0.936 -0.9166  0.9045  0.2104
  476THF     C9 7324   5.231   0.302   0.856  0.3537  0.4123 -0.7921
  476THF    H10 7325   5.340   0.338   1.042  0.8889 -2.4243  1.2298
  476THF    H11 7326   5.417   0.230   0.916 -0.9548 -0.0785  3.7790
  476THF    H12 7327   5.215   0.200   0.823 -2.0215  0.7843 -0.9986
  476THF    H13 7328   5.142   0.323   0.915  0.7444 -0.8183  0.2690
  477THF     O1 7329   1.969   1.602   3.472 -0.2940 -0.3540 -0.4104
  477THF     C2 7330   1.870   1.707   3.463  0.7511 -0.3601 -0.5150
  477THF     C3 7331   2.010   1.577   3.606  0.0215  0.4275 -0.4221
  477THF     H4 7332   1.768   1.678   3.486  0.4242 -0.2554 -1.7501
  477THF     H5 7333   1.854   1.767   3.373  0.3625  1.8187  0.9332
  477THF     H6 7334   1.934   1.509   3.643  1.7003 -1.2910  0.0021
  477THF     H7 7335   2.095   1.511   3.621 -1.3486 -0.8706  2.3912
  477THF     C8 7336   2.011   1.715   3.655 -0.4270 -0.6899  0.0664
  477THF     C9 7337   1.926   1.803   3.566 -0.2569  0.3375 -0.9270
  477THF    H10 7338   2.113   1.753   3.663 -0.1468 -1.4346  0.1178
  477THF    H11 7339   1.981   1.718   3.759 -0.0157 -0.3864  0.1811
  477THF    H12 7340   1.848   1.859   3.619 -0.2891  1.6400 -2.2663
  477THF    H13 7341   1.984   1.888   3.530  0.0749  0.9807  1.0325
  478THF     O1 7342   3.979   2.780   5.275 -0.1694  0.8925 -0.8284
  478THF     C2 7343   3.934   2.680   5.369  0.0419  0.2192 -0.2556
  478THF     C3 7344   4.112   2.796   5.288  0.0339  0.1601  0.1366
  478THF     H4 7345   3.895   2.592   5.317  1.3285 -0.1025 -0.7163
  478THF     H5 7346   3.843   2.705   5.424 -2.2009  0.6556 -3.8568
  478THF     H6 7347   4.152   2.810   5.188  1.0169 -1.9598  0.1646
  478THF     H7 7348   4.137   2.884   5.347  0.6764  2.2795 -3.0269
  478THF     C8 7349   4.178   2.669   5.345  0.3172  0.1437  0.0621
  478THF     C9 7350   4.065   2.636   5.448  0.5065  0.1495 -0.5565
  478THF    H10 7351   4.271   2.704   5.390 -0.0914  1.5684 -0.1437
  478THF    H11 7352   4.195   2.589   5.273  1.5701  0.3631  0.1020
  478THF    H12 7353   4.058   2.528   5.456 -2.1831  0.2324 -0.9514
  478THF    H13 7354   4.072   2.694   5.540  0.6151 -0.1739 -0.3577
  479THF     O1 7355   0.552   4.660   4.081  0.2748 -0.3833  0.0334
  479THF     C2 7356   0.544   4.569   4.195 -0.1171 -0.3936 -0.0094
  479THF     C3 7357   0.587   4.581   3.968 -0.0336  0.3973 -0.3641
  479THF     H4 7358   0.463   4.601   4.262  0.5644  0.1248  0.5857
  479THF     H5 7359   0.630   4.578   4.261  1.3274  0.3187 -1.9073
  479THF     H6 7360   0.547   4.636   3.883 -0.1227 -0.7702 -1.0908
  479THF     H7 7361   0.696   4.581   3.975  0.0126 -1.6942 -0.5880
  479THF     C8 7362   0.515   4.453   3.988  0.7786  0.4709 -0.0103
  479THF     C9 7363   0.521   4.434   4.143  0.4654  0.7121 -0.1815
  479THF    H10 7364   0.566   4.369   3.941 -0.3310  0.1017 -0.6069
  479THF    H11 7365   0.412   4.454   3.952  0.8718 -1.2933 -0.4333
  479THF    H12 7366   0.421   4.401   4.172  0.2368 -0.3367 -2.0461
  479THF    H13 7367   0.600   4.368   4.177  0.8655  2.3698  2.4951
  480THF     O1 7368   1.183   0.641   3.899 -0.3774 -0.0615  0.0113
  480THF     C2 7369   1.190   0.572   3.778  0.3628  0.4082  0.0864
  480THF     C3 7370   1.315   0.639   3.953  0.3832  0.0153  0.6395
  480THF     H4 7371   1.097   0.584   3.722 -0.3281  1.2596  1.3713
  480THF     H5 7372   1.199   0.464   3.789  0.0599  0.3373 -0.3428
  480THF     H6 7373   1.321   0.723   4.023  0.6251  2.6317 -2.2536
  480THF     H7 7374   1.322   0.538   3.992  0.3142 -1.1092 -2.0594
  480THF     C8 7375   1.406   0.663   3.827  0.2099  0.0783 -0.4206
  480THF     C9 7376   1.312   0.633   3.711 -0.0333  0.7998 -0.6669
  480THF    H10 7377   1.485   0.588   3.825  2.1562  2.0700 -1.9365
  480THF    H11 7378   1.454   0.760   3.820  0.3775  0.1746  1.6631
  480THF    H12 7379   1.269   0.723   3.667 -0.0412  0.8917 -0.4732
  480THF    H13 7380   1.354   0.560   3.642  1.5435  0.6267  0.4212
  481THF     O1 7381   5.315   1.578   2.744 -0.5382 -0.1106  0.1821
  481THF     C2 7382   5.249   1.699   2.701 -0.1084  0.2507  0.2095
  481THF     C3 7383   5.247   1.462   2.701 -0.0022 -0.1544  0.5296
  481THF     H4 7384   5.322   1.753   2.639 -0.5838  1.5676  0.7557
  481THF     H5 7385   5.236   1.767   2.785  0.8227  0.5298  0.1395
  481THF     H6 7386   5.321   1.384   2.683  0.9736  1.1710 -1.5548
  481THF     H7 7387   5.173   1.432   2.775  1.2220 -1.0489  1.4524
  481THF     C8 7388   5.185   1.505   2.572  0.3782  0.5221 -0.7661
  481THF     C9 7389   5.132   1.640   2.619 -0.1193 -0.3522 -0.3144
  481THF    H10 7390   5.107   1.435   2.544  0.6873 -1.5955  3.0360
  481THF    H11 7391   5.256   1.506   2.489  1.3803  2.1281  0.0672
  481THF    H12 7392   5.110   1.709   2.538 -0.5921  1.2317  1.0970
  481THF    H13 7393   5.044   1.630   2.683  0.6889 -2.5581  0.5209
  482THF     O1 7394   3.054   3.953   3.957 -0.0942 -0.2345  0.2606
  482THF     C2 7395   2.951   3.856   3.974  0.4706 -0.0577 -0.5546
  482THF     C3 7396   3.014   4.089   3.979  0.5070  0.0712 -0.1721
  482THF     H4 7397   2.970   3.783   4.052 -3.4854  0.9895  1.6632
  482THF     H5 7398   2.948   3.798   3.882  1.7379  0.1181 -0.7247
  482THF     H6 7399   3.060   4.131   4.068  1.0919 -0.1917 -0.3505
  482THF     H7 7400   3.041   4.140   3.887  1.1818  0.2532  0.1237
  482THF     C8 7401   2.864   4.078   3.975  0.0445 -0.1940  0.8612
  482THF     C9 7402   2.828   3.939   4.011  0.0809 -0.5290  0.2873
  482THF    H10 7403   2.831   4.099   3.873 -0.8450 -1.0703  0.9441
  482THF    H11 7404   2.815   4.153   4.038  0.2691  0.4318  0.3017
  482THF    H12 7405   2.815   3.927   4.118  1.3537  0.7807  0.6219
  482THF    H13 7406   2.736   3.904   3.963 -1.2831  1.1499  1.5552
  483THF     O1 7407   1.171   0.431   2.492 -0.0329 -0.2138  0.0976
  483THF     C2 7408   1.135   0.515   2.597 -0.3168 -0.0038 -0.5990
  483THF     C3 7409   1.284   0.367   2.538 -0.6207 -0.3869 -0.3599
  483THF     H4 7410   1.029   0.534   2.578 -1.3724 -1.9556  2.6831
  483THF     H5 7411   1.184   0.611   2.580 -0.8413  0.2476 -0.7148
  483THF     H6 7412   1.307   0.274   2.487 -0.0315 -0.9971  0.9834
  483THF     H7 7413   1.367   0.435   2.521 -0.7043 -0.0415  0.5374
  483THF     C8 7414   1.257   0.346   2.692  0.0033 -0.4519  0.0405
  483THF     C9 7415   1.164   0.459   2.734 -0.2001  0.0814  0.3282
  483THF    H10 7416   1.350   0.337   2.748 -1.4410  0.1103  2.7013
  483THF    H11 7417   1.213   0.247   2.703  2.3690 -1.7665 -1.4593
  483THF    H12 7418   1.075   0.412   2.775 -1.7754  0.6406 -2.2287
  483THF    H13 7419   1.221   0.536   2.786 -0.4288  0.4188  0.0891
  484THF     O1 7420   4.818   0.517   1.293  0.6569  0.6373 -0.5855
  484THF     C2 7421   4.674   0.495   1.296 -0.6353  0.2445 -0.0363
  484THF     C3 7422   4.842   0.655   1.272 -0.3352 -0.1972  1.0301
  484THF     H4 7423   4.643   0.411   1.358 -0.8046  0.8956  0.7818
  484THF     H5 7424   4.641   0.466   1.196 -0.2236 -4.2432  0.9437
  484THF     H6 7425   4.887   0.702   1.360 -1.2073 -0.8605  1.8547
  484THF     H7 7426   4.907   0.680   1.188 -2.1326  2.2848  0.2559
  484THF     C8 7427   4.706   0.725   1.249  0.4465  0.0030 -0.0897
  484THF     C9 7428   4.619   0.634   1.332 -0.4086  0.5563  0.1668
  484THF    H10 7429   4.675   0.723   1.145  0.0129 -0.5672  0.0454
  484THF    H11 7430   4.715   0.829   1.282 -1.4406  0.3764 -0.6825
  484THF    H12 7431   4.632   0.640   1.440  2.1125 -0.7102 -0.0090
  484THF    H13 7432   4.510   0.635   1.323 -0.5168  2.0907  1.2097
  485THF     O1 7433   2.247   4.020   2.766 -0.1728 -0.0348 -0.0251
  485THF     C2 7434   2.215   4.145   2.826  0.3508 -0.3189  0.2283
  485THF     C3 7435   2.157   4.009   2.656  0.2843 -0.0840 -0.0505
  485THF     H4 7436   2.268   4.220   2.766  0.5784  0.8072  1.7594
  485THF     H5 7437   2.264   4.160   2.922  0.7508 -1.3206  0.1865
  485THF     H6 7438   2.184   4.070   2.569 -3.5069  0.6590 -0.9301
  485THF     H7 7439   2.147   3.906   2.623 -2.4006 -0.3407  1.2660
  485THF     C8 7440   2.028   4.062   2.707  0.2290 -0.3035  0.1913
  485THF     C9 7441   2.067   4.151   2.820  0.6419  0.0117  0.0558
  485THF    H10 7442   1.958   3.992   2.754  1.7652 -0.5542  2.2393
  485THF    H11 7443   1.970   4.133   2.648  0.3648  0.1029  0.5421
  485THF    H12 7444   2.049   4.259   2.811 -0.3541  0.0052  1.5075
  485THF    H13 7445   2.024   4.107   2.910 -0.7833  0.9077 -0.1530
  486THF     O1 7446   5.438   2.047   5.316  0.4596  1.0432 -0.0481
  486THF     C2 7447   5.478   2.051   5.176 -0.0247 -0.5428  0.5093
  486THF     C3 7448   5.469   2.172   5.375 -0.0671  0.4443 -0.8999
  486THF     H4 7449   5.408   2.106   5.112  1.1785 -0.8340 -1.1289
  486THF     H5 7450   5.495   1.951   5.136 -1.2283  0.5309 -3.1218
  486THF     H6 7451   5.398   2.250   5.346  0.4041  1.1610 -0.1840
  486THF     H7 7452   5.482   2.165   5.483  0.1971 -0.2485 -0.9743
  486THF     C8 7453   5.597   2.219   5.311  0.3653  0.6745 -0.3599
  486THF     C9 7454   5.608   2.127   5.191 -0.2717  0.4391 -0.4358
  486THF    H10 7455   5.682   2.207   5.379 -0.7927  1.7227  1.3639
  486THF    H11 7456   5.595   2.327   5.301  0.1574  0.9004  1.6731
  486THF    H12 7457   5.626   2.184   5.100  2.2705 -1.4481 -1.2111
  486THF    H13 7458   5.692   2.059   5.187  0.0087  0.7808 -0.3583
  487THF     O1 7459   3.501   0.779   1.831  0.8434  0.9931  0.8779
  487THF     C2 7460   3.476   0.852   1.950 -0.3415  0.1532  0.7702
  487THF     C3 7461   3.598   0.843   1.751 -0.0037  0.3949  0.2135
  487THF     H4 7462   3.408   0.803   2.019 -1.4641  1.9304  0.9868
  487THF     H5 7463   3.418   0.937   1.914  0.1707  0.3402  0.3675
  487THF     H6 7464   3.646   0.766   1.691  1.5651  1.4878  0.0096
  487THF     H7 7465   3.554   0.916   1.683 -0.0241  1.5919  1.4605
  487THF     C8 7466   3.701   0.897   1.858 -0.9919 -1.1256  0.5469
  487THF     C9 7467   3.620   0.891   1.992  0.2223  0.2874 -0.4103
  487THF    H10 7468   3.751   0.993   1.847  0.6055 -1.6149  2.7551
  487THF    H11 7469   3.770   0.813   1.852  0.8141  0.2664  0.9468
  487THF    H12 7470   3.671   0.810   2.044  0.8916 -0.9409 -2.8435
  487THF    H13 7471   3.630   0.987   2.043 -0.7411  1.4102 -2.2316
  488THF     O1 7472   1.621   1.398   4.177  0.6544  0.6634  0.5819
  488THF     C2 7473   1.484   1.409   4.213 -0.0606  0.0632 -0.0085
  488THF     C3 7474   1.696   1.455   4.280  0.8027 -0.1450 -0.0571
  488THF     H4 7475   1.465   1.315   4.265  2.8471 -0.3488  0.4825
  488THF     H5 7476   1.429   1.424   4.120  2.8409  0.5820 -1.7446
  488THF     H6 7477   1.701   1.387   4.365 -0.7006  1.8918  1.7796
  488THF     H7 7478   1.802   1.468   4.258  0.9437  0.2219  0.7831
  488THF     C8 7479   1.623   1.589   4.306 -0.5314 -0.3286 -0.1954
  488THF     C9 7480   1.480   1.546   4.286 -0.0846 -0.3111 -0.1165
  488THF    H10 7481   1.657   1.665   4.235 -0.5135 -0.2040 -0.0543
  488THF    H11 7482   1.651   1.621   4.406  1.3597  4.0390 -1.8667
  488THF    H12 7483   1.432   1.525   4.382 -1.7487 -0.9753 -1.0489
  488THF    H13 7484   1.424   1.625   4.236  2.6168  0.5922 -1.9026
  489THF     O1 7485   4.213   4.921   0.736 -0.2011 -0.5422 -0.0607
  489THF     C2 7486   4.326   4.854   0.793  0.2221 -1.1346 -0.2162
  489THF     C3 7487   4.157   4.998   0.840 -0.5520 -0.8656 -1.1563
  489THF     H4 7488   4.399   4.815   0.722  0.4274  0.5391 -0.9855
  489THF     H5 7489   4.279   4.770   0.844 -2.8998  0.6623  0.1285
  489THF     H6 7490   4.093   5.080   0.807 -0.5527 -0.0468  0.7040
  489THF     H7 7491   4.094   4.932   0.899  1.0097 -0.9598  0.5013
  489THF     C8 7492   4.274   5.034   0.937 -0.5077 -0.2364 -0.1767
  489THF     C9 7493   4.398   4.951   0.891  0.8183  0.7016 -0.1092
  489THF    H10 7494   4.242   5.027   1.041  0.6263  0.0212  0.2013
  489THF    H11 7495   4.271   5.140   0.914 -2.8497  0.2991  2.2413
  489THF    H12 7496   4.466   5.022   0.844  1.3025  0.6751  0.5442
  489THF    H13 7497   4.464   4.912   0.969  0.2973 -2.0611 -0.9594
  490THF     O1 7498   4.282   2.692   0.866  0.7757  0.0537  0.0274
  490THF     C2 7499   4.384   2.755   0.939 -0.3345 -0.0221  0.5762
  490THF     C3 7500   4.343   2.630   0.750 -0.2408 -0.1793  0.4734
  490THF     H4 7501   4.358   2.759   1.044 -1.1783  0.8968  0.3462
  490THF     H5 7502   4.417   2.848   0.892  1.8964 -1.5490 -1.1155
  490THF     H6 7503   4.270   2.559   0.710  0.4228 -0.7210  0.2044
  490THF     H7 7504   4.367   2.703   0.673  1.6210 -1.3525 -0.1216
  490THF     C8 7505   4.476   2.576   0.808 -0.0303 -0.0071 -0.3808
  490THF     C9 7506   4.507   2.663   0.930 -0.1236  0.2696 -0.1108
  490THF    H10 7507   4.557   2.579   0.735  0.0458  1.7581 -0.2705
  490THF    H11 7508   4.461   2.475   0.846  1.7496 -0.5286 -0.9654
  490THF    H12 7509   4.515   2.619   1.029  0.7214 -1.0613 -0.7537
  490THF    H13 7510   4.594   2.727   0.915  1.5853 -1.5859  1.3986
  491THF     O1 7511   1.730   3.652   4.888  0.2046 -0.1744 -0.3957
  491THF     C2 7512   1.589   3.626   4.881 -0.5576  0.0279  0.3472
  491THF     C3 7513   1.754   3.765   4.800 -0.0351  0.1031 -0.7065
  491THF     H4 7514   1.547   3.566   4.962 -1.9534  1.7898  0.9926
  491THF     H5 7515   1.567   3.568   4.792 -2.0852  0.3303  0.5070
  491THF     H6 7516   1.841   3.816   4.843  0.2573  0.1684 -1.3706
  491THF     H7 7517   1.791   3.734   4.703  1.5208  0.7121 -0.3435
  491THF     C8 7518   1.627   3.852   4.803  0.7142  0.3331 -0.7800
  491THF     C9 7519   1.534   3.764   4.882  0.5731 -0.0850 -0.1442
  491THF    H10 7520   1.600   3.865   4.699 -2.0443 -0.7946 -0.3073
  491THF    H11 7521   1.655   3.939   4.861  2.2305 -0.5859 -0.0700
  491THF    H12 7522   1.531   3.817   4.977  1.7807  0.8080 -0.5839
  491THF    H13 7523   1.429   3.769   4.852  0.6455 -2.7641 -1.1272
  492THF     O1 7524   1.518   5.099   1.586  0.7523  0.4233 -0.7139
  492THF     C2 7525   1.528   5.215   1.508  0.4034  0.2462  0.1823
  492THF     C3 7526   1.464   5.138   1.715 -0.2116  0.7880 -0.2510
  492THF     H4 7527   1.430   5.226   1.460  0.6904 -1.2061 -0.7971
  492THF     H5 7528   1.596   5.201   1.424 -1.1768  0.3617 -1.1721
  492THF     H6 7529   1.362   5.100   1.718 -1.0021  2.7012  3.7174
  492THF     H7 7530   1.509   5.091   1.802  0.9277  1.7720 -0.2834
  492THF     C8 7531   1.476   5.295   1.714  0.2036 -0.7911 -0.3378
  492THF     C9 7532   1.562   5.339   1.594  0.0653  0.2212 -0.4883
  492THF    H10 7533   1.531   5.337   1.798  0.3547  0.8217 -1.2061
  492THF    H11 7534   1.374   5.333   1.705  1.0028  1.8442  0.6719
  492THF    H12 7535   1.536   5.437   1.552 -2.0173  0.8715  2.0868
  492THF    H13 7536   1.669   5.343   1.616 -0.1242  0.0284  0.5130
  493THF     O1 7537   1.590   0.968   4.920  0.4783  0.2817 -0.1873
  493THF     C2 7538   1.465   1.033   4.896 -0.1546 -0.1679 -0.0133
  493THF     C3 7539   1.644   0.943   4.795 -0.2323 -0.1511 -0.1561
  493THF     H4 7540   1.429   1.074   4.991  0.8411  0.8909 -0.0637
  493THF     H5 7541   1.405   0.952   4.856  1.6243 -1.5889  0.0859
  493THF     H6 7542   1.751   0.925   4.796  0.0825  1.5072  1.0633
  493THF     H7 7543   1.603   0.857   4.742  1.3517  0.4369 -2.4985
  493THF     C8 7544   1.604   1.074   4.717 -0.5673  0.0923 -0.3126
  493THF     C9 7545   1.498   1.145   4.797  0.1254 -0.5654 -0.4103
  493THF    H10 7546   1.576   1.057   4.614  1.5381 -0.9317 -0.7830
  493THF    H11 7547   1.688   1.143   4.705  0.1186 -0.4347  1.1862
  493THF    H12 7548   1.547   1.235   4.833  0.4732 -1.0045  0.2315
  493THF    H13 7549   1.415   1.174   4.733 -0.0063 -1.0281 -0.4520
  494THF     O1 7550   5.159   3.993   4.093  0.0247  0.3281 -0.2665
  494THF     C2 7551   5.039   3.940   4.032 -0.0988 -0.1797 -1.2803
  494THF     C3 7552   5.224   4.076   3.997 -1.3058 -0.0150  0.5436
  494THF     H4 7553   4.975   4.029   4.031 -0.6134 -0.5444 -1.3118
  494THF     H5 7554   4.983   3.863   4.085  2.6869 -0.8993  0.8414
  494THF     H6 7555   5.182   4.176   3.987  0.9956  0.7684 -4.4299
  494THF     H7 7556   5.331   4.084   4.017 -1.2137  0.2425 -0.0094
  494THF     C8 7557   5.182   4.017   3.858 -0.0686 -0.1591 -0.0531
  494THF     C9 7558   5.095   3.901   3.893  0.0637  0.7124  0.1393
  494THF    H10 7559   5.263   3.973   3.800 -1.2731 -2.3674 -0.1485
  494THF    H11 7560   5.137   4.090   3.791 -0.8793  0.6364  1.3137
  494THF    H12 7561   5.014   3.875   3.825 -1.4695 -0.6146  2.3550
  494THF    H13 7562   5.155   3.811   3.899  0.1546  0.6272 -1.6530
  495THF     O1 7563   5.465   1.161   4.059  0.1562 -0.4025  0.4152
  495THF     C2 7564   5.478   1.021   4.047  0.8601 -0.3493 -0.1747
  495THF     C3 7565   5.528   1.205   4.175 -0.2255 -0.0408  0.1400
  495THF     H4 7566   5.500   0.984   3.947  0.0595 -0.6724 -0.2400
  495THF     H5 7567   5.385   0.967   4.063  0.1367  0.4336 -1.5222
  495THF     H6 7568   5.619   1.252   4.139 -2.1406  0.9089 -4.0605
  495THF     H7 7569   5.482   1.283   4.237 -1.8008 -0.4451 -0.4600
  495THF     C8 7570   5.551   1.078   4.256 -0.7401  0.0260 -0.6957
  495THF     C9 7571   5.580   0.978   4.153  0.0230 -0.4145 -0.6893
  495THF    H10 7572   5.463   1.050   4.314 -0.5986 -1.1597 -1.0370
  495THF    H11 7573   5.634   1.099   4.323 -0.7007  0.7599 -0.9634
  495THF    H12 7574   5.678   0.989   4.107  0.1058  0.0044 -0.4175
  495THF    H13 7575   5.572   0.874   4.184  0.8094 -0.3246 -0.1774
  496THF     O1 7576   2.086   2.700   3.653 -0.2056  0.0008  0.0198
  496THF     C2 7577   2.139   2.720   3.523  0.1377  0.1256  0.5846
  496THF     C3 7578   2.042   2.824   3.702 -0.2260  0.4150  0.0929
  496THF     H4 7579   2.051   2.735   3.462 -0.7695 -0.5204  1.6915
  496THF     H5 7580   2.184   2.624   3.498 -1.7593 -1.1242  1.7367
  496THF     H6 7581   1.946   2.852   3.660 -0.3344 -0.0443  0.0328
  496THF     H7 7582   2.045   2.814   3.811  1.5232 -0.2990  0.0054
  496THF     C8 7583   2.147   2.915   3.647  0.0974  0.2042 -0.6636
  496THF     C9 7584   2.225   2.837   3.546 -0.1165  0.1744  0.8675
  496THF    H10 7585   2.221   2.936   3.724 -0.6701  0.9960 -0.1173
  496THF    H11 7586   2.099   3.010   3.623  0.1195 -0.2752 -2.7762
  496THF    H12 7587   2.242   2.900   3.459  0.6556  0.6364  1.3452
  496THF    H13 7588   2.320   2.811   3.592  0.5649 -1.0170 -1.0887
  497THF     O1 7589   4.751   3.160   0.565  0.1911  0.3682 -0.2533
  497THF     C2 7590   4.688   3.080   0.463  0.0845  0.0630  0.1098
  497THF     C3 7591   4.753   3.078   0.684 -0.4269 -0.1710  0.0778
  497THF     H4 7592   4.752   3.019   0.399 -2.2873 -1.9668 -0.4547
  497THF     H5 7593   4.643   3.153   0.395  1.5375  0.9158  0.0141
  497THF     H6 7594   4.836   3.008   0.684  1.2162  1.6388  1.6508
  497THF     H7 7595   4.757   3.143   0.772 -1.3846 -1.0413  0.7922
  497THF     C8 7596   4.613   3.009   0.684  0.0029 -0.2895 -0.2200
  497THF     C9 7597   4.585   2.991   0.533  0.4467 -0.3798 -0.1929
  497THF    H10 7598   4.535   3.080   0.712 -0.4521 -0.7061 -0.4207
  497THF    H11 7599   4.609   2.924   0.751  2.2929  0.3636  0.8801
  497THF    H12 7600   4.608   2.886   0.513 -0.0381 -0.6371  0.5419
  497THF    H13 7601   4.479   3.008   0.516  0.4937  0.6160  0.4297
  498THF     O1 7602   4.554   0.770   4.690 -0.6272  0.2776 -0.6700
  498THF     C2 7603   4.535   0.788   4.551 -0.4106 -0.4848 -0.0489
  498THF     C3 7604   4.433   0.772   4.764 -0.3616  0.3690  0.2057
  498THF     H4 7605   4.550   0.692   4.501  3.5126  0.5175 -1.1451
  498THF     H5 7606   4.601   0.859   4.502  0.6217 -2.1611 -1.1979
  498THF     H6 7607   4.421   0.672   4.804 -0.8763  0.4232  0.2020
  498THF     H7 7608   4.446   0.841   4.847  0.9904 -0.4052  0.6655
  498THF     C8 7609   4.320   0.808   4.672  0.6301  0.1316 -0.4797
  498THF     C9 7610   4.385   0.837   4.540  0.0666  0.7838 -0.1353
  498THF    H10 7611   4.257   0.886   4.714 -0.0462 -1.1374  0.9555
  498THF    H11 7612   4.255   0.720   4.662  1.8794 -1.0095  0.9875
  498THF    H12 7613   4.340   0.795   4.450  3.1352  0.0826 -1.4721
  498THF    H13 7614   4.382   0.945   4.528  0.0102  0.6867 -1.0311
  499THF     O1 7615   1.965   3.277   3.254  0.0138 -0.4639  0.0801
  499THF     C2 7616   2.102   3.254   3.236  0.0319  0.0168  1.0932
  499THF     C3 7617   1.892   3.155   3.281 -0.1075 -0.5207 -0.2009
  499THF     H4 7618   2.151   3.327   3.301  1.4142  0.9426 -0.8809
  499THF     H5 7619   2.136   3.278   3.136  1.3210  0.9323  1.7209
  499THF     H6 7620   1.799   3.182   3.330  1.2786  4.0411  0.4160
  499THF     H7 7621   1.853   3.110   3.190 -0.6029 -0.9011  0.1964
  499THF     C8 7622   1.998   3.070   3.348 -0.0927  0.1291  0.2836
  499THF     C9 7623   2.118   3.106   3.266  0.4519 -0.0096  0.2218
  499THF    H10 7624   1.978   2.966   3.374  1.7363 -0.1233  0.8361
  499THF    H11 7625   2.031   3.110   3.444 -0.5012 -1.9388  1.3392
  499THF    H12 7626   2.209   3.076   3.316  0.3351  2.7008  2.2375
  499THF    H13 7627   2.115   3.047   3.174  0.5369 -1.3332  1.0360
  500THF     O1 7628   1.271   5.474   1.330 -1.0295  0.5481  0.1247
  500THF     C2 7629   1.199   5.353   1.332 -0.5858 -0.4467 -0.1427
  500THF     C3 7630   1.197   5.587   1.366  0.9961  0.0101 -0.1309
  500THF     H4 7631   1.182   5.322   1.435 -0.8012  2.7084  0.8805
  500THF     H5 7632   1.245   5.275   1.272 -1.3724  0.8858 -2.6442
  500THF     H6 7633   1.207   5.615   1.471 -0.2048  2.1905 -0.5260
  500THF     H7 7634   1.223   5.677   1.309  0.4962  0.9045  1.0037
  500THF     C8 7635   1.057   5.539   1.341 -0.0190  0.0852  0.1364
  500THF     C9 7636   1.065   5.403   1.275 -0.4362  0.5588  1.3169
  500THF    H10 7637   0.996   5.605   1.278  0.7655 -0.3150 -1.0691
  500THF    H11 7638   1.003   5.534   1.435 -0.3668  0.0922 -0.0594
  500THF    H12 7639   0.981   5.341   1.309 -1.4577  1.5276  0.6132
  500THF    H13 7640   1.066   5.417   1.167  0.2137  2.2628  1.5157
  501THF     O1 7641   4.269   0.628   5.474 -0.3670 -0.1137 -0.1301
  501THF     C2 7642   4.250   0.495   5.424 -0.4667 -0.0683  0.2090
  501THF     C3 7643   4.275   0.618   5.618  0.5418  0.4444  0.8732
  501THF     H4 7644   4.278   0.481   5.320  0.7948  0.0583  0.5145
  501THF     H5 7645   4.147   0.461   5.433 -0.4148 -0.7312 -1.4144
  501THF     H6 7646   4.338   0.696   5.660  1.1597 -0.4234  1.6218
  501THF     H7 7647   4.175   0.611   5.661  0.0901 -0.3368 -0.2436
  501THF     C8 7648   4.341   0.487   5.649  0.2071  0.1844  0.2965
  501THF     C9 7649   4.341   0.416   5.517 -0.3358  0.4198  0.4964
  501THF    H10 7650   4.280   0.432   5.721 -0.2681 -1.2966 -1.1548
  501THF    H11 7651   4.441   0.510   5.684 -0.3942  1.4500  1.2707
  501THF    H12 7652   4.445   0.419   5.484 -0.3855  1.8653  0.3957
  501THF    H13 7653   4.317   0.311   5.531  0.6449  0.0986 -0.0560
  502THF     O1 7654   4.341   5.362   0.634  0.1462 -0.5732  0.2233
  502THF     C2 7655   4.394   5.440   0.524 -0.6522 -0.0024 -0.2915
  502THF     C3 7656   4.431   5.374   0.748  0.2222  0.6443 -0.1400
  502THF     H4 7657   4.355   5.542   0.519  0.3795  0.4614  0.5485
  502THF     H5 7658   4.359   5.387   0.436 -0.9005 -0.7006  0.2225
  502THF     H6 7659   4.379   5.412   0.836  1.3511  1.8222  0.0492
  502THF     H7 7660   4.470   5.275   0.772 -0.1900  0.4905 -0.0892
  502THF     C8 7661   4.548   5.460   0.701  0.4204 -0.3021  0.3237
  502THF     C9 7662   4.551   5.446   0.549 -0.1110  0.3782 -0.2330
  502THF    H10 7663   4.642   5.430   0.746  0.6155  1.5670  1.2413
  502THF    H11 7664   4.532   5.564   0.730 -0.9288 -1.6427  5.3170
  502THF    H12 7665   4.598   5.529   0.497 -0.2687  0.1659 -0.7223
  502THF    H13 7666   4.594   5.347   0.533  0.1742  0.1901  1.4666
  503THF     O1 7667   3.307   0.398   2.628  0.6025  0.1102  0.2801
  503THF     C2 7668   3.339   0.372   2.493 -0.3458 -0.2538  0.3438
  503THF     C3 7669   3.164   0.378   2.644  0.5954 -0.2650 -0.6075
  503THF     H4 7670   3.428   0.312   2.507 -0.1632 -0.4325 -1.3425
  503THF     H5 7671   3.370   0.457   2.431  0.1316  1.2563  2.5603
  503THF     H6 7672   3.138   0.351   2.747  1.9498  1.6760  0.2967
  503THF     H7 7673   3.110   0.469   2.619  0.5739 -0.2968 -0.6777
  503THF     C8 7674   3.126   0.269   2.536  0.3555 -0.6632  0.1348
  503THF     C9 7675   3.219   0.312   2.420  0.3517  0.0125  0.0653
  503THF    H10 7676   3.021   0.263   2.508  1.2779 -2.3324 -3.4956
  503THF    H11 7677   3.153   0.169   2.569 -0.9961 -0.9731  0.3224
  503THF    H12 7678   3.242   0.247   2.336  2.4610  2.5881 -1.5043
  503THF    H13 7679   3.183   0.397   2.362  1.4219 -0.2811 -1.0693
  504THF     O1 7680   1.791   2.754   5.403 -0.4320 -0.1468  0.3935
  504THF     C2 7681   1.878   2.756   5.290 -0.3652  0.2631 -0.1163
  504THF     C3 7682   1.768   2.899   5.432 -0.2931  0.1501 -0.0426
  504THF     H4 7683   1.825   2.768   5.196  2.8664 -1.5119 -2.3582
  504THF     H5 7684   1.930   2.662   5.272  0.1773  0.2638  1.3086
  504THF     H6 7685   1.704   2.944   5.356 -1.6752 -0.6302  0.6207
  504THF     H7 7686   1.714   2.905   5.527 -0.2788  1.0420 -0.0751
  504THF     C8 7687   1.909   2.960   5.429 -0.1891 -0.3987  0.0069
  504THF     C9 7688   1.979   2.866   5.324  0.1681 -0.7400 -0.0914
  504THF    H10 7689   1.959   2.958   5.526 -2.2403  0.6991  1.1498
  504THF    H11 7690   1.907   3.062   5.391 -0.1242 -0.2794  0.3246
  504THF    H12 7691   1.992   2.920   5.230  0.9716 -0.1978  0.3232
  504THF    H13 7692   2.080   2.831   5.344  0.7991  1.1951  0.3446
  505THF     O1 7693   1.868   3.480   2.787 -0.5984 -0.0197  0.1508
  505THF     C2 7694   1.879   3.611   2.730  0.1628 -0.0368 -0.4912
  505THF     C3 7695   1.744   3.474   2.857  0.4614  0.3523 -0.0244
  505THF     H4 7696   1.885   3.614   2.621  0.6391  0.5601 -0.4628
  505THF     H5 7697   1.977   3.647   2.762 -0.1681 -1.0172  1.8333
  505THF     H6 7698   1.680   3.435   2.778 -0.5984  2.1992 -0.1205
  505THF     H7 7699   1.754   3.402   2.938 -1.4180  1.0696  0.9114
  505THF     C8 7700   1.713   3.611   2.905 -0.6338  0.3912 -0.0819
  505THF     C9 7701   1.762   3.690   2.790 -0.7660 -0.4875 -0.3823
  505THF    H10 7702   1.775   3.635   2.992  1.2505  0.4637 -1.3892
  505THF    H11 7703   1.607   3.629   2.922 -0.8978 -0.0439 -1.2113
  505THF    H12 7704   1.687   3.702   2.711 -1.2966  0.2328  0.2140
  505THF    H13 7705   1.788   3.789   2.828  1.6069 -1.7299  1.4349
  506THF     O1 7706   4.572   3.189   3.719 -0.6990  0.3348 -0.0797
  506THF     C2 7707   4.679   3.282   3.724  0.3751  0.5311  0.2699
  506THF     C3 7708   4.523   3.192   3.856  0.5441 -0.6280  0.0751
  506THF     H4 7709   4.729   3.290   3.628  0.6320 -1.0705  0.2423
  506THF     H5 7710   4.769   3.231   3.760  0.0753 -1.3531 -1.4494
  506THF     H6 7711   4.426   3.145   3.872  0.2140  0.4975  1.6882
  506THF     H7 7712   4.590   3.143   3.928  1.2033 -1.4043 -1.0401
  506THF     C8 7713   4.530   3.343   3.887  0.4871  0.5951  0.2121
  506THF     C9 7714   4.638   3.403   3.806  0.6191  0.2235  0.1439
  506THF    H10 7715   4.538   3.347   3.995  2.3906  0.0760  0.1293
  506THF    H11 7716   4.438   3.397   3.869  2.1265  3.9358  1.1270
  506THF    H12 7717   4.598   3.478   3.737  2.5900 -0.3291 -1.7313
  506THF    H13 7718   4.714   3.448   3.870 -0.7381  1.2227  1.0869
  507THF     O1 7719   2.237   0.750   3.379  0.5714  0.6792 -0.0166
  507THF     C2 7720   2.360   0.728   3.439 -0.3933  0.3303  0.4637
  507THF     C3 7721   2.147   0.762   3.492  0.2086  0.4254  0.4815
  507THF     H4 7722   2.401   0.828   3.457 -1.7394  1.4409 -2.1797
  507THF     H5 7723   2.424   0.674   3.370 -0.3791  0.2573  0.5340
  507THF     H6 7724   2.117   0.866   3.499  0.9264  0.7973 -1.3313
  507THF     H7 7725   2.065   0.693   3.474  0.0141  1.0396 -1.1736
  507THF     C8 7726   2.222   0.712   3.625 -0.5728 -0.0970  0.3486
  507THF     C9 7727   2.346   0.649   3.560  0.2253  0.3093 -0.6914
  507THF    H10 7728   2.164   0.644   3.688  1.5179  1.0569  3.7564
  507THF    H11 7729   2.259   0.797   3.682  1.0073 -0.8949  0.5592
  507THF    H12 7730   2.435   0.638   3.622 -1.5482 -2.3782  1.6451
  507THF    H13 7731   2.320   0.546   3.536  0.9111 -0.6182  2.1518
  508THF     O1 7732   0.260   3.331   2.045  0.2973  0.2494 -0.2263
  508THF     C2 7733   0.222   3.321   1.911  0.2216  0.6061 -0.1810
  508THF     C3 7734   0.169   3.262   2.122  0.2231 -0.7073 -0.6510
  508THF     H4 7735   0.311   3.316   1.849  1.1897  1.6710  1.0607
  508THF     H5 7736   0.149   3.400   1.890 -1.1947 -0.3525  0.8733
  508THF     H6 7737   0.214   3.237   2.218  1.5254 -0.4718 -1.1813
  508THF     H7 7738   0.088   3.329   2.149  1.4491  0.9022 -0.8671
  508THF     C8 7739   0.146   3.137   2.044  0.0109  0.6571  0.6679
  508THF     C9 7740   0.162   3.182   1.899 -0.2392  0.1705  0.3078
  508THF    H10 7741   0.053   3.087   2.070  1.0526  0.0556  3.6371
  508THF    H11 7742   0.223   3.063   2.065  2.0070  2.0622 -1.2514
  508THF    H12 7743   0.231   3.115   1.848  2.5334  2.7101  0.4285
  508THF    H13 7744   0.075   3.165   1.836 -0.4702 -3.2509  1.3456
  509THF     O1 7745   3.637   0.946   1.211  0.4691 -0.4635 -0.1861
  509THF     C2 7746   3.523   0.877   1.230  0.3708 -0.1817  0.0415
  509THF     C3 7747   3.659   0.948   1.067  0.0678  0.6485  0.0987
  509THF     H4 7748   3.454   0.937   1.290  0.5717  2.0370 -1.8148
  509THF     H5 7749   3.543   0.782   1.279 -1.0565 -1.2589 -1.3291
  509THF     H6 7750   3.731   1.023   1.035  1.0351 -0.3745 -0.1905
  509THF     H7 7751   3.697   0.849   1.039 -1.1740  0.1029  0.2524
  509THF     C8 7752   3.523   0.951   1.010 -0.0975  0.3657 -0.0884
  509THF     C9 7753   3.455   0.847   1.100 -0.2288 -0.3154  0.1327
  509THF    H10 7754   3.515   0.912   0.909 -1.1539  0.6170 -0.1159
  509THF    H11 7755   3.476   1.049   1.015  1.0610  1.0694 -2.0318
  509THF    H12 7756   3.346   0.847   1.101 -0.2359 -1.0693  0.0452
  509THF    H13 7757   3.495   0.750   1.068  2.1491  0.4606  0.5194
  510THF     O1 7758   0.157   0.788   1.164 -0.7356  0.2789 -0.6228
  510THF     C2 7759   0.134   0.882   1.270  0.3148 -1.5435 -0.3024
  510THF     C3 7760   0.124   0.667   1.223  0.1629 -0.7334  0.1477
  510THF     H4 7761   0.141   0.988   1.244 -0.5281 -0.1708  4.1946
  510THF     H5 7762   0.201   0.866   1.354 -0.6971 -0.6040  0.7189
  510THF     H6 7763   0.116   0.586   1.150  0.8191  0.6884 -1.5678
  510THF     H7 7764   0.203   0.636   1.291 -1.3416 -1.8176  1.4980
  510THF     C8 7765  -0.002   0.690   1.306 -0.0159  0.5009  0.1407
  510THF     C9 7766  -0.001   0.837   1.320  0.0753  0.0040  0.2658
  510THF    H10 7767   0.004   0.639   1.402  0.0182 -1.4695 -0.8567
  510THF    H11 7768  -0.091   0.647   1.260  0.7542 -0.9173 -0.0700
  510THF    H12 7769  -0.075   0.881   1.252 -0.1112 -0.5100  0.1302
  510THF    H13 7770  -0.032   0.864   1.421 -1.8982  1.2606 -0.6121
  511THF     O1 7771   4.778   4.350   1.603  0.1351 -0.3036  0.1585
  511THF     C2 7772   4.824   4.318   1.467 -0.0445  0.0695 -0.4600
  511THF     C3 7773   4.895   4.401   1.679 -0.3749 -0.2500  0.7146
  511THF     H4 7774   4.785   4.388   1.393  1.9453  2.7334  0.8407
  511THF     H5 7775   4.798   4.216   1.440  2.3444 -0.4018 -1.2050
  511THF     H6 7776   4.907   4.509   1.674 -0.9006 -0.2047  0.3815
  511THF     H7 7777   4.886   4.377   1.785  1.9389  0.1731  1.0587
  511THF     C8 7778   5.015   4.329   1.615  0.5288 -0.1618  0.2464
  511THF     C9 7779   4.979   4.335   1.468 -0.4291  0.2317 -0.2898
  511THF    H10 7780   5.017   4.225   1.649  0.7502 -1.0725 -2.3688
  511THF    H11 7781   5.097   4.398   1.635 -0.5345  1.4574 -0.7959
  511THF    H12 7782   5.000   4.429   1.417 -2.3232  0.2543 -1.1308
  511THF    H13 7783   5.033   4.256   1.416  1.6798  0.9895  0.6756
  512THF     O1 7784   2.839   3.653   4.370  0.4387  0.5800  0.3532
  512THF     C2 7785   2.727   3.728   4.400  0.6719  0.4858  0.6787
  512THF     C3 7786   2.813   3.597   4.242  0.6340 -0.5511 -0.3289
  512THF     H4 7787   2.742   3.832   4.372 -0.1927  0.6828  0.9391
  512THF     H5 7788   2.702   3.724   4.506 -0.9183  1.0294  0.3492
  512THF     H6 7789   2.828   3.674   4.166  0.1026  0.3883  0.5022
  512THF     H7 7790   2.892   3.522   4.231  0.0077 -1.3139  0.2944
  512THF     C8 7791   2.674   3.552   4.238  0.3219  0.0246  0.1294
  512THF     C9 7792   2.614   3.669   4.314 -0.1981  0.6398  0.1869
  512THF    H10 7793   2.669   3.450   4.278  3.1320  0.0230  0.7119
  512THF    H11 7794   2.628   3.542   4.140 -2.3491  0.0901  1.3066
  512THF    H12 7795   2.560   3.741   4.253  0.7140  1.2525  0.0930
  512THF    H13 7796   2.539   3.636   4.386  0.4453  1.0946  1.0887
  513THF     O1 7797   2.394   4.414   3.510  0.6040 -0.2577 -0.1629
  513THF     C2 7798   2.276   4.459   3.579 -0.1152 -0.2976  0.4301
  513THF     C3 7799   2.497   4.507   3.530 -0.4123  0.4855  0.4637
  513THF     H4 7800   2.271   4.414   3.678 -4.2849  0.2729  0.6761
  513THF     H5 7801   2.184   4.431   3.528  0.0092 -1.6753  0.9222
  513THF     H6 7802   2.583   4.445   3.553  0.0131 -0.7507 -3.5834
  513THF     H7 7803   2.508   4.550   3.430  1.2310 -1.7115 -0.3894
  513THF     C8 7804   2.447   4.607   3.624  0.0736 -0.0917 -0.0767
  513THF     C9 7805   2.296   4.604   3.605  0.9246  0.6322  0.1090
  513THF    H10 7806   2.482   4.708   3.604 -2.6690  0.9578 -0.1500
  513THF    H11 7807   2.467   4.597   3.731  0.4883 -2.0813 -0.3060
  513THF    H12 7808   2.236   4.640   3.688 -1.5415  0.6881 -1.5934
  513THF    H13 7809   2.269   4.663   3.517 -0.8742 -1.4844 -0.8730
  514THF     O1 7810   4.412   2.882   5.162 -0.1458 -0.0795  0.0194
  514THF     C2 7811   4.356   2.955   5.057  0.9279  0.5217  0.6870
  514THF     C3 7812   4.522   2.948   5.210  0.1236 -0.2542 -0.0692
  514THF     H4 7813   4.285   3.030   5.091 -1.1985 -1.4266  0.7807
  514THF     H5 7814   4.295   2.888   4.996  0.8293  2.7759 -1.8730
  514THF     H6 7815   4.492   3.030   5.274  0.6801 -0.2984  0.2456
  514THF     H7 7816   4.578   2.872   5.264  1.1769  0.3795 -0.2598
  514THF     C8 7817   4.586   3.001   5.083  0.4447 -0.3193  0.2729
  514THF     C9 7818   4.474   3.020   4.982 -0.4228 -0.6023 -0.1020
  514THF    H10 7819   4.657   2.928   5.045  2.0086  1.2140  0.1129
  514THF    H11 7820   4.656   3.083   5.098 -0.0430  0.0838  0.3744
  514THF    H12 7821   4.453   3.122   4.950 -2.5563 -1.1419 -0.5152
  514THF    H13 7822   4.486   2.959   4.893  1.8519 -3.8640  2.1976
  515THF     O1 7823   1.025   3.611   2.350  0.0943 -0.0001 -0.0844
  515THF     C2 7824   1.047   3.652   2.488  0.1853  0.3777 -0.2994
  515THF     C3 7825   0.993   3.475   2.354 -0.8078 -0.0108  0.1297
  515THF     H4 7826   1.044   3.759   2.506 -1.5801  0.1521  1.1406
  515THF     H5 7827   1.145   3.609   2.509 -0.0311  0.8070  1.7822
  515THF     H6 7828   0.938   3.442   2.265 -1.3154  1.6286 -0.1969
  515THF     H7 7829   1.085   3.420   2.374 -0.8028 -0.6317 -1.4394
  515THF     C8 7830   0.897   3.463   2.473  0.4497 -0.0267  0.0205
  515THF     C9 7831   0.927   3.582   2.566 -0.4338  0.6680  0.1382
  515THF    H10 7832   0.902   3.368   2.527  3.0265 -0.1029 -0.2225
  515THF    H11 7833   0.797   3.479   2.433  0.9143 -1.8112 -2.0492
  515THF    H12 7834   0.835   3.638   2.581 -0.3061  0.3569  2.6421
  515THF    H13 7835   0.976   3.564   2.662 -0.9836 -0.1046  0.2813
  516THF     O1 7836   5.143   2.262   2.564 -0.9617  0.4065  0.0560
  516THF     C2 7837   5.239   2.168   2.504 -0.1353 -0.3583 -0.6452
  516THF     C3 7838   5.218   2.369   2.612 -0.5182 -0.4560 -0.7635
  516THF     H4 7839   5.186   2.110   2.429 -0.4533 -2.2349  0.9554
  516THF     H5 7840   5.278   2.093   2.573 -1.5518 -0.7018 -0.2003
  516THF     H6 7841   5.154   2.455   2.629 -1.2164 -1.4849  2.5593
  516THF     H7 7842   5.261   2.341   2.708 -1.6227  0.1848 -0.0706
  516THF     C8 7843   5.324   2.402   2.504  0.4894 -0.1011 -0.2723
  516THF     C9 7844   5.349   2.268   2.441  0.2614  0.1488  0.2136
  516THF    H10 7845   5.425   2.437   2.528  0.3114 -0.5768  1.2865
  516THF    H11 7846   5.273   2.461   2.428  0.6815 -2.1285 -2.0563
  516THF    H12 7847   5.339   2.249   2.334 -2.9804 -2.4832  0.8133
  516THF    H13 7848   5.448   2.233   2.468 -0.1335 -1.5163 -0.3876
  517THF     O1 7849   0.322   0.947   1.594 -0.0130 -0.2538  0.2438
  517THF     C2 7850   0.303   0.826   1.669 -0.1028  0.3005 -0.2135
  517THF     C3 7851   0.255   1.054   1.653  0.3618  0.8109 -0.4946
  517THF     H4 7852   0.369   0.824   1.756  1.0104  0.3425 -1.0274
  517THF     H5 7853   0.316   0.736   1.609 -0.5417  1.7772 -2.6539
  517THF     H6 7854   0.315   1.100   1.732  0.0032  1.1393 -0.4103
  517THF     H7 7855   0.230   1.131   1.581 -1.8836 -0.1759 -0.8579
  517THF     C8 7856   0.122   0.993   1.701  0.1882 -0.0214  0.2132
  517THF     C9 7857   0.154   0.843   1.696 -0.4613 -0.2288  0.1411
  517THF    H10 7858   0.039   1.019   1.636 -0.7436  0.8471  1.6996
  517THF    H11 7859   0.090   1.031   1.798  0.5753  1.0544 -0.0635
  517THF    H12 7860   0.127   0.792   1.788  1.2861  0.2345  0.9584
  517THF    H13 7861   0.098   0.792   1.618  2.5269 -1.2589 -1.4939
  518THF     O1 7862   3.456   5.339   2.066 -0.3687 -0.4108 -0.4512
  518THF     C2 7863   3.344   5.276   2.013  0.7772 -0.8479 -0.3465
  518THF     C3 7864   3.462   5.469   2.006  0.1988 -0.1924  0.0203
  518THF     H4 7865   3.304   5.186   2.059 -3.3296  0.1498 -1.5769
  518THF     H5 7866   3.373   5.244   1.913  0.1676  0.4790 -0.9851
  518THF     H6 7867   3.519   5.545   2.059 -1.2451  1.3493 -0.5621
  518THF     H7 7868   3.497   5.473   1.903 -0.7144  0.7398 -0.2697
  518THF     C8 7869   3.312   5.509   2.003 -0.9687 -0.2342  0.5925
  518THF     C9 7870   3.238   5.384   2.009  0.2961 -0.6736 -0.1691
  518THF    H10 7871   3.296   5.561   1.908 -1.3175 -1.5025 -0.0657
  518THF    H11 7872   3.277   5.574   2.084 -1.6513 -0.5619  0.5677
  518THF    H12 7873   3.179   5.389   2.101  0.2723 -0.1715 -0.2064
  518THF    H13 7874   3.170   5.367   1.926 -0.4462 -2.1744  0.7197
  519THF     O1 7875   0.706   3.362   2.193  0.0570 -0.8833  0.1767
  519THF     C2 7876   0.572   3.336   2.140  0.7645 -0.2195 -0.5829
  519THF     C3 7877   0.735   3.244   2.274  0.7413 -0.8534 -0.0964
  519THF     H4 7878   0.530   3.403   2.064 -1.3151 -2.9986 -2.0996
  519THF     H5 7879   0.505   3.347   2.225  2.5627 -0.3144  0.8924
  519THF     H6 7880   0.842   3.231   2.289  0.8805  1.4780  1.4803
  519THF     H7 7881   0.695   3.260   2.374 -1.5787  2.1934 -1.3571
  519THF     C8 7882   0.676   3.130   2.186 -0.2254  0.9424 -1.1502
  519THF     C9 7883   0.583   3.194   2.088 -0.3289 -0.1272 -0.3821
  519THF    H10 7884   0.624   3.054   2.245  0.5886  0.4933 -1.0004
  519THF    H11 7885   0.761   3.078   2.142  0.8637 -0.2749  2.1118
  519THF    H12 7886   0.621   3.194   1.986 -2.8360  0.5076 -1.3649
  519THF    H13 7887   0.483   3.152   2.084  0.2383 -1.5680 -0.1901
  520THF     O1 7888   1.694   0.198   0.497  0.2926  0.4766  0.1734
  520THF     C2 7889   1.567   0.246   0.450 -0.5067 -0.5242 -0.0401
  520THF     C3 7890   1.682   0.172   0.633  0.4021 -0.0785 -0.6969
  520THF     H4 7891   1.504   0.157   0.451 -0.1197 -0.8083 -0.3434
  520THF     H5 7892   1.565   0.290   0.351 -0.0167 -1.8197 -0.6525
  520THF     H6 7893   1.615   0.086   0.642 -1.0549  0.4811 -4.4847
  520THF     H7 7894   1.780   0.152   0.676 -0.7862  0.3742  2.4953
  520THF     C8 7895   1.603   0.292   0.682  0.6830 -0.6395 -0.7676
  520THF     C9 7896   1.508   0.329   0.563 -0.3301 -0.2758  0.2748
  520THF    H10 7897   1.682   0.367   0.692  0.8782 -0.8989 -0.3097
  520THF    H11 7898   1.551   0.268   0.775  1.2301 -0.3102 -0.3689
  520THF    H12 7899   1.403   0.300   0.571 -0.6926  0.6468 -0.8809
  520THF    H13 7900   1.516   0.436   0.541  0.4353 -0.5104 -0.6540
  521THF     O1 7901   1.740   4.246   0.613 -0.2570 -0.0111  0.5556
  521THF     C2 7902   1.628   4.253   0.531  0.6830 -0.2342 -0.2140
  521THF     C3 7903   1.694   4.251   0.747 -0.5280 -0.4455 -0.8728
  521THF     H4 7904   1.617   4.167   0.464  1.2492 -1.3151  1.0296
  521THF     H5 7905   1.650   4.334   0.462  1.4291 -1.2848 -1.2561
  521THF     H6 7906   1.655   4.154   0.779 -0.0092 -0.5216 -0.4481
  521THF     H7 7907   1.771   4.284   0.817 -0.4564 -0.0767 -1.1229
  521THF     C8 7908   1.570   4.341   0.753 -0.1683  0.1752 -0.2252
  521THF     C9 7909   1.508   4.295   0.616 -0.7996  0.5968 -0.2002
  521THF    H10 7910   1.612   4.440   0.737  1.2299 -0.0762  1.6348
  521THF    H11 7911   1.516   4.333   0.847  0.6554  2.0764  0.4496
  521THF    H12 7912   1.436   4.214   0.632 -1.3042  1.2274  0.8397
  521THF    H13 7913   1.450   4.375   0.571 -0.6696  0.9486  0.2518
  522THF     O1 7914   2.436   3.268   4.410  0.5895  0.7934 -0.4364
  522THF     C2 7915   2.316   3.336   4.431 -0.0351 -0.5833 -0.1638
  522THF     C3 7916   2.445   3.230   4.277  0.6003 -0.0480 -0.3736
  522THF     H4 7917   2.342   3.442   4.426  0.9857 -0.7630  0.9233
  522THF     H5 7918   2.282   3.322   4.533 -1.6595 -0.9113 -0.7173
  522THF     H6 7919   2.475   3.311   4.210 -1.4869  0.0458 -1.2891
  522THF     H7 7920   2.507   3.141   4.266 -0.4592 -0.7357 -0.9484
  522THF     C8 7921   2.301   3.191   4.240 -0.2535 -0.2362  0.1834
  522THF     C9 7922   2.219   3.279   4.328 -0.5359  0.0467 -0.5959
  522THF    H10 7923   2.286   3.084   4.257 -2.3053  0.2083  1.4411
  522THF    H11 7924   2.282   3.199   4.133 -2.6156 -0.7948  0.5201
  522THF    H12 7925   2.172   3.352   4.263 -1.6467 -0.7473 -0.7169
  522THF    H13 7926   2.138   3.220   4.372 -0.2804 -0.7437 -1.1619
  523THF     O1 7927   1.065   0.930   2.262  0.1894  0.6873  0.1692
  523THF     C2 7928   1.009   0.833   2.350  0.3818  0.4293  0.1887
  523THF     C3 7929   0.989   0.931   2.137  1.1719  0.0798 -0.3177
  523THF     H4 7930   1.058   0.833   2.448 -0.4009  2.2147  0.6164
  523THF     H5 7931   1.037   0.742   2.297 -1.5051 -0.1733  0.1586
  523THF     H6 7932   0.992   1.028   2.088  2.2283 -0.0331 -0.5019
  523THF     H7 7933   1.015   0.852   2.067  0.0315  0.6281 -1.4025
  523THF     C8 7934   0.845   0.904   2.180  0.0256 -0.2010  0.0799
  523THF     C9 7935   0.860   0.873   2.330  0.3935  0.5170  0.2777
  523THF    H10 7936   0.794   0.825   2.125 -1.1984  0.1344  0.7059
  523THF    H11 7937   0.785   0.993   2.162  0.2955 -0.1248 -0.4651
  523THF    H12 7938   0.838   0.961   2.390  0.5353  0.1783  0.8286
  523THF    H13 7939   0.795   0.793   2.364 -0.0625 -0.2205 -2.1621
  524THF     O1 7940   1.485   1.983   2.809 -0.6065  0.2275 -0.1055
  524THF     C2 7941   1.538   2.093   2.874 -0.1600 -0.3100  0.2083
  524THF     C3 7942   1.422   1.915   2.908  0.3718 -0.3759 -0.1638
  524THF     H4 7943   1.469   2.175   2.890 -0.3746 -0.2116 -1.1293
  524THF     H5 7944   1.630   2.127   2.827  0.0217 -1.3402 -0.2055
  524THF     H6 7945   1.322   1.956   2.919  0.6912  0.6203 -0.8202
  524THF     H7 7946   1.428   1.815   2.865  0.0128  0.3424 -1.9713
  524THF     C8 7947   1.502   1.921   3.034  0.3919 -0.2860 -0.0133
  524THF     C9 7948   1.584   2.046   3.010 -0.4396  0.1285 -0.0417
  524THF    H10 7949   1.561   1.830   3.042 -0.0208 -0.6095 -0.5922
  524THF    H11 7950   1.434   1.927   3.120  1.1085  0.1744  0.5336
  524THF    H12 7951   1.570   2.120   3.089  0.4056 -2.3232  2.5304
  524THF    H13 7952   1.689   2.020   3.012  0.2566  2.5889 -0.5405
  525THF     O1 7953   3.667   0.428   4.006 -0.2364 -0.6332 -0.3983
  525THF     C2 7954   3.713   0.323   3.925 -0.4732  0.0632  0.0040
  525THF     C3 7955   3.747   0.437   4.127  0.0243  0.3789  0.2895
  525THF     H4 7956   3.732   0.348   3.820  0.2961 -2.5064 -0.5336
  525THF     H5 7957   3.657   0.230   3.924 -0.1086 -0.2321  2.3272
  525THF     H6 7958   3.767   0.535   4.171 -1.0700  0.1972  1.2476
  525THF     H7 7959   3.712   0.365   4.200 -0.3050 -0.0776 -0.3128
  525THF     C8 7960   3.888   0.406   4.069 -0.1080  0.0114  0.4770
  525THF     C9 7961   3.858   0.292   3.971  0.0870  0.3041 -0.0847
  525THF    H10 7962   3.951   0.376   4.153  0.2603 -0.3520  0.0819
  525THF    H11 7963   3.937   0.491   4.022  1.1846 -0.6481  0.5607
  525THF    H12 7964   3.930   0.278   3.891 -0.4292  1.2917 -0.7461
  525THF    H13 7965   3.848   0.198   4.024 -1.9606 -0.4151 -1.5884
  526THF     O1 7966   3.158   3.465   3.282  0.2307 -0.2494 -0.1313
  526THF     C2 7967   3.218   3.530   3.395  0.4134  0.0548 -0.0676
  526THF     C3 7968   3.162   3.322   3.303  0.6803 -0.0710  0.1554
  526THF     H4 7969   3.172   3.628   3.398 -2.6658 -1.3002  0.6023
  526THF     H5 7970   3.327   3.536   3.396  0.3717  1.0323 -0.5351
  526THF     H6 7971   3.099   3.262   3.238 -1.1836  0.3539  1.4822
  526THF     H7 7972   3.263   3.300   3.267  0.1867  0.5401 -1.6777
  526THF     C8 7973   3.152   3.300   3.460 -0.3373 -0.1949  0.2476
  526THF     C9 7974   3.172   3.443   3.516  0.8183 -0.4499  0.3599
  526THF    H10 7975   3.230   3.227   3.480 -0.7549 -0.3592  1.3449
  526THF    H11 7976   3.054   3.256   3.479  0.5586 -3.6599 -2.1448
  526THF    H12 7977   3.078   3.488   3.546  0.7261  0.0365 -0.6113
  526THF    H13 7978   3.239   3.457   3.601 -0.4697  1.2787  1.1482
  527THF     O1 7979   5.151   4.702   5.255 -0.5073  0.3264  0.0514
  527THF     C2 7980   5.073   4.803   5.199  0.3232 -0.0155 -0.2202
  527THF     C3 7981   5.242   4.658   5.154 -0.3472 -0.3793 -0.1343
  527THF     H4 7982   5.096   4.901   5.241 -0.3412  0.5545 -1.1562
  527THF     H5 7983   4.966   4.786   5.214 -0.4195  2.1806 -2.4892
  527THF     H6 7984   5.330   4.720   5.173 -0.5379  0.0989 -0.7666
  527THF     H7 7985   5.270   4.557   5.183  2.0752  0.0376 -0.7531
  527THF     C8 7986   5.169   4.679   5.030 -0.7263 -0.4981  0.1708
  527THF     C9 7987   5.095   4.808   5.056  0.4378  0.7303 -0.0567
  527THF    H10 7988   5.098   4.600   5.006  1.5437 -1.8012 -3.0134
  527THF    H11 7989   5.226   4.684   4.937  0.9447  1.9211  1.2011
  527THF    H12 7990   5.165   4.890   5.035  0.9575 -0.0602 -1.5731
  527THF    H13 7991   5.009   4.829   4.993  2.3043 -0.0913 -3.0503
  528THF     O1 7992   2.302   1.690   5.322 -0.2479  0.0884  0.5204
  528THF     C2 7993   2.190   1.616   5.280 -0.4967 -0.0557 -0.7063
  528THF     C3 7994   2.370   1.614   5.426 -0.4113 -0.4293  0.2383
  528THF     H4 7995   2.138   1.658   5.194 -0.2945 -0.0810 -0.8440
  528THF     H5 7996   2.117   1.618   5.360  1.1751  2.1731  0.8890
  528THF     H6 7997   2.473   1.650   5.418  0.1262 -2.2322 -2.6700
  528THF     H7 7998   2.321   1.627   5.522  0.6098 -0.5474  0.7976
  528THF     C8 7999   2.368   1.475   5.373  0.4427  0.1704  0.5731
  528THF     C9 8000   2.257   1.473   5.263  1.0775  0.1278 -0.2752
  528THF    H10 8001   2.352   1.413   5.461  1.3467 -0.3770  0.3590
  528THF    H11 8002   2.463   1.453   5.325 -0.7160 -2.1105 -0.9016
  528THF    H12 8003   2.305   1.456   5.167 -0.0179 -2.2410 -0.4777
  528THF    H13 8004   2.183   1.392   5.267 -0.2275  1.1670 -1.9319
  529THF     O1 8005   1.091   1.364   2.351  0.2210 -0.2554 -0.0569
  529THF     C2 8006   1.022   1.417   2.464  0.7945 -0.5969 -0.4525
  529THF     C3 8007   1.106   1.228   2.371 -0.6757 -0.2280  0.7799
  529THF     H4 8008   0.918   1.396   2.441  0.5252  0.8106 -0.6495
  529THF     H5 8009   1.034   1.525   2.454 -2.3232 -0.1332 -0.0695
  529THF     H6 8010   1.014   1.186   2.329 -0.4583  0.5429 -0.5434
  529THF     H7 8011   1.193   1.178   2.329 -0.4217  0.5963  0.2994
  529THF     C8 8012   1.109   1.218   2.527  0.1124 -0.0680 -0.0494
  529THF     C9 8013   1.072   1.346   2.587 -0.1476 -0.2658  0.6848
  529THF    H10 8014   1.206   1.181   2.559 -0.1369 -1.5983 -0.9238
  529THF    H11 8015   1.047   1.133   2.557 -0.8612  0.6613  0.0688
  529THF    H12 8016   1.006   1.345   2.673 -0.4485  2.4300  0.5517
  529THF    H13 8017   1.159   1.392   2.633 -0.2839 -0.4509  1.1314
  530THF     O1 8018   3.964   4.433   0.522  0.0595 -0.3117  0.2099
  530THF     C2 8019   3.996   4.552   0.583 -0.4292 -0.2710  0.4681
  530THF     C3 8020   4.079   4.354   0.510 -0.7996 -0.4252  0.3049
  530THF     H4 8021   3.989   4.546   0.692 -2.0421  2.2907  0.5830
  530THF     H5 8022   3.931   4.629   0.541 -0.8586  0.0607  1.7039
  530THF     H6 8023   4.104   4.310   0.607  0.2306  0.6024  0.5406
  530THF     H7 8024   4.064   4.278   0.434 -0.8272  0.7611 -0.9161
  530THF     C8 8025   4.188   4.453   0.474 -0.5819 -0.5299  0.2537
  530THF     C9 8026   4.142   4.580   0.541 -0.6028  0.0568  0.4594
  530THF    H10 8027   4.188   4.486   0.370 -0.3432  0.6744  0.6240
  530THF    H11 8028   4.289   4.416   0.491 -0.7746 -1.1391  0.0908
  530THF    H12 8029   4.192   4.578   0.638 -1.5478  0.9311  0.9862
  530THF    H13 8030   4.150   4.674   0.488  0.0301 -0.9241 -1.2751
  531THF     O1 8031   3.710   0.007   2.426 -0.2733 -0.7624 -0.1190
  531THF     C2 8032   3.676   0.135   2.488  0.0151  0.1308 -0.2515
  531THF     C3 8033   3.608  -0.088   2.432  0.7276 -0.1538  0.3854
  531THF     H4 8034   3.640   0.202   2.410 -0.4778  2.3303  1.7652
  531THF     H5 8035   3.755   0.177   2.549 -0.2239 -0.2366  0.3278
  531THF     H6 8036   3.594  -0.144   2.339  2.2234  0.7642 -0.4383
  531THF     H7 8037   3.634  -0.164   2.506 -4.3479 -0.9569  1.6867
  531THF     C8 8038   3.486  -0.018   2.482 -0.6909 -0.1490  0.9493
  531THF     C9 8039   3.555   0.083   2.574 -0.7074  0.0566 -0.1301
  531THF    H10 8040   3.420  -0.091   2.530 -3.4204  1.6644  0.1925
  531THF    H11 8041   3.437   0.038   2.402  0.1321 -0.4536  0.2231
  531THF    H12 8042   3.507   0.163   2.631 -0.7113  0.1644 -0.2852
  531THF    H13 8043   3.605   0.032   2.656  1.4353 -0.3408 -1.6125
  532THF     O1 8044   0.306   0.851   2.717 -0.2395  0.7159  0.7186
  532THF     C2 8045   0.280   0.737   2.639  0.3767  0.3096 -0.2549
  532THF     C3 8046   0.414   0.923   2.665 -0.7569 -0.0566  0.2188
  532THF     H4 8047   0.215   0.770   2.557  1.5529 -0.2051 -1.4313
  532THF     H5 8048   0.228   0.656   2.690 -0.0614  0.4898 -0.4051
  532THF     H6 8049   0.372   0.996   2.597 -2.6342 -2.1494 -1.0042
  532THF     H7 8050   0.472   0.975   2.741  1.5202  1.6211 -2.4530
  532THF     C8 8051   0.502   0.821   2.590 -0.1377  0.9691  0.2189
  532THF     C9 8052   0.426   0.695   2.593  0.1663  0.1828 -0.4640
  532THF    H10 8053   0.601   0.806   2.634  0.1652 -0.1816 -0.7993
  532THF    H11 8054   0.511   0.853   2.487 -1.8683 -0.6410 -0.4759
  532THF    H12 8055   0.419   0.642   2.498  0.8001  0.6485 -0.7760
  532THF    H13 8056   0.469   0.626   2.666 -1.4015 -0.5620 -0.2121
  533THF     O1 8057   5.246   4.434   1.055  0.1982 -0.1414  0.5313
  533THF     C2 8058   5.209   4.314   1.127 -0.2966 -0.5710 -0.2850
  533THF     C3 8059   5.380   4.422   1.008  0.3850 -0.2553  0.2752
  533THF     H4 8060   5.104   4.308   1.155 -0.0963 -3.3941  0.1606
  533THF     H5 8061   5.258   4.314   1.224 -1.6043  0.8829  0.4136
  533THF     H6 8062   5.407   4.491   0.928  1.1721 -1.6165 -0.6813
  533THF     H7 8063   5.462   4.432   1.078  1.9799  0.2105 -1.5675
  533THF     C8 8064   5.376   4.286   0.948  0.3962 -0.0000 -0.7089
  533THF     C9 8065   5.267   4.205   1.035 -0.1239 -0.3954 -0.7603
  533THF    H10 8066   5.474   4.239   0.943 -0.6470 -2.2238 -1.6145
  533THF    H11 8067   5.340   4.283   0.845  1.0999  0.5394 -0.9744
  533THF    H12 8068   5.199   4.155   0.965 -0.9803 -0.8549  0.3683
  533THF    H13 8069   5.316   4.128   1.094 -0.2316 -2.1738 -2.8653
  534THF     O1 8070   2.387   5.416   1.622  0.2683 -0.9021 -0.0158
  534THF     C2 8071   2.424   5.558   1.617 -0.4105 -0.2368  0.1611
  534THF     C3 8072   2.501   5.343   1.605 -0.0567 -1.1013  0.3994
  534THF     H4 8073   2.416   5.610   1.712  1.2800  1.1646 -0.4072
  534THF     H5 8074   2.358   5.604   1.544  1.0734  0.5538 -0.7198
  534THF     H6 8075   2.550   5.337   1.703  0.1957  0.9571  0.4314
  534THF     H7 8076   2.476   5.244   1.567 -0.8118 -1.2825  1.3275
  534THF     C8 8077   2.583   5.429   1.518  0.5276 -0.1839  0.0221
  534THF     C9 8078   2.569   5.566   1.579 -0.0603 -0.3116 -0.6874
  534THF    H10 8079   2.547   5.447   1.417 -0.9627  2.2326  0.8749
  534THF    H11 8080   2.688   5.400   1.520  1.1102  1.7382 -0.5167
  534THF    H12 8081   2.638   5.571   1.663 -0.6641  0.5612 -0.2333
  534THF    H13 8082   2.585   5.661   1.529 -0.3211  0.4321  0.6167
  535THF     O1 8083   0.745   0.415   4.455  0.2890 -0.2868  0.3118
  535THF     C2 8084   0.882   0.367   4.470 -0.0900  0.1726  0.1739
  535THF     C3 8085   0.656   0.328   4.532 -0.4313  0.9599  0.4449
  535THF     H4 8086   0.948   0.442   4.428  0.3897  2.1886  4.0651
  535THF     H5 8087   0.881   0.274   4.413 -0.3309  0.4659 -0.3074
  535THF     H6 8088   0.554   0.365   4.537  0.2926  3.0556  0.9232
  535THF     H7 8089   0.643   0.234   4.479  0.1299  0.6163  0.9058
  535THF     C8 8090   0.741   0.311   4.658  0.0239  0.4862  0.1906
  535THF     C9 8091   0.892   0.334   4.618  0.2600  0.5011  0.1880
  535THF    H10 8092   0.731   0.210   4.697  0.0193  0.2435 -0.4275
  535THF    H11 8093   0.727   0.377   4.743  0.4270 -0.3387  0.9025
  535THF    H12 8094   0.933   0.422   4.667 -2.0913  1.1999  1.0242
  535THF    H13 8095   0.961   0.251   4.640  0.0591 -0.1856 -1.5917
  536THF     O1 8096   1.438   2.452   2.117 -0.7053  0.0238 -0.1494
  536THF     C2 8097   1.385   2.359   2.209 -0.0051  0.4019 -0.0814
  536THF     C3 8098   1.443   2.391   1.988  0.3702  0.5461  0.5655
  536THF     H4 8099   1.276   2.355   2.215  0.0860 -1.3389  3.3763
  536THF     H5 8100   1.429   2.379   2.307  0.2592 -2.2050  0.4291
  536THF     H6 8101   1.339   2.391   1.954  0.3174 -3.5576  0.2454
  536THF     H7 8102   1.521   2.420   1.918 -0.5999 -1.8283 -1.6859
  536THF     C8 8103   1.473   2.247   2.016 -0.6702  0.2875  0.5357
  536THF     C9 8104   1.426   2.223   2.159 -0.1240  0.6820 -0.0043
  536THF    H10 8105   1.579   2.222   2.010 -0.4980  1.2049 -0.7799
  536THF    H11 8106   1.427   2.185   1.938  1.6906  0.5058 -1.1313
  536THF    H12 8107   1.343   2.153   2.167  0.2785 -0.0081 -1.4976
  536THF    H13 8108   1.516   2.193   2.213  2.0840  0.9092 -3.2471
  537THF     O1 8109   1.450   1.885   0.731 -0.8850 -0.3363 -0.8461
  537THF     C2 8110   1.522   1.895   0.608 -0.2751 -0.1639  0.1896
  537THF     C3 8111   1.312   1.914   0.714 -0.3717 -0.5428 -0.1376
  537THF     H4 8112   1.594   1.814   0.611 -0.3823 -0.2593  0.2177
  537THF     H5 8113   1.571   1.992   0.601 -1.4048  0.4029 -0.1427
  537THF     H6 8114   1.252   1.840   0.766 -1.0883 -1.1479 -1.7786
  537THF     H7 8115   1.288   2.004   0.770  0.9034 -0.8156  0.9087
  537THF     C8 8116   1.291   1.928   0.567 -0.4263 -0.7787  0.2518
  537THF     C9 8117   1.418   1.864   0.506 -0.0617  0.1887 -0.1286
  537THF    H10 8118   1.281   2.034   0.541 -1.7241 -0.6472  1.1692
  537THF    H11 8119   1.197   1.881   0.540 -0.0434 -0.5539 -1.5969
  537THF    H12 8120   1.405   1.755   0.505 -1.1610  0.3158 -1.0647
  537THF    H13 8121   1.435   1.900   0.405  0.7427  5.0981  1.4792
  538THF     O1 8122   0.634   3.338   3.227  0.1326 -0.1713 -0.8766
  538THF     C2 8123   0.526   3.386   3.309 -0.2026  0.2493 -0.1340
  538THF     C3 8124   0.581   3.230   3.148 -0.5422 -0.2571 -0.5634
  538THF     H4 8125   0.446   3.423   3.245 -0.2479  0.3082 -0.0433
  538THF     H5 8126   0.561   3.458   3.383 -1.5453  0.6959  0.1018
  538THF     H6 8127   0.525   3.275   3.065  0.4760  0.7850 -0.7159
  538THF     H7 8128   0.661   3.162   3.119  0.3968 -0.2776  1.8251
  538THF     C8 8129   0.481   3.152   3.247  0.2589 -0.3155 -0.0105
  538THF     C9 8130   0.486   3.253   3.371 -0.1265 -0.5946  1.0622
  538THF    H10 8131   0.531   3.058   3.270  1.3434 -0.3925 -2.4357
  538THF    H11 8132   0.381   3.139   3.206 -0.6810  2.5419  1.1381
  538THF    H12 8133   0.390   3.254   3.422 -1.2478  1.2432 -0.9298
  538THF    H13 8134   0.551   3.213   3.449  1.3574  0.9027  0.6529
  539THF     O1 8135   1.756   2.815   0.482  0.6618 -0.1301  0.7758
  539THF     C2 8136   1.799   2.885   0.369 -0.0850  0.0759  0.1021
  539THF     C3 8137   1.723   2.682   0.450  0.0204 -0.1230  0.1486
  539THF     H4 8138   1.862   2.969   0.401  0.9040 -0.7893  0.5035
  539THF     H5 8139   1.711   2.922   0.317  0.2686  1.0105  0.1482
  539THF     H6 8140   1.753   2.617   0.531 -1.8725  0.4186  1.3429
  539THF     H7 8141   1.617   2.661   0.437 -0.3443  1.1040  1.0082
  539THF     C8 8142   1.808   2.639   0.334  0.0563 -0.1352  0.2105
  539THF     C9 8143   1.872   2.773   0.289  0.4483 -0.0212  0.4376
  539THF    H10 8144   1.742   2.591   0.262 -0.3675 -2.4104  2.0120
  539THF    H11 8145   1.888   2.571   0.363  2.5044  2.4411 -0.0307
  539THF    H12 8146   1.979   2.766   0.307  0.3537  0.2037  1.1251
  539THF    H13 8147   1.860   2.775   0.181  1.4867  0.7070  0.3230
  540THF     O1 8148   4.897   0.890   4.158 -0.2429 -0.3397  0.8093
  540THF     C2 8149   4.813   0.857   4.266  0.4687 -0.1282  0.7658
  540THF     C3 8150   4.876   0.812   4.041 -0.3130 -0.5109  0.2352
  540THF     H4 8151   4.718   0.908   4.253  0.1489 -1.0736 -1.0099
  540THF     H5 8152   4.851   0.884   4.365  1.7856  0.9327  0.0064
  540THF     H6 8153   4.828   0.881   3.971 -0.0554  0.6229  1.1400
  540THF     H7 8154   4.960   0.771   3.986 -1.4550  1.2520 -3.1129
  540THF     C8 8155   4.802   0.688   4.094  0.2573 -0.6965 -0.6320
  540THF     C9 8156   4.800   0.709   4.246  0.1507 -0.0593  0.5059
  540THF    H10 8157   4.837   0.591   4.060  0.4122 -0.2185 -1.8711
  540THF    H11 8158   4.701   0.698   4.057  0.0672 -1.1831 -0.2519
  540THF    H12 8159   4.713   0.665   4.293  0.3012 -1.8990 -0.8631
  540THF    H13 8160   4.891   0.664   4.285  0.4248  0.2780  0.2680
  541THF     O1 8161   2.645   4.982   1.289 -0.5364  0.0562 -0.0652
  541THF     C2 8162   2.559   5.093   1.252 -0.2664 -0.0464  0.7848
  541THF     C3 8163   2.603   4.868   1.215 -0.5813 -0.4883  0.3306
  541THF     H4 8164   2.595   5.133   1.158 -2.0018 -0.4098 -0.0768
  541THF     H5 8165   2.578   5.177   1.318 -0.3343 -0.4516  1.3294
  541THF     H6 8166   2.632   4.870   1.110 -1.5687 -1.5965  0.0191
  541THF     H7 8167   2.644   4.778   1.260 -1.3601 -0.4794  1.0840
  541THF     C8 8168   2.454   4.875   1.231 -0.2569 -0.7994 -0.1852
  541THF     C9 8169   2.421   5.035   1.243 -0.0865  0.6460 -0.1353
  541THF    H10 8170   2.435   4.829   1.328  0.5859 -2.4295 -0.7506
  541THF    H11 8171   2.407   4.814   1.154 -0.2648 -1.4728  0.3474
  541THF    H12 8172   2.361   5.063   1.156  0.6136 -0.3887 -0.9706
  541THF    H13 8173   2.357   5.061   1.327 -2.7755 -1.3136 -1.4368
  542THF     O1 8174   2.294   4.021   4.587 -0.2015  0.2924  0.4399
  542THF     C2 8175   2.339   3.893   4.611  0.2076  0.0559 -0.0052
  542THF     C3 8176   2.158   4.030   4.593  0.4178  0.0885  0.4974
  542THF     H4 8177   2.345   3.875   4.718 -1.8939  2.2389  0.5779
  542THF     H5 8178   2.435   3.872   4.565  0.2065 -0.9882  0.4475
  542THF     H6 8179   2.125   4.059   4.693 -2.7906  2.3937 -1.0347
  542THF     H7 8180   2.123   4.110   4.527  0.4658 -0.9363 -0.8070
  542THF     C8 8181   2.104   3.896   4.551  0.2266  0.5264 -0.0807
  542THF     C9 8182   2.226   3.798   4.563 -0.1825 -0.2552 -0.1050
  542THF    H10 8183   2.066   3.901   4.449  2.1954  2.7229 -0.7902
  542THF    H11 8184   2.020   3.865   4.613 -0.4072  2.4565  0.0852
  542THF    H12 8185   2.201   3.721   4.636 -2.4376  1.6839  1.3018
  542THF    H13 8186   2.246   3.752   4.466 -0.4872  1.3053 -0.9357
  543THF     O1 8187   3.385   2.709   3.597  0.4273  0.3775  0.2918
  543THF     C2 8188   3.367   2.661   3.733  0.2049 -0.5032 -0.1501
  543THF     C3 8189   3.493   2.638   3.542 -0.3418  0.9861  0.8551
  543THF     H4 8190   3.312   2.568   3.743  0.1224 -0.3676  0.7697
  543THF     H5 8191   3.323   2.743   3.790 -2.1151 -1.6960 -0.0866
  543THF     H6 8192   3.471   2.556   3.473  0.2277  2.2300 -0.8617
  543THF     H7 8193   3.554   2.712   3.491  0.7524 -0.8655 -0.6594
  543THF     C8 8194   3.571   2.579   3.665 -0.1628 -0.2456  0.4890
  543THF     C9 8195   3.505   2.655   3.780 -0.4800  0.4258  0.7501
  543THF    H10 8196   3.679   2.591   3.656 -0.2907  0.6316 -0.0022
  543THF    H11 8197   3.541   2.477   3.688 -1.2383  0.1187  0.7370
  543THF    H12 8198   3.513   2.606   3.877 -0.7716 -0.3751  0.3837
  543THF    H13 8199   3.554   2.751   3.792  1.6561 -0.6624  1.3191
  544THF     O1 8200   2.632   2.940   0.772 -0.1729 -0.0002 -0.2395
  544THF     C2 8201   2.645   2.822   0.702  0.5594  0.4311  0.2081
  544THF     C3 8202   2.668   2.906   0.899  0.0361 -0.4422 -0.5573
  544THF     H4 8203   2.658   2.834   0.595 -0.5790  1.1359  0.1319
  544THF     H5 8204   2.559   2.756   0.707 -1.5682  2.9515 -1.0530
  544THF     H6 8205   2.689   2.995   0.957  1.3575 -0.2026 -1.3588
  544THF     H7 8206   2.589   2.845   0.944  0.3888 -1.5191 -1.3683
  544THF     C8 8207   2.797   2.824   0.894 -0.0212 -0.5640 -0.2361
  544THF     C9 8208   2.765   2.748   0.765  0.3410 -0.0520 -1.4238
  544THF    H10 8209   2.817   2.756   0.976 -1.3716  0.9093  1.4218
  544THF    H11 8210   2.882   2.890   0.877 -1.4156  1.5296  0.4804
  544THF    H12 8211   2.863   2.746   0.717  0.6418 -0.0963 -0.8143
  544THF    H13 8212   2.749   2.643   0.788 -1.0072  0.7236  1.6502
  545THF     O1 8213   1.786   2.298   3.729 -0.0392 -0.4129  0.1465
  545THF     C2 8214   1.696   2.332   3.840  0.1784 -0.6427  0.5481
  545THF     C3 8215   1.922   2.332   3.752  0.3450 -0.1713 -0.6558
  545THF     H4 8216   1.688   2.250   3.912  0.7589 -1.3907 -0.2197
  545THF     H5 8217   1.597   2.346   3.799  0.4654  0.6742  0.2694
  545THF     H6 8218   1.997   2.257   3.775  2.9802  2.3178 -0.4992
  545THF     H7 8219   1.954   2.382   3.660  0.6192 -0.4750 -0.7288
  545THF     C8 8220   1.916   2.430   3.868  0.2331  0.2846  0.0102
  545THF     C9 8221   1.764   2.456   3.893 -0.0853 -0.3042 -0.4836
  545THF    H10 8222   1.959   2.528   3.845 -0.2928  0.8146  1.2113
  545THF    H11 8223   1.961   2.390   3.959  0.8798  1.7117  0.3401
  545THF    H12 8224   1.737   2.485   3.995  1.2171 -0.6634 -0.0201
  545THF    H13 8225   1.722   2.537   3.834 -0.1966  0.7466  0.9777
  546THF     O1 8226   2.471   2.858   0.009 -0.7038 -0.4165  0.2822
  546THF     C2 8227   2.345   2.815   0.068 -0.2701 -0.1962  0.2555
  546THF     C3 8228   2.539   2.943   0.102  0.0188 -0.1966  0.6650
  546THF     H4 8229   2.366   2.734   0.138 -2.6620 -0.6322  0.5803
  546THF     H5 8230   2.285   2.782  -0.016 -1.5628  0.1259  1.0170
  546THF     H6 8231   2.579   2.895   0.191  0.6750  1.3142  1.2188
  546THF     H7 8232   2.614   3.007   0.055  1.1509 -1.9534 -0.0099
  546THF     C8 8233   2.425   3.032   0.143 -0.1762  0.7588  0.1958
  546THF     C9 8234   2.297   2.945   0.129  0.8034  0.2918  0.1216
  546THF    H10 8235   2.420   3.118   0.076  1.0354  0.5518 -0.1969
  546THF    H11 8236   2.425   3.074   0.243 -0.8213 -1.1436  1.0257
  546THF    H12 8237   2.238   2.935   0.220  0.8801  3.0382  0.5727
  546THF    H13 8238   2.224   2.984   0.058  0.7439 -0.8263 -0.4526
  547THF     O1 8239   2.096   3.953   2.033  0.3117 -0.2528 -0.1102
  547THF     C2 8240   2.210   4.006   2.103  0.0904 -0.8036  0.2436
  547THF     C3 8241   2.024   4.071   1.991  0.2721  0.1052  0.0486
  547THF     H4 8242   2.286   3.930   2.116  0.4932 -0.9997 -2.6363
  547THF     H5 8243   2.178   4.039   2.202  0.8307 -1.0016  0.5561
  547THF     H6 8244   1.946   4.043   1.921  1.6213 -2.3498 -0.6102
  547THF     H7 8245   1.969   4.124   2.068  0.7386 -0.3099  0.6726
  547THF     C8 8246   2.134   4.165   1.940 -0.1776  0.1570  0.1511
  547THF     C9 8247   2.260   4.118   2.012  0.4040 -0.1202 -0.2701
  547THF    H10 8248   2.095   4.262   1.973  0.2455 -0.3467  2.2882
  547THF    H11 8249   2.134   4.166   1.831 -1.6484  0.5839  0.1347
  547THF    H12 8250   2.342   4.084   1.949  0.0865 -0.0099 -0.7437
  547THF    H13 8251   2.297   4.204   2.068 -0.7306  1.1851 -1.4343
  548THF     O1 8252   0.455   4.719   2.610  0.4559 -0.5364 -0.2552
  548THF     C2 8253   0.475   4.594   2.553 -0.1463  0.0337  0.0309
  548THF     C3 8254   0.480   4.704   2.751  0.4837  0.1499 -0.3238
  548THF     H4 8255   0.583   4.578   2.561 -0.1018  0.5576  0.4854
  548THF     H5 8256   0.435   4.586   2.452  0.4469 -0.7982 -0.1444
  548THF     H6 8257   0.587   4.689   2.761  0.3136 -0.6004  0.5480
  548THF     H7 8258   0.451   4.792   2.808  1.3710  0.8978 -1.0045
  548THF     C8 8259   0.404   4.582   2.789  0.1235  1.0425  0.0474
  548THF     C9 8260   0.389   4.515   2.649  0.1193  0.6000  0.1294
  548THF    H10 8261   0.306   4.604   2.829  0.6094  1.4215  1.0522
  548THF    H11 8262   0.452   4.516   2.862  0.4614  1.1445 -0.0793
  548THF    H12 8263   0.388   4.406   2.657 -2.9511  0.5521  0.3119
  548THF    H13 8264   0.287   4.528   2.612  0.0505  1.6446  0.6675
  549THF     O1 8265   2.594   3.166   1.505  0.3208 -1.2995 -0.3985
  549THF     C2 8266   2.629   3.303   1.532 -0.0425 -0.1512 -0.1862
  549THF     C3 8267   2.479   3.169   1.419  0.3219  0.0829  0.0708
  549THF     H4 8268   2.696   3.353   1.463  0.0066  2.5862  1.6741
  549THF     H5 8269   2.673   3.308   1.632  0.1104 -1.6397 -0.1589
  549THF     H6 8270   2.510   3.147   1.317  1.6427  1.5758  0.1081
  549THF     H7 8271   2.414   3.092   1.463 -1.9139  1.0385 -1.3885
  549THF     C8 8272   2.412   3.303   1.434  0.4673  0.1159 -0.1395
  549THF     C9 8273   2.496   3.377   1.532  0.1596  0.1886 -0.1331
  549THF    H10 8274   2.312   3.292   1.476  0.9544  2.8904  2.1106
  549THF    H11 8275   2.420   3.356   1.339  3.0582  1.8809  0.9378
  549THF    H12 8276   2.494   3.485   1.519 -4.2934  0.2834 -0.0543
  549THF    H13 8277   2.452   3.339   1.624  0.0406  0.3008 -0.1435
  550THF     O1 8278   0.402   0.505   4.279  0.6329  0.5154 -0.0394
  550THF     C2 8279   0.312   0.543   4.386 -0.3502  0.6251 -0.4505
  550THF     C3 8280   0.327   0.499   4.160  0.4290  0.0220  0.3570
  550THF     H4 8281   0.364   0.582   4.473 -0.0040 -1.3434  0.2834
  550THF     H5 8282   0.261   0.449   4.407 -2.1867  1.7340  0.2375
  550THF     H6 8283   0.398   0.487   4.078 -0.3358  0.8543 -0.4464
  550THF     H7 8284   0.262   0.411   4.155 -0.8350  0.9899 -1.7880
  550THF     C8 8285   0.237   0.619   4.170  0.0140 -0.0943 -0.3494
  550THF     C9 8286   0.213   0.643   4.323 -0.3305 -0.4806 -0.3076
  550THF    H10 8287   0.143   0.604   4.118 -0.2088  1.7460 -0.5332
  550THF    H11 8288   0.278   0.706   4.119  1.7014 -0.5072  0.2327
  550THF    H12 8289   0.256   0.741   4.344 -0.2741 -0.6949  0.6163
  550THF    H13 8290   0.109   0.631   4.354  0.5362 -1.3064  2.5808
  551THF     O1 8291   4.934   2.822   2.436 -0.4894 -0.0111  0.0111
  551THF     C2 8292   5.029   2.739   2.500 -0.3373  0.7906 -0.1462
  551THF     C3 8293   4.810   2.790   2.481  0.3059 -0.3724  0.7507
  551THF     H4 8294   5.083   2.785   2.583 -0.7631  1.0800 -0.0280
  551THF     H5 8295   5.110   2.706   2.434  1.9821  2.2664  1.8083
  551THF     H6 8296   4.791   2.821   2.584  0.0968 -0.1891  0.6586
  551THF     H7 8297   4.728   2.819   2.416  0.3864 -1.2493  0.2456
  551THF     C8 8298   4.822   2.642   2.474  0.3133 -1.1345 -0.1561
  551THF     C9 8299   4.952   2.611   2.544  0.3643  0.1705 -0.3634
  551THF    H10 8300   4.831   2.619   2.367 -1.4524 -0.9516 -0.3797
  551THF    H11 8301   4.741   2.588   2.523 -0.4192 -0.8434 -1.0072
  551THF    H12 8302   4.952   2.607   2.653  0.4183  0.5853 -0.3496
  551THF    H13 8303   4.989   2.518   2.501  0.3404  0.2779 -0.6189
  552THF     O1 8304   3.472   0.002   4.573  0.2325 -0.4409  0.3988
  552THF     C2 8305   3.342  -0.028   4.628  0.0444 -0.3351 -0.5028
  552THF     C3 8306   3.441   0.078   4.453 -0.2955  0.4047 -0.9222
  552THF     H4 8307   3.298   0.061   4.673 -1.5630 -1.4197  0.1570
  552THF     H5 8308   3.335  -0.110   4.700  3.1925 -1.4890 -1.3259
  552THF     H6 8309   3.424   0.183   4.478  0.6130  0.4816 -0.5993
  552THF     H7 8310   3.518   0.072   4.376 -1.1514 -1.8664 -1.6919
  552THF     C8 8311   3.310   0.034   4.401 -0.1216  0.1995 -0.2859
  552THF     C9 8312   3.258  -0.061   4.509  0.0670 -0.2656 -0.6692
  552THF    H10 8313   3.325  -0.012   4.303 -0.8304 -1.1406  0.2162
  552THF    H11 8314   3.229   0.105   4.389 -0.9638 -0.4627  1.2595
  552THF    H12 8315   3.150  -0.066   4.524  0.0038 -0.2668 -1.0980
  552THF    H13 8316   3.287  -0.159   4.471  0.2280  0.0823 -1.4710
  553THF     O1 8317   5.069   2.510   4.709  0.2705  0.3819 -0.3122
  553THF     C2 8318   5.176   2.612   4.705 -0.1895  0.7586  1.0834
  553THF     C3 8319   5.005   2.535   4.834  0.2114  0.6347  0.1073
  553THF     H4 8320   5.196   2.631   4.600  0.3447  1.0398  1.2334
  553THF     H5 8321   5.270   2.587   4.753 -1.0702 -0.9398  2.0103
  553THF     H6 8322   4.913   2.477   4.837 -0.5452  1.7208 -1.3381
  553THF     H7 8323   5.068   2.511   4.920 -0.8410  3.0627  1.6332
  553THF     C8 8324   4.989   2.686   4.836  0.0342  0.1136  0.0973
  553THF     C9 8325   5.114   2.742   4.760 -0.1602  0.0801  0.2286
  553THF    H10 8326   4.987   2.718   4.940  1.3225  0.1800  0.1089
  553THF    H11 8327   4.889   2.693   4.793  0.2922 -0.4253 -0.6091
  553THF    H12 8328   5.092   2.799   4.670  3.1344 -0.3448 -0.9785
  553THF    H13 8329   5.182   2.807   4.815  1.4225 -0.0654 -1.4651
  554THF     O1 8330   2.899   4.574   0.924  0.1207  0.2069  0.1632
  554THF     C2 8331   2.849   4.496   1.034 -0.1167  0.0245  0.0191
  554THF     C3 8332   2.994   4.666   0.983 -0.8807 -0.0710  0.6431
  554THF     H4 8333   2.800   4.404   1.004  0.9036 -1.7024  3.1511
  554THF     H5 8334   2.775   4.548   1.095  0.5024  0.6567  0.2473
  554THF     H6 8335   3.059   4.700   0.902  1.7538 -0.5215  2.4599
  554THF     H7 8336   2.943   4.757   1.015 -1.0750 -0.6628  2.1028
  554THF     C8 8337   3.059   4.586   1.102  0.0964 -0.5570 -0.5586
  554THF     C9 8338   2.970   4.468   1.115  0.3218  0.4659  0.7507
  554THF    H10 8339   3.062   4.641   1.196 -1.6260 -1.9395  0.3498
  554THF    H11 8340   3.164   4.556   1.096  1.6914  3.2929  2.9622
  554THF    H12 8341   3.010   4.384   1.059  2.9306  0.2550  2.6913
  554THF    H13 8342   2.942   4.442   1.217  0.2767  0.9764  0.8728
  555THF     O1 8343   0.121   3.096   3.148 -0.3618  0.0255  0.2023
  555THF     C2 8344   0.026   3.151   3.234  0.3860  0.5510  0.5755
  555THF     C3 8345   0.097   3.105   3.003 -0.0766 -0.7671  0.2219
  555THF     H4 8346   0.060   3.202   3.324  2.6376  2.6605 -1.3128
  555THF     H5 8347  -0.049   3.075   3.253  1.1236 -0.3781 -0.1495
  555THF     H6 8348   0.183   3.144   2.948  0.2271  0.8771  1.7706
  555THF     H7 8349   0.073   3.007   2.964 -0.1925 -0.8503  0.5011
  555THF     C8 8350  -0.033   3.184   3.002  0.6392 -0.3445 -0.2939
  555THF     C9 8351  -0.038   3.255   3.139  0.1388  0.6553  0.3340
  555THF    H10 8352  -0.110   3.107   3.003  1.7645 -1.5012  1.3996
  555THF    H11 8353  -0.050   3.249   2.916 -2.6930 -0.9516 -0.2171
  555THF    H12 8354   0.003   3.356   3.143 -2.3019  1.8101 -1.2557
  555THF    H13 8355  -0.140   3.272   3.173 -0.4268 -1.3615 -0.1973
  556THF     O1 8356   5.208   2.178   0.755  0.0585  0.2967  0.1854
  556THF     C2 8357   5.187   2.193   0.611 -0.5739  0.2029  0.6333
  556THF     C3 8358   5.165   2.049   0.792  0.4292  0.2277 -0.3287
  556THF     H4 8359   5.283   2.186   0.560 -0.2590  1.3185  1.0423
  556THF     H5 8360   5.163   2.298   0.594  1.5733  0.4307 -1.4839
  556THF     H6 8361   5.246   1.978   0.777  0.3937 -0.3043  1.6945
  556THF     H7 8362   5.143   2.054   0.898  0.0577  1.5512 -0.4482
  556THF     C8 8363   5.046   2.021   0.704 -0.1300 -1.0260 -1.0445
  556THF     C9 8364   5.088   2.082   0.565 -0.1546 -0.1716 -0.5372
  556THF    H10 8365   4.961   2.075   0.744  1.4908  0.4400  0.5801
  556THF    H11 8366   5.022   1.915   0.700 -1.1041 -0.7822 -2.0371
  556THF    H12 8367   5.138   2.007   0.504  2.2706  0.8566  0.0631
  556THF    H13 8368   5.002   2.116   0.507 -0.7981 -1.3343 -0.2891
  557THF     O1 8369   4.475   5.478   3.960  0.2352 -0.1133 -0.0499
  557THF     C2 8370   4.570   5.545   4.040 -0.1566  0.2051  0.1640
  557THF     C3 8371   4.539   5.357   3.943  0.3339  0.7648  0.1197
  557THF     H4 8372   4.570   5.491   4.135 -0.0205  1.1023  0.6808
  557THF     H5 8373   4.538   5.649   4.040  1.8725  0.8970  1.0465
  557THF     H6 8374   4.527   5.290   4.028 -0.6720  0.3150 -0.3551
  557THF     H7 8375   4.483   5.309   3.863 -1.2752  3.8429 -0.7827
  557THF     C8 8376   4.685   5.380   3.916  0.0486  0.5471 -0.4118
  557THF     C9 8377   4.709   5.516   3.973 -0.0182  0.4702 -0.3308
  557THF    H10 8378   4.703   5.382   3.808 -0.6350  2.9107 -0.5287
  557THF    H11 8379   4.757   5.307   3.953 -0.4709  0.8807  1.3203
  557THF    H12 8380   4.793   5.510   4.042 -0.6911 -1.3012  0.3917
  557THF    H13 8381   4.740   5.580   3.890  4.2212 -3.0807 -1.8559
  558THF     O1 8382   0.826   1.498   0.335 -0.1167  0.4032  0.7131
  558THF     C2 8383   0.893   1.572   0.237  0.1589 -0.5570  0.0165
  558THF     C3 8384   0.741   1.407   0.269  0.2693  0.2197  1.1007
  558THF     H4 8385   0.999   1.546   0.244  0.1489 -0.4974  0.4429
  558THF     H5 8386   0.879   1.678   0.258  0.6886 -0.5174  0.1743
  558THF     H6 8387   0.777   1.306   0.249 -2.4900 -1.1190  2.3095
  558THF     H7 8388   0.643   1.392   0.316 -0.2332 -2.1210 -0.5193
  558THF     C8 8389   0.707   1.482   0.141  0.0878 -0.2885  0.0130
  558THF     C9 8390   0.839   1.537   0.104  0.4993  0.0954  0.3582
  558THF    H10 8391   0.628   1.556   0.155  0.2258 -0.1973  0.3132
  558THF    H11 8392   0.655   1.416   0.071 -1.2472  1.0657 -0.3153
  558THF    H12 8393   0.894   1.459   0.052 -1.4587 -2.0119  1.2382
  558THF    H13 8394   0.828   1.619   0.033 -0.8173 -1.6557 -1.6063
  559THF     O1 8395   5.337   1.440   2.192 -0.1975  0.0684 -0.6385
  559THF     C2 8396   5.224   1.358   2.169  0.6247 -0.3005 -0.0156
  559THF     C3 8397   5.313   1.581   2.184  0.4290  0.0038 -0.3793
  559THF     H4 8398   5.183   1.326   2.266 -1.8192 -0.6325 -1.0810
  559THF     H5 8399   5.246   1.273   2.105  0.5509  0.1685 -0.6638
  559THF     H6 8400   5.317   1.637   2.277 -1.4822 -0.5730  0.0911
  559THF     H7 8401   5.396   1.620   2.124  2.2694 -0.6981  1.6046
  559THF     C8 8402   5.182   1.591   2.106 -0.1526  0.1162  0.1446
  559THF     C9 8403   5.126   1.451   2.102  0.0079 -0.5586 -0.3199
  559THF    H10 8404   5.201   1.623   2.003 -1.3662 -2.2187 -0.8722
  559THF    H11 8405   5.105   1.655   2.149 -0.9135 -1.1481  0.7059
  559THF    H12 8406   5.022   1.448   2.134  0.3600  1.0297  1.0857
  559THF    H13 8407   5.120   1.419   1.998 -2.1514 -0.6630 -0.2175
  560THF     O1 8408   2.775   0.410   1.623  0.1389 -0.5571 -0.0692
  560THF     C2 8409   2.711   0.505   1.708 -0.1122  0.4771  0.1122
  560THF     C3 8410   2.704   0.434   1.496 -0.1116  0.2451 -0.4812
  560THF     H4 8411   2.772   0.514   1.798 -1.5484  0.8305  1.0937
  560THF     H5 8412   2.609   0.479   1.736 -0.1823 -0.0619 -0.6275
  560THF     H6 8413   2.752   0.383   1.413 -1.2255 -1.4653 -0.1271
  560THF     H7 8414   2.600   0.402   1.496 -0.4928  1.3527 -1.9428
  560THF     C8 8415   2.690   0.590   1.490 -0.0875  0.0827  0.1329
  560THF     C9 8416   2.702   0.637   1.632  0.7929  0.2400  0.6784
  560THF    H10 8417   2.601   0.628   1.441 -1.5234 -1.1642  1.6576
  560THF    H11 8418   2.778   0.631   1.441 -0.2583 -0.1166 -0.3406
  560THF    H12 8419   2.793   0.693   1.653  0.6348 -0.1675  2.6187
  560THF    H13 8420   2.636   0.719   1.659  0.2029 -0.5439  1.7055
  561THF     O1 8421   1.953   0.667   4.856  0.0752  0.3480 -0.3554
  561THF     C2 8422   2.021   0.597   4.963 -0.3110 -0.5020  0.0703
  561THF     C3 8423   2.040   0.742   4.791  0.0257  0.2874 -0.1129
  561THF     H4 8424   2.043   0.494   4.935 -2.3812 -1.0516  0.3614
  561THF     H5 8425   1.957   0.585   5.050 -0.3222  2.9052  0.6616
  561THF     H6 8426   2.047   0.731   4.683  1.0417 -2.9132  0.1781
  561THF     H7 8427   2.035   0.848   4.818  2.1908  0.1468  1.1104
  561THF     C8 8428   2.177   0.702   4.843 -0.3830  0.6932  0.2252
  561THF     C9 8429   2.145   0.670   4.988 -0.5752 -0.7191  0.0967
  561THF    H10 8430   2.255   0.779   4.840 -0.1292  0.4234 -0.1575
  561THF    H11 8431   2.215   0.611   4.797 -0.6297  0.5030  0.3988
  561THF    H12 8432   2.219   0.618   5.049 -0.4998 -0.6043  0.1045
  561THF    H13 8433   2.147   0.762   5.047  1.6042  1.9363 -3.6703
  562THF     O1 8434   1.280   3.961   5.099  0.0704 -0.4012 -0.3941
  562THF     C2 8435   1.161   4.003   5.168  0.0978  0.4969 -0.2259
  562THF     C3 8436   1.373   4.065   5.096  0.3721 -0.2028 -0.1052
  562THF     H4 8437   1.172   3.982   5.275  1.0921  2.5381  0.1340
  562THF     H5 8438   1.067   3.955   5.143  0.6757 -0.2770 -0.9702
  562THF     H6 8439   1.471   4.042   5.137  0.4642  1.0835  0.4322
  562THF     H7 8440   1.400   4.079   4.991 -0.4032 -2.6421 -0.7201
  562THF     C8 8441   1.305   4.182   5.165 -0.8914 -0.0628  0.1331
  562THF     C9 8442   1.163   4.150   5.155 -0.2981 -0.6048  0.9453
  562THF    H10 8443   1.324   4.275   5.112  0.9438 -1.0232 -1.0000
  562THF    H11 8444   1.343   4.192   5.267  2.6746  1.4599 -1.1784
  562THF    H12 8445   1.106   4.206   5.230  0.4099 -1.6081  2.2750
  562THF    H13 8446   1.128   4.176   5.056 -0.5814 -1.7075  0.7465
  563THF     O1 8447   4.439   0.679   1.070 -0.4505  0.4004  0.0476
  563THF     C2 8448   4.436   0.583   0.967  0.1808  0.0664 -0.5656
  563THF     C3 8449   4.303   0.723   1.079  0.1775 -0.5846  0.1384
  563THF     H4 8450   4.413   0.487   1.014  1.7556  0.1520  0.4582
  563THF     H5 8451   4.532   0.552   0.925  1.2210  2.0227  0.2468
  563THF     H6 8452   4.247   0.666   1.153 -2.0362  2.1048  0.7051
  563THF     H7 8453   4.310   0.820   1.129 -1.8265 -0.0228 -0.5527
  563THF     C8 8454   4.240   0.718   0.939  0.0245 -0.4440 -0.3629
  563THF     C9 8455   4.335   0.628   0.857 -0.4237 -0.0144 -0.1850
  563THF    H10 8456   4.217   0.815   0.894 -2.5958 -1.1812 -0.7714
  563THF    H11 8457   4.143   0.669   0.941 -0.3423  0.2248 -1.0997
  563THF    H12 8458   4.290   0.541   0.808 -1.5715 -0.1068  0.9629
  563THF    H13 8459   4.377   0.686   0.775 -0.8925  1.0552  0.3031
  564THF     O1 8460   1.703   4.243   3.913 -0.0955  0.1655 -0.2063
  564THF     C2 8461   1.585   4.217   3.994 -0.2760 -0.2775  0.0477
  564THF     C3 8462   1.803   4.305   3.996  0.7321 -0.2541 -0.4821
  564THF     H4 8463   1.541   4.123   3.960  0.8106 -0.0509 -2.2178
  564THF     H5 8464   1.504   4.287   3.971  0.7481  1.2001  0.8446
  564THF     H6 8465   1.904   4.279   3.963  1.7409  1.5110  1.0320
  564THF     H7 8466   1.782   4.412   3.993 -4.1015 -1.0199 -1.3619
  564THF     C8 8467   1.778   4.242   4.136  0.3157 -0.0298  0.3201
  564THF     C9 8468   1.629   4.224   4.143 -0.3223  0.4503 -0.3546
  564THF    H10 8469   1.826   4.297   4.216  2.5710  1.1315 -1.6921
  564THF    H11 8470   1.819   4.141   4.147 -0.5228 -0.2996  1.0840
  564THF    H12 8471   1.598   4.131   4.191  1.5955  0.4103  0.9197
  564THF    H13 8472   1.569   4.300   4.192 -0.0456  1.0933 -1.0005
  565THF     O1 8473   5.318   2.122   4.636  0.7233  0.0715  0.4369
  565THF     C2 8474   5.262   2.132   4.761  0.1139  0.1937 -0.5087
  565THF     C3 8475   5.316   1.982   4.607  0.0491 -0.3470  0.1842
  565THF     H4 8476   5.154   2.133   4.773  0.2897 -1.8723  2.4250
  565THF     H5 8477   5.307   2.221   4.805 -2.5038  1.0013  0.7380
  565THF     H6 8478   5.225   1.973   4.547 -0.6170  1.5053  0.8335
  565THF     H7 8479   5.391   1.979   4.528 -1.7807  2.5475 -1.9166
  565THF     C8 8480   5.357   1.904   4.735 -0.1912  0.7378 -0.2337
  565THF     C9 8481   5.310   2.003   4.837  0.1753 -0.0005  0.1265
  565THF    H10 8482   5.464   1.887   4.735 -0.4332 -1.0739  0.0583
  565THF    H11 8483   5.330   1.798   4.731 -0.3272  0.7078  1.0607
  565THF    H12 8484   5.227   1.955   4.888  0.2227  0.2009  0.3913
  565THF    H13 8485   5.393   2.028   4.902  1.5614 -0.5595 -1.3555
  566THF     O1 8486   3.724   4.581   4.243 -0.2703  0.1505  0.1919
  566THF     C2 8487   3.860   4.624   4.235  0.3480  0.2282 -0.6112
  566THF     C3 8488   3.656   4.680   4.178 -0.5331  0.0592 -0.6270
  566THF     H4 8489   3.909   4.605   4.140  0.9377 -1.7411  0.0197
  566THF     H5 8490   3.923   4.571   4.308 -0.7624 -0.0752  0.1581
  566THF     H6 8491   3.655   4.666   4.070 -0.3910  0.4464 -0.6794
  566THF     H7 8492   3.550   4.693   4.201 -0.3707  3.2887 -1.2455
  566THF     C8 8493   3.718   4.817   4.228  0.7866 -0.2418 -0.2966
  566THF     C9 8494   3.854   4.770   4.285  0.6138 -0.2031  0.2411
  566THF    H10 8495   3.646   4.849   4.303 -0.3349 -2.3787 -0.4035
  566THF    H11 8496   3.719   4.880   4.139 -0.1663 -2.1931 -1.7532
  566THF    H12 8497   3.940   4.829   4.254  0.8411 -0.1982  0.8665
  566THF    H13 8498   3.851   4.774   4.394  0.3284 -3.5870  0.4500
  567THF     O1 8499   2.737   5.227   0.660  0.3404  0.5784  0.3026
  567THF     C2 8500   2.795   5.353   0.686 -0.2132  0.1561  0.2324
  567THF     C3 8501   2.795   5.126   0.746  0.3155  0.2981  0.0361
  567THF     H4 8502   2.773   5.408   0.777  2.4330  0.1546  0.9489
  567THF     H5 8503   2.782   5.420   0.601  1.2518 -0.1438 -0.2619
  567THF     H6 8504   2.734   5.143   0.834 -1.9945 -1.2539 -1.1828
  567THF     H7 8505   2.788   5.021   0.719 -2.0928  0.0718  1.3231
  567THF     C8 8506   2.941   5.178   0.759 -0.3340 -0.4673  0.2508
  567THF     C9 8507   2.942   5.320   0.704 -0.0621 -0.4982 -0.0371
  567THF    H10 8508   3.007   5.120   0.695  2.3078  0.8799  1.5805
  567THF    H11 8509   2.988   5.186   0.857  0.0445  2.0796 -0.0668
  567THF    H12 8510   2.991   5.396   0.766  0.6619 -0.7322 -0.3228
  567THF    H13 8511   2.989   5.336   0.608 -1.6181  2.5698 -0.4234
  568THF     O1 8512   4.148   0.194   1.035 -0.5968  0.0228  0.0346
  568THF     C2 8513   4.174   0.222   0.901  1.4983  0.2937  0.6605
  568THF     C3 8514   4.266   0.136   1.090 -0.6896 -0.4282  0.1455
  568THF     H4 8515   4.131   0.321   0.882 -1.1887 -1.1588 -1.7676
  568THF     H5 8516   4.122   0.154   0.833  1.2114  0.6597  0.5064
  568THF     H6 8517   4.286   0.180   1.188 -1.6739  0.1816  0.0889
  568THF     H7 8518   4.248   0.029   1.092  0.3722 -0.6179  2.1496
  568THF     C8 8519   4.387   0.165   1.003  0.4258 -0.4305 -0.9650
  568THF     C9 8520   4.329   0.231   0.876  0.0768  0.5153 -0.5915
  568THF    H10 8521   4.439   0.070   0.991 -0.1817 -0.8019 -0.6747
  568THF    H11 8522   4.461   0.227   1.053  2.2210 -2.1532 -1.3420
  568THF    H12 8523   4.374   0.328   0.857  1.0303  0.4839  1.2482
  568THF    H13 8524   4.345   0.155   0.800  1.5833 -1.3657  1.4960
  569THF     O1 8525   4.721   1.434   5.000  0.8019 -0.4720 -0.6942
  569THF     C2 8526   4.688   1.488   5.129 -0.4969  0.6901 -0.1392
  569THF     C3 8527   4.740   1.545   4.912 -0.8480  0.5987 -0.8056
  569THF     H4 8528   4.697   1.415   5.209 -2.9175  0.9997  0.4941
  569THF     H5 8529   4.581   1.507   5.128 -0.6316  0.2634  1.8595
  569THF     H6 8530   4.810   1.538   4.829 -0.6535 -0.4042 -0.5683
  569THF     H7 8531   4.645   1.584   4.875 -0.9721 -0.3710 -1.5501
  569THF     C8 8532   4.801   1.645   5.009 -0.3780 -0.2094 -0.6018
  569THF     C9 8533   4.791   1.599   5.147 -0.2325  0.0432 -0.2505
  569THF    H10 8534   4.758   1.743   4.985  1.3991  0.5848 -0.6981
  569THF    H11 8535   4.905   1.657   4.980 -0.0575 -0.9653  0.2177
  569THF    H12 8536   4.878   1.550   5.191 -1.9255 -1.3077  1.7824
  569THF    H13 8537   4.757   1.677   5.214 -1.2420 -0.7933  0.2362
  570THF     O1 8538   2.801   0.606   4.160  0.3422 -0.4794  0.4446
  570THF     C2 8539   2.833   0.687   4.277 -0.4208 -0.0853 -0.1469
  570THF     C3 8540   2.769   0.481   4.190 -0.0087 -0.1838 -0.0069
  570THF     H4 8541   2.808   0.792   4.263  0.6780 -0.0495 -2.1974
  570THF     H5 8542   2.941   0.691   4.283 -0.4790 -0.2404  1.3958
  570THF     H6 8543   2.666   0.468   4.156  0.5453  2.4896 -3.2258
  570THF     H7 8544   2.837   0.408   4.149 -0.8529  0.0644 -1.9752
  570THF     C8 8545   2.783   0.466   4.342  0.1036 -0.2500 -0.0916
  570THF     C9 8546   2.778   0.612   4.393  0.1092  0.7255 -0.6453
  570THF    H10 8547   2.876   0.415   4.366  1.3096  1.1742 -1.4801
  570THF    H11 8548   2.704   0.403   4.382 -0.3675  0.5462  0.2458
  570THF    H12 8549   2.674   0.640   4.409 -0.5295 -2.1561  1.0173
  570THF    H13 8550   2.828   0.642   4.485  2.1969  0.3657 -1.6167
  571THF     O1 8551   2.577   0.752   2.008  0.1739 -0.1004  0.6423
  571THF     C2 8552   2.438   0.773   2.047 -0.3136  0.6519  0.5340
  571THF     C3 8553   2.624   0.868   1.954 -0.1793 -0.0062 -0.3350
  571THF     H4 8554   2.408   0.688   2.108  2.0485 -0.4723  0.2276
  571THF     H5 8555   2.378   0.782   1.956 -1.0743 -0.2350  0.9283
  571THF     H6 8556   2.733   0.873   1.946 -0.1186  1.5217  0.9420
  571THF     H7 8557   2.581   0.867   1.854  0.7447 -0.7999 -0.7466
  571THF     C8 8558   2.553   0.972   2.035  0.1506  0.2216 -0.1553
  571THF     C9 8559   2.441   0.910   2.114 -0.1825  0.5196  0.4518
  571THF    H10 8560   2.510   1.045   1.965 -0.8800 -0.8868 -0.7192
  571THF    H11 8561   2.621   1.030   2.098  2.1727 -1.5655 -0.5907
  571THF    H12 8562   2.479   0.895   2.215  2.3070  2.3715 -0.1091
  571THF    H13 8563   2.351   0.969   2.099 -0.8103 -0.4913  0.0855
  572THF     O1 8564   1.392   4.893   0.863  0.1670  0.3964  0.3857
  572THF     C2 8565   1.421   5.004   0.947 -0.4796  0.0386  0.8619
  572THF     C3 8566   1.424   4.770   0.942 -0.1763 -0.2590  0.0245
  572THF     H4 8567   1.354   5.017   1.032 -0.6457  2.0936  0.4817
  572THF     H5 8568   1.416   5.096   0.889  0.0935  0.6457  1.7586
  572THF     H6 8569   1.343   4.755   1.013  1.4176  1.7327  2.4629
  572THF     H7 8570   1.438   4.689   0.870 -0.0177 -0.3024  0.1024
  572THF     C8 8571   1.546   4.809   1.016  0.0684 -0.6117  0.0999
  572THF     C9 8572   1.559   4.966   0.996 -0.2614  0.5435 -0.6184
  572THF    H10 8573   1.633   4.754   0.979  1.5529 -0.2703  2.8462
  572THF    H11 8574   1.527   4.783   1.120 -0.8988 -0.8296 -0.1223
  572THF    H12 8575   1.584   5.017   1.089  0.2038 -0.3089 -0.2669
  572THF    H13 8576   1.638   4.968   0.921 -1.5464  0.8854 -2.0189
  573THF     O1 8577   4.069   0.701   3.491 -0.2520  0.0344 -0.1978
  573THF     C2 8578   4.089   0.842   3.459 -0.4620  0.6364  0.2651
  573THF     C3 8579   4.121   0.693   3.627 -0.6117 -0.0545  0.4729
  573THF     H4 8580   4.028   0.887   3.381  0.2647  1.7439  0.3065
  573THF     H5 8581   4.195   0.851   3.432  0.2060 -2.9888  1.1015
  573THF     H6 8582   4.094   0.602   3.682  0.4815  0.4500  1.8892
  573THF     H7 8583   4.229   0.678   3.623 -0.2019  2.5556  0.3329
  573THF     C8 8584   4.085   0.823   3.703 -0.0858 -0.4555 -0.5054
  573THF     C9 8585   4.048   0.915   3.589 -0.3564 -0.4904 -0.3066
  573THF    H10 8586   4.169   0.858   3.763  0.0376 -0.0052 -0.9329
  573THF    H11 8587   3.997   0.805   3.765 -1.4330  0.4741 -2.0622
  573THF    H12 8588   3.943   0.946   3.597 -0.0853  0.1195  1.4608
  573THF    H13 8589   4.098   1.012   3.588 -3.6939  1.3965 -0.5033
  574THF     O1 8590   0.002   3.756   0.303  0.0071  0.2271 -0.4549
  574THF     C2 8591  -0.001   3.766   0.162 -0.9347  0.3046  0.8292
  574THF     C3 8592   0.115   3.683   0.345 -0.0261  0.5995 -0.4861
  574THF     H4 8593   0.074   3.838   0.128 -0.8200  0.1792  0.8148
  574THF     H5 8594  -0.100   3.794   0.125 -1.6877 -1.6485  1.2442
  574THF     H6 8595   0.209   3.736   0.331  0.7917 -0.7704 -0.3634
  574THF     H7 8596   0.122   3.658   0.451 -2.4111 -2.1762 -0.8744
  574THF     C8 8597   0.118   3.565   0.242  0.5442 -0.7793 -0.3365
  574THF     C9 8598   0.044   3.622   0.118 -0.2882  0.3353 -1.1146
  574THF    H10 8599   0.063   3.477   0.274 -1.2276  1.1303  2.2277
  574THF    H11 8600   0.221   3.544   0.212 -0.1385 -0.8375 -2.9011
  574THF    H12 8601   0.116   3.626   0.035 -0.2647 -2.3509 -1.2906
  574THF    H13 8602  -0.037   3.554   0.092 -1.3104  1.0234  0.1806
  575THF     O1 8603   1.623   2.715   1.175 -0.5153  0.0785  0.1257
  575THF     C2 8604   1.623   2.579   1.217  0.2714  0.7044  0.1301
  575THF     C3 8605   1.553   2.796   1.274  0.0557 -0.4331  0.0324
  575THF     H4 8606   1.715   2.561   1.273  0.3222  1.3465  0.2587
  575THF     H5 8607   1.607   2.504   1.140  1.2272 -1.0495  1.5319
  575THF     H6 8608   1.609   2.883   1.310  0.4769 -0.9227  0.5737
  575THF     H7 8609   1.462   2.838   1.231  1.9545  1.4917 -2.4103
  575THF     C8 8610   1.537   2.702   1.389  0.3021  0.1804 -0.5839
  575THF     C9 8611   1.505   2.576   1.316  0.1231  0.1157  0.4092
  575THF    H10 8612   1.465   2.730   1.466  0.2180 -3.6917  0.9933
  575THF    H11 8613   1.633   2.692   1.441  0.2437  1.0348 -0.2974
  575THF    H12 8614   1.497   2.485   1.376 -3.1990  0.0070 -0.0368
  575THF    H13 8615   1.408   2.580   1.266  0.8266 -0.9769 -1.1365
  576THF     O1 8616   1.535   0.117   3.163  0.0597  0.9498  0.8042
  576THF     C2 8617   1.619   0.201   3.092 -0.3465  0.4566 -0.1163
  576THF     C3 8618   1.457   0.044   3.074  0.0589 -0.0203  0.3642
  576THF     H4 8619   1.706   0.141   3.068  0.1558  1.1098  0.0608
  576THF     H5 8620   1.657   0.280   3.156 -0.8182  0.2949  0.3783
  576THF     H6 8621   1.518  -0.030   3.022 -0.9124  0.4448 -1.5425
  576THF     H7 8622   1.373  -0.005   3.122 -1.5768  1.2203 -1.0852
  576THF     C8 8623   1.412   0.156   2.976  0.1115  0.2648  0.4036
  576THF     C9 8624   1.537   0.245   2.975 -0.5670  0.1226  0.8221
  576THF    H10 8625   1.340   0.231   3.011 -1.4644 -2.1081  2.5625
  576THF    H11 8626   1.396   0.116   2.876 -2.6628  0.2935  0.7519
  576THF    H12 8627   1.590   0.226   2.882  1.5183  0.2250  1.9252
  576THF    H13 8628   1.506   0.349   2.985 -0.2523  0.3967 -0.8459
  577THF     O1 8629   4.512   2.305   3.199  0.4634  0.3519  0.4174
  577THF     C2 8630   4.643   2.366   3.205  0.2972  0.4608  0.1333
  577THF     C3 8631   4.462   2.334   3.332 -0.5241 -0.5428 -0.1319
  577THF     H4 8632   4.668   2.375   3.099  1.0303 -2.4851 -0.0401
  577THF     H5 8633   4.723   2.303   3.245  1.9026  1.3661 -1.5312
  577THF     H6 8634   4.353   2.334   3.325 -0.5016 -0.9021 -0.5393
  577THF     H7 8635   4.499   2.262   3.405 -0.5591 -0.2644  0.1649
  577THF     C8 8636   4.499   2.479   3.356 -0.5721  0.3953  0.0382
  577THF     C9 8637   4.629   2.495   3.281 -0.4974  0.0382 -1.0900
  577THF    H10 8638   4.512   2.499   3.463  0.7652 -2.9617  0.6390
  577THF    H11 8639   4.427   2.544   3.308 -0.6286  0.9135  0.8026
  577THF    H12 8640   4.632   2.585   3.219 -1.7831  0.0536 -1.1534
  577THF    H13 8641   4.721   2.501   3.339 -1.4543  1.4078  0.3941
  578THF     O1 8642   3.799   4.122   5.051 -0.0761  0.0003  0.5691
  578THF     C2 8643   3.920   4.166   4.978 -0.4075 -0.8615  0.5238
  578THF     C3 8644   3.722   4.238   5.071  0.6897  0.0759  0.3083
  578THF     H4 8645   3.970   4.087   4.922  1.9861 -0.6009  2.1439
  578THF     H5 8646   4.003   4.200   5.040  1.3206  1.8194 -2.9114
  578THF     H6 8647   3.616   4.217   5.079  0.9211 -1.3346 -0.1224
  578THF     H7 8648   3.751   4.272   5.170  0.3112 -1.3440  0.9210
  578THF     C8 8649   3.758   4.347   4.974  1.1918  0.7779  0.6112
  578THF     C9 8650   3.863   4.279   4.880 -0.2796  0.1670 -0.4272
  578THF    H10 8651   3.808   4.428   5.027  0.5022 -0.4848  3.3786
  578THF    H11 8652   3.671   4.383   4.919  0.7227  0.5126  1.1733
  578THF    H12 8653   3.820   4.238   4.789 -0.9888 -0.4886  0.1787
  578THF    H13 8654   3.935   4.349   4.839  0.1930  0.4915  0.9087
  579THF     O1 8655   3.657   3.602   3.914 -0.5393  0.3921  0.4365
  579THF     C2 8656   3.556   3.619   3.820  0.1102  0.0128 -0.3539
  579THF     C3 8657   3.782   3.575   3.850  0.9595 -0.0469 -0.5956
  579THF     H4 8658   3.544   3.726   3.803 -0.4988 -0.1362 -0.9248
  579THF     H5 8659   3.464   3.586   3.869 -0.5207  2.9834  0.6716
  579THF     H6 8660   3.829   3.665   3.811  1.4468  0.3822  0.9139
  579THF     H7 8661   3.843   3.523   3.924  2.2733  1.6878 -0.4142
  579THF     C8 8662   3.745   3.479   3.743  0.4984 -0.3787  0.6793
  579THF     C9 8663   3.606   3.534   3.700 -1.2724  0.2042  0.4733
  579THF    H10 8664   3.738   3.378   3.783 -0.2323 -0.0763  1.3589
  579THF    H11 8665   3.822   3.487   3.666 -0.5540  4.3701 -0.2276
  579THF    H12 8666   3.629   3.597   3.614  1.0912 -1.7318 -0.4573
  579THF    H13 8667   3.532   3.460   3.669 -1.3040 -0.7174  2.5991
  580THF     O1 8668   4.358   1.675   2.498  0.1988  0.5211 -0.0995
  580THF     C2 8669   4.257   1.620   2.585  0.1063 -0.0051  0.8941
  580THF     C3 8670   4.295   1.779   2.425 -0.1790  0.1135 -0.2443
  580THF     H4 8671   4.226   1.688   2.665  0.9707 -1.1360  2.2219
  580THF     H5 8672   4.277   1.518   2.617  0.5465 -0.7323 -1.5003
  580THF     H6 8673   4.278   1.866   2.489  0.8385  0.6190 -0.6274
  580THF     H7 8674   4.368   1.807   2.348 -1.2191  2.3064 -0.5090
  580THF     C8 8675   4.168   1.708   2.373  0.6709  0.1429 -0.5286
  580THF     C9 8676   4.132   1.616   2.496  0.1598  0.5543  0.4295
  580THF    H10 8677   4.183   1.650   2.281 -1.7421  0.6722 -1.3436
  580THF    H11 8678   4.088   1.778   2.350  0.9446  1.9019  3.2465
  580THF    H12 8679   4.050   1.653   2.558 -1.0700 -2.7497  0.9976
  580THF    H13 8680   4.111   1.516   2.459  1.8701  0.1050  0.5974
  581THF     O1 8681   5.139   0.890   0.846  0.2791  0.2319  0.5222
  581THF     C2 8682   5.077   1.010   0.896  0.0513 -0.3733  0.3331
  581THF     C3 8683   5.279   0.897   0.877  0.7765 -0.0357 -0.3790
  581THF     H4 8684   5.010   0.981   0.977 -0.8777  1.0016  0.1044
  581THF     H5 8685   5.022   1.058   0.814  2.8950  3.5288  0.4358
  581THF     H6 8686   5.319   0.809   0.928 -0.3728 -0.2160  0.2273
  581THF     H7 8687   5.341   0.912   0.789  0.0657  0.7501 -0.7632
  581THF     C8 8688   5.291   1.007   0.980 -0.9949  0.0451 -0.8958
  581THF     C9 8689   5.191   1.111   0.932 -0.4925 -0.2085 -0.2234
  581THF    H10 8690   5.390   1.051   0.991 -0.2622 -1.8179  0.7597
  581THF    H11 8691   5.261   0.957   1.072  0.0269 -2.3953 -1.7843
  581THF    H12 8692   5.165   1.187   1.006  0.1442  0.8202 -1.0249
  581THF    H13 8693   5.246   1.157   0.849 -0.0121 -3.0946 -1.6222
  582THF     O1 8694   2.794   0.804   4.750  0.4244 -0.4497  0.3814
  582THF     C2 8695   2.662   0.790   4.684 -0.1410 -0.1221  0.0117
  582THF     C3 8696   2.789   0.919   4.822 -0.3635 -0.2920 -0.3115
  582THF     H4 8697   2.620   0.689   4.684  2.8997 -1.5223 -1.6422
  582THF     H5 8698   2.662   0.818   4.579  0.3659  1.5237  0.4287
  582THF     H6 8699   2.861   0.925   4.903  0.4529  2.2709 -1.1301
  582THF     H7 8700   2.817   0.997   4.751 -0.9606 -0.2577 -0.5214
  582THF     C8 8701   2.643   0.933   4.876  0.5270  0.2611  0.0109
  582THF     C9 8702   2.560   0.878   4.762  0.3771 -0.2790 -0.6314
  582THF    H10 8703   2.629   1.036   4.910  1.4843  0.2913  0.3331
  582THF    H11 8704   2.640   0.868   4.964 -1.0760  0.4347  0.1281
  582THF    H12 8705   2.466   0.830   4.789 -0.1145  1.1268  0.2917
  582THF    H13 8706   2.530   0.951   4.687 -0.7718 -1.2841 -1.1727
  583THF     O1 8707   5.188   1.627   4.829 -0.0092 -0.6267 -0.7163
  583THF     C2 8708   5.126   1.554   4.722  0.5792  0.3665  0.3289
  583THF     C3 8709   5.224   1.543   4.933 -0.0808  0.2810  0.2106
  583THF     H4 8710   5.188   1.548   4.632 -1.5400  0.0921 -1.1854
  583THF     H5 8711   5.029   1.591   4.690 -0.8836 -0.4573  3.3669
  583THF     H6 8712   5.328   1.515   4.915 -0.0227 -0.8740  2.0071
  583THF     H7 8713   5.216   1.598   5.027  3.0653  1.2714  0.0322
  583THF     C8 8714   5.141   1.422   4.918  0.3142  0.3606 -0.4799
  583THF     C9 8715   5.122   1.408   4.766  0.2276 -0.7614 -0.2039
  583THF    H10 8716   5.041   1.426   4.960 -1.0740 -1.6580 -3.2288
  583THF    H11 8717   5.192   1.340   4.968  1.6220  2.1483  1.2679
  583THF    H12 8718   5.213   1.364   4.727 -0.2244 -0.2901 -1.8608
  583THF    H13 8719   5.037   1.355   4.723  0.7283 -0.5678 -1.4692
  584THF     O1 8720   0.923   1.647   3.664 -0.4872  0.4021 -0.5179
  584THF     C2 8721   0.837   1.629   3.770  0.0815  0.1342 -0.0258
  584THF     C3 8722   0.878   1.576   3.553  0.6712  0.5832  0.1752
  584THF     H4 8723   0.850   1.705   3.847  2.3921  1.6297 -1.7750
  584THF     H5 8724   0.845   1.530   3.814 -1.7915 -0.1077 -0.1420
  584THF     H6 8725   0.919   1.622   3.464 -0.5533 -0.0483 -0.7507
  584THF     H7 8726   0.912   1.472   3.556 -0.4120  0.0001 -3.4803
  584THF     C8 8727   0.728   1.587   3.563  0.7493 -0.2140 -0.1477
  584THF     C9 8728   0.696   1.632   3.701 -0.2812 -1.0423  0.1053
  584THF    H10 8729   0.669   1.501   3.531  1.4361 -0.7659  0.0415
  584THF    H11 8730   0.701   1.670   3.498 -1.4139 -0.2155  0.6792
  584THF    H12 8731   0.663   1.735   3.686 -0.5044 -1.0248  0.6930
  584THF    H13 8732   0.612   1.576   3.742 -0.2109 -2.9750 -2.1554
  585THF     O1 8733   2.911   1.366   5.125  0.5157  0.2836 -0.5633
  585THF     C2 8734   2.841   1.483   5.092  0.0522 -0.4331 -0.7185
  585THF     C3 8735   2.998   1.336   5.013  0.0400 -0.2404  0.2152
  585THF     H4 8736   2.913   1.556   5.129 -0.4404 -1.1877  1.8967
  585THF     H5 8737   2.751   1.509   5.148 -0.7114  1.9609 -2.8152
  585THF     H6 8738   3.095   1.360   5.054  0.8770 -1.4378 -0.9626
  585THF     H7 8739   2.990   1.231   4.983 -0.4982  0.1589 -1.1424
  585THF     C8 8740   2.953   1.432   4.903 -0.1984 -1.5788  0.3264
  585THF     C9 8741   2.822   1.494   4.944 -0.1779  0.4258 -0.4244
  585THF    H10 8742   2.939   1.378   4.809 -1.8214 -0.0789 -0.3452
  585THF    H11 8743   3.033   1.504   4.886  0.6921 -2.3610  1.0834
  585THF    H12 8744   2.811   1.598   4.912 -0.9077  0.4588 -0.0985
  585THF    H13 8745   2.743   1.429   4.906  0.5666  0.0836 -1.4144
  586THF     O1 8746   3.442   1.180   3.744  0.2934  0.5275  0.4451
  586THF     C2 8747   3.307   1.125   3.763 -0.1803  0.0421 -0.0694
  586THF     C3 8748   3.506   1.089   3.654  0.3667  0.2514  0.4467
  586THF     H4 8749   3.242   1.206   3.796  1.7911  1.3672  0.7529
  586THF     H5 8750   3.330   1.045   3.833 -0.3660  0.6288  0.6741
  586THF     H6 8751   3.585   1.139   3.599  0.8367 -1.9959 -1.0674
  586THF     H7 8752   3.567   1.014   3.703  1.6657 -0.1720 -1.6836
  586THF     C8 8753   3.389   1.035   3.564 -0.0539  0.1720 -0.8311
  586THF     C9 8754   3.254   1.076   3.627 -0.3658 -0.0493 -0.9108
  586THF    H10 8755   3.379   0.927   3.561 -0.7126  0.1791  0.3529
  586THF    H11 8756   3.392   1.068   3.461  1.1476  0.6913 -0.6529
  586THF    H12 8757   3.207   1.158   3.574  1.3640  1.2723 -0.4800
  586THF    H13 8758   3.184   0.992   3.626 -0.7118  0.2298 -0.3654
  587THF     O1 8759   3.092   3.006   2.928 -0.1646  0.0268  0.1312
  587THF     C2 8760   3.002   3.117   2.914  0.1041 -0.5606 -0.1709
  587THF     C3 8761   3.007   2.899   2.976 -1.3761 -0.3074  0.1499
  587THF     H4 8762   3.037   3.202   2.855 -1.1857  0.2954  0.2524
  587THF     H5 8763   2.974   3.154   3.012  1.3817  3.4630 -1.1604
  587THF     H6 8764   3.066   2.807   2.980 -1.5091 -0.4177 -0.2907
  587THF     H7 8765   2.988   2.908   3.083  2.5610 -0.1487  0.9749
  587THF     C8 8766   2.886   2.907   2.883  0.2245 -0.2246  0.2927
  587THF     C9 8767   2.879   3.054   2.852 -0.6355  0.2650  0.0606
  587THF    H10 8768   2.788   2.875   2.919 -0.0618 -1.0841 -1.1964
  587THF    H11 8769   2.913   2.858   2.790  0.0831 -0.5141  0.4017
  587THF    H12 8770   2.886   3.076   2.745  1.4199 -1.7741 -0.3042
  587THF    H13 8771   2.790   3.099   2.895  0.2401  2.4723 -0.2944
  588THF     O1 8772   1.486   1.633   1.248 -0.1788 -0.6368 -0.2691
  588THF     C2 8773   1.355   1.592   1.226  0.2106  0.4564  0.3068
  588THF     C3 8774   1.503   1.758   1.190  0.1244  0.6217 -0.7505
  588THF     H4 8775   1.321   1.514   1.295  1.5725  1.8782  2.7295
  588THF     H5 8776   1.338   1.547   1.129  1.0643 -0.8831  0.7517
  588THF     H6 8777   1.580   1.823   1.231  1.4458 -0.1369 -1.9407
  588THF     H7 8778   1.524   1.733   1.086 -0.2159 -1.0941 -0.4260
  588THF     C8 8779   1.358   1.814   1.179  0.7842  0.1615 -0.6126
  588THF     C9 8780   1.263   1.711   1.231  0.0939  0.1807 -0.4014
  588THF    H10 8781   1.338   1.826   1.072 -1.3571  2.2918 -0.0648
  588THF    H11 8782   1.337   1.906   1.233 -0.6955 -1.8112  2.4476
  588THF    H12 8783   1.243   1.737   1.335  1.3321 -2.4971  0.6147
  588THF    H13 8784   1.163   1.705   1.187 -0.4522 -2.1433  0.9460
  589THF     O1 8785   3.064   4.262   0.099 -0.3174 -0.1485 -0.2422
  589THF     C2 8786   3.098   4.154   0.017 -0.1338 -0.1144  0.6856
  589THF     C3 8787   3.163   4.367   0.093 -0.5227  0.0640  0.0466
  589THF     H4 8788   3.039   4.171  -0.074  0.2238 -1.1977  0.2300
  589THF     H5 8789   3.072   4.052   0.046 -0.8552  0.4011  1.9143
  589THF     H6 8790   3.123   4.468   0.079 -0.4049  0.4214  2.0551
  589THF     H7 8791   3.193   4.368   0.197  2.8058  0.1299 -0.7973
  589THF     C8 8792   3.269   4.316  -0.007 -0.8265 -0.4061 -0.6371
  589THF     C9 8793   3.245   4.172  -0.021  0.8241 -0.2184 -0.5808
  589THF    H10 8794   3.370   4.330   0.033 -1.3777 -0.8971  1.0195
  589THF    H11 8795   3.251   4.384  -0.090 -4.2462  2.5237  2.1929
  589THF    H12 8796   3.277   4.146  -0.122 -2.1996 -1.5866 -1.3027
  589THF    H13 8797   3.301   4.113   0.052 -1.1763 -1.3006  0.1503
  590THF     O1 8798   3.521   3.213   3.222  0.2070  0.7538 -0.3769
  590THF     C2 8799   3.556   3.080   3.265  0.0323  0.1117 -0.1791
  590THF     C3 8800   3.547   3.310   3.317 -0.7427 -0.4998 -0.2411
  590THF     H4 8801   3.661   3.071   3.237 -0.0737  2.3103 -1.5029
  590THF     H5 8802   3.487   3.007   3.223 -0.7061 -1.2315  3.0834
  590THF     H6 8803   3.636   3.365   3.285 -1.2817  1.3731  1.3206
  590THF     H7 8804   3.475   3.392   3.318  0.6295  0.7990 -1.6164
  590THF     C8 8805   3.555   3.245   3.452 -0.3169 -0.0720  0.0198
  590THF     C9 8806   3.529   3.100   3.418  0.2182  0.3054  0.6482
  590THF    H10 8807   3.482   3.285   3.522 -0.2132 -1.8152  1.1974
  590THF    H11 8808   3.655   3.269   3.489 -0.0259 -0.3992 -0.5442
  590THF    H12 8809   3.584   3.031   3.482 -0.8053  1.3045  2.6897
  590THF    H13 8810   3.424   3.085   3.440  0.9282 -2.2547  2.8368
  591THF     O1 8811   0.826   4.976   4.726  0.4334  0.1066 -0.5749
  591THF     C2 8812   0.769   5.099   4.768 -0.3365 -0.0492  0.0628
  591THF     C3 8813   0.849   4.902   4.845  0.3770  0.0130  0.0846
  591THF     H4 8814   0.706   5.141   4.690  0.8543  0.4674 -0.6497
  591THF     H5 8815   0.853   5.166   4.787  0.7650 -1.4722  0.3941
  591THF     H6 8816   0.857   4.794   4.847  0.3511  0.0163  1.8896
  591THF     H7 8817   0.944   4.940   4.884  0.9889  1.7562 -2.7805
  591THF     C8 8818   0.734   4.950   4.947  0.1727 -0.5953  0.8871
  591THF     C9 8819   0.675   5.076   4.882  0.0811 -0.3599 -1.4327
  591THF    H10 8820   0.793   4.971   5.036  3.3462  0.0580 -1.2092
  591THF    H11 8821   0.647   4.886   4.958 -0.2100 -0.7762 -2.1635
  591THF    H12 8822   0.583   5.040   4.836  1.1226 -0.9879 -3.1333
  591THF    H13 8823   0.653   5.167   4.938  2.7468  0.3339 -1.3686
  592THF     O1 8824   2.485   0.361   0.747  0.3410 -0.7815 -0.1025
  592THF     C2 8825   2.610   0.432   0.739  0.2552  0.1206 -0.1853
  592THF     C3 8826   2.500   0.235   0.681  0.4289 -0.0063 -0.1386
  592THF     H4 8827   2.645   0.454   0.840 -0.8198 -2.8413  0.9474
  592THF     H5 8828   2.609   0.524   0.681 -0.0397  0.5497  0.4828
  592THF     H6 8829   2.435   0.177   0.746 -0.4868  0.7262 -0.3844
  592THF     H7 8830   2.466   0.233   0.577  1.3016  1.3092 -0.4752
  592THF     C8 8831   2.648   0.198   0.684 -0.5607  0.3470  0.9721
  592THF     C9 8832   2.714   0.345   0.675 -0.1920  0.4315  0.0193
  592THF    H10 8833   2.673   0.133   0.600 -0.9158 -0.1993  1.2806
  592THF    H11 8834   2.673   0.150   0.778  1.7707 -0.3791  0.0365
  592THF    H12 8835   2.816   0.352   0.711 -0.2720  1.4505  0.0705
  592THF    H13 8836   2.725   0.373   0.570 -2.4192  0.9750 -0.1208
  593THF     O1 8837   0.102   3.476   3.809 -0.4225  0.5896  0.2942
  593THF     C2 8838   0.063   3.387   3.700  0.2818  0.0328  0.0709
  593THF     C3 8839   0.244   3.482   3.818 -0.0618 -0.7221 -0.0337
  593THF     H4 8840  -0.038   3.415   3.670  0.5138  1.2223  0.3389
  593THF     H5 8841   0.059   3.283   3.731  0.3018  0.2616  0.8521
  593THF     H6 8842   0.262   3.588   3.833  1.0248 -0.2947 -3.4514
  593THF     H7 8843   0.298   3.422   3.891  1.8199 -1.0845 -1.6478
  593THF     C8 8844   0.287   3.451   3.671  0.4438  0.1286 -0.5615
  593THF     C9 8845   0.164   3.411   3.587  0.1793  0.3094 -0.5584
  593THF    H10 8846   0.360   3.370   3.664  0.2710 -0.2995  1.7418
  593THF    H11 8847   0.347   3.537   3.642 -1.5901  1.8647  0.1041
  593THF    H12 8848   0.137   3.500   3.531  0.6064  2.8970  3.0294
  593THF    H13 8849   0.182   3.322   3.526 -0.8497 -0.7621  0.6311
  594THF     O1 8850   5.285   3.181   2.199 -0.4353 -0.2099 -0.2981
  594THF     C2 8851   5.259   3.269   2.313  0.4989 -0.4108 -0.4665
  594THF     C3 8852   5.298   3.045   2.251 -0.2880  0.3977 -0.0289
  594THF     H4 8853   5.168   3.328   2.304 -1.5561 -3.2071  0.5354
  594THF     H5 8854   5.344   3.334   2.338  0.4906 -0.9832  1.1977
  594THF     H6 8855   5.265   2.973   2.176 -1.2756  0.5236  0.2680
  594THF     H7 8856   5.405   3.024   2.261 -1.0363 -3.1886  2.5607
  594THF     C8 8857   5.215   3.041   2.386  0.3446  0.1722  0.2387
  594THF     C9 8858   5.244   3.181   2.438 -1.3698  0.0561 -0.0831
  594THF    H10 8859   5.250   2.959   2.448 -0.9423 -2.3997 -2.2133
  594THF    H11 8860   5.112   3.018   2.359  1.0740 -2.0781 -0.8421
  594THF    H12 8861   5.164   3.217   2.503 -1.5313  0.4345 -0.4869
  594THF    H13 8862   5.337   3.159   2.490  0.1807  1.4035 -2.1229
  595THF     O1 8863   3.875   3.092   1.897  0.6247 -0.3007 -0.4517
  595THF     C2 8864   3.963   2.984   1.879 -0.8491 -0.0280 -0.5436
  595THF     C3 8865   3.940   3.212   1.934  0.3790 -0.0190  0.0008
  595THF     H4 8866   3.932   2.924   1.794 -0.0651 -1.2872  0.0315
  595THF     H5 8867   3.980   2.907   1.954 -0.9108  1.3805  0.9846
  595THF     H6 8868   3.878   3.299   1.909 -0.4084 -1.1506 -2.2947
  595THF     H7 8869   3.975   3.219   2.037 -1.0978 -0.5531  0.5786
  595THF     C8 8870   4.055   3.204   1.834  0.0748  0.1649 -0.0220
  595THF     C9 8871   4.094   3.056   1.835 -0.5719  0.1801  0.2554
  595THF    H10 8872   4.150   3.252   1.858  0.4435 -0.7608  0.4192
  595THF    H11 8873   4.021   3.219   1.731  3.7690 -0.7827 -1.5313
  595THF    H12 8874   4.116   3.015   1.736  0.6009 -1.8290  1.3011
  595THF    H13 8875   4.169   3.033   1.910 -2.3669  0.8588  2.3866
  596THF     O1 8876   1.689   0.922   3.403  0.3937 -0.3673  0.2190
  596THF     C2 8877   1.583   0.955   3.498 -0.5177  0.3224 -0.1451
  596THF     C3 8878   1.742   0.794   3.438 -1.4970 -0.5010 -0.2438
  596THF     H4 8879   1.511   1.025   3.455  0.9677  1.8018 -0.3606
  596THF     H5 8880   1.624   1.001   3.588  0.6837 -1.1477  0.0972
  596THF     H6 8881   1.754   0.730   3.351 -2.2038  1.2418 -1.6943
  596THF     H7 8882   1.831   0.810   3.498 -1.8607  0.4650  0.0572
  596THF     C8 8883   1.640   0.734   3.527 -0.2026 -1.0138 -0.4731
  596THF     C9 8884   1.516   0.821   3.517  0.0980  0.0570  0.0027
  596THF    H10 8885   1.670   0.735   3.632  1.5674 -0.5842 -0.9520
  596THF    H11 8886   1.622   0.628   3.509  0.0607 -0.7141 -2.8167
  596THF    H12 8887   1.454   0.789   3.433 -0.5683  0.1566  0.4468
  596THF    H13 8888   1.451   0.825   3.604 -0.1865 -0.0921 -0.1994
  597THF     O1 8889   1.061   0.148   0.037 -0.0756 -0.4246  0.0128
  597THF     C2 8890   1.181   0.187  -0.026  0.6199  0.1920 -0.2113
  597THF     C3 8891   1.099   0.044   0.130  0.2764 -0.2463 -0.1425
  597THF     H4 8892   1.171   0.272  -0.093  0.8083 -0.4782 -1.1094
  597THF     H5 8893   1.197   0.105  -0.096  1.6061  0.6949 -0.5946
  597THF     H6 8894   1.032   0.047   0.216  1.2911  0.0847  0.6515
  597THF     H7 8895   1.109  -0.057   0.089  1.4787 -0.5559  0.8628
  597THF     C8 8896   1.242   0.083   0.164 -1.2916  0.0915 -0.0326
  597THF     C9 8897   1.279   0.209   0.086  0.5055 -0.0858 -0.6058
  597THF    H10 8898   1.315   0.008   0.135  0.1585  1.4072  0.0706
  597THF    H11 8899   1.250   0.107   0.270 -0.7303 -2.1521  0.4810
  597THF    H12 8900   1.259   0.299   0.144  0.0889 -1.0766  0.8631
  597THF    H13 8901   1.378   0.217   0.041  0.3056 -0.2009 -1.0643
  598THF     O1 8902   3.063   3.106   1.770  0.2439 -0.4188  0.1170
  598THF     C2 8903   2.991   3.011   1.687  0.3463  0.1480  0.6387
  598THF     C3 8904   3.100   3.214   1.684  0.3775 -0.1647  0.2681
  598THF     H4 8905   2.923   2.942   1.737 -0.1941  0.9635  1.0452
  598THF     H5 8906   3.056   2.958   1.616 -1.9313 -0.5193 -1.0774
  598THF     H6 8907   3.122   3.300   1.747  1.5278  1.0459 -1.6688
  598THF     H7 8908   3.186   3.186   1.623  0.1650 -2.0831  0.7695
  598THF     C8 8909   2.969   3.241   1.600  0.1007  0.6713 -0.0013
  598THF     C9 8910   2.897   3.102   1.604 -0.4646 -0.2646 -0.0502
  598THF    H10 8911   2.988   3.262   1.495  1.7311  0.3319  0.2082
  598THF    H11 8912   2.909   3.317   1.651  1.0252  1.2404  0.2598
  598THF    H12 8913   2.796   3.104   1.645 -0.0539  0.0365  0.9706
  598THF    H13 8914   2.879   3.068   1.502 -1.1664  0.6933 -0.2611
  599THF     O1 8915   2.691   1.045   4.295  0.7412  0.6511  0.8759
  599THF     C2 8916   2.730   1.109   4.415  0.4155 -1.0352  0.1824
  599THF     C3 8917   2.552   1.083   4.260  0.0288 -0.1076 -0.4138
  599THF     H4 8918   2.838   1.125   4.417  0.0981  1.3672  0.2368
  599THF     H5 8919   2.698   1.056   4.504 -0.1976 -0.4623  0.3041
  599THF     H6 8920   2.544   1.067   4.152  1.4879  1.2429 -0.7631
  599THF     H7 8921   2.490   1.013   4.316  0.6946 -0.5422 -0.2060
  599THF     C8 8922   2.553   1.232   4.305  0.7038 -0.3498  0.1772
  599THF     C9 8923   2.677   1.247   4.395 -0.0686 -0.0326 -0.2167
  599THF    H10 8924   2.467   1.257   4.366  1.1872 -0.9818  1.1425
  599THF    H11 8925   2.546   1.300   4.220 -0.0159  0.1342  0.6195
  599THF    H12 8926   2.749   1.301   4.334  1.8278  1.1544  2.8245
  599THF    H13 8927   2.664   1.313   4.480 -1.9099  1.4692 -1.5850
  600THF     O1 8928   0.510   3.851   2.315 -0.2531  0.5049  0.3805
  600THF     C2 8929   0.601   3.751   2.359 -0.1326 -0.4400 -0.2576
  600THF     C3 8930   0.518   3.865   2.171 -0.3839 -0.0432 -0.0102
  600THF     H4 8931   0.554   3.653   2.367 -0.5304 -0.1445  1.1061
  600THF     H5 8932   0.618   3.773   2.464 -0.3172  0.2018 -0.3568
  600THF     H6 8933   0.460   3.787   2.121 -2.2855  1.9302 -1.0198
  600THF     H7 8934   0.475   3.962   2.148 -1.4210 -0.4802  0.0110
  600THF     C8 8935   0.672   3.862   2.155 -0.4444 -0.4071 -0.6884
  600THF     C9 8936   0.717   3.768   2.265  0.2715 -0.3089 -0.1516
  600THF    H10 8937   0.707   3.965   2.161  0.0190 -0.5153 -1.4928
  600THF    H11 8938   0.710   3.832   2.058  0.2198 -1.3097 -0.1666
  600THF    H12 8939   0.755   3.670   2.235 -1.8581 -1.7617  1.5234
  600THF    H13 8940   0.812   3.801   2.306 -0.3992 -0.4536  1.6139
  601THF     O1 8941   3.404   0.444   3.124  0.3121  0.1261  0.3896
  601THF     C2 8942   3.427   0.573   3.164 -0.2213 -0.5287 -0.2697
  601THF     C3 8943   3.315   0.452   3.010 -0.1412  0.8070 -0.2157
  601THF     H4 8944   3.521   0.578   3.219  0.2481  1.3136 -1.1493
  601THF     H5 8945   3.344   0.616   3.221  1.5276  2.6779  0.0903
  601THF     H6 8946   3.332   0.371   2.939 -1.1637 -0.6157  1.1104
  601THF     H7 8947   3.214   0.447   3.049  0.2959 -0.7540  0.8029
  601THF     C8 8948   3.344   0.579   2.941 -0.1432  0.0070 -0.1487
  601THF     C9 8949   3.442   0.652   3.033 -0.3083  0.5232 -0.2118
  601THF    H10 8950   3.249   0.630   2.924 -0.3845 -0.6459 -0.7962
  601THF    H11 8951   3.390   0.562   2.844 -1.9625 -0.1507 -1.0316
  601THF    H12 8952   3.543   0.633   2.998 -0.3694 -0.1285 -0.0483
  601THF    H13 8953   3.427   0.760   3.043  0.2170  0.3865  3.4571
  602THF     O1 8954   3.172   2.643   1.601 -0.2896  0.2537 -0.1378
  602THF     C2 8955   3.177   2.513   1.654 -0.6796  0.7397 -0.0976
  602THF     C3 8956   3.184   2.637   1.463  0.8274  0.0417  0.2178
  602THF     H4 8957   3.084   2.458   1.642 -0.6422  0.6540  0.0060
  602THF     H5 8958   3.202   2.521   1.760  1.5426 -0.4457 -0.4635
  602THF     H6 8959   3.095   2.593   1.417  0.4022  1.4264 -0.3304
  602THF     H7 8960   3.202   2.732   1.412 -0.2391 -0.6834 -1.6175
  602THF     C8 8961   3.307   2.549   1.455 -0.5476 -0.4386  0.5274
  602THF     C9 8962   3.290   2.451   1.571  0.3020 -0.0052 -0.6659
  602THF    H10 8963   3.402   2.601   1.444 -1.4635  0.8515 -2.1525
  602THF    H11 8964   3.309   2.496   1.360  0.3353  0.2162  0.1702
  602THF    H12 8965   3.281   2.346   1.543  0.9172 -0.1589 -0.3152
  602THF    H13 8966   3.379   2.457   1.633 -0.6724 -1.4354  0.9494
  603THF     O1 8967   3.235   4.821   2.909  0.6887  0.4386  0.1892
  603THF     C2 8968   3.356   4.759   2.878 -0.0040 -0.5115 -0.3398
  603THF     C3 8969   3.220   4.819   3.057 -0.3992  0.0747 -0.3913
  603THF     H4 8970   3.438   4.821   2.843 -0.4086 -0.2978 -0.9323
  603THF     H5 8971   3.333   4.690   2.797 -1.7653  0.6210 -0.8663
  603THF     H6 8972   3.175   4.911   3.097  1.5400  0.3404  1.3610
  603THF     H7 8973   3.158   4.734   3.085 -0.8818  0.7219  0.6085
  603THF     C8 8974   3.360   4.798   3.114 -0.0512  0.5984 -0.2486
  603THF     C9 8975   3.406   4.698   3.011 -0.1240 -1.0223 -0.2533
  603THF    H10 8976   3.357   4.764   3.218  0.9030 -1.2572 -0.7903
  603THF    H11 8977   3.418   4.891   3.111  1.9027 -0.5801 -1.3276
  603THF    H12 8978   3.515   4.699   3.018 -0.1294  0.0777 -0.1812
  603THF    H13 8979   3.380   4.593   3.024 -0.4698 -0.7083  2.0532
  604THF     O1 8980   4.564   0.293   4.223 -0.0351  0.2852  0.3710
  604THF     C2 8981   4.659   0.366   4.150  0.6475 -0.4818 -0.5405
  604THF     C3 8982   4.607   0.297   4.357  0.6311 -0.6121  0.4751
  604THF     H4 8983   4.636   0.473   4.154 -1.1320 -0.6147 -3.6351
  604THF     H5 8984   4.657   0.324   4.049 -1.5381 -1.7991 -0.0036
  604THF     H6 8985   4.550   0.373   4.409 -1.7221  0.6551 -3.5219
  604THF     H7 8986   4.583   0.202   4.405 -0.9328 -1.5968 -2.0732
  604THF     C8 8987   4.753   0.324   4.360 -0.5958  0.0374 -0.1398
  604THF     C9 8988   4.793   0.326   4.216  0.2858  0.1710 -0.0739
  604THF    H10 8989   4.810   0.242   4.403 -0.6166  0.1397  0.0838
  604THF    H11 8990   4.780   0.410   4.422 -0.3604  0.1050 -0.3350
  604THF    H12 8991   4.874   0.393   4.189 -0.1339  0.8248  0.2542
  604THF    H13 8992   4.812   0.226   4.178 -0.9520  0.2751 -1.0493
  605THF     O1 8993   5.334   4.689   0.472  0.9182 -0.0100  0.2332
  605THF     C2 8994   5.438   4.620   0.401 -0.2140  0.2528  0.9575
  605THF     C3 8995   5.279   4.603   0.569 -0.4468  0.7391 -0.4640
  605THF     H4 8996   5.529   4.614   0.461  0.1914 -1.9951  0.2274
  605THF     H5 8997   5.460   4.662   0.303  0.3971 -1.6473  0.2385
  605THF     H6 8998   5.352   4.589   0.649 -0.9140 -1.7457 -0.3736
  605THF     H7 8999   5.187   4.654   0.599 -0.0701  0.7074  0.7976
  605THF     C8 9000   5.272   4.470   0.496 -0.1844  0.3141 -0.0380
  605THF     C9 9001   5.374   4.483   0.384 -0.8928 -0.2839  0.4781
  605THF    H10 9002   5.177   4.434   0.456 -1.0183 -0.3706  2.3636
  605THF    H11 9003   5.293   4.397   0.575  1.3093  0.7027 -0.0673
  605THF    H12 9004   5.438   4.394   0.378  0.4944  0.6182  1.3335
  605THF    H13 9005   5.313   4.466   0.296  0.5693 -2.4526 -0.2024
  606THF     O1 9006   3.664   0.532   0.341 -0.2247 -0.0221  0.2417
  606THF     C2 9007   3.616   0.396   0.353 -0.4706  0.2971 -0.7354
  606THF     C3 9008   3.552   0.599   0.285  0.6315  0.3357  0.4402
  606THF     H4 9009   3.692   0.347   0.414  4.1658  3.0146 -3.7612
  606THF     H5 9010   3.609   0.344   0.258 -1.6156  1.3325 -1.2384
  606THF     H6 9011   3.563   0.708   0.289 -4.1255  1.1117 -0.6845
  606THF     H7 9012   3.540   0.571   0.181  0.6040  1.5921  0.0891
  606THF     C8 9013   3.436   0.556   0.376 -0.0208 -0.1130  0.3533
  606THF     C9 9014   3.473   0.414   0.411  0.7808 -0.5467 -0.3190
  606THF    H10 9015   3.339   0.571   0.328  1.0719  0.0329 -1.9529
  606THF    H11 9016   3.443   0.618   0.465 -1.0646 -0.4229  0.6748
  606THF    H12 9017   3.466   0.407   0.520 -0.1171  0.2270 -0.3128
  606THF    H13 9018   3.401   0.347   0.364 -1.5314 -0.1216  2.3465
  607THF     O1 9019   3.042   5.429   1.234  0.0372 -0.2977 -0.1184
  607THF     C2 9020   2.927   5.400   1.316 -0.3270  0.1536  0.2484
  607THF     C3 9021   3.004   5.388   1.101 -0.8118 -0.2357  0.2180
  607THF     H4 9022   2.923   5.467   1.402 -0.8675 -0.6760  0.8882
  607THF     H5 9023   2.952   5.299   1.348 -1.8253 -1.8555 -4.1400
  607THF     H6 9024   3.065   5.417   1.015 -0.6069 -0.9623  0.1120
  607THF     H7 9025   2.990   5.281   1.088 -1.7645  0.0282 -1.2467
  607THF     C8 9026   2.863   5.456   1.091 -0.2950  0.4632  0.2170
  607THF     C9 9027   2.807   5.417   1.226 -0.1970 -0.8064 -0.4787
  607THF    H10 9028   2.805   5.415   1.009 -0.2871 -0.7166  0.7855
  607THF    H11 9029   2.874   5.563   1.071  1.1048  0.1448 -0.8560
  607THF    H12 9030   2.728   5.482   1.265 -0.7156 -1.5411 -0.2705
  607THF    H13 9031   2.770   5.314   1.232  0.7482 -1.0940  1.5208
  608THF     O1 9032   3.622   2.355   0.513 -0.0695  0.1672  0.1874
  608THF     C2 9033   3.549   2.372   0.393 -0.2433  0.0361  0.7732
  608THF     C3 9034   3.527   2.379   0.615  0.3185  0.3827 -0.9293
  608THF     H4 9035   3.608   2.340   0.307  0.6245 -1.6350  1.9241
  608THF     H5 9036   3.526   2.475   0.367 -0.5843 -0.6820 -2.0705
  608THF     H6 9037   3.565   2.345   0.711 -2.5310 -0.0019  0.1573
  608THF     H7 9038   3.497   2.484   0.621 -1.2541 -0.0436 -0.7977
  608THF     C8 9039   3.403   2.294   0.557  0.1858 -0.0547  0.0788
  608THF     C9 9040   3.424   2.287   0.408  0.4350 -0.2315  0.0499
  608THF    H10 9041   3.314   2.339   0.601  1.0573 -1.0374  3.1219
  608THF    H11 9042   3.401   2.196   0.605 -0.5409  0.6324  1.5145
  608THF    H12 9043   3.444   2.191   0.361  0.5795 -0.6905  1.0217
  608THF    H13 9044   3.344   2.342   0.359  0.7314 -1.6049 -2.1247
  609THF     O1 9045   2.333   4.258   3.850  0.2225  0.7344 -0.6771
  609THF     C2 9046   2.244   4.150   3.867 -0.4661  0.4663 -0.0672
  609THF     C3 9047   2.453   4.215   3.788  0.1538  0.2087 -0.5541
  609THF     H4 9048   2.190   4.133   3.774  3.2925  1.9024 -2.7251
  609THF     H5 9049   2.178   4.159   3.953  0.5352  0.6246  0.7036
  609THF     H6 9050   2.453   4.204   3.679  1.4128  0.2189 -0.5702
  609THF     H7 9051   2.523   4.295   3.814  1.3048 -0.0792 -2.5552
  609THF     C8 9052   2.474   4.083   3.861 -0.1472 -0.6955 -0.1395
  609THF     C9 9053   2.336   4.030   3.872  0.3819  0.3439 -0.5011
  609THF    H10 9054   2.517   4.100   3.959  1.4699  1.5982 -1.1522
  609THF    H11 9055   2.539   4.015   3.805 -1.3152 -1.1683 -0.9527
  609THF    H12 9056   2.318   3.960   3.791  1.4228  1.3601 -1.6403
  609THF    H13 9057   2.337   3.971   3.964  1.1301  0.3672 -0.4899
  610THF     O1 9058   2.439   2.198   2.691  0.0870  0.1043  0.0546
  610THF     C2 9059   2.364   2.270   2.794 -0.6478 -0.7623 -0.3265
  610THF     C3 9060   2.557   2.280   2.691 -0.0521 -0.3648  0.3443
  610THF     H4 9061   2.273   2.218   2.823 -0.5933  0.1227  1.5942
  610THF     H5 9062   2.344   2.373   2.763 -1.6380 -1.0466 -0.6614
  610THF     H6 9063   2.639   2.237   2.633 -0.3848  0.6214 -0.9064
  610THF     H7 9064   2.530   2.378   2.651  1.3160 -0.2584 -0.3708
  610THF     C8 9065   2.594   2.290   2.842  0.3868  0.6085  0.3131
  610THF     C9 9066   2.459   2.275   2.912 -0.2304 -0.0463  1.0177
  610THF    H10 9067   2.639   2.386   2.865 -0.6336  0.7280  2.0627
  610THF    H11 9068   2.662   2.206   2.857  0.1471  0.2294 -0.6400
  610THF    H12 9069   2.457   2.188   2.977  1.1386 -3.1635 -2.7456
  610THF    H13 9070   2.422   2.353   2.978 -3.0186 -0.8604  0.5331
  611THF     O1 9071   5.437   2.776   5.170 -0.4807  0.3268  0.3325
  611THF     C2 9072   5.315   2.721   5.125  0.0583  0.0536  0.4537
  611THF     C3 9073   5.538   2.672   5.173 -0.2271 -0.6349  0.0498
  611THF     H4 9074   5.239   2.789   5.085  2.8311  1.9951 -1.9745
  611THF     H5 9075   5.257   2.667   5.200  1.3954 -0.1171  1.3943
  611THF     H6 9076   5.626   2.707   5.120 -1.1007  1.2116 -0.2657
  611THF     H7 9077   5.557   2.636   5.273 -0.3698  0.7786  0.6084
  611THF     C8 9078   5.482   2.558   5.087  0.2563  0.0910 -0.4920
  611THF     C9 9079   5.359   2.620   5.020 -0.1772  0.3712  0.2425
  611THF    H10 9080   5.442   2.473   5.142 -0.1623  0.1193 -0.7466
  611THF    H11 9081   5.553   2.515   5.016 -0.1243 -1.0791 -0.1759
  611THF    H12 9082   5.399   2.678   4.936  0.1667  0.5346  0.5143
  611THF    H13 9083   5.292   2.539   4.993  0.5730 -0.8328  1.8656
  612THF     O1 9084   5.407   4.504   1.421  0.0798  0.0709  0.0926
  612THF     C2 9085   5.551   4.523   1.444 -0.1305  0.2750  1.2320
  612THF     C3 9086   5.356   4.635   1.436 -0.7717 -0.0452 -0.2340
  612THF     H4 9087   5.615   4.541   1.359  0.4396  0.1391  1.6292
  612THF     H5 9088   5.607   4.435   1.475  1.7086  0.4227 -1.4438
  612THF     H6 9089   5.373   4.688   1.342 -1.2877  1.2663  0.3804
  612THF     H7 9090   5.247   4.637   1.440 -0.7409  0.9339  0.5649
  612THF     C8 9091   5.419   4.685   1.568 -0.1762 -0.6057  0.4131
  612THF     C9 9092   5.556   4.637   1.546  0.5616 -0.3509  0.3511
  612THF    H10 9093   5.363   4.636   1.648 -0.6879 -2.9973 -1.2892
  612THF    H11 9094   5.421   4.791   1.591 -0.9721 -0.7164  1.0374
  612THF    H12 9095   5.619   4.724   1.528  0.5196 -0.0313  1.6017
  612THF    H13 9096   5.596   4.615   1.645  0.1830  0.4677  0.7016
  613THF     O1 9097   2.849   1.936   0.226  0.2015  0.2851 -0.4219
  613THF     C2 9098   2.941   1.901   0.329  0.1008 -0.6811  0.4100
  613THF     C3 9099   2.842   1.826   0.138  0.4682  0.5934  0.8947
  613THF     H4 9100   2.908   1.961   0.414  1.1110 -0.0268  0.3458
  613THF     H5 9101   3.035   1.953   0.313 -1.3787  2.8222  2.0276
  613THF     H6 9102   2.745   1.829   0.089  0.0128 -1.6466  1.5758
  613THF     H7 9103   2.919   1.822   0.061 -0.7548 -1.3148 -0.3082
  613THF     C8 9104   2.839   1.708   0.223 -0.4670  0.2670 -0.4080
  613THF     C9 9105   2.940   1.742   0.330  0.2847  0.2135  0.7848
  613THF    H10 9106   2.858   1.614   0.172  2.0798  0.3643  0.2261
  613THF    H11 9107   2.739   1.698   0.266 -0.2206 -0.3828  0.0392
  613THF    H12 9108   2.908   1.709   0.429 -0.3193  1.6459  1.0985
  613THF    H13 9109   3.033   1.701   0.291 -1.1364 -0.4304 -2.2238
  614THF     O1 9110   0.667   2.749   3.419 -0.3017 -0.1860 -0.1397
  614THF     C2 9111   0.733   2.710   3.300 -0.6031 -0.9151  0.3057
  614THF     C3 9112   0.604   2.627   3.461 -0.4645 -0.6017 -0.2875
  614THF     H4 9113   0.833   2.751   3.293 -1.0558  0.2316  0.3943
  614THF     H5 9114   0.682   2.735   3.206 -0.6763 -3.8463 -0.5387
  614THF     H6 9115   0.575   2.634   3.566 -2.0097  2.4498 -0.7905
  614THF     H7 9116   0.515   2.597   3.405 -0.3704 -2.7577  0.6333
  614THF     C8 9117   0.704   2.511   3.434 -0.1620  0.0275  0.3385
  614THF     C9 9118   0.765   2.558   3.300  0.2348 -0.0521 -0.2035
  614THF    H10 9119   0.655   2.414   3.429 -3.2171  1.4845 -0.2357
  614THF    H11 9120   0.769   2.508   3.522  1.5301  1.6379 -0.7722
  614THF    H12 9121   0.874   2.548   3.290  0.0332 -1.3114 -1.4621
  614THF    H13 9122   0.728   2.498   3.216  0.1433 -0.7293  0.3164
  615THF     O1 9123   4.598   2.276   1.888 -0.3699  0.0788  0.2149
  615THF     C2 9124   4.502   2.223   1.796  1.0077 -0.4535 -0.0282
  615THF     C3 9125   4.532   2.338   1.987  0.4058 -0.2790 -0.6640
  615THF     H4 9126   4.453   2.133   1.833  0.2935  0.2050  0.6247
  615THF     H5 9127   4.542   2.201   1.696 -0.4963  0.8720 -0.9521
  615THF     H6 9128   4.486   2.267   2.057 -0.8865  0.9618 -0.2017
  615THF     H7 9129   4.598   2.414   2.028 -1.1373  0.2025  1.0945
  615THF     C8 9130   4.416   2.409   1.916 -0.5466 -0.4585 -0.4802
  615THF     C9 9131   4.403   2.339   1.788 -0.1179  1.0752 -0.0133
  615THF    H10 9132   4.444   2.514   1.905 -0.4098 -0.5082 -0.6114
  615THF    H11 9133   4.338   2.399   1.992  0.2465 -0.0197  0.4121
  615THF    H12 9134   4.299   2.326   1.760  0.2887  1.4757 -1.8587
  615THF    H13 9135   4.449   2.408   1.717  2.3603  0.3656  0.7962
  616THF     O1 9136   3.940   3.152   4.951 -0.2180 -0.1437  0.2730
  616THF     C2 9137   4.053   3.228   4.940 -0.4575 -0.0597 -0.7474
  616THF     C3 9138   3.928   3.091   5.082  0.1927  0.3380 -0.0216
  616THF     H4 9139   4.053   3.295   4.854  0.4042 -1.1197 -1.6049
  616THF     H5 9140   4.154   3.186   4.934 -0.0844  0.9895 -3.0748
  616THF     H6 9141   3.826   3.074   5.113 -0.0589 -0.8497 -1.3858
  616THF     H7 9142   3.987   3.003   5.107  0.9687  0.3612 -1.6482
  616THF     C8 9143   3.981   3.199   5.167  0.1414  0.3276 -0.5526
  616THF     C9 9144   4.046   3.297   5.071 -0.2244  0.2746 -0.2559
  616THF    H10 9145   4.053   3.166   5.243 -0.4413  0.4525  0.0619
  616THF    H11 9146   3.899   3.253   5.215 -1.1870  0.4427 -2.8112
  616THF    H12 9147   3.986   3.387   5.060 -1.3975 -0.4275  0.2225
  616THF    H13 9148   4.148   3.314   5.106 -0.2341  0.9276 -0.5295
  617THF     O1 9149   3.564   4.381   4.687  0.1349 -0.3725  0.5313
  617THF     C2 9150   3.439   4.435   4.641 -0.2460 -1.2363  0.3602
  617THF     C3 9151   3.645   4.358   4.577 -0.0353 -0.5126  0.3050
  617THF     H4 9152   3.437   4.543   4.649 -1.1953 -1.2868  1.1142
  617THF     H5 9153   3.354   4.411   4.706 -1.9236  0.5748 -1.0424
  617THF     H6 9154   3.701   4.441   4.536 -0.0984 -0.0670  1.0891
  617THF     H7 9155   3.714   4.281   4.612 -1.5589 -2.3427 -0.5101
  617THF     C8 9156   3.538   4.298   4.477 -0.3564 -0.5771  0.2538
  617THF     C9 9157   3.417   4.392   4.498  0.2599 -0.5047  0.5589
  617THF    H10 9158   3.507   4.201   4.515  0.3169 -0.2100  1.8052
  617THF    H11 9159   3.566   4.288   4.373 -0.2194 -1.1366  0.3470
  617THF    H12 9160   3.433   4.468   4.421 -4.7144 -0.6510 -0.9253
  617THF    H13 9161   3.318   4.361   4.467  0.5427 -1.2838  0.4225
  618THF     O1 9162   1.980   4.463   1.511 -0.7772 -0.3121  0.1487
  618THF     C2 9163   2.071   4.558   1.471 -0.3194  0.5619  0.2739
  618THF     C3 9164   2.042   4.370   1.600  0.1337  1.1753  0.0325
  618THF     H4 9165   2.029   4.658   1.477  2.9891  2.0799  0.2711
  618THF     H5 9166   2.097   4.537   1.367 -0.1562  2.0202 -0.0011
  618THF     H6 9167   1.996   4.372   1.699  3.1830  2.9353  1.5829
  618THF     H7 9168   2.027   4.270   1.561  1.7398 -0.0584  2.3840
  618THF     C8 9169   2.188   4.399   1.589  0.0586 -1.3782 -0.0334
  618THF     C9 9170   2.185   4.548   1.564 -0.5854 -1.0347  0.2489
  618THF    H10 9171   2.232   4.352   1.501 -0.4654 -1.0494 -0.4713
  618THF    H11 9172   2.254   4.370   1.671  2.6890 -2.2907 -2.2821
  618THF    H12 9173   2.158   4.608   1.651 -0.5250  0.6248 -0.8485
  618THF    H13 9174   2.278   4.588   1.525 -1.0691 -0.4531 -0.3337
  619THF     O1 9175   3.846   0.125   5.319 -0.1302  0.0991  0.0475
  619THF     C2 9176   3.717   0.186   5.338 -0.2143  0.1181 -0.6101
  619THF     C3 9177   3.933   0.196   5.398  0.3493 -0.0569 -0.4430
  619THF     H4 9178   3.629   0.123   5.322  1.2860 -3.0943  2.3363
  619THF     H5 9179   3.708   0.275   5.275 -2.3376  1.7302  1.7745
  619THF     H6 9180   4.026   0.144   5.419 -0.1974 -0.8173  0.1673
  619THF     H7 9181   3.954   0.298   5.366  0.8564  0.0468  0.1900
  619THF     C8 9182   3.865   0.198   5.529  0.1800 -0.1952 -0.0093
  619THF     C9 9183   3.718   0.223   5.494  0.2221 -0.5877  0.4491
  619THF    H10 9184   3.887   0.283   5.594 -0.6657  0.9751 -1.2132
  619THF    H11 9185   3.866   0.106   5.588  1.6605 -0.1469  0.0738
  619THF    H12 9186   3.653   0.148   5.538 -1.3245  0.6709  0.4101
  619THF    H13 9187   3.675   0.323   5.497 -0.0303 -0.5230 -2.4352
  620THF     O1 9188   3.585   1.044   3.270 -0.4690  0.6208  0.2639
  620THF     C2 9189   3.649   1.091   3.149  0.3981  0.9188  0.3030
  620THF     C3 9190   3.665   0.936   3.322  0.0786  0.0599 -0.6181
  620THF     H4 9191   3.738   1.152   3.164  2.2648 -1.4766 -0.3677
  620THF     H5 9192   3.573   1.143   3.091 -1.9231 -0.7894  1.6624
  620THF     H6 9193   3.749   0.976   3.379  0.9704 -0.7902 -1.2842
  620THF     H7 9194   3.614   0.877   3.398 -0.9682  0.3164 -1.1120
  620THF     C8 9195   3.713   0.861   3.200  0.4355 -0.2078 -0.0140
  620THF     C9 9196   3.693   0.961   3.085  0.3345  0.4091  0.0362
  620THF    H10 9197   3.651   0.774   3.179 -1.7709  1.4817 -0.9031
  620THF    H11 9198   3.812   0.819   3.219  0.2164 -0.1537  1.3222
  620THF    H12 9199   3.783   0.961   3.024  0.2465  0.0487 -0.0904
  620THF    H13 9200   3.611   0.923   3.025  0.3342 -0.8852  0.8338
  621THF     O1 9201   4.311   3.369   1.066 -0.0097 -0.0231 -0.3348
  621THF     C2 9202   4.382   3.430   1.179  0.0531  0.0600  0.5414
  621THF     C3 9203   4.395   3.297   0.978 -0.1237  0.1106  0.7643
  621THF     H4 9204   4.392   3.357   1.260  0.4514 -0.7163 -0.1824
  621THF     H5 9205   4.321   3.510   1.220 -0.7323  0.4892 -1.3595
  621THF     H6 9206   4.411   3.196   1.016  1.1100 -1.7507 -3.9443
  621THF     H7 9207   4.364   3.288   0.874 -2.3818  0.5848  1.3557
  621THF     C8 9208   4.524   3.383   0.985  0.5207 -0.4284 -0.2133
  621THF     C9 9209   4.506   3.476   1.103 -0.0131 -0.5301 -0.6176
  621THF    H10 9210   4.516   3.435   0.889 -0.5999  1.8621  1.0264
  621THF    H11 9211   4.615   3.323   0.988  0.8427 -0.0345 -1.4544
  621THF    H12 9212   4.595   3.483   1.166  1.3428  0.3905 -2.5384
  621THF    H13 9213   4.495   3.578   1.066 -2.0567 -1.3981 -2.6228
  622THF     O1 9214   4.015   1.908   3.837  0.3050 -0.7069  0.0696
  622THF     C2 9215   3.902   1.853   3.901  0.6374 -0.0788 -0.0567
  622THF     C3 9216   4.122   1.911   3.929 -0.2555  0.1050  0.3978
  622THF     H4 9217   3.850   1.788   3.831 -1.3551  1.1562  0.2191
  622THF     H5 9218   3.829   1.928   3.929 -0.2672 -0.8164 -0.3812
  622THF     H6 9219   4.218   1.914   3.878 -0.0861  1.3038  0.7601
  622THF     H7 9220   4.113   1.990   4.003 -1.0564  0.3428  0.0574
  622THF     C8 9221   4.094   1.779   4.005 -0.3095  0.4751  0.2668
  622THF     C9 9222   3.943   1.780   4.021  0.4806 -0.0362 -0.3655
  622THF    H10 9223   4.155   1.781   4.095  0.1786  0.3441 -0.0581
  622THF    H11 9224   4.135   1.700   3.942  3.0655  2.2868 -0.0249
  622THF    H12 9225   3.886   1.692   4.049 -2.1831  0.4127 -3.6782
  622THF    H13 9226   3.916   1.851   4.099  2.1022  1.2583 -0.9226
  623THF     O1 9227   5.035   5.017   3.141  0.5486 -0.4362  0.1150
  623THF     C2 9228   5.103   4.997   3.023  0.3158  0.3973  0.5069
  623THF     C3 9229   5.086   5.132   3.196 -0.0369 -0.5671  0.2234
  623THF     H4 9230   5.074   5.067   2.945  3.7968  1.4989  0.0280
  623THF     H5 9231   5.087   4.898   2.980 -1.0431  1.5200 -1.7710
  623THF     H6 9232   5.048   5.223   3.149  1.9006  0.1123 -0.1242
  623THF     H7 9233   5.058   5.137   3.302  1.0020 -0.2181  0.4945
  623THF     C8 9234   5.235   5.116   3.176  0.1846  0.9575 -0.0282
  623THF     C9 9235   5.249   5.035   3.050  0.0814 -0.2832  0.3818
  623THF    H10 9236   5.274   5.043   3.247 -1.4401  0.9612  0.9149
  623THF    H11 9237   5.304   5.201   3.170  2.1442 -0.6644 -2.4608
  623THF    H12 9238   5.294   5.090   2.967  0.1939  0.1033  0.6959
  623THF    H13 9239   5.299   4.940   3.071  1.1137 -0.2674 -1.7386
  624THF     O1 9240   4.871   1.474   2.345 -0.2780  0.0327  0.1530
  624THF     C2 9241   4.838   1.611   2.329 -0.5762  0.0005 -0.1266
  624THF     C3 9242   4.771   1.425   2.435  0.1628  0.3508 -0.1302
  624THF     H4 9243   4.890   1.668   2.252 -1.7938 -0.5305 -1.3958
  624THF     H5 9244   4.867   1.676   2.411 -1.1355  0.0189  0.0622
  624THF     H6 9245   4.761   1.317   2.436 -0.4173  0.3977  0.6423
  624THF     H7 9246   4.796   1.457   2.536 -2.8772  1.9156  0.2552
  624THF     C8 9247   4.639   1.499   2.399 -0.1696  0.0000  0.6662
  624THF     C9 9248   4.689   1.612   2.312  0.1697 -0.2959 -0.1747
  624THF    H10 9249   4.577   1.536   2.481 -0.8990  0.2663  0.0047
  624THF    H11 9250   4.583   1.428   2.339 -0.4025  0.6999  0.0490
  624THF    H12 9251   4.670   1.591   2.207  0.0635 -0.0582 -0.2036
  624THF    H13 9252   4.637   1.707   2.328  1.2047  0.9680 -3.5170
  625THF     O1 9253   0.877   2.219   3.556 -0.1610 -0.1953  0.4385
  625THF     C2 9254   0.751   2.158   3.564 -0.1745 -0.2477 -0.0091
  625THF     C3 9255   0.979   2.122   3.520  0.2415 -0.0361 -0.0544
  625THF     H4 9256   0.713   2.149   3.462  0.6044  2.5395 -0.6330
  625THF     H5 9257   0.686   2.232   3.611 -2.7951 -0.6629 -2.6387
  625THF     H6 9258   1.004   2.125   3.414 -2.2276 -1.4748 -0.7530
  625THF     H7 9259   1.080   2.134   3.558  1.1192  1.4042 -2.5624
  625THF     C8 9260   0.914   1.986   3.552 -0.2255  0.4549  0.3142
  625THF     C9 9261   0.784   2.019   3.624  0.4754  0.0318 -0.1650
  625THF    H10 9262   0.977   1.924   3.616 -1.8758 -1.5204  0.1169
  625THF    H11 9263   0.899   1.928   3.461 -0.4926 -0.1539  0.7431
  625THF    H12 9264   0.710   1.945   3.591 -0.6614  1.8617 -1.9174
  625THF    H13 9265   0.784   2.016   3.733 -1.3008  0.2787 -0.1272
  626THF     O1 9266   2.320   4.747   0.725  0.0852 -0.8519 -0.1223
  626THF     C2 9267   2.396   4.773   0.842  0.4023  0.0228 -0.3136
  626THF     C3 9268   2.354   4.849   0.628 -0.3760  0.2226 -0.2980
  626THF     H4 9269   2.405   4.681   0.900 -0.2978 -0.3071 -0.7080
  626THF     H5 9270   2.343   4.848   0.900 -0.6632  1.4012 -2.8839
  626THF     H6 9271   2.318   4.819   0.530 -0.2622  0.7510 -0.5043
  626THF     H7 9272   2.300   4.937   0.664 -2.8474 -1.6772  0.9241
  626THF     C8 9273   2.502   4.867   0.642  0.7235  0.2574  0.0782
  626THF     C9 9274   2.525   4.832   0.791  0.2296 -0.7943  0.0791
  626THF    H10 9275   2.533   4.966   0.610 -0.7392  1.0722  1.0374
  626THF    H11 9276   2.566   4.802   0.582  1.9078  0.9013  0.6080
  626THF    H12 9277   2.602   4.755   0.786  1.4460  0.4536 -1.4799
  626THF    H13 9278   2.566   4.916   0.846  0.5752 -1.2679  0.5603
  627THF     O1 9279   3.174   1.766   1.427 -0.2582 -0.5601 -0.5012
  627THF     C2 9280   3.307   1.757   1.366 -0.1799  0.4859 -0.2156
  627THF     C3 9281   3.146   1.914   1.426  0.5751  0.0817 -0.4590
  627THF     H4 9282   3.344   1.658   1.340 -2.6990 -0.3778 -0.8550
  627THF     H5 9283   3.383   1.793   1.435  1.4407  1.7170 -2.5114
  627THF     H6 9284   3.040   1.935   1.420  0.8342  1.1341 -1.7624
  627THF     H7 9285   3.188   1.961   1.515 -4.3651  0.3581  2.0315
  627THF     C8 9286   3.220   1.958   1.297 -0.2689  0.0202 -0.3985
  627THF     C9 9287   3.298   1.844   1.246 -0.2119 -0.4179 -0.9941
  627THF    H10 9288   3.285   2.044   1.313  1.1560 -0.9692 -0.6320
  627THF    H11 9289   3.145   1.986   1.223 -1.2690  0.5980  0.7863
  627THF    H12 9290   3.245   1.795   1.164 -2.3421  1.3296 -0.7439
  627THF    H13 9291   3.393   1.884   1.209 -0.5956 -1.1937 -2.9480
  628THF     O1 9292   4.925   3.555   1.274 -0.1752 -0.1747 -0.4994
  628THF     C2 9293   4.896   3.416   1.252 -0.2606  0.1960 -0.0821
  628THF     C3 9294   5.040   3.586   1.203 -0.4055  0.1526  0.3785
  628THF     H4 9295   4.855   3.394   1.154  0.6056 -0.0178 -0.3968
  628THF     H5 9296   4.826   3.379   1.327 -0.9507 -3.1495 -2.1771
  628THF     H6 9297   5.012   3.596   1.098 -0.2701  1.8389  0.4844
  628THF     H7 9298   5.085   3.680   1.232  0.8823 -0.4100  0.2693
  628THF     C8 9299   5.129   3.465   1.222 -0.3018 -0.7809 -0.3540
  628THF     C9 9300   5.035   3.352   1.256  0.3081 -0.1045 -0.8487
  628THF    H10 9301   5.208   3.472   1.297  0.1563  1.0815 -0.9555
  628THF    H11 9302   5.179   3.434   1.131  2.0630 -1.8849  1.2069
  628THF    H12 9303   5.046   3.270   1.185 -1.7626 -0.0896 -1.2492
  628THF    H13 9304   5.042   3.312   1.357 -0.2940  1.7944  0.0035
  629THF     O1 9305   0.580   1.355   1.332  0.1133 -0.1225 -0.0280
  629THF     C2 9306   0.516   1.263   1.242  0.0293  0.4410  0.1093
  629THF     C3 9307   0.602   1.289   1.451  0.0887 -0.1893  0.3021
  629THF     H4 9308   0.604   1.203   1.216  0.9482 -0.1229  3.8787
  629THF     H5 9309   0.464   1.298   1.153  0.1030 -2.4596 -1.2110
  629THF     H6 9310   0.685   1.223   1.427  0.9920  0.9959  0.0510
  629THF     H7 9311   0.632   1.361   1.528  0.0967  1.3609 -1.0904
  629THF     C8 9312   0.473   1.216   1.483  0.5133 -0.2374 -0.0047
  629THF     C9 9313   0.429   1.187   1.342  0.3273 -0.2760  0.8243
  629THF    H10 9314   0.395   1.274   1.532  1.2381  1.2592 -0.5375
  629THF    H11 9315   0.489   1.125   1.541  0.4687 -0.5794 -0.5196
  629THF    H12 9316   0.435   1.078   1.334 -0.0419 -0.1682 -1.8230
  629THF    H13 9317   0.326   1.211   1.318  0.3097 -1.8630 -0.9853
  630THF     O1 9318   3.503   4.807   5.213 -0.5917 -0.0847 -0.2887
  630THF     C2 9319   3.558   4.682   5.169  0.2294  0.0629  0.4797
  630THF     C3 9320   3.489   4.801   5.351  0.5929  0.0305  0.3233
  630THF     H4 9321   3.667   4.682   5.163  0.3284  4.0090 -0.9202
  630THF     H5 9322   3.527   4.672   5.064  0.3546  2.7775  0.1168
  630THF     H6 9323   3.575   4.822   5.414  0.3397 -0.1240  0.7252
  630THF     H7 9324   3.410   4.872   5.376 -0.4618 -0.4401 -1.4552
  630THF     C8 9325   3.431   4.663   5.366 -0.6005 -0.2896 -0.2292
  630THF     C9 9326   3.485   4.579   5.252  0.1555 -0.0741  0.8325
  630THF    H10 9327   3.323   4.671   5.362 -0.5809 -0.0790 -0.3651
  630THF    H11 9328   3.458   4.627   5.465 -1.0827  1.9207  0.7386
  630THF    H12 9329   3.552   4.503   5.293 -0.3636  0.2779  2.3744
  630THF    H13 9330   3.402   4.527   5.203  2.0448 -1.1875 -1.4021
  631THF     O1 9331   1.060   1.275   5.392 -0.3540 -0.2369  0.3667
  631THF     C2 9332   1.023   1.182   5.487 -0.6999  0.3191  0.0284
  631THF     C3 9333   1.195   1.280   5.402 -0.3563  0.3694  0.2002
  631THF     H4 9334   0.919   1.150   5.477 -0.8829  0.2761  1.7901
  631THF     H5 9335   1.036   1.224   5.586  0.2767 -0.3641  0.2020
  631THF     H6 9336   1.239   1.334   5.318  0.9692 -1.3639 -0.2942
  631THF     H7 9337   1.229   1.338   5.488  1.5447 -0.3004 -0.0399
  631THF     C8 9338   1.242   1.131   5.424 -0.5585 -0.6710  0.0132
  631THF     C9 9339   1.119   1.070   5.474  0.2230 -0.1732 -0.1866
  631THF    H10 9340   1.315   1.136   5.504 -1.7816  1.0580  1.0792
  631THF    H11 9341   1.273   1.082   5.331 -0.4411  1.4445 -1.1081
  631THF    H12 9342   1.081   1.006   5.395  2.2993 -0.6549 -0.8423
  631THF    H13 9343   1.133   1.028   5.574 -0.4305  4.1351  1.9654
  632THF     O1 9344   3.778   1.257   1.763  0.1627 -0.4076  0.3974
  632THF     C2 9345   3.919   1.240   1.740 -0.5278 -0.2134 -0.4395
  632THF     C3 9346   3.725   1.261   1.632  0.2354  0.2432 -0.2226
  632THF     H4 9347   3.965   1.214   1.835 -0.7045  0.2550 -0.2271
  632THF     H5 9348   3.957   1.340   1.721 -1.1067  1.1103  4.2217
  632THF     H6 9349   3.617   1.242   1.625  0.4097 -0.9068 -0.0394
  632THF     H7 9350   3.737   1.362   1.593 -3.0986  0.7510 -0.2412
  632THF     C8 9351   3.809   1.150   1.558 -0.2606  0.4392  0.3366
  632THF     C9 9352   3.933   1.134   1.640  0.4520  0.4782 -0.2660
  632THF    H10 9353   3.830   1.185   1.457  0.5830 -0.0904  0.3131
  632THF    H11 9354   3.751   1.059   1.540  0.4565 -0.0026  0.2104
  632THF    H12 9355   3.938   1.035   1.685  1.2671 -0.7313 -2.7867
  632THF    H13 9356   4.030   1.149   1.592 -0.8257  0.4561 -3.0165
  633THF     O1 9357   2.103   3.823   3.938 -0.1049  0.0690 -0.0799
  633THF     C2 9358   2.005   3.913   3.995 -0.6279  0.6254  0.5286
  633THF     C3 9359   2.155   3.726   4.033 -0.2181  0.3280 -0.9931
  633THF     H4 9360   1.906   3.885   3.961  0.7430 -2.2986 -1.4868
  633THF     H5 9361   2.009   4.016   3.959 -2.1189  0.3936 -0.3796
  633THF     H6 9362   2.133   3.623   4.006 -2.9956  0.8409 -0.9482
  633THF     H7 9363   2.260   3.739   4.060 -0.9655  1.5174  1.6742
  633THF     C8 9364   2.079   3.754   4.157 -0.7926  0.1556  0.0894
  633THF     C9 9365   2.032   3.895   4.146 -0.0916  0.1703  0.5001
  633THF    H10 9366   2.138   3.737   4.247 -1.5145  1.6969  0.8832
  633THF    H11 9367   1.995   3.684   4.167  0.5912 -1.4500  0.9563
  633THF    H12 9368   1.946   3.920   4.209 -0.1828  0.0233  0.4342
  633THF    H13 9369   2.111   3.966   4.170 -1.6074  2.2719 -0.3365
  634THF     O1 9370   4.857   3.888   4.430  0.3856  0.0909 -0.2478
  634THF     C2 9371   4.974   3.945   4.489  0.9945  0.3136 -0.0051
  634THF     C3 9372   4.817   3.980   4.332 -0.4142  0.3298  0.1144
  634THF     H4 9373   5.059   3.894   4.442  0.5448 -0.8354  0.3966
  634THF     H5 9374   5.000   3.927   4.593  0.3279  1.6126  0.4030
  634THF     H6 9375   4.869   3.973   4.236 -0.3404 -1.5186  0.2578
  634THF     H7 9376   4.712   3.959   4.315 -0.1581  0.0431 -1.2397
  634THF     C8 9377   4.836   4.126   4.385  0.4702  0.4497  0.9987
  634THF     C9 9378   4.965   4.104   4.470  0.4089 -0.0229  0.3368
  634THF    H10 9379   4.754   4.162   4.446  2.6000  1.0001  3.7779
  634THF    H11 9380   4.852   4.191   4.298 -0.9970 -2.7361 -1.8846
  634THF    H12 9381   5.059   4.143   4.431  1.2684  0.3263  2.6154
  634THF    H13 9382   4.959   4.157   4.565  2.0892 -0.5575  0.7715
  635THF     O1 9383   1.203   0.564   4.622  0.5693 -0.0325 -0.2340
  635THF     C2 9384   1.322   0.492   4.601 -0.4461  0.5443  0.1047
  635THF     C3 9385   1.199   0.617   4.755  0.1788  1.0398  0.8645
  635THF     H4 9386   1.358   0.496   4.498 -0.1011  0.7726  0.2312
  635THF     H5 9387   1.307   0.386   4.624  2.1561  0.2838  0.9120
  635THF     H6 9388   1.145   0.711   4.765 -0.5192  0.6249  1.0760
  635THF     H7 9389   1.170   0.538   4.825  3.4311  1.1312  2.5436
  635THF     C8 9390   1.348   0.656   4.772 -0.0720  0.3218  0.0197
  635THF     C9 9391   1.417   0.557   4.694 -0.3445  0.3858 -0.0210
  635THF    H10 9392   1.378   0.652   4.877 -0.0942 -0.8757 -0.0136
  635THF    H11 9393   1.370   0.757   4.736  1.2188  0.2098  0.4311
  635THF    H12 9394   1.504   0.599   4.643  1.6227 -3.6350 -0.4195
  635THF    H13 9395   1.444   0.474   4.759 -1.3110 -0.1238 -0.2551
  636THF     O1 9396   3.243   4.171   3.189 -0.5191  0.0603 -0.3168
  636THF     C2 9397   3.132   4.165   3.276 -0.1560 -0.2232  0.0912
  636THF     C3 9398   3.277   4.301   3.175 -0.2691  0.5992  0.0902
  636THF     H4 9399   3.134   4.073   3.335  2.5371  1.4199  2.8580
  636THF     H5 9400   3.028   4.173   3.243 -0.4801  0.0234  1.1259
  636THF     H6 9401   3.383   4.309   3.152 -0.4355  1.9105 -0.2691
  636THF     H7 9402   3.233   4.336   3.081  0.3955 -0.1157 -0.5062
  636THF     C8 9403   3.240   4.374   3.299 -0.2631  0.6973 -0.4817
  636THF     C9 9404   3.153   4.280   3.377  0.6534  0.0999 -0.1788
  636THF    H10 9405   3.198   4.471   3.272 -0.0316  0.4901 -1.6120
  636THF    H11 9406   3.334   4.405   3.345  1.4261 -1.2504 -2.4640
  636THF    H12 9407   3.214   4.244   3.461  0.2683  2.1941  1.0717
  636THF    H13 9408   3.061   4.318   3.422  1.8971  0.4480  2.2820
  637THF     O1 9409   2.761   0.952   3.795 -0.3543 -0.4850  0.0015
  637THF     C2 9410   2.882   1.010   3.754  0.3569 -0.0751  0.1557
  637THF     C3 9411   2.752   0.961   3.935  0.0795  0.3291 -0.0030
  637THF     H4 9412   2.881   1.018   3.645 -1.8677  1.3114  0.2057
  637THF     H5 9413   2.959   0.938   3.782 -0.5916  0.1378  3.8266
  637THF     H6 9414   2.644   0.955   3.951 -0.1030  1.7015 -0.5646
  637THF     H7 9415   2.798   0.879   3.989  0.3982  0.8570  0.5312
  637THF     C8 9416   2.822   1.097   3.969  0.1456  0.3584 -0.4810
  637THF     C9 9417   2.889   1.134   3.839  0.2088 -0.2539 -0.7157
  637THF    H10 9418   2.892   1.096   4.052 -1.6146  0.1546  1.0774
  637THF    H11 9419   2.746   1.172   3.992 -1.3538 -0.8755 -1.1841
  637THF    H12 9420   2.844   1.214   3.780 -2.4561 -3.0161 -2.7351
  637THF    H13 9421   2.990   1.176   3.850  0.2605 -0.8076  1.4319
  638THF     O1 9422   0.287   1.822   0.079 -0.2880  0.1257 -0.2751
  638THF     C2 9423   0.192   1.790  -0.029  0.2319 -0.1830 -0.4110
  638THF     C3 9424   0.323   1.700   0.145 -0.5834  0.2694  0.0758
  638THF     H4 9425   0.196   1.873  -0.099 -0.9186 -0.6013 -1.0097
  638THF     H5 9426   0.089   1.783   0.008  0.2711  0.1351 -0.2361
  638THF     H6 9427   0.421   1.725   0.188  0.3407  0.6537 -2.1025
  638THF     H7 9428   0.257   1.676   0.228 -0.0806  3.0169  1.4009
  638THF     C8 9429   0.323   1.596   0.026  0.1297  0.2679  0.1517
  638THF     C9 9430   0.249   1.666  -0.093 -0.2960 -0.0775 -0.1779
  638THF    H10 9431   0.266   1.507   0.054 -1.9109  0.1584 -3.6066
  638THF    H11 9432   0.421   1.573  -0.016 -0.6569 -0.1589 -1.5612
  638THF    H12 9433   0.334   1.699  -0.153  1.0007 -0.1012  1.5348
  638THF    H13 9434   0.180   1.605  -0.151  0.7924  0.1725 -1.7976
  639THF     O1 9435   3.160   3.500   0.933  0.3482  0.3558 -0.1234
  639THF     C2 9436   3.052   3.514   0.846 -0.3929  0.5470 -0.2278
  639THF     C3 9437   3.263   3.583   0.888  0.4789 -0.6280  0.6640
  639THF     H4 9438   2.990   3.596   0.884  0.9892  2.1165 -1.1775
  639THF     H5 9439   2.998   3.420   0.844  1.0638 -0.3747  1.4274
  639THF     H6 9440   3.268   3.672   0.950 -2.1837 -0.4533  0.7610
  639THF     H7 9441   3.358   3.529   0.894  1.0209  0.1443 -0.7014
  639THF     C8 9442   3.225   3.630   0.743 -0.1920  0.0353  0.1060
  639THF     C9 9443   3.106   3.543   0.710  0.3761 -0.7056 -0.4694
  639THF    H10 9444   3.316   3.620   0.682  0.0458 -1.1741  0.6286
  639THF    H11 9445   3.197   3.735   0.753  0.8831  0.3044  0.4281
  639THF    H12 9446   3.039   3.609   0.654 -0.8235 -1.0319  0.5321
  639THF    H13 9447   3.137   3.455   0.655  1.5818  0.3834 -1.6251
  640THF     O1 9448   1.967   4.908   0.181  0.5171 -0.0709 -0.2141
  640THF     C2 9449   1.917   4.872   0.314 -0.4538  0.1717  0.8160
  640THF     C3 9450   2.076   4.820   0.167 -0.3986  0.2217  0.0371
  640THF     H4 9451   1.872   4.773   0.308 -0.1540  0.0891 -0.2428
  640THF     H5 9452   1.859   4.947   0.368 -0.4583  1.0627 -0.3817
  640THF     H6 9453   2.040   4.718   0.154 -0.0226  0.0671  0.2197
  640THF     H7 9454   2.140   4.843   0.082 -0.4040  1.2437  0.2981
  640THF     C8 9455   2.143   4.829   0.302 -0.0772  0.0294 -0.1137
  640THF     C9 9456   2.035   4.860   0.403 -0.2724 -0.2926  1.1207
  640THF    H10 9457   2.199   4.922   0.296  0.2281 -0.0531  1.2092
  640THF    H11 9458   2.215   4.754   0.335  2.1363  2.7385  1.6395
  640THF    H12 9459   2.031   4.771   0.464  1.8283 -1.8090 -0.7543
  640THF    H13 9460   2.060   4.952   0.457  1.0407  0.1948 -0.2341
  641THF     O1 9461   3.297   4.597   3.714 -0.0240  0.1319  0.2037
  641THF     C2 9462   3.257   4.712   3.646  0.1342 -0.5496  0.3805
  641THF     C3 9463   3.427   4.558   3.670 -0.1292 -0.5735 -0.3177
  641THF     H4 9464   3.207   4.774   3.720 -0.9612  1.3544 -1.8431
  641THF     H5 9465   3.189   4.690   3.564  0.0022 -1.5499  0.7495
  641THF     H6 9466   3.494   4.561   3.755  2.1710 -1.4522 -1.9950
  641THF     H7 9467   3.429   4.457   3.627  1.5526  0.1693 -2.1582
  641THF     C8 9468   3.480   4.661   3.568  0.0923  0.5795  0.1929
  641THF     C9 9469   3.393   4.782   3.598  0.2858  0.2197  0.3402
  641THF    H10 9470   3.466   4.608   3.474 -2.3088  1.1451  0.1761
  641THF    H11 9471   3.586   4.683   3.584  0.3851 -0.3360 -0.3448
  641THF    H12 9472   3.440   4.835   3.681  0.4028  0.2133  0.2779
  641THF    H13 9473   3.372   4.858   3.523  0.1441 -0.8146 -0.6976
  642THF     O1 9474   3.776   2.292   3.939 -0.2516  0.2543 -0.0666
  642THF     C2 9475   3.898   2.226   3.898  0.5226  0.2621  0.4125
  642THF     C3 9476   3.808   2.398   4.027  0.2080  0.0635  0.3505
  642THF     H4 9477   3.903   2.175   3.801  1.7249 -0.7137  0.9465
  642THF     H5 9478   3.923   2.143   3.964 -0.4940  0.9657  1.7136
  642THF     H6 9479   3.764   2.496   4.011  0.5166  0.1028 -0.2842
  642THF     H7 9480   3.766   2.369   4.124 -2.8846 -1.3730 -1.2830
  642THF     C8 9481   3.957   2.413   4.027 -0.8937  0.5938  0.2591
  642THF     C9 9482   4.010   2.323   3.915 -0.5506  0.5700  0.5644
  642THF    H10 9483   3.991   2.375   4.123 -0.5163 -3.1540 -1.2008
  642THF    H11 9484   3.993   2.516   4.027 -0.0973  0.3499  2.2338
  642THF    H12 9485   4.021   2.376   3.821 -1.1662 -0.8788 -0.3458
  642THF    H13 9486   4.096   2.267   3.954 -0.1462  1.6111  1.2092
  643THF     O1 9487   0.082   0.433   5.320 -0.0343  0.2779 -0.2118
  643THF     C2 9488   0.004   0.470   5.437  0.1554 -0.4209 -0.1525
  643THF     C3 9489   0.182   0.526   5.300  0.0381 -0.1038 -0.0586
  643THF     H4 9490   0.031   0.407   5.521 -3.2306  1.3830  2.5061
  643THF     H5 9491  -0.102   0.454   5.417  0.2322 -1.2117  0.0242
  643THF     H6 9492   0.279   0.476   5.295 -0.0721 -0.5055  1.3586
  643THF     H7 9493   0.163   0.577   5.205  0.8301 -2.1461 -1.3869
  643THF     C8 9494   0.182   0.624   5.425 -0.4624  0.1414  0.3395
  643THF     C9 9495   0.038   0.612   5.473  1.3243 -0.3371 -0.6362
  643THF    H10 9496   0.215   0.726   5.404  2.5568 -0.8323 -0.0951
  643THF    H11 9497   0.253   0.582   5.496  1.0231  1.7870 -0.1074
  643THF    H12 9498   0.031   0.639   5.578 -2.0715  0.1739 -0.8969
  643THF    H13 9499  -0.023   0.672   5.406  2.9404 -0.9424 -2.7798
  644THF     O1 9500   2.782   1.961   5.186 -0.0541 -0.9349 -0.4299
  644THF     C2 9501   2.753   2.103   5.162 -0.3961 -0.3504 -0.1335
  644THF     C3 9502   2.704   1.909   5.295  0.2954  0.2269 -0.1608
  644THF     H4 9503   2.765   2.136   5.059  0.3068 -1.1914 -0.3364
  644THF     H5 9504   2.823   2.155   5.227  0.3341 -1.6615  0.1615
  644THF     H6 9505   2.677   1.804   5.288  1.8559 -0.2237  0.2990
  644THF     H7 9506   2.773   1.932   5.376 -0.7203  0.3526  0.6913
  644THF     C8 9507   2.576   1.986   5.274  0.0598 -0.7709  0.3996
  644THF     C9 9508   2.613   2.129   5.222  0.4551  0.2212  1.0263
  644THF    H10 9509   2.515   1.992   5.365 -0.2117 -0.2729  0.1895
  644THF    H11 9510   2.520   1.936   5.195  2.3653  1.0891 -2.6313
  644THF    H12 9511   2.544   2.156   5.141 -0.9112 -1.6214  1.5240
  644THF    H13 9512   2.595   2.217   5.284  0.0644  1.1378 -0.3425
  645THF     O1 9513   5.497   2.948   0.431 -0.2941 -0.1655 -0.1541
  645THF     C2 9514   5.638   2.918   0.442  0.2485  0.0022 -0.1319
  645THF     C3 9515   5.488   3.082   0.384  0.1946 -0.3292 -0.0804
  645THF     H4 9516   5.680   2.902   0.343 -0.1748  3.1689 -0.9118
  645THF     H5 9517   5.654   2.830   0.505  0.1619 -0.1586 -0.3312
  645THF     H6 9518   5.492   3.063   0.276  1.6966 -0.8299  0.0389
  645THF     H7 9519   5.401   3.137   0.420  2.1854  0.8573  3.3849
  645THF     C8 9520   5.607   3.156   0.437 -0.1256 -0.1099  0.7067
  645THF     C9 9521   5.697   3.051   0.497  0.6839 -0.0419 -0.2186
  645THF    H10 9522   5.571   3.227   0.511 -2.0048 -3.7429  3.6292
  645THF    H11 9523   5.656   3.216   0.360 -1.0510  1.2715  1.1622
  645THF    H12 9524   5.797   3.073   0.461  0.3744 -0.3167 -1.2760
  645THF    H13 9525   5.683   3.067   0.604  0.2305  1.0417 -0.4254
  646THF     O1 9526   1.860   1.441   0.228  0.2895  0.2241 -0.1911
  646THF     C2 9527   1.973   1.459   0.144 -0.3337  0.4499 -0.0824
  646THF     C3 9528   1.819   1.303   0.222 -0.1768  0.3453  0.2150
  646THF     H4 9529   2.020   1.554   0.172  2.7205 -1.2675  1.1534
  646THF     H5 9530   1.933   1.460   0.043 -0.3138  1.4363 -0.0936
  646THF     H6 9531   1.778   1.287   0.322  1.1473  2.2534  1.1179
  646THF     H7 9532   1.736   1.287   0.153 -0.0155 -2.2234  0.5232
  646THF     C8 9533   1.952   1.236   0.197  0.1690 -0.4182  0.3108
  646THF     C9 9534   2.061   1.343   0.183  0.3692  0.4459  0.4250
  646THF    H10 9535   1.952   1.169   0.111 -0.9514  0.1673 -0.1692
  646THF    H11 9536   1.973   1.167   0.278 -0.3635 -1.5784 -0.4937
  646THF    H12 9537   2.105   1.371   0.279 -0.5924 -0.4459  1.1407
  646THF    H13 9538   2.140   1.324   0.110  1.0263  0.6436  1.0793
  647THF     O1 9539   4.440   2.214   4.257  0.0004 -0.4067  0.5921
  647THF     C2 9540   4.538   2.150   4.171 -0.9291  0.0887  0.7271
  647THF     C3 9541   4.380   2.115   4.338 -0.3492  0.0260  0.6768
  647THF     H4 9542   4.633   2.123   4.215  1.4562  2.7432 -2.2985
  647THF     H5 9543   4.565   2.206   4.081  0.2739 -1.6247 -0.0258
  647THF     H6 9544   4.437   2.102   4.430 -1.6726  0.5205  1.6092
  647THF     H7 9545   4.279   2.150   4.363 -0.8745 -0.5690 -0.5768
  647THF     C8 9546   4.384   1.991   4.248 -0.0605  0.5712  0.4560
  647THF     C9 9547   4.472   2.027   4.126  0.6443 -0.7303  0.0800
  647THF    H10 9548   4.282   1.970   4.213 -0.1804 -0.9053  1.5856
  647THF    H11 9549   4.424   1.906   4.303  1.6979  1.1179  0.0660
  647THF    H12 9550   4.551   1.953   4.112 -0.4816 -2.1397  0.8102
  647THF    H13 9551   4.412   2.036   4.036 -0.0481 -2.5376  0.3080
  648THF     O1 9552   3.948   2.527   2.687  0.1970  0.7719 -0.3525
  648THF     C2 9553   4.018   2.586   2.578 -0.1926  0.2510 -0.2348
  648THF     C3 9554   3.826   2.595   2.716  0.2540 -0.4023 -0.2983
  648THF     H4 9555   4.003   2.535   2.482 -0.6515  0.9117 -0.5215
  648THF     H5 9556   4.123   2.601   2.602  0.0099  0.1498 -1.0165
  648THF     H6 9557   3.741   2.528   2.725 -0.7870  1.0066  0.8192
  648THF     H7 9558   3.842   2.651   2.808  2.2918 -0.4671 -0.5662
  648THF     C8 9559   3.800   2.685   2.601 -0.1237 -0.0555 -1.3459
  648THF     C9 9560   3.940   2.721   2.551 -0.4274 -0.1355 -0.3230
  648THF    H10 9561   3.741   2.771   2.633  1.1837 -0.1885  1.8562
  648THF    H11 9562   3.742   2.649   2.516 -2.1692  0.8405 -0.3899
  648THF    H12 9563   3.938   2.755   2.447 -0.5343 -1.9134 -0.9312
  648THF    H13 9564   3.980   2.808   2.604  0.7752 -0.4839 -0.6417
  649THF     O1 9565   1.159   1.085   3.807  0.3494  0.5443  0.0363
  649THF     C2 9566   1.192   0.972   3.894  0.2700  0.0089  0.0384
  649THF     C3 9567   1.282   1.098   3.741 -0.7781 -0.4169  0.0354
  649THF     H4 9568   1.208   0.877   3.844  0.5474  0.2459 -0.3298
  649THF     H5 9569   1.109   0.950   3.961  0.6623  0.1477  0.5660
  649THF     H6 9570   1.305   1.024   3.665  0.4193 -0.1228  0.0962
  649THF     H7 9571   1.276   1.197   3.697 -0.2194  0.1993  1.3044
  649THF     C8 9572   1.387   1.101   3.856  0.1369  0.4662  0.3725
  649THF     C9 9573   1.313   1.034   3.968  0.1373 -0.7402  1.1025
  649THF    H10 9574   1.426   1.198   3.885  2.5470 -1.1085  2.9726
  649THF    H11 9575   1.469   1.030   3.843 -0.3532 -0.1568  0.6480
  649THF    H12 9576   1.371   0.950   4.006  1.1015 -0.6885 -0.1621
  649THF    H13 9577   1.280   1.105   4.044 -2.0438 -1.0869  0.5462
  650THF     O1 9578   0.699   5.475   0.588 -0.0352  0.2018 -0.0732
  650THF     C2 9579   0.607   5.366   0.598 -0.7156 -0.6175  0.0894
  650THF     C3 9580   0.705   5.492   0.446 -0.8770  0.2373 -0.1252
  650THF     H4 9581   0.576   5.359   0.703  1.7847 -0.0665  0.9576
  650THF     H5 9582   0.661   5.275   0.572 -1.1863 -1.0224  0.5101
  650THF     H6 9583   0.763   5.580   0.418 -1.0633  0.0416 -1.1737
  650THF     H7 9584   0.762   5.415   0.395 -1.5103 -0.0157 -0.4705
  650THF     C8 9585   0.566   5.482   0.400 -0.0313 -0.8945  0.2741
  650THF     C9 9586   0.491   5.398   0.504 -0.3612 -0.1160  0.6656
  650THF    H10 9587   0.562   5.461   0.293  3.0939  1.2618 -0.4176
  650THF    H11 9588   0.516   5.579   0.398 -0.9557 -1.3640 -0.2006
  650THF    H12 9589   0.420   5.466   0.550  1.0105 -0.7431  4.0351
  650THF    H13 9590   0.442   5.317   0.451 -0.8453  2.2531 -2.8138
  651THF     O1 9591   4.104   2.146   1.521 -0.2764  0.2723  0.8117
  651THF     C2 9592   4.225   2.070   1.524 -0.2135  0.3198  0.0492
  651THF     C3 9593   4.037   2.127   1.639  0.1682  0.5315  0.2720
  651THF     H4 9594   4.294   2.122   1.591 -0.1400 -0.6628  0.7622
  651THF     H5 9595   4.263   2.050   1.424 -0.2813 -1.9814  0.4172
  651THF     H6 9596   4.081   2.192   1.715  0.8430 -0.0480  0.3814
  651THF     H7 9597   3.931   2.151   1.634  0.3026  1.2904  0.8530
  651THF     C8 9598   4.068   1.982   1.687 -0.2712 -1.2413 -0.3577
  651THF     C9 9599   4.175   1.941   1.588 -0.7936  0.4982 -0.1958
  651THF    H10 9600   3.986   1.911   1.682 -1.6162  0.1456  1.0150
  651THF    H11 9601   4.092   1.986   1.793  0.5208 -0.5269 -0.5477
  651THF    H12 9602   4.240   1.876   1.648 -2.9140 -1.8147 -0.2553
  651THF    H13 9603   4.141   1.866   1.516  2.2618 -2.2757  0.9760
  652THF     O1 9604   2.006   5.359   1.216 -0.2418 -0.0852 -0.3483
  652THF     C2 9605   1.883   5.321   1.285 -0.6258  0.0839 -0.4104
  652THF     C3 9606   2.110   5.375   1.313  0.1884  0.3346  0.4333
  652THF     H4 9607   1.820   5.256   1.225 -0.5662  0.3374 -0.7515
  652THF     H5 9608   1.813   5.402   1.301 -2.1178 -1.0176 -1.1202
  652THF     H6 9609   2.207   5.366   1.265 -0.5564 -1.1731 -0.8846
  652THF     H7 9610   2.088   5.474   1.354 -0.0811 -0.9019  3.6204
  652THF     C8 9611   2.081   5.265   1.411 -0.9858 -0.1946  0.9184
  652THF     C9 9612   1.931   5.236   1.409  0.1232 -0.3223  0.4662
  652THF    H10 9613   2.107   5.294   1.513  0.5259  0.4972  0.3700
  652THF    H11 9614   2.141   5.179   1.380 -0.3716  0.3504  0.5613
  652THF    H12 9615   1.928   5.130   1.383  0.6110 -0.9071  2.6269
  652THF    H13 9616   1.873   5.256   1.499  1.2071 -2.0235  1.6007
  653THF     O1 9617   2.390   0.174   0.345  0.3306 -0.1685  0.1040
  653THF     C2 9618   2.493   0.087   0.310 -0.2645 -0.6303 -0.2600
  653THF     C3 9619   2.353   0.247   0.228 -0.5449  0.7936 -0.7877
  653THF     H4 9620   2.513   0.008   0.384 -0.8836  0.1171  0.7292
  653THF     H5 9621   2.584   0.147   0.317 -1.4409  1.1749  0.0509
  653THF     H6 9622   2.245   0.263   0.237 -0.3061  1.4866  1.5702
  653THF     H7 9623   2.391   0.349   0.228 -0.0712  0.6327 -2.0702
  653THF     C8 9624   2.382   0.154   0.108 -0.6270  0.2766 -0.5473
  653THF     C9 9625   2.451   0.034   0.168 -0.8237 -0.0872  0.5070
  653THF    H10 9626   2.451   0.204   0.040  0.9260  0.4964  1.0997
  653THF    H11 9627   2.292   0.129   0.052 -0.7100  0.0096 -0.2955
  653THF    H12 9628   2.378  -0.045   0.183 -1.3591  0.3193  0.0771
  653THF    H13 9629   2.535  -0.006   0.111 -0.8084  0.0859  0.4050
  654THF     O1 9630   1.578   5.420   1.106 -0.4836 -0.2025  0.3913
  654THF     C2 9631   1.484   5.322   1.064  0.0377 -0.7305 -0.4282
  654THF     C3 9632   1.516   5.547   1.106  0.5864 -0.1610  0.2250
  654THF     H4 9633   1.449   5.256   1.144  0.7555 -1.0724 -0.3957
  654THF     H5 9634   1.524   5.253   0.990 -0.7089 -1.7442  0.0766
  654THF     H6 9635   1.449   5.568   1.189  1.1516 -0.0796  0.6727
  654THF     H7 9636   1.589   5.629   1.103 -0.2500  0.5692 -0.6315
  654THF     C8 9637   1.431   5.542   0.968 -0.4392 -0.6343 -0.6389
  654THF     C9 9638   1.370   5.412   1.010 -0.1926 -0.6101 -0.0483
  654THF    H10 9639   1.494   5.545   0.879  1.2635  0.7250  0.5398
  654THF    H11 9640   1.359   5.624   0.963  1.0465  1.0353  2.3312
  654THF    H12 9641   1.299   5.448   1.084  0.3434  1.1126 -0.3233
  654THF    H13 9642   1.313   5.362   0.932  1.7769 -0.3464 -1.7262
  655THF     O1 9643   4.562   1.050   0.688  0.5782  0.6413  0.3078
  655THF     C2 9644   4.467   1.093   0.784 -0.4152 -0.0426  0.0101
  655THF     C3 9645   4.675   0.999   0.759  0.0320 -0.1834  0.3062
  655THF     H4 9646   4.367   1.080   0.743 -1.4773 -0.0027  2.4471
  655THF     H5 9647   4.483   1.198   0.810 -0.1859 -0.3854  1.3299
  655THF     H6 9648   4.754   0.942   0.710 -1.3416 -2.4068  0.5371
  655THF     H7 9649   4.724   1.090   0.792  0.3621 -0.3837  0.3682
  655THF     C8 9650   4.609   0.919   0.873  0.1231  0.9001  0.0970
  655THF     C9 9651   4.487   1.001   0.908  0.1303 -0.2808  0.0645
  655THF    H10 9652   4.688   0.912   0.947  0.3433  2.3578  0.0330
  655THF    H11 9653   4.582   0.820   0.837 -2.5668  1.5885 -0.0085
  655THF    H12 9654   4.405   0.930   0.902 -0.8126  0.8863 -2.2287
  655THF    H13 9655   4.491   1.071   0.991 -0.1861 -0.8423  0.5553
  656THF     O1 9656   0.286   3.889   5.478  0.3659 -0.3251 -0.2889
  656THF     C2 9657   0.246   4.020   5.438  1.0160 -0.3524  0.5493
  656THF     C3 9658   0.293   3.803   5.371  0.2823  0.1806 -1.2124
  656THF     H4 9659   0.318   4.098   5.463  0.1546  0.2758  1.1476
  656THF     H5 9660   0.155   4.053   5.488 -0.0895 -1.7922 -0.4462
  656THF     H6 9661   0.389   3.800   5.319  1.4048  0.4294  0.7482
  656THF     H7 9662   0.264   3.703   5.402  0.5155  0.2194 -0.8637
  656THF     C8 9663   0.188   3.859   5.277 -0.1225 -0.3190 -0.0986
  656THF     C9 9664   0.225   4.011   5.289  0.6217 -0.4091  0.0718
  656THF    H10 9665   0.084   3.841   5.303 -0.4341  0.0003 -1.0729
  656THF    H11 9666   0.195   3.815   5.178 -1.3657 -1.4142  0.2699
  656THF    H12 9667   0.315   4.038   5.234 -0.5083  3.0681 -0.2840
  656THF    H13 9668   0.150   4.079   5.251  0.3555 -1.0734 -0.6062
  657THF     O1 9669   1.713   4.233   5.278  0.4031 -0.0154  0.3607
  657THF     C2 9670   1.755   4.356   5.211  1.0423  0.9256 -0.2934
  657THF     C3 9671   1.794   4.129   5.223  0.7752  0.2825  0.3228
  657THF     H4 9672   1.836   4.409   5.260  1.8155  0.5292 -1.1199
  657THF     H5 9673   1.674   4.429   5.206  1.0741  1.1259  1.6025
  657THF     H6 9674   1.898   4.132   5.256  0.4891  1.3256  1.1772
  657THF     H7 9675   1.758   4.028   5.239 -0.3745  0.3433 -1.5518
  657THF     C8 9676   1.786   4.158   5.077 -0.7721 -0.4522 -0.0148
  657THF     C9 9677   1.799   4.310   5.075 -0.5461 -0.1715  0.4059
  657THF    H10 9678   1.690   4.130   5.035 -0.2502  0.1689 -1.6877
  657THF    H11 9679   1.874   4.113   5.031  0.1571  0.5456  0.7038
  657THF    H12 9680   1.904   4.337   5.061 -0.4435 -1.0606 -0.7074
  657THF    H13 9681   1.737   4.347   4.993  0.6556 -1.0320 -0.9374
  658THF     O1 9682   2.070   0.362   5.178  0.4662 -0.0838 -0.7127
  658THF     C2 9683   2.055   0.234   5.108 -0.2975 -0.0830 -0.4815
  658THF     C3 9684   2.152   0.327   5.287  0.0359  0.4174  0.8927
  658THF     H4 9685   2.019   0.255   5.007 -0.6884  1.4901 -0.0400
  658THF     H5 9686   1.974   0.177   5.155 -1.7853  1.7684 -0.6731
  658THF     H6 9687   2.207   0.418   5.315  1.0417 -0.0512  0.4960
  658THF     H7 9688   2.092   0.297   5.373 -1.1586  0.3233  0.0407
  658THF     C8 9689   2.263   0.232   5.233  0.1633 -0.7057 -0.5098
  658THF     C9 9690   2.192   0.170   5.116 -0.0300  0.9274  0.3251
  658THF    H10 9691   2.290   0.155   5.305 -1.6301 -1.4002 -0.5129
  658THF    H11 9692   2.354   0.284   5.205  1.1071 -1.5706  0.8355
  658THF    H12 9693   2.250   0.178   5.024 -0.0079 -1.9573  0.0006
  658THF    H13 9694   2.179   0.067   5.148 -2.1883  1.0989  0.1070
  659THF     O1 9695   0.658   3.198   1.503  0.2715  0.0790  0.0335
  659THF     C2 9696   0.542   3.147   1.436  0.0168  0.0586  0.3915
  659THF     C3 9697   0.639   3.209   1.645 -0.3425 -0.3701 -0.0449
  659THF     H4 9698   0.576   3.043   1.426 -0.0108  0.0193  0.7139
  659THF     H5 9699   0.535   3.195   1.338 -0.3742 -1.2806 -0.2711
  659THF     H6 9700   0.722   3.153   1.690 -0.1733 -1.3398 -1.4802
  659THF     H7 9701   0.644   3.312   1.677  0.7627 -0.8163  1.3234
  659THF     C8 9702   0.506   3.135   1.664  0.5543 -0.8459  0.6971
  659THF     C9 9703   0.432   3.162   1.533 -0.5359 -0.6297 -0.3100
  659THF    H10 9704   0.451   3.190   1.741  0.4238  2.0580 -1.3203
  659THF    H11 9705   0.498   3.029   1.687 -3.2102 -0.6889  0.7760
  659THF    H12 9706   0.363   3.079   1.516  0.6648 -2.2855  2.3250
  659THF    H13 9707   0.401   3.264   1.509  1.0991 -0.2133 -0.7566
  660THF     O1 9708   0.641   4.175   1.887  0.6153 -0.2794  0.9498
  660THF     C2 9709   0.746   4.119   1.817 -0.0955  0.2640 -0.4486
  660THF     C3 9710   0.689   4.246   2.003  0.4637  0.2189  0.1145
  660THF     H4 9711   0.749   4.180   1.726 -0.0977  0.9927  0.0398
  660THF     H5 9712   0.735   4.015   1.784 -0.8363  0.3150 -0.3654
  660THF     H6 9713   0.636   4.339   2.024  0.6543  0.6330 -1.1159
  660THF     H7 9714   0.668   4.183   2.089 -1.6250  1.0700  0.2817
  660THF     C8 9715   0.834   4.255   1.988 -0.6067 -0.0191 -0.0103
  660THF     C9 9716   0.867   4.129   1.908  0.0995 -0.1313 -0.1494
  660THF    H10 9717   0.881   4.253   2.086 -0.1138  3.4958 -0.0552
  660THF    H11 9718   0.851   4.354   1.946 -0.0733 -0.3092 -0.4963
  660THF    H12 9719   0.962   4.130   1.854  0.5450  1.0118  0.6324
  660THF    H13 9720   0.885   4.050   1.981  2.0852  1.5571  1.2850
  661THF     O1 9721   0.975   4.916   3.382  0.7945  0.1718  0.3595
  661THF     C2 9722   0.919   4.977   3.262  0.5227  1.1615  0.5218
  661THF     C3 9723   1.011   5.016   3.476  0.3551  0.8032 -0.1003
  661THF     H4 9724   0.817   5.006   3.284 -0.0485  1.1001 -1.8457
  661THF     H5 9725   0.904   4.923   3.168  0.4687  1.5719  0.2941
  661THF     H6 9726   0.927   5.051   3.535  1.4100  1.2734  1.1717
  661THF     H7 9727   1.079   4.969   3.547  0.7086 -1.4464 -1.7983
  661THF     C8 9728   1.053   5.134   3.391 -0.4544 -0.2528 -0.0351
  661THF     C9 9729   1.008   5.100   3.247  0.3168  0.0164  0.0481
  661THF    H10 9730   1.159   5.145   3.415 -0.2837  0.3226 -1.0170
  661THF    H11 9731   1.007   5.230   3.417  1.2591  0.7159 -0.4047
  661THF    H12 9732   0.954   5.178   3.193 -1.1612  0.2662  1.7967
  661THF    H13 9733   1.090   5.089   3.175 -1.7318 -1.8420 -2.2067
  662THF     O1 9734   3.798   4.520   2.064  0.2203  0.4219 -0.6729
  662THF     C2 9735   3.916   4.440   2.035  0.4315  0.0366 -0.6127
  662THF     C3 9736   3.738   4.469   2.188 -0.4095 -0.2130  0.8271
  662THF     H4 9737   3.996   4.507   2.002  1.2862 -0.8127 -0.2908
  662THF     H5 9738   3.907   4.362   1.960  0.0711 -0.8578  0.3379
  662THF     H6 9739   3.668   4.544   2.225 -2.1073 -1.0840 -0.4883
  662THF     H7 9740   3.690   4.373   2.168  0.8783 -0.6663 -0.2254
  662THF     C8 9741   3.856   4.443   2.275 -0.1567 -0.1751  0.0809
  662THF     C9 9742   3.956   4.396   2.176 -0.2355  0.3307 -0.3079
  662THF    H10 9743   3.834   4.384   2.363 -1.4575 -0.1010 -0.1815
  662THF    H11 9744   3.874   4.545   2.309 -1.7128  0.0909  0.1677
  662THF    H12 9745   4.051   4.450   2.184 -0.1860  0.8006 -3.0403
  662THF    H13 9746   3.963   4.288   2.182 -0.9806  0.3699  1.7054
  663THF     O1 9747   4.415   5.260   4.503 -0.0473  0.5684 -0.0947
  663THF     C2 9748   4.391   5.290   4.643 -0.1148 -0.1300  0.7590
  663THF     C3 9749   4.363   5.354   4.416  0.5578 -0.3502 -0.4960
  663THF     H4 9750   4.458   5.365   4.685  0.6072 -1.1714  1.5099
  663THF     H5 9751   4.402   5.204   4.708 -1.3594 -0.0584  1.0789
  663THF     H6 9752   4.424   5.443   4.408  2.6043 -1.8153 -2.8062
  663THF     H7 9753   4.344   5.313   4.317 -1.0805 -2.5350  0.6305
  663THF     C8 9754   4.230   5.370   4.480  0.1565  0.4618 -0.9163
  663THF     C9 9755   4.245   5.340   4.637 -0.4898  0.0371  0.0413
  663THF    H10 9756   4.158   5.302   4.434  0.4990 -0.9606  0.5551
  663THF    H11 9757   4.184   5.469   4.480 -1.4755 -0.2669 -0.4637
  663THF    H12 9758   4.244   5.435   4.691  0.4174 -0.8491  1.6765
  663THF    H13 9759   4.165   5.275   4.674  0.0498 -1.1170 -0.7654
  664THF     O1 9760   4.435   3.666   4.619 -0.0501 -0.0534 -0.3517
  664THF     C2 9761   4.498   3.573   4.532  0.0241 -0.0428  0.2530
  664THF     C3 9762   4.431   3.609   4.754 -0.0103  0.1757 -0.2805
  664THF     H4 9763   4.607   3.580   4.533  0.1449 -1.4805  1.0158
  664THF     H5 9764   4.465   3.585   4.429  0.1615 -1.3198  0.0359
  664THF     H6 9765   4.513   3.654   4.810 -0.5972  1.3290 -0.3212
  664THF     H7 9766   4.346   3.636   4.817 -0.6497 -2.6730  0.2103
  664THF     C8 9767   4.445   3.451   4.735  0.2896 -0.1398 -0.2356
  664THF     C9 9768   4.473   3.434   4.584  0.4813  0.7276 -0.0764
  664THF    H10 9769   4.354   3.396   4.760  1.9607 -2.7252  0.4608
  664THF    H11 9770   4.523   3.417   4.803 -0.0815 -1.3163 -0.3733
  664THF    H12 9771   4.567   3.382   4.569  0.8536  1.5370 -0.6051
  664THF    H13 9772   4.397   3.383   4.525  0.5143  0.7664 -0.1508
  665THF     O1 9773   3.207   1.006   5.058  0.1060 -0.6667 -0.2126
  665THF     C2 9774   3.278   0.918   4.971  0.2950 -0.2078  0.1481
  665THF     C3 9775   3.096   0.938   5.111 -0.2437 -0.1616 -0.6963
  665THF     H4 9776   3.382   0.909   5.001  0.4642 -1.9285 -0.8062
  665THF     H5 9777   3.277   0.945   4.865 -0.9032 -0.9815 -0.0537
  665THF     H6 9778   3.064   0.968   5.211 -0.0168  1.4328 -1.0764
  665THF     H7 9779   3.005   0.949   5.052  0.0087 -2.6244 -1.6619
  665THF     C8 9780   3.143   0.796   5.112  0.8130 -0.1934 -1.2941
  665THF     C9 9781   3.210   0.777   4.982  0.0080 -1.0467  0.0509
  665THF    H10 9782   3.060   0.729   5.136  1.0906  0.0958  0.6483
  665THF    H11 9783   3.219   0.776   5.188 -2.1529  0.8682  2.2116
  665THF    H12 9784   3.284   0.697   4.984  0.1847 -0.9781 -1.7493
  665THF    H13 9785   3.145   0.768   4.895  0.4171  1.9264 -0.6754
  666THF     O1 9786   0.189   1.203   3.011  0.2765  0.1556 -0.1012
  666THF     C2 9787   0.254   1.152   2.892  0.4488  0.3130 -0.3083
  666THF     C3 9788   0.131   1.327   2.982  0.3474 -0.9181  0.4045
  666THF     H4 9789   0.285   1.048   2.897 -1.1792 -0.1792  0.3224
  666THF     H5 9790   0.348   1.206   2.886  1.8530 -2.1694 -2.4458
  666THF     H6 9791   0.038   1.347   3.035 -0.6100 -0.7469 -1.2578
  666THF     H7 9792   0.204   1.406   3.000  0.9143 -0.4358 -3.1849
  666THF     C8 9793   0.110   1.324   2.825 -0.3328  0.0204 -0.1698
  666THF     C9 9794   0.148   1.190   2.783 -0.1207  0.4436 -0.0306
  666THF    H10 9795   0.160   1.404   2.772 -1.5098  0.2782 -0.9302
  666THF    H11 9796   0.005   1.336   2.800 -0.0834  1.8478 -0.4277
  666THF    H12 9797   0.064   1.121   2.794  0.4462 -0.0839  1.1146
  666THF    H13 9798   0.178   1.194   2.678  0.6037  0.5925  0.1771
  667THF     O1 9799   0.862   1.042   0.555  0.3650 -0.1378 -0.5754
  667THF     C2 9800   0.835   0.923   0.630 -0.0529 -0.5458 -0.6973
  667THF     C3 9801   0.792   1.156   0.606  0.5256  0.7396 -0.1741
  667THF     H4 9802   0.907   0.914   0.712 -1.1631  2.1213  0.6882
  667THF     H5 9803   0.839   0.832   0.570 -0.6168 -0.3824 -0.9794
  667THF     H6 9804   0.848   1.199   0.689  0.5588  1.9905 -0.8168
  667THF     H7 9805   0.777   1.227   0.525 -1.8279  1.9512  1.1786
  667THF     C8 9806   0.650   1.087   0.636 -0.7576  0.1386 -0.3649
  667THF     C9 9807   0.695   0.946   0.691  0.4318  0.2617  0.1981
  667THF    H10 9808   0.607   1.076   0.536  1.5514 -0.4291 -1.3558
  667THF    H11 9809   0.579   1.144   0.696 -0.2299  0.5305 -0.1014
  667THF    H12 9810   0.706   0.961   0.798 -0.8844  2.0831  0.1302
  667THF    H13 9811   0.625   0.866   0.663  1.0185 -0.0549 -0.3875
  668THF     O1 9812   5.169   0.211   1.258 -0.1166  0.3358 -0.1762
  668THF     C2 9813   5.279   0.222   1.346  0.1575  0.1224 -0.4085
  668THF     C3 9814   5.093   0.328   1.254 -0.7696 -0.2536 -0.0690
  668THF     H4 9815   5.378   0.206   1.302  0.5618  0.8949  0.2204
  668THF     H5 9816   5.263   0.146   1.423 -0.5193 -1.1833 -1.7848
  668THF     H6 9817   5.124   0.396   1.175 -2.7237  0.9561  0.1210
  668THF     H7 9818   4.985   0.314   1.246 -0.9418  0.2753  1.1598
  668THF     C8 9819   5.120   0.398   1.387 -0.9132  0.1827  0.2564
  668THF     C9 9820   5.267   0.362   1.404  0.1193  0.1685  0.3094
  668THF    H10 9821   5.058   0.357   1.467 -0.6810 -1.4572 -0.3673
  668THF    H11 9822   5.103   0.506   1.379  0.0500  0.4196  1.2480
  668THF    H12 9823   5.336   0.421   1.344 -1.9825  0.1661 -2.2729
  668THF    H13 9824   5.305   0.371   1.506 -0.8505  0.1945  0.6753
  669THF     O1 9825   2.646   5.486   5.231 -0.5416 -0.2076 -0.3651
  669THF     C2 9826   2.668   5.361   5.296  0.2911  0.1307 -0.6056
  669THF     C3 9827   2.611   5.464   5.096 -0.3102 -0.3289 -0.6328
  669THF     H4 9828   2.646   5.365   5.403  0.4224  2.5671 -0.6221
  669THF     H5 9829   2.772   5.332   5.286  0.4927  0.8250 -0.5572
  669THF     H6 9830   2.558   5.554   5.063 -1.0322 -0.3536  0.4100
  669THF     H7 9831   2.695   5.445   5.030  0.6069  3.0218 -0.6091
  669THF     C8 9832   2.510   5.344   5.115 -0.5388  0.1166 -0.5562
  669THF     C9 9833   2.584   5.262   5.221 -0.0736 -0.7996 -0.2699
  669THF    H10 9834   2.500   5.282   5.026 -0.9166  0.5090 -0.7928
  669THF    H11 9835   2.412   5.387   5.139 -0.3557  0.9333 -1.2375
  669THF    H12 9836   2.521   5.205   5.291 -0.1577 -2.4227 -1.5953
  669THF    H13 9837   2.648   5.188   5.172 -1.6153 -1.5729 -1.1839
  670THF     O1 9838   0.807   0.902   0.122 -0.4892  0.3248  0.1124
  670THF     C2 9839   0.721   0.848   0.023 -0.0469  0.1138  0.4904
  670THF     C3 9840   0.745   1.011   0.188 -0.7502 -0.1111  0.6498
  670THF     H4 9841   0.643   0.791   0.073 -0.1487  1.5433  2.0734
  670THF     H5 9842   0.775   0.792  -0.054 -0.5521  0.5665 -0.2073
  670THF     H6 9843   0.700   0.989   0.284 -2.3553  1.4202  0.2942
  670THF     H7 9844   0.825   1.085   0.199 -0.3514 -0.6313  1.3313
  670THF     C8 9845   0.638   1.057   0.094  0.0096 -0.2364  0.1082
  670THF     C9 9846   0.649   0.975  -0.034  0.0169  0.6239  0.4864
  670THF    H10 9847   0.647   1.165   0.083 -3.4675  0.2133  0.7652
  670THF    H11 9848   0.538   1.036   0.130  0.2793  1.4239  1.9836
  670THF    H12 9849   0.547   0.956  -0.069 -0.2205  3.3603 -0.5807
  670THF    H13 9850   0.701   1.029  -0.113 -0.7987  0.7004 -0.0089
  671THF     O1 9851   4.635   1.511   1.233  0.0003 -0.1174 -0.5046
  671THF     C2 9852   4.765   1.521   1.174 -0.7278  0.1994  0.4125
  671THF     C3 9853   4.541   1.470   1.137 -0.3670  0.8485  0.5916
  671THF     H4 9854   4.820   1.427   1.166  0.4163  0.9479 -0.9602
  671THF     H5 9855   4.823   1.591   1.235 -0.9730  0.1867  0.6645
  671THF     H6 9856   4.559   1.370   1.098 -1.1826  0.8926  0.0703
  671THF     H7 9857   4.439   1.482   1.175 -0.8055 -0.0281 -0.2775
  671THF     C8 9858   4.577   1.562   1.021  0.6156 -0.0888 -0.4231
  671THF     C9 9859   4.731   1.576   1.036 -0.0281  0.2938  0.3048
  671THF    H10 9860   4.525   1.657   1.032  0.2077 -0.4642  1.2902
  671THF    H11 9861   4.553   1.505   0.931  1.6946  0.2265 -0.9196
  671THF    H12 9862   4.778   1.505   0.966 -0.2899  1.1387 -0.7537
  671THF    H13 9863   4.771   1.670   0.998 -0.1100 -0.6854 -2.5124
  672THF     O1 9864   4.090   0.802   0.428 -0.0816  0.4325  0.7090
  672THF     C2 9865   4.195   0.755   0.511 -0.1910 -0.2030  0.2252
  672THF     C3 9866   4.080   0.940   0.431  0.2269 -0.5921  0.0896
  672THF     H4 9867   4.274   0.712   0.450 -1.0102  0.7155 -1.5637
  672THF     H5 9868   4.155   0.676   0.574 -1.8720 -0.7208 -1.3865
  672THF     H6 9869   4.156   0.977   0.362  0.1633 -1.8829 -0.7056
  672THF     H7 9870   3.981   0.978   0.406  0.6632  1.1492  0.9128
  672THF     C8 9871   4.131   0.972   0.574 -0.1187 -0.1938 -0.0587
  672THF     C9 9872   4.249   0.874   0.587 -0.0404 -0.0919  0.3303
  672THF    H10 9873   4.060   0.942   0.650 -0.8558 -0.2867 -0.7664
  672THF    H11 9874   4.154   1.075   0.601  1.5188 -1.1894  2.6772
  672THF    H12 9875   4.335   0.920   0.539 -0.9078  0.6419 -0.5466
  672THF    H13 9876   4.275   0.849   0.690  1.5742 -2.0671 -0.4853
  673THF     O1 9877   3.780   0.726   5.108  0.0252 -0.2359 -0.2786
  673THF     C2 9878   3.702   0.611   5.108  0.3848  0.2456  0.2889
  673THF     C3 9879   3.690   0.836   5.113 -0.4859 -0.3584 -0.0147
  673THF     H4 9880   3.748   0.515   5.131 -2.5527 -1.7386 -1.4127
  673THF     H5 9881   3.656   0.601   5.010  1.1815  0.4651 -0.1152
  673THF     H6 9882   3.740   0.930   5.134  1.8806 -0.7024 -3.2949
  673THF     H7 9883   3.650   0.846   5.012 -0.1505  0.6992 -0.0494
  673THF     C8 9884   3.579   0.791   5.206 -0.6772  0.4981 -0.1783
  673THF     C9 9885   3.592   0.640   5.206  0.8867 -0.5660  0.8087
  673THF    H10 9886   3.479   0.819   5.171 -1.0652 -0.4394  0.1554
  673THF    H11 9887   3.580   0.837   5.305 -1.2020  1.4114 -0.5827
  673THF    H12 9888   3.608   0.599   5.306 -1.3829 -3.2365  0.1962
  673THF    H13 9889   3.502   0.595   5.164  1.3806 -0.8396  0.0344
  674THF     O1 9890   4.825   5.042   5.327  0.1208  0.5852  0.4175
  674THF     C2 9891   4.780   5.081   5.199 -0.8637 -0.3377 -0.4954
  674THF     C3 9892   4.721   4.970   5.393  0.8120  0.4356  0.1984
  674THF     H4 9893   4.792   4.989   5.143  2.0355 -1.4896  1.7645
  674THF     H5 9894   4.833   5.166   5.156 -0.7351 -0.9385 -1.5486
  674THF     H6 9895   4.744   4.863   5.391  3.5800  0.9514 -1.0406
  674THF     H7 9896   4.710   5.004   5.496 -5.3394 -0.0061  0.0556
  674THF     C8 9897   4.600   5.006   5.315 -0.3281  0.1280  0.4319
  674THF     C9 9898   4.632   5.115   5.215 -0.0166  0.5831 -0.2667
  674THF    H10 9899   4.515   5.028   5.380  0.6272 -1.1557  2.2081
  674THF    H11 9900   4.579   4.922   5.249  1.6144  0.6731 -0.9580
  674THF    H12 9901   4.571   5.101   5.126 -2.0620 -2.4562  1.4277
  674THF    H13 9902   4.620   5.214   5.258  0.8701 -0.2653  2.1365
  675THF     O1 9903   3.573   1.847   1.556  0.0196 -0.2133 -0.0178
  675THF     C2 9904   3.637   1.932   1.463 -0.5210 -0.2856  0.3950
  675THF     C3 9905   3.632   1.718   1.545 -0.2298 -0.4616  0.7755
  675THF     H4 9906   3.644   2.031   1.508  0.6888 -1.6453  3.4895
  675THF     H5 9907   3.580   1.945   1.371 -1.4746 -1.6510  0.7542
  675THF     H6 9908   3.628   1.654   1.633  1.9846  2.0631  2.8660
  675THF     H7 9909   3.586   1.671   1.458  0.5190  1.4286 -0.7234
  675THF     C8 9910   3.780   1.751   1.511 -0.7428  0.4311  0.2307
  675THF     C9 9911   3.777   1.876   1.431 -0.3235 -0.5036 -0.4832
  675THF    H10 9912   3.822   1.670   1.452  0.9440 -0.0769  2.0213
  675THF    H11 9913   3.835   1.768   1.604  0.2362  0.3827 -0.3255
  675THF    H12 9914   3.852   1.950   1.461 -1.0687 -0.0676  0.3505
  675THF    H13 9915   3.795   1.848   1.327  2.6676 -0.4466 -0.0869
  676THF     O1 9916   4.611   3.583   1.928 -0.0455  0.3953  0.4319
  676THF     C2 9917   4.637   3.638   2.054 -0.6955 -0.6686  0.3915
  676THF     C3 9918   4.526   3.468   1.948 -0.1575 -0.4456 -0.3830
  676THF     H4 9919   4.653   3.745   2.039  0.3798 -0.8714 -0.0309
  676THF     H5 9920   4.730   3.597   2.095 -1.5471 -0.5829  2.5656
  676THF     H6 9921   4.462   3.436   1.866 -0.7277 -2.2735  0.7271
  676THF     H7 9922   4.585   3.386   1.990 -1.3587 -1.3753 -0.4871
  676THF     C8 9923   4.427   3.524   2.056 -0.3123  0.1283  0.3483
  676THF     C9 9924   4.525   3.595   2.148  0.2574 -0.0077  0.3610
  676THF    H10 9925   4.357   3.455   2.101  0.0176 -1.5698 -1.5838
  676THF    H11 9926   4.361   3.593   2.003 -0.6159 -1.7313 -1.8386
  676THF    H12 9927   4.487   3.673   2.213 -0.4739  0.2666 -0.3812
  676THF    H13 9928   4.578   3.526   2.214  0.6010  1.3131  1.4955
  677THF     O1 9929   2.991   2.961   3.419  0.1007 -0.1238  0.5198
  677THF     C2 9930   2.980   2.857   3.509  0.5931 -0.7625  0.6932
  677THF     C3 9931   3.125   2.965   3.368  0.3213 -0.0926 -0.0821
  677THF     H4 9932   2.876   2.833   3.532 -0.0318  0.7779 -0.3180
  677THF     H5 9933   3.024   2.892   3.602 -2.2784 -1.5702  2.4805
  677THF     H6 9934   3.111   3.030   3.281 -2.5049 -1.0966 -0.4765
  677THF     H7 9935   3.195   3.002   3.443  0.3371  1.1351 -0.6643
  677THF     C8 9936   3.152   2.821   3.330  0.2508 -0.3985 -0.3156
  677THF     C9 9937   3.073   2.751   3.438  0.5095 -0.4783  0.4602
  677THF    H10 9938   3.257   2.793   3.333 -0.0662 -1.6326 -0.2405
  677THF    H11 9939   3.107   2.797   3.233  0.5993  1.5863 -1.0160
  677THF    H12 9940   3.016   2.684   3.374 -0.0742 -0.3827  0.8653
  677THF    H13 9941   3.132   2.693   3.509 -0.7978 -0.3212  1.7153
  678THF     O1 9942   2.232   3.540   0.190  0.0944  0.2495 -0.0739
  678THF     C2 9943   2.206   3.641   0.094  0.6834 -0.9686  0.0957
  678THF     C3 9944   2.366   3.554   0.235  0.4020 -0.0020  0.1021
  678THF     H4 9945   2.180   3.736   0.142  1.6492 -0.9426  0.5865
  678THF     H5 9946   2.130   3.628   0.017 -1.7946  2.1255  1.7374
  678THF     H6 9947   2.364   3.619   0.322  1.4258 -0.9116  0.8427
  678THF     H7 9948   2.407   3.453   0.241 -0.1601 -0.4265 -2.2388
  678THF     C8 9949   2.442   3.639   0.139 -0.3729  0.1272  0.7017
  678THF     C9 9950   2.341   3.664   0.026  0.3560 -0.4596  0.1125
  678THF    H10 9951   2.529   3.586   0.102 -0.4915 -0.2102  0.8987
  678THF    H11 9952   2.474   3.732   0.187 -0.9723  1.4933 -1.4510
  678THF    H12 9953   2.337   3.766  -0.012  0.1111 -0.3540  0.4180
  678THF    H13 9954   2.358   3.588  -0.050 -1.4381  0.2568 -1.0644
  679THF     O1 9955   0.909   2.263   0.702  0.5195  0.5162  0.3414
  679THF     C2 9956   0.860   2.341   0.597  0.4925  0.0102 -0.0006
  679THF     C3 9957   1.008   2.171   0.661  0.2618  0.0646  0.3097
  679THF     H4 9958   0.939   2.412   0.573 -1.2996  1.4106 -2.0982
  679THF     H5 9959   0.768   2.391   0.626  0.2868 -0.4423  0.1314
  679THF     H6 9960   1.109   2.211   0.661  0.1791  0.4371 -1.9334
  679THF     H7 9961   1.000   2.078   0.716 -0.4451  0.8465  1.5696
  679THF     C8 9962   0.970   2.144   0.518 -0.0477 -0.3774  0.3793
  679THF     C9 9963   0.850   2.243   0.492 -0.2601  0.6342 -0.3240
  679THF    H10 9964   0.941   2.042   0.490 -1.9042  0.3232 -0.4329
  679THF    H11 9965   1.058   2.163   0.457  0.5561  0.2873  1.4304
  679THF    H12 9966   0.861   2.289   0.394 -0.0480 -1.0695 -1.1324
  679THF    H13 9967   0.758   2.186   0.505  1.4085 -2.2096 -0.2218
  680THF     O1 9968   4.244   1.900   2.075 -0.4166  0.5908 -0.4695
  680THF     C2 9969   4.296   1.809   1.976 -0.1733 -0.1532  0.3673
  680THF     C3 9970   4.355   1.984   2.104 -0.0095 -0.2419  0.4370
  680THF     H4 9971   4.244   1.826   1.882  1.8898  0.3930 -0.7176
  680THF     H5 9972   4.260   1.707   1.995  0.7272 -0.9610 -1.8901
  680THF     H6 9973   4.340   2.073   2.043  1.2864 -1.0373 -1.1124
  680THF     H7 9974   4.349   2.020   2.207 -1.4181 -0.6023  0.4934
  680THF     C8 9975   4.477   1.906   2.071 -0.0153 -0.1023 -0.8733
  680THF     C9 9976   4.439   1.831   1.949 -0.7146  0.5438 -0.2051
  680THF    H10 9977   4.489   1.830   2.149 -0.3866  0.1972 -0.5181
  680THF    H11 9978   4.570   1.960   2.058  0.6922 -0.3633  2.3292
  680THF    H12 9979   4.455   1.897   1.863 -1.0066  0.1202 -0.5869
  680THF    H13 9980   4.497   1.740   1.940 -0.7161  0.6826 -1.8748
  681THF     O1 9981   1.318   1.489   3.634  0.0274  0.1472  0.0577
  681THF     C2 9982   1.428   1.581   3.659  0.4077  0.1510  0.5601
  681THF     C3 9983   1.250   1.474   3.755  0.0594  0.3895 -0.1023
  681THF     H4 9984   1.445   1.634   3.565 -2.2203  0.7417  0.3447
  681THF     H5 9985   1.515   1.517   3.677 -0.6389 -1.0846  1.4297
  681THF     H6 9986   1.146   1.443   3.742 -0.4300  1.1998  1.5805
  681THF     H7 9987   1.307   1.406   3.819  0.4071  2.2090  1.6182
  681THF     C8 9988   1.252   1.617   3.815  0.4177  0.4648  0.6312
  681THF     C9 9989   1.389   1.670   3.777 -0.8884  0.0877 -0.6280
  681THF    H10 9990   1.239   1.627   3.923 -3.1093 -0.5896  0.4319
  681THF    H11 9991   1.181   1.678   3.760  0.3110 -1.1379 -1.1287
  681THF    H12 9992   1.398   1.778   3.770 -1.0400  0.3135  1.8279
  681THF    H13 9993   1.458   1.643   3.856 -0.8061 -2.0290 -1.3492
  682THF     O1 9994   2.305   2.518   1.800 -0.9519 -0.0756 -0.4277
  682THF     C2 9995   2.349   2.428   1.905  0.0793 -0.2025  0.4364
  682THF     C3 9996   2.205   2.446   1.729  0.3576  0.2072 -0.3352
  682THF     H4 9997   2.280   2.434   1.989 -2.8282 -2.7213 -1.5548
  682THF     H5 9998   2.444   2.475   1.931 -0.1777 -0.0008  1.0400
  682THF     H6 9999   2.106   2.450   1.774  1.6680  1.8562  2.6804
  682THF     H710000   2.187   2.473   1.625 -0.5321  2.8188  0.4284
  682THF     C810001   2.264   2.307   1.719  0.1063 -0.0175  0.2981
  682THF     C910002   2.367   2.292   1.843  0.7338 -0.2703  0.4306
  682THF    H1010003   2.313   2.301   1.622 -0.8854 -0.1094 -0.1966
  682THF    H1110004   2.194   2.225   1.733 -0.2553  0.3990  1.0250
  682THF    H1210005   2.341   2.215   1.915 -2.9018  2.8396  2.7917
  682THF    H1310006   2.473   2.282   1.820  0.9908 -0.3756  1.6318
  683THF     O110007   2.310   4.982   1.952  0.4414 -0.7944  0.0564
  683THF     C210008   2.296   5.049   1.831  0.3329  0.6752  0.1968
  683THF     C310009   2.440   4.925   1.960  0.3844 -0.4633  0.6670
  683THF     H410010   2.351   5.141   1.852  1.1087  0.3775 -0.4634
  683THF     H510011   2.188   5.056   1.814  0.5130 -1.3178 -2.5385
  683THF     H610012   2.505   5.011   1.975  0.1111 -0.6053  3.0081
  683THF     H710013   2.458   4.853   2.040 -1.5035 -0.8168  0.8154
  683THF     C810014   2.454   4.872   1.823  0.2366 -0.1896  0.0450
  683THF     C910015   2.377   4.968   1.727  0.2082  0.2198  0.2320
  683THF    H1010016   2.405   4.775   1.813  2.0796 -1.2059  0.5271
  683THF    H1110017   2.562   4.861   1.811  0.2758  0.2544 -0.0131
  683THF    H1210018   2.448   5.035   1.678  1.8806 -1.6079  0.0143
  683THF    H1310019   2.322   4.903   1.660 -0.7249  1.3034 -0.0846
  684THF     O110020   0.456   1.281   4.074 -0.2330 -0.4693  0.5189
  684THF     C210021   0.509   1.394   3.999  0.2830  0.2598  0.1793
  684THF     C310022   0.460   1.315   4.208  0.2208  0.0570  0.5654
  684THF     H410023   0.431   1.469   4.004 -1.2050 -0.9408 -2.6702
  684THF     H510024   0.516   1.365   3.894  0.4881  0.4018  0.1528
  684THF     H610025   0.376   1.380   4.231 -1.5964 -1.3471 -1.6829
  684THF     H710026   0.438   1.219   4.255  0.9118 -0.9760 -1.1116
  684THF     C810027   0.605   1.357   4.219 -0.1788  0.0832 -0.7904
  684THF     C910028   0.625   1.430   4.085  0.0247  0.1321 -0.2226
  684THF    H1010029   0.662   1.265   4.233  0.4760  0.4579 -0.9317
  684THF    H1110030   0.622   1.429   4.299  1.3008  1.1913 -2.0566
  684THF    H1210031   0.630   1.538   4.095 -1.4449  0.2229 -0.1995
  684THF    H1310032   0.725   1.409   4.047  0.8988  1.2698  1.3366
  685THF     O110033   4.679   3.035   1.090 -0.4847 -0.3979  0.2704
  685THF     C210034   4.775   3.089   1.182  0.1017  0.9924 -0.3642
  685THF     C310035   4.671   2.896   1.124  0.4697  0.7640 -0.8531
  685THF     H410036   4.765   3.194   1.211  0.6650  0.3200  2.6795
  685THF     H510037   4.873   3.075   1.136 -0.3648 -1.1134 -0.8226
  685THF     H610038   4.567   2.867   1.106  0.5460  0.2870 -0.5405
  685THF     H710039   4.744   2.830   1.078  2.1761  0.4732  2.0581
  685THF     C810040   4.699   2.882   1.275  0.8422 -0.0628 -0.3458
  685THF     C910041   4.755   3.021   1.316 -0.7471  0.4954 -0.6193
  685THF    H1010042   4.772   2.801   1.277 -0.8052 -1.5978  0.2608
  685THF    H1110043   4.617   2.853   1.340  2.0680  1.6686  2.1297
  685THF    H1210044   4.679   3.080   1.366  0.0151  0.9678  0.0170
  685THF    H1310045   4.840   3.020   1.385 -2.7255  0.2201  1.9404
  686THF     O110046   0.544   0.225   1.468  0.1956  0.6299  0.4589
  686THF     C210047   0.535   0.362   1.497 -0.9334 -0.1587  0.0860
  686THF     C310048   0.604   0.219   1.340  0.2077  0.0224 -0.0789
  686THF     H410049   0.615   0.399   1.560 -0.5487 -1.7555  0.5810
  686THF     H510050   0.440   0.380   1.547 -1.3224 -0.1337 -0.6418
  686THF     H610051   0.713   0.230   1.347  0.2087 -0.5643  1.0609
  686THF     H710052   0.587   0.133   1.275 -1.1889  1.1202 -1.2353
  686THF     C810053   0.551   0.338   1.265  0.0232 -0.2410 -0.1986
  686THF     C910054   0.547   0.446   1.373 -1.2415  0.2921 -0.3230
  686THF    H1010055   0.447   0.324   1.234 -0.3412 -1.6542  1.5282
  686THF    H1110056   0.625   0.357   1.187  0.5480 -0.0514  0.3334
  686THF    H1210057   0.643   0.498   1.378 -1.1184 -0.0181  0.8873
  686THF    H1310058   0.465   0.517   1.359 -1.0489  1.1192  2.1821
  687THF     O110059   0.242   3.283   2.482  0.0360  0.0369 -0.1206
  687THF     C210060   0.314   3.164   2.510  0.0982 -0.2995 -0.4864
  687THF     C310061   0.107   3.247   2.484 -1.1101 -0.2327 -0.3651
  687THF     H410062   0.412   3.202   2.540 -1.7828  2.9745  2.0270
  687THF     H510063   0.309   3.106   2.417 -4.1347  2.2840 -2.1547
  687THF     H610064   0.054   3.341   2.494 -1.1877 -0.3230  0.0743
  687THF     H710065   0.076   3.192   2.394 -0.5746 -0.6724 -0.2907
  687THF     C810066   0.097   3.167   2.613  0.2768 -0.2838  0.0249
  687THF     C910067   0.233   3.102   2.622 -0.5016 -0.0340 -0.1368
  687THF    H1010068   0.008   3.104   2.608 -0.0260  0.1590 -0.2399
  687THF    H1110069   0.078   3.232   2.698  0.0227  0.9845 -0.9740
  687THF    H1210070   0.268   3.129   2.722  1.9764 -1.0237 -0.6579
  687THF    H1310071   0.233   2.993   2.634 -2.0547 -0.0052  0.2317
  688THF     O110072   2.653   5.056   0.040 -0.6254  0.0262  0.1708
  688THF     C210073   2.530   5.088   0.106  0.0268 -0.3995  0.2898
  688THF     C310074   2.684   4.922   0.087  0.4411  0.0533  0.4012
  688THF     H410075   2.452   5.035   0.052  0.8737 -1.6796  0.2673
  688THF     H510076   2.511   5.195   0.097 -3.1564 -0.9964 -1.1107
  688THF     H610077   2.620   4.845   0.044  0.7414 -1.4614  2.4888
  688THF     H710078   2.787   4.899   0.064  0.6556  0.3222  1.0462
  688THF     C810079   2.654   4.928   0.237 -0.0929 -0.2230  0.1778
  688THF     C910080   2.553   5.037   0.249  0.2353  0.2176 -0.4055
  688THF    H1010081   2.748   4.950   0.287 -1.0868  1.8366  1.2509
  688THF    H1110082   2.621   4.836   0.287 -0.3853 -0.4575 -0.4383
  688THF    H1210083   2.460   4.987   0.277  2.0562 -2.4641  1.2965
  688THF    H1310084   2.580   5.117   0.317 -0.6346  1.5906 -1.5958
  689THF     O110085   5.368   4.223   1.698  0.1223 -0.1904 -0.1635
  689THF     C210086   5.302   4.099   1.686 -0.8901  0.2928 -0.4110
  689THF     C310087   5.501   4.207   1.638 -1.6660  0.6045 -0.1601
  689THF     H410088   5.272   4.100   1.581 -0.1883  3.3631 -0.6814
  689THF     H510089   5.219   4.099   1.757 -1.3063 -2.4504 -0.7708
  689THF     H610090   5.501   4.201   1.529 -0.3677  3.6353 -0.4175
  689THF     H710091   5.570   4.285   1.668  0.6361 -1.9195  1.5604
  689THF     C810092   5.544   4.078   1.710 -0.4833 -0.0789 -0.5876
  689THF     C910093   5.418   3.991   1.706  0.8557 -0.8921  0.1610
  689THF    H1010094   5.582   4.087   1.812 -0.8625 -0.4123 -0.4126
  689THF    H1110095   5.627   4.033   1.656  0.1211 -0.7365  0.8501
  689THF    H1210096   5.418   3.917   1.626 -1.9512 -1.8998  0.9727
  689THF    H1310097   5.402   3.927   1.793 -1.3855 -1.1110 -0.3469
  690THF     O110098   2.038   3.550   0.655 -0.3364  0.3579 -0.1208
  690THF     C210099   2.016   3.659   0.737 -0.0138  0.2383 -0.3330
  690THF     C310100   2.164   3.571   0.590  0.3946 -0.5053  0.0529
  690THF     H410101   1.930   3.644   0.803 -0.6657  2.5331 -0.5602
  690THF     H510102   2.005   3.753   0.682 -0.5141  0.4348  0.0946
  690THF     H610103   2.213   3.483   0.550  0.1329 -0.8020  0.3828
  690THF     H710104   2.149   3.648   0.514 -0.3788  1.3180  1.9467
  690THF     C810105   2.248   3.636   0.695 -0.3692 -0.1867 -0.8560
  690THF     C910106   2.145   3.667   0.811 -0.3338 -0.5315 -0.1999
  690THF    H1010107   2.305   3.727   0.675 -0.2849  0.1027  0.5660
  690THF    H1110108   2.322   3.569   0.739  0.4581  0.1156 -1.7398
  690THF    H1210109   2.136   3.600   0.896 -1.7205  0.3918  0.4057
  690THF    H1310110   2.163   3.768   0.846  2.0017 -0.6204 -0.9582
  691THF     O110111   0.286   4.377   5.031 -0.2360 -0.6229  0.3357
  691THF     C210112   0.333   4.488   5.097 -0.2670 -0.8485 -0.2777
  691THF     C310113   0.147   4.367   5.055  0.9266  0.1021  0.9007
  691THF     H410114   0.383   4.548   5.021 -1.0323 -0.1658 -0.2591
  691THF     H510115   0.413   4.464   5.167 -0.6534  0.4424  0.6545
  691THF     H610116   0.088   4.326   4.973 -2.1683  2.1497  1.9195
  691THF     H710117   0.132   4.304   5.143 -0.7940 -0.4775  0.2402
  691THF     C810118   0.097   4.510   5.077  0.8709  0.0892 -0.5841
  691THF     C910119   0.221   4.568   5.149  0.4686 -0.7022  0.1472
  691THF    H1010120   0.010   4.505   5.142  1.1990 -0.4027 -0.1706
  691THF    H1110121   0.081   4.561   4.982 -0.9486 -1.2583 -1.0645
  691THF    H1210122   0.233   4.671   5.115  2.3160 -0.0886  2.4616
  691THF    H1310123   0.218   4.567   5.258 -1.9141  1.6363  0.2126
  692THF     O110124   2.276   3.291   2.873 -0.5145 -0.1405  0.2123
  692THF     C210125   2.218   3.375   2.787  0.4875  0.0726 -0.0370
  692THF     C310126   2.217   3.165   2.852  0.2429  0.4118 -0.1912
  692THF     H410127   2.297   3.440   2.750 -0.3950  2.5071  2.0129
  692THF     H510128   2.139   3.433   2.834 -0.7206 -1.2976 -0.2986
  692THF     H610129   2.290   3.091   2.885 -0.1484  0.7566  1.5345
  692THF     H710130   2.125   3.160   2.910 -0.3466 -0.5849 -1.1508
  692THF     C810131   2.194   3.161   2.707  0.1043  0.5159  0.3878
  692THF     C910132   2.149   3.293   2.672 -1.6101  0.2649 -0.3335
  692THF    H1010133   2.125   3.079   2.686  2.8998 -1.1373 -3.2022
  692THF    H1110134   2.273   3.129   2.640 -1.0576 -0.9241 -0.3715
  692THF    H1210135   2.172   3.329   2.572 -1.6749  0.5784 -0.2375
  692THF    H1310136   2.045   3.287   2.703 -0.8929 -1.4013  2.0341
  693THF     O110137   2.232   1.746   0.247 -0.1952 -0.0471  0.3593
  693THF     C210138   2.282   1.610   0.273 -0.2687  0.3257 -0.3017
  693THF     C310139   2.323   1.827   0.315 -0.3145 -0.0992  0.1107
  693THF     H410140   2.237   1.543   0.199  0.4542 -2.1334  1.3652
  693THF     H510141   2.253   1.575   0.372  0.9435  1.6077  0.5474
  693THF     H610142   2.312   1.932   0.289 -0.8126 -0.1783 -0.0039
  693THF     H710143   2.313   1.820   0.423 -0.1665 -1.0899  0.0653
  693THF     C810144   2.462   1.765   0.270  0.2158 -0.4377 -0.4674
  693THF     C910145   2.432   1.620   0.273 -0.4631  0.2102 -0.1897
  693THF    H1010146   2.554   1.791   0.323  0.8572  1.7713 -2.4538
  693THF    H1110147   2.477   1.804   0.169 -1.3837 -0.4438 -0.7260
  693THF    H1210148   2.479   1.583   0.182  0.3025  0.2026  0.2096
  693THF    H1310149   2.483   1.564   0.351  0.2217  1.1174  0.0241
  694THF     O110150   3.293   1.587   4.869  0.0176  0.7654  0.0506
  694THF     C210151   3.340   1.716   4.832 -0.7633  0.1603  0.3104
  694THF     C310152   3.372   1.487   4.798 -0.8426  0.3845  0.7124
  694THF     H410153   3.440   1.720   4.875  0.2731 -0.5617 -1.8985
  694THF     H510154   3.278   1.801   4.861 -1.5003  0.2349 -1.3365
  694THF     H610155   3.456   1.461   4.862  0.6677 -0.4216 -1.4832
  694THF     H710156   3.296   1.409   4.789 -0.4091 -0.3431  2.8217
  694THF     C810157   3.421   1.556   4.667  0.2162  0.4616 -0.3420
  694THF     C910158   3.375   1.695   4.688  0.1758  0.8441 -0.8041
  694THF    H1010159   3.379   1.514   4.575 -0.7080  4.4856 -1.9554
  694THF    H1110160   3.529   1.551   4.681  0.4163  1.9174 -1.1538
  694THF    H1210161   3.450   1.762   4.646  2.0465 -0.7264 -0.1048
  694THF    H1310162   3.280   1.711   4.635  1.0031 -0.6163 -2.8382
  695THF     O110163   3.548   2.293   1.962  0.3520  0.3785  0.1051
  695THF     C210164   3.497   2.177   2.024  0.4302  0.4293 -0.0354
  695THF     C310165   3.544   2.269   1.823 -0.3655 -0.3094 -0.2105
  695THF     H410166   3.389   2.172   2.009  0.4150 -1.5555  0.4807
  695THF     H510167   3.519   2.172   2.130 -1.9055  0.0247  0.4801
  695THF     H610168   3.443   2.299   1.795 -0.2085  0.3948 -0.0380
  695THF     H710169   3.606   2.337   1.764  0.7935 -0.0830  1.2043
  695THF     C810170   3.588   2.121   1.813  0.0888 -0.1268 -0.0800
  695THF     C910171   3.535   2.059   1.941 -0.7119  0.0108  0.5411
  695THF    H1010172   3.696   2.129   1.807  0.0882  0.3764  0.4453
  695THF    H1110173   3.546   2.088   1.718 -0.8532  0.8180 -0.0247
  695THF    H1210174   3.445   2.001   1.918 -1.5025  1.3281  0.2319
  695THF    H1310175   3.618   2.012   1.994 -0.2788  1.4075  1.1329
  696THF     O110176   0.769   1.802   5.227  0.4222  0.6388 -0.0955
  696THF     C210177   0.794   1.671   5.193 -0.0567  0.7516  0.2314
  696THF     C310178   0.883   1.874   5.179 -0.1459 -0.1688 -0.3068
  696THF     H410179   0.702   1.612   5.188  1.8394 -2.5581  0.8976
  696THF     H510180   0.862   1.626   5.266  0.8022  2.8887  0.8265
  696THF     H610181   0.871   1.983   5.182  0.0796 -0.1701  1.7639
  696THF     H710182   0.956   1.856   5.257 -1.5213  0.7305  1.2806
  696THF     C810183   0.913   1.807   5.048 -0.0706 -0.1900  0.4676
  696THF     C910184   0.855   1.672   5.056  0.3285  0.5555 -0.0607
  696THF    H1010185   1.021   1.805   5.035 -0.1143 -0.8087  0.1741
  696THF    H1110186   0.872   1.868   4.968  1.1482  0.0548  0.0073
  696THF    H1210187   0.787   1.666   4.971  2.4746  1.5865 -1.9785
  696THF    H1310188   0.924   1.589   5.042 -0.5332 -0.0942 -0.5501
  697THF     O110189   0.328   0.608   0.687 -0.5893  0.3907  0.1421
  697THF     C210190   0.208   0.617   0.617 -0.0039 -0.0417 -0.6737
  697THF     C310191   0.298   0.600   0.830 -0.4650 -0.0090 -0.6563
  697THF     H410192   0.166   0.517   0.631 -0.2727  0.4254  3.1485
  697THF     H510193   0.215   0.633   0.510  1.8124 -2.2267 -0.9618
  697THF     H610194   0.249   0.507   0.859  0.7254 -0.3493  0.3105
  697THF     H710195   0.381   0.613   0.899 -0.2264  0.3298 -1.0019
  697THF     C810196   0.192   0.705   0.844 -0.1861  0.9318  0.6507
  697THF     C910197   0.132   0.724   0.696 -0.2416 -0.7596 -0.8840
  697THF    H1010198   0.229   0.794   0.895  1.8651  0.7917 -0.4713
  697THF    H1110199   0.125   0.660   0.916  1.0850  0.8576  1.8349
  697THF    H1210200   0.023   0.722   0.691 -0.4911  0.6984  2.0105
  697THF    H1310201   0.169   0.819   0.658 -1.7423  0.0208 -0.4919
  698THF     O110202   3.181   5.092   5.395  1.2084  0.5374  0.0023
  698THF     C210203   3.104   4.971   5.396 -0.4748 -0.4558 -0.0049
  698THF     C310204   3.177   5.147   5.269  0.0310 -0.7404  0.5042
  698THF     H410205   3.071   4.943   5.496 -1.1215  0.1779 -0.0375
  698THF     H510206   3.167   4.891   5.358  0.0085  0.1621 -0.5215
  698THF     H610207   3.193   5.255   5.270 -0.4649 -0.6650  0.3636
  698THF     H710208   3.253   5.102   5.204  0.9628  1.1897  0.1469
  698THF     C810209   3.040   5.123   5.217 -0.1542 -0.5595 -0.0285
  698THF     C910210   2.989   5.004   5.294 -0.4366  0.0432 -0.4004
  698THF    H1010211   3.039   5.113   5.109 -0.8639 -0.4166 -0.0386
  698THF    H1110212   2.980   5.205   5.256  2.0124  0.1481  2.1335
  698THF    H1210213   2.899   5.033   5.348 -0.4128 -1.2107  0.3699
  698THF    H1310214   2.962   4.924   5.225  0.0501  0.0700 -0.6274
  699THF     O110215   1.524   3.251   0.246 -0.0554 -0.1304  0.3315
  699THF     C210216   1.455   3.341   0.161 -0.0470  0.5409 -0.7202
  699THF     C310217   1.620   3.178   0.175  0.1892 -0.3944  0.3146
  699THF     H410218   1.520   3.425   0.136  0.4645  1.6051  3.4430
  699THF     H510219   1.365   3.387   0.201  1.1367  1.9179  0.5060
  699THF     H610220   1.692   3.259   0.163 -1.5102  1.0851 -0.3490
  699THF     H710221   1.671   3.097   0.227  0.3991 -0.6600 -0.3081
  699THF     C810222   1.552   3.153   0.038  0.0931  0.1090  0.4363
  699THF     C910223   1.430   3.252   0.039 -0.0991 -0.5382 -0.0151
  699THF    H1010224   1.526   3.048   0.022  0.6030  0.2575 -1.7586
  699THF    H1110225   1.618   3.172  -0.046  1.1056  0.3612  1.2747
  699THF    H1210226   1.405   3.307  -0.051 -1.2910  1.7340  1.6222
  699THF    H1310227   1.338   3.200   0.065  0.8337 -1.4263  1.7312
  700THF     O110228   0.341   0.144   4.580 -0.5995 -0.6223  0.7977
  700THF     C210229   0.277   0.119   4.457 -0.1379 -0.7658  0.0215
  700THF     C310230   0.243   0.162   4.680  0.1645 -0.1270  0.2169
  700THF     H410231   0.336   0.073   4.378  0.7429  2.7979 -1.5731
  700THF     H510232   0.239   0.216   4.425  1.5929 -0.2923 -0.6656
  700THF     H610233   0.307   0.131   4.762 -0.3183  0.7446  0.9432
  700THF     H710234   0.211   0.263   4.708 -0.7453 -0.5288  0.6732
  700THF     C810235   0.130   0.070   4.647  0.4500  0.1815  0.0730
  700THF     C910236   0.177   0.011   4.512 -0.8015 -0.4444  0.5891
  700THF    H1010237   0.034   0.122   4.648  1.1578  1.5754  2.6266
  700THF    H1110238   0.112   0.002   4.730 -0.6680  0.3035 -0.0483
  700THF    H1210239   0.225  -0.081   4.542 -1.6460 -1.1866 -0.2628
  700THF    H1310240   0.092  -0.021   4.451 -0.4695 -0.5707  0.1942
  701THF     O110241   1.622   3.734   4.233 -0.2649  0.3650  0.1545
  701THF     C210242   1.520   3.635   4.245  0.4600  0.3650  0.5828
  701THF     C310243   1.631   3.792   4.365 -0.0630  0.3196  0.5351
  701THF     H410244   1.567   3.544   4.283  0.1632 -1.6169 -3.3396
  701THF     H510245   1.480   3.612   4.146 -0.9689  4.4751  0.0081
  701THF     H610246   1.709   3.751   4.430  0.8502  1.2353  0.0307
  701THF     H710247   1.665   3.895   4.351  2.1695 -0.6161 -1.9826
  701THF     C810248   1.497   3.787   4.430 -0.1763 -0.6528  0.6887
  701THF     C910249   1.419   3.689   4.341 -0.8678  0.4768  0.6427
  701THF    H1010250   1.438   3.879   4.430 -1.0900 -1.2306 -0.2671
  701THF    H1110251   1.509   3.750   4.532  1.4298  0.2017  0.8463
  701THF    H1210252   1.384   3.603   4.398 -0.3536 -0.3843 -0.3034
  701THF    H1310253   1.331   3.736   4.296  0.3932  2.9190  0.5059
  702THF     O110254   2.570   5.374   4.777  0.7240  0.4638  0.1825
  702THF     C210255   2.431   5.364   4.749  0.5987 -0.0081  0.2037
  702THF     C310256   2.634   5.416   4.664 -0.6242  0.8264  0.1281
  702THF     H410257   2.381   5.460   4.761 -0.5657 -0.4324 -1.0146
  702THF     H510258   2.374   5.294   4.810 -0.0616  0.2921 -0.0598
  702THF     H610259   2.637   5.525   4.668  2.0020  0.8001  1.0421
  702THF     H710260   2.739   5.389   4.676 -0.8508  0.2430  0.8699
  702THF     C810261   2.565   5.358   4.538 -0.2433  0.3646 -0.1732
  702THF     C910262   2.419   5.336   4.592  0.2877 -0.2612  0.9308
  702THF    H1010263   2.615   5.263   4.519  1.1327  1.2786 -1.3934
  702THF    H1110264   2.577   5.414   4.445  3.0686 -2.5238 -1.7133
  702THF    H1210265   2.352   5.397   4.532 -0.1036 -3.1712 -1.8379
  702THF    H1310266   2.394   5.231   4.581  0.1306 -0.1230 -0.0668
  703THF     O110267   3.221   2.969   2.337 -0.3023  0.1457  0.6676
  703THF     C210268   3.088   3.012   2.325  0.8368 -0.4618  0.6184
  703THF     C310269   3.240   2.892   2.456  0.3756  0.1749  0.2958
  703THF     H410270   3.042   2.930   2.270  0.0525  1.5120 -1.8665
  703THF     H510271   3.077   3.096   2.256 -1.2701 -0.1642  1.2379
  703THF     H610272   3.209   2.793   2.422 -2.6128  0.9064  0.6189
  703THF     H710273   3.344   2.907   2.484  1.0761 -1.4553 -1.2107
  703THF     C810274   3.132   2.954   2.552  0.2363  0.6799 -0.4629
  703THF     C910275   3.041   3.044   2.466  0.4832 -0.2589 -0.1654
  703THF    H1010276   3.155   3.002   2.647 -4.8440  1.1662  0.8235
  703THF    H1110277   3.074   2.864   2.577  0.3656  0.3105 -1.4673
  703THF    H1210278   2.936   3.019   2.482  0.0582  2.1310  1.1267
  703THF    H1310279   3.060   3.147   2.496 -1.1875  0.0832 -0.1994
  704THF     O110280   3.119   2.554   2.219 -0.5903 -0.0606 -0.0239
  704THF     C210281   3.099   2.448   2.130 -0.2299 -0.3608  0.0337
  704THF     C310282   3.218   2.641   2.160 -0.0263  0.8642  0.1639
  704THF     H410283   3.032   2.494   2.058  0.0178  0.1605  0.1296
  704THF     H510284   3.055   2.355   2.165  0.8781 -0.3507  1.6110
  704THF     H610285   3.164   2.694   2.081  0.8331  1.8962  0.2321
  704THF     H710286   3.263   2.721   2.219 -0.2358  1.3900 -0.3692
  704THF     C810287   3.316   2.549   2.093 -0.5105  0.2019  0.9626
  704THF     C910288   3.246   2.422   2.078  0.2905  0.5002  0.3648
  704THF    H1010289   3.408   2.526   2.147  0.1034  0.0634 -0.1063
  704THF    H1110290   3.348   2.600   2.002  0.2032 -2.5277 -0.4150
  704THF    H1210291   3.257   2.383   1.977 -0.8904  3.1119 -0.8533
  704THF    H1310292   3.286   2.340   2.138 -0.4034 -0.6772 -0.7281
  705THF     O110293   4.538   3.279   5.267  0.1199  1.1078  0.0022
  705THF     C210294   4.404   3.301   5.224  0.1235 -0.0795  1.1717
  705THF     C310295   4.618   3.390   5.237 -0.7554 -0.7463 -0.8307
  705THF     H410296   4.344   3.307   5.315  0.4785 -0.2695  1.4196
  705THF     H510297   4.377   3.214   5.164 -0.9161 -0.1655  1.7410
  705THF     H610298   4.687   3.412   5.318 -0.0921  1.8336 -1.9993
  705THF     H710299   4.693   3.358   5.163  0.6486  0.0991  0.1741
  705THF     C810300   4.521   3.506   5.201 -0.8790  0.1738 -0.2953
  705THF     C910301   4.401   3.436   5.152 -0.3294  0.2108  0.4152
  705THF    H1010302   4.554   3.581   5.129  0.1963 -0.5297 -0.5466
  705THF    H1110303   4.502   3.563   5.293  1.4673 -0.9292  0.9484
  705THF    H1210304   4.304   3.485   5.164 -1.2048 -1.4088  0.2472
  705THF    H1310305   4.405   3.405   5.048 -0.1401  0.4747  0.3434
  706THF     O110306   4.748   3.069   2.134  0.7335  0.8235 -0.0995
  706THF     C210307   4.886   3.044   2.127  0.3740  0.6619 -0.1562
  706THF     C310308   4.735   3.194   2.193 -0.4234 -0.9303  0.5992
  706THF     H410309   4.902   2.956   2.065 -0.3918 -1.2008  2.1601
  706THF     H510310   4.935   3.024   2.223  2.5604 -2.6845 -1.7641
  706THF     H610311   4.641   3.241   2.166  0.4404  0.3078 -0.3871
  706THF     H710312   4.740   3.183   2.302 -2.2705 -0.6343  0.7436
  706THF     C810313   4.859   3.276   2.152  0.4271 -0.1428  0.2805
  706THF     C910314   4.935   3.177   2.069 -0.0666  0.8944  0.2004
  706THF    H1010315   4.919   3.296   2.240 -0.2336  1.0740  0.4780
  706THF    H1110316   4.829   3.373   2.113 -1.6412 -0.1797  1.6096
  706THF    H1210317   4.905   3.179   1.965  0.6469 -2.7004 -0.2251
  706THF    H1310318   5.043   3.186   2.075 -0.0550  0.7271  0.2481
  707THF     O110319   1.175   1.996   0.035 -0.0252 -0.3798  0.4642
  707THF     C210320   1.222   1.939   0.152 -0.9162 -0.0962  0.0664
  707THF     C310321   1.233   1.929  -0.078 -0.3210  0.5042 -0.0078
  707THF     H410322   1.139   1.936   0.224 -0.2166 -0.1497  0.8929
  707THF     H510323   1.304   1.997   0.194 -0.3500  0.2465 -1.4792
  707THF     H610324   1.176   1.944  -0.169 -2.6074  2.9724  1.6925
  707THF     H710325   1.338   1.959  -0.086 -0.3131  0.7092  0.8056
  707THF     C810326   1.236   1.782  -0.037 -0.3946  0.5557  0.3750
  707THF     C910327   1.264   1.796   0.112  0.2678  0.0240  0.0786
  707THF    H1010328   1.311   1.726  -0.093  0.0101  1.8081 -0.4013
  707THF    H1110329   1.134   1.745  -0.049 -0.2697  0.3073  0.0643
  707THF    H1210330   1.218   1.717   0.170  0.0928 -0.3688 -0.5824
  707THF    H1310331   1.371   1.790   0.133  0.2365 -0.0517  0.2153
  708THF     O110332   0.182   1.253   0.016  0.1233 -0.3753  0.1209
  708THF     C210333   0.057   1.312   0.026  0.2824  0.3097  0.1074
  708THF     C310334   0.165   1.112   0.017  0.4146 -0.4726  0.3993
  708THF     H410335   0.061   1.416  -0.007 -0.2011  0.8390  1.6512
  708THF     H510336   0.023   1.312   0.129  0.2203 -0.7348  0.0923
  708THF     H610337   0.250   1.073  -0.040 -0.0127 -0.7589 -0.0562
  708THF     H710338   0.183   1.061   0.111  1.8130 -1.3278 -0.2907
  708THF     C810339   0.031   1.086  -0.051  0.2973  0.6350 -0.5150
  708THF     C910340  -0.017   1.229  -0.075  0.4435  0.4720  0.0495
  708THF    H1010341  -0.032   1.029   0.016  2.0561 -0.2137  0.5040
  708THF    H1110342   0.035   1.037  -0.148  2.2660 -0.8863  0.2547
  708THF    H1210343   0.005   1.263  -0.176  1.5218 -0.6055 -0.0979
  708THF    H1310344  -0.124   1.241  -0.056  0.6733  0.4229  1.4749
  709THF     O110345   1.767   2.082   1.591  0.0936 -0.6825  0.2335
  709THF     C210346   1.894   2.150   1.582  0.2984 -1.3122 -0.4585
  709THF     C310347   1.665   2.182   1.589 -0.3188  0.5264  0.4626
  709THF     H410348   1.916   2.194   1.485  1.3646 -0.4421  0.1552
  709THF     H510349   1.974   2.087   1.621  1.1340  0.2680  0.4754
  709THF     H610350   1.659   2.235   1.493 -0.0707  0.1278  0.2215
  709THF     H710351   1.565   2.145   1.610  0.3406 -0.9380  1.1791
  709THF     C810352   1.713   2.278   1.686 -0.0997  0.2316 -0.5186
  709THF     C910353   1.863   2.267   1.676  0.1848 -0.0340 -0.2901
  709THF    H1010354   1.678   2.257   1.787 -1.3216  0.0371 -0.9688
  709THF    H1110355   1.668   2.376   1.667 -3.1617 -0.9350  0.2240
  709THF    H1210356   1.905   2.361   1.640 -0.3295 -0.2491 -1.5065
  709THF    H1310357   1.914   2.254   1.771  1.5144 -0.4791 -1.0258
  710THF     O110358   3.313   1.800   5.336  0.0631  0.0229  0.5872
  710THF     C210359   3.316   1.755   5.201  0.9673 -0.3488 -0.1435
  710THF     C310360   3.245   1.700   5.395  0.0864 -0.0142  0.2198
  710THF     H410361   3.380   1.673   5.170  0.7094 -0.7326  0.3300
  710THF     H510362   3.351   1.834   5.134 -0.0149  0.2392  0.0078
  710THF     H610363   3.298   1.606   5.409  1.0208  0.5100  0.2610
  710THF     H710364   3.212   1.730   5.494  2.5497 -1.2964  1.5165
  710THF     C810365   3.123   1.685   5.303  0.0391 -1.0391 -0.2789
  710THF     C910366   3.174   1.714   5.165 -0.4786 -0.1355  0.1920
  710THF    H1010367   3.054   1.762   5.338 -1.0822 -2.3102  0.3708
  710THF    H1110368   3.064   1.594   5.313 -2.4571  0.4810 -0.3262
  710THF    H1210369   3.176   1.620   5.110  1.0610  0.8577 -1.5608
  710THF    H1310370   3.114   1.787   5.111 -0.7972 -0.1827  0.4822
  711THF     O110371   0.619   4.497   0.899  0.2835  0.4749  0.3914
  711THF     C210372   0.676   4.544   1.015 -0.0645  0.4228  0.1503
  711THF     C310373   0.686   4.575   0.794  0.5870 -0.4357 -0.7890
  711THF     H410374   0.748   4.470   1.049 -1.3771 -0.9775 -0.0098
  711THF     H510375   0.598   4.549   1.091  0.3813 -2.2353  0.8923
  711THF     H610376   0.776   4.520   0.767  1.0960 -0.5373  0.9777
  711THF     H710377   0.625   4.595   0.706  1.0541  0.6625 -0.8775
  711THF     C810378   0.720   4.710   0.845  0.9311 -0.0585 -0.1592
  711THF     C910379   0.732   4.686   0.992 -0.2581  0.4316 -0.7244
  711THF    H1010380   0.643   4.786   0.831  1.3400  1.0224  2.6854
  711THF    H1110381   0.814   4.744   0.804  1.5536  1.8607  2.5655
  711THF    H1210382   0.834   4.691   1.030 -0.1762  1.5595 -1.0508
  711THF    H1310383   0.673   4.756   1.052  0.8077 -0.1122  1.0419
  712THF     O110384   1.238   3.606   2.779  0.1411  0.1100  0.2632
  712THF     C210385   1.266   3.660   2.903  0.2510  0.0280  0.2447
  712THF     C310386   1.214   3.465   2.781 -0.2743 -0.2102  0.1467
  712THF     H410387   1.188   3.729   2.934  1.5932  0.5197  2.7971
  712THF     H510388   1.363   3.710   2.898 -0.4521  1.8880  2.8478
  712THF     H610389   1.116   3.434   2.818 -0.4843 -0.6664 -0.7816
  712THF     H710390   1.232   3.416   2.686  0.7189 -0.8914  0.6740
  712THF     C810391   1.318   3.425   2.887 -0.3256  0.1152 -0.0386
  712THF     C910392   1.287   3.524   2.987  0.3752  0.2028  0.4987
  712THF    H1010393   1.412   3.416   2.832 -0.3463 -0.9624  0.0779
  712THF    H1110394   1.303   3.322   2.919 -1.7214  0.3775  0.2185
  712THF    H1210395   1.193   3.498   3.034 -0.3882 -0.5093 -1.3109
  712THF    H1310396   1.354   3.528   3.072  0.6475 -0.6147  0.3257
  713THF     O110397   1.130   4.555   0.413  0.5984  0.4915 -0.0445
  713THF     C210398   1.217   4.636   0.349  0.2311  0.0871 -0.2558
  713THF     C310399   1.127   4.586   0.556 -0.0215 -0.1928 -0.3584
  713THF     H410400   1.161   4.665   0.260 -3.5662 -1.9184  1.2407
  713THF     H510401   1.301   4.571   0.324  1.3653 -0.5220  4.2911
  713THF     H610402   1.028   4.566   0.597 -0.4694  2.0430 -0.2471
  713THF     H710403   1.203   4.528   0.610 -1.8503 -1.4932  0.9283
  713THF     C810404   1.159   4.741   0.559  0.2432  0.3980  0.0724
  713THF     C910405   1.260   4.750   0.443  0.7283 -0.0096 -0.7395
  713THF    H1010406   1.203   4.774   0.653 -0.4788 -0.1850  0.6280
  713THF    H1110407   1.072   4.799   0.527 -0.0330 -0.8470 -1.5941
  713THF    H1210408   1.250   4.846   0.392 -0.6705 -1.2082 -2.8722
  713THF    H1310409   1.361   4.740   0.482  0.5933 -3.3317 -1.0044
  714THF     O110410   2.597   5.246   1.992  0.6811  0.0966 -0.0299
  714THF     C210411   2.476   5.309   2.041 -0.2569 -0.2099  0.4211
  714THF     C310412   2.704   5.338   2.008  0.2388 -0.1134 -0.5882
  714THF     H410413   2.415   5.245   2.105 -0.2412  0.2227  0.8756
  714THF     H510414   2.420   5.342   1.954  0.8236 -0.1491 -0.2727
  714THF     H610415   2.772   5.310   2.089  1.8289 -1.0529 -2.1810
  714THF     H710416   2.760   5.346   1.915 -0.6545  1.6203 -1.0245
  714THF     C810417   2.641   5.474   2.044 -1.3921  0.8836  0.3844
  714THF     C910418   2.524   5.429   2.121  0.1490  0.6300 -0.1476
  714THF    H1010419   2.600   5.509   1.949 -0.1980 -3.7910 -2.1706
  714THF    H1110420   2.713   5.550   2.075  2.6383 -0.9671 -3.3041
  714THF    H1210421   2.559   5.390   2.216  0.6655 -0.4342 -0.7566
  714THF    H1310422   2.442   5.500   2.130  0.1831  0.5770  0.6073
  715THF     O110423   1.089   0.152   5.148 -0.0407  0.1750  0.8831
  715THF     C210424   1.016   0.270   5.123  0.5161 -0.0096  0.6020
  715THF     C310425   1.166   0.129   5.025  0.3062  0.2953  0.0303
  715THF     H410426   1.064   0.352   5.176 -1.4151  0.3842  1.8398
  715THF     H510427   0.918   0.274   5.170  0.6325  2.2302  0.7407
  715THF     H610428   1.260   0.078   5.047  0.5519 -0.1994 -2.0114
  715THF     H710429   1.103   0.065   4.963  0.3178  0.2364  0.0789
  715THF     C810430   1.171   0.267   4.953 -0.3443  0.0075 -0.5693
  715THF     C910431   1.028   0.315   4.981  0.2028 -0.0008  0.0086
  715THF    H1010432   1.197   0.265   4.847  1.7259 -2.1906 -0.1073
  715THF    H1110433   1.239   0.339   4.998 -0.6588 -1.0094  1.7086
  715THF    H1210434   1.015   0.419   4.954 -3.5483 -0.4112 -0.3223
  715THF    H1310435   0.965   0.266   4.906  1.4300 -1.1871 -0.3015
  716THF     O110436   0.100   2.884   4.813  0.6506 -0.0215  0.2045
  716THF     C210437   0.032   3.009   4.804  0.5837  0.9839  0.0255
  716THF     C310438   0.132   2.844   4.678  0.3919  0.3807  0.5149
  716THF     H410439   0.091   3.101   4.806  1.7800  0.2293  0.5640
  716THF     H510440  -0.047   3.006   4.879 -1.1968 -1.0519 -1.7822
  716THF     H610441   0.240   2.841   4.664  0.3811 -1.0414  0.5681
  716THF     H710442   0.091   2.744   4.660 -0.1527  0.6701  0.1446
  716THF     C810443   0.058   2.939   4.589 -0.0225  0.5091  0.0447
  716THF     C910444  -0.042   3.017   4.674 -0.2911  0.9914 -0.1248
  716THF    H1010445   0.019   2.897   4.496 -0.1115  0.7317 -0.0203
  716THF    H1110446   0.134   3.010   4.555 -1.1672  1.8357  0.1742
  716THF    H1210447  -0.067   3.119   4.646 -1.8346  0.6757 -0.0042
  716THF    H1310448  -0.137   2.963   4.673 -0.4742  1.2777 -2.1243
  717THF     O110449   3.102   2.213   1.256 -0.2056 -0.2072  0.3243
  717THF     C210450   3.053   2.261   1.380 -0.0131 -0.0060  0.0219
  717THF     C310451   3.006   2.254   1.157 -1.1794 -0.1132 -0.5647
  717THF     H410452   3.074   2.368   1.378 -0.4105  0.0817  0.2744
  717THF     H510453   3.112   2.230   1.466  1.8263  1.1517 -0.7738
  717THF     H610454   3.027   2.359   1.138 -3.4002  0.3395 -0.7866
  717THF     H710455   3.013   2.187   1.071  0.0449 -0.9857  0.1800
  717THF     C810456   2.872   2.232   1.235  0.4607 -0.4223 -0.8684
  717THF     C910457   2.905   2.220   1.378 -0.1874 -0.1207  0.2592
  717THF    H1010458   2.822   2.143   1.197 -2.1114  0.2249  0.7616
  717THF    H1110459   2.799   2.311   1.218 -0.7774 -1.3618 -0.0072
  717THF    H1210460   2.843   2.285   1.439 -0.8254 -1.6358  1.2984
  717THF    H1310461   2.882   2.119   1.412  1.2427 -0.9433 -1.0805
  718THF     O110462   2.110   1.073   4.110  0.0529  0.7124  0.6005
  718THF     C210463   2.245   1.116   4.113  0.4941  0.6683  0.4837
  718THF     C310464   2.116   0.952   4.040  0.2637  0.5971  0.2241
  718THF     H410465   2.299   1.041   4.170 -0.1508 -0.6451 -0.5833
  718THF     H510466   2.254   1.219   4.149  1.8638  0.4707  0.7642
  718THF     H610467   2.141   0.871   4.108  0.8882  1.9064  1.5975
  718THF     H710468   2.019   0.927   3.996  0.2159  0.7767  0.2277
  718THF     C810469   2.212   0.977   3.924 -0.0624  0.1143  0.7557
  718THF     C910470   2.300   1.092   3.965  0.2025 -0.7192  0.6158
  718THF    H1010471   2.151   1.001   3.837 -0.6745  0.9671  1.3946
  718THF    H1110472   2.261   0.886   3.892  0.5636 -0.4526  3.1097
  718THF    H1210473   2.408   1.080   3.964  0.5190  1.6026 -0.1151
  718THF    H1310474   2.285   1.181   3.903 -0.1923 -0.5818  0.9017
  719THF     O110475   4.044   2.327   2.198 -1.0274 -0.0870  0.2842
  719THF     C210476   3.929   2.389   2.249  0.1929 -0.2432  0.0535
  719THF     C310477   4.020   2.292   2.057  0.3835  0.5186 -0.0698
  719THF     H410478   3.932   2.495   2.226  0.7451  0.3081  2.3690
  719THF     H510479   3.924   2.374   2.357  2.2818 -0.4026  0.1644
  719THF     H610480   4.021   2.377   1.988 -0.4607 -0.5206 -1.4336
  719THF     H710481   4.084   2.213   2.018  1.4498  0.7509  1.1507
  719THF     C810482   3.873   2.251   2.060 -0.3714 -0.3454 -0.6830
  719THF     C910483   3.813   2.327   2.171  0.5316  0.7761 -0.4012
  719THF    H1010484   3.856   2.143   2.056  0.7081 -0.5328 -0.3192
  719THF    H1110485   3.823   2.283   1.968 -1.6203  1.7945  0.6437
  719THF    H1210486   3.732   2.397   2.148 -1.0909 -1.4372 -1.7223
  719THF    H1310487   3.781   2.244   2.234  1.5985 -1.0470 -2.1797
  720THF     O110488   2.572   1.787   3.887 -0.4140  0.9136  0.5325
  720THF     C210489   2.491   1.668   3.916 -0.2828 -0.1272  0.1699
  720THF     C310490   2.583   1.802   3.745 -0.6956 -0.1845 -0.0674
  720THF     H410491   2.465   1.665   4.022 -1.3320  0.8093 -0.0411
  720THF     H510492   2.542   1.581   3.874  1.1137  0.9053 -0.3572
  720THF     H610493   2.572   1.907   3.716 -0.4054  0.2455  1.2948
  720THF     H710494   2.676   1.757   3.711 -1.8776 -2.1490 -0.9104
  720THF     C810495   2.467   1.734   3.683 -0.0552 -0.5025 -0.8278
  720THF     C910496   2.381   1.687   3.803 -0.7564  0.1849 -0.4768
  720THF    H1010497   2.495   1.650   3.619 -0.8987 -2.0696  0.7547
  720THF    H1110498   2.410   1.806   3.624 -0.4062 -0.0770  0.0129
  720THF    H1210499   2.310   1.767   3.825  0.6799  1.6398 -0.9076
  720THF    H1310500   2.321   1.598   3.789 -0.6784 -0.6487  3.4557
  721THF     O110501   2.111   5.077   2.794 -0.8543 -0.7257  0.6500
  721THF     C210502   2.210   4.977   2.768 -0.3380 -0.6363 -0.6919
  721THF     C310503   2.132   5.167   2.690  0.2232 -0.5186  0.2125
  721THF     H410504   2.180   4.907   2.690  0.5944 -0.2290 -1.4370
  721THF     H510505   2.220   4.920   2.860 -1.4105 -1.2340 -0.9309
  721THF     H610506   2.084   5.124   2.602  0.9367 -0.6902 -0.0967
  721THF     H710507   2.080   5.262   2.703  0.5747 -0.6281  2.7574
  721THF     C810508   2.283   5.190   2.682 -0.9176  0.3155 -0.3138
  721THF     C910509   2.337   5.059   2.727 -0.9543 -0.1169 -0.1215
  721THF    H1010510   2.308   5.269   2.753 -0.6715  0.6100 -0.7250
  721THF    H1110511   2.318   5.226   2.586 -0.2874  0.5829  0.0060
  721THF    H1210512   2.382   5.009   2.641 -1.0412 -5.2800  2.5031
  721THF    H1310513   2.397   5.076   2.816 -0.6888 -0.7728 -0.1736
  722THF     O110514   3.425   0.481   2.183  0.1842  0.6069 -0.7493
  722THF     C210515   3.305   0.510   2.110 -0.4154  0.5774 -0.2183
  722THF     C310516   3.525   0.464   2.079  0.4004 -1.0054 -0.5496
  722THF     H410517   3.277   0.615   2.105  0.0502  0.6433 -2.2183
  722THF     H510518   3.222   0.471   2.168  0.4725 -1.0353  0.0375
  722THF     H610519   3.557   0.563   2.049 -0.3264 -1.5963 -3.5757
  722THF     H710520   3.613   0.407   2.108  0.0570 -1.3387 -0.1343
  722THF     C810521   3.452   0.395   1.966  0.2528  0.1915 -0.4771
  722THF     C910522   3.315   0.458   1.972  0.7550 -0.7128  0.9775
  722THF    H1010523   3.454   0.292   2.001 -0.2223 -0.2546 -1.7229
  722THF    H1110524   3.496   0.416   1.869  1.6942 -1.8742 -0.3294
  722THF    H1210525   3.297   0.535   1.897 -1.5892 -2.0876 -0.0110
  722THF    H1310526   3.236   0.383   1.960 -1.4272  1.6601 -0.4946
  723THF     O110527   3.961   3.155   0.084 -0.1625 -0.3609 -0.6450
  723THF     C210528   3.881   3.198   0.188  0.0870 -0.0957 -0.2805
  723THF     C310529   3.929   3.024   0.058  0.0587  0.6078  0.7275
  723THF     H410530   3.878   3.307   0.189 -0.3780 -0.1006 -0.7301
  723THF     H510531   3.921   3.172   0.285 -0.8080 -0.1594  0.0795
  723THF     H610532   3.963   2.984  -0.038 -0.1904  0.9334  0.5034
  723THF     H710533   3.972   2.964   0.138  0.6902  1.0860  0.7559
  723THF     C810534   3.774   3.018   0.073  0.1017  1.0676  0.5465
  723THF     C910535   3.745   3.143   0.162 -0.4361  0.6624 -0.8419
  723THF    H1010536   3.752   2.924   0.123  1.9005 -0.2593 -0.9936
  723THF    H1110537   3.718   3.022  -0.020  0.6081  2.2037  0.2702
  723THF    H1210538   3.683   3.213   0.104 -1.5708  2.4419  2.2464
  723THF    H1310539   3.694   3.124   0.256  1.4172 -0.9554 -0.1203
  724THF     O110540   3.418   2.287   0.897 -0.1871 -0.5110 -0.4050
  724THF     C210541   3.511   2.275   1.000  0.3492 -0.7353  0.9294
  724THF     C310542   3.356   2.160   0.868  0.0092  0.5249 -0.0219
  724THF     H410543   3.496   2.360   1.066 -0.7609 -0.1380 -0.0612
  724THF     H510544   3.617   2.286   0.975  0.5372 -0.2950  1.8830
  724THF     H610545   3.254   2.168   0.828  0.3026 -0.4666 -1.0287
  724THF     H710546   3.417   2.101   0.800  0.6238  0.9512  0.1568
  724THF     C810547   3.356   2.099   1.011  0.3340 -0.1793  0.0601
  724THF     C910548   3.489   2.141   1.064  0.4004  0.3221 -1.2166
  724THF    H1010549   3.337   1.991   1.011 -2.2850  0.2133  0.4147
  724THF    H1110550   3.279   2.144   1.073 -2.8137 -2.9186 -1.5604
  724THF    H1210551   3.511   2.133   1.170  1.2183 -0.9456 -1.4565
  724THF    H1310552   3.571   2.079   1.028  1.2430  0.8368 -0.2215
  725THF     O110553   5.280   1.684   0.302 -0.0591 -0.2836 -1.0918
  725THF     C210554   5.394   1.758   0.282  0.0918 -0.3086 -0.5593
  725THF     C310555   5.310   1.545   0.317 -0.0717 -0.0449  0.3126
  725THF     H410556   5.394   1.858   0.326  0.2380 -1.4194  2.1770
  725THF     H510557   5.415   1.762   0.175 -3.1445 -0.8387 -1.3317
  725THF     H610558   5.237   1.496   0.383 -0.8086  1.5397  0.7201
  725THF     H710559   5.289   1.505   0.218  0.3813 -0.5100  0.4013
  725THF     C810560   5.459   1.533   0.345 -0.1905  0.3949  0.6023
  725THF     C910561   5.495   1.680   0.362 -0.1316  0.1074  0.0674
  725THF    H1010562   5.525   1.505   0.262  0.6380  0.2123  1.3069
  725THF    H1110563   5.479   1.467   0.429  0.1855 -2.2862 -1.4400
  725THF    H1210564   5.492   1.709   0.467 -0.7894 -0.4850  0.2231
  725THF    H1310565   5.590   1.702   0.314 -1.3727  1.1110 -2.0623
  726THF     O110566   2.600   0.592   2.563  0.6385  0.2338  0.7022
  726THF     C210567   2.591   0.610   2.423  1.1306 -0.0292  0.0880
  726THF     C310568   2.736   0.619   2.594 -0.7390 -0.2123  0.5817
  726THF     H410569   2.576   0.717   2.408  0.6185  0.3742  2.9505
  726THF     H510570   2.507   0.553   2.385  0.1881  1.6137 -0.3937
  726THF     H610571   2.747   0.728   2.596 -0.3748 -0.2425  2.6034
  726THF     H710572   2.781   0.599   2.691  2.8564  2.8194 -0.2304
  726THF     C810573   2.807   0.539   2.482  0.0371 -0.0603 -0.4314
  726THF     C910574   2.725   0.560   2.361  0.6199 -0.5614  0.1694
  726THF    H1010575   2.818   0.435   2.513 -0.1549  0.1671  0.4148
  726THF    H1110576   2.909   0.565   2.453 -0.2652 -0.4688 -1.9885
  726THF    H1210577   2.767   0.638   2.297 -1.2660  1.0615  0.8179
  726THF    H1310578   2.712   0.466   2.308  1.2221  1.3055 -3.6649
  727THF     O110579   0.844   2.475   2.689 -0.1523  0.3405  0.3277
  727THF     C210580   0.886   2.409   2.804  0.3339 -0.0031 -0.4294
  727THF     C310581   0.702   2.501   2.696  0.0535 -0.0229  0.8388
  727THF     H410582   0.884   2.482   2.885 -0.6510 -0.7560  0.2537
  727THF     H510583   0.988   2.375   2.784  0.9303  1.4926 -0.0912
  727THF     H610584   0.678   2.574   2.773 -2.5908  1.5213 -1.2563
  727THF     H710585   0.666   2.532   2.598  0.7763 -0.6541  0.3621
  727THF     C810586   0.651   2.376   2.746 -0.4525  0.3382 -0.5965
  727THF     C910587   0.769   2.311   2.811 -0.0764  0.1691  0.0850
  727THF    H1010588   0.628   2.312   2.661 -0.5396 -0.1036 -0.2458
  727THF    H1110589   0.572   2.387   2.821 -1.9403 -2.1241 -1.6576
  727THF    H1210590   0.756   2.269   2.910  0.3435 -2.6743 -0.9588
  727THF    H1310591   0.784   2.223   2.748  0.8378 -0.8604  1.6753
  728THF     O110592   2.098   0.373   3.031 -0.0716  0.2626  0.2727
  728THF     C210593   2.232   0.439   3.010  0.2036 -0.3305 -0.0737
  728THF     C310594   2.006   0.475   3.043 -0.0633 -0.3433 -0.0549
  728THF     H410595   2.226   0.472   2.906 -0.2222 -0.5266 -0.1159
  728THF     H510596   2.308   0.363   3.027 -1.7635 -2.6492 -1.0184
  728THF     H610597   1.956   0.503   2.950 -0.7017  1.0534  0.6728
  728THF     H710598   1.931   0.438   3.113  0.3919  0.1654  0.7223
  728THF     C810599   2.083   0.592   3.100  0.7161  0.0231 -0.1467
  728THF     C910600   2.235   0.561   3.100  0.2744  0.4396 -0.1500
  728THF    H1010601   2.042   0.602   3.201  2.9640 -0.5288  0.8847
  728THF    H1110602   2.072   0.687   3.047  1.1004 -0.2664 -0.7548
  728THF    H1210603   2.307   0.633   3.060 -0.2904  0.8239 -0.4889
  728THF    H1310604   2.257   0.527   3.201 -0.5047  0.5526  0.0641
  729THF     O110605   3.205   1.874   4.234  0.8537  0.6349 -0.6235
  729THF     C210606   3.306   1.799   4.171 -0.0049  0.4568  0.6200
  729THF     C310607   3.242   1.911   4.366  0.0108  0.3471  0.1244
  729THF     H410608   3.312   1.817   4.064  0.9165  1.5724  0.8308
  729THF     H510609   3.291   1.695   4.199 -1.3455  0.7912  1.2454
  729THF     H610610   3.189   2.000   4.399  1.1411  0.4026  1.9104
  729THF     H710611   3.210   1.834   4.436  0.8904 -0.4052 -0.2789
  729THF     C810612   3.397   1.934   4.363 -0.8661  0.0142 -0.1955
  729THF     C910613   3.434   1.851   4.238 -0.1900  0.0734  0.0066
  729THF    H1010614   3.444   1.897   4.454 -2.2407  0.6219  0.8036
  729THF    H1110615   3.422   2.040   4.363  1.5452 -0.4344  1.9612
  729THF    H1210616   3.500   1.913   4.178  1.4504  1.1597  2.7284
  729THF    H1310617   3.486   1.758   4.259 -1.0819 -1.4073 -3.7286
  730THF     O110618   2.278   1.182   3.617 -0.4092 -0.8940 -0.6262
  730THF     C210619   2.337   1.311   3.615  0.3740 -0.5111 -0.4095
  730THF     C310620   2.378   1.084   3.589  0.3248 -0.7026  0.4793
  730THF     H410621   2.285   1.380   3.681  3.1474  0.4023  0.9771
  730THF     H510622   2.343   1.362   3.519 -2.5523  1.3068  0.2369
  730THF     H610623   2.350   0.998   3.650  1.5385  0.3502  2.6800
  730THF     H710624   2.395   1.071   3.483  0.4683 -0.6618  0.4965
  730THF     C810625   2.505   1.130   3.665  0.1143 -0.3457  0.0949
  730THF     C910626   2.479   1.280   3.673 -0.0472 -0.3413 -0.1542
  730THF    H1010627   2.601   1.115   3.616 -0.5127 -1.8135 -0.7525
  730THF    H1110628   2.512   1.084   3.763  0.5622  0.8255  0.6282
  730THF    H1210629   2.481   1.292   3.782  2.0515  0.1365 -0.2003
  730THF    H1310630   2.557   1.346   3.635 -0.1753 -0.4395 -0.5895
  731THF     O110631   3.229   4.603   2.397  0.2783  0.8636  0.0040
  731THF     C210632   3.366   4.604   2.352 -0.0531 -0.0698  0.3640
  731THF     C310633   3.201   4.473   2.449 -0.3091 -1.1646  0.3188
  731THF     H410634   3.423   4.682   2.403 -0.1695  1.2456 -1.4242
  731THF     H510635   3.368   4.624   2.245  2.6424 -0.6015  0.2484
  731THF     H610636   3.130   4.495   2.529 -1.2494 -0.9211 -0.5609
  731THF     H710637   3.147   4.409   2.380 -0.6597  0.8107 -1.3457
  731THF     C810638   3.343   4.420   2.496  0.4828 -0.0620  0.0141
  731THF     C910639   3.427   4.466   2.373  0.4009 -0.1138 -0.1817
  731THF    H1010640   3.351   4.312   2.512 -0.4771  0.0501  1.3503
  731THF    H1110641   3.363   4.465   2.593  0.2271 -0.1243  0.0973
  731THF    H1210642   3.535   4.465   2.388  0.3533  1.0974  0.2977
  731THF    H1310643   3.415   4.402   2.285 -1.4656  0.4507 -0.3781
  732THF     O110644   5.327   4.630   3.002 -0.4704 -0.0578  0.4125
  732THF     C210645   5.370   4.497   2.982 -0.1953 -0.0431  0.2263
  732THF     C310646   5.420   4.713   2.939  0.1558  0.4006 -0.4975
  732THF     H410647   5.293   4.421   2.995  0.8865 -1.4879 -1.3239
  732THF     H510648   5.445   4.481   3.060  0.3194 -2.2052 -0.6534
  732THF     H610649   5.378   4.810   2.915  1.0574  0.4923 -1.8171
  732THF     H710650   5.502   4.722   3.010  0.3624 -1.2057 -0.4864
  732THF     C810651   5.475   4.641   2.814 -0.7638  0.1369  0.2787
  732THF     C910652   5.434   4.497   2.841 -0.8123 -0.0895 -0.1529
  732THF    H1010653   5.584   4.630   2.809 -0.9583 -1.4058 -0.9839
  732THF    H1110654   5.437   4.675   2.718 -1.0278  0.4574  0.4960
  732THF    H1210655   5.358   4.466   2.769 -0.2729 -1.4358 -0.1686
  732THF    H1310656   5.514   4.423   2.836  1.4485  2.2635 -0.8403
  733THF     O110657   3.651   0.614   3.467 -0.0852  0.1647  0.5851
  733THF     C210658   3.765   0.630   3.542 -0.0495 -0.0065 -0.5398
  733THF     C310659   3.547   0.569   3.552  0.4658  0.2118 -0.6832
  733THF     H410660   3.823   0.702   3.484  2.3985 -2.4274 -1.3043
  733THF     H510661   3.827   0.544   3.565  2.4532  1.1717 -2.3904
  733THF     H610662   3.447   0.566   3.509 -0.1341  0.7913  0.6248
  733THF     H710663   3.578   0.472   3.592  3.5971  0.6732 -1.7465
  733THF     C810664   3.556   0.670   3.658 -0.1184 -0.6827 -0.2143
  733THF     C910665   3.709   0.698   3.670 -0.1417  0.5372 -0.5325
  733THF    H1010666   3.514   0.631   3.750 -1.1258 -0.1596 -0.4368
  733THF    H1110667   3.494   0.752   3.623 -0.2287 -0.2481  0.9690
  733THF    H1210668   3.745   0.801   3.666  1.8093 -0.0385  0.8695
  733THF    H1310669   3.748   0.647   3.758 -2.3059 -0.3582 -0.0167
  734THF     O110670   1.972   0.365   1.692  0.4018  0.1599 -0.4752
  734THF     C210671   2.109   0.330   1.692  0.3179 -0.0166 -0.2349
  734THF     C310672   1.959   0.485   1.618 -0.4628 -0.0089 -0.4921
  734THF     H410673   2.134   0.231   1.730  4.5856  1.0815  0.3436
  734THF     H510674   2.161   0.389   1.766 -0.4201 -0.1165  0.3732
  734THF     H610675   1.852   0.494   1.598 -1.3100 -2.6057  2.1823
  734THF     H710676   1.993   0.573   1.672 -1.3656  0.8050 -1.2236
  734THF     C810677   2.053   0.463   1.496  0.0093 -0.3044  0.5521
  734THF     C910678   2.128   0.335   1.537  0.7148 -0.4876 -0.5004
  734THF    H1010679   2.119   0.550   1.496 -0.3327 -0.0071 -0.9678
  734THF    H1110680   2.017   0.461   1.393 -1.6918 -1.2587  1.1241
  734THF    H1210681   2.087   0.248   1.486 -0.0864  0.9325 -2.3941
  734THF    H1310682   2.229   0.335   1.496  0.3582  1.0312 -1.4756
  735THF     O110683   0.725   0.365   0.325  0.1921  0.7608  0.3036
  735THF     C210684   0.852   0.390   0.374 -0.1791 -0.6012  0.4641
  735THF     C310685   0.636   0.459   0.376  0.1112 -0.1967 -0.4536
  735THF     H410686   0.923   0.331   0.316 -0.9053  0.5219 -1.6445
  735THF     H510687   0.857   0.360   0.479 -1.8750 -1.0512  0.4575
  735THF     H610688   0.537   0.461   0.331 -0.5959  0.8899  1.0672
  735THF     H710689   0.610   0.426   0.476  0.3818 -1.6116 -0.8276
  735THF     C810690   0.714   0.590   0.377 -0.1468  0.0027  0.4377
  735THF     C910691   0.859   0.545   0.360  0.1129  0.5250  0.1098
  735THF    H1010692   0.693   0.639   0.472 -2.6357 -0.3821  0.1503
  735THF    H1110693   0.685   0.661   0.300 -0.7739 -1.0108 -0.2828
  735THF    H1210694   0.899   0.583   0.266  1.1284 -0.4360  0.1297
  735THF    H1310695   0.921   0.593   0.435 -0.0994 -1.0481  1.3423
  736THF     O110696   1.939   3.674   1.884  0.0198  0.5268 -0.4789
  736THF     C210697   1.808   3.698   1.825 -0.8812 -0.1390 -0.0634
  736THF     C310698   1.925   3.563   1.967 -0.3941 -0.6186 -0.5888
  736THF     H410699   1.799   3.631   1.739 -1.2899  1.8624 -1.6619
  736THF     H510700   1.809   3.800   1.787 -0.8458 -0.1483 -0.0880
  736THF     H610701   1.921   3.472   1.908 -0.0530 -0.1741 -1.3164
  736THF     H710702   2.002   3.552   2.044  0.3441  3.3271 -0.5251
  736THF     C810703   1.793   3.596   2.033  0.0686  0.2257 -0.2925
  736THF     C910704   1.711   3.683   1.936 -0.4368  0.5176 -0.7011
  736THF    H1010705   1.809   3.643   2.131 -1.4870  1.1720 -0.4482
  736THF    H1110706   1.740   3.501   2.042 -0.2097  0.3709 -0.3672
  736THF    H1210707   1.619   3.629   1.914 -2.3800  0.7680  5.0655
  736THF    H1310708   1.676   3.780   1.971  2.3669  0.7918  1.6799
  737THF     O110709   4.731   3.229   4.855 -0.3898 -0.4435 -0.0120
  737THF     C210710   4.850   3.195   4.919 -0.8543  0.2122  0.7208
  737THF     C310711   4.712   3.167   4.737  0.1506 -0.3669 -0.3037
  737THF     H410712   4.831   3.211   5.025 -1.6569  1.4409  0.4244
  737THF     H510713   4.927   3.264   4.884 -1.6900  0.0283 -1.6911
  737THF     H610714   4.606   3.159   4.714  0.3305 -3.4809 -0.5192
  737THF     H710715   4.764   3.208   4.650  0.5512 -0.5850 -0.1739
  737THF     C810716   4.775   3.025   4.761 -0.0822  0.6554 -0.1397
  737THF     C910717   4.886   3.054   4.858 -0.0511 -0.8520 -0.8319
  737THF    H1010718   4.795   2.967   4.671  1.7919  0.5133  0.3192
  737THF    H1110719   4.698   2.966   4.810  0.6692  0.4671  0.8532
  737THF    H1210720   4.875   2.981   4.938 -0.1888 -0.0516 -0.0991
  737THF    H1310721   4.990   3.044   4.829  0.6545  1.7832  0.4341
  738THF     O110722   2.585   0.213   3.398 -0.1558  0.4018  0.0483
  738THF     C210723   2.570   0.251   3.531  0.9473 -0.4228 -0.8203
  738THF     C310724   2.641   0.321   3.319  0.8546  0.2132  0.3055
  738THF     H410725   2.585   0.184   3.616  1.0957 -0.6747 -1.0441
  738THF     H510726   2.466   0.286   3.534  0.5152 -1.5824 -1.7462
  738THF     H610727   2.739   0.290   3.283  0.8251  0.0214  0.3874
  738THF     H710728   2.571   0.334   3.237 -0.5675 -1.6732  1.1527
  738THF     C810729   2.654   0.439   3.413 -0.1047  0.5416 -0.3347
  738THF     C910730   2.651   0.379   3.550  0.1875 -0.8475 -0.1524
  738THF    H1010731   2.564   0.499   3.398 -0.8443 -1.0105 -2.6382
  738THF    H1110732   2.737   0.509   3.399  0.8648  0.0436  2.4412
  738THF    H1210733   2.751   0.360   3.589 -0.6643 -1.5913  1.7883
  738THF    H1310734   2.605   0.453   3.615  3.0531  1.1280 -0.2061
  739THF     O110735   4.321   3.287   0.591 -0.3142  0.2019 -0.0636
  739THF     C210736   4.233   3.274   0.483 -0.0249 -0.1461 -0.0769
  739THF     C310737   4.364   3.421   0.601  0.2340  0.8074  0.9940
  739THF     H410738   4.147   3.210   0.500  0.9649 -1.7132 -0.7325
  739THF     H510739   4.271   3.233   0.389 -2.0309 -0.8415 -0.6333
  739THF     H610740   4.406   3.444   0.699  1.9069 -2.2982  1.1350
  739THF     H710741   4.451   3.434   0.538  0.6040  0.1704  1.3584
  739THF     C810742   4.240   3.504   0.568  0.1364 -0.0112 -0.3134
  739THF     C910743   4.189   3.419   0.458 -0.1014  0.6969 -0.3136
  739THF    H1010744   4.263   3.608   0.544 -0.8873  0.6923  1.5543
  739THF    H1110745   4.177   3.517   0.656 -1.0507  2.2958 -1.4252
  739THF    H1210746   4.081   3.433   0.467 -0.2123  0.0339 -0.5536
  739THF    H1310747   4.216   3.451   0.357 -1.9091  0.0205 -1.0524
  740THF     O110748   5.017   3.074   4.155  0.9665 -0.4565  0.2300
  740THF     C210749   5.047   3.017   4.283 -0.1326 -0.0620  0.1896
  740THF     C310750   5.045   2.973   4.059  0.5452  0.0242 -0.6079
  740THF     H410751   4.968   2.948   4.314  0.3378 -0.9660 -0.5815
  740THF     H510752   5.062   3.102   4.350 -1.6038  2.4283 -2.4395
  740THF     H610753   4.951   2.919   4.044  0.4688 -0.7322  2.0020
  740THF     H710754   5.078   3.017   3.965  1.5182 -1.2409 -0.8804
  740THF     C810755   5.156   2.884   4.119  0.1625 -0.3248 -0.6009
  740THF     C910756   5.172   2.931   4.263  0.7833 -0.0970  0.2945
  740THF    H1010757   5.256   2.895   4.077  1.1541  0.5167  1.7691
  740THF    H1110758   5.126   2.780   4.110  0.3125 -0.8484  3.2485
  740THF    H1210759   5.187   2.847   4.332  1.6193  0.5005  0.8564
  740THF    H1310760   5.263   2.990   4.269  0.2580  0.8803 -0.9559
  741THF     O110761   4.802   0.089   1.628 -0.2511  0.2509  0.0385
  741THF     C210762   4.905  -0.015   1.634 -0.5695  0.6540 -0.3017
  741THF     C310763   4.739   0.078   1.499  0.2625 -0.3824  0.5981
  741THF     H410764   4.869  -0.093   1.701 -0.2069  0.6176 -0.1457
  741THF     H510765   4.998   0.023   1.677 -0.3571  1.3070 -1.3080
  741THF     H610766   4.652   0.013   1.508  0.1509 -0.4754 -0.8418
  741THF     H710767   4.685   0.163   1.458  2.9620  1.0346 -0.2778
  741THF     C810768   4.855   0.043   1.408 -0.5446  0.0125  0.2568
  741THF     C910769   4.920  -0.073   1.492  0.3701  0.2614 -0.4437
  741THF    H1010770   4.919   0.130   1.394  0.1966 -0.5384  0.1647
  741THF    H1110771   4.822   0.004   1.312  0.5107  0.8361 -0.4606
  741THF    H1210772   4.861  -0.164   1.487  0.9346 -0.0633 -1.5087
  741THF    H1310773   5.022  -0.096   1.459  0.2433 -1.4480  0.2586
  742THF     O110774   1.768   0.436   4.432  0.5169 -0.3365 -0.1425
  742THF     C210775   1.710   0.346   4.533  0.1689 -0.4289  0.6825
  742THF     C310776   1.862   0.511   4.508  0.0672 -0.1343  0.6582
  742THF     H410777   1.655   0.260   4.495  1.7328 -0.2813 -2.1953
  742THF     H510778   1.647   0.402   4.601  0.8740  1.3237 -0.0469
  742THF     H610779   1.920   0.574   4.441 -1.2443 -0.9721 -1.3805
  742THF     H710780   1.810   0.575   4.579 -2.8537  0.1512 -1.5370
  742THF     C810781   1.946   0.398   4.565  0.2959  0.0788  0.3522
  742THF     C910782   1.834   0.305   4.615  0.0334 -0.3417  0.4058
  742THF    H1010783   2.017   0.435   4.639  1.4851 -1.0681 -0.1757
  742THF    H1110784   2.005   0.364   4.479 -0.3167 -1.6628  0.5780
  742THF    H1210785   1.855   0.198   4.604  0.2857 -0.2755  0.2283
  742THF    H1310786   1.811   0.328   4.719 -1.8026  0.0745 -0.0661
  743THF     O110787   0.578   2.686   0.535 -0.2894  0.0749 -0.6141
  743THF     C210788   0.584   2.642   0.398  0.6343  0.2184 -0.2895
  743THF     C310789   0.539   2.825   0.528 -1.0125 -0.0146  0.3009
  743THF     H410790   0.486   2.607   0.365  0.9306 -1.5405  0.5837
  743THF     H510791   0.651   2.558   0.378  2.1637  0.9033  1.6961
  743THF     H610792   0.433   2.843   0.512 -0.7729  1.1941 -0.0752
  743THF     H710793   0.566   2.857   0.629 -0.2667 -2.3331  0.8852
  743THF     C810794   0.624   2.880   0.418 -0.0133 -0.1856 -0.3018
  743THF     C910795   0.628   2.766   0.316  0.1698 -0.1997  0.1140
  743THF    H1010796   0.723   2.875   0.463  0.6144 -0.2584 -1.6320
  743THF    H1110797   0.591   2.974   0.374 -0.1146  0.4186  1.0220
  743THF    H1210798   0.562   2.782   0.230 -1.8884  0.9354  1.8343
  743THF    H1310799   0.730   2.750   0.280 -0.2586  0.3496 -1.4655
  744THF     O110800   1.905   5.386   0.703 -0.7531 -0.6538  0.4461
  744THF     C210801   1.832   5.316   0.806 -0.4963  0.3368  0.3840
  744THF     C310802   1.870   5.327   0.578 -0.7061  0.9074  0.1053
  744THF     H410803   1.727   5.345   0.813 -1.6566 -3.4092  0.4947
  744THF     H510804   1.880   5.318   0.904 -1.1067 -0.3087  0.6996
  744THF     H610805   1.775   5.359   0.536 -1.3300 -0.6693  0.2550
  744THF     H710806   1.951   5.356   0.511  0.8902  1.9243  2.3202
  744THF     C810807   1.876   5.179   0.603 -0.5292  0.3084  0.0773
  744THF     C910808   1.841   5.168   0.752 -0.6662 -0.1502 -0.0875
  744THF    H1010809   1.970   5.130   0.579  0.3652  2.0725 -0.1867
  744THF    H1110810   1.803   5.123   0.544 -2.1016  0.2774  1.9191
  744THF    H1210811   1.746   5.116   0.768 -1.5208  1.1752 -0.6566
  744THF    H1310812   1.912   5.112   0.813  0.9560  2.7825  0.9439
  745THF     O110813   2.911   2.130   4.000  0.3214  0.7007 -0.4340
  745THF     C210814   2.896   1.990   4.045  0.2017 -0.2487  0.1211
  745THF     C310815   2.877   2.212   4.103 -0.3645  0.6110  0.5377
  745THF     H410816   2.980   1.936   4.001  0.1483 -1.2375  1.1936
  745THF     H510817   2.809   1.948   3.994 -0.3907  3.0285 -1.8415
  745THF     H610818   2.918   2.311   4.086 -1.4404  1.0478  0.4146
  745THF     H710819   2.770   2.227   4.113  0.0981  3.3636  2.0798
  745THF     C810820   2.928   2.134   4.224 -0.1680 -0.1764 -0.1687
  745THF     C910821   2.889   1.996   4.196  0.3717  0.2648  0.3078
  745THF    H1010822   2.889   2.158   4.322  2.0370 -1.5258  1.1331
  745THF    H1110823   3.036   2.142   4.233 -0.3570  0.2744  2.3853
  745THF    H1210824   2.955   1.918   4.234 -0.3692 -0.3475  0.3452
  745THF    H1310825   2.786   1.987   4.231  0.4632  0.6779  0.6838
  746THF     O110826   0.947   0.909   3.326  0.0685  0.8892  0.8048
  746THF     C210827   0.818   0.869   3.370 -0.3491  0.0388 -0.2022
  746THF     C310828   1.042   0.830   3.400  0.0182  0.2993 -0.7731
  746THF     H410829   0.775   0.784   3.318 -1.3829 -0.4947  1.4438
  746THF     H510830   0.754   0.956   3.351 -0.3153 -0.0321 -0.6422
  746THF     H610831   1.066   0.732   3.359  2.5418  0.9777 -1.0459
  746THF     H710832   1.132   0.891   3.403  1.5643 -1.9017  1.5927
  746THF     C810833   0.975   0.795   3.535 -0.2169 -0.1477 -0.0712
  746THF     C910834   0.833   0.858   3.526 -0.4247  0.2142 -0.1562
  746THF    H1010835   1.036   0.842   3.611  0.7104 -0.1094 -0.8237
  746THF    H1110836   0.963   0.687   3.535  1.3121 -0.3384 -1.0122
  746THF    H1210837   0.755   0.805   3.580 -0.0705 -0.3435 -0.1942
  746THF    H1310838   0.816   0.955   3.573 -0.4080  0.2316 -0.1862
  747THF     O110839   2.830   4.591   0.418  0.6110 -0.1770  0.8502
  747THF     C210840   2.946   4.605   0.345  0.8111  0.2809 -0.4917
  747THF     C310841   2.849   4.675   0.532  0.2076 -0.2909  0.2113
  747THF     H410842   2.951   4.697   0.287 -2.2749  0.1619 -1.1180
  747THF     H510843   2.957   4.529   0.267  0.5864  0.8101 -1.0438
  747THF     H610844   2.870   4.780   0.508  2.6882 -0.5574  0.9428
  747THF     H710845   2.771   4.679   0.608  1.8588  0.7850  1.9331
  747THF     C810846   2.978   4.621   0.582 -0.0989 -0.2799  0.1057
  747THF     C910847   3.051   4.584   0.453  0.0963  0.3911  0.2256
  747THF    H1010848   2.955   4.528   0.636  0.8573 -0.6273 -0.0554
  747THF    H1110849   3.022   4.685   0.659 -1.2575  0.0734  0.4974
  747THF    H1210850   3.124   4.663   0.432  0.4124 -0.2056 -1.0246
  747THF    H1310851   3.113   4.494   0.459  0.4945  0.5958 -0.6557
  748THF     O110852   5.231   0.657   4.134 -0.0593 -0.4023 -0.0316
  748THF     C210853   5.352   0.582   4.155  0.8653 -0.2275 -0.3956
  748THF     C310854   5.198   0.721   4.259  0.4686  0.2135 -0.4008
  748THF     H410855   5.430   0.657   4.164  1.3357 -0.8459  1.0520
  748THF     H510856   5.385   0.520   4.072  1.4679 -1.5594  0.8027
  748THF     H610857   5.259   0.810   4.275 -1.5429  1.4137  1.0509
  748THF     H710858   5.095   0.754   4.268  0.0153 -0.7356 -1.7479
  748THF     C810859   5.237   0.616   4.366  0.4833 -0.2673  0.4141
  748THF     C910860   5.326   0.516   4.291  0.3210 -0.0781 -0.5568
  748THF    H1010861   5.151   0.572   4.415  0.1545  1.6281  1.6623
  748THF    H1110862   5.284   0.671   4.448 -1.1392  1.5310  0.1957
  748THF    H1210863   5.421   0.489   4.337  0.1219  0.8117  0.4152
  748THF    H1310864   5.271   0.423   4.281  1.4801 -0.9058  0.4461
  749THF     O110865   4.695   2.699   2.989  0.1493  0.3239  0.1187
  749THF     C210866   4.685   2.608   2.880 -0.1848 -0.6082 -0.1028
  749THF     C310867   4.828   2.743   2.989  0.1654 -0.1966  0.4773
  749THF     H410868   4.685   2.661   2.785  0.2224  2.0826  1.2868
  749THF     H510869   4.604   2.536   2.871 -0.3568 -0.2480 -1.9005
  749THF     H610870   4.856   2.801   2.901  3.4288 -1.8474  0.2725
  749THF     H710871   4.862   2.810   3.067  1.0218  2.3518 -1.9041
  749THF     C810872   4.910   2.620   2.976  0.7772  1.0348  0.2471
  749THF     C910873   4.818   2.534   2.894  0.4269 -0.1387  0.5193
  749THF    H1010874   4.915   2.578   3.076 -3.5750 -0.3781  0.0930
  749THF    H1110875   5.009   2.632   2.931  1.7942 -2.3313  1.2938
  749THF    H1210876   4.852   2.491   2.800 -0.0443  0.0905  0.2378
  749THF    H1310877   4.799   2.443   2.952 -2.1435 -0.3135 -0.4471
  750THF     O110878   3.484   1.289   2.809 -0.1084  0.0948  0.0299
  750THF     C210879   3.534   1.221   2.695  0.0874  0.1251  0.6863
  750THF     C310880   3.360   1.227   2.847  0.5516 -0.3196 -0.0243
  750THF     H410881   3.642   1.229   2.683  0.2705  1.5308  2.7432
  750THF     H510882   3.483   1.277   2.616 -0.0340 -1.1690 -0.1906
  750THF     H610883   3.346   1.251   2.953 -0.1463  1.0359 -0.4036
  750THF     H710884   3.274   1.256   2.787 -0.5522  0.2656  1.7562
  750THF     C810885   3.399   1.080   2.842 -0.1340 -0.3706  0.5253
  750THF     C910886   3.477   1.079   2.712  0.1786 -0.3239 -0.3685
  750THF    H1010887   3.317   1.008   2.841 -1.6236  1.2180  1.8744
  750THF    H1110888   3.462   1.065   2.930  1.3869 -0.6221 -0.5689
  750THF    H1210889   3.556   1.010   2.740  2.1774  2.2870  0.8493
  750THF    H1310890   3.409   1.047   2.633 -0.5865  0.2813  0.0355
  751THF     O110891   0.536   2.720   2.199  0.1177 -0.4563  0.2086
  751THF     C210892   0.594   2.625   2.285 -0.0939  0.8368 -0.8114
  751THF     C310893   0.630   2.746   2.097  0.5278 -0.4545 -0.2482
  751THF     H410894   0.584   2.526   2.242  0.1195  0.1830  0.6008
  751THF     H510895   0.536   2.627   2.377  0.8766 -1.7868 -0.0662
  751THF     H610896   0.636   2.659   2.032 -4.2250  0.0761 -1.7994
  751THF     H710897   0.604   2.833   2.037 -0.0214 -1.8111 -2.0500
  751THF     C810898   0.750   2.764   2.183 -0.4147 -0.4092  0.0440
  751THF     C910899   0.742   2.665   2.297 -0.4844  0.1083 -0.1075
  751THF    H1010900   0.742   2.864   2.224  1.1736  0.0931 -0.8111
  751THF    H1110901   0.841   2.773   2.125 -0.9367  1.2364 -0.5850
  751THF    H1210902   0.808   2.579   2.303  0.9914  1.2679  1.6252
  751THF    H1310903   0.773   2.708   2.393  1.7992 -1.4869 -0.0565
  752THF     O110904   1.555   2.674   3.259 -0.4787 -0.2073  0.7632
  752THF     C210905   1.657   2.579   3.293  0.2176  0.7627  1.0811
  752THF     C310906   1.617   2.804   3.260 -0.4987  0.1918 -0.3758
  752THF     H410907   1.704   2.562   3.196 -1.5134  0.3856  0.2632
  752THF     H510908   1.609   2.484   3.320  0.1397  0.3589 -0.3781
  752THF     H610909   1.646   2.838   3.160 -3.5260 -0.2258 -1.5157
  752THF     H710910   1.543   2.877   3.292 -1.2704 -0.4716 -0.6328
  752THF     C810911   1.737   2.792   3.362 -0.7892 -0.3340 -0.5862
  752THF     C910912   1.760   2.644   3.388  0.0310 -0.5960 -0.2163
  752THF    H1010913   1.728   2.855   3.450  0.8674 -1.5726  0.5349
  752THF    H1110914   1.823   2.836   3.311 -1.1693  1.6659  0.4218
  752THF    H1210915   1.858   2.597   3.376  0.0100 -0.5753 -0.4725
  752THF    H1310916   1.749   2.623   3.495  1.1634 -2.9839 -0.5035
  753THF     O110917   2.704   1.742   2.852  0.0680  0.2052  0.1298
  753THF     C210918   2.752   1.668   2.745  0.2133 -0.0265 -0.3336
  753THF     C310919   2.659   1.657   2.955 -0.2838  0.1916  0.2576
  753THF     H410920   2.860   1.657   2.756  0.4979  1.8160 -0.9581
  753THF     H510921   2.734   1.737   2.663  0.9360 -1.5006 -1.7856
  753THF     H610922   2.727   1.675   3.038 -2.7138  2.4544  1.9239
  753THF     H710923   2.562   1.691   2.991 -0.1171 -0.2307  1.1280
  753THF     C810924   2.661   1.521   2.903 -0.1473  0.1243 -0.3288
  753THF     C910925   2.675   1.532   2.753 -0.6090  0.0174  0.2688
  753THF    H1010926   2.580   1.450   2.921  1.2905 -2.2039 -2.2991
  753THF    H1110927   2.747   1.469   2.943 -0.6992  0.6466  1.6265
  753THF    H1210928   2.735   1.453   2.706 -2.0531 -1.3381  0.6010
  753THF    H1310929   2.575   1.534   2.710 -0.9582  0.4469  1.0654
  754THF     O110930   0.017   4.526   3.395  0.5222 -0.8639  0.4227
  754THF     C210931   0.076   4.647   3.443  0.1966  0.1454  0.0201
  754THF     C310932  -0.115   4.562   3.366 -0.7731 -0.1179 -0.1876
  754THF     H410933   0.185   4.641   3.444  0.3600  2.1693 -0.4773
  754THF     H510934   0.044   4.670   3.544  1.2754  1.2597  0.1322
  754THF     H610935  -0.151   4.524   3.271 -2.3881 -0.3131  0.4651
  754THF     H710936  -0.180   4.531   3.448 -0.2133  2.0221  1.1641
  754THF     C810937  -0.123   4.716   3.353  0.3321  1.0438  0.2709
  754THF     C910938   0.024   4.758   3.346 -0.0785  0.1666 -0.2964
  754THF    H1010939  -0.181   4.756   3.435 -0.5379 -1.7381  1.1156
  754THF    H1110940  -0.173   4.741   3.259 -1.6215 -0.8293  0.7403
  754THF    H1210941   0.070   4.745   3.248  0.1717  1.2699 -0.3445
  754THF    H1310942   0.047   4.861   3.374 -1.7014  0.2320  0.9222
  755THF     O110943   3.071   5.407   0.185  0.2497 -0.3486 -0.0620
  755THF     C210944   2.972   5.361   0.100 -0.6787 -0.8714 -0.0530
  755THF     C310945   3.039   5.359   0.313  0.2565 -0.0741  0.0402
  755THF     H410946   3.015   5.357  -0.000 -0.3077  2.8776 -0.1900
  755THF     H510947   2.891   5.433   0.083 -2.6755 -2.9878  0.0682
  755THF     H610948   3.119   5.302   0.360 -1.5805 -1.2024  1.9440
  755THF     H710949   3.009   5.449   0.366 -0.5152 -1.3958  1.9408
  755THF     C810950   2.914   5.279   0.303 -0.0062 -0.3317 -0.4419
  755THF     C910951   2.922   5.233   0.163  0.2171  0.3995  0.4534
  755THF    H1010952   2.824   5.339   0.322  1.0921  0.6959  2.0452
  755THF    H1110953   2.917   5.186   0.359  1.3322 -0.0545 -0.0319
  755THF    H1210954   2.984   5.146   0.142  0.6854  0.7104  0.5227
  755THF    H1310955   2.822   5.205   0.130  1.0140 -1.9627 -0.1149
  756THF     O110956   0.898   4.654   3.164  0.1426  0.2373  0.3043
  756THF     C210957   0.766   4.624   3.202 -0.0724  1.0951  0.0035
  756THF     C310958   0.935   4.555   3.060  0.0518 -0.4099  0.3595
  756THF     H410959   0.728   4.702   3.267  1.2487  0.1969  1.9533
  756THF     H510960   0.763   4.540   3.271  0.3858  1.7085  0.7872
  756THF     H610961   1.009   4.595   2.991 -0.9058  0.8327  0.0212
  756THF     H710962   0.974   4.462   3.100 -1.7370 -1.4285 -0.1629
  756THF     C810963   0.805   4.538   2.983  0.8097  0.6832 -0.3433
  756THF     C910964   0.697   4.605   3.066 -0.0663 -0.4208 -0.3868
  756THF    H1010965   0.784   4.436   2.953 -2.3154  1.0526  0.2689
  756THF    H1110966   0.819   4.585   2.886  1.5731 -0.2154 -0.6901
  756THF    H1210967   0.675   4.706   3.032  0.5560  0.8757  2.7187
  756THF    H1310968   0.606   4.549   3.087 -0.6752 -0.0939 -2.0673
  757THF     O110969   1.923   3.033   2.283  0.4980 -0.3442 -0.5307
  757THF     C210970   1.898   2.988   2.152  0.4010  0.3193  0.4384
  757THF     C310971   1.880   3.172   2.300 -0.8102  0.4759  0.1403
  757THF     H410972   1.875   2.881   2.155  1.8514 -0.0057  0.3922
  757THF     H510973   1.987   3.010   2.094 -0.8975 -1.9020 -2.6848
  757THF     H610974   1.834   3.190   2.397 -0.6744 -0.8246  0.4635
  757THF     H710975   1.961   3.239   2.272 -0.4443 -0.9225 -2.4918
  757THF     C810976   1.768   3.188   2.196 -0.5734  0.5288 -0.2765
  757THF     C910977   1.781   3.072   2.098  0.3740 -0.3338  0.7004
  757THF    H1010978   1.762   3.289   2.155 -1.9376  0.4436 -0.3344
  757THF    H1110979   1.673   3.170   2.246 -1.7689  1.7851 -1.9752
  757THF    H1210980   1.693   3.007   2.103  0.2867 -0.7954 -3.4706
  757THF    H1310981   1.806   3.097   1.995 -1.2393  0.7842  0.5458
  758THF     O110982   0.469   4.147   0.462  0.6218  0.4826  0.4386
  758THF     C210983   0.344   4.099   0.411 -0.3297 -0.3589 -0.4999
  758THF     C310984   0.559   4.159   0.351  0.3011  0.3440  0.0787
  758THF     H410985   0.290   4.179   0.359  0.7044  0.0782 -0.9403
  758THF     H510986   0.283   4.065   0.495 -1.1317  1.6221 -0.2163
  758THF     H610987   0.531   4.229   0.271  0.3517  1.8244  1.3083
  758THF     H710988   0.666   4.163   0.366  0.3478 -1.0856  0.2072
  758THF     C810989   0.542   4.018   0.305 -0.2873 -0.5499  0.1033
  758THF     C910990   0.392   3.983   0.324  0.5955 -0.0267 -0.5670
  758THF    H1010991   0.605   3.951   0.363  0.6801 -1.3782 -1.8012
  758THF    H1110992   0.574   3.993   0.204  0.8149 -1.6628  0.6962
  758THF    H1210993   0.331   3.984   0.234  2.1548  0.7266 -1.6543
  758THF    H1310994   0.384   3.884   0.368 -1.3218  0.4087  0.1607
  759THF     O110995   2.126   5.319   3.171  0.1722  0.3515 -0.1099
  759THF     C210996   2.050   5.376   3.274  0.4499 -0.1925  0.2672
  759THF     C310997   2.080   5.377   3.048 -0.4276 -0.5615 -0.2308
  759THF     H410998   2.112   5.426   3.348 -0.0456  0.1515  0.4487
  759THF     H510999   1.999   5.294   3.325  0.4048 -1.0277 -1.0669
  759THF     H611000   2.155   5.380   2.969  0.2854 -0.2366  0.4487
  759THF     H711001   1.992   5.330   3.005 -0.2476 -0.0788 -1.1631
  759THF     C811002   2.019   5.511   3.085 -0.1316 -0.3192 -0.5360
  759THF     C911003   1.951   5.475   3.209  0.1568 -0.3872 -0.1786
  759THF    H1011004   1.953   5.546   3.005 -0.1257  0.8061 -0.0780
  759THF    H1111005   2.085   5.593   3.115 -2.1808  0.6581  1.6464
  759THF    H1211006   1.932   5.565   3.269 -1.5251 -1.1499  0.5011
  759THF    H1311007   1.860   5.416   3.198 -2.0034  2.5672  0.6148
  760THF     O111008   3.146   0.779   3.760  0.5228 -0.1350  0.4546
  760THF     C211009   3.235   0.737   3.870 -0.9554 -0.7917 -0.2219
  760THF     C311010   3.067   0.671   3.732  0.7876  0.6955 -0.2749
  760THF     H411011   3.254   0.825   3.931  2.6522 -0.7362 -1.2469
  760THF     H511012   3.331   0.699   3.836  1.6905  3.8206  1.2323
  760THF     H611013   2.967   0.703   3.703 -0.3198 -0.1151  2.3917
  760THF     H711014   3.117   0.625   3.647  1.3654  0.1376  0.3552
  760THF     C811015   3.065   0.579   3.846  0.0201  0.2710 -0.3493
  760THF     C911016   3.146   0.648   3.949 -0.0889  0.2723  0.3729
  760THF    H1011017   3.116   0.483   3.831 -0.6114 -0.3421  1.2325
  760THF    H1111018   2.965   0.557   3.884  0.1414  0.5278  0.1223
  760THF    H1211019   3.077   0.709   4.008  0.2010 -0.3893  1.4192
  760THF    H1311020   3.203   0.581   4.013  0.5169  1.6944  1.3785
  761THF     O111021   3.322   4.873   1.148 -0.0166  0.2619 -0.1446
  761THF     C211022   3.288   5.000   1.186  0.1073 -0.1155 -0.2605
  761THF     C311023   3.457   4.870   1.101 -0.0933  0.6591  1.0221
  761THF     H411024   3.212   4.992   1.264 -0.2203  0.5803 -0.5020
  761THF     H511025   3.253   5.063   1.104 -0.8127  1.3937  1.2282
  761THF     H611026   3.498   4.774   1.132  1.0712  0.4311 -1.0362
  761THF     H711027   3.470   4.875   0.993  0.6139 -1.4549  0.9621
  761THF     C811028   3.532   4.987   1.156 -0.2221 -0.0843  0.8668
  761THF     C911029   3.428   5.043   1.246 -0.0634 -0.1137 -1.0349
  761THF    H1011030   3.553   5.051   1.070 -2.2410 -2.0591 -1.2323
  761THF    H1111031   3.625   4.967   1.210  0.7590 -2.9295 -1.5545
  761THF    H1211032   3.449   4.988   1.338 -2.1470 -0.6264 -0.8200
  761THF    H1311033   3.446   5.148   1.267 -0.4008 -0.2681  0.0729
  762THF     O111034   5.279   3.267   5.308 -0.2947  0.5499  0.3748
  762THF     C211035   5.321   3.171   5.409  0.1949 -0.4421 -0.1139
  762THF     C311036   5.386   3.267   5.211 -0.3395  0.3236 -0.2141
  762THF     H411037   5.230   3.127   5.449 -0.2371  1.9822  1.7727
  762THF     H511038   5.369   3.237   5.481 -1.4634  2.3003 -1.3797
  762THF     H611039   5.341   3.298   5.117  0.3154  1.8600 -0.0499
  762THF     H711040   5.459   3.340   5.247 -2.3291  1.3121  2.1348
  762THF     C811041   5.445   3.124   5.205  0.8389  0.6560 -0.1975
  762THF     C911042   5.419   3.069   5.345 -0.7452 -0.5470  0.0473
  762THF    H1011043   5.545   3.100   5.169  1.6011  1.7320  1.0844
  762THF    H1111044   5.372   3.077   5.140  0.7610  1.5958 -0.8109
  762THF    H1211045   5.382   2.966   5.351 -1.0081 -0.4220  0.6192
  762THF    H1311046   5.513   3.067   5.400 -0.0724 -1.0139 -1.0949
  763THF     O111047   5.240   1.002   0.363 -0.7049  0.0812 -0.0092
  763THF     C211048   5.349   1.073   0.300  0.2409  1.1381 -0.0207
  763THF     C311049   5.294   0.918   0.466  0.6362 -0.1366 -0.1737
  763THF     H411050   5.331   1.153   0.227 -1.8894 -0.8187 -1.8004
  763THF     H511051   5.409   1.000   0.246 -1.0476 -0.3313  0.4493
  763THF     H611052   5.220   0.878   0.536 -1.9196 -0.5732 -2.9365
  763THF     H711053   5.343   0.838   0.411  0.5846 -0.7557  0.6586
  763THF     C811054   5.379   1.020   0.534  0.2778  0.5506 -1.3035
  763THF     C911055   5.422   1.122   0.429  0.3649  0.5534 -0.1329
  763THF    H1011056   5.461   0.980   0.592 -1.4477 -0.5990  0.4880
  763THF    H1111057   5.321   1.071   0.612  0.1227 -0.8121 -0.5082
  763THF    H1211058   5.390   1.222   0.460  1.6790  0.1812  2.7660
  763THF    H1311059   5.529   1.126   0.412  0.2740 -0.0789 -0.9077
  764THF     O111060   2.005   0.432   0.276  0.1334  0.5537  0.1052
  764THF     C211061   1.962   0.368   0.153 -0.4988 -0.4814 -0.2227
  764THF     C311062   1.895   0.507   0.323  0.9182  0.6809  0.7357
  764THF     H411063   1.891   0.285   0.155 -0.1398 -0.7785  1.4571
  764THF     H511064   2.045   0.331   0.092  1.0061  1.3914  0.5969
  764THF     H611065   1.836   0.438   0.384 -0.2828  0.7887 -0.2531
  764THF     H711066   1.921   0.590   0.388  0.9066 -0.2927  2.0172
  764THF     C811067   1.833   0.556   0.189 -0.7325  0.3459  0.4577
  764THF     C911068   1.898   0.483   0.074 -0.5712  0.5439 -0.3652
  764THF    H1011069   1.853   0.660   0.165  4.6856 -0.8444 -1.6763
  764THF    H1111070   1.725   0.545   0.190 -0.6259 -0.8718  1.1471
  764THF    H1211071   1.824   0.448   0.002 -0.7031  0.1151 -0.0309
  764THF    H1311072   1.962   0.556   0.025 -1.5321  2.2969  0.8965
  765THF     O111073   3.831   1.129   2.232  0.1007  0.1620 -0.5623
  765THF     C211074   3.958   1.066   2.207 -0.7051 -0.2817  0.0850
  765THF     C311075   3.825   1.171   2.366  0.2564 -0.0881  0.0587
  765THF     H411076   4.033   1.145   2.195 -1.2866  0.1986 -0.4633
  765THF     H511077   3.953   0.997   2.123  0.3216 -1.7676  1.1832
  765THF     H611078   3.884   1.260   2.387  1.8311 -1.0746 -0.0011
  765THF     H711079   3.725   1.193   2.404  0.7800  0.0236  1.4352
  765THF     C811080   3.889   1.058   2.447 -0.0377  0.1262  0.7509
  765THF     C911081   3.978   0.989   2.339  0.4700  0.3908  0.6541
  765THF    H1011082   3.809   0.996   2.488 -0.8541  0.2235 -0.6130
  765THF    H1111083   3.945   1.080   2.537  1.4866  0.5810 -0.2665
  765THF    H1211084   4.083   0.977   2.363  0.1171 -0.5265  1.8065
  765THF    H1311085   3.928   0.894   2.323 -0.0375  0.5554  1.2366
  766THF     O111086   2.639   2.466   4.377  0.4101 -0.0792  0.2331
  766THF     C211087   2.699   2.369   4.460  0.2003  0.2952 -0.4290
  766THF     C311088   2.738   2.514   4.290  0.0768 -0.9162  0.7524
  766THF     H411089   2.712   2.274   4.409 -1.0534 -0.4252  0.5427
  766THF     H511090   2.633   2.351   4.545  0.6849  0.0431 -0.0977
  766THF     H611091   2.735   2.465   4.192 -0.1418  2.7275 -1.2594
  766THF     H711092   2.708   2.617   4.273  1.0934 -0.5558  1.0582
  766THF     C811093   2.868   2.498   4.367  0.3385 -0.6195  1.0836
  766THF     C911094   2.832   2.435   4.500 -0.1860 -0.2847 -0.2424
  766THF    H1011095   2.927   2.589   4.378  0.4152 -0.3386 -1.2033
  766THF    H1111096   2.932   2.438   4.303 -0.3313  0.3909 -0.6151
  766THF    H1211097   2.913   2.381   4.549 -0.1846  1.7458  2.1933
  766THF    H1311098   2.812   2.509   4.577  0.7333 -0.5405  0.2611
  767THF     O111099   1.231   3.012   0.229 -0.3521 -0.7363  0.1134
  767THF     C211100   1.306   2.895   0.196  0.3792 -0.6115  0.2116
  767THF     C311101   1.247   3.050   0.363  0.4975  0.1709  0.4081
  767THF     H411102   1.327   2.890   0.090  2.2200  1.6050  0.4052
  767THF     H511103   1.239   2.814   0.227 -1.1044  0.9663  1.3164
  767THF     H611104   1.234   3.156   0.387 -1.0981 -0.6836  3.9322
  767THF     H711105   1.161   2.994   0.401 -0.3146  2.5249  2.3712
  767THF     C811106   1.379   2.992   0.406 -0.6249 -0.0833  0.1942
  767THF     C911107   1.424   2.897   0.292 -0.6355  0.0911  0.0574
  767THF    H1011108   1.368   2.931   0.496  1.5522 -1.5625 -0.4573
  767THF    H1111109   1.462   3.061   0.423  1.4684 -2.4818  0.2167
  767THF    H1211110   1.518   2.927   0.246  0.0286  2.8001  2.8335
  767THF    H1311111   1.453   2.800   0.333  0.6282  0.4863  0.1254
  768THF     O111112   3.613   0.966   4.203 -0.0889  0.0474 -0.3312
  768THF     C211113   3.665   1.007   4.075 -0.4900  0.0876 -0.0920
  768THF     C311114   3.557   0.838   4.185 -0.3742 -0.5232 -0.1541
  768THF     H411115   3.752   1.072   4.082  0.1771 -0.5593 -1.8846
  768THF     H511116   3.583   1.057   4.022 -2.5760 -0.2758  2.5526
  768THF     H611117   3.612   0.779   4.258  0.2805  1.9153  1.4449
  768THF     H711118   3.451   0.856   4.201 -0.1320  0.1761  0.7939
  768THF     C811119   3.591   0.783   4.047  0.3934  0.5225 -0.0626
  768THF     C911120   3.706   0.874   4.014 -0.1032 -0.1422  0.6000
  768THF    H1011121   3.511   0.809   3.979  0.9811  0.9269 -0.6112
  768THF    H1111122   3.604   0.675   4.043 -2.1783 -0.0055  2.4682
  768THF    H1211123   3.807   0.860   4.052 -0.2801  0.7659  1.4410
  768THF    H1311124   3.716   0.884   3.905  0.5395  0.3744  0.7020
  769THF     O111125   4.119   1.106   3.870 -0.4300 -0.4460 -0.3597
  769THF     C211126   3.990   1.160   3.871  0.4378 -0.0151  0.8413
  769THF     C311127   4.214   1.208   3.880  0.0166  0.1836  0.4429
  769THF     H411128   3.940   1.171   3.967 -1.4839 -0.5159 -0.0616
  769THF     H511129   3.928   1.095   3.810 -0.8101  2.8866 -1.1926
  769THF     H611130   4.253   1.221   3.981  1.2436  1.0021 -0.1134
  769THF     H711131   4.293   1.164   3.818  0.8103  2.0802  0.0364
  769THF     C811132   4.155   1.330   3.815 -0.0210 -0.8833 -0.8380
  769THF     C911133   4.008   1.286   3.780 -0.6920  0.2609  0.2489
  769THF    H1011134   4.219   1.375   3.740 -0.6460 -0.2209 -0.9858
  769THF    H1111135   4.150   1.413   3.886  2.2160 -0.2710 -1.3325
  769THF    H1211136   3.932   1.360   3.805 -0.3208 -0.3797  3.7733
  769THF    H1311137   4.015   1.262   3.674  0.7748  0.7969  0.2037
  770THF     O111138   0.094   5.177   4.545 -0.0798  0.2950 -0.5715
  770THF     C211139   0.121   5.126   4.673  0.3004 -0.2309 -0.6873
  770THF     C311140  -0.046   5.209   4.537 -0.5415 -0.2046 -0.5147
  770THF     H411141   0.203   5.184   4.715  0.1463 -1.0914  0.8512
  770THF     H511142   0.146   5.020   4.667  0.3436 -0.1739 -1.9002
  770THF     H611143  -0.047   5.300   4.476  2.1104  0.3666  0.1541
  770THF     H711144  -0.105   5.136   4.482 -4.6516  2.4112 -0.0536
  770THF     C811145  -0.093   5.223   4.677 -0.3182 -0.0007 -0.4489
  770THF     C911146  -0.002   5.133   4.760 -0.0243  0.1464  0.0009
  770THF    H1011147  -0.197   5.194   4.691 -0.1626 -1.2765 -1.7856
  770THF    H1111148  -0.079   5.325   4.715 -2.7382 -0.0889  0.8705
  770THF    H1211149   0.007   5.170   4.862 -1.7105  1.7754 -0.3776
  770THF    H1311150  -0.052   5.036   4.766  0.3812 -0.0838 -0.2766
  771THF     O111151   3.610   1.501   3.102 -0.1252 -0.2665  0.1512
  771THF     C211152   3.509   1.433   3.169  0.3519  0.2621 -0.8130
  771THF     C311153   3.688   1.558   3.205  0.2610 -0.0155 -0.1520
  771THF     H411154   3.555   1.340   3.203  1.1281  0.5292 -1.1089
  771THF     H511155   3.424   1.414   3.104  0.0930 -0.1694 -0.3557
  771THF     H611156   3.772   1.493   3.228  1.2197  1.5293  0.8912
  771THF     H711157   3.726   1.658   3.183 -2.5643  1.5910  1.6526
  771THF     C811158   3.588   1.593   3.316 -0.5896 -0.0196  0.2166
  771THF     C911159   3.473   1.508   3.294  0.0352  0.3772  0.1800
  771THF    H1011160   3.551   1.696   3.317 -0.8862 -0.0638 -1.7967
  771THF    H1111161   3.634   1.581   3.415  0.1635  0.3026 -0.0841
  771THF    H1211162   3.443   1.439   3.374  1.0032 -0.1882  0.0645
  771THF    H1311163   3.379   1.560   3.276  0.7511  1.0794 -1.7713
  772THF     O111164   3.859   0.564   2.589  0.5124 -0.3079  0.4404
  772THF     C211165   3.791   0.679   2.628  0.0116  0.2775 -0.3550
  772THF     C311166   3.765   0.451   2.583 -0.0480  0.1694  0.3856
  772THF     H411167   3.746   0.737   2.548  0.5023  1.7137  0.3795
  772THF     H511168   3.858   0.747   2.681  2.2281 -1.8336 -0.2669
  772THF     H611169   3.750   0.417   2.480  1.3802  2.4147 -0.6444
  772THF     H711170   3.797   0.368   2.645 -0.7880  1.1394  2.1315
  772THF     C811171   3.638   0.513   2.626 -0.4326 -0.0765 -0.6889
  772THF     C911172   3.687   0.619   2.720  1.0690 -0.3176  0.2705
  772THF    H1011173   3.576   0.442   2.681  0.6020 -0.9463 -0.6096
  772THF    H1111174   3.579   0.560   2.547 -1.0937  1.0135  0.4143
  772THF    H1211175   3.599   0.682   2.737  2.2223  1.3113  0.3673
  772THF    H1311176   3.732   0.594   2.816  0.1842 -2.9315  0.0813
  773THF     O111177   2.819   2.232   0.476 -0.2437 -0.1153  0.0593
  773THF     C211178   2.955   2.268   0.480 -0.2596 -0.4441  0.1960
  773THF     C311179   2.749   2.321   0.562 -0.4819  0.4076  0.3255
  773THF     H411180   2.960   2.365   0.431 -1.3454 -0.2165  0.5042
  773THF     H511181   3.033   2.203   0.439 -0.1992 -0.5576  0.4820
  773THF     H611182   2.735   2.411   0.502 -0.1725 -0.3137 -0.8623
  773THF     H711183   2.651   2.286   0.595 -1.7053  1.5899 -1.8223
  773THF     C811184   2.847   2.353   0.672  0.3929 -0.4365  0.2950
  773THF     C911185   2.977   2.287   0.628  0.3127 -0.0377  0.2757
  773THF    H1011186   2.814   2.317   0.770  0.9856  0.5759  0.8903
  773THF    H1111187   2.873   2.459   0.673 -2.2993  0.3019 -0.5400
  773THF    H1211188   3.059   2.354   0.655  2.0976 -2.3411  0.9578
  773THF    H1311189   2.997   2.192   0.678 -1.1846 -0.7520 -0.4402
  774THF     O111190   3.931   4.406   0.064  0.2346 -0.0974 -0.3980
  774THF     C211191   3.829   4.342  -0.010 -0.1043 -0.0321 -0.0812
  774THF     C311192   3.884   4.419   0.199 -0.2373 -0.1115  0.9691
  774THF     H411193   3.824   4.239   0.023  2.2127 -0.0488  0.3403
  774THF     H511194   3.854   4.346  -0.116  1.7240  0.9783  0.3529
  774THF     H611195   3.874   4.325   0.254 -0.0168  0.8661  2.7698
  774THF     H711196   3.961   4.481   0.246  0.4316  1.8995 -2.4706
  774THF     C811197   3.746   4.478   0.168 -0.8924 -0.2940  0.1103
  774THF     C911198   3.698   4.404   0.043 -0.3609  0.1918 -0.9532
  774THF    H1011199   3.756   4.585   0.146 -2.4811  0.5956  3.0659
  774THF    H1111200   3.680   4.479   0.255 -1.4925 -0.4137 -0.3402
  774THF    H1211201   3.626   4.328   0.074 -0.8438  0.9712 -0.1001
  774THF    H1311202   3.646   4.471  -0.026 -3.3601 -0.0043  0.9242
  775THF     O111203   5.026   0.053   4.888 -0.5781  0.4547  0.8532
  775THF     C211204   5.113   0.023   4.781 -0.1144  0.7550 -0.4013
  775THF     C311205   4.931  -0.052   4.894 -0.2599  0.7660 -0.2208
  775THF     H411206   5.192  -0.047   4.807  0.7744  1.7041 -0.4405
  775THF     H511207   5.163   0.115   4.748 -0.2510  2.1091  2.7903
  775THF     H611208   4.962  -0.146   4.939 -0.7820  0.3336 -0.7515
  775THF     H711209   4.846  -0.011   4.947  0.8044  0.2073  2.0383
  775THF     C811210   4.903  -0.087   4.746 -0.2161 -0.2692 -0.0831
  775THF     C911211   5.026  -0.033   4.674  0.5068  0.4885 -0.4559
  775THF    H1011212   4.815  -0.033   4.710  0.3541 -0.9008 -2.6348
  775THF    H1111213   4.906  -0.195   4.732  2.5190 -0.4081  0.9198
  775THF    H1211214   5.082  -0.106   4.614  0.0059 -0.8471  0.6486
  775THF    H1311215   4.995   0.042   4.601  1.5275 -0.3854 -1.8549
  776THF     O111216   0.294   4.139   4.775  0.3668  0.2140  0.0342
  776THF     C211217   0.302   4.043   4.884 -0.3208 -0.1325  0.1349
  776THF     C311218   0.238   4.071   4.671  0.6650 -0.2619 -0.0819
  776THF     H411219   0.313   4.092   4.981 -2.4937 -1.7404  1.2774
  776THF     H511220   0.382   3.970   4.871 -0.1198 -0.5069  2.9096
  776THF     H611221   0.203   4.133   4.588  0.1258 -1.8401 -1.0724
  776THF     H711222   0.316   4.015   4.620 -0.9502 -2.1183 -0.6504
  776THF     C811223   0.126   3.976   4.724  0.1299 -0.0894 -0.2062
  776THF     C911224   0.162   3.976   4.872  0.2879 -0.1847 -0.2559
  776THF    H1011225   0.116   3.875   4.683  0.4220  0.3253 -1.3357
  776THF    H1111226   0.032   4.032   4.717  0.4669  1.4917  4.3837
  776THF    H1211227   0.088   4.038   4.922  0.0552 -0.1052 -0.6946
  776THF    H1311228   0.147   3.875   4.910 -1.7997  0.0455 -0.3550
  777THF     O111229   1.314   4.290   4.358 -0.7745 -0.0569 -0.6697
  777THF     C211230   1.310   4.153   4.376 -0.2265 -0.0131  1.0512
  777THF     C311231   1.200   4.345   4.430 -0.2109  0.0794  0.0216
  777THF     H411232   1.339   4.122   4.476  0.7243  1.2035  1.1684
  777THF     H511233   1.373   4.092   4.311 -1.5471 -2.0619  1.5916
  777THF     H611234   1.221   4.345   4.537  1.3714  0.1179 -0.2639
  777THF     H711235   1.166   4.443   4.395 -1.2360 -0.4947 -0.6572
  777THF     C811236   1.086   4.245   4.402  1.2520  0.0971 -0.0638
  777THF     C911237   1.165   4.125   4.367  0.4668 -0.5703 -0.3447
  777THF    H1011238   1.024   4.262   4.314  0.5393 -1.4849  0.0874
  777THF    H1111239   1.021   4.210   4.483  1.0159 -0.8107 -0.6239
  777THF    H1211240   1.138   4.035   4.422 -2.4672  0.3664 -0.1270
  777THF    H1311241   1.139   4.107   4.263  1.7668  0.5658 -0.9125
  778THF     O111242   1.361   4.747   2.987 -0.2313 -0.1483  0.1455
  778THF     C211243   1.476   4.831   3.001 -0.5932 -0.6625  0.0707
  778THF     C311244   1.325   4.756   2.854  0.1069  0.0785  0.1581
  778THF     H411245   1.559   4.798   2.938 -3.6297 -1.8033 -3.7672
  778THF     H511246   1.501   4.857   3.103 -1.9627 -1.1499  0.5552
  778THF     H611247   1.370   4.675   2.796  0.1224  0.2526 -0.0784
  778THF     H711248   1.217   4.746   2.854  0.1578 -0.5628 -0.3526
  778THF     C811249   1.370   4.891   2.806 -0.3187  0.2338  0.3081
  778THF     C911250   1.436   4.956   2.926 -0.5680 -0.1409  0.1460
  778THF    H1011251   1.283   4.943   2.766  0.0484  0.3672 -0.3340
  778THF    H1111252   1.445   4.879   2.728 -0.0100  1.1863  0.4500
  778THF    H1211253   1.518   5.022   2.901  0.2883 -1.3754 -0.4233
  778THF    H1311254   1.360   5.011   2.981  2.0419  2.2393  1.6264
  779THF     O111255   5.486   2.795   4.080  0.0978 -0.5986 -0.0842
  779THF     C211256   5.428   2.692   3.987 -0.0913  0.0825  0.0030
  779THF     C311257   5.517   2.733   4.200 -0.0407  0.1347  0.2815
  779THF     H411258   5.506   2.654   3.921  0.7326 -0.2273  1.1416
  779THF     H511259   5.344   2.725   3.925 -0.8090 -0.1363  0.8389
  779THF     H611260   5.612   2.681   4.189 -1.0785 -1.4220 -2.2253
  779THF     H711261   5.550   2.797   4.282 -0.0995 -0.6691  0.9424
  779THF     C811262   5.409   2.621   4.211  0.5236 -0.2832 -0.3527
  779THF     C911263   5.384   2.573   4.073 -0.0429  0.0626 -0.4046
  779THF    H1011264   5.312   2.663   4.238  0.8011 -1.5296  3.0320
  779THF    H1111265   5.440   2.539   4.274  0.8563 -0.8449 -1.2272
  779THF    H1211266   5.441   2.492   4.028  1.1979  1.1584 -0.9140
  779THF    H1311267   5.284   2.539   4.050  0.1100 -0.7241  0.0484
  780THF     O111268   0.002   5.436   3.320  0.8479 -0.1104  0.2489
  780THF     C211269   0.117   5.463   3.233  0.4541  0.1205 -0.5491
  780THF     C311270   0.026   5.310   3.378 -0.1293 -0.7011  0.5591
  780THF     H411271   0.202   5.487   3.297  0.5075 -0.1701 -0.5138
  780THF     H511272   0.112   5.530   3.147 -2.1982  0.6236 -0.0931
  780THF     H611273   0.079   5.335   3.470  0.2416 -0.4801  0.2909
  780THF     H711274  -0.069   5.258   3.392 -0.9326  0.0814 -1.5659
  780THF     C811275   0.111   5.235   3.287 -0.5596  1.0533  0.3745
  780THF     C911276   0.131   5.325   3.172 -0.6994 -0.1820  0.9199
  780THF    H1011277   0.087   5.132   3.261  0.9873  1.1247 -1.5140
  780THF    H1111278   0.204   5.220   3.342 -0.4727  2.5272  0.6897
  780THF    H1211279   0.229   5.304   3.128 -1.6578 -2.5633 -0.2568
  780THF    H1311280   0.054   5.297   3.100  0.6364 -3.1929  0.5017
  781THF     O111281   0.843   0.196   1.837  0.7203  0.8597  0.5023
  781THF     C211282   0.782   0.152   1.956  0.9678 -0.6026  0.3245
  781THF     C311283   0.763   0.146   1.730  0.1929  0.0758  0.3853
  781THF     H411284   0.805   0.210   2.045 -1.4871 -0.2249  0.7625
  781THF     H511285   0.802   0.047   1.980  0.0301 -0.7885  0.3191
  781THF     H611286   0.790   0.197   1.637 -2.4429  1.1508  0.1102
  781THF     H711287   0.795   0.043   1.717  2.3988  0.6490  0.8646
  781THF     C811288   0.618   0.171   1.779  0.8078  0.0922  0.7390
  781THF     C911289   0.634   0.186   1.933 -0.5355  0.1930  1.4618
  781THF    H1011290   0.553   0.088   1.750 -1.6154  1.0106  3.1600
  781THF    H1111291   0.569   0.260   1.741  0.0837 -0.3295  0.6665
  781THF    H1211292   0.622   0.286   1.974  0.1206  1.3008 -0.8622
  781THF    H1311293   0.566   0.120   1.987 -1.1715 -0.3104  0.1060
  782THF     O111294   1.219   2.443   3.142 -0.0841 -0.2751 -0.6766
  782THF     C211295   1.154   2.383   3.031  0.0103  0.2639  0.1613
  782THF     C311296   1.283   2.340   3.215 -0.1120  0.4076  0.1482
  782THF     H411297   1.220   2.355   2.949  0.7479 -1.3468  1.2513
  782THF     H511298   1.072   2.445   2.995  0.7358  1.1434 -0.0059
  782THF     H611299   1.391   2.334   3.203 -0.0939 -1.5594  0.9419
  782THF     H711300   1.255   2.353   3.320  2.2381 -0.9716  1.0307
  782THF     C811301   1.217   2.210   3.173  0.1275 -0.2232  0.3162
  782THF     C911302   1.093   2.255   3.093  0.1250  0.1663 -0.5021
  782THF    H1011303   1.199   2.139   3.253  1.1706  0.3615  1.0982
  782THF    H1111304   1.289   2.166   3.104 -0.9617 -1.1641 -0.2608
  782THF    H1211305   1.050   2.182   3.024 -1.1346  0.6037 -0.2139
  782THF    H1311306   1.011   2.285   3.158  0.6511 -0.5513  0.5265
  783THF     O111307   1.597   5.210   0.383 -0.3465 -0.0092 -0.1882
  783THF     C211308   1.509   5.135   0.462 -0.4281  0.1299 -0.2993
  783THF     C311309   1.531   5.327   0.345  0.2108 -0.0905 -0.0884
  783THF     H411310   1.558   5.137   0.559  0.4440 -0.4219 -0.7227
  783THF     H511311   1.498   5.030   0.434  1.0863  0.1522 -1.0711
  783THF     H611312   1.601   5.411   0.338  0.5933 -0.4756 -0.9951
  783THF     H711313   1.489   5.317   0.245  2.1677 -0.1349 -0.9443
  783THF     C811314   1.430   5.360   0.449  0.2333 -0.3011  0.5250
  783THF     C911315   1.386   5.223   0.484 -0.5016  0.2987  0.0086
  783THF    H1011316   1.346   5.423   0.419 -1.2654 -2.8763 -1.1191
  783THF    H1111317   1.479   5.393   0.540  3.1300 -0.8607 -0.7309
  783THF    H1211318   1.341   5.214   0.582  0.0591 -1.4071  0.1344
  783THF    H1311319   1.306   5.202   0.414 -0.2131  1.1780 -0.6104
  784THF     O111320   4.429   0.693   1.735  0.4919  0.1121 -0.5389
  784THF     C211321   4.419   0.734   1.875  0.5619 -0.1167 -0.2158
  784THF     C311322   4.469   0.802   1.657  0.4269 -0.0576 -0.4435
  784THF     H411323   4.511   0.748   1.930  0.4430  0.1173 -0.0758
  784THF     H511324   4.352   0.676   1.938  2.2928 -0.3352  1.5183
  784THF     H611325   4.568   0.781   1.617  1.4112  0.2141  1.6784
  784THF     H711326   4.398   0.811   1.575  2.3101  0.8233 -2.0562
  784THF     C811327   4.450   0.926   1.741  0.3493 -0.1140 -0.5072
  784THF     C911328   4.373   0.879   1.861  0.1939 -0.5287 -1.0486
  784THF    H1011329   4.402   1.009   1.690  1.0468  0.1308 -0.7881
  784THF    H1111330   4.551   0.964   1.759  1.2085 -1.3584 -2.2992
  784THF    H1211331   4.404   0.927   1.954  1.5343 -1.0182 -1.2275
  784THF    H1311332   4.266   0.898   1.847  0.6335  0.0484 -4.4310
  785THF     O111333   3.291   1.579   0.229  0.5479  0.2613  0.3518
  785THF     C211334   3.247   1.464   0.301  0.3328 -0.2266 -0.4382
  785THF     C311335   3.415   1.540   0.171 -0.7894  0.3405  0.0907
  785THF     H411336   3.201   1.390   0.236  0.2678  0.8540 -1.6662
  785THF     H511337   3.165   1.501   0.364  1.7328 -0.3926  1.5526
  785THF     H611338   3.410   1.483   0.078 -0.1923  1.1151 -0.4295
  785THF     H711339   3.479   1.626   0.154 -0.9151  0.4095 -0.0355
  785THF     C811340   3.479   1.436   0.255  0.1762 -0.0144 -0.4321
  785THF     C911341   3.378   1.413   0.362 -0.3939 -0.0672 -0.6262
  785THF    H1011342   3.572   1.472   0.298  0.1161  0.4143 -0.6541
  785THF    H1111343   3.499   1.351   0.189 -0.5945 -0.0417 -0.6433
  785THF    H1211344   3.372   1.308   0.390  0.0357  0.2198  0.6370
  785THF    H1311345   3.408   1.467   0.452  0.2903  1.4333 -1.7187
  786THF     O111346   5.221   3.169   1.714  0.0672 -0.0092 -0.4017
  786THF     C211347   5.224   3.093   1.594  0.1533 -0.9488  0.1713
  786THF     C311348   5.247   3.067   1.811  0.0771  0.4109 -0.4341
  786THF     H411349   5.328   3.073   1.570  0.2796 -0.5578  0.3875
  786THF     H511350   5.179   3.148   1.510  0.2792 -1.4565 -0.2321
  786THF     H611351   5.353   3.039   1.803 -0.1059 -1.1761  1.6662
  786THF     H711352   5.220   3.097   1.912  1.1660  1.1461 -0.3369
  786THF     C811353   5.142   2.958   1.767  0.4145 -1.0068  0.3426
  786THF     C911354   5.145   2.962   1.615 -0.1860 -0.0064 -0.1192
  786THF    H1011355   5.042   2.979   1.806 -0.1637  0.1630 -1.6651
  786THF    H1111356   5.169   2.863   1.814  1.7066 -0.5697  0.5097
  786THF    H1211357   5.199   2.879   1.570 -0.3932 -1.1646  1.6696
  786THF    H1311358   5.039   2.962   1.591 -0.2817 -0.4117  0.2946
  787THF     O111359   0.050   1.904   0.937  0.6212 -0.0398  0.1972
  787THF     C211360   0.052   1.850   0.803 -0.2234  0.0559  0.0799
  787THF     C311361   0.146   2.007   0.945 -0.2003 -0.2304 -0.0875
  787THF     H411362  -0.044   1.848   0.752  0.1437  2.4998 -0.8711
  787THF     H511363   0.102   1.753   0.805  0.3038  0.3406  1.0811
  787THF     H611364   0.091   2.101   0.942 -0.6953 -0.4384  1.4190
  787THF     H711365   0.203   2.001   1.038  0.4571  0.4016 -0.4431
  787THF     C811366   0.232   2.003   0.821 -1.3584 -0.0785  0.3455
  787THF     C911367   0.133   1.943   0.715 -0.4604 -0.3575 -0.4890
  787THF    H1011368   0.315   1.933   0.832 -0.3108  0.5047 -2.8556
  787THF    H1111369   0.278   2.094   0.785  0.0982 -0.7860  0.3714
  787THF    H1211370   0.065   2.015   0.669 -1.2455 -0.2290  0.8090
  787THF    H1311371   0.175   1.890   0.630  0.3617 -0.0500 -0.2817
  788THF     O111372   2.594   0.676   5.152  0.7637 -0.4975  0.1034
  788THF     C211373   2.708   0.604   5.087  0.6758 -0.4041 -0.1588
  788THF     C311374   2.517   0.584   5.226 -0.3850  0.3274  0.3029
  788THF     H411375   2.791   0.673   5.093  1.6955 -1.6829  1.0157
  788THF     H511376   2.705   0.581   4.980  0.9317  3.4097 -1.1110
  788THF     H611377   2.477   0.637   5.313  1.1736  0.6096  0.8726
  788THF     H711378   2.439   0.540   5.164 -0.8560  0.1940  0.9732
  788THF     C811379   2.611   0.473   5.262 -0.5693  0.8533 -0.5110
  788THF     C911380   2.719   0.462   5.153 -0.1530 -0.4743  0.0500
  788THF    H1011381   2.559   0.378   5.279 -0.7071  1.5309  3.9450
  788THF    H1111382   2.659   0.498   5.357  0.2097 -2.8794  0.2390
  788THF    H1211383   2.809   0.446   5.212  0.2337  3.9227  0.9709
  788THF    H1311384   2.697   0.379   5.086  3.0691 -1.1035 -0.3701
  789THF     O111385   1.727   1.244   2.459  0.7122  0.3121  0.7252
  789THF     C211386   1.636   1.334   2.513 -0.1604  0.2672  0.4510
  789THF     C311387   1.716   1.124   2.546 -0.9794  0.5450  0.3655
  789THF     H411388   1.545   1.300   2.464 -1.9439  1.5914  2.6312
  789THF     H511389   1.658   1.432   2.470  1.8123 -1.6030 -3.3218
  789THF     H611390   1.662   1.044   2.494 -0.1808 -0.5312  1.1433
  789THF     H711391   1.821   1.098   2.562 -0.8122 -1.3728 -2.9218
  789THF     C811392   1.655   1.168   2.683 -0.1389 -0.2167  0.0056
  789THF     C911393   1.628   1.312   2.666 -0.0998 -0.2980  0.7259
  789THF    H1011394   1.715   1.147   2.771 -0.5952  0.0279  0.3829
  789THF    H1111395   1.559   1.117   2.695 -1.5655  2.2814 -0.0810
  789THF    H1211396   1.548   1.358   2.723  0.1928  0.9802  0.1353
  789THF    H1311397   1.715   1.367   2.701  1.1754 -1.4821 -0.4507
  790THF     O111398   0.175   4.998   2.620  0.2566 -0.2504 -1.0730
  790THF     C211399   0.105   4.974   2.745  0.2977 -0.3603 -0.1295
  790THF     C311400   0.268   5.101   2.653  0.1689  0.6399  0.7799
  790THF     H411401   0.163   4.899   2.800 -1.1841 -0.9355  0.6968
  790THF     H511402   0.009   4.933   2.715  1.4588 -3.0519 -0.5481
  790THF     H611403   0.357   5.062   2.703 -0.4071 -0.7348  0.7807
  790THF     H711404   0.303   5.145   2.560  2.3337 -0.4208  1.0349
  790THF     C811405   0.191   5.194   2.751  0.5336  0.5731  0.8039
  790THF     C911406   0.087   5.105   2.819  0.0578  0.0937  0.8941
  790THF    H1011407   0.136   5.263   2.687 -0.3691 -2.9123 -2.5912
  790THF    H1111408   0.253   5.247   2.823 -0.0944  0.7641  1.2087
  790THF    H1211409   0.098   5.107   2.928 -0.2811  0.9588  0.9231
  790THF    H1311410  -0.014   5.138   2.793  0.5014  0.7048 -0.1212
  791THF     O111411   4.081   4.878   3.748 -0.3484 -0.4465 -0.1467
  791THF     C211412   3.951   4.844   3.700  0.3204 -0.0693 -0.2868
  791THF     C311413   4.098   4.797   3.872  0.1634  0.1826  0.0386
  791THF     H411414   3.938   4.871   3.595 -0.2471 -4.0228 -1.4252
  791THF     H511415   3.878   4.897   3.760 -0.4276 -0.4629 -0.8213
  791THF     H611416   4.197   4.783   3.916  1.3070 -0.0497 -2.4162
  791THF     H711417   4.026   4.833   3.945 -0.0239  2.9972 -1.3738
  791THF     C811418   4.051   4.663   3.812 -0.1332  0.4261  0.5410
  791THF     C911419   3.932   4.694   3.734 -0.2307 -0.3894  0.3737
  791THF    H1011420   4.028   4.593   3.892 -2.5000 -0.1741 -0.5676
  791THF    H1111421   4.135   4.631   3.751  1.8846  1.2265  2.7543
  791THF    H1211422   3.923   4.630   3.647  0.9306  0.3099 -0.2991
  791THF    H1311423   3.849   4.680   3.802 -0.2886 -0.3005  0.3213
  792THF     O111424   1.179   2.462   0.322 -0.6003 -0.0168  0.1858
  792THF     C211425   1.118   2.577   0.381 -0.3950  0.2788  0.7003
  792THF     C311426   1.102   2.417   0.214 -0.8344 -0.1476  0.4213
  792THF     H411427   1.187   2.661   0.381 -0.6602  0.5550  2.8532
  792THF     H511428   1.111   2.567   0.489  3.4842 -2.0785  0.9187
  792THF     H611429   1.171   2.372   0.142 -1.8352 -1.3242  0.1744
  792THF     H711430   1.022   2.347   0.236 -0.8612 -0.0086  0.7701
  792THF     C811431   1.038   2.537   0.155 -0.4713 -0.5372 -0.1498
  792THF     C911432   1.000   2.616   0.286 -0.6418 -0.9087 -0.4046
  792THF    H1011433   0.945   2.504   0.109  0.7010 -2.6520 -1.0944
  792THF    H1111434   1.096   2.588   0.079 -1.0511 -1.1169 -0.9898
  792THF    H1211435   0.995   2.725   0.278  0.8789 -0.8092 -0.2017
  792THF    H1311436   0.907   2.583   0.332 -2.1250  1.3888 -1.5578
  793THF     O111437   0.250   0.095   0.754  0.3100 -0.4596  0.1005
  793THF     C211438   0.187   0.038   0.865 -0.0582  1.0019  1.1158
  793THF     C311439   0.378   0.130   0.789 -0.2566 -0.6272  0.2186
  793THF     H411440   0.235  -0.053   0.902  0.3381  1.3254  1.4150
  793THF     H511441   0.081   0.022   0.849  0.5997 -1.9758 -0.9388
  793THF     H611442   0.451   0.049   0.794  1.4726  0.9032  1.0995
  793THF     H711443   0.421   0.212   0.731 -0.8484  0.9277  1.9147
  793THF     C811444   0.361   0.198   0.924 -0.2890 -0.5996 -0.0987
  793THF     C911445   0.229   0.139   0.973  0.5496 -0.0975  0.4715
  793THF    H1011446   0.375   0.305   0.911 -0.2010 -0.7785 -1.7191
  793THF    H1111447   0.449   0.165   0.979 -0.0651 -0.8520 -0.5929
  793THF    H1211448   0.225   0.100   1.075  1.5071 -0.6470  0.3079
  793THF    H1311449   0.159   0.222   0.961  1.0623  0.2301 -0.2965
  794THF     O111450   4.112   5.143   2.757 -0.4547  0.0891  0.0114
  794THF     C211451   4.073   5.147   2.625  0.4881  0.2009 -0.3136
  794THF     C311452   4.099   5.013   2.808  0.0494  0.4648 -0.3352
  794THF     H411453   4.103   5.235   2.567  0.6156  0.4001  0.0475
  794THF     H511454   3.965   5.144   2.625  0.3113  1.2603  3.7527
  794THF     H611455   4.170   5.013   2.891 -1.2583  1.2235  0.8197
  794THF     H711456   3.998   4.997   2.845  0.0865  1.3385  0.1796
  794THF     C811457   4.146   4.927   2.695 -0.1898  0.0350  0.3870
  794THF     C911458   4.133   5.015   2.571  0.3979  0.5282 -0.2454
  794THF    H1011459   4.097   4.830   2.687 -2.7297  1.3286 -0.7883
  794THF    H1111460   4.252   4.905   2.705  0.2260  0.2800 -2.6048
  794THF    H1211461   4.227   5.037   2.519 -0.0215  0.1324 -1.1877
  794THF    H1311462   4.071   4.968   2.495  0.7134 -2.4498  1.1972
  795THF     O111463   3.618   1.628   2.644  0.2078 -0.0144 -0.3361
  795THF     C211464   3.749   1.683   2.611  0.0138 -0.5286 -0.3119
  795THF     C311465   3.549   1.605   2.529 -0.1543  0.2456 -0.1836
  795THF     H411466   3.825   1.660   2.685 -0.3408 -0.5285  0.0561
  795THF     H511467   3.740   1.790   2.594 -2.6830 -0.8016 -1.1042
  795THF     H611468   3.468   1.532   2.536  1.0819 -1.1945 -0.4406
  795THF     H711469   3.498   1.700   2.516 -2.3499 -0.9218 -0.6494
  795THF     C811470   3.658   1.578   2.426 -0.4843  0.8802 -0.3330
  795THF     C911471   3.787   1.618   2.484  0.0224 -0.0260  0.1666
  795THF    H1011472   3.645   1.647   2.344  1.1226 -0.7730 -2.0834
  795THF    H1111473   3.650   1.480   2.379 -0.9395  1.3769 -1.3046
  795THF    H1211474   3.850   1.532   2.506 -0.7215 -0.9732 -1.2316
  795THF    H1311475   3.837   1.696   2.428  0.2865 -0.5706 -0.3717
  796THF     O111476   1.363   2.892   1.971  0.4540 -0.2308 -0.7284
  796THF     C211477   1.388   2.746   1.970 -0.3441 -1.3782 -0.5570
  796THF     C311478   1.221   2.906   1.953  0.3031 -0.1174  0.6890
  796THF     H411479   1.368   2.698   2.066 -0.0353 -0.9817 -0.2922
  796THF     H511480   1.494   2.730   1.953  0.2185  1.2901 -0.0665
  796THF     H611481   1.165   2.912   2.046 -0.6427  0.8331  0.0832
  796THF     H711482   1.197   3.001   1.906  0.2744 -1.1157 -1.4296
  796THF     C811483   1.175   2.789   1.862 -0.1679 -0.0695 -0.2982
  796THF     C911484   1.291   2.692   1.867 -0.8916 -0.1123 -0.0354
  796THF    H1011485   1.131   2.818   1.767  1.0501  0.9823 -0.5603
  796THF    H1111486   1.093   2.735   1.910 -0.7021 -1.4617 -2.6104
  796THF    H1211487   1.270   2.585   1.864  0.5851 -0.4144 -0.3950
  796THF    H1311488   1.351   2.704   1.776 -0.2803  0.2956  0.4089
  797THF     O111489   1.919   5.402   0.006 -1.0542  0.0810  0.4874
  797THF     C211490   1.883   5.338   0.122  0.0273 -0.0550 -0.2251
  797THF     C311491   2.060   5.434   0.011  0.9456 -0.2830  0.0399
  797THF     H411492   1.781   5.302   0.110 -1.7072  3.6116  1.8838
  797THF     H511493   1.872   5.413   0.200 -2.7375  0.1704 -0.7201
  797THF     H611494   2.105   5.463  -0.084  1.5799 -2.0380 -0.2354
  797THF     H711495   2.077   5.508   0.089  0.1058  0.3918 -0.4012
  797THF     C811496   2.120   5.303   0.051 -0.1634 -1.0031 -0.6003
  797THF     C911497   2.001   5.233   0.126  0.2146 -0.1219  0.1602
  797THF    H1011498   2.205   5.312   0.118  0.1248 -1.1158 -0.9542
  797THF    H1111499   2.136   5.243  -0.038 -0.4627  1.5056 -2.4734
  797THF    H1211500   1.968   5.145   0.070  2.2275 -0.1037 -1.1640
  797THF    H1311501   2.022   5.207   0.230 -0.7935 -1.1759  0.1230
  798THF     O111502   4.191   2.255   3.505  0.5955 -0.0374 -0.0720
  798THF     C211503   4.159   2.377   3.565  0.4094 -0.2532 -0.8027
  798THF     C311504   4.227   2.169   3.615 -1.0262 -0.5695  0.5528
  798THF     H411505   4.073   2.373   3.633  0.9283  0.2898 -0.0985
  798THF     H511506   4.139   2.470   3.513  2.3248  1.4832  1.3205
  798THF     H611507   4.131   2.141   3.658 -1.8392 -0.6752 -1.2662
  798THF     H711508   4.285   2.087   3.572 -0.4153 -0.2863  0.8156
  798THF     C811509   4.310   2.262   3.712 -0.0270  0.7220 -0.8444
  798THF     C911510   4.269   2.401   3.666  0.4455 -0.4515  0.2098
  798THF    H1011511   4.417   2.243   3.713 -0.1730 -0.1427 -0.4806
  798THF    H1111512   4.279   2.226   3.811  2.9355 -0.3517 -0.1999
  798THF    H1211513   4.242   2.473   3.744  0.0704  1.9154 -1.9800
  798THF    H1311514   4.357   2.446   3.619 -0.5501  0.0088 -1.2742
  799THF     O111515   4.630   3.916   3.014  0.3879  0.3659 -0.3537
  799THF     C211516   4.634   4.060   3.043 -1.0635  0.1671 -0.8604
  799THF     C311517   4.566   3.901   2.890  0.3542 -0.5135  0.4061
  799THF     H411518   4.722   4.117   3.013 -0.2733 -1.2382 -1.2661
  799THF     H511519   4.633   4.071   3.152  0.5287 -1.2094 -0.6688
  799THF     H611520   4.643   3.916   2.815  0.0662 -0.1535  0.1832
  799THF     H711521   4.537   3.797   2.875 -0.4256 -0.2117 -0.2645
  799THF     C811522   4.458   4.014   2.882 -0.5200  0.1409  0.1442
  799THF     C911523   4.509   4.122   2.977 -0.2120  0.0806 -0.6961
  799THF    H1011524   4.366   3.984   2.932  0.5051  0.9801  2.7007
  799THF    H1111525   4.442   4.052   2.781 -0.7983  3.0946  1.1996
  799THF    H1211526   4.548   4.215   2.936 -1.4264  0.8269 -0.2087
  799THF    H1311527   4.427   4.148   3.043  1.7869  2.6468  0.9388
  800THF     O111528   2.217   1.954   3.341 -0.1891 -0.0886  0.4711
  800THF     C211529   2.362   1.967   3.329 -0.0193 -0.1550  0.4105
  800THF     C311530   2.171   1.841   3.273  0.1127 -0.0438 -0.4508
  800THF     H411531   2.407   1.924   3.418 -0.5649 -0.0311  0.7511
  800THF     H511532   2.388   2.073   3.329  0.2975 -0.2272 -0.0191
  800THF     H611533   2.181   1.750   3.333 -0.8145  0.8796  1.1833
  800THF     H711534   2.068   1.843   3.238  0.3526 -0.9381 -1.2318
  800THF     C811535   2.257   1.841   3.146  0.4964 -0.0794 -0.1195
  800THF     C911536   2.392   1.886   3.200  0.3001  0.2916 -0.5262
  800THF    H1011537   2.209   1.916   3.082 -1.8903 -2.5741 -1.4633
  800THF    H1111538   2.269   1.755   3.080 -0.8415  0.9131 -1.7233
  800THF    H1211539   2.467   1.809   3.215  0.6232  0.7792  0.5095
  800THF    H1311540   2.435   1.957   3.129 -1.5138  0.9998 -0.9592
  801THF     O111541   0.738   1.532   3.139  0.0836  0.4009 -0.3098
  801THF     C211542   0.646   1.471   3.052  0.1305  0.1616  0.0124
  801THF     C311543   0.672   1.645   3.202 -0.0777  0.4385  0.3995
  801THF     H411544   0.686   1.384   3.000  0.2008  1.9007 -3.0489
  801THF     H511545   0.634   1.544   2.973  2.8885 -1.5026 -2.1414
  801THF     H611546   0.733   1.697   3.275  0.1002 -0.0570  0.6100
  801THF     H711547   0.645   1.718   3.126  2.3970 -0.2594 -1.2837
  801THF     C811548   0.550   1.564   3.250 -0.8988 -0.4857 -0.3140
  801THF     C911549   0.529   1.461   3.140 -0.4093 -0.5644  0.0721
  801THF    H1011550   0.469   1.636   3.261 -0.2486 -0.0239  2.0389
  801THF    H1111551   0.568   1.517   3.347 -1.1905 -0.9079 -0.4598
  801THF    H1211552   0.530   1.362   3.185  2.5032 -0.5954  0.1298
  801THF    H1311553   0.439   1.487   3.085 -0.6092 -1.8753 -0.2553
  802THF     O111554   2.289   5.420   3.669  0.1318 -0.4151 -0.2839
  802THF     C211555   2.347   5.318   3.581 -0.2334  0.3634 -0.1784
  802THF     C311556   2.378   5.456   3.773  0.4924 -0.1251 -0.1564
  802THF     H411557   2.389   5.361   3.491 -0.5644 -0.3565 -0.6887
  802THF     H511558   2.267   5.246   3.566 -2.4349  1.9104  2.9098
  802THF     H611559   2.396   5.563   3.774  0.2751 -0.0837  0.9237
  802THF     H711560   2.347   5.425   3.873 -0.3319 -1.3811 -0.7866
  802THF     C811561   2.507   5.380   3.744  0.7243  0.0574 -0.3042
  802THF     C911562   2.455   5.261   3.664  0.5540  0.2004 -0.0443
  802THF    H1011563   2.563   5.353   3.833 -1.1595  1.4331  1.4079
  802THF    H1111564   2.574   5.436   3.679  1.7537  0.2904  0.9273
  802THF    H1211565   2.543   5.224   3.611  0.5084  0.4801 -0.3168
  802THF    H1311566   2.417   5.186   3.733  0.2128 -1.6034 -2.0890
  803THF     O111567   4.539   0.809   2.984 -0.3633  0.2499 -0.1102
  803THF     C211568   4.579   0.736   3.093 -0.1376  0.3854 -0.5980
  803THF     C311569   4.642   0.897   2.929  0.8967  0.1196 -0.2917
  803THF     H411570   4.524   0.641   3.091  1.2544 -0.6967  3.4038
  803THF     H511571   4.541   0.768   3.190 -3.6956 -0.2888 -1.6203
  803THF     H611572   4.659   0.859   2.829  1.1933 -1.6624  0.3968
  803THF     H711573   4.607   1.000   2.940  0.1092 -0.2767  1.2311
  803THF     C811574   4.767   0.868   3.014 -0.5526  0.5736 -0.2143
  803THF     C911575   4.734   0.736   3.089  0.4137  0.4722  0.4267
  803THF    H1011576   4.776   0.947   3.089  1.0915  0.1596  0.0681
  803THF    H1111577   4.862   0.862   2.960 -0.7932 -0.1169 -0.5716
  803THF    H1211578   4.767   0.651   3.029  0.1248  2.5319 -2.9044
  803THF    H1311579   4.767   0.717   3.191  1.2456 -1.0015 -0.0975
  804THF     O111580   5.224   5.132   2.587  0.5736  0.7001  0.1195
  804THF     C211581   5.248   5.005   2.529 -0.6219  0.4956  0.5441
  804THF     C311582   5.086   5.153   2.581  0.6251  0.0856 -0.2427
  804THF     H411583   5.240   4.925   2.603  1.2547 -0.7361 -0.5065
  804THF     H511584   5.349   5.002   2.490 -0.0153 -2.7972  2.0111
  804THF     H611585   5.043   5.095   2.662 -0.1628  0.1024 -0.6431
  804THF     H711586   5.056   5.257   2.584  1.9828  0.5931 -2.2542
  804THF     C811587   5.035   5.083   2.449 -1.0408 -0.4656 -0.1787
  804THF     C911588   5.139   4.973   2.428 -0.2724  0.0529  0.3828
  804THF    H1011589   5.060   5.160   2.376  1.4069 -0.7398  0.2794
  804THF    H1111590   4.930   5.055   2.443 -0.5914 -1.9253 -2.9851
  804THF    H1211591   5.088   4.878   2.441 -2.0147  0.4474 -2.5193
  804THF    H1311592   5.170   4.976   2.323 -0.1750  1.2557  0.4372
  805THF     O111593   0.616   0.553   5.457  0.0997 -0.5467 -0.2703
  805THF     C211594   0.715   0.464   5.506  0.0191  0.1502  0.3538
  805THF     C311595   0.561   0.487   5.349  0.6359 -0.4117  0.2770
  805THF     H411596   0.673   0.399   5.582  0.8521  0.5545  1.1851
  805THF     H511597   0.796   0.521   5.554  1.0837 -0.3582 -0.7867
  805THF     H611598   0.494   0.409   5.387  0.4708 -1.3813 -1.8912
  805THF     H711599   0.505   0.558   5.288  1.1559 -1.8836 -2.0136
  805THF     C811600   0.677   0.427   5.276  0.2808 -0.0190 -0.2414
  805THF     C911601   0.757   0.377   5.391  0.8890 -0.2334 -0.3401
  805THF    H1011602   0.724   0.507   5.219 -2.9896  2.9350  0.8630
  805THF    H1111603   0.656   0.347   5.205  0.7685 -0.4128  0.0544
  805THF    H1211604   0.739   0.271   5.409 -0.1401 -0.3173 -1.6577
  805THF    H1311605   0.865   0.379   5.373  1.3005 -2.4991  1.4482
  806THF     O111606   4.525   3.128   4.341  0.2544 -0.4070 -0.3824
  806THF     C211607   4.443   3.081   4.234  0.4458  0.2788  0.4159
  806THF     C311608   4.637   3.046   4.359 -0.0780  0.0353 -0.0050
  806THF     H411609   4.438   3.147   4.147  0.5730 -0.7745 -0.4249
  806THF     H511610   4.344   3.047   4.262  1.2089 -2.0096  0.5497
  806THF     H611611   4.720   3.111   4.386 -0.7175  1.2177 -0.7875
  806THF     H711612   4.620   2.971   4.436 -2.7823 -1.3122 -1.7457
  806THF     C811613   4.655   2.974   4.225 -1.0467 -0.7531  0.0441
  806THF     C911614   4.505   2.953   4.198  0.0112  0.1142 -0.0379
  806THF    H1011615   4.713   2.885   4.250 -0.6235  0.0766  2.2589
  806THF    H1111616   4.702   3.035   4.148 -1.8881  0.1862  0.2532
  806THF    H1211617   4.484   2.912   4.099 -2.1809 -1.9178  1.1617
  806THF    H1311618   4.462   2.874   4.260  2.3780 -0.2657  1.2745
  807THF     O111619   3.821   1.857   2.037 -0.4372  0.4345  0.0723
  807THF     C211620   3.783   1.828   1.903  0.7026 -0.5862 -0.8210
  807THF     C311621   3.829   1.736   2.118 -0.0449 -0.7883  0.1229
  807THF     H411622   3.814   1.910   1.838  1.2413  0.7937  1.0815
  807THF     H511623   3.675   1.816   1.890  0.7110  0.3093 -1.8505
  807THF     H611624   3.876   1.741   2.216  0.5395 -2.1292 -0.0649
  807THF     H711625   3.723   1.714   2.135 -0.8507  3.4208  1.6729
  807THF     C811626   3.887   1.636   2.013  0.1723  0.2578 -0.3983
  807THF     C911627   3.870   1.706   1.878  0.9635  0.5853 -0.4963
  807THF    H1011628   3.843   1.539   2.034 -3.9001  1.9908 -0.0437
  807THF    H1111629   3.993   1.624   2.036 -0.0946 -1.0038  0.2371
  807THF    H1211630   3.968   1.737   1.840  0.3022  1.7352 -1.3224
  807THF    H1311631   3.826   1.634   1.809  0.1112 -0.4508  1.0599
  808THF     O111632   4.726   4.076   5.401  0.2173  0.0037 -0.0540
  808THF     C211633   4.758   4.072   5.263  0.2045 -0.0961 -0.0154
  808THF     C311634   4.834   4.028   5.475 -0.2359  0.2109  0.9248
  808THF     H411635   4.731   4.171   5.227  0.8330  1.3112  3.0510
  808THF     H511636   4.710   3.997   5.201  1.9754 -1.1123 -0.2308
  808THF     H611637   4.882   4.100   5.541 -0.5950 -1.6791  3.3837
  808THF     H711638   4.792   3.961   5.551  2.5724  0.7455  3.0960
  808THF     C811639   4.936   3.969   5.384 -0.9070  0.3071  0.5074
  808THF     C911640   4.911   4.060   5.262  0.2205  0.2043  0.4679
  808THF    H1011641   4.904   3.866   5.371 -0.9758  0.1983  1.4867
  808THF    H1111642   5.041   3.965   5.411 -0.3345  0.8107 -1.4621
  808THF    H1211643   4.955   4.159   5.270  1.0167 -0.0563 -0.5677
  808THF    H1311644   4.935   4.010   5.169 -1.9961 -0.2231  0.0534
  809THF     O111645   2.510   2.864   2.798 -0.1749 -0.0358  0.3768
  809THF     C211646   2.510   2.826   2.660 -0.6125 -0.3217  0.2990
  809THF     C311647   2.403   2.809   2.849 -0.1111  0.5380  0.5274
  809THF     H411648   2.613   2.822   2.626 -1.1969  0.2944 -1.6486
  809THF     H511649   2.472   2.905   2.596  0.6835 -0.0569 -0.1745
  809THF     H611650   2.404   2.810   2.958 -1.0521  0.2717  0.5506
  809THF     H711651   2.312   2.861   2.820  0.2898  1.4734  0.8957
  809THF     C811652   2.409   2.666   2.798  0.1156 -0.6429 -0.6577
  809THF     C911653   2.426   2.693   2.651 -0.0061 -0.2270 -0.3085
  809THF    H1011654   2.317   2.613   2.824  0.0491 -0.9663 -1.5172
  809THF    H1111655   2.484   2.605   2.847  1.0866  1.4281  0.5533
  809THF    H1211656   2.481   2.615   2.597 -1.1676  0.0390 -1.9677
  809THF    H1311657   2.332   2.722   2.604  0.4015  1.4004 -0.1641
  810THF     O111658   4.526   3.851   1.247  0.6800  0.4163 -0.0452
  810THF     C211659   4.386   3.876   1.251  0.8335 -0.0462  0.2194
  810THF     C311660   4.564   3.834   1.377  0.1734  1.1325 -0.4405
  810THF     H411661   4.318   3.829   1.180  0.9975 -1.3511  0.9037
  810THF     H511662   4.369   3.983   1.243  0.5850 -0.2105 -2.0566
  810THF     H611663   4.657   3.777   1.369 -0.9976 -1.1365  1.0462
  810THF     H711664   4.585   3.926   1.432  0.0085  0.8735  0.0575
  810THF     C811665   4.451   3.740   1.425  0.0397 -0.7833 -0.1832
  810THF     C911666   4.333   3.813   1.377  0.1294 -0.2140  0.0523
  810THF    H1011667   4.456   3.736   1.533  0.8693  1.8119 -0.0580
  810THF    H1111668   4.449   3.644   1.374 -2.0719  0.6491 -3.1381
  810THF    H1211669   4.250   3.744   1.364  0.9764 -1.1730 -0.3133
  810THF    H1311670   4.288   3.893   1.437  0.3650  0.1223 -0.2147
  811THF     O111671   2.650   5.299   3.336  0.5244  0.1502  0.3515
  811THF     C211672   2.775   5.234   3.316  0.1651 -0.7071 -0.7438
  811THF     C311673   2.670   5.414   3.414  0.3700  0.0350  0.7754
  811THF     H411674   2.795   5.182   3.222  0.3475  0.7127 -1.5331
  811THF     H511675   2.795   5.174   3.404  1.3226  1.4906  0.5813
  811THF     H611676   2.587   5.484   3.413  0.7885  0.6224  3.0517
  811THF     H711677   2.690   5.396   3.519 -1.4461  1.3677  1.3976
  811THF     C811678   2.790   5.474   3.357 -0.2407 -0.8170 -0.0757
  811THF     C911679   2.869   5.348   3.327  0.2964 -0.6447  0.8020
  811THF    H1011680   2.835   5.538   3.432 -0.0979 -0.6586 -0.2934
  811THF    H1111681   2.772   5.539   3.271 -0.1431 -1.3450 -0.5031
  811THF    H1211682   2.933   5.357   3.240  0.9428  0.2689  1.3483
  811THF    H1311683   2.935   5.324   3.411  2.8190  0.1896 -0.8272
  812THF     O111684   1.694   5.294   2.562 -0.2065  0.0811 -0.5297
  812THF     C211685   1.704   5.433   2.575 -0.3777  0.5248  0.4703
  812THF     C311686   1.636   5.240   2.674 -0.8077  0.8599 -0.0652
  812THF     H411687   1.718   5.477   2.476 -3.9713  1.3547  0.2229
  812THF     H511688   1.781   5.466   2.645  0.9133  0.5841 -0.9187
  812THF     H611689   1.575   5.159   2.635 -0.4645  1.3817 -1.7811
  812THF     H711690   1.705   5.213   2.754 -0.3472 -0.8207 -0.9756
  812THF     C811691   1.537   5.347   2.717  0.2211  0.3868  0.2253
  812THF     C911692   1.559   5.462   2.617 -0.3150 -0.0688 -0.3651
  812THF    H1011693   1.564   5.384   2.816  0.1772 -0.5649  0.6035
  812THF    H1111694   1.434   5.311   2.716  0.5826 -0.9868  2.6275
  812THF    H1211695   1.495   5.461   2.529  2.3349 -3.1830 -2.4815
  812THF    H1311696   1.542   5.551   2.677 -2.7026 -0.8160  0.1750
  813THF     O111697   4.598   4.145   0.238  0.4096  0.1310  0.5412
  813THF     C211698   4.542   4.090   0.360 -0.5478  0.4113 -0.2125
  813THF     C311699   4.502   4.202   0.154 -0.3339 -0.3170  0.1910
  813THF     H411700   4.587   4.154   0.436 -0.1174 -0.3906  0.2204
  813THF     H511701   4.576   3.988   0.375  1.3624  0.9078 -0.8693
  813THF     H611702   4.542   4.293   0.108 -1.9269 -0.8762 -2.4872
  813THF     H711703   4.484   4.127   0.077  0.5889 -2.2244  1.7341
  813THF     C811704   4.372   4.223   0.234 -0.1681  0.5908 -0.5107
  813THF     C911705   4.389   4.117   0.348  0.2077 -0.0291 -0.4023
  813THF    H1011706   4.292   4.209   0.162 -0.3396 -1.3111 -0.0213
  813THF    H1111707   4.367   4.322   0.279  0.2792  0.4894 -0.2204
  813THF    H1211708   4.337   4.142   0.440 -1.0985 -2.4988 -0.4103
  813THF    H1311709   4.325   4.042   0.301 -0.3105  0.5905 -0.7093
  814THF     O111710   1.542   5.156   2.050 -0.1606 -0.3990 -0.3183
  814THF     C211711   1.454   5.161   2.152 -0.0416  0.4144  0.2022
  814THF     C311712   1.657   5.231   2.083 -1.7001 -0.3910 -0.6059
  814THF     H411713   1.418   5.061   2.179 -0.3072 -0.5401 -3.2231
  814THF     H511714   1.362   5.212   2.124 -0.5421 -1.2259 -1.3065
  814THF     H611715   1.749   5.198   2.036 -1.5708  0.5339 -1.0110
  814THF     H711716   1.638   5.327   2.037 -3.7368 -1.9218 -3.2933
  814THF     C811717   1.660   5.245   2.235 -0.2375  0.1554  0.3830
  814THF     C911718   1.516   5.233   2.273  0.8219  0.5080 -0.0266
  814THF    H1011719   1.716   5.331   2.274 -0.4933 -0.5036  2.3333
  814THF    H1111720   1.719   5.160   2.269 -0.3813 -0.8555 -1.7621
  814THF    H1211721   1.501   5.187   2.371 -2.6171  1.5581  0.0792
  814THF    H1311722   1.482   5.337   2.269 -0.2078  0.1732 -0.1723
  815THF     O111723   0.401   2.538   1.797  0.0438  0.1739 -0.2191
  815THF     C211724   0.279   2.469   1.819  0.1739  0.1917 -0.3006
  815THF     C311725   0.509   2.458   1.840  0.1359 -0.3335 -0.3787
  815THF     H411726   0.252   2.413   1.730 -1.7571 -3.4441  2.3095
  815THF     H511727   0.194   2.535   1.835 -0.0241  0.2759 -1.5652
  815THF     H611728   0.514   2.374   1.770  0.8800 -0.7480  0.1639
  815THF     H711729   0.607   2.506   1.844  0.4535 -0.8466 -1.4889
  815THF     C811730   0.449   2.411   1.980  0.0782 -0.0864 -0.4435
  815THF     C911731   0.313   2.370   1.935  0.2808  0.9812 -0.4996
  815THF    H1011732   0.440   2.495   2.049 -0.1307  1.0301 -1.7704
  815THF    H1111733   0.509   2.330   2.022  0.7562  0.6575  0.0730
  815THF    H1211734   0.321   2.264   1.912 -1.3010  0.5530  0.7236
  815THF    H1311735   0.247   2.368   2.022  0.0040 -1.2666 -0.7129
  816THF     O111736   0.394   4.780   3.738  0.0148  0.4301  0.1235
  816THF     C211737   0.368   4.870   3.623  0.0474  0.1081 -0.3971
  816THF     C311738   0.261   4.727   3.766  0.0696 -0.2822  0.2584
  816THF     H411739   0.358   4.818   3.528 -2.1963  4.0839 -2.5884
  816THF     H511740   0.451   4.941   3.621  1.4570 -1.3074  2.1366
  816THF     H611741   0.241   4.648   3.693  2.0083 -1.8925  1.3771
  816THF     H711742   0.260   4.679   3.863  0.6513  1.3260  1.0959
  816THF     C811743   0.168   4.851   3.760  0.7156  0.4095  0.1512
  816THF     C911744   0.233   4.936   3.653 -0.4218 -0.4602 -0.0165
  816THF    H1011745   0.167   4.902   3.857 -0.7942 -0.1692  0.4822
  816THF    H1111746   0.065   4.835   3.728  0.6367  2.0396 -0.5110
  816THF    H1211747   0.167   4.936   3.565 -3.3717 -1.3829  2.0351
  816THF    H1311748   0.249   5.041   3.679  0.8590 -0.4067 -0.9193
  817THF     O111749   2.694   0.004   2.590  0.0664  0.0680 -0.0020
  817THF     C211750   2.621   0.069   2.490 -0.8359 -0.2731  0.4849
  817THF     C311751   2.752   0.122   2.655 -0.8685  0.4053 -0.1086
  817THF     H411752   2.555   0.003   2.435 -1.0058  0.9339 -0.8176
  817THF     H511753   2.673   0.106   2.401 -0.9104  0.2212  0.6439
  817THF     H611754   2.781   0.100   2.757  1.5954  0.1468 -0.8055
  817THF     H711755   2.842   0.149   2.599 -2.1382  1.0902 -1.9099
  817THF     C811756   2.641   0.215   2.671 -0.3951 -0.6938  0.4693
  817THF     C911757   2.541   0.181   2.561  0.1444 -0.2559 -0.0597
  817THF    H1011758   2.660   0.322   2.684 -2.9922 -0.1141  0.0858
  817THF    H1111759   2.589   0.201   2.766  1.4711 -0.1820  1.6310
  817THF    H1211760   2.458   0.129   2.607 -1.2328  1.4389 -0.5089
  817THF    H1311761   2.508   0.260   2.493 -1.3660 -2.3799 -1.9241
  818THF     O111762   1.073   4.592   0.002 -0.7222  0.2039  0.0625
  818THF     C211763   1.050   4.509  -0.110 -0.2685  0.3140  0.8041
  818THF     C311764   1.158   4.697  -0.048 -0.0936 -0.4055 -0.2603
  818THF     H411765   0.945   4.478  -0.115 -0.3633  0.3708  2.1891
  818THF     H511766   1.111   4.420  -0.096  0.6760  0.8128 -0.0640
  818THF     H611767   1.143   4.782   0.019  2.3519 -0.1626  0.0711
  818THF     H711768   1.266   4.682  -0.040 -0.1418 -0.8277 -0.4091
  818THF     C811769   1.120   4.720  -0.195 -1.0828 -0.2498 -0.6070
  818THF     C911770   1.084   4.585  -0.241 -0.0600 -0.2654 -0.0858
  818THF    H1011771   1.200   4.776  -0.243 -0.4859  2.4858  3.1642
  818THF    H1111772   1.031   4.780  -0.218  0.0036  0.7452 -2.4654
  818THF    H1211773   1.013   4.585  -0.325  1.1194  2.6040 -1.1979
  818THF    H1311774   1.168   4.535  -0.290 -0.5997  0.2492 -1.6184
  819THF     O111775   4.508   2.414   5.045  0.2974 -0.1988  0.2747
  819THF     C211776   4.639   2.417   4.997 -0.5677  0.2409  0.1596
  819THF     C311777   4.446   2.543   5.031 -0.9017 -0.1198  0.0104
  819THF     H411778   4.642   2.359   4.905  0.2587 -1.3346  1.1243
  819THF     H511779   4.694   2.359   5.071  1.5376  0.4205 -1.1887
  819THF     H611780   4.423   2.539   4.925 -3.0460  0.1310  0.4208
  819THF     H711781   4.358   2.547   5.095 -1.0723  0.0756 -0.2362
  819THF     C811782   4.566   2.627   5.069  0.2186 -0.9039  0.8608
  819THF     C911783   4.677   2.561   4.990 -0.3427  0.6026 -0.5235
  819THF    H1011784   4.592   2.640   5.174 -1.4755 -1.9441  1.4541
  819THF    H1111785   4.557   2.729   5.031  0.5233 -1.0381  0.4335
  819THF    H1211786   4.697   2.594   4.888  0.5890 -1.4497 -1.0557
  819THF    H1311787   4.771   2.584   5.039  0.4916 -0.4075 -1.5775
  820THF     O111788   3.757   1.338   0.114  0.1634 -0.1573  0.6609
  820THF     C211789   3.871   1.409   0.167 -0.6210 -0.7009 -0.5923
  820THF     C311790   3.784   1.200   0.130 -0.1284  0.4617  0.3113
  820THF     H411791   3.872   1.398   0.275 -0.3354  0.0539 -0.5130
  820THF     H511792   3.860   1.514   0.141  1.3248 -0.5082 -0.7569
  820THF     H611793   3.777   1.180   0.237  0.9383 -2.3116 -0.0748
  820THF     H711794   3.725   1.124   0.079 -1.1792 -0.2226  2.4520
  820THF     C811795   3.926   1.191   0.073 -0.3412  0.6480 -0.5884
  820THF     C911796   3.986   1.330   0.105 -0.2527 -0.5310 -0.3013
  820THF    H1011797   3.937   1.174  -0.035  1.0494  1.9316 -0.6741
  820THF    H1111798   3.979   1.106   0.116 -1.7728 -0.0712 -0.1676
  820THF    H1211799   4.071   1.325   0.173 -0.6492 -3.2173  0.0838
  820THF    H1311800   4.006   1.387   0.014 -1.5569 -0.2662 -0.4544
  821THF     O111801   5.305   3.459   2.564 -0.0232 -0.7461  0.3605
  821THF     C211802   5.264   3.495   2.694 -0.0238  0.4234  0.5150
  821THF     C311803   5.288   3.577   2.479 -0.1761 -0.0019  0.3193
  821THF     H411804   5.307   3.421   2.762  1.4095  0.6040 -0.1704
  821THF     H511805   5.156   3.502   2.708 -0.1017 -2.4780  2.0672
  821THF     H611806   5.353   3.572   2.391 -1.0675 -1.5939 -0.2964
  821THF     H711807   5.188   3.580   2.434 -0.7060 -0.9887  1.3962
  821THF     C811808   5.337   3.691   2.568  0.1503 -0.0706 -0.5537
  821THF     C911809   5.334   3.635   2.713  0.2047  0.0798  0.3279
  821THF    H1011810   5.274   3.778   2.550 -0.8295 -1.3342 -4.0891
  821THF    H1111811   5.439   3.712   2.534  0.6427 -3.4679 -1.6149
  821THF    H1211812   5.435   3.636   2.754  0.7699 -0.2043 -0.9981
  821THF    H1311813   5.271   3.696   2.777  0.5193  2.1327 -1.2052
  822THF     O111814   2.585   3.233   1.102 -0.3277  0.4743  0.5863
  822THF     C211815   2.558   3.365   1.065 -0.4294  0.2608 -0.6697
  822THF     C311816   2.730   3.230   1.113 -0.1498  0.0532  0.1737
  822THF     H411817   2.556   3.433   1.150 -1.0227 -0.8380  0.2322
  822THF     H511818   2.455   3.374   1.033 -0.2150  1.1566 -1.1368
  822THF     H611819   2.762   3.261   1.213  1.2244 -2.2757  0.5335
  822THF     H711820   2.771   3.130   1.113  2.2420  0.9584 -0.5877
  822THF     C811821   2.781   3.325   0.998  0.3042 -0.1578 -0.2186
  822THF     C911822   2.651   3.399   0.955 -0.4646  0.0380 -0.0383
  822THF    H1011823   2.830   3.269   0.918 -0.8769 -2.0682  0.3189
  822THF    H1111824   2.852   3.398   1.037  0.2175 -1.4232  2.5083
  822THF    H1211825   2.650   3.508   0.950  1.4546  0.0970  0.1763
  822THF    H1311826   2.614   3.357   0.861  2.0782 -1.6090 -0.3944
  823THF     O111827   3.604   4.358   2.983 -0.0760 -0.5924  0.4039
  823THF     C211828   3.706   4.425   2.907  0.3583  0.3601 -0.0879
  823THF     C311829   3.545   4.267   2.895 -0.7278 -0.0016  0.4591
  823THF     H411830   3.787   4.458   2.972 -0.7532  1.5834  0.7380
  823THF     H511831   3.663   4.521   2.877  1.0341  1.2654  1.6542
  823THF     H611832   3.489   4.192   2.951 -1.5371 -0.4587 -0.9275
  823THF     H711833   3.480   4.314   2.822 -0.9802 -1.7638 -0.5188
  823THF     C811834   3.658   4.208   2.809  0.2650 -0.0921 -0.5652
  823THF     C911835   3.738   4.337   2.793 -0.3133  0.1156 -0.0099
  823THF    H1011836   3.627   4.167   2.713  0.6210  1.0628 -1.2003
  823THF    H1111837   3.713   4.135   2.870  0.7522  0.6191 -0.1362
  823THF    H1211838   3.842   4.306   2.784 -0.3704  0.1462 -0.8203
  823THF    H1311839   3.727   4.374   2.691  1.5935  0.8925  0.0208
  824THF     O111840   5.328   2.463   0.702 -0.4134  0.5712  0.7892
  824THF     C211841   5.341   2.570   0.617 -0.1222  0.4403  0.3259
  824THF     C311842   5.454   2.403   0.728  0.1659 -0.2076  0.1468
  824THF     H411843   5.278   2.655   0.644  1.9263  3.0434 -2.3718
  824THF     H511844   5.312   2.539   0.516  0.1490  1.7829 -0.1860
  824THF     H611845   5.460   2.341   0.817 -0.9079 -0.8252 -0.1942
  824THF     H711846   5.476   2.344   0.639 -1.5716  2.0886 -1.9933
  824THF     C811847   5.549   2.532   0.736 -0.1613  0.5520 -0.0365
  824THF     C911848   5.481   2.623   0.639  1.1695 -0.1416 -0.1170
  824THF    H1011849   5.651   2.503   0.714 -0.1737 -0.1013  0.7251
  824THF    H1111850   5.551   2.574   0.837 -0.6968 -0.9070  0.6104
  824THF    H1211851   5.490   2.730   0.655  0.7423 -0.3540  1.8307
  824THF    H1311852   5.535   2.611   0.545 -2.9059  1.5466 -2.9436
  825THF     O111853   0.875   4.137   2.574  0.7211  0.7252  1.0075
  825THF     C211854   0.984   4.221   2.532 -0.6618  0.5361  0.1594
  825THF     C311855   0.910   4.004   2.523 -0.1616 -0.0653  0.7939
  825THF     H411856   1.064   4.197   2.601 -1.0903 -0.7421  0.2403
  825THF     H511857   0.952   4.324   2.551 -1.1447  0.0956  1.9632
  825THF     H611858   1.003   3.973   2.569 -0.0665  0.9299  1.3080
  825THF     H711859   0.829   3.933   2.542 -0.4319  0.0666  0.1837
  825THF     C811860   0.936   4.048   2.378  0.3286  0.6499  0.2639
  825THF     C911861   0.991   4.189   2.384 -1.3861  0.0480 -0.3377
  825THF    H1011862   0.839   4.053   2.328 -0.3225 -0.2294  1.3827
  825THF    H1111863   0.996   3.975   2.323 -1.9649 -3.0043  2.1773
  825THF    H1211864   1.097   4.189   2.356 -0.5006  0.4066  2.6925
  825THF    H1311865   0.936   4.267   2.331 -0.5556  1.5542  0.9298
  826THF     O111866   1.677   1.679   1.922 -0.3698 -0.0353 -0.2405
  826THF     C211867   1.812   1.704   1.889 -0.0825  0.3179 -0.2567
  826THF     C311868   1.626   1.796   1.977 -0.5108 -0.6233  0.3327
  826THF     H411869   1.862   1.646   1.812 -1.6593 -1.8186  0.2057
  826THF     H511870   1.871   1.673   1.976 -0.1122 -0.6803 -0.5719
  826THF     H611871   1.518   1.801   1.986 -0.3957  1.0729  1.3133
  826THF     H711872   1.676   1.808   2.073  2.4553 -2.8458 -0.7815
  826THF     C811873   1.688   1.900   1.882 -0.3603 -0.1661 -0.0514
  826THF     C911874   1.828   1.850   1.858 -0.3179 -0.2362 -0.3318
  826THF    H1011875   1.685   2.005   1.912 -0.9194  0.4081 -1.9434
  826THF    H1111876   1.636   1.898   1.786 -1.0571  0.3582  0.2990
  826THF    H1211877   1.845   1.870   1.752 -0.7738 -0.1111 -0.3813
  826THF    H1311878   1.907   1.906   1.909  0.1420  1.1753 -2.4541
  827THF     O111879   4.691   5.317   0.125  0.3322 -0.2011 -0.5734
  827THF     C211880   4.710   5.296   0.265 -0.1366  0.1351  0.1591
  827THF     C311881   4.819   5.340   0.065  0.0145 -0.8940  0.2040
  827THF     H411882   4.637   5.241   0.324  0.8881 -0.5971  0.7873
  827THF     H511883   4.727   5.393   0.313 -0.4319 -0.1198  0.7890
  827THF     H611884   4.831   5.355  -0.043 -2.8505 -0.9124 -0.2096
  827THF     H711885   4.843   5.437   0.106  1.5142 -0.9037 -0.5853
  827THF     C811886   4.900   5.230   0.130  0.0195 -0.5701 -0.1955
  827THF     C911887   4.843   5.225   0.269  0.5985  0.7131  0.3813
  827THF    H1011888   5.009   5.238   0.127 -0.0540  0.4529 -0.5176
  827THF    H1111889   4.875   5.136   0.082 -2.0272 -0.2724  0.1997
  827THF    H1211890   4.822   5.120   0.285  0.2119  0.4165 -1.7472
  827THF    H1311891   4.918   5.249   0.344  0.5888 -1.1040  1.0055
  828THF     O111892   4.463   4.548   2.057  0.2420 -0.9313  0.2063
  828THF     C211893   4.506   4.661   1.983  0.1743  0.2959  0.0405
  828THF     C311894   4.471   4.427   1.984  0.4333 -0.3154 -0.0878
  828THF     H411895   4.574   4.721   2.043 -0.4848  1.9964 -0.8508
  828THF     H511896   4.425   4.729   1.955  0.3275  0.1130 -0.8828
  828THF     H611897   4.481   4.342   2.052  0.2962 -1.3570 -1.3510
  828THF     H711898   4.382   4.413   1.924  0.4783 -2.0934  0.2211
  828THF     C811899   4.585   4.451   1.888 -0.0924  1.0790 -0.1551
  828THF     C911900   4.575   4.599   1.863 -1.0189  0.3482  0.0637
  828THF    H1011901   4.583   4.395   1.795 -0.9693 -0.8880  0.9852
  828THF    H1111902   4.681   4.416   1.925  0.2760  1.3215 -0.8684
  828THF    H1211903   4.667   4.654   1.842 -1.9663  1.3623 -1.6507
  828THF    H1311904   4.505   4.625   1.784  0.1842  1.9889 -0.5013
  829THF     O111905   4.858   0.994   2.060  0.7266 -0.4130 -0.5662
  829THF     C211906   4.910   1.064   2.171 -0.0103  0.6602 -0.1672
  829THF     C311907   4.778   0.892   2.123 -0.2257  0.1510  0.7849
  829THF     H411908   4.962   1.155   2.141  1.3810  0.0040  0.1814
  829THF     H511909   4.978   1.007   2.234 -0.7139  0.2392  0.2258
  829THF     H611910   4.722   0.836   2.049  2.5565 -0.1712 -1.2489
  829THF     H711911   4.846   0.832   2.183  1.7893 -0.9788 -2.3710
  829THF     C811912   4.688   0.986   2.199  0.3211 -0.1639 -0.1422
  829THF     C911913   4.780   1.095   2.251  0.2309 -0.1578 -0.5376
  829THF    H1011914   4.637   0.930   2.278  3.0650 -1.3734  0.8962
  829THF    H1111915   4.608   1.023   2.135 -0.3831  0.8462  1.2589
  829THF    H1211916   4.731   1.191   2.230  0.6386  0.6014  1.7731
  829THF    H1311917   4.790   1.070   2.356  0.2572 -2.8640 -1.1074
  830THF     O111918   3.767   5.385   0.889 -0.3192 -0.1218  0.3854
  830THF     C211919   3.745   5.390   0.747  0.1932 -0.0357 -0.4444
  830THF     C311920   3.846   5.503   0.936  0.4971  1.1256  0.0115
  830THF     H411921   3.645   5.347   0.742  0.1231 -0.1508  1.3899
  830THF     H511922   3.805   5.314   0.697  0.3314  1.0785 -2.0261
  830THF     H611923   3.804   5.530   1.033  0.9115 -0.4879  0.6688
  830THF     H711924   3.951   5.476   0.940  0.3411  0.3028 -0.9727
  830THF     C811925   3.803   5.603   0.826  0.5276  0.5060 -0.2888
  830THF     C911926   3.784   5.526   0.697  1.0542 -0.1553  0.1477
  830THF    H1011927   3.884   5.676   0.822  1.4106 -0.3570  0.9305
  830THF    H1111928   3.715   5.663   0.848 -0.7170 -1.3520  0.0485
  830THF    H1211929   3.724   5.577   0.622 -0.6865 -1.0911  0.8473
  830THF    H1311930   3.881   5.509   0.650  0.5083  0.5695 -1.2735
  831THF     O111931   5.229   1.197   3.799  0.3485 -0.2889 -0.4234
  831THF     C211932   5.328   1.157   3.700  0.1505 -0.1312  1.2571
  831THF     C311933   5.112   1.156   3.736  0.4942 -0.4373  0.0006
  831THF     H411934   5.433   1.171   3.728 -0.1526 -0.1089  2.4071
  831THF     H511935   5.307   1.210   3.607 -2.3173 -1.5324  0.9536
  831THF     H611936   5.028   1.152   3.805  1.0391  2.1112  0.9301
  831THF     H711937   5.081   1.228   3.661  1.6238 -1.3369 -1.3783
  831THF     C811938   5.138   1.025   3.672  0.4726  0.1754 -0.7326
  831THF     C911939   5.287   1.011   3.676 -0.3390  0.4734 -0.5483
  831THF    H1011940   5.094   1.038   3.573 -1.4042  1.7142  0.2151
  831THF    H1111941   5.088   0.943   3.724 -2.0417  2.0579  0.0266
  831THF    H1211942   5.321   0.952   3.761  0.1328  0.2142 -0.9146
  831THF    H1311943   5.314   0.969   3.579  0.7954 -0.1588  0.0276
  832THF     O111944   1.344   3.513   2.000  0.3447 -0.6951 -0.2972
  832THF     C211945   1.428   3.402   1.959  1.0227  0.5894 -0.0488
  832THF     C311946   1.217   3.456   2.028  0.2310  0.7416 -0.2220
  832THF     H411947   1.534   3.429   1.955  1.5751 -1.3779  0.2275
  832THF     H511948   1.396   3.364   1.862 -2.1619  1.4522  0.5550
  832THF     H611949   1.158   3.520   2.094 -0.2067  0.6797 -0.5533
  832THF     H711950   1.176   3.445   1.928  0.8240 -1.0980 -0.2975
  832THF     C811951   1.240   3.318   2.081 -1.3896  0.2082  1.0425
  832THF     C911952   1.391   3.293   2.067  0.1223 -0.3767 -0.4751
  832THF    H1011953   1.182   3.251   2.018 -2.3381  0.5669  1.5118
  832THF    H1111954   1.208   3.307   2.185  1.5108 -0.7433  1.9364
  832THF    H1211955   1.435   3.313   2.165  0.2626  1.5291 -0.8820
  832THF    H1311956   1.428   3.198   2.029  0.0017  0.0231 -1.6550
  833THF     O111957   4.650   1.487   2.931  0.3928  0.5460 -0.6065
  833THF     C211958   4.608   1.472   3.070 -0.2511  0.0147 -0.4927
  833THF     C311959   4.543   1.494   2.836 -0.2129 -0.4912  0.2700
  833THF     H411960   4.679   1.519   3.138  0.6723 -3.2523  0.9949
  833THF     H511961   4.603   1.368   3.101 -0.0503  0.1146 -0.1270
  833THF     H611962   4.571   1.556   2.750  0.5837  0.2790  1.0661
  833THF     H711963   4.517   1.391   2.811  1.1145 -1.3331  2.1236
  833THF     C811964   4.442   1.561   2.919 -0.7640  0.3322  0.2679
  833THF     C911965   4.469   1.539   3.067 -0.4199 -0.2200  0.4655
  833THF    H1011966   4.342   1.523   2.899  0.7002 -3.7382 -0.2801
  833THF    H1111967   4.444   1.669   2.903  0.5125  0.0222 -2.0260
  833THF    H1211968   4.485   1.631   3.124  2.2287 -0.5897  0.4461
  833THF    H1311969   4.393   1.478   3.115  0.1208 -0.2163  1.3447
  834THF     O111970   0.005   3.439   1.472 -0.3188  0.3265  0.2169
  834THF     C211971   0.094   3.501   1.563 -0.4110 -0.0566  0.3109
  834THF     C311972  -0.095   3.377   1.557  0.0026  0.1508  0.1436
  834THF     H411973   0.160   3.569   1.510  1.6933 -3.4908 -1.8568
  834THF     H511974   0.165   3.435   1.612 -1.4440 -1.1697  0.3739
  834THF     H611975  -0.182   3.340   1.504  1.1397 -2.0169 -0.3381
  834THF     H711976  -0.059   3.287   1.607 -1.7478 -1.5739 -1.5531
  834THF     C811977  -0.119   3.486   1.667  0.7548 -0.2997  0.1933
  834THF     C911978   0.003   3.570   1.668 -0.1756  0.1374  0.9670
  834THF    H1011979  -0.145   3.436   1.761  0.3167  1.0179  0.7922
  834THF    H1111980  -0.205   3.539   1.627 -0.9457 -2.5906  0.6004
  834THF    H1211981  -0.017   3.674   1.644 -0.3176 -0.5466 -2.3786
  834THF    H1311982   0.063   3.569   1.759 -0.2268 -0.2936  0.9982
  835THF     O111983   0.767   5.376   4.309 -0.4822 -0.4773 -0.3172
  835THF     C211984   0.841   5.347   4.429  0.2287  0.4246 -0.5044
  835THF     C311985   0.667   5.475   4.349 -0.1822 -0.6660  0.6978
  835THF     H411986   0.944   5.382   4.428  0.3237  0.1455 -1.3633
  835THF     H511987   0.848   5.239   4.439  0.2576  0.4320 -0.4476
  835THF     H611988   0.722   5.567   4.366  1.3557 -1.0615 -1.6239
  835THF     H711989   0.591   5.492   4.272  1.4469  0.7206 -0.6995
  835THF     C811990   0.620   5.430   4.484 -0.1926  0.6330  0.1331
  835THF     C911991   0.758   5.414   4.544 -0.5214  0.0374 -0.2219
  835THF    H1011992   0.564   5.336   4.487 -1.3138  1.1205 -2.6762
  835THF    H1111993   0.566   5.512   4.531 -0.8746 -0.2985  1.0442
  835THF    H1211994   0.806   5.502   4.588 -1.1621 -0.2906  1.1823
  835THF    H1311995   0.752   5.350   4.632 -1.4704  0.1857 -0.1756
  836THF     O111996   2.696   3.769   2.767  0.0578 -0.0884 -0.0062
  836THF     C211997   2.582   3.775   2.678 -0.9128 -0.1101  0.4466
  836THF     C311998   2.656   3.689   2.879 -0.0617 -0.4552  0.4731
  836THF     H411999   2.570   3.690   2.611  0.8070  0.8826 -1.2261
  836THF     H512000   2.587   3.857   2.606  3.5601 -0.5636 -0.0789
  836THF     H612001   2.678   3.583   2.867  1.4474 -0.3341  1.8424
  836THF     H712002   2.707   3.722   2.969  1.6427 -2.3303  0.2614
  836THF     C812003   2.506   3.701   2.882 -0.0724  0.2747  0.5039
  836THF     C912004   2.464   3.787   2.760 -0.3049 -0.1516 -0.7514
  836THF    H1012005   2.466   3.735   2.978 -3.0222  4.7778 -1.9454
  836THF    H1112006   2.458   3.605   2.865  0.0049 -0.0387  1.9386
  836THF    H1212007   2.377   3.752   2.704 -0.6069 -0.4245 -0.1188
  836THF    H1312008   2.456   3.893   2.786  1.0246 -0.3927  0.7958
  837THF     O112009   1.459   5.419   5.218  0.3174 -0.2112 -0.2216
  837THF     C212010   1.576   5.355   5.235  0.1288 -0.0283  0.3575
  837THF     C312011   1.453   5.543   5.293  0.1573 -0.6096  0.0034
  837THF     H412012   1.621   5.335   5.137  1.7986 -0.1280  1.1078
  837THF     H512013   1.562   5.267   5.297 -1.0335 -0.7524 -0.8722
  837THF     H612014   1.398   5.629   5.256 -0.6382  0.0146  2.4513
  837THF     H712015   1.413   5.522   5.393 -0.0311  2.7092  0.7530
  837THF     C812016   1.605   5.579   5.302  0.8807  0.4138  0.0724
  837THF     C912017   1.673   5.445   5.308  0.1534  0.0363 -0.3347
  837THF    H1012018   1.630   5.649   5.382 -1.8375  1.2949  0.2727
  837THF    H1112019   1.643   5.619   5.208  2.0708  0.5387  0.5959
  837THF    H1212020   1.776   5.448   5.275  0.1012  0.2658 -0.4781
  837THF    H1312021   1.678   5.412   5.412 -2.5061  1.5995  0.3954
  838THF     O112022   5.233   4.296   2.328 -0.4360  0.4624  0.6345
  838THF     C212023   5.162   4.228   2.225 -0.1511 -0.5708  0.5231
  838THF     C312024   5.224   4.229   2.451  0.0192  0.4475  0.0884
  838THF     H412025   5.202   4.219   2.124  2.1389 -3.3183  1.5388
  838THF     H512026   5.062   4.270   2.210 -0.0393 -1.0723 -2.1221
  838THF     H612027   5.319   4.201   2.498 -0.6388 -1.5490  0.3137
  838THF     H712028   5.172   4.296   2.519  0.9278  1.8852 -0.5718
  838THF     C812029   5.144   4.100   2.436  0.6139 -0.4454  0.9520
  838THF     C912030   5.143   4.082   2.281 -0.0047 -0.0033 -0.6415
  838THF    H1012031   5.043   4.127   2.469  0.1615  0.4026 -1.0074
  838THF    H1112032   5.183   4.009   2.482  1.3776  0.1561  1.5250
  838THF    H1212033   5.226   4.018   2.252  1.0445  0.2593  1.5562
  838THF    H1312034   5.054   4.037   2.238 -1.1105  1.5923 -0.1214
  839THF     O112035   4.278   1.693   3.342 -0.1179 -0.4090  0.1943
  839THF     C212036   4.229   1.562   3.371  0.3647 -0.3895 -0.5742
  839THF     C312037   4.245   1.780   3.445 -0.4550 -0.0963 -0.0097
  839THF     H412038   4.311   1.498   3.403  0.6357  0.8287  1.3561
  839THF     H512039   4.190   1.532   3.274 -1.6774  0.7115 -0.1665
  839THF     H612040   4.335   1.823   3.489  0.0602 -1.9055  0.7870
  839THF     H712041   4.183   1.860   3.404  0.5696  0.7439  0.0229
  839THF     C812042   4.169   1.706   3.555 -0.1105  0.1993 -0.0207
  839THF     C912043   4.126   1.576   3.481  0.3098 -0.4570 -0.1498
  839THF    H1012044   4.093   1.762   3.609 -0.8170 -0.5312 -0.2557
  839THF    H1112045   4.240   1.686   3.636 -0.6459 -0.9163  0.1833
  839THF    H1212046   4.130   1.498   3.557 -0.5374  0.5851  1.0052
  839THF    H1312047   4.025   1.588   3.443  1.1336  1.0282 -2.0031
  840THF     O112048   0.601   0.967   4.210 -0.2577  0.6668 -0.0334
  840THF     C212049   0.689   0.963   4.320 -0.4715 -0.2122  0.3737
  840THF     C312050   0.490   0.890   4.256 -0.6056  0.6446  0.0727
  840THF     H412051   0.765   1.040   4.308 -0.0263 -1.0605 -3.4994
  840THF     H512052   0.732   0.864   4.335 -0.1948 -0.4425 -1.5983
  840THF     H612053   0.413   0.920   4.185 -0.6283  0.7510  0.1410
  840THF     H712054   0.525   0.788   4.267 -1.4030 -0.0715 -3.1262
  840THF     C812055   0.468   0.944   4.395  0.9569  0.6863  0.2843
  840THF     C912056   0.604   0.994   4.441 -0.0097 -0.6573 -0.5355
  840THF    H1012057   0.425   0.875   4.469  1.2902  1.6847  1.4408
  840THF    H1112058   0.405   1.033   4.397 -0.0466 -0.0074  1.3403
  840THF    H1212059   0.598   1.102   4.453  2.6548 -0.1998 -2.4802
  840THF    H1312060   0.633   0.946   4.535 -3.2068 -1.7236  0.0283
  841THF     O112061   0.100   4.814   1.179 -0.0804 -0.0544  0.2647
  841THF     C212062   0.196   4.910   1.235  0.2270 -0.1003 -0.2426
  841THF     C312063   0.175   4.726   1.099 -0.5210 -0.0659 -0.1139
  841THF     H412064   0.157   4.969   1.318 -1.0476 -1.9789  0.5362
  841THF     H512065   0.214   4.979   1.152 -2.4332  0.9594 -0.0299
  841THF     H612066   0.125   4.629   1.102  1.3245 -1.0469  1.7396
  841THF     H712067   0.186   4.751   0.993  1.5746 -1.3240 -0.2549
  841THF     C812068   0.311   4.711   1.163 -0.9551 -0.1269 -0.2246
  841THF     C912069   0.303   4.810   1.281  0.0263  0.0077  0.2931
  841THF    H1012070   0.402   4.737   1.110  0.4546 -1.0023  1.6363
  841THF    H1112071   0.332   4.613   1.206 -0.7543 -1.0837 -2.3712
  841THF    H1212072   0.274   4.763   1.375 -0.5055 -2.2263 -0.9227
  841THF    H1312073   0.398   4.861   1.298  0.2669 -0.4968  0.4790
  842THF     O112074   3.153   4.685   4.875  0.0437  0.5517  0.8243
  842THF     C212075   3.064   4.779   4.815  0.7049  0.6803 -1.0019
  842THF     C312076   3.247   4.754   4.953  0.1624  0.2180  0.3573
  842THF     H412077   2.971   4.743   4.770 -0.1739 -0.9790  1.8896
  842THF     H512078   3.117   4.841   4.743 -0.2188  1.8943 -0.6573
  842THF     H612079   3.299   4.685   5.020 -1.2343 -0.3570  0.8727
  842THF     H712080   3.323   4.796   4.886 -0.0116  0.6523  0.4268
  842THF     C812081   3.157   4.854   5.021 -0.1756 -0.1071 -0.4319
  842THF     C912082   3.029   4.850   4.941  0.0151 -0.0139 -0.3631
  842THF    H1012083   3.197   4.955   5.017 -2.9255  1.0815 -0.3575
  842THF    H1112084   3.144   4.825   5.125  0.0933 -2.9401 -1.1100
  842THF    H1212085   2.950   4.796   4.992 -1.2630  1.5104 -0.6680
  842THF    H1312086   2.985   4.948   4.921  0.4652 -0.0810 -1.8708
  843THF     O112087   3.939   4.575   1.031 -0.2995  0.0534  0.3034
  843THF     C212088   3.899   4.553   1.165  0.0814 -0.2796  0.7353
  843THF     C312089   4.014   4.698   1.038 -0.1311  0.7658  0.3041
  843THF     H412090   3.985   4.504   1.211  2.1931 -1.7868 -4.1516
  843THF     H512091   3.807   4.494   1.171  0.2785 -1.2756 -3.1477
  843THF     H612092   4.119   4.676   1.057  0.0818  0.8753 -0.7168
  843THF     H712093   3.998   4.754   0.946 -0.7893  1.4235  0.8061
  843THF     C812094   3.950   4.789   1.145 -0.1980  0.3994 -0.8262
  843THF     C912095   3.866   4.687   1.231 -0.3372 -0.1211  0.4747
  843THF    H1012096   3.883   4.864   1.102 -2.1885 -0.7081  0.2327
  843THF    H1112097   4.025   4.838   1.208 -2.2736  0.5108  1.7125
  843THF    H1212098   3.885   4.703   1.337  1.3721 -4.4218  1.0354
  843THF    H1312099   3.760   4.704   1.211 -0.6047 -0.3794  1.5902
  844THF     O112100   1.009   1.822   2.239  0.5077 -0.2261 -0.1260
  844THF     C212101   0.901   1.916   2.218  0.2180 -0.1994 -0.9369
  844THF     C312102   1.005   1.720   2.142  0.3149  0.2033  0.2553
  844THF     H412103   0.925   2.023   2.215  0.4659 -0.2459 -0.6798
  844THF     H512104   0.831   1.898   2.300 -1.8124  0.1343 -2.5103
  844THF     H612105   1.068   1.742   2.055 -0.0881  1.4786  0.2666
  844THF     H712106   1.048   1.626   2.176 -1.2032 -1.9038 -3.0749
  844THF     C812107   0.861   1.715   2.093 -0.0671 -0.0309 -0.6489
  844THF     C912108   0.827   1.863   2.098  0.0563  0.6253  0.4168
  844THF    H1012109   0.811   1.665   2.176  0.3260  1.7946  0.7722
  844THF    H1112110   0.846   1.668   1.996  1.4650 -4.2610  0.9113
  844THF    H1212111   0.858   1.912   2.006 -0.8670  0.9488  0.2630
  844THF    H1312112   0.721   1.888   2.100  0.2030  1.2212  1.1917
  845THF     O112113   2.552   4.883   3.204 -0.0012 -0.0351  0.5323
  845THF     C212114   2.461   4.982   3.173 -1.0411  0.2025  0.0207
  845THF     C312115   2.524   4.847   3.335 -0.8242 -0.2293 -0.1164
  845THF     H412116   2.405   4.958   3.083  0.7602 -1.0241 -0.8281
  845THF     H512117   2.518   5.074   3.161 -0.1720 -0.1837  1.0137
  845THF     H612118   2.471   4.752   3.324  1.4320 -1.4347 -1.4641
  845THF     H712119   2.618   4.824   3.385  0.2087 -1.0442 -2.2711
  845THF     C812120   2.454   4.961   3.407  0.4183  1.2835 -0.4116
  845THF     C912121   2.376   5.012   3.296  0.2229 -0.1479  0.4666
  845THF    H1012122   2.528   5.039   3.425  2.5943 -0.3253 -1.8215
  845THF    H1112123   2.401   4.929   3.497 -0.8139  1.2700 -1.1140
  845THF    H1212124   2.279   4.963   3.291  0.9169 -1.8103  2.3134
  845THF    H1312125   2.347   5.116   3.314 -2.2923 -0.8002  0.5319
  846THF     O112126   0.213   1.310   3.545  0.5173 -0.3637 -0.3798
  846THF     C212127   0.289   1.436   3.528  0.2961  0.3965  0.2631
  846THF     C312128   0.081   1.322   3.484 -0.3805  0.1124  0.6239
  846THF     H412129   0.397   1.419   3.535 -0.1252 -1.9373  2.5787
  846THF     H512130   0.251   1.499   3.608 -2.0688 -1.9830  1.1624
  846THF     H612131   0.062   1.217   3.462  0.8479  0.1580 -0.8043
  846THF     H712132   0.011   1.371   3.552 -1.5177 -1.2751  0.5073
  846THF     C812133   0.121   1.397   3.351  0.6040 -0.4318  0.0001
  846THF     C912134   0.242   1.482   3.393 -0.0957 -0.6163  0.4416
  846THF    H1012135   0.044   1.461   3.308  0.2434 -0.5154  0.5008
  846THF    H1112136   0.150   1.322   3.278  0.0266  0.4153 -1.1273
  846THF    H1212137   0.330   1.467   3.331  0.8035 -0.4837  1.6373
  846THF    H1312138   0.219   1.588   3.390 -0.8153 -0.7434  1.0439
  847THF     O112139   4.907   2.270   5.128 -0.2432  0.3027 -0.2667
  847THF     C212140   5.039   2.262   5.073  0.2773  0.1716  0.0209
  847THF     C312141   4.874   2.162   5.204 -0.1989 -0.0779 -0.5200
  847THF     H412142   5.096   2.354   5.079  0.0383  0.3538 -0.4555
  847THF     H512143   5.028   2.230   4.970  1.7375 -0.9495  0.1762
  847THF     H612144   4.864   2.185   5.310 -0.9755  2.0394 -1.0081
  847THF     H712145   4.778   2.118   5.180  0.0719 -1.5037  0.7981
  847THF     C812146   4.982   2.061   5.173  0.4887 -0.5478  0.6186
  847THF     C912147   5.099   2.150   5.149 -0.5414 -0.0379  0.1323
  847THF    H1012148   4.960   2.005   5.082  0.3355  1.0899 -0.3912
  847THF    H1112149   5.013   1.984   5.243 -1.1504 -2.4775 -0.6547
  847THF    H1212150   5.133   2.189   5.245  0.5956 -0.9335  0.1217
  847THF    H1312151   5.176   2.100   5.089 -0.4668  0.0386  0.1644
  848THF     O112152   5.363   1.604   0.690  0.3136 -0.0363  0.8499
  848THF     C212153   5.232   1.658   0.681  0.1596  0.6849 -0.7630
  848THF     C312154   5.344   1.478   0.755  0.3310 -0.4245 -0.2776
  848THF     H412155   5.236   1.720   0.592 -0.8252  3.3607  0.9461
  848THF     H512156   5.205   1.726   0.761 -1.1161 -1.1668  0.4370
  848THF     H612157   5.425   1.416   0.717 -0.2078 -2.1698  1.2884
  848THF     H712158   5.335   1.490   0.863 -0.2990 -0.2993 -0.3399
  848THF     C812159   5.215   1.421   0.692  0.1187  0.3071 -0.4133
  848THF     C912160   5.132   1.537   0.660 -0.0233 -0.2649  1.0907
  848THF    H1012161   5.163   1.348   0.753  1.3812 -1.6903 -1.6014
  848THF    H1112162   5.242   1.366   0.602  0.9681  1.6083 -0.9837
  848THF    H1212163   5.106   1.541   0.554  2.6658  1.1011  0.3888
  848THF    H1312164   5.037   1.548   0.712  0.2587 -1.0854  1.8113
  849THF     O112165   1.927   4.618   3.604 -0.4122 -0.1930  0.6567
  849THF     C212166   1.907   4.571   3.728 -0.2457 -0.1150  0.4460
  849THF     C312167   1.808   4.675   3.556  0.1387 -0.5754 -0.2998
  849THF     H412168   2.002   4.569   3.781  0.4159  1.0471 -0.6460
  849THF     H512169   1.872   4.468   3.718  0.3257 -0.1983 -0.9236
  849THF     H612170   1.807   4.737   3.466 -0.2595 -1.5074 -0.9413
  849THF     H712171   1.740   4.592   3.543 -0.0987 -0.9303  2.6445
  849THF     C812172   1.754   4.751   3.674  0.3280 -0.7660  0.5698
  849THF     C912173   1.816   4.678   3.787  0.0098  0.9816 -0.4274
  849THF    H1012174   1.645   4.754   3.681  0.2501 -1.1300 -0.3615
  849THF    H1112175   1.794   4.851   3.659  1.0410 -0.7726  2.1759
  849THF    H1212176   1.859   4.759   3.844  0.0757  2.0743 -1.9734
  849THF    H1312177   1.747   4.621   3.848  0.0813  0.2252 -1.0288
  850THF     O112178   2.790   2.698   2.125 -0.0133  0.1678 -0.0202
  850THF     C212179   2.850   2.764   2.013 -0.0471  0.2348  0.3104
  850THF     C312180   2.729   2.580   2.081  0.0945  0.1577  0.5007
  850THF     H412181   2.955   2.778   2.039  0.5313 -0.4472 -1.5256
  850THF     H512182   2.802   2.861   2.003 -0.9816  0.1277  2.9042
  850THF     H612183   2.778   2.488   2.113 -3.0519 -1.7884  0.2184
  850THF     H712184   2.634   2.587   2.135  0.7413  0.9739  1.5540
  850THF     C812185   2.711   2.590   1.933  0.3155 -0.2386 -0.0284
  850THF     C912186   2.824   2.677   1.884  0.3264  0.0497 -1.0861
  850THF    H1012187   2.614   2.639   1.924  0.5282 -0.0034 -1.1685
  850THF    H1112188   2.713   2.498   1.876  0.2963  0.2127 -0.7746
  850THF    H1212189   2.899   2.600   1.870  0.3903 -0.8682  2.9782
  850THF    H1312190   2.819   2.731   1.790  1.0122  0.0756 -1.1093
  851THF     O112191   1.093   1.323   1.611  0.1514 -0.0213  0.1153
  851THF     C212192   0.985   1.407   1.662 -0.6238  0.0163 -1.1774
  851THF     C312193   1.078   1.331   1.469 -0.4635  0.2853 -0.1450
  851THF     H412194   0.984   1.418   1.771  0.0002  1.8077 -1.3269
  851THF     H512195   0.888   1.358   1.648 -0.7822 -0.3849  0.9338
  851THF     H612196   1.172   1.295   1.428  0.6465  1.6891  1.0944
  851THF     H712197   0.999   1.263   1.436  1.2361 -1.2118 -1.3521
  851THF     C812198   1.037   1.479   1.442  0.1344 -0.0006 -0.0467
  851THF     C912199   0.969   1.529   1.572 -0.3091  0.6724  0.4034
  851THF    H1012200   0.970   1.474   1.356 -1.0948 -0.3509  0.9021
  851THF    H1112201   1.114   1.549   1.411  0.0901  0.7260  1.4098
  851THF    H1212202   1.029   1.602   1.626 -0.4119  0.8568  0.2698
  851THF    H1312203   0.864   1.554   1.563 -0.9746 -2.4234 -2.6194
  852THF     O112204   2.526   4.404   0.283 -0.3532 -0.1216  0.2520
  852THF     C212205   2.577   4.356   0.156 -0.0515 -0.7407 -0.4474
  852THF     C312206   2.513   4.542   0.292  0.0145  0.0602 -0.0457
  852THF     H412207   2.540   4.255   0.134 -2.0877 -0.1836  0.1230
  852THF     H512208   2.686   4.357   0.155 -0.0424  1.0206 -0.5674
  852THF     H612209   2.414   4.570   0.328 -0.4992  3.0453 -3.2617
  852THF     H712210   2.588   4.579   0.363 -1.1627 -0.7199  1.6845
  852THF     C812211   2.528   4.583   0.146  0.3780  0.1296 -0.0797
  852THF     C912212   2.504   4.455   0.064  0.0741  0.1199 -0.3762
  852THF    H1012213   2.628   4.616   0.119  0.7581 -2.4724 -2.4017
  852THF    H1112214   2.457   4.664   0.128 -0.3591 -0.9163 -2.3516
  852THF    H1212215   2.399   4.426   0.057  0.0245  0.3813 -0.7497
  852THF    H1312216   2.551   4.475  -0.032  1.1296  0.3930  0.1861
  853THF     O112217   3.339   0.260   1.364  0.2715 -0.1298  0.1809
  853THF     C212218   3.360   0.252   1.509 -0.7106 -0.3650 -0.7123
  853THF     C312219   3.366   0.388   1.328 -0.0656  0.0755 -0.0811
  853THF     H412220   3.417   0.162   1.531 -0.7494 -0.5133 -1.2007
  853THF     H512221   3.268   0.240   1.567 -0.1910 -1.0303 -0.0035
  853THF     H612222   3.422   0.382   1.235  1.2826  3.9743  0.2750
  853THF     H712223   3.278   0.452   1.315 -1.0674 -1.0760  0.8003
  853THF     C812224   3.469   0.445   1.422  0.3269 -0.3510 -1.1073
  853THF     C912225   3.428   0.380   1.552 -0.4882 -0.3106  0.7977
  853THF    H1012226   3.461   0.551   1.447 -1.2190 -0.8590  0.7962
  853THF    H1112227   3.572   0.437   1.388  0.0767  0.1183 -1.9837
  853THF    H1212228   3.520   0.357   1.605  0.5829 -1.2864 -1.3301
  853THF    H1312229   3.356   0.439   1.607 -1.1600 -0.8312  0.4872
  854THF     O112230   1.585   4.559   1.312  0.5245  0.8199 -0.3705
  854THF     C212231   1.556   4.450   1.227  0.5530  0.1086 -0.7710
  854THF     C312232   1.715   4.545   1.367  0.2688 -0.1746 -0.0260
  854THF     H412233   1.491   4.483   1.146  0.1030 -0.3125 -0.5925
  854THF     H512234   1.498   4.375   1.282  1.5188  0.7118  1.1497
  854THF     H612235   1.740   4.646   1.400  2.2256  0.2535 -2.5469
  854THF     H712236   1.708   4.478   1.453  0.4155 -1.3616 -0.9108
  854THF     C812237   1.787   4.498   1.243 -0.5818  0.0457  0.3403
  854THF     C912238   1.695   4.397   1.175 -0.6538 -0.3550  0.0934
  854THF    H1012239   1.886   4.467   1.278 -0.3555  0.2390 -0.1292
  854THF    H1112240   1.790   4.582   1.174 -3.0548  0.2687  0.4129
  854THF    H1212241   1.690   4.403   1.067 -0.5625 -1.5831  0.0105
  854THF    H1312242   1.734   4.297   1.195 -1.5853 -1.1885 -2.0116
  855THF     O112243   2.235   4.517   2.991  0.3661 -0.3137  0.1721
  855THF     C212244   2.346   4.496   3.070 -0.0082 -0.5473 -0.0800
  855THF     C312245   2.181   4.640   3.028  0.5419  0.2222 -0.3755
  855THF     H412246   2.435   4.546   3.032  0.2687 -0.9239  0.0660
  855THF     H512247   2.372   4.390   3.068  1.3871 -0.2446  0.9144
  855THF     H612248   2.248   4.717   2.990  0.8334 -0.1913 -0.7045
  855THF     H712249   2.082   4.667   2.989  0.4511  0.9931  0.3616
  855THF     C812250   2.198   4.646   3.178  0.3993  0.1561 -0.6176
  855THF     C912251   2.297   4.531   3.209 -0.1806 -0.6982 -0.5985
  855THF    H1012252   2.106   4.609   3.224  2.0104 -0.5765  2.2054
  855THF    H1112253   2.228   4.742   3.221  0.7344 -0.1361 -0.1961
  855THF    H1212254   2.381   4.561   3.272 -0.7729 -1.9783  0.8404
  855THF    H1312255   2.251   4.447   3.259  0.6829  0.3703  2.1843
  856THF     O112256   2.270   1.143   4.873 -0.0428 -0.5973 -0.4814
  856THF     C212257   2.292   1.276   4.917  0.8153 -0.1274  0.3094
  856THF     C312258   2.132   1.106   4.882 -0.2194  0.3434  0.1060
  856THF     H412259   2.381   1.309   4.862 -0.0334 -0.8049 -1.5845
  856THF     H512260   2.307   1.277   5.025  1.9282 -1.2561  0.1905
  856THF     H612261   2.097   1.081   4.782 -0.3344  0.4560  0.1178
  856THF     H712262   2.125   1.018   4.947  0.7888 -0.3818 -0.7372
  856THF     C812263   2.054   1.236   4.922  0.0936 -0.4943 -0.4599
  856THF     C912264   2.158   1.345   4.884  0.9865 -0.6659 -0.2751
  856THF    H1012265   2.048   1.241   5.030  1.7268 -1.1770 -0.3009
  856THF    H1112266   1.957   1.238   4.872 -1.3027  0.0086  2.1344
  856THF    H1212267   2.157   1.361   4.776 -0.4504 -2.6393 -0.6043
  856THF    H1312268   2.151   1.438   4.941  2.3342 -0.7871  0.1195
  857THF     O112269   4.925   2.000   1.822 -0.5437  0.3103 -0.3318
  857THF     C212270   5.000   2.058   1.932  0.4052 -0.1805  0.0312
  857THF     C312271   4.838   1.903   1.875 -0.0396 -0.2956  0.3665
  857THF     H412272   4.945   2.135   1.986  1.6382  0.7514 -0.0142
  857THF     H512273   5.090   2.102   1.890  0.0879  0.6389  0.1904
  857THF     H612274   4.744   1.951   1.902  0.3426 -0.7132  2.6178
  857THF     H712275   4.817   1.837   1.791 -0.3479  1.7360 -1.2316
  857THF     C812276   4.907   1.845   2.003 -0.0169 -0.5717 -0.6539
  857THF     C912277   5.034   1.930   2.015 -0.1980 -0.2919  0.3401
  857THF    H1012278   4.933   1.742   1.980 -1.5369 -0.8011 -1.4940
  857THF    H1112279   4.847   1.848   2.094 -0.1350 -0.5392 -0.7327
  857THF    H1212280   5.064   1.951   2.117  1.0606  0.1246 -0.0886
  857THF    H1312281   5.122   1.885   1.968 -0.9302 -0.3789 -1.0037
  858THF     O112282   1.346   5.212   3.901  0.2576 -1.1252 -0.2428
  858THF     C212283   1.303   5.099   3.827 -0.4247  0.0434  0.4040
  858THF     C312284   1.246   5.314   3.890  0.8856 -0.9575  0.5935
  858THF     H412285   1.249   5.021   3.881 -1.7042  0.3127 -0.4612
  858THF     H512286   1.392   5.056   3.780 -0.5520  0.2014  0.0121
  858THF     H612287   1.164   5.294   3.959  0.3377  0.2906  0.3272
  858THF     H712288   1.288   5.411   3.916 -1.3921 -0.4081  2.5385
  858THF     C812289   1.199   5.299   3.744 -0.3415  0.4534  0.0303
  858THF     C912290   1.206   5.152   3.715 -0.1678  0.4765  0.1003
  858THF    H1012291   1.273   5.353   3.685 -0.3974  0.2657 -0.2110
  858THF    H1112292   1.099   5.338   3.724 -2.0915 -2.5318  2.0769
  858THF    H1212293   1.106   5.112   3.731 -0.7488  2.2221  0.9956
  858THF    H1312294   1.258   5.130   3.621  1.7007  1.6249  0.8084
  859THF     O112295   2.038   2.025   5.459  0.1855 -0.1583 -0.0664
  859THF     C212296   2.099   2.039   5.328  0.5492  0.3336  0.3482
  859THF     C312297   2.126   1.947   5.533 -0.6230 -0.1651 -0.0583
  859THF     H412298   2.073   2.138   5.292 -0.5021 -0.6949 -1.8999
  859THF     H512299   2.066   1.966   5.254  1.4059  1.1870 -0.9204
  859THF     H612300   2.111   1.947   5.641  0.0132  1.1139  0.0594
  859THF     H712301   2.111   1.842   5.510 -0.6551  0.0535 -1.0762
  859THF     C812302   2.269   1.985   5.499  0.1336 -0.3889 -0.2096
  859THF     C912303   2.249   2.023   5.351 -0.2435  0.3320 -0.7920
  859THF    H1012304   2.333   1.898   5.514  1.9193  0.1323 -3.5831
  859THF    H1112305   2.305   2.062   5.567 -0.0797 -1.4846  1.1852
  859THF    H1212306   2.291   2.123   5.340 -1.3398  0.8323 -0.5976
  859THF    H1312307   2.268   1.950   5.273 -2.4150  0.7272 -1.7747
  860THF     O112308   0.547   3.924   3.862  0.2646 -0.3166 -0.7489
  860THF     C212309   0.646   4.001   3.922 -0.1806  0.4484 -0.1157
  860THF     C312310   0.505   3.990   3.740  0.4447  0.3661 -0.0642
  860THF     H412311   0.707   3.947   3.994 -1.6348  0.7227  1.3841
  860THF     H512312   0.600   4.079   3.983 -2.6407 -0.7912 -0.2787
  860THF     H612313   0.506   3.922   3.656  0.6789 -2.4706  2.0919
  860THF     H712314   0.406   4.033   3.757  0.7277  0.9833  0.0737
  860THF     C812315   0.595   4.109   3.713  0.5706  0.0926 -0.3552
  860THF     C912316   0.717   4.074   3.805  0.3515 -0.8140 -0.2097
  860THF    H1012317   0.555   4.201   3.757 -1.4487 -1.8497  2.2489
  860THF    H1112318   0.623   4.125   3.609 -1.0534  0.1812 -0.8076
  860THF    H1212319   0.779   4.005   3.748  0.8116 -0.9067  0.4058
  860THF    H1312320   0.787   4.152   3.834 -0.8691 -0.7684  3.0367
  861THF     O112321   5.212   2.603   3.217  0.1851  1.1595  0.4755
  861THF     C212322   5.171   2.722   3.168  1.0062  0.1449  0.1185
  861THF     C312323   5.349   2.603   3.218  0.1354 -0.3414  0.9162
  861THF     H412324   5.070   2.754   3.193  0.6970  1.7247 -2.8030
  861THF     H512325   5.179   2.723   3.060 -0.1013 -2.8446 -0.0571
  861THF     H612326   5.371   2.530   3.296  1.1478 -1.1802 -0.1182
  861THF     H712327   5.391   2.580   3.121 -0.8106  0.4500  0.2895
  861THF     C812328   5.373   2.738   3.283 -0.0145 -0.2961  0.2384
  861THF     C912329   5.267   2.824   3.222  0.1555 -0.1847 -0.4372
  861THF    H1012330   5.468   2.789   3.269 -1.5570  3.1596  1.3259
  861THF    H1112331   5.354   2.728   3.390  0.5869  1.2904  0.5182
  861THF    H1212332   5.218   2.892   3.291 -0.5475 -0.4440 -0.6709
  861THF    H1312333   5.314   2.890   3.148  0.3464  1.6573  1.2305
  862THF     O112334   1.952   2.333   0.093  0.1102  0.3696  0.0227
  862THF     C212335   1.960   2.395  -0.036  0.3617 -0.4483 -0.7009
  862THF     C312336   2.057   2.371   0.171 -0.4451  0.7832 -0.2593
  862THF     H412337   1.891   2.479  -0.042 -0.7855 -1.2805  0.3927
  862THF     H512338   1.948   2.326  -0.119  2.1567 -0.0068 -1.3872
  862THF     H612339   2.018   2.406   0.266  1.0062  0.7500  0.3636
  862THF     H712340   2.109   2.281   0.203 -0.7296  0.6013 -0.3019
  862THF     C812341   2.136   2.476   0.084 -0.3183 -0.3324 -0.0998
  862THF     C912342   2.102   2.430  -0.052 -0.8114 -0.2133  0.5648
  862THF    H1012343   2.237   2.495   0.121 -0.1529  0.4709 -0.9335
  862THF    H1112344   2.073   2.563   0.103 -0.9555 -0.8953  0.3991
  862THF    H1212345   2.116   2.508  -0.126 -2.4551 -0.0987  0.3374
  862THF    H1312346   2.163   2.343  -0.074 -0.4256  0.2843 -0.3709
  863THF     O112347   0.454   2.431   0.124  0.1735  0.1415 -0.0310
  863THF     C212348   0.563   2.416   0.040  0.1148  0.0222  0.6364
  863THF     C312349   0.342   2.462   0.051  0.0596  0.2447  0.1664
  863THF     H412350   0.551   2.316  -0.004  0.8501  0.7352 -1.2990
  863THF     H512351   0.655   2.412   0.099  0.0649  0.9415  0.7829
  863THF     H612352   0.284   2.376   0.016  2.2671 -1.7896  1.1426
  863THF     H712353   0.279   2.520   0.118 -1.0854 -1.4394  0.6061
  863THF     C812354   0.390   2.549  -0.066 -0.0085  0.0476 -0.3705
  863THF     C912355   0.539   2.533  -0.062 -0.1261  0.0632 -0.5245
  863THF    H1012356   0.358   2.653  -0.058 -1.1739 -0.2586 -0.8290
  863THF    H1112357   0.351   2.514  -0.161  0.5390  0.1250 -0.6280
  863THF    H1212358   0.580   2.515  -0.161 -0.3253  0.3273 -0.6548
  863THF    H1312359   0.581   2.625  -0.021 -0.2963  0.1468 -0.5355
  864THF     O112360   4.916   0.984   4.904  0.0474  0.5776  0.2343
  864THF     C212361   4.785   0.927   4.890 -0.1443  0.1591  0.8362
  864THF     C312362   4.902   1.093   4.987 -0.6559 -0.2987  0.2497
  864THF     H412363   4.779   0.819   4.903 -0.6006  0.3006  1.9035
  864THF     H512364   4.766   0.947   4.785  2.7079 -1.9831 -0.2141
  864THF     H612365   4.950   1.056   5.079 -1.5360 -0.3276  0.7022
  864THF     H712366   4.954   1.183   4.955 -1.6715  0.3666  0.4665
  864THF     C812367   4.757   1.131   5.010 -0.6291 -0.0569  0.3341
  864THF     C912368   4.687   0.993   4.988  0.5378 -0.8734 -0.3561
  864THF    H1012369   4.722   1.207   4.941 -1.8861 -1.0146 -0.1267
  864THF    H1112370   4.727   1.170   5.108 -0.2848  0.5696  0.1936
  864THF    H1212371   4.680   0.936   5.081  1.2688 -0.9849 -0.3638
  864THF    H1312372   4.586   1.000   4.948 -1.1752 -1.7302  3.3007
  865THF     O112373   4.259   4.200   1.404 -0.1624  0.1927 -0.3867
  865THF     C212374   4.166   4.310   1.405 -0.2380 -0.1176  0.1244
  865THF     C312375   4.378   4.252   1.462  0.3704  0.5515 -0.4487
  865THF     H412376   4.088   4.296   1.480 -1.4057 -0.8038 -1.1714
  865THF     H512377   4.110   4.318   1.312  1.7634 -0.9307 -1.2334
  865THF     H612378   4.371   4.250   1.571  0.7594 -2.6342 -0.3604
  865THF     H712379   4.475   4.207   1.437  1.2276  0.4408  2.6085
  865THF     C812380   4.386   4.397   1.421  0.0783  0.7990 -0.2460
  865THF     C912381   4.244   4.438   1.433 -1.1721  1.0716  0.0172
  865THF    H1012382   4.412   4.399   1.315 -1.5543 -1.6851 -0.7577
  865THF    H1112383   4.460   4.455   1.477  0.5307 -0.3383  0.3812
  865THF    H1212384   4.228   4.476   1.534 -3.7519 -2.8566  1.3090
  865THF    H1312385   4.221   4.516   1.359 -1.8593  0.7061 -0.1674
  866THF     O112386   0.753   2.958   2.491 -0.0550 -0.2291 -0.1969
  866THF     C212387   0.676   2.875   2.582 -0.7982  0.5490  0.0161
  866THF     C312388   0.829   3.051   2.565 -0.0477 -0.5275  0.1286
  866THF     H412389   0.738   2.792   2.616 -0.0749  0.7190 -0.8366
  866THF     H512390   0.586   2.829   2.541  0.0578 -2.0237  0.8651
  866THF     H612391   0.937   3.058   2.565 -0.1411  2.2214 -1.1804
  866THF     H712392   0.806   3.152   2.529 -1.7060 -0.6891  0.6067
  866THF     C812393   0.779   3.042   2.710 -1.2974 -0.0688 -0.1226
  866THF     C912394   0.652   2.962   2.701 -0.2258  0.1220 -0.0789
  866THF    H1012395   0.768   3.142   2.753 -0.2977  0.4405 -1.0050
  866THF    H1112396   0.864   2.998   2.762 -2.0197 -1.4319 -0.0628
  866THF    H1212397   0.625   2.910   2.793 -1.0554 -0.6351 -0.7362
  866THF    H1312398   0.587   3.045   2.672  3.2899  3.2184  0.0757
  867THF     O112399   1.588   2.980   2.765 -0.0126  0.6979 -0.0969
  867THF     C212400   1.585   3.109   2.710  0.1223 -0.2020  0.5536
  867THF     C312401   1.708   2.968   2.837 -0.8097 -0.0159 -0.1582
  867THF     H412402   1.562   3.188   2.781  0.0461  1.6659 -1.4221
  867THF     H512403   1.502   3.125   2.641  1.2882  0.5152 -0.7394
  867THF     H612404   1.686   2.991   2.942  0.1282  0.3847 -0.0432
  867THF     H712405   1.751   2.871   2.815  1.5673  0.6653  1.1824
  867THF     C812406   1.809   3.060   2.773  0.9274  0.3360 -0.7456
  867THF     C912407   1.729   3.126   2.661 -0.1048 -0.4735 -0.3538
  867THF    H1012408   1.900   3.014   2.734  1.5708  1.8663 -1.1111
  867THF    H1112409   1.842   3.130   2.849 -1.1389 -1.0127  1.5274
  867THF    H1212410   1.774   3.223   2.641  1.7279 -0.4954  3.0630
  867THF    H1312411   1.739   3.065   2.571 -0.9133 -0.4360 -0.4758
  868THF     O112412   0.908   1.838   0.679  0.3897 -0.3070  0.4594
  868THF     C212413   0.826   1.770   0.574 -0.4392 -0.5197 -0.0993
  868THF     C312414   0.815   1.861   0.781  0.1391  0.2962 -0.6154
  868THF     H412415   0.810   1.665   0.600  0.3494 -0.5330  0.3740
  868THF     H512416   0.875   1.773   0.477  0.5834  1.8911  0.4113
  868THF     H612417   0.799   1.773   0.843 -1.7544  0.8104 -0.3279
  868THF     H712418   0.855   1.943   0.842  2.2308  1.4821 -3.3508
  868THF     C812419   0.689   1.898   0.711  0.5544  0.0573  0.6853
  868THF     C912420   0.700   1.850   0.568 -0.0842 -0.9592 -0.5155
  868THF    H1012421   0.668   2.005   0.714  2.2993  0.4082  1.0676
  868THF    H1112422   0.604   1.852   0.762  1.0161  1.3676  2.7802
  868THF    H1212423   0.615   1.805   0.518 -0.8133 -0.1647 -0.0309
  868THF    H1312424   0.730   1.938   0.511  0.2507 -1.5959 -1.3547
  869THF     O112425   0.304   3.487   1.163  0.3935  0.6028  0.1459
  869THF     C212426   0.405   3.400   1.209  0.6506  0.5276 -0.4774
  869THF     C312427   0.361   3.615   1.142 -0.2419  0.1509  0.1389
  869THF     H412428   0.374   3.296   1.224 -1.3179  0.9901 -1.0976
  869THF     H512429   0.436   3.448   1.302 -0.8639  0.4516  0.0937
  869THF     H612430   0.286   3.666   1.082 -0.9641 -0.8578  0.1379
  869THF     H712431   0.371   3.667   1.238 -0.4602  1.4082 -0.5008
  869THF     C812432   0.485   3.573   1.062  0.2198 -0.1534  0.1030
  869THF     C912433   0.511   3.426   1.106  0.3213  0.1139  0.3177
  869THF    H1012434   0.577   3.624   1.092  0.2755  0.6279 -1.3450
  869THF    H1112435   0.473   3.579   0.954  0.9518 -1.6088 -0.0825
  869THF    H1212436   0.506   3.356   1.023  0.5013  1.6081 -1.0127
  869THF    H1312437   0.614   3.415   1.137  1.0923  0.9378 -1.7729
  870THF     O112438   2.156   3.331   1.228 -0.3977 -0.2245  0.7275
  870THF     C212439   2.114   3.360   1.092  0.2379  0.2507 -0.3744
  870THF     C312440   2.041   3.265   1.288  0.1191  0.1849  0.2974
  870THF     H412441   2.172   3.289   1.034  2.4951 -0.8343  2.9116
  870THF     H512442   2.140   3.462   1.064 -1.3565  1.4126  2.0404
  870THF     H612443   2.080   3.183   1.349 -2.9196 -0.9476  0.8949
  870THF     H712444   1.987   3.339   1.346 -0.3140 -0.8469  1.2449
  870THF     C812445   1.950   3.211   1.176 -0.2515  0.3534  1.1005
  870THF     C912446   1.964   3.330   1.084  0.0935 -0.4282 -0.7976
  870THF    H1012447   1.846   3.184   1.194 -0.3343  0.8923  1.4670
  870THF    H1112448   2.002   3.133   1.121  1.9450  2.5766 -0.2218
  870THF    H1212449   1.943   3.304   0.980  0.3141 -0.5259 -0.8187
  870THF    H1312450   1.903   3.414   1.115 -1.4312 -1.5663 -0.6140
  871THF     O112451   5.208   2.385   4.281 -0.0236  0.5216 -0.0521
  871THF     C212452   5.191   2.277   4.192  0.3927  0.0925  0.2963
  871THF     C312453   5.102   2.381   4.381  0.7622 -0.2632  0.3464
  871THF     H412454   5.275   2.258   4.125  0.2123  2.0814 -0.5613
  871THF     H512455   5.112   2.316   4.127 -0.3033  0.8760  1.5722
  871THF     H612456   5.135   2.433   4.471  0.0026 -0.1817  0.5848
  871THF     H712457   5.018   2.434   4.336  0.3460 -0.2461  1.1290
  871THF     C812458   5.068   2.235   4.396  0.1700 -0.2144  0.2888
  871THF     C912459   5.145   2.167   4.289  0.4405 -0.3302  0.2745
  871THF    H1012460   4.961   2.222   4.379  0.1850  1.2851 -1.1994
  871THF    H1112461   5.103   2.209   4.496  0.4263 -0.2040  0.2034
  871THF    H1212462   5.234   2.121   4.332  0.2632 -0.2793  0.7007
  871THF    H1312463   5.096   2.094   4.224  0.5273 -0.6991  0.6199
  872THF     O112464   1.804   4.196   1.772  0.1110  0.3839  0.4927
  872THF     C212465   1.727   4.231   1.887 -0.1290 -0.2905 -0.3217
  872THF     C312466   1.726   4.143   1.666  0.2425 -0.0294  0.1737
  872THF     H412467   1.744   4.333   1.920  0.1391  0.2189 -1.9507
  872THF     H512468   1.747   4.170   1.975  0.4782  2.0212  1.2334
  872THF     H612469   1.704   4.208   1.582 -1.8710 -1.8612 -0.7883
  872THF     H712470   1.768   4.063   1.605 -1.6065 -1.1431  0.2768
  872THF     C812471   1.597   4.098   1.734 -0.2129  0.1367 -0.5419
  872THF     C912472   1.583   4.201   1.850  0.2222 -0.2832 -0.0903
  872THF    H1012473   1.601   4.002   1.787 -2.0980 -0.7530 -1.8789
  872THF    H1112474   1.513   4.076   1.668 -1.0837 -0.4512  0.7212
  872THF    H1212475   1.545   4.292   1.802 -0.0728 -1.0626 -1.3699
  872THF    H1312476   1.532   4.164   1.939  2.2546  1.6242  2.0230
  873THF     O112477   2.946   0.177   2.128 -0.5147  0.2214 -0.6284
  873THF     C212478   2.987   0.176   1.985  0.2272  0.0484 -0.9228
  873THF     C312479   2.930   0.319   2.168 -0.0250  0.8011 -0.3958
  873THF     H412480   2.965   0.077   1.947  0.5430 -0.9528  1.3153
  873THF     H512481   3.093   0.181   1.965  1.2928 -0.0991  3.5116
  873THF     H612482   2.852   0.323   2.244  0.1717 -0.3982 -0.1092
  873THF     H712483   3.024   0.356   2.207 -0.4858 -1.8358  3.9241
  873THF     C812484   2.895   0.390   2.034  0.2054  0.5291  0.0861
  873THF     C912485   2.893   0.287   1.923 -0.3316  0.8212  0.2170
  873THF    H1012486   2.974   0.460   2.009  1.2542  0.0261  1.7840
  873THF    H1112487   2.799   0.442   2.044  0.5714  1.6341 -1.8249
  873THF    H1212488   2.798   0.238   1.900 -0.8727  2.2307 -0.7069
  873THF    H1312489   2.937   0.323   1.830  0.9366 -1.6628 -0.2390
  874THF     O112490   4.136   4.224   2.933  0.0083  0.6762 -0.0826
  874THF     C212491   4.079   4.139   2.834 -0.0428  0.3370 -0.4386
  874THF     C312492   4.031   4.222   3.029  0.6649 -0.4817 -0.6249
  874THF     H412493   4.150   4.104   2.759  0.5301  1.1530 -0.2773
  874THF     H512494   3.995   4.183   2.780 -0.2979  1.5867  0.9194
  874THF     H612495   4.065   4.272   3.120  0.1017 -1.0016 -0.1153
  874THF     H712496   3.950   4.289   3.000 -0.1151 -0.9140  0.4812
  874THF     C812497   3.986   4.080   3.046 -0.3488 -0.5217  0.1662
  874THF     C912498   4.030   4.020   2.921 -0.0675 -0.0448 -0.1136
  874THF    H1012499   3.882   4.083   3.077 -0.2062  1.8875  0.6194
  874THF    H1112500   4.046   4.030   3.123 -0.1932 -1.9812 -0.8672
  874THF    H1212501   4.109   3.948   2.944  0.0274  0.0610 -0.1088
  874THF    H1312502   3.946   3.962   2.883  0.4312  0.6774 -2.5259
  875THF     O112503   4.398   4.982   4.298  0.3235  0.4623 -0.0204
  875THF     C212504   4.295   4.881   4.295  0.3511 -0.3605  0.5807
  875THF     C312505   4.405   5.039   4.166 -0.7516 -0.3752 -0.6248
  875THF     H412506   4.258   4.846   4.391  0.6064 -0.9082  0.4820
  875THF     H512507   4.338   4.798   4.239 -0.5511  0.6158 -1.7037
  875THF     H612508   4.461   5.133   4.160 -0.7815 -0.3972 -1.5058
  875THF     H712509   4.464   4.970   4.105  0.1824 -1.3548  1.2851
  875THF     C812510   4.259   5.046   4.125 -0.0896  0.5910 -0.0237
  875THF     C912511   4.184   4.938   4.197 -0.8442  0.1386  0.0844
  875THF    H1012512   4.232   5.039   4.019  0.2278  0.3598 -0.0889
  875THF    H1112513   4.220   5.145   4.151 -1.4299  0.3218 -0.8738
  875THF    H1212514   4.100   4.988   4.244 -1.1507 -2.1825  2.2698
  875THF    H1312515   4.153   4.851   4.138  1.2864 -0.8972  0.3834
  876THF     O112516   1.681   0.790   1.231 -0.3391  0.1672  0.1887
  876THF     C212517   1.778   0.689   1.221 -0.8691  0.2621  0.1593
  876THF     C312518   1.737   0.920   1.257  0.3103 -0.0669 -0.4000
  876THF     H412519   1.745   0.619   1.145 -0.5328  0.0934  0.1668
  876THF     H512520   1.796   0.644   1.318  1.9868 -0.1864 -0.4820
  876THF     H612521   1.712   0.985   1.174  2.5759 -0.2021 -1.2619
  876THF     H712522   1.695   0.968   1.345 -1.6617  0.4243 -1.5394
  876THF     C812523   1.890   0.899   1.256 -0.1463  0.2988 -0.0382
  876THF     C912524   1.900   0.768   1.180 -0.1193 -0.2001  0.3637
  876THF    H1012525   1.942   0.895   1.352 -0.5892 -2.8312  0.1595
  876THF    H1112526   1.947   0.975   1.203  0.4796  0.4494  0.8321
  876THF    H1212527   1.893   0.777   1.072  0.4846  0.0025  0.3359
  876THF    H1312528   2.004   0.735   1.189  1.4032  3.9489  0.3227
  877THF     O112529   1.756   4.894   0.621  0.5086 -0.4245 -0.2335
  877THF     C212530   1.812   4.797   0.708 -0.8203 -0.7507  0.4882
  877THF     C312531   1.641   4.826   0.558 -0.4280 -0.4817  0.0649
  877THF     H412532   1.777   4.807   0.810 -4.1883  0.5676 -0.6548
  877THF     H512533   1.918   4.816   0.723 -1.4096  2.3456  1.3679
  877THF     H612534   1.544   4.865   0.588 -0.8579 -1.2703 -0.2770
  877THF     H712535   1.656   4.843   0.451  0.6530  0.4708  0.3377
  877THF     C812536   1.646   4.677   0.596  0.4061  0.5965  0.6898
  877THF     C912537   1.786   4.663   0.649  0.1900 -0.6098 -0.0902
  877THF    H1012538   1.614   4.608   0.518 -1.4426 -1.5145  3.1124
  877THF    H1112539   1.573   4.657   0.674  1.7995 -0.0214  1.8789
  877THF    H1212540   1.789   4.585   0.726  2.3998 -0.2772  0.2289
  877THF    H1312541   1.860   4.625   0.578  1.4113  0.7582  0.3989
  878THF     O112542   1.700   2.121   1.010 -0.0759  0.0735 -0.4694
  878THF     C212543   1.653   2.025   0.908 -0.6701 -0.1240 -0.0092
  878THF     C312544   1.823   2.061   1.055  0.4532 -0.4866 -0.2224
  878THF     H412545   1.581   2.083   0.850  1.3366  2.8632  0.2224
  878THF     H512546   1.611   1.932   0.946  0.1637 -0.6857 -0.4256
  878THF     H612547   1.874   2.131   1.122  0.2986  0.9825 -1.5814
  878THF     H712548   1.787   1.982   1.122 -0.3436  0.1439  0.1041
  878THF     C812549   1.899   2.026   0.931  0.1620  0.9646  0.3380
  878THF     C912550   1.787   2.004   0.831  0.0347 -0.5578 -0.2560
  878THF    H1012551   1.972   1.948   0.950 -0.9706  0.0271  0.9696
  878THF    H1112552   1.957   2.112   0.898  1.0382  1.3665  2.7553
  878THF    H1212553   1.789   2.072   0.747 -0.2533  1.8517  1.5739
  878THF    H1312554   1.780   1.904   0.789 -1.9496 -0.1183 -1.0329
  879THF     O112555   1.482   0.278   3.681  0.9065  0.0888 -0.1034
  879THF     C212556   1.483   0.134   3.668 -0.1993 -0.0799  0.4998
  879THF     C312557   1.597   0.320   3.607  0.3068 -0.3414 -0.4867
  879THF     H412558   1.385   0.094   3.693 -0.1416  0.8145  2.3329
  879THF     H512559   1.555   0.083   3.732 -1.0410 -2.0911 -0.0721
  879THF     H612560   1.587   0.428   3.600 -1.1030 -0.3827  0.4428
  879THF     H712561   1.673   0.286   3.676 -1.5399  0.6065  2.1901
  879THF     C812562   1.597   0.248   3.481  0.4844  0.6836  0.7867
  879THF     C912563   1.537   0.115   3.520  0.6866  0.1461 -0.4819
  879THF    H1012564   1.696   0.232   3.438  0.0864  1.7033 -0.5679
  879THF    H1112565   1.536   0.307   3.412  0.3167 -0.6513 -0.2457
  879THF    H1212566   1.461   0.087   3.447  1.9344 -2.0669 -1.0308
  879THF    H1312567   1.599   0.026   3.514  1.5396  0.4617  2.1599
  880THF     O112568   4.137   3.836   3.710 -0.2308  0.3060  0.0564
  880THF     C212569   4.253   3.784   3.777 -0.8635 -0.2387 -0.1849
  880THF     C312570   4.090   3.746   3.608 -0.3977  0.7567  0.3719
  880THF     H412571   4.275   3.822   3.877 -1.8079 -0.1122 -0.0176
  880THF     H512572   4.337   3.808   3.712 -1.0528 -1.0272 -0.7320
  880THF     H612573   3.982   3.737   3.603 -0.5543  2.6432 -0.7862
  880THF     H712574   4.127   3.777   3.510  0.5927 -2.2136 -0.3057
  880THF     C812575   4.168   3.613   3.638  0.3666 -0.3715 -0.4135
  880THF     C912576   4.230   3.636   3.778  0.0419  0.2526  0.2459
  880THF    H1012577   4.247   3.584   3.569  1.7297  2.3960 -0.1141
  880THF    H1112578   4.091   3.536   3.649  2.0936 -1.9493  1.3227
  880THF    H1212579   4.169   3.606   3.863 -2.7559  1.9997 -0.9979
  880THF    H1312580   4.323   3.581   3.790 -0.5855 -0.9351 -0.1192
  881THF     O112581   2.163   4.587   2.510 -0.0287  0.3330  0.2676
  881THF     C212582   2.171   4.587   2.655 -0.0283  0.1428  0.1836
  881THF     C312583   2.250   4.688   2.458 -0.8509  0.1175 -0.1095
  881THF     H412584   2.142   4.489   2.692  1.6477 -0.5964 -0.3867
  881THF     H512585   2.105   4.660   2.701 -1.8995 -1.1763 -0.2926
  881THF     H612586   2.272   4.679   2.352 -0.0367 -0.3270  0.0822
  881THF     H712587   2.202   4.785   2.466 -2.4067 -0.7407  1.8516
  881THF     C812588   2.375   4.668   2.548 -0.1752 -0.2939 -0.2437
  881THF     C912589   2.320   4.611   2.677 -0.8650  0.7192 -0.1867
  881THF    H1012590   2.423   4.765   2.562 -1.4568  0.3538 -0.1802
  881THF    H1112591   2.441   4.604   2.490 -1.2400  0.2360 -2.1191
  881THF    H1212592   2.369   4.518   2.707  0.7072  1.5623 -0.0221
  881THF    H1312593   2.332   4.674   2.765 -1.3903 -0.8802  1.0781
  882THF     O112594   4.695   2.662   4.431  0.6894 -0.1315 -0.5215
  882THF     C212595   4.662   2.555   4.345 -0.3685 -0.3088 -0.4070
  882THF     C312596   4.772   2.611   4.542  0.2049  0.7521  0.1756
  882THF     H412597   4.748   2.549   4.278 -0.5400  0.3701 -0.6960
  882THF     H512598   4.580   2.601   4.289 -0.9534 -0.3362  0.4133
  882THF     H612599   4.875   2.605   4.506  0.4153 -0.2603  0.9041
  882THF     H712600   4.752   2.673   4.629 -1.3352  2.6902 -1.4793
  882THF     C812601   4.710   2.478   4.564  0.0199 -0.9650 -0.3756
  882THF     C912602   4.642   2.436   4.442  0.5211 -0.5898  0.7285
  882THF    H1012603   4.640   2.483   4.647 -1.6464 -0.1859 -1.7876
  882THF    H1112604   4.793   2.410   4.587 -1.2625 -2.7030 -0.6915
  882THF    H1212605   4.679   2.340   4.407  2.4803 -0.0859  1.2449
  882THF    H1312606   4.536   2.431   4.464  0.2661  2.7214  0.8401
  883THF     O112607   2.360   5.264   0.723 -0.3391  0.3519  0.8820
  883THF     C212608   2.440   5.250   0.846  0.2588  0.5430  0.0400
  883THF     C312609   2.224   5.258   0.759  0.4289 -0.2282 -0.3153
  883THF     H412610   2.538   5.295   0.832  0.3785 -0.0733 -1.2621
  883THF     H512611   2.436   5.142   0.863 -0.7697  0.7481  1.2465
  883THF     H612612   2.168   5.305   0.678  1.9787  0.0768 -1.2455
  883THF     H712613   2.196   5.153   0.766 -2.4375  0.3268 -1.9522
  883THF     C812614   2.214   5.318   0.899  0.0475  0.3701 -0.0032
  883THF     C912615   2.361   5.323   0.949 -0.5249 -0.0163  0.1783
  883THF    H1012616   2.155   5.275   0.980 -1.6664  1.7457 -0.4549
  883THF    H1112617   2.179   5.421   0.899 -1.2662  0.0843 -3.7187
  883THF    H1212618   2.387   5.429   0.949  2.5802 -0.6667 -0.0289
  883THF    H1312619   2.369   5.273   1.046  0.3994 -0.3800 -0.0722
  884THF     O112620   0.291   2.239   0.491  0.3912 -0.1023  0.3607
  884THF     C212621   0.220   2.217   0.368 -0.1336  0.2574  0.2350
  884THF     C312622   0.428   2.218   0.481  0.1918  0.5474  0.7274
  884THF     H412623   0.196   2.309   0.314 -0.2265  0.4015  0.5182
  884THF     H512624   0.131   2.156   0.386  0.4357 -0.3851  0.9544
  884THF     H612625   0.462   2.312   0.439 -1.6225  0.5562 -0.8291
  884THF     H712626   0.468   2.190   0.579  2.5016 -1.2084 -0.6403
  884THF     C812627   0.422   2.097   0.393  0.6701  1.0578  0.6009
  884THF     C912628   0.319   2.130   0.284  0.2415 -0.0459  0.4271
  884THF    H1012629   0.406   2.005   0.450 -0.0883  1.6056  1.2902
  884THF    H1112630   0.519   2.083   0.345  0.6047 -1.7081  1.1321
  884THF    H1212631   0.355   2.196   0.204  1.8689  0.1559  1.2835
  884THF    H1312632   0.262   2.047   0.241  0.7354  0.0140 -0.3708
  885THF     O112633   4.916   4.426   4.729  0.2145 -0.0446 -0.5156
  885THF     C212634   4.790   4.366   4.706 -0.5335  0.0133  0.4805
  885THF     C312635   4.895   4.568   4.734  0.2905 -0.7335  0.2331
  885THF     H412636   4.788   4.261   4.732 -1.5889  0.1843  1.1610
  885THF     H512637   4.769   4.397   4.603  1.9141 -1.0910 -0.4371
  885THF     H612638   4.964   4.611   4.807  0.0477 -0.1446  0.1172
  885THF     H712639   4.907   4.619   4.639  2.5463  1.0784  1.3951
  885THF     C812640   4.753   4.591   4.792 -0.2931  0.5034 -0.0716
  885THF     C912641   4.695   4.450   4.786 -0.3130  0.1008 -0.2582
  885THF    H1012642   4.689   4.648   4.724 -1.8062  0.0422  0.9054
  885THF    H1112643   4.758   4.624   4.896  0.1518 -1.0474  0.4154
  885THF    H1212644   4.686   4.424   4.892 -1.4737  0.2611 -0.3083
  885THF    H1312645   4.595   4.436   4.746 -0.3675 -1.2387  0.2755
  886THF     O112646   0.723   4.212   0.878 -0.1120 -0.1604 -0.2583
  886THF     C212647   0.728   4.146   1.003  0.4097 -0.0249  0.4246
  886THF     C312648   0.770   4.129   0.774 -0.1606 -0.7882 -0.2865
  886THF     H412649   0.625   4.131   1.035  0.0321  2.1705  0.3918
  886THF     H512650   0.790   4.216   1.061 -0.9054  0.1318  1.6875
  886THF     H612651   0.684   4.078   0.730  0.5135 -0.6047 -1.8700
  886THF     H712652   0.818   4.188   0.696 -1.7101  0.4072 -0.3936
  886THF     C812653   0.866   4.042   0.851 -0.0451 -0.0005  0.1521
  886THF     C912654   0.794   4.010   0.974 -0.0816 -0.3738 -0.2235
  886THF    H1012655   0.959   4.092   0.880  0.1426  1.4961 -2.6650
  886THF    H1112656   0.891   3.950   0.799 -0.5515  0.0715 -0.2232
  886THF    H1212657   0.711   3.939   0.967 -0.1594 -0.3722  0.6436
  886THF    H1312658   0.855   3.974   1.056  0.1796 -1.1298 -0.7458
  887THF     O112659   0.207   1.298   2.148 -0.0981 -0.7283  0.4921
  887THF     C212660   0.163   1.197   2.058  0.4340  0.2755  0.0411
  887THF     C312661   0.221   1.232   2.277 -0.2096 -0.4905  0.8113
  887THF     H412662   0.186   1.222   1.955  0.6788  1.2054  0.3055
  887THF     H512663   0.056   1.177   2.063 -0.0700  2.1449 -1.9654
  887THF     H612664   0.276   1.287   2.353  1.0782  0.2617 -0.6165
  887THF     H712665   0.119   1.207   2.308 -0.9427  0.9382 -0.2856
  887THF     C812666   0.283   1.098   2.249  0.0221 -0.1413 -0.3935
  887THF     C912667   0.247   1.078   2.105  0.2756 -0.6234  0.1156
  887THF    H1012668   0.249   1.009   2.303  2.0401 -1.5361 -1.2663
  887THF    H1112669   0.390   1.082   2.237 -0.0772 -0.7506 -0.4964
  887THF    H1212670   0.334   1.065   2.041 -0.0820 -2.6136 -0.0277
  887THF    H1312671   0.186   0.989   2.088 -0.0411 -0.9609  2.5861
  888THF     O112672   2.662   4.914   5.175  0.0224 -0.2515 -0.1116
  888THF     C212673   2.629   4.926   5.040  0.2231 -0.2422 -0.1460
  888THF     C312674   2.580   4.811   5.215 -0.1013 -0.2847 -0.4426
  888THF     H412675   2.705   4.972   4.978 -1.3745  1.2628 -1.0755
  888THF     H512676   2.544   4.990   5.019  0.0715 -0.7503 -1.1370
  888THF     H612677   2.615   4.797   5.318 -0.0412  1.1243 -0.2470
  888THF     H712678   2.478   4.849   5.212 -0.0949 -0.1775  0.3356
  888THF     C812679   2.593   4.710   5.110 -0.5440 -0.4603  0.1145
  888THF     C912680   2.615   4.791   4.985  0.6386  0.7186 -0.0223
  888THF    H1012681   2.503   4.649   5.116 -0.0935 -1.0721  0.9600
  888THF    H1112682   2.687   4.653   5.106  1.9302  3.3161 -3.8206
  888THF    H1212683   2.697   4.756   4.922 -0.5145  1.2678 -1.9299
  888THF    H1312684   2.532   4.786   4.915  1.3332 -0.6931 -0.7901
  889THF     O112685   1.838   5.363   4.793 -0.6142  0.2679  0.6698
  889THF     C212686   1.901   5.477   4.745 -0.1564  0.4033  0.1475
  889THF     C312687   1.888   5.343   4.923  0.9083 -0.3511 -0.1377
  889THF     H412688   1.845   5.563   4.782 -1.9919 -1.0603  0.9730
  889THF     H512689   1.897   5.474   4.636 -0.6765 -0.2757  0.1754
  889THF     H612690   1.826   5.383   5.003 -0.8155  0.7280 -1.9137
  889THF     H712691   1.886   5.235   4.939  3.2321 -0.4035  0.0964
  889THF     C812692   2.027   5.393   4.921 -0.1416 -0.5638  0.2299
  889THF     C912693   2.045   5.466   4.789  0.5764  0.1158 -0.1241
  889THF    H1012694   2.097   5.309   4.924  1.4192  0.7115  1.0242
  889THF    H1112695   2.038   5.459   5.007 -1.0269 -0.9161  0.6211
  889THF    H1212696   2.095   5.562   4.794 -2.2080  1.6849  0.0024
  889THF    H1312697   2.095   5.400   4.719  0.5646  0.2754 -0.2852
  890THF     O112698   0.018   3.423   0.978 -0.0651 -0.2752 -0.2338
  890THF     C212699   0.111   3.410   0.875 -0.0245  0.1396 -0.1450
  890THF     C312700  -0.083   3.500   0.917  0.7490  0.0417 -0.1701
  890THF     H412701   0.076   3.338   0.802  1.1034 -1.0642  0.4587
  890THF     H512702   0.203   3.383   0.928 -0.9010 -0.5286  1.0908
  890THF     H612703  -0.151   3.438   0.858  2.1741 -0.3929 -1.4273
  890THF     H712704  -0.141   3.559   0.988  1.0857  1.5881 -1.1325
  890THF     C812705  -0.015   3.619   0.844  0.0615  0.7876 -0.2131
  890THF     C912706   0.121   3.554   0.812 -0.1269 -0.1105  0.1761
  890THF    H1012707  -0.019   3.704   0.911 -0.7371  0.2134  0.4879
  890THF    H1112708  -0.080   3.656   0.764 -0.9630  1.7049  1.0177
  890THF    H1212709   0.146   3.556   0.706 -0.1934  1.5349  0.1556
  890THF    H1312710   0.200   3.614   0.858  0.8123 -1.0841 -0.1548
  891THF     O112711   0.346   1.162   5.211 -0.6461  0.2318 -0.1817
  891THF     C212712   0.248   1.190   5.112  0.3963  0.3054 -0.1776
  891THF     C312713   0.449   1.254   5.214  0.1435 -0.5604  0.0581
  891THF     H412714   0.155   1.145   5.145 -0.0756  1.9597  0.8855
  891THF     H512715   0.282   1.162   5.012  1.7112  4.0945 -0.9522
  891THF     H612716   0.492   1.260   5.313 -0.9053  1.6653  0.4615
  891THF     H712717   0.532   1.235   5.147  1.0151  3.1858 -0.1776
  891THF     C812718   0.380   1.386   5.173 -0.3127 -0.0943  0.7942
  891THF     C912719   0.238   1.338   5.127 -0.2404 -0.4977 -0.1010
  891THF    H1012720   0.440   1.436   5.096  2.0350 -1.6292  1.5225
  891THF    H1112721   0.372   1.452   5.259 -0.3993 -2.6538  2.8474
  891THF    H1212722   0.173   1.356   5.213 -0.7781 -0.6996 -0.4629
  891THF    H1312723   0.205   1.394   5.040 -1.1645  0.7259  0.9961
  892THF     O112724   1.221   2.274   2.511 -0.2672  0.8102 -0.0468
  892THF     C212725   1.268   2.230   2.642  0.8709 -0.0747  0.1885
  892THF     C312726   1.084   2.247   2.521  0.3132  0.3476  0.6043
  892THF     H412727   1.221   2.298   2.713 -4.1560 -1.8884 -1.0220
  892THF     H512728   1.375   2.220   2.658  1.2628  1.3852 -1.1886
  892THF     H612729   1.027   2.310   2.590 -0.1579 -1.3174  1.7904
  892THF     H712730   1.039   2.260   2.423  0.7918  1.3780  0.5056
  892THF     C812731   1.082   2.105   2.570  0.2710  0.4377  0.5773
  892THF     C912732   1.196   2.095   2.668 -0.2565 -1.0594  1.0607
  892THF    H1012733   1.086   2.038   2.485 -2.4457  1.1148 -0.1664
  892THF    H1112734   0.990   2.073   2.619  0.1581  1.2785  0.9385
  892THF    H1212735   1.165   2.086   2.772  2.5535  2.2560  2.3822
  892THF    H1312736   1.262   2.011   2.646  0.8627  0.2406 -0.9190
  893THF     O112737   4.008   1.676   0.848  0.1487  0.3107  0.2737
  893THF     C212738   4.056   1.768   0.751  0.1912  0.7659  0.3480
  893THF     C312739   4.113   1.598   0.886  0.7059 -0.3742  0.0075
  893THF     H412740   3.990   1.855   0.756  0.3817  0.8670  1.5278
  893THF     H512741   4.047   1.720   0.654  0.3543 -1.4678  1.3787
  893THF     H612742   4.099   1.535   0.973  1.1689  0.5563  0.7701
  893THF     H712743   4.143   1.527   0.808 -1.2185 -0.3755 -0.7919
  893THF     C812744   4.228   1.704   0.895 -0.5344  0.1664  0.7270
  893THF     C912745   4.199   1.799   0.786 -0.7081  0.9492 -0.3680
  893THF    H1012746   4.329   1.663   0.882 -0.2168  1.4134 -1.0986
  893THF    H1112747   4.225   1.756   0.991  1.2603  1.2626  0.2257
  893THF    H1212748   4.220   1.899   0.822  0.8283  1.1653 -1.7554
  893THF    H1312749   4.259   1.769   0.700 -0.9563 -1.4557  0.2139
  894THF     O112750   1.946   4.632   4.255  0.0499 -0.7880  0.2118
  894THF     C212751   1.913   4.777   4.234  0.5344 -0.0443 -0.4419
  894THF     C312752   1.907   4.601   4.388 -0.2767 -0.3101 -0.7680
  894THF     H412753   1.898   4.801   4.129  0.4973 -2.6579 -1.0984
  894THF     H512754   2.001   4.828   4.274  0.0740  1.1059 -0.8660
  894THF     H612755   1.899   4.496   4.414 -1.7567  0.5920  3.0174
  894THF     H712756   1.972   4.647   4.462  1.2113  0.1004 -2.2507
  894THF     C812757   1.768   4.661   4.388  0.3965 -0.5587  0.3403
  894THF     C912758   1.785   4.794   4.315  0.0265  0.2300 -0.4718
  894THF    H1012759   1.719   4.671   4.485 -1.8415  0.0015 -0.7731
  894THF    H1112760   1.699   4.592   4.338 -0.6429 -0.6836  1.8639
  894THF    H1212761   1.701   4.811   4.249 -1.1255 -0.3978  0.7771
  894THF    H1312762   1.792   4.877   4.386 -0.8492 -1.6897  2.0349
  895THF     O112763   4.166   4.224   3.632 -0.7879 -0.0942 -0.1935
  895THF     C212764   4.162   4.350   3.688 -0.1560 -0.1962  0.3103
  895THF     C312765   4.258   4.141   3.708  0.0625 -0.8694  0.0832
  895THF     H412766   4.068   4.367   3.741 -0.5141  3.0963 -1.0905
  895THF     H512767   4.158   4.416   3.600  2.4526  0.4696  0.5851
  895THF     H612768   4.217   4.109   3.804  1.2046  1.9896  1.6478
  895THF     H712769   4.298   4.051   3.661  0.7043 -0.8330  0.5451
  895THF     C812770   4.365   4.240   3.723 -0.0575 -0.3500 -0.0170
  895THF     C912771   4.288   4.363   3.767 -0.7118 -0.1046 -0.1878
  895THF    H1012772   4.421   4.243   3.629 -1.1392  0.7100 -0.6660
  895THF    H1112773   4.428   4.217   3.809  1.4387  0.0882 -0.9486
  895THF    H1212774   4.258   4.363   3.872  1.1693 -0.9290  0.3964
  895THF    H1312775   4.350   4.452   3.763 -0.6814 -0.1129  0.0697
  896THF     O112776   2.622   4.119   1.950 -0.0695  0.4404 -0.1707
  896THF     C212777   2.661   4.114   2.085  0.2298 -0.1827  0.8334
  896THF     C312778   2.697   4.220   1.888  0.0922 -0.1182 -0.1022
  896THF     H412779   2.622   4.022   2.129  1.6499 -1.4712 -0.4686
  896THF     H512780   2.627   4.198   2.146 -1.3103  0.2469 -0.5347
  896THF     H612781   2.695   4.221   1.779 -0.2831 -0.2155 -0.0957
  896THF     H712782   2.650   4.316   1.909 -0.5201 -1.1728  4.1384
  896THF     C812783   2.841   4.192   1.946  0.3290  0.2726  0.1716
  896THF     C912784   2.809   4.107   2.078 -0.6046 -0.7100 -0.2481
  896THF    H1012785   2.888   4.289   1.964 -1.3069  0.8623  1.5526
  896THF    H1112786   2.913   4.147   1.877  0.4731  1.2507 -0.3295
  896THF    H1212787   2.852   4.007   2.072  1.0726 -0.0925  0.8309
  896THF    H1312788   2.854   4.150   2.167 -1.0471 -1.5055  0.3838
  897THF     O112789   4.163   4.777   1.567  0.3584 -0.6608 -0.4387
  897THF     C212790   4.294   4.764   1.619 -0.5625 -0.3700 -0.0000
  897THF     C312791   4.169   4.880   1.466  0.1149  0.1380  0.2867
  897THF     H412792   4.360   4.705   1.556 -0.8356 -0.9376  0.2331
  897THF     H512793   4.287   4.708   1.713 -2.9792  1.5188  1.0592
  897THF     H612794   4.198   4.825   1.376  0.6678 -0.5310  0.8654
  897THF     H712795   4.077   4.937   1.450 -0.0759 -0.0967  0.5405
  897THF     C812796   4.275   4.971   1.504  0.8769 -0.3505 -0.3513
  897THF     C912797   4.330   4.910   1.630 -0.1654 -0.0991 -0.1248
  897THF    H1012798   4.231   5.070   1.517 -0.6931 -0.9671 -0.6803
  897THF    H1112799   4.341   4.974   1.417 -1.1939 -2.1934 -2.1244
  897THF    H1212800   4.434   4.934   1.651 -0.4423  0.0025  1.2577
  897THF    H1312801   4.273   4.941   1.718 -0.4937 -1.5499  0.2011
  898THF     O112802   4.073   4.794   5.329 -0.3869 -0.3303 -0.2514
  898THF     C212803   4.032   4.929   5.311  0.3093 -0.4684  0.2916
  898THF     C312804   3.993   4.732   5.428 -0.0502  0.0261 -0.7202
  898THF     H412805   4.064   4.964   5.213  0.8396 -1.2889  0.1727
  898THF     H512806   4.071   5.006   5.377  1.0045  1.1997 -1.9176
  898THF     H612807   4.006   4.624   5.423 -0.9763 -0.1144 -0.2882
  898THF     H712808   4.023   4.764   5.527 -1.6199  0.3105 -0.3052
  898THF     C812809   3.854   4.786   5.392 -0.1710 -0.5019  0.8786
  898THF     C912810   3.882   4.922   5.327  0.1250  0.1129 -0.2223
  898THF    H1012811   3.792   4.790   5.481 -1.2070 -0.2061  0.1537
  898THF    H1112812   3.800   4.727   5.317  0.6075 -0.3178  0.1464
  898THF    H1212813   3.819   4.949   5.242  0.9333  0.4193 -0.7390
  898THF    H1312814   3.864   4.988   5.411 -2.2375  0.0188 -0.5803
  899THF     O112815   1.045   3.516   5.360  0.1157 -0.4330 -0.4248
  899THF     C212816   1.108   3.643   5.346 -0.3158  0.0667  0.3927
  899THF     C312817   1.124   3.416   5.294  0.1019  0.7813  0.9595
  899THF     H412818   1.174   3.681   5.424 -1.2810 -0.3021  1.4151
  899THF     H512819   1.024   3.712   5.356 -1.9194 -1.9602  1.8802
  899THF     H612820   1.200   3.377   5.363  1.2102  0.2331 -0.5256
  899THF     H712821   1.070   3.323   5.274  1.3105  0.2441  0.0458
  899THF     C812822   1.189   3.494   5.169  0.8362  0.1366 -0.9834
  899THF     C912823   1.175   3.640   5.208 -0.7754 -0.6137  0.2426
  899THF    H1012824   1.136   3.468   5.077  0.8330 -0.7025 -0.7481
  899THF    H1112825   1.291   3.468   5.141  1.1336  1.7857 -1.5227
  899THF    H1212826   1.274   3.685   5.216 -0.7682 -0.7650  1.0301
  899THF    H1312827   1.122   3.698   5.131  1.5026  0.9446 -0.2591
  900THF     O112828   4.439   0.831   3.999  0.2167  0.2850 -0.4236
  900THF     C212829   4.509   0.949   4.014  0.5024  0.3039 -0.5931
  900THF     C312830   4.350   0.814   4.111  0.0050 -0.2747 -0.5126
  900THF     H412831   4.478   0.998   3.922  1.9387 -0.1151 -1.3198
  900THF     H512832   4.618   0.945   4.017  0.4833  0.3570  0.7552
  900THF     H612833   4.265   0.752   4.081 -0.4870 -1.2705  2.5573
  900THF     H712834   4.404   0.762   4.191  1.7207  2.0379 -0.0512
  900THF     C812835   4.317   0.957   4.159  0.3038 -0.1415 -0.6119
  900THF     C912836   4.455   1.013   4.140  0.7035 -0.0106  0.3705
  900THF    H1012837   4.284   0.957   4.263  0.1832  1.8246 -0.6031
  900THF    H1112838   4.237   1.002   4.099 -0.6598  0.0131  0.7393
  900THF    H1212839   4.459   1.122   4.129  1.0370 -0.1293 -0.9139
  900THF    H1312840   4.505   0.986   4.232 -0.1116 -3.6868 -0.1122
  901THF     O112841   4.462   1.180   2.669  0.4423  1.3200  0.4151
  901THF     C212842   4.362   1.129   2.744  1.0413  0.2166 -0.2216
  901THF     C312843   4.411   1.206   2.545 -0.2952  0.0335  0.5634
  901THF     H412844   4.290   1.206   2.769  1.1115 -0.1560  1.2389
  901THF     H512845   4.394   1.096   2.843  0.4943 -0.4759 -0.2622
  901THF     H612846   4.350   1.297   2.536  0.2992  0.3355 -0.5716
  901THF     H712847   4.484   1.209   2.464 -0.2352 -2.2752  0.4788
  901THF     C812848   4.328   1.081   2.515  0.2946 -0.3750 -0.0322
  901THF     C912849   4.299   1.035   2.654  0.0845 -0.1818 -0.0194
  901THF    H1012850   4.379   1.003   2.459 -1.3499 -1.7628  0.3052
  901THF    H1112851   4.234   1.108   2.467 -1.0075 -0.0426  2.5102
  901THF    H1212852   4.191   1.043   2.669  0.0274 -1.2831  0.2413
  901THF    H1312853   4.341   0.937   2.674  1.7745  0.6346  0.6107
  902THF     O112854   3.538   5.298   4.897 -0.0593 -0.4836  0.2627
  902THF     C212855   3.522   5.300   5.043  0.0873  0.6180  0.1072
  902THF     C312856   3.507   5.168   4.861  0.2150  0.6439  0.3912
  902THF     H412857   3.424   5.333   5.079 -0.6299  0.4608 -1.5937
  902THF     H512858   3.601   5.359   5.088  1.3791 -0.4103 -0.7563
  902THF     H612859   3.419   5.170   4.797  0.0964 -4.3098  0.0148
  902THF     H712860   3.588   5.132   4.797 -1.1475  1.0631 -1.6461
  902THF     C812861   3.476   5.075   4.981  0.2644 -0.4564 -0.4256
  902THF     C912862   3.551   5.154   5.086 -0.2780 -0.1349 -0.6933
  902THF    H1012863   3.500   4.969   4.972 -0.0928 -0.5074 -0.8437
  902THF    H1112864   3.367   5.088   4.983  0.3257  0.2883 -1.2093
  902THF    H1212865   3.506   5.134   5.183 -0.0271 -2.6578 -1.0151
  902THF    H1312866   3.656   5.123   5.090 -0.0440  0.7472  2.0087
  903THF     O112867   0.852   2.241   2.043  0.4903 -0.8021  0.1470
  903THF     C212868   0.798   2.344   1.960  0.2425  0.0837 -1.1019
  903THF     C312869   0.932   2.311   2.141 -0.5611  0.4398  0.7944
  903THF     H412870   0.722   2.393   2.022  2.2659  0.5224  1.1840
  903THF     H512871   0.741   2.315   1.872 -0.7616 -2.3229  0.2523
  903THF     H612872   0.877   2.354   2.225 -0.0441 -0.8353  1.8255
  903THF     H712873   0.992   2.235   2.192  1.0429  0.3040 -1.2042
  903THF     C812874   0.999   2.428   2.062 -0.0528 -0.0421  0.1584
  903THF     C912875   0.910   2.448   1.934  0.6218  0.4080 -0.9400
  903THF    H1012876   1.097   2.394   2.031 -0.5022 -1.0790 -0.1447
  903THF    H1112877   1.007   2.525   2.112  1.2902  1.8091 -3.3074
  903THF    H1212878   0.878   2.552   1.935 -0.9394 -0.0453 -0.1884
  903THF    H1312879   0.964   2.426   1.842  0.7943  1.5682 -1.1252
  904THF     O112880   4.780   3.723   4.940  0.4463 -0.0287  0.1289
  904THF     C212881   4.833   3.596   4.961 -0.1672 -0.2226 -0.2814
  904THF     C312882   4.827   3.775   4.812  0.0363  0.2311  0.2126
  904THF     H412883   4.764   3.523   5.003  1.2807 -1.1291  0.6538
  904THF     H512884   4.922   3.602   5.024 -0.1485 -1.1925 -0.1949
  904THF     H612885   4.740   3.760   4.748 -0.0843 -1.5308  0.7530
  904THF     H712886   4.850   3.882   4.816  0.5703  0.1547 -0.6576
  904THF     C812887   4.942   3.687   4.771 -0.0117  0.4113 -0.1476
  904THF     C912888   4.880   3.556   4.818 -0.5478  0.0213  0.6619
  904THF    H1012889   5.033   3.709   4.825 -0.7089  1.6821  0.5579
  904THF    H1112890   4.952   3.683   4.662  0.3938 -3.8086 -0.1425
  904THF    H1212891   4.799   3.518   4.756  0.4830 -1.4888  0.1900
  904THF    H1312892   4.951   3.474   4.822  1.1178  1.4100  0.9472
  905THF     O112893   4.773   1.814   1.514 -0.5256 -0.3578 -0.2477
  905THF     C212894   4.734   1.949   1.498  0.0219 -0.5558 -0.4176
  905THF     C312895   4.673   1.734   1.453 -0.4404  0.3697 -0.2467
  905THF     H412896   4.741   1.971   1.391 -2.0031  1.1490 -0.2510
  905THF     H512897   4.784   2.027   1.555 -0.1609 -0.1876 -0.7518
  905THF     H612898   4.668   1.736   1.344 -1.6869 -1.4012 -0.2685
  905THF     H712899   4.688   1.629   1.480  1.8120  1.5243  3.8168
  905THF     C812900   4.544   1.795   1.507 -1.4087 -0.3163  0.1227
  905THF     C912901   4.586   1.943   1.535  0.1302  0.4064 -0.1412
  905THF    H1012902   4.494   1.744   1.589 -0.8503 -0.5573  0.3143
  905THF    H1112903   4.470   1.793   1.427 -0.4900 -0.6757 -0.7305
  905THF    H1212904   4.531   2.021   1.482 -0.8229 -0.3627 -0.3311
  905THF    H1312905   4.583   1.969   1.640  0.3353  1.1161 -0.3052
  906THF     O112906   2.254   3.713   2.435  0.5226 -0.1665  0.4089
  906THF     C212907   2.122   3.677   2.462  0.7063  0.0386 -0.3375
  906THF     C312908   2.311   3.609   2.352  0.1720  0.3049 -0.6884
  906THF     H412909   2.052   3.758   2.482 -0.4668 -1.3568  1.6251
  906THF     H512910   2.114   3.598   2.537  0.0664  1.6506  1.3760
  906THF     H612911   2.387   3.650   2.286  0.5899 -1.8036 -1.5782
  906THF     H712912   2.367   3.537   2.411 -0.5933  0.5266  0.3445
  906THF     C812913   2.195   3.549   2.278  0.1951 -0.2173 -0.3546
  906THF     C912914   2.075   3.622   2.331  0.3948 -0.4227  0.1174
  906THF    H1012915   2.189   3.442   2.299  0.8480 -0.1774  0.0663
  906THF    H1112916   2.195   3.552   2.169 -1.5203  0.4020 -0.3670
  906THF    H1212917   2.047   3.705   2.267 -0.2190  1.5141  2.7141
  906THF    H1312918   2.002   3.544   2.356 -1.9130  1.1965 -1.2431
  907THF     O112919   1.625   1.961   3.891  0.2069 -0.2146  0.4960
  907THF     C212920   1.761   1.981   3.937 -0.1172 -0.3878  0.3223
  907THF     C312921   1.573   1.880   3.988  0.3286 -0.7749  0.4170
  907THF     H412922   1.813   2.066   3.894 -1.7224  0.6142  0.2609
  907THF     H512923   1.819   1.895   3.904  1.6625  0.4235  1.2397
  907THF     H612924   1.465   1.875   3.979  0.1851 -0.1098  1.6360
  907THF     H712925   1.599   1.774   3.987  0.5398 -0.7548  1.9460
  907THF     C812926   1.606   1.945   4.116 -0.6391 -0.0460  0.0018
  907THF     C912927   1.755   1.978   4.093  0.4968 -0.6171 -0.4499
  907THF    H1012928   1.585   1.876   4.198  0.0280 -0.6333 -0.3086
  907THF    H1112929   1.556   2.040   4.135  1.0219  0.6332  1.3084
  907THF    H1212930   1.799   2.066   4.140 -3.4846  0.8670  0.8430
  907THF    H1312931   1.809   1.895   4.139 -0.7487 -0.8985  0.5482
  908THF     O112932   2.403   5.475   2.886  0.3815 -0.2699 -0.0243
  908THF     C212933   2.523   5.415   2.911 -0.3156 -0.5475  0.1780
  908THF     C312934   2.396   5.577   2.979  0.5993  0.2710 -0.1232
  908THF     H412935   2.616   5.463   2.879 -0.1761  0.9069  2.5381
  908THF     H512936   2.525   5.315   2.868 -0.0024 -0.3846 -0.1991
  908THF     H612937   2.435   5.675   2.951  1.0701  0.3776  0.8604
  908THF     H712938   2.293   5.597   3.006  0.3913 -0.9491  0.0381
  908THF     C812939   2.447   5.525   3.114  0.4484  0.1433 -0.2855
  908THF     C912940   2.533   5.412   3.064 -0.1705  0.3493  0.6304
  908THF    H1012941   2.365   5.483   3.171  1.4583  0.6804  1.6483
  908THF    H1112942   2.501   5.601   3.171  3.4309 -0.1125 -2.5354
  908THF    H1212943   2.632   5.410   3.111 -0.0655 -0.0071  0.3967
  908THF    H1312944   2.481   5.321   3.092 -0.5536  0.4391  0.2145
  909THF     O112945   4.863   4.544   5.372 -0.0093 -0.2844 -0.2142
  909THF     C212946   4.733   4.564   5.412 -0.0739  0.0346 -0.1318
  909THF     C312947   4.853   4.440   5.281  0.2993  0.0977  0.2192
  909THF     H412948   4.720   4.656   5.469  1.2572  1.1439 -1.5097
  909THF     H512949   4.693   4.481   5.469  0.0553  1.9736  3.0319
  909THF     H612950   4.942   4.427   5.220 -0.5377  1.3254 -1.3253
  909THF     H712951   4.837   4.347   5.335 -0.5218 -1.1577 -2.0369
  909THF     C812952   4.737   4.488   5.184  0.6286 -0.1353  0.9397
  909THF     C912953   4.677   4.590   5.276 -0.4911  0.6002  0.1528
  909THF    H1012954   4.676   4.404   5.152 -0.2244  0.3005  1.3992
  909THF    H1112955   4.788   4.526   5.095  0.6735  0.8592  1.3737
  909THF    H1212956   4.725   4.685   5.251  0.5987  0.4956  1.6706
  909THF    H1312957   4.569   4.604   5.276 -1.1837 -3.4176  1.1616
  910THF     O112958   2.253   2.512   1.276  0.4420  0.2599 -0.0559
  910THF     C212959   2.262   2.372   1.288 -0.3862 -0.2696 -0.3055
  910THF     C312960   2.111   2.547   1.255 -0.9530  0.0101 -0.1762
  910THF     H412961   2.346   2.347   1.353 -0.0400  0.8566 -0.2837
  910THF     H512962   2.291   2.323   1.195 -0.9845 -0.7109 -0.2627
  910THF     H612963   2.081   2.595   1.348 -1.0278 -1.7407  0.7563
  910THF     H712964   2.089   2.603   1.165 -0.0584 -0.8935 -0.9857
  910THF     C812965   2.030   2.415   1.257  0.3834  0.7915 -0.4872
  910THF     C912966   2.125   2.319   1.328 -0.3188 -0.4331 -0.2096
  910THF    H1012967   2.001   2.377   1.159  1.0705  0.1400 -0.4480
  910THF    H1112968   1.934   2.426   1.306 -0.2123 -1.7832 -0.9101
  910THF    H1212969   2.095   2.327   1.432  0.7839  1.2705  0.0223
  910THF    H1312970   2.113   2.215   1.298  1.6345  0.0088 -2.9301
  911THF     O112971   1.176   3.972   3.935 -0.1389 -0.1417 -0.2561
  911THF     C212972   1.256   3.887   4.018  0.0249  0.2008  0.6987
  911THF     C312973   1.071   3.894   3.888 -0.3908  0.2704  0.2151
  911THF     H412974   1.203   3.880   4.113 -1.6082 -0.4041 -0.2256
  911THF     H512975   1.347   3.941   4.042  0.7245  0.2929 -1.8787
  911THF     H612976   1.004   3.866   3.969 -0.9877 -0.0083 -0.3632
  911THF     H712977   1.015   3.945   3.810  0.3835  0.4418 -0.2405
  911THF     C812978   1.158   3.774   3.842 -0.1771  0.1346 -0.4315
  911THF     C912979   1.268   3.757   3.943 -0.1280 -0.1348 -0.7354
  911THF    H1012980   1.179   3.776   3.735  0.7311 -0.4438 -0.2656
  911THF    H1112981   1.092   3.687   3.841  0.9411 -0.7358 -0.8809
  911THF    H1212982   1.263   3.671   4.010 -1.5184  0.4733 -0.0176
  911THF    H1312983   1.362   3.765   3.888 -0.0036 -0.2387 -0.5386
  912THF     O112984   3.984   0.973   1.039 -0.2991  0.0916 -0.2312
  912THF     C212985   4.032   0.984   1.173 -0.7366 -0.1239 -0.8003
  912THF     C312986   4.026   1.090   0.978  0.4283 -0.0171 -0.3976
  912THF     H412987   4.075   0.892   1.213  0.0772  1.8767  3.5332
  912THF     H512988   3.942   1.014   1.225 -0.0366  1.2549 -0.3402
  912THF     H612989   4.043   1.084   0.870  1.3079  0.6391 -0.3037
  912THF     H712990   3.950   1.168   0.990 -0.4401 -1.1205  1.7382
  912THF     C812991   4.167   1.111   1.031  1.1429 -0.1711 -0.3701
  912THF     C912992   4.144   1.091   1.176  0.0436 -1.0187 -0.3979
  912THF    H1012993   4.214   1.207   1.011 -0.1566  0.5201 -0.2136
  912THF    H1112994   4.228   1.027   0.999  4.0729  1.4070  0.6585
  912THF    H1212995   4.229   1.058   1.236 -0.4859 -1.0004  0.3782
  912THF    H1312996   4.100   1.185   1.211  0.7780  0.1236 -2.4149
  913THF     O112997   3.030   1.215   0.445  0.2261  0.0456  0.3236
  913THF     C212998   2.962   1.304   0.527  0.4277  0.0128  0.0765
  913THF     C312999   3.118   1.131   0.518 -0.3876 -0.5158  0.1257
  913THF     H413000   2.854   1.291   0.533  0.2839  0.9788 -0.1464
  913THF     H513001   2.961   1.407   0.491 -2.3695  0.1161  0.2555
  913THF     H613002   3.067   1.042   0.555 -0.2596 -0.0120  1.5984
  913THF     H713003   3.194   1.090   0.452  0.5139 -1.9855  1.9748
  913THF     C813004   3.157   1.222   0.639  0.2645 -0.8098 -0.1609
  913THF     C913005   3.021   1.296   0.669 -0.2028  0.2204 -0.0697
  913THF    H1013006   3.233   1.293   0.607  0.4332 -0.4589  0.9802
  913THF    H1113007   3.194   1.174   0.729 -2.4361  0.3116  1.6945
  913THF    H1213008   2.961   1.217   0.716 -0.8355 -0.7992 -2.4171
  913THF    H1313009   3.021   1.387   0.728 -2.3395 -0.1885  0.6399
  914THF     O113010   2.898   3.260   3.775  0.2075  0.4528  0.2155
  914THF     C213011   3.002   3.324   3.838  0.0540 -0.3437 -0.0788
  914THF     C313012   2.916   3.116   3.799 -0.0492 -1.2584  0.3028
  914THF     H413013   2.995   3.432   3.832 -1.6496 -0.4645 -0.6968
  914THF     H513014   3.096   3.289   3.795  0.9189  0.7901  0.8103
  914THF     H613015   2.826   3.056   3.793 -0.7907 -0.0944 -0.5294
  914THF     H713016   2.987   3.092   3.719 -1.7019  1.6079 -2.2140
  914THF     C813017   2.983   3.111   3.938 -0.0517 -0.2591  0.0786
  914THF     C913018   3.003   3.260   3.975 -0.5309  1.4087  0.0944
  914THF    H1013019   3.075   3.053   3.926  0.4575  0.3273  1.0330
  914THF    H1113020   2.917   3.070   4.014 -0.8307  1.7336  0.5190
  914THF    H1213021   2.917   3.274   4.039 -0.6377 -0.9210  0.5158
  914THF    H1313022   3.089   3.283   4.038  0.7456  0.6163 -1.2768
  915THF     O113023   3.060   4.656   5.361  0.1090  0.0695 -0.4350
  915THF     C213024   2.953   4.678   5.447 -0.6885 -0.0818 -0.2136
  915THF     C313025   3.017   4.589   5.245 -0.1499  0.6551 -0.4594
  915THF     H413026   2.890   4.766   5.433 -2.9891 -1.6007 -0.0158
  915THF     H513027   2.990   4.665   5.549 -0.9356 -1.4920 -0.2846
  915THF     H613028   2.960   4.668   5.196 -0.4796  1.9667  1.8543
  915THF     H713029   3.097   4.543   5.188  0.1762  1.1206 -0.3844
  915THF     C813030   2.916   4.485   5.303  0.4871  0.1428 -0.1274
  915THF     C913031   2.860   4.561   5.422  0.3212 -0.4057  0.4001
  915THF    H1013032   2.970   4.399   5.343 -1.5321 -0.6467  1.0380
  915THF    H1113033   2.838   4.447   5.236 -0.3291 -1.4612  1.6425
  915THF    H1213034   2.758   4.590   5.396  0.1417 -2.8351 -2.0649
  915THF    H1313035   2.856   4.498   5.511 -0.3031  1.4443  1.7325
  916THF     O113036   1.356   4.098   3.455 -0.3767 -0.2179  0.0394
  916THF     C213037   1.480   4.151   3.506  0.2139 -0.1051  0.2431
  916THF     C313038   1.290   4.029   3.558  0.2445  0.1251  0.4265
  916THF     H413039   1.532   4.217   3.436  1.0408 -2.0426 -1.0504
  916THF     H513040   1.545   4.066   3.521 -1.9447 -2.5518 -2.8368
  916THF     H613041   1.183   4.034   3.538  0.2067  0.7029  0.7481
  916THF     H713042   1.305   3.921   3.565  3.1197  0.5079  1.5183
  916THF     C813043   1.328   4.118   3.690  0.0326 -0.2016  0.1754
  916THF     C913044   1.441   4.202   3.642  0.1244  0.0337 -0.7041
  916THF    H1013045   1.358   4.061   3.778 -0.6753 -1.4255 -0.3472
  916THF    H1113046   1.253   4.186   3.731 -1.0921 -0.7700 -0.8717
  916THF    H1213047   1.408   4.306   3.647 -0.8750 -0.3186  2.3304
  916THF    H1313048   1.528   4.181   3.704 -1.9741 -0.1808  2.4301
  917THF     O113049   4.346   1.365   4.973  0.7295 -0.4114 -0.8486
  917THF     C213050   4.320   1.443   5.088 -0.4107 -0.2809 -0.2801
  917THF     C313051   4.227   1.344   4.900  0.1969 -0.6865  0.8831
  917THF     H413052   4.358   1.545   5.079 -0.8523  0.1018  1.7119
  917THF     H513053   4.372   1.409   5.178 -0.1943 -0.0994 -0.3373
  917THF     H613054   4.234   1.365   4.793  1.0190 -0.4543  0.9781
  917THF     H713055   4.194   1.240   4.900  1.1516 -1.0314 -1.1963
  917THF     C813056   4.120   1.431   4.968 -0.5736  0.6474 -0.2821
  917THF     C913057   4.162   1.455   5.109 -0.3963  0.9072  1.0738
  917THF    H1013058   4.023   1.381   4.961 -0.4564  0.4230 -0.3168
  917THF    H1113059   4.109   1.523   4.911  0.4993  1.9561  1.5404
  917THF    H1213060   4.144   1.560   5.134  1.4859  1.7360 -0.7360
  917THF    H1313061   4.114   1.392   5.184 -1.0290  0.2635  0.1416
  918THF     O113062   4.145   3.015   1.340  0.3128 -0.1594  0.1940
  918THF     C213063   4.213   2.968   1.455 -0.2252  0.6169 -0.0614
  918THF     C313064   4.229   3.106   1.271 -0.2469 -0.0003  0.4603
  918THF     H413065   4.183   2.871   1.494 -0.6412 -0.2420 -2.3751
  918THF     H513066   4.204   3.054   1.520  2.5820  1.1208 -0.1992
  918THF     H613067   4.190   3.118   1.170  1.0290  0.4139  0.0042
  918THF     H713068   4.230   3.193   1.337  2.3651 -0.3564  0.9830
  918THF     C813069   4.361   3.035   1.282  0.1374 -0.0591 -0.0435
  918THF     C913070   4.355   2.949   1.412 -0.9125 -0.1574  0.6315
  918THF    H1013071   4.449   3.099   1.278 -0.3542  0.6144 -0.3222
  918THF    H1113072   4.362   2.959   1.204 -0.4972 -2.9125  2.5342
  918THF    H1213073   4.371   2.845   1.382 -0.2317 -0.2261  1.2297
  918THF    H1313074   4.426   2.974   1.490 -1.1385 -2.2887  1.5917
  919THF     O113075   0.164   5.087   5.050  0.1942  0.1827  0.2095
  919THF     C213076   0.170   4.944   5.057  0.3182  0.2011  1.7563
  919THF     C313077   0.239   5.135   5.161  0.2973 -0.9164  0.1817
  919THF     H413078   0.264   4.901   5.020  0.3384  1.7004 -0.0518
  919THF     H513079   0.087   4.904   4.998  1.0311 -0.4038  1.1278
  919THF     H613080   0.344   5.153   5.142 -0.0665  0.0959 -1.0539
  919THF     H713081   0.181   5.222   5.193 -1.2777 -1.6426 -0.5637
  919THF     C813082   0.216   5.035   5.271  0.1876  0.3122  0.1828
  919THF     C913083   0.142   4.925   5.201 -0.8809  0.0657  0.8539
  919THF    H1013084   0.156   5.066   5.357 -1.8846  1.0451 -1.4610
  919THF    H1113085   0.310   4.996   5.312 -0.0367  0.0067  0.4145
  919THF    H1213086   0.165   4.826   5.240  0.4276  0.2995  0.7235
  919THF    H1313087   0.033   4.927   5.210 -0.8395  0.6013  1.2349
  920THF     O113088   0.019   2.038   2.139  0.2535  0.3952 -0.8260
  920THF     C213089   0.056   1.924   2.061  0.0380 -0.6896  0.2184
  920THF     C313090   0.124   2.068   2.232  0.5733 -0.3181  0.7727
  920THF     H413091  -0.007   1.926   1.972  1.0835 -0.9250 -0.5479
  920THF     H513092   0.037   1.829   2.110  0.2193 -0.0446  1.6036
  920THF     H613093   0.134   2.175   2.250 -1.8648  0.0231  0.3054
  920THF     H713094   0.104   2.019   2.328  1.2707  0.6538  1.4382
  920THF     C813095   0.250   2.021   2.167 -0.4816  0.1775 -0.1013
  920THF     C913096   0.208   1.942   2.041 -0.3067 -0.3463  0.2611
  920THF    H1013097   0.320   1.975   2.236 -2.0704 -0.9445  0.8036
  920THF    H1113098   0.306   2.110   2.135 -0.4502 -0.0425 -0.6746
  920THF    H1213099   0.221   2.009   1.956  0.4968  1.7119  1.9091
  920THF    H1313100   0.265   1.850   2.025  1.6250  0.5207  1.8031
  921THF     O113101   2.082   2.465   4.490 -0.5446  0.0478 -0.2487
  921THF     C213102   2.142   2.464   4.361  0.7007 -0.0031  0.5373
  921THF     C313103   1.951   2.528   4.488  1.0827 -0.3337 -0.2762
  921THF     H413104   2.092   2.390   4.299 -0.7969  0.1248  1.5465
  921THF     H513105   2.251   2.455   4.361  0.7462  0.2482 -0.9905
  921THF     H613106   1.875   2.451   4.472  0.5541  0.0810  0.1818
  921THF     H713107   1.925   2.572   4.585  3.2573 -0.2157  0.2899
  921THF     C813108   1.959   2.627   4.380  0.0198 -0.4084  0.0532
  921THF     C913109   2.099   2.609   4.320  0.4138  0.4325 -0.1066
  921THF    H1013110   1.947   2.732   4.407 -2.2052  0.3321 -3.2634
  921THF    H1113111   1.882   2.603   4.307 -1.8563  1.8368  1.1363
  921THF    H1213112   2.088   2.638   4.215  1.5816  0.1597 -0.3246
  921THF    H1313113   2.163   2.683   4.368  1.0764  0.8293 -1.5487
  922THF     O113114   2.318   3.920   3.459  0.5241 -0.0884  0.8624
  922THF     C213115   2.285   4.050   3.430  0.0980 -0.3180  0.3017
  922THF     C313116   2.321   3.850   3.337 -0.1673 -0.1086  0.0932
  922THF     H413117   2.327   4.116   3.506  0.7112  0.2784 -0.5226
  922THF     H513118   2.178   4.072   3.433 -0.5683 -3.2539  1.2434
  922THF     H613119   2.380   3.758   3.337 -1.9051 -1.2963  0.0654
  922THF     H713120   2.217   3.823   3.316 -0.3074 -1.9618  2.6141
  922THF     C813121   2.381   3.940   3.234  0.4500  0.3534  0.1181
  922THF     C913122   2.359   4.078   3.297 -0.4874 -0.5499  0.5437
  922THF    H1013123   2.328   3.938   3.139 -0.9989 -0.2263  0.8942
  922THF    H1113124   2.487   3.917   3.223  0.7519  1.4010  0.6682
  922THF    H1213125   2.448   4.140   3.305 -1.9722  1.8146 -0.1260
  922THF    H1313126   2.304   4.145   3.230  0.4763 -2.8328 -2.7437
  923THF     O113127   5.240   5.100   0.717 -0.4288 -0.0401 -0.1767
  923THF     C213128   5.264   5.200   0.625  0.2152  0.4839 -0.1608
  923THF     C313129   5.258   4.975   0.655  0.1606 -0.0760  0.3549
  923THF     H413130   5.373   5.210   0.616  0.2976  0.1652  0.4267
  923THF     H513131   5.208   5.290   0.649 -2.0199 -0.8959  0.0268
  923THF     H613132   5.349   4.931   0.696  1.3718 -1.3713 -3.3224
  923THF     H713133   5.170   4.913   0.675  1.3154 -2.2755 -1.0343
  923THF     C813134   5.274   4.996   0.506 -0.5927  0.2821 -0.2726
  923THF     C913135   5.211   5.130   0.493  0.6231  0.5971 -0.4418
  923THF    H1013136   5.234   4.918   0.441 -1.3345  1.1973 -0.9494
  923THF    H1113137   5.381   5.011   0.489 -0.5109 -0.1127 -0.1178
  923THF    H1213138   5.227   5.176   0.396  0.3428 -0.5812 -1.0752
  923THF    H1313139   5.102   5.120   0.501  0.3612  2.4006 -1.2602
  924THF     O113140   1.491   0.210   4.708 -0.3784  0.0208 -0.5795
  924THF     C213141   1.441   0.086   4.672  0.1753  0.5911  0.3557
  924THF     C313142   1.516   0.211   4.848  0.0837 -0.6535 -0.2431
  924THF     H413143   1.465   0.072   4.566  0.9206 -1.3060  0.7419
  924THF     H513144   1.334   0.084   4.687  0.0170 -2.7322 -0.5152
  924THF     H613145   1.602   0.275   4.867 -2.8603  3.5150  0.5562
  924THF     H713146   1.439   0.253   4.913  1.0357 -1.3281  1.3874
  924THF     C813147   1.549   0.061   4.891  0.7982 -0.5259 -0.4125
  924THF     C913148   1.494  -0.019   4.769  0.0289  1.2712 -0.6661
  924THF    H1013149   1.497   0.030   4.981  0.1263 -2.6837 -1.4909
  924THF    H1113150   1.657   0.057   4.900  0.7733 -2.1472 -0.5644
  924THF    H1213151   1.573  -0.081   4.725  0.0796  1.0104 -0.2074
  924THF    H1313152   1.411  -0.077   4.809  0.6374  0.9395  0.1262
  925THF     O113153   2.834   0.945   5.449 -0.6554  0.3320 -0.2396
  925THF     C213154   2.848   1.085   5.452 -0.2652 -0.0474 -0.3294
  925THF     C313155   2.691   0.917   5.432  0.5312 -0.3965  0.3162
  925THF     H413156   2.953   1.106   5.434 -0.4852 -0.8239 -2.9625
  925THF     H513157   2.818   1.133   5.546  0.4358  1.8755 -1.0406
  925THF     H613158   2.679   0.811   5.408  2.1242 -0.7980  1.1063
  925THF     H713159   2.645   0.936   5.529  2.3620  1.8879  0.8243
  925THF     C813160   2.650   1.019   5.326  0.5556  0.2638 -1.1990
  925THF     C913161   2.761   1.127   5.336  0.4112 -0.4814  0.3476
  925THF    H1013162   2.547   1.050   5.343 -0.1080 -2.1443 -0.5540
  925THF    H1113163   2.637   0.985   5.223  0.2638 -0.4475 -0.9295
  925THF    H1213164   2.817   1.145   5.244 -0.6311  0.4435 -0.1295
  925THF    H1313165   2.709   1.217   5.369  0.1009 -0.4120 -0.3263
  926THF     O113166   0.171   0.364   3.233 -0.5264  0.2880  0.3350
  926THF     C213167   0.230   0.495   3.211  0.3738 -0.2699  0.5537
  926THF     C313168   0.148   0.303   3.108 -0.0340 -0.3454  0.3072
  926THF     H413169   0.324   0.508   3.266  2.4641  0.9841 -3.0107
  926THF     H513170   0.179   0.584   3.251  1.1503  1.1007 -1.3619
  926THF     H613171   0.213   0.218   3.086 -1.0193 -0.7365 -1.2285
  926THF     H713172   0.048   0.260   3.111 -0.0838 -0.2448  0.1404
  926THF     C813173   0.150   0.418   3.008  0.0454 -0.8414  0.0817
  926THF     C913174   0.257   0.512   3.066  0.5991 -0.5961  0.8657
  926THF    H1013175   0.051   0.463   3.010  1.4281  2.4940  0.1909
  926THF    H1113176   0.160   0.376   2.908 -0.0909  0.0809 -0.3203
  926THF    H1213177   0.359   0.485   3.039 -0.3226 -2.3092 -1.1835
  926THF    H1313178   0.241   0.606   3.012 -0.4949 -0.4676  1.3906
  927THF     O113179   2.563   0.330   4.818  0.3700  0.1953  0.2038
  927THF     C213180   2.437   0.269   4.829  0.3892 -0.3100 -0.5539
  927THF     C313181   2.553   0.439   4.727  0.3568  0.1567  0.1234
  927THF     H413182   2.378   0.334   4.893  0.3449 -0.4550 -0.4478
  927THF     H513183   2.445   0.171   4.876 -0.2393  0.2288  0.7072
  927THF     H613184   2.494   0.523   4.765 -0.4606 -0.3244 -0.0536
  927THF     H713185   2.653   0.476   4.706  0.3434  1.0707  1.5198
  927THF     C813186   2.480   0.367   4.614 -0.1510 -0.1806 -0.4792
  927THF     C913187   2.388   0.273   4.684 -0.5469 -0.0241 -1.0092
  927THF    H1013188   2.556   0.319   4.553  0.9972  3.9351 -2.6696
  927THF    H1113189   2.427   0.435   4.547  1.9755  0.4964 -1.5344
  927THF    H1213190   2.285   0.305   4.668 -1.5279 -3.6692 -3.2239
  927THF    H1313191   2.391   0.172   4.644 -0.3451 -0.8033  0.8991
  928THF     O113192   2.767   1.368   1.546 -0.7668 -0.3477 -0.7178
  928THF     C213193   2.887   1.292   1.531  0.0293 -0.9318 -0.3334
  928THF     C313194   2.653   1.276   1.573 -0.4404 -0.5651 -0.0017
  928THF     H413195   2.931   1.269   1.629 -0.9060  1.3102  0.6869
  928THF     H513196   2.956   1.355   1.475 -1.3965 -0.1617 -1.2866
  928THF     H613197   2.614   1.277   1.675 -1.3767 -2.4139 -0.3135
  928THF     H713198   2.569   1.303   1.509  0.2050  0.9812 -0.2578
  928THF     C813199   2.707   1.143   1.545  0.5363 -0.1042  0.3442
  928THF     C913200   2.832   1.165   1.466 -0.2860 -0.0281 -0.3573
  928THF    H1013201   2.634   1.094   1.481 -0.7254  0.7946  1.0575
  928THF    H1113202   2.712   1.075   1.630 -0.3615 -0.3473  0.2105
  928THF    H1213203   2.905   1.084   1.455 -0.0147  0.3589 -1.5751
  928THF    H1313204   2.795   1.182   1.365  2.1576 -1.4111 -1.6106
  929THF     O113205   1.121   5.072   5.214 -0.1456  0.5353 -0.3197
  929THF     C213206   0.995   5.071   5.274 -0.0440 -0.4406 -0.0556
  929THF     C313207   1.163   5.206   5.208 -0.2280 -0.1881  0.0971
  929THF     H413208   1.022   5.081   5.379  2.1822  1.3908 -0.7118
  929THF     H513209   0.938   4.981   5.254  0.1008 -0.5259 -0.0824
  929THF     H613210   1.215   5.239   5.299  0.3763  0.9805 -0.6462
  929THF     H713211   1.249   5.223   5.142 -0.4700 -2.0620 -0.7431
  929THF     C813212   1.038   5.290   5.182  0.0115 -0.1600 -0.0009
  929THF     C913213   0.924   5.197   5.222 -1.2147  0.3000 -0.0117
  929THF    H1013214   1.036   5.312   5.076  1.5249 -3.1636 -0.7864
  929THF    H1113215   1.042   5.385   5.234  1.5130  0.3008 -0.8960
  929THF    H1213216   0.854   5.252   5.285 -0.6949  0.6723  0.2539
  929THF    H1313217   0.881   5.171   5.126 -0.3620 -3.2836  0.4269
  930THF     O113218   4.717   1.873   3.710  0.4445 -0.3750 -0.2770
  930THF     C213219   4.594   1.876   3.793 -0.6545  0.2881 -0.0619
  930THF     C313220   4.685   1.912   3.581  0.3273 -0.1531  0.5541
  930THF     H413221   4.622   1.902   3.895 -0.0486 -0.7483  0.0512
  930THF     H513222   4.543   1.780   3.783 -1.7996  0.9784 -1.1843
  930THF     H613223   4.771   1.942   3.522 -0.0288  2.0982  1.1079
  930THF     H713224   4.618   1.850   3.521  0.7908  0.5441 -0.7106
  930THF     C813225   4.591   2.033   3.610  0.4495 -0.2123  0.1407
  930THF     C913226   4.512   1.982   3.727  1.1595 -0.6671 -0.2860
  930THF    H1013227   4.541   2.071   3.521 -0.9758  0.6830  1.2845
  930THF    H1113228   4.646   2.121   3.644 -0.7410 -0.5907  3.3982
  930THF    H1213229   4.485   2.063   3.795 -0.0318 -2.6682  1.7506
  930THF    H1313230   4.420   1.939   3.687  1.3649 -1.2488 -0.1451
  931THF     O113231   2.881   2.590   3.662 -0.4650 -0.7586  0.0690
  931THF     C213232   2.761   2.540   3.711 -0.0965  0.4253 -0.1702
  931THF     C313233   2.970   2.621   3.769 -0.3070 -0.0288 -1.0364
  931THF     H413234   2.697   2.493   3.636  0.5209  0.5847 -0.8148
  931THF     H513235   2.714   2.628   3.755 -0.7150  0.6416 -1.2257
  931THF     H613236   3.064   2.580   3.733 -1.4662 -1.1087 -2.9622
  931THF     H713237   2.981   2.728   3.785 -1.2598 -0.3313  2.6909
  931THF     C813238   2.906   2.551   3.891  0.2063  0.8390  0.7870
  931THF     C913239   2.802   2.458   3.838  0.4861 -0.5786 -0.2682
  931THF    H1013240   2.859   2.634   3.944 -1.0634 -0.2388  1.3875
  931THF    H1113241   2.983   2.507   3.954  0.3211 -0.4550 -0.2275
  931THF    H1213242   2.852   2.368   3.803 -0.5127 -1.2912  0.0831
  931THF    H1313243   2.718   2.430   3.902  0.3090  0.4550 -0.0227
  932THF     O113244   2.451   0.766   4.426 -0.4146  0.1622 -0.2065
  932THF     C213245   2.411   0.693   4.312  0.1521 -0.3862  1.2374
  932THF     C313246   2.337   0.783   4.506 -0.2617 -0.2600 -0.4081
  932THF     H413247   2.462   0.597   4.315  1.7524  0.4062  0.3967
  932THF     H513248   2.452   0.746   4.226  0.2950 -0.4282  1.2792
  932THF     H613249   2.315   0.695   4.566 -1.3647 -0.4856 -1.1004
  932THF     H713250   2.346   0.872   4.568 -0.3567 -0.3177 -0.3122
  932THF     C813251   2.224   0.801   4.395 -0.2743  0.2206  0.0199
  932THF     C913252   2.259   0.686   4.306 -0.6885 -0.3212 -0.0158
  932THF    H1013253   2.238   0.894   4.340  0.3529 -0.0385 -0.2623
  932THF    H1113254   2.122   0.778   4.428 -0.4730 -0.5187 -1.0787
  932THF    H1213255   2.213   0.596   4.347  1.6409 -2.2176 -1.4121
  932THF    H1313256   2.220   0.692   4.204 -1.3655  2.5686  0.3016
  933THF     O113257   3.593   1.591   3.935  0.0182  0.0582  0.1805
  933THF     C213258   3.669   1.515   3.844 -0.2990 -0.7303 -0.5157
  933THF     C313259   3.564   1.715   3.868 -0.2234 -0.4770 -0.0118
  933THF     H413260   3.657   1.409   3.865 -0.9784 -1.1747 -2.8730
  933THF     H513261   3.772   1.547   3.858 -0.9880  1.1114  0.8381
  933THF     H613262   3.461   1.748   3.882 -0.9694 -2.8301  0.6729
  933THF     H713263   3.628   1.798   3.898 -0.8482  1.6792 -3.9927
  933THF     C813264   3.578   1.688   3.722  0.6110 -0.2906 -0.3442
  933THF     C913265   3.614   1.542   3.705  0.6104  0.6156 -0.5739
  933THF    H1013266   3.655   1.744   3.669  1.0481 -2.3268 -1.9878
  933THF    H1113267   3.485   1.700   3.666 -0.2645 -0.5220  1.0122
  933THF    H1213268   3.532   1.472   3.691  0.6008  0.3850  0.5328
  933THF    H1313269   3.682   1.521   3.623  2.6672  0.6518  1.0542
  934THF     O113270   2.482   2.772   3.839  0.4642 -0.3118  0.0218
  934THF     C213271   2.375   2.778   3.933  1.0217 -0.6221 -0.1384
  934THF     C313272   2.582   2.872   3.870  0.3275 -0.5357  0.0620
  934THF     H413273   2.389   2.708   4.015  1.8953 -0.5730 -0.2363
  934THF     H513274   2.280   2.773   3.881  1.1213  1.4820 -0.6246
  934THF     H613275   2.682   2.829   3.875  0.6326  0.1301 -0.1930
  934THF     H713276   2.588   2.942   3.786 -0.7323 -1.5229 -0.8662
  934THF     C813277   2.536   2.928   4.006 -0.3544  0.4654  0.6496
  934THF     C913278   2.381   2.917   3.990  0.5079 -0.3306  0.0083
  934THF    H1013279   2.570   3.031   4.009 -0.6255  0.6340 -1.1197
  934THF    H1113280   2.576   2.866   4.087  1.2574  0.1525 -0.3263
  934THF    H1213281   2.329   2.924   4.085  0.9877 -2.2802  0.4771
  934THF    H1313282   2.352   2.996   3.922  0.2800 -1.0587 -0.7636
  935THF     O113283   4.536   2.040   2.424 -0.1110 -0.2649  0.4181
  935THF     C213284   4.574   2.165   2.362 -0.1405  0.5454  0.0676
  935THF     C313285   4.648   1.986   2.496  0.2070  0.1322  0.2570
  935THF     H413286   4.553   2.238   2.439 -1.5942  0.3406 -0.1031
  935THF     H513287   4.515   2.187   2.272 -1.9581 -0.9525  0.8295
  935THF     H613288   4.675   2.047   2.582  0.3149 -0.4094  0.6125
  935THF     H713289   4.624   1.884   2.523  0.2715 -0.2151 -0.9699
  935THF     C813290   4.756   2.006   2.392  0.4397 -0.5782  0.2690
  935THF     C913291   4.730   2.147   2.333  0.8129  0.0690  0.0182
  935THF    H1013292   4.741   1.939   2.308 -2.2629 -1.0296  1.0043
  935THF    H1113293   4.847   2.010   2.451  0.8459 -2.1508 -0.2317
  935THF    H1213294   4.789   2.220   2.390  1.4018 -0.0831 -0.3897
  935THF    H1313295   4.757   2.155   2.228 -0.8915  3.2993 -0.3075
  936THF     O113296   3.216   0.887   0.711 -0.4174  0.0925 -0.6303
  936THF     C213297   3.291   0.813   0.621 -0.1454 -0.6605 -0.7145
  936THF     C313298   3.131   0.801   0.779 -0.2209 -0.0415  0.1960
  936THF     H413299   3.372   0.764   0.674  0.0781  0.9114  0.4577
  936THF     H513300   3.341   0.875   0.546 -0.4970 -2.2760 -2.3722
  936THF     H613301   3.195   0.739   0.842 -0.3793 -1.9970 -1.4629
  936THF     H713302   3.056   0.862   0.828 -0.4098 -0.3356  0.2766
  936THF     C813303   3.081   0.705   0.675  0.3745  0.1348  0.2045
  936THF     C913304   3.179   0.722   0.565 -0.1590 -0.5752 -0.1534
  936THF    H1013305   2.980   0.733   0.643 -0.2399 -0.7778  1.2861
  936THF    H1113306   3.073   0.603   0.713 -0.4710  0.6088  1.3531
  936THF    H1213307   3.223   0.630   0.525  0.4584 -0.1081 -0.5715
  936THF    H1313308   3.127   0.777   0.486 -1.0521  0.3736  1.0608
  937THF     O113309   1.254   0.919   0.541 -0.3964 -0.1162  0.0957
  937THF     C213310   1.201   0.982   0.424  0.4881 -0.4231  0.4662
  937THF     C313311   1.221   0.778   0.546 -0.1063 -0.5908 -0.3936
  937THF     H413312   1.264   1.059   0.379  0.2419 -0.6208 -0.2435
  937THF     H513313   1.112   1.038   0.452  0.5352 -0.6053  0.9796
  937THF     H613314   1.289   0.730   0.617 -1.4898 -0.6254  0.9548
  937THF     H713315   1.119   0.757   0.578  0.3048 -2.7055 -0.3050
  937THF     C813316   1.225   0.735   0.403  0.6185  0.3915 -0.1544
  937THF     C913317   1.163   0.858   0.338  0.1117 -0.1734  0.8969
  937THF    H1013318   1.173   0.640   0.395  0.1107  0.7365 -1.1833
  937THF    H1113319   1.331   0.733   0.380  0.9290  0.8583  1.1436
  937THF    H1213320   1.184   0.878   0.232 -2.4634 -0.6275  0.2241
  937THF    H1313321   1.054   0.869   0.339  0.1350  0.0673  0.8148
  938THF     O113322   5.015   0.091   4.201  0.4355  0.4312  0.4388
  938THF     C213323   5.075   0.050   4.316 -0.1608 -0.2599 -0.6187
  938THF     C313324   5.100   0.066   4.092 -0.0136  0.1869  0.1816
  938THF     H413325   4.994   0.015   4.381 -1.4948 -0.1459 -2.1495
  938THF     H513326   5.127   0.133   4.363  0.9553  0.9090 -3.6569
  938THF     H613327   5.035   0.074   4.005  0.5533 -0.0792 -0.2729
  938THF     H713328   5.191   0.124   4.077 -0.0336  0.1266 -0.1823
  938THF     C813329   5.142  -0.072   4.128  0.3507 -0.4001  0.0159
  938THF     C913330   5.182  -0.057   4.277 -0.0874  0.1464 -0.8296
  938THF    H1013331   5.233  -0.107   4.080  0.4089 -1.7885  1.0603
  938THF    H1113332   5.062  -0.146   4.123  1.1328 -1.3958  1.3802
  938THF    H1213333   5.178  -0.151   4.333  2.0980  0.9644  0.8479
  938THF    H1313334   5.282  -0.018   4.295 -0.6031  1.7202 -1.2533
  939THF     O113335   4.037   3.956   4.450 -0.3014 -0.3124 -0.3699
  939THF     C213336   3.914   3.923   4.390  0.6831 -1.0103  0.1968
  939THF     C313337   4.070   4.093   4.422 -0.5363 -0.2380 -0.2030
  939THF     H413338   3.874   3.842   4.451 -0.0345  1.8008  3.7821
  939THF     H513339   3.908   3.912   4.281 -2.5235 -0.8977  0.2568
  939THF     H613340   4.150   4.138   4.481  0.6121 -2.1712 -0.2217
  939THF     H713341   4.086   4.100   4.314  0.9195 -0.2202 -0.0024
  939THF     C813342   3.939   4.157   4.464 -0.2731 -0.6547  0.3476
  939THF     C913343   3.840   4.051   4.434 -0.4958 -0.9187 -0.1210
  939THF    H1013344   3.911   4.243   4.405  1.4329 -1.1937 -1.3569
  939THF    H1113345   3.939   4.188   4.569  0.3475  1.6400 -0.2767
  939THF    H1213346   3.780   4.038   4.524  1.1665 -2.4831  0.8292
  939THF    H1313347   3.769   4.090   4.361 -0.7752 -1.4207 -0.1165
  940THF     O113348   5.199   3.734   2.068  0.7482  0.2790  0.0208
  940THF     C213349   5.238   3.654   1.963  0.7888  0.6908 -0.3156
  940THF     C313350   5.053   3.733   2.073  0.0262  0.4942 -0.2175
  940THF     H413351   5.343   3.623   1.965  0.5944  0.0246  0.0264
  940THF     H513352   5.218   3.716   1.876  0.3889  2.0853  0.7315
  940THF     H613353   5.013   3.779   2.164 -1.8980  3.3086 -2.3004
  940THF     H713354   5.021   3.801   1.994  2.6681 -0.0805 -1.8767
  940THF     C813355   5.023   3.587   2.041  0.0399  0.0835  0.1074
  940THF     C913356   5.144   3.539   1.967 -0.1182 -0.1806  0.2783
  940THF    H1013357   4.932   3.582   1.981  0.7713 -0.5467 -0.9782
  940THF    H1113358   5.026   3.532   2.136 -3.6781  0.2466  0.4517
  940THF    H1213359   5.184   3.455   2.024  0.3440  1.1837  2.0668
  940THF    H1313360   5.111   3.510   1.867 -0.2350 -0.4437  0.3920
  941THF     O113361   1.462   3.955   2.786 -0.0551 -0.3241  0.6920
  941THF     C213362   1.386   3.909   2.676  0.4451 -0.5394 -0.6114
  941THF     C313363   1.547   4.055   2.729 -0.1769 -0.8942  0.1399
  941THF     H413364   1.298   3.854   2.710  0.1803  0.8868  1.1553
  941THF     H513365   1.451   3.852   2.609  1.8118  0.2682 -0.0202
  941THF     H613366   1.594   4.106   2.813  1.3438 -1.7589 -0.1553
  941THF     H713367   1.612   4.016   2.650  0.9905  0.5668  0.3265
  941THF     C813368   1.444   4.149   2.657 -0.1882 -0.1502  0.3880
  941THF     C913369   1.336   4.038   2.607  0.2827 -0.0273 -0.7537
  941THF    H1013370   1.481   4.198   2.567  0.5808 -1.3775  0.0168
  941THF    H1113371   1.394   4.223   2.720  1.1369  1.2786 -0.1670
  941THF    H1213372   1.244   4.067   2.657  0.1256 -0.5456 -0.7400
  941THF    H1313373   1.347   4.037   2.499  1.8205  1.5796 -0.6586
  942THF     O113374   4.668   2.907   1.614  0.3507  0.3510 -0.3255
  942THF     C213375   4.593   2.940   1.734  0.2075  0.2593  0.3313
  942THF     C313376   4.741   2.790   1.637  0.2322 -0.0069 -0.1997
  942THF     H413377   4.490   2.944   1.698 -1.0300 -0.5422  3.4755
  942THF     H513378   4.620   3.035   1.781 -2.1035  1.2916 -0.2875
  942THF     H613379   4.756   2.734   1.545 -2.0442  0.4040 -0.9039
  942THF     H713380   4.833   2.816   1.689 -0.5605  1.2507  0.6570
  942THF     C813381   4.651   2.710   1.732 -0.1637  0.2292  0.5219
  942THF     C913382   4.617   2.822   1.821  0.0855 -0.2592  0.2135
  942THF    H1013383   4.701   2.626   1.780 -0.6880 -0.2415  0.2568
  942THF    H1113384   4.563   2.676   1.678 -1.2643  1.5320  1.4532
  942THF    H1213385   4.526   2.798   1.877  1.0727 -3.0663  0.7426
  942THF    H1313386   4.694   2.836   1.897 -0.5997 -1.4530  1.1691
  943THF     O113387   1.988   2.543   1.987 -0.1516  0.0496 -0.5561
  943THF     C213388   1.874   2.609   2.038  0.0192 -0.3260  0.1444
  943THF     C313389   1.986   2.410   2.036 -0.4216 -0.0743 -0.1189
  943THF     H413390   1.866   2.703   1.983  0.1226 -1.4390 -1.8858
  943THF     H513391   1.882   2.622   2.146  0.4193  0.2203  0.0517
  943THF     H613392   2.039   2.352   1.960 -0.2129 -1.9536  1.3915
  943THF     H713393   2.034   2.399   2.133 -0.1751 -1.0290 -0.3455
  943THF     C813394   1.836   2.377   2.047  0.4093 -0.3593  0.1250
  943THF     C913395   1.767   2.507   2.002  0.6945  0.0639  0.2365
  943THF    H1013396   1.807   2.345   2.147 -0.6601  0.3338  0.0554
  943THF    H1113397   1.817   2.295   1.977  0.7015 -0.5778  0.3009
  943THF    H1213398   1.742   2.506   1.896  1.2234 -1.0174  0.1034
  943THF    H1313399   1.675   2.518   2.059 -1.4262 -1.3098 -2.6187
  944THF     O113400   4.303   4.414   4.154  0.3822  0.3027 -0.6361
  944THF     C213401   4.417   4.490   4.118  0.8498  0.7509 -0.0245
  944THF     C313402   4.329   4.274   4.152 -0.5904  0.1917 -0.5335
  944THF     H413403   4.409   4.585   4.169  0.4248  1.5492 -1.5169
  944THF     H513404   4.419   4.522   4.014 -1.6069 -0.3917 -0.5116
  944THF     H613405   4.253   4.214   4.202 -0.5813 -1.1410 -2.0453
  944THF     H713406   4.340   4.246   4.047  0.4052 -0.0684 -0.3778
  944THF     C813407   4.467   4.275   4.214  0.3819 -0.5606  0.1212
  944THF     C913408   4.527   4.415   4.179  0.2138 -0.5078  0.0385
  944THF    H1013409   4.531   4.192   4.185  0.6988 -1.8196  3.8317
  944THF    H1113410   4.465   4.266   4.323  0.2481  1.8873  0.3853
  944THF    H1213411   4.577   4.451   4.269 -0.8224  1.3289 -0.0797
  944THF    H1313412   4.603   4.401   4.102 -1.6261  1.6982 -2.2993
  945THF     O113413   5.318   0.408   1.982 -0.3420 -0.1650  0.0946
  945THF     C213414   5.234   0.332   2.062  0.3276  0.2457  0.1110
  945THF     C313415   5.265   0.417   1.853  0.1309 -0.1365 -0.8764
  945THF     H413416   5.150   0.394   2.096  1.8864  2.8176 -0.4919
  945THF     H513417   5.284   0.304   2.155  2.1910 -0.7861 -1.1437
  945THF     H613418   5.205   0.509   1.856 -0.2626 -0.4244  1.3605
  945THF     H713419   5.340   0.430   1.775  1.9025 -0.1511  0.7681
  945THF     C813420   5.176   0.299   1.834  0.2740  0.0455  0.0470
  945THF     C913421   5.190   0.222   1.961 -0.1573  0.4722  0.1419
  945THF    H1013422   5.208   0.219   1.768  1.2426 -0.4616  1.1019
  945THF    H1113423   5.075   0.332   1.812  0.0524 -0.2369  0.6450
  945THF    H1213424   5.099   0.168   1.986  0.1700 -0.9122 -1.4874
  945THF    H1313425   5.269   0.146   1.955 -1.6704 -1.5815  3.3480
  946THF     O113426   3.198   3.794   2.765  0.3356  0.3956 -0.5453
  946THF     C213427   3.285   3.832   2.873  0.1462 -0.0799 -0.7380
  946THF     C313428   3.261   3.841   2.643  0.1498 -0.1086  0.0548
  946THF     H413429   3.369   3.766   2.854 -0.3674 -1.0617  0.2947
  946THF     H513430   3.247   3.819   2.975  1.8728  0.7970  0.0680
  946THF     H613431   3.346   3.781   2.611  1.3791  1.6335 -0.0779
  946THF     H713432   3.185   3.840   2.565 -0.8071  0.5274  0.9328
  946THF     C813433   3.313   3.980   2.683 -0.4450 -0.0264 -0.1999
  946THF     C913434   3.327   3.977   2.835 -0.7122  0.1885 -0.9537
  946THF    H1013435   3.236   4.049   2.648 -0.5862  1.6481  3.0458
  946THF    H1113436   3.405   3.985   2.625  1.0858 -0.9423  2.0050
  946THF    H1213437   3.430   4.003   2.861 -0.7013  0.8984 -1.6537
  946THF    H1313438   3.268   4.056   2.882  0.0639  0.5736 -0.6148
  947THF     O113439   4.270   4.305   5.369 -0.5924 -0.1314  0.0613
  947THF     C213440   4.391   4.324   5.299 -0.1407 -0.0061  0.1096
  947THF     C313441   4.193   4.426   5.362  0.2981 -0.2642  1.0497
  947THF     H413442   4.448   4.236   5.269 -0.4389  0.0662 -0.7053
  947THF     H513443   4.459   4.399   5.338  1.0941 -1.4900  0.9368
  947THF     H613444   4.089   4.407   5.389 -0.0094  0.0371  0.1183
  947THF     H713445   4.240   4.501   5.426 -0.4546  0.8974  0.2743
  947THF     C813446   4.194   4.464   5.216 -0.1288 -0.1292  0.0942
  947THF     C913447   4.322   4.382   5.171  1.0744 -0.4113 -0.2980
  947THF    H1013448   4.230   4.567   5.219 -2.0986  0.7115 -2.2209
  947THF    H1113449   4.107   4.445   5.154 -1.1521 -1.2134  1.7790
  947THF    H1213450   4.272   4.302   5.115 -4.0905  1.7371  0.6223
  947THF    H1313451   4.383   4.450   5.112  1.7649 -0.2882  0.5281
  948THF     O113452   4.094   0.715   3.113 -0.1003 -0.0387 -0.2420
  948THF     C213453   4.002   0.735   3.005 -0.0060  0.1183 -0.4064
  948THF     C313454   4.227   0.733   3.062  0.0441 -0.0468  0.9351
  948THF     H413455   3.956   0.831   3.028 -2.4735 -0.9341 -0.6275
  948THF     H513456   3.934   0.650   2.995  0.5290 -0.2649 -0.8265
  948THF     H613457   4.290   0.789   3.132 -0.0045  1.8029 -0.4161
  948THF     H713458   4.267   0.634   3.039 -0.8924 -0.2402  0.0846
  948THF     C813459   4.215   0.810   2.927 -0.7344  0.0690 -0.2747
  948THF     C913460   4.082   0.759   2.879  0.9258 -0.0710  0.2926
  948THF    H1013461   4.305   0.796   2.866  2.2579 -1.0556  3.9536
  948THF    H1113462   4.203   0.915   2.954 -0.5617 -0.4394  1.9255
  948THF    H1213463   4.031   0.829   2.813 -0.4425 -1.4393 -0.1485
  948THF    H1313464   4.083   0.664   2.825 -1.2634 -0.4135  0.7426
  949THF     O113465   1.332   4.666   4.934 -0.1790 -0.4325 -0.2389
  949THF     C213466   1.206   4.619   4.900  0.1958  0.4462  0.3777
  949THF     C313467   1.421   4.554   4.967 -0.3313 -0.2132  0.6795
  949THF     H413468   1.173   4.669   4.809  0.5980  2.9428  1.5319
  949THF     H513469   1.128   4.625   4.976  2.1308  2.1557  2.3660
  949THF     H613470   1.525   4.582   4.946 -0.3335 -0.5373  0.2289
  949THF     H713471   1.409   4.534   5.073  0.3061 -1.3613  0.5527
  949THF     C813472   1.371   4.438   4.884 -0.0847 -0.0908  0.0623
  949THF     C913473   1.219   4.459   4.881 -0.0947 -0.8776  0.0498
  949THF    H1013474   1.403   4.338   4.912  0.2365  0.3352  1.2619
  949THF    H1113475   1.408   4.462   4.784 -1.1592  1.2597 -0.0392
  949THF    H1213476   1.191   4.435   4.778  2.0809 -2.8715 -0.1480
  949THF    H1313477   1.168   4.397   4.956  0.3003  0.5699  1.5642
  950THF     O113478   1.489   1.710   2.311 -0.4552  0.2980 -0.6482
  950THF     C213479   1.355   1.686   2.351 -0.0286 -0.1051  1.0669
  950THF     C313480   1.541   1.796   2.417  0.7173 -0.7972  0.1367
  950THF     H413481   1.360   1.616   2.434  2.2586 -0.5754  0.5817
  950THF     H513482   1.296   1.635   2.274 -0.7396  0.4393  1.2396
  950THF     H613483   1.556   1.725   2.498  2.6824 -0.5533  0.0169
  950THF     H713484   1.633   1.848   2.391  0.6863 -0.5715  0.4793
  950THF     C813485   1.428   1.903   2.430 -0.5246 -0.1635 -0.0187
  950THF     C913486   1.310   1.822   2.394  0.6114 -0.0302 -0.7819
  950THF    H1013487   1.443   1.985   2.360 -1.4901  0.9955  1.1011
  950THF    H1113488   1.415   1.956   2.524 -1.6271  1.0260 -0.8189
  950THF    H1213489   1.232   1.800   2.468  0.6571 -1.7891 -1.2131
  950THF    H1313490   1.256   1.873   2.315 -0.3416  0.3448  0.0780
  951THF     O113491   4.416   3.719   0.062  0.9246  0.3795 -0.0310
  951THF     C213492   4.477   3.685   0.186 -0.5285 -0.2934  0.2608
  951THF     C313493   4.315   3.627   0.046 -0.4081  0.2298 -0.2329
  951THF     H413494   4.406   3.707   0.265 -1.0428  0.8952 -0.5148
  951THF     H513495   4.572   3.736   0.196 -0.2282 -0.9162  0.6752
  951THF     H613496   4.229   3.650   0.109 -0.0469 -1.3846  0.9243
  951THF     H713497   4.290   3.619  -0.059 -1.0573  0.8037 -0.1266
  951THF     C813498   4.377   3.495   0.097 -0.6970 -0.6140 -0.2942
  951THF     C913499   4.494   3.538   0.173  0.0360 -0.4480  0.0199
  951THF    H1013500   4.425   3.434   0.020  1.2197 -0.2657  0.5844
  951THF    H1113501   4.306   3.430   0.148 -0.3639 -0.1847  0.7229
  951THF    H1213502   4.526   3.467   0.249  0.9024 -2.0699 -1.7517
  951THF    H1313503   4.580   3.524   0.106  0.8015 -1.0803  1.1022
  952THF     O113504   0.794   0.285   2.845 -0.1017  0.2100  0.2742
  952THF     C213505   0.730   0.412   2.860 -0.1452 -0.2170 -0.4232
  952THF     C313506   0.883   0.249   2.961 -0.3693 -0.5442  0.4039
  952THF     H413507   0.627   0.393   2.890  1.2217 -0.6648  4.9318
  952THF     H513508   0.737   0.455   2.760 -0.8638 -0.2798 -0.5063
  952THF     H613509   0.834   0.186   3.034 -1.6241 -0.6627 -0.5225
  952THF     H713510   0.978   0.203   2.932 -0.7834 -0.1499 -1.7133
  952THF     C813511   0.919   0.394   3.012 -0.9701  0.0594 -0.3302
  952THF     C913512   0.804   0.483   2.973  0.3094 -0.2823  0.0378
  952THF    H1013513   1.006   0.437   2.963 -1.4936  1.2847 -0.2207
  952THF    H1113514   0.935   0.395   3.119 -2.1001 -3.4501  0.0153
  952THF    H1213515   0.741   0.505   3.059  2.5340 -1.0088  1.9682
  952THF    H1313516   0.848   0.577   2.937  0.6908 -0.7123 -0.6362
  953THF     O113517   5.098   3.908   2.936  0.3642  0.4011  0.0390
  953THF     C213518   4.988   3.930   2.854 -0.0339  0.2792 -0.0248
  953THF     C313519   5.204   3.986   2.873 -0.5113  0.1774  1.0139
  953THF     H413520   4.898   3.922   2.915 -0.0188  0.7223  0.0584
  953THF     H513521   4.989   3.856   2.774 -1.0361  0.2360 -0.0146
  953THF     H613522   5.295   3.990   2.933  2.9290  0.4013 -3.7124
  953THF     H713523   5.232   3.928   2.785 -2.2465 -0.3059  0.7342
  953THF     C813524   5.141   4.118   2.821  0.2659 -0.0574  0.3603
  953THF     C913525   4.995   4.077   2.799 -0.2558  0.0981  0.1174
  953THF    H1013526   5.179   4.154   2.725 -0.3918 -0.6748 -0.1424
  953THF    H1113527   5.143   4.204   2.888 -0.5374  0.9259 -0.8299
  953THF    H1213528   4.916   4.126   2.855 -1.5237  0.1900 -1.6760
  953THF    H1313529   4.972   4.065   2.693  0.9047  0.9438 -0.2524
  954THF     O113530   3.961   4.063   4.072  0.1152 -0.0818 -0.8742
  954THF     C213531   3.954   3.974   3.964 -0.1288 -0.1157  0.4015
  954THF     C313532   3.878   4.173   4.064  0.8584 -0.7604 -0.6417
  954THF     H413533   3.959   3.872   4.001  1.3676 -0.0888  0.3401
  954THF     H513534   4.042   3.992   3.902 -0.5959 -3.0291 -1.2829
  954THF     H613535   3.803   4.166   4.143  0.3179  0.0221 -1.0703
  954THF     H713536   3.923   4.271   4.082  1.3318 -0.6482 -2.3286
  954THF     C813537   3.830   4.179   3.920  0.0576  0.1056 -0.2120
  954THF     C913538   3.834   4.024   3.882 -0.0748  0.6855  0.6197
  954THF    H1013539   3.900   4.239   3.861 -1.4604  1.4834 -0.6987
  954THF    H1113540   3.735   4.230   3.901  0.4183  1.3458  1.1824
  954THF    H1213541   3.738   3.979   3.906  0.3827 -0.7044 -0.0575
  954THF    H1313542   3.829   4.003   3.776 -2.4233 -1.7045  1.0956
  955THF     O113543   0.944   5.095   1.373 -0.0891  0.0959  0.6432
  955THF     C213544   1.018   5.012   1.280  0.1032  0.4968  0.5933
  955THF     C313545   0.897   5.004   1.478 -0.3825 -0.0403  0.2498
  955THF     H413546   1.096   5.061   1.221 -1.2080  1.1562 -0.6289
  955THF     H513547   0.958   4.968   1.201  0.8792  3.1536 -1.6367
  955THF     H613548   0.849   5.058   1.559 -0.6326 -0.6021  0.4793
  955THF     H713549   0.815   4.943   1.440 -0.7270 -0.8687  2.2465
  955THF     C813550   1.019   4.918   1.503 -0.3519  0.3452 -0.4361
  955THF     C913551   1.086   4.914   1.366  0.3417  0.6163 -0.2829
  955THF    H1013552   0.988   4.818   1.535 -0.6851  0.3492 -0.7437
  955THF    H1113553   1.087   4.965   1.574 -0.8789  0.5532 -0.0642
  955THF    H1213554   1.191   4.933   1.389  1.0944 -3.2656  0.2394
  955THF    H1313555   1.078   4.814   1.324  0.6894  0.9352 -1.1333
  956THF     O113556   2.284   4.396   0.514 -0.0710  0.2219 -0.2608
  956THF     C213557   2.161   4.352   0.448 -0.0046 -0.0790 -0.0564
  956THF     C313558   2.244   4.488   0.613 -0.4895  0.1819  0.4266
  956THF     H413559   2.174   4.247   0.422 -1.5258 -0.3916  0.3522
  956THF     H513560   2.147   4.417   0.362 -1.4570  0.4414  0.5538
  956THF     H613561   2.317   4.497   0.693 -0.1277 -1.9639  0.3932
  956THF     H713562   2.238   4.583   0.561  2.3269  0.3365  0.2164
  956THF     C813563   2.109   4.449   0.668 -0.2003  1.1032 -0.3935
  956THF     C913564   2.048   4.385   0.552  0.1488  0.1754  0.3469
  956THF    H1013565   2.058   4.537   0.707 -0.1021  1.3401 -0.8043
  956THF    H1113566   2.144   4.380   0.746 -2.4290  1.3025  0.8766
  956THF    H1213567   1.981   4.304   0.582  0.3057 -0.7860 -1.7205
  956THF    H1313568   1.978   4.454   0.505 -0.7143 -0.9777 -0.1072
  957THF     O113569   0.995   0.716   2.851  0.2451  0.3711  0.4379
  957THF     C213570   0.972   0.797   2.729  0.0278  0.2158 -0.0628
  957THF     C313571   0.996   0.792   2.970  1.0675 -0.6643  0.1832
  957THF     H413572   0.925   0.744   2.647  0.4637  0.3907 -0.4265
  957THF     H513573   1.058   0.850   2.691  2.6126 -2.7770  1.1760
  957THF     H613574   0.933   0.744   3.045  0.3560  1.0875  0.7344
  957THF     H713575   1.097   0.820   2.999  0.6398 -0.2256  1.2956
  957THF     C813576   0.928   0.930   2.933 -0.4326  0.5479  0.3632
  957THF     C913577   0.876   0.902   2.790  0.0814 -0.1078  0.6945
  957THF    H1013578   0.997   1.015   2.942 -0.0668  0.0600  2.8741
  957THF    H1113579   0.846   0.952   3.001 -1.3747  1.3138 -0.9661
  957THF    H1213580   0.781   0.850   2.792  0.2253 -0.9620 -3.6713
  957THF    H1313581   0.876   0.992   2.728  0.8346 -1.1056 -0.8372
  958THF     O113582   0.247   4.076   3.492  0.4439  0.2648 -0.4658
  958THF     C213583   0.318   3.997   3.398 -0.1033 -0.3404  0.4500
  958THF     C313584   0.174   3.986   3.576  0.4729  1.1440  0.2280
  958THF     H413585   0.425   4.018   3.401 -0.3023  0.6958  0.8421
  958THF     H513586   0.285   4.034   3.301 -1.4772 -3.7300 -0.5045
  958THF     H613587   0.183   4.022   3.679  2.7537 -0.8115  0.8115
  958THF     H713588   0.068   3.985   3.549  0.0049  2.2852  1.8099
  958THF     C813589   0.225   3.841   3.569  0.3330  0.2441  0.4280
  958THF     C913590   0.287   3.848   3.426  0.0563 -0.0364 -0.2515
  958THF    H1013591   0.148   3.764   3.565  2.4673 -1.9492 -0.3897
  958THF    H1113592   0.300   3.808   3.640 -0.5981 -4.1132 -0.3429
  958THF    H1213593   0.378   3.789   3.418  0.3730  0.0131  2.1181
  958THF    H1313594   0.213   3.812   3.356 -0.6753  1.2766 -0.1819
  959THF     O113595   4.222   1.272   3.316 -0.0241 -0.1983 -0.0014
  959THF     C213596   4.306   1.182   3.385  0.0733  0.2464  0.4811
  959THF     C313597   4.141   1.199   3.227 -0.2944 -0.2533  0.0578
  959THF     H413598   4.241   1.137   3.460 -0.4135 -1.2138 -0.7803
  959THF     H513599   4.388   1.236   3.434  0.8741 -0.2243 -0.3194
  959THF     H613600   4.055   1.157   3.279  0.6417 -2.3050  0.0883
  959THF     H713601   4.092   1.249   3.143 -0.3593  0.4848  0.5319
  959THF     C813602   4.238   1.079   3.184  1.1796 -1.0665  0.1809
  959THF     C913603   4.347   1.074   3.282  0.4029  0.0156 -0.1628
  959THF    H1013604   4.274   1.078   3.081  1.3048  1.2710  0.1413
  959THF    H1113605   4.174   0.994   3.206 -2.0634  1.9789  4.4799
  959THF    H1213606   4.353   0.974   3.326 -2.2885 -0.3258 -0.4235
  959THF    H1313607   4.444   1.095   3.236  0.6456  0.3099  0.4710
  960THF     O113608   4.305   2.536   2.461 -0.3296  0.6262 -0.1549
  960THF     C213609   4.247   2.521   2.333  0.1819  0.4660  0.3795
  960THF     C313610   4.399   2.646   2.452  0.4467  0.5646 -0.0104
  960THF     H413611   4.166   2.591   2.310  1.2049  1.7108  0.3999
  960THF     H513612   4.213   2.418   2.328  1.3442  0.0856 -0.2563
  960THF     H613613   4.344   2.738   2.473  0.8762  1.1341 -1.3072
  960THF     H713614   4.479   2.629   2.524  0.8344 -0.4337 -0.6665
  960THF     C813615   4.451   2.647   2.308  0.4516 -0.4001  0.2090
  960THF     C913616   4.356   2.553   2.234  0.0488 -0.1257  0.1408
  960THF    H1013617   4.550   2.602   2.310 -0.2213 -2.2479 -2.6444
  960THF    H1113618   4.454   2.748   2.267  0.1954 -0.3362  0.3504
  960THF    H1213619   4.314   2.593   2.142 -0.1963  0.7925  0.6395
  960THF    H1313620   4.412   2.464   2.204 -0.4103 -0.7787  1.1999
  961THF     O113621   0.409   3.145   0.925  0.5483 -0.2336 -0.7646
  961THF     C213622   0.439   3.067   0.814 -0.6487  0.0137 -0.2160
  961THF     C313623   0.316   3.079   1.007 -0.3962 -0.1564 -0.7887
  961THF     H413624   0.546   3.047   0.810 -0.5885  0.3092 -0.1336
  961THF     H513625   0.414   3.119   0.721  0.3660  1.5575  0.3428
  961THF     H613626   0.369   3.025   1.086 -1.2791 -2.1159 -1.4776
  961THF     H713627   0.253   3.153   1.058  0.5918 -0.0617  0.3546
  961THF     C813628   0.246   2.979   0.924 -0.0761 -0.4930 -0.1241
  961THF     C913629   0.360   2.935   0.840  0.1984 -0.0057 -0.0535
  961THF    H1013630   0.169   3.020   0.859  1.0568 -0.2228 -1.3426
  961THF    H1113631   0.207   2.893   0.979  0.0313  0.5268  1.6272
  961THF    H1213632   0.421   2.875   0.908 -0.3208 -0.6905 -0.1841
  961THF    H1313633   0.341   2.883   0.747  0.0004 -0.9982  0.5336
  962THF     O113634   1.851   0.240   4.019 -1.1069 -0.1562  0.1953
  962THF     C213635   1.805   0.284   4.145 -0.0634  0.3694 -0.1614
  962THF     C313636   1.747   0.177   3.947 -0.6707 -0.9950 -0.9506
  962THF     H413637   1.874   0.363   4.174 -0.8353  0.2531  2.2345
  962THF     H513638   1.812   0.209   4.224  1.9575  1.2659  0.5780
  962THF     H613639   1.750   0.173   3.838  0.8058  1.1344 -1.0451
  962THF     H713640   1.730   0.072   3.974 -1.0859 -1.2934 -2.2916
  962THF     C813641   1.618   0.258   3.984 -0.7408  0.0396  0.2269
  962THF     C913642   1.657   0.327   4.112  0.0301 -0.0002 -0.1602
  962THF    H1013643   1.537   0.189   4.004 -0.7148  0.1264  0.6341
  962THF    H1113644   1.584   0.339   3.918  0.5025 -0.3726 -0.9665
  962THF    H1213645   1.660   0.436   4.116  2.8532 -0.0141  0.3687
  962THF    H1313646   1.587   0.298   4.190  0.4546  0.1668  0.2868
  963THF     O113647   0.595   5.177   1.052 -0.1814  0.2662 -0.5605
  963THF     C213648   0.473   5.115   1.088 -0.6284 -0.4482  0.0030
  963THF     C313649   0.582   5.314   1.084 -0.2819 -0.0157  0.4858
  963THF     H413650   0.494   5.009   1.103  1.7073 -0.4566 -2.5556
  963THF     H513651   0.399   5.137   1.010 -0.1777 -0.0687 -0.3246
  963THF     H613652   0.679   5.362   1.085 -1.0835  1.7122  1.6808
  963THF     H713653   0.521   5.373   1.015 -2.5793  0.7650  3.0038
  963THF     C813654   0.517   5.315   1.222 -0.0796 -0.4472 -0.0819
  963THF     C913655   0.430   5.196   1.214 -0.8111 -0.2328  0.7661
  963THF    H1013656   0.460   5.404   1.250 -0.0971 -0.0753 -1.2646
  963THF    H1113657   0.599   5.311   1.293 -0.8891 -1.6358  0.8303
  963THF    H1213658   0.454   5.143   1.306 -0.2677 -0.1257  0.6899
  963THF    H1313659   0.329   5.236   1.204 -0.3513  0.6361 -0.5847
  964THF     O113660   4.016   2.464   4.664  0.6163 -0.5872 -0.1405
  964THF     C213661   4.084   2.348   4.623  0.0142  0.6748  0.2742
  964THF     C313662   4.118   2.555   4.687 -1.0823 -0.2224 -0.2555
  964THF     H413663   4.008   2.287   4.575  0.3314  0.9047 -0.5490
  964THF     H513664   4.114   2.296   4.714 -1.9761 -0.2141  0.4589
  964THF     H613665   4.087   2.654   4.653  0.3832  0.1846 -0.4767
  964THF     H713666   4.136   2.571   4.793  0.9179  1.9006 -0.8292
  964THF     C813667   4.246   2.510   4.615  0.3696  0.1770  0.1513
  964THF     C913668   4.200   2.393   4.541 -0.2171 -0.2274 -0.4487
  964THF    H1013669   4.318   2.485   4.693  2.5672  0.3878 -1.7197
  964THF    H1113670   4.291   2.577   4.542  0.7475  0.1685  0.3731
  964THF    H1213671   4.164   2.431   4.445 -1.1164  1.9595  0.6851
  964THF    H1313672   4.283   2.324   4.525  0.2732  0.2469  0.0190
  965THF     O113673   3.183   5.069   3.458  0.1910 -0.4582 -0.0753
  965THF     C213674   3.063   4.999   3.443 -1.2007  0.0279  0.6704
  965THF     C313675   3.162   5.156   3.574 -0.0593 -0.8579 -0.0565
  965THF     H413676   3.091   4.899   3.411  0.4199  0.5830  0.2429
  965THF     H513677   3.000   5.033   3.361 -0.7437 -2.6671 -0.9135
  965THF     H613678   3.255   5.195   3.614 -0.7843  2.3748 -1.1966
  965THF     H713679   3.110   5.242   3.532  3.8384  0.7198 -2.1641
  965THF     C813680   3.074   5.068   3.667 -0.5147 -0.1726  0.5787
  965THF     C913681   2.990   4.984   3.577  0.0308  0.3316 -0.4853
  965THF    H1013682   3.004   5.120   3.732 -1.6716  0.9650 -1.4760
  965THF    H1113683   3.135   5.001   3.728 -0.5537  0.1661  0.9982
  965THF    H1213684   2.982   4.878   3.599  1.0250  0.4464  0.5302
  965THF    H1313685   2.885   5.015   3.583 -0.0024  0.5288 -1.7752
  966THF     O113686   5.427   5.022   4.190 -0.1258  0.2821  0.2506
  966THF     C213687   5.520   5.130   4.168  0.1211 -0.2107  0.0149
  966THF     C313688   5.309   5.044   4.113 -0.0420  0.1550 -0.5815
  966THF     H413689   5.625   5.107   4.185 -0.0437 -0.3996  0.8361
  966THF     H513690   5.478   5.220   4.212  2.1207 -0.2842  2.3179
  966THF     H613691   5.268   4.948   4.083  0.6879 -0.3958  0.1338
  966THF     H713692   5.237   5.110   4.162 -1.9508 -2.1072 -0.1649
  966THF     C813693   5.362   5.122   3.989  0.2696  0.6640 -0.2017
  966THF     C913694   5.505   5.152   4.020  0.4715 -0.4725 -0.5849
  966THF    H1013695   5.302   5.211   3.974 -0.8377  0.0994  0.8024
  966THF    H1113696   5.350   5.060   3.900 -0.8982 -0.7347  0.8932
  966THF    H1213697   5.566   5.077   3.969  1.0698  0.3831 -1.1649
  966THF    H1313698   5.548   5.248   3.991 -1.7071  0.4105 -1.1376
  967THF     O113699   2.391   2.719   0.400 -0.5358  0.0933  0.4709
  967THF     C213700   2.462   2.602   0.434 -0.0042 -0.0576 -0.1427
  967THF     C313701   2.263   2.728   0.456 -0.4574 -0.2280 -0.1512
  967THF     H413702   2.497   2.621   0.535 -0.9521 -0.7564  0.3299
  967THF     H513703   2.550   2.573   0.376  0.0025  2.6452 -1.6329
  967THF     H613704   2.271   2.757   0.561 -0.5757 -1.3048  0.1746
  967THF     H713705   2.205   2.801   0.401 -0.3119 -1.0301 -1.3943
  967THF     C813706   2.222   2.587   0.439 -0.4465 -0.1901 -0.7044
  967THF     C913707   2.349   2.502   0.440  0.1985  0.5076 -0.2194
  967THF    H1013708   2.178   2.572   0.340 -0.0351 -1.8477 -0.6719
  967THF    H1113709   2.138   2.562   0.504  0.0379  0.5196  0.2011
  967THF    H1213710   2.347   2.433   0.524  0.0053  0.7125 -0.0545
  967THF    H1313711   2.353   2.446   0.347 -0.3827 -0.2120  0.1805
  968THF     O113712   2.789   3.279   2.180 -0.0834  0.1510  0.0865
  968THF     C213713   2.756   3.280   2.046 -0.0015 -0.1462  0.4004
  968THF     C313714   2.853   3.408   2.199  0.3315  0.6277  0.5247
  968THF     H413715   2.666   3.342   2.044 -0.5244 -0.7769  2.1501
  968THF     H513716   2.730   3.183   2.004  3.3259 -1.9559  2.1808
  968THF     H613717   2.781   3.490   2.201  0.2267  0.5259  2.6613
  968THF     H713718   2.906   3.409   2.294 -1.0250 -0.2417  1.3111
  968THF     C813719   2.961   3.420   2.089  0.0875 -0.4922  0.4798
  968THF     C913720   2.886   3.344   1.977 -0.2870  0.5148 -0.0980
  968THF    H1013721   3.051   3.371   2.127 -0.1843 -1.5401 -0.1991
  968THF    H1113722   2.972   3.524   2.059 -1.2573 -0.4983 -0.0786
  968THF    H1213723   2.840   3.410   1.903 -0.7979  1.3069  0.8921
  968THF    H1313724   2.954   3.269   1.937 -2.0785 -0.8889 -0.5979
  969THF     O113725   0.821   3.248   3.420 -0.2927 -0.1479  0.7565
  969THF     C213726   0.864   3.122   3.385  0.2676  0.7165  0.8380
  969THF     C313727   0.852   3.265   3.559 -0.1226 -0.0601 -0.0110
  969THF     H413728   0.962   3.124   3.337 -1.3588 -0.9164 -2.9742
  969THF     H513729   0.795   3.095   3.305  2.0801  2.9938 -1.6688
  969THF     H613730   0.956   3.286   3.585 -0.0761  1.9289 -1.5068
  969THF     H713731   0.790   3.347   3.596 -0.9876  0.3844 -2.2721
  969THF     C813732   0.801   3.138   3.617 -0.4584  0.0364  0.9308
  969THF     C913733   0.848   3.038   3.513 -0.4473 -0.9419 -0.0213
  969THF    H1013734   0.693   3.140   3.627 -0.7312 -2.7446 -0.4934
  969THF    H1113735   0.865   3.123   3.704  2.0646 -1.2973 -1.0385
  969THF    H1213736   0.950   3.005   3.535  0.3946 -0.2243 -2.5186
  969THF    H1313737   0.781   2.953   3.495 -2.7443  0.4875  1.2550
  970THF     O113738   2.067   0.421   3.607 -0.4714 -0.0446 -0.1251
  970THF     C213739   2.048   0.332   3.718 -0.2577 -0.1660 -0.6717
  970THF     C313740   2.064   0.341   3.485  0.6490  0.4676  0.6403
  970THF     H413741   1.942   0.313   3.731  0.0052 -1.4787 -0.2309
  970THF     H513742   2.092   0.371   3.810 -1.2044  0.3266 -0.4201
  970THF     H613743   1.964   0.351   3.442  0.9413  1.1770  0.0931
  970THF     H713744   2.130   0.370   3.403 -1.9993  0.6408 -1.5792
  970THF     C813745   2.090   0.194   3.523  0.4564  0.0570  0.0842
  970THF     C913746   2.118   0.203   3.666  0.6868  0.1408  0.1398
  970THF    H1013747   2.174   0.151   3.469 -0.9112 -3.1997  0.2789
  970THF    H1113748   2.011   0.129   3.484  1.8507 -1.7147  0.0942
  970THF    H1213749   2.088   0.121   3.732  0.3797 -0.1056 -0.2945
  970THF    H1313750   2.225   0.222   3.674  0.5010  0.6943  1.6072
  971THF     O113751   1.891   3.779   3.530  0.0192  0.0813 -0.2390
  971THF     C213752   1.955   3.911   3.523 -0.1977 -0.5260  0.6309
  971THF     C313753   1.771   3.792   3.601  0.2202 -0.7099  0.0700
  971THF     H413754   1.900   3.966   3.446 -0.0318  0.5257  1.2448
  971THF     H513755   2.061   3.906   3.499 -0.3331 -2.2063  0.2655
  971THF     H613756   1.697   3.800   3.521 -0.0143  2.1143  0.4764
  971THF     H713757   1.742   3.705   3.660 -0.1984 -0.1257  0.7274
  971THF     C813758   1.782   3.922   3.681  0.0206 -0.1778 -1.0406
  971THF     C913759   1.924   3.967   3.654 -0.3443  1.0859 -0.1086
  971THF    H1013760   1.757   3.913   3.787 -0.0767  0.5090 -0.9971
  971THF    H1113761   1.716   4.001   3.645 -0.2414  1.0194  1.7237
  971THF    H1213762   1.943   4.075   3.650 -0.4618  1.0690 -1.4190
  971THF    H1313763   1.992   3.919   3.725 -1.5417  0.6997  0.8071
  972THF     O113764   4.567   2.221   0.906  0.1000  0.1684  0.0248
  972THF     C213765   4.500   2.217   1.036 -1.0424  0.6179  0.2302
  972THF     C313766   4.633   2.097   0.890 -0.0134  0.0440 -0.3928
  972THF     H413767   4.423   2.294   1.037 -2.8310 -1.0496 -1.3438
  972THF     H513768   4.568   2.218   1.121  1.1633 -1.7816 -1.3607
  972THF     H613769   4.656   2.084   0.784 -0.5703 -0.4628 -0.4546
  972THF     H713770   4.720   2.079   0.953 -0.9228  3.1154  2.0223
  972THF     C813771   4.523   2.006   0.936  0.2253  0.2755  0.1800
  972THF     C913772   4.433   2.079   1.036 -0.3035 -0.9452  0.0417
  972THF    H1013773   4.571   1.917   0.978 -0.2917 -0.9103 -1.6346
  972THF    H1113774   4.463   1.975   0.851  1.3029  3.3028 -1.8574
  972THF    H1213775   4.329   2.088   1.006 -0.0632  2.5608 -0.1571
  972THF    H1313776   4.442   2.041   1.138 -0.3345 -0.2845  0.2929
  973THF     O113777   1.385   3.951   2.000 -0.1986  0.1640  0.1461
  973THF     C213778   1.346   4.012   2.122 -0.0515  0.1545  0.5142
  973THF     C313779   1.320   3.819   1.991 -0.6277 -0.7282  0.3803
  973THF     H413780   1.279   4.097   2.107 -1.0408 -0.7624 -0.5296
  973THF     H513781   1.423   4.052   2.187  0.7502  1.6174 -1.2305
  973THF     H613782   1.296   3.806   1.885 -0.4755  0.6274  0.1556
  973THF     H713783   1.398   3.745   2.009  1.8635  1.2458 -1.5443
  973THF     C813784   1.202   3.833   2.084  0.0990  0.4088  0.3121
  973THF     C913785   1.269   3.905   2.196 -0.0877 -1.4078  0.2921
  973THF    H1013786   1.163   3.735   2.110  1.1962 -0.2544 -0.4558
  973THF    H1113787   1.133   3.900   2.033  0.5090  0.7137  0.1525
  973THF    H1213788   1.196   3.967   2.247  0.2521 -0.6480 -0.1243
  973THF    H1313789   1.324   3.843   2.266  0.4169 -0.9481  0.3145
  974THF     O113790   0.437   3.367   0.423 -0.0484 -0.1172 -0.3777
  974THF     C213791   0.549   3.319   0.494 -0.6046 -0.0374  0.5518
  974THF     C313792   0.355   3.438   0.514 -0.1988  0.5027  0.0670
  974THF     H413793   0.629   3.311   0.419 -0.4423 -2.0504  0.9030
  974THF     H513794   0.532   3.216   0.525 -1.0373 -0.8990 -2.2500
  974THF     H613795   0.285   3.508   0.469 -0.6705  0.3357  0.5412
  974THF     H713796   0.304   3.364   0.575 -0.1114 -0.0185 -0.4793
  974THF     C813797   0.457   3.525   0.594  0.3235 -0.5087 -0.1028
  974THF     C913798   0.569   3.423   0.609 -0.0406  0.6786  0.1501
  974THF    H1013799   0.412   3.553   0.689  0.7028  0.3372 -0.1585
  974THF    H1113800   0.494   3.607   0.531  2.1385 -1.8349 -0.8462
  974THF    H1213801   0.665   3.473   0.602 -0.7903  2.0924 -0.7095
  974THF    H1313802   0.554   3.372   0.704 -1.0491  1.8852  0.6746
  975THF     O113803   4.368   4.015   4.937  0.6587 -0.2099  0.6681
  975THF     C213804   4.317   4.115   4.854 -0.2518  0.1721  0.3223
  975THF     C313805   4.506   4.000   4.917  0.5947  0.4705  0.9045
  975THF     H413806   4.231   4.145   4.913 -0.6879 -2.3110  1.0651
  975THF     H513807   4.290   4.079   4.755 -0.5242 -1.4672  0.9658
  975THF     H613808   4.573   3.947   4.984  0.9045 -0.2423  0.0646
  975THF     H713809   4.519   3.967   4.813 -0.4121  1.9138  0.2959
  975THF     C813810   4.551   4.143   4.910 -0.3302 -0.2246  0.9165
  975THF     C913811   4.430   4.217   4.849 -0.3544 -0.1028 -0.3022
  975THF    H1013812   4.647   4.159   4.862 -0.0119 -1.8303  0.9533
  975THF    H1113813   4.571   4.173   5.013  4.1838 -1.7341  0.7088
  975THF    H1213814   4.410   4.308   4.907 -0.2112  0.1724 -0.6804
  975THF    H1313815   4.447   4.252   4.747  3.6295  1.5668  0.7135
  976THF     O113816   1.765   5.085   5.293  0.1658  0.3442  0.4402
  976THF     C213817   1.905   5.097   5.266  0.0701  0.0221  0.4565
  976THF     C313818   1.730   4.958   5.241  0.1554 -0.4752  0.3999
  976THF     H413819   1.954   5.178   5.319 -1.2399  0.4514  1.0221
  976THF     H513820   1.923   5.127   5.162  2.0412 -0.1506  0.6992
  976THF     H613821   1.630   4.926   5.270  0.1102 -1.4312 -0.7554
  976THF     H713822   1.706   4.956   5.135 -0.8519  1.6670  0.5403
  976THF     C813823   1.848   4.865   5.289  0.0942 -1.0805  0.1827
  976THF     C913824   1.970   4.958   5.278 -0.6917  0.0472  0.0332
  976THF    H1013825   1.861   4.774   5.232 -0.4107  0.0598 -1.8399
  976THF    H1113826   1.836   4.846   5.396 -1.0316 -1.5357 -0.0119
  976THF    H1213827   2.029   4.966   5.369  0.7586  2.1350 -0.9939
  976THF    H1313828   2.036   4.945   5.192 -3.3520 -0.3463 -2.0785
  977THF     O113829   1.043   2.538   1.093  0.0162  0.1559 -0.0121
  977THF     C213830   0.918   2.492   1.129  0.0270 -0.0622  0.1605
  977THF     C313831   1.048   2.591   0.962  0.1613  0.3504 -0.2299
  977THF     H413832   0.876   2.564   1.199 -0.7439 -0.1257 -0.2265
  977THF     H513833   0.926   2.394   1.177 -2.7367  0.1038  1.1215
  977THF     H613834   1.098   2.688   0.955  1.1733 -0.0818  0.7735
  977THF     H713835   1.095   2.518   0.897  0.5266  0.0530  0.3616
  977THF     C813836   0.902   2.600   0.923  0.2657  0.3871  0.4468
  977THF     C913837   0.839   2.483   0.996 -0.1819 -0.5838 -0.3816
  977THF    H1013838   0.882   2.598   0.816  0.1535 -1.8704  0.4532
  977THF    H1113839   0.864   2.692   0.967 -1.1191 -0.0268  0.1734
  977THF    H1213840   0.731   2.489   1.006 -0.3932 -1.0741 -2.1359
  977THF    H1313841   0.867   2.394   0.940 -1.9708 -0.5970 -1.3147
  978THF     O113842   3.207   1.831   0.808  0.4402 -0.0207 -0.5352
  978THF     C213843   3.231   1.708   0.874 -0.9790 -0.2844  0.2382
  978THF     C313844   3.138   1.791   0.687 -0.3986 -0.4048  0.4474
  978THF     H413845   3.139   1.678   0.925 -1.6491 -0.5343 -1.0765
  978THF     H513846   3.297   1.716   0.960  1.9416 -0.8168 -1.8010
  978THF     H613847   3.032   1.794   0.710 -0.2571  1.8651  1.0199
  978THF     H713848   3.159   1.861   0.606 -0.3930  1.1271  1.7326
  978THF     C813849   3.201   1.657   0.642  0.0064 -0.6004 -0.0612
  978THF     C913850   3.276   1.609   0.763 -0.3852  0.6797 -0.3706
  978THF    H1013851   3.265   1.681   0.557 -3.0717  1.8403 -1.9076
  978THF    H1113852   3.125   1.590   0.601 -0.0199  0.3755 -1.6844
  978THF    H1213853   3.241   1.511   0.797 -0.0289  0.4953 -0.5298
  978THF    H1313854   3.384   1.607   0.753 -0.4623  0.9491 -1.2800
  979THF     O113855   5.234   4.129   4.803  0.1448  0.2886  0.5752
  979THF     C213856   5.107   4.118   4.852 -0.5543  0.4218  0.2236
  979THF     C313857   5.279   4.265   4.799  0.0244  0.2796 -0.2017
  979THF     H413858   5.091   4.021   4.898 -0.6086 -0.2514 -1.1449
  979THF     H513859   5.055   4.110   4.756  2.1340  0.7416 -1.3797
  979THF     H613860   5.383   4.278   4.831  0.1373  0.0594 -0.4783
  979THF     H713861   5.261   4.315   4.704  0.0804 -0.5570 -0.6565
  979THF     C813862   5.179   4.339   4.894  0.1460  0.2923  0.4595
  979THF     C913863   5.088   4.236   4.940  0.5571  0.5015 -0.9000
  979THF    H1013864   5.129   4.428   4.856  2.3214  0.9271 -1.1778
  979THF    H1113865   5.240   4.375   4.977  0.8604  0.3570 -0.0777
  979THF    H1213866   5.123   4.215   5.041  0.7939 -1.2773 -1.3138
  979THF    H1313867   4.983   4.264   4.931 -0.0786 -0.9071  1.2619
  980THF     O113868   2.127   2.269   3.043  0.1022  0.3411  0.1010
  980THF     C213869   2.109   2.280   3.188 -0.6006  0.3859  0.8371
  980THF     C313870   2.009   2.207   2.995 -0.0810  0.2904  0.0770
  980THF     H413871   2.164   2.362   3.234 -1.4658 -0.0434  2.7731
  980THF     H513872   2.149   2.188   3.232 -0.6994 -0.5397 -0.9181
  980THF     H613873   1.998   2.233   2.890  0.9584  0.1370 -0.0799
  980THF     H713874   2.026   2.099   2.995  0.4593  0.3717 -0.2159
  980THF     C813875   1.898   2.252   3.090  0.0346  0.0516 -0.4076
  980THF     C913876   1.970   2.301   3.209 -0.0214  0.1311  0.8217
  980THF    H1013877   1.820   2.178   3.108  1.6486 -1.0961  2.4893
  980THF    H1113878   1.843   2.340   3.055 -0.7591  0.1135  0.9488
  980THF    H1213879   1.950   2.407   3.219 -1.5056 -0.0309 -0.1089
  980THF    H1313880   1.943   2.243   3.298  1.6835 -2.9555 -0.5033
  981THF     O113881   5.486   0.828   2.049  0.6788  0.5091  0.2326
  981THF     C213882   5.458   0.838   2.189 -0.1431  0.3828  0.2662
  981THF     C313883   5.368   0.759   1.995  0.3692 -0.4432  0.4092
  981THF     H413884   5.518   0.918   2.235  1.8566 -1.7430  1.5643
  981THF     H513885   5.488   0.746   2.239 -2.2268 -0.4656  0.0459
  981THF     H613886   5.371   0.767   1.887  3.9019  0.0241  0.4006
  981THF     H713887   5.368   0.655   2.029 -2.0893 -0.5745  0.1272
  981THF     C813888   5.255   0.839   2.062 -0.0910 -0.3731  0.4250
  981THF     C913889   5.313   0.880   2.200  0.1351 -0.5214  0.3984
  981THF    H1013890   5.161   0.785   2.066 -1.3921  1.0722 -4.4566
  981THF    H1113891   5.221   0.926   2.006 -0.9470 -0.2043  1.1791
  981THF    H1213892   5.328   0.988   2.206  3.2474 -0.9315  1.3939
  981THF    H1313893   5.266   0.827   2.283 -1.9803  0.0848 -0.3274
  982THF     O113894   5.119   1.698   5.399  0.3547  0.6855  0.0773
  982THF     C213895   5.158   1.561   5.409 -0.0996 -0.3324  0.0252
  982THF     C313896   5.233   1.773   5.375  0.1449 -0.6729  1.1708
  982THF     H413897   5.114   1.516   5.320  0.3666  1.4188 -1.1424
  982THF     H513898   5.119   1.508   5.497 -1.1372  1.2332  0.5506
  982THF     H613899   5.214   1.859   5.310 -0.5066 -0.5632  1.5017
  982THF     H713900   5.269   1.815   5.469 -0.1626  1.7385  0.3068
  982THF     C813901   5.331   1.679   5.309  0.1010 -0.0807  0.8283
  982THF     C913902   5.305   1.551   5.391  0.5723 -0.7559 -0.3809
  982THF    H1013903   5.435   1.713   5.314  1.3986 -3.1435 -1.8086
  982THF    H1113904   5.310   1.683   5.202  1.5039  2.7585  0.5476
  982THF    H1213905   5.348   1.469   5.334  1.6095 -1.4476  1.3119
  982THF    H1313906   5.351   1.549   5.490 -2.5731 -0.8927  1.2224
  983THF     O113907   0.412   1.686   0.644  0.4540  0.3406 -0.0491
  983THF     C213908   0.465   1.573   0.706 -0.1422 -0.3244  0.1590
  983THF     C313909   0.317   1.649   0.545 -0.2418 -0.4897 -0.2851
  983THF     H413910   0.404   1.534   0.787  1.7341 -2.1374  0.8128
  983THF     H513911   0.560   1.593   0.755  0.3464  0.3479 -1.0117
  983THF     H613912   0.217   1.672   0.581  0.1069  2.9041 -1.2140
  983THF     H713913   0.330   1.720   0.464  0.6362 -1.4551 -1.0122
  983THF     C813914   0.344   1.499   0.509 -0.4038  0.6186 -0.6491
  983THF     C913915   0.464   1.467   0.597  0.0525 -0.4475 -0.0492
  983THF    H1013916   0.359   1.478   0.403  2.8857 -0.2141 -0.1461
  983THF    H1113917   0.267   1.430   0.541 -0.8209  1.2877 -0.1931
  983THF    H1213918   0.467   1.367   0.640 -1.0614 -0.3461  0.3012
  983THF    H1313919   0.546   1.474   0.525 -0.4755  0.3608 -0.5908
  984THF     O113920   3.400   3.883   4.774 -0.3145  0.1207 -0.2072
  984THF     C213921   3.444   3.863   4.911  0.0295  0.1353  0.7273
  984THF     C313922   3.436   4.017   4.735 -0.1712 -0.2706 -0.1939
  984THF     H413923   3.468   3.758   4.929 -1.1109 -0.7068 -2.0068
  984THF     H513924   3.361   3.880   4.980  0.7782  4.1088  0.8569
  984THF     H613925   3.431   4.034   4.627  1.2721  0.8853 -0.1144
  984THF     H713926   3.362   4.086   4.774 -0.3545 -0.7249  0.2615
  984THF     C813927   3.568   4.035   4.803 -0.0916  0.3632 -0.3094
  984THF     C913928   3.558   3.958   4.931  0.1776  0.6372 -0.6430
  984THF    H1013929   3.585   4.141   4.819 -3.6193  1.1527 -0.9791
  984THF    H1113930   3.645   3.988   4.742  0.6912  1.5695 -0.2797
  984THF    H1213931   3.652   3.905   4.948 -0.5128 -0.4823 -0.3073
  984THF    H1313932   3.537   4.029   5.011  1.1150  0.4179 -0.1902
  985THF     O113933   1.431   5.096   3.420  0.9365  0.1882 -0.1854
  985THF     C213934   1.425   5.146   3.283  1.1711  0.7728  0.5698
  985THF     C313935   1.562   5.111   3.466  0.2708 -0.5323 -0.2098
  985THF     H413936   1.347   5.220   3.271 -0.8805 -1.4445 -0.5786
  985THF     H513937   1.398   5.066   3.214  0.4518 -0.0813  1.7910
  985THF     H613938   1.574   5.140   3.571  1.9707 -1.4551 -0.1041
  985THF     H713939   1.612   5.015   3.449  1.1547  0.1522 -1.6715
  985THF     C813940   1.629   5.220   3.378 -0.1198  0.3660  0.0070
  985THF     C913941   1.558   5.205   3.244 -0.0053  0.2200 -0.2734
  985THF    H1013942   1.735   5.197   3.391 -0.9358 -2.7220  2.3712
  985THF    H1113943   1.598   5.310   3.430 -1.1247 -0.3386  0.6609
  985THF    H1213944   1.564   5.288   3.174  1.6218 -1.6812 -2.5235
  985THF    H1313945   1.619   5.133   3.189 -0.2079 -0.5678  0.5025
  986THF     O113946   1.907   1.489   3.915  0.6916 -0.0739  0.5494
  986THF     C213947   1.959   1.357   3.945  0.7132  0.2794 -0.6058
  986THF     C313948   1.774   1.491   3.865  0.0271 -0.0588 -0.0104
  986THF     H413949   2.024   1.354   4.032  0.7271  1.0623 -0.5831
  986THF     H513950   1.999   1.324   3.849  0.4668 -1.1415 -0.2443
  986THF     H613951   1.702   1.545   3.927 -1.9208 -0.8261 -1.4883
  986THF     H713952   1.760   1.532   3.765 -1.8268 -2.1032 -0.6641
  986THF     C813953   1.729   1.338   3.864  0.3538 -0.3556 -0.5948
  986THF     C913954   1.824   1.279   3.971 -0.1013 -0.1028 -0.6740
  986THF    H1013955   1.763   1.298   3.769 -1.5983  0.1906 -1.5910
  986THF    H1113956   1.623   1.312   3.871  0.2487 -0.0512 -0.9986
  986THF    H1213957   1.790   1.283   4.075  1.8636 -0.3201  0.0117
  986THF    H1313958   1.851   1.180   3.935 -0.4932  0.7965 -3.7868
  987THF     O113959   2.590   1.758   1.787  0.3498 -0.3658 -0.0852
  987THF     C213960   2.450   1.740   1.801  0.0213 -0.4640  0.1026
  987THF     C313961   2.616   1.881   1.729 -0.8733 -0.3821  0.4876
  987THF     H413962   2.429   1.766   1.904  1.5830  2.4028 -0.1892
  987THF     H513963   2.424   1.636   1.780  0.3618 -0.5978  0.3320
  987THF     H613964   2.688   1.934   1.792 -1.7390 -0.4919  1.6097
  987THF     H713965   2.670   1.862   1.636 -1.4356 -0.1830  0.1159
  987THF     C813966   2.493   1.962   1.718  0.1388  0.1099  0.2915
  987THF     C913967   2.386   1.850   1.715 -0.4887 -0.2658  0.2962
  987THF    H1013968   2.496   2.015   1.623  2.2522 -0.5432 -0.0582
  987THF    H1113969   2.488   2.045   1.789  0.4259 -0.5426  1.0939
  987THF    H1213970   2.290   1.873   1.762 -0.7467  0.7267 -0.6864
  987THF    H1313971   2.378   1.820   1.611  0.6778  0.8075 -0.1198
  988THF     O113972   5.111   0.059   2.550 -0.3838 -0.5580  0.0084
  988THF     C213973   5.145  -0.012   2.425  0.1837  0.1464 -0.3664
  988THF     C313974   5.009   0.157   2.526 -0.4422 -0.7282  1.0713
  988THF     H413975   5.071  -0.091   2.435  1.9742 -1.4392  1.5108
  988THF     H513976   5.243  -0.059   2.431 -0.4189 -1.0254  1.0196
  988THF     H613977   4.913   0.122   2.565 -0.8693 -0.7991  0.0126
  988THF     H713978   5.042   0.248   2.576  2.1982 -0.1508 -1.4598
  988THF     C813979   4.988   0.162   2.373 -0.2165  0.3368 -0.1153
  988THF     C913980   5.110   0.090   2.315 -0.1354  0.2798 -0.6530
  988THF    H1013981   5.002   0.263   2.336 -0.7448  1.1489  1.8108
  988THF    H1113982   4.902   0.107   2.335 -0.0737  1.0030 -1.4906
  988THF    H1213983   5.090   0.041   2.220  1.2024 -1.1402 -0.2305
  988THF    H1313984   5.202   0.148   2.316 -0.2218  0.7496  4.0570
  989THF     O113985   0.472   2.726   3.023  0.2980  0.4667 -0.5270
  989THF     C213986   0.384   2.831   3.063  0.0222 -0.1048 -0.5184
  989THF     C313987   0.413   2.601   3.059  0.1520 -0.2808  0.2405
  989THF     H413988   0.376   2.899   2.979 -1.5446  1.7926  1.0746
  989THF     H513989   0.424   2.883   3.150  0.5460  0.3960 -1.0497
  989THF     H613990   0.454   2.514   3.008 -0.1891 -0.2530 -0.0893
  989THF     H713991   0.419   2.577   3.165  0.3199  2.1595  0.8606
  989THF     C813992   0.265   2.624   3.024 -0.1539  0.4812 -0.3959
  989THF     C913993   0.245   2.760   3.089 -0.0338  0.5431  0.6075
  989THF    H1013994   0.205   2.545   3.069 -1.3522  2.0923  0.9609
  989THF    H1113995   0.250   2.624   2.917 -0.7678  2.2780 -0.3523
  989THF    H1213996   0.167   2.820   3.042  0.6056  1.4301  0.6465
  989THF    H1313997   0.221   2.766   3.195  0.8402 -0.1580  0.8612
  990THF     O113998   5.044   3.873   0.504 -0.6294 -0.1817 -0.8931
  990THF     C213999   4.984   4.002   0.534 -0.4230  0.7485  0.3671
  990THF     C314000   4.939   3.789   0.448 -0.6575 -0.0375  0.9795
  990THF     H414001   5.052   4.087   0.526 -1.0531  1.4461  2.0320
  990THF     H514002   4.959   4.002   0.640  1.9724  0.3575  0.9976
  990THF     H614003   4.975   3.728   0.365 -0.5589 -0.7404  1.5398
  990THF     H714004   4.910   3.730   0.534  0.5679 -1.4760  0.4550
  990THF     C814005   4.830   3.884   0.415  0.0159  0.6936 -0.2274
  990THF     C914006   4.871   4.029   0.446  0.0081 -0.1097 -0.3878
  990THF    H1014007   4.746   3.851   0.476  0.5521 -1.7352 -0.6942
  990THF    H1114008   4.801   3.871   0.310 -0.1484 -0.1046 -0.0868
  990THF    H1214009   4.900   4.080   0.354 -0.8663  2.2253  0.5815
  990THF    H1314010   4.794   4.087   0.497  1.6190  0.6143  1.3184
  991THF     O114011   0.661   2.108   0.045  0.0642  0.0204 -0.9682
  991THF     C214012   0.793   2.062   0.056  0.3052  0.3603 -0.3699
  991THF     C314013   0.587   1.992   0.004  0.1641 -0.5462 -0.3988
  991THF     H414014   0.829   2.135   0.128 -2.8435  2.6807 -0.9472
  991THF     H514015   0.845   2.069  -0.040 -1.7288 -0.5700 -1.6099
  991THF     H614016   0.478   1.991   0.007  0.0363 -0.3507 -2.8227
  991THF     H714017   0.615   1.981  -0.100  3.3177 -0.1480  0.3067
  991THF     C814018   0.643   1.874   0.080 -0.5363 -0.0432  0.3432
  991THF     C914019   0.791   1.915   0.096  0.8444 -0.1341 -0.0652
  991THF    H1014020   0.618   1.791   0.013 -1.3973  1.8181 -1.7874
  991THF    H1114021   0.586   1.860   0.172 -0.1712  0.2586  0.6205
  991THF    H1214022   0.811   1.914   0.203 -1.2617 -2.4215  0.3916
  991THF    H1314023   0.861   1.847   0.046 -0.8881 -0.6411 -1.9169
  992THF     O114024   0.711   4.123   3.043  0.8454  0.3491  0.3750
  992THF     C214025   0.581   4.163   3.100 -0.7618  0.0660 -0.1913
  992THF     C314026   0.692   4.091   2.911 -0.0791  0.0929 -0.5556
  992THF     H414027   0.579   4.230   3.186 -0.0462  0.1381 -0.2327
  992THF     H514028   0.508   4.084   3.119  2.5448 -2.5680  3.1021
  992THF     H614029   0.791   4.116   2.873  0.4648  1.0083  1.3282
  992THF     H714030   0.676   3.988   2.879  1.9230 -0.0304 -1.2939
  992THF     C814031   0.582   4.175   2.857  0.1415  0.0252 -0.1409
  992THF     C914032   0.530   4.247   2.985  0.1463  0.0984  0.2632
  992THF    H1014033   0.507   4.116   2.805 -0.4398 -0.1646  0.8933
  992THF    H1114034   0.626   4.249   2.791  0.1547 -0.7339 -0.9968
  992THF    H1214035   0.559   4.352   2.986 -0.0160  0.1424  1.1566
  992THF    H1314036   0.421   4.240   2.985  0.1793 -1.1236 -1.3906
  993THF     O114037   4.781   5.221   2.135  0.3679  0.5223 -0.1725
  993THF     C214038   4.752   5.097   2.204  1.1115  0.1359 -0.4351
  993THF     C314039   4.759   5.197   1.992 -0.1737 -0.0549 -0.7600
  993THF     H414040   4.735   5.119   2.309  1.9925  2.2996 -0.6842
  993THF     H514041   4.844   5.042   2.190  1.5409  0.9886 -1.0768
  993THF     H614042   4.740   5.292   1.942 -3.9925 -0.5263 -0.4766
  993THF     H714043   4.846   5.146   1.951  0.4605 -1.3201  1.9539
  993THF     C814044   4.628   5.113   1.995 -0.5261 -0.4556  0.8294
  993THF     C914045   4.622   5.051   2.134 -0.0998  0.3081 -0.2459
  993THF    H1014046   4.621   5.041   1.913  1.0630  2.2847 -1.9604
  993THF    H1114047   4.545   5.184   1.985  1.2863  1.7547  0.6055
  993THF    H1214048   4.535   5.098   2.179 -1.2134  0.2322 -2.1793
  993THF    H1314049   4.610   4.942   2.140 -0.5323  0.4513  3.2274
  994THF     O114050   4.194   4.847   4.881 -0.3674  0.4077  0.0396
  994THF     C214051   4.168   4.980   4.926  0.4256 -0.0632 -0.4983
  994THF     C314052   4.285   4.790   4.970 -0.7059  0.6573 -0.2895
  994THF     H414053   4.084   4.991   4.995  2.2110 -0.7956  1.9457
  994THF     H514054   4.151   5.049   4.844  0.3862  0.8271  0.2394
  994THF     H614055   4.236   4.715   5.033  1.6509  0.0288  0.9471
  994THF     H714056   4.354   4.718   4.925 -0.3230  0.9298 -0.1420
  994THF     C814057   4.357   4.903   5.048 -0.0319  0.6249 -0.1664
  994THF     C914058   4.293   5.033   4.994  0.1537  0.1243 -0.5627
  994THF    H1014059   4.465   4.909   5.033  0.2156  2.2110  1.8811
  994THF    H1114060   4.332   4.901   5.154 -0.1361  1.8841 -0.1554
  994THF    H1214061   4.260   5.098   5.075  1.7501 -0.3376  0.5014
  994THF    H1314062   4.359   5.080   4.921  1.1517 -2.3047 -1.3482
  995THF     O114063   3.317   3.195   3.805  0.5402 -0.3819  0.3391
  995THF     C214064   3.423   3.253   3.870  0.3795 -0.2682  0.7940
  995THF     C314065   3.347   3.064   3.764 -0.6490 -0.1037 -0.1138
  995THF     H414066   3.418   3.251   3.979  2.3608  3.2400  1.1216
  995THF     H514067   3.426   3.358   3.840  3.2167 -0.9174 -1.7387
  995THF     H614068   3.292   2.992   3.824 -0.5696 -0.9560 -1.0369
  995THF     H714069   3.304   3.050   3.665 -0.9300  1.2669 -0.2074
  995THF     C814070   3.498   3.045   3.784  0.1194 -0.2496  0.0223
  995THF     C914071   3.548   3.185   3.810  0.3795  0.5684 -0.2586
  995THF    H1014072   3.545   3.002   3.696 -0.1425  0.7740 -0.6423
  995THF    H1114073   3.514   2.991   3.877  0.1762 -1.9079 -0.9250
  995THF    H1214074   3.631   3.183   3.881  0.3139  0.0787 -0.1889
  995THF    H1314075   3.603   3.219   3.723  1.2874  0.4764  0.2627
  996THF     O114076   0.094   5.385   2.296  0.4828 -0.4007  0.1391
  996THF     C214077   0.093   5.347   2.431  0.5213 -0.8211 -0.5326
  996THF     C314078  -0.034   5.347   2.237 -1.1225 -0.6413 -0.5210
  996THF     H414079   0.026   5.413   2.486  0.8514  0.0534 -1.1598
  996THF     H514080   0.189   5.352   2.484 -0.4767 -0.8886  1.3882
  996THF     H614081  -0.099   5.433   2.252  1.2181  0.9150  1.2036
  996THF     H714082  -0.024   5.323   2.131  0.1515 -2.4963 -0.0221
  996THF     C814083  -0.070   5.222   2.321  0.1440  0.9462  0.2896
  996THF     C914084   0.038   5.207   2.425  0.2529 -0.0777 -0.1843
  996THF    H1014085  -0.087   5.134   2.260  0.7461 -0.7314  2.4362
  996THF    H1114086  -0.161   5.240   2.378  0.0368 -0.6267  0.6464
  996THF    H1214087   0.004   5.182   2.525 -0.7058  1.5398 -0.0675
  996THF    H1314088   0.115   5.137   2.392  0.6837  0.6548 -0.7718
  997THF     O114089   0.629   3.438   4.002 -0.4865 -0.1952  0.4175
  997THF     C214090   0.744   3.481   4.070 -0.0809  0.3457  1.2599
  997THF     C314091   0.656   3.477   3.864  0.4192 -0.0865 -0.4781
  997THF     H414092   0.814   3.397   4.065 -2.4555 -1.6589 -0.7404
  997THF     H514093   0.721   3.508   4.173  1.5079  0.8555  1.5114
  997THF     H614094   0.719   3.405   3.812  0.0743 -0.8621  0.1509
  997THF     H714095   0.563   3.495   3.810  0.1225 -0.4874 -0.1075
  997THF     C814096   0.724   3.615   3.870  0.2423  0.3730  0.2085
  997THF     C914097   0.794   3.606   3.997  0.5960  0.2722 -0.2061
  997THF    H1014098   0.644   3.689   3.873  1.5492  1.8638 -0.2718
  997THF    H1114099   0.785   3.644   3.784 -1.3228  2.9206 -0.1362
  997THF    H1214100   0.902   3.616   3.983  0.2652  1.3634 -2.2970
  997THF    H1314101   0.767   3.696   4.052  1.8287 -0.0355  0.9713
  998THF     O114102   3.063   4.430   4.309  0.6738  0.0909 -0.0498
  998THF     C214103   2.991   4.427   4.427  0.5611  0.2992 -0.0412
  998THF     C314104   3.036   4.548   4.239 -0.4759 -0.1942  0.2077
  998THF     H414105   3.047   4.478   4.505  0.4109  3.5838 -1.9091
  998THF     H514106   2.977   4.321   4.452  1.0718 -0.4655 -2.7168
  998THF     H614107   3.100   4.611   4.300  1.0745 -3.1927  1.9536
  998THF     H714108   3.074   4.541   4.137 -0.3023  0.1327  0.2493
  998THF     C814109   2.888   4.568   4.259 -0.3879  0.2031 -0.2249
  998THF     C914110   2.870   4.519   4.402  1.3555  0.0446 -0.4023
  998THF    H1014111   2.845   4.502   4.183 -1.3131  0.6561 -0.0971
  998THF    H1114112   2.846   4.667   4.243  1.2952  1.3434  1.8948
  998THF    H1214113   2.855   4.603   4.469  2.3377 -1.3886  1.7130
  998THF    H1314114   2.780   4.459   4.419  1.2281  0.1768 -0.6032
  999THF     O114115   2.033   1.916   1.260  0.0686  0.2974 -0.6515
  999THF     C214116   1.973   1.791   1.221 -0.1381  0.8447 -0.3323
  999THF     C314117   2.066   1.909   1.403  0.4387  0.2476  0.4842
  999THF     H414118   2.051   1.715   1.209 -0.4831  0.6950 -1.8723
  999THF     H514119   1.918   1.784   1.127 -1.1228 -1.6195  0.3280
  999THF     H614120   2.170   1.882   1.391  0.7092  1.5879 -0.4412
  999THF     H714121   2.058   2.004   1.456 -2.0554 -0.3340  1.3190
  999THF     C814122   1.971   1.796   1.457 -0.3946 -0.2010  0.3110
  999THF     C914123   1.888   1.757   1.336  0.2331 -0.0691  0.0658
  999THF    H1014124   1.912   1.822   1.545 -1.5230 -0.6470 -0.3085
  999THF    H1114125   2.033   1.710   1.483 -0.4556 -0.0837  0.8656
  999THF    H1214126   1.865   1.651   1.341  2.8971 -0.6729  0.9669
  999THF    H1314127   1.792   1.810   1.336  0.1041 -0.2854  0.7142
 1000THF     O114128   4.769   0.563   1.867 -0.2891  0.0636 -0.0607
 1000THF     C214129   4.739   0.480   1.755 -0.0943  0.1094  0.1931
 1000THF     C314130   4.814   0.685   1.807  0.6555 -0.2041  0.3205
 1000THF     H414131   4.654   0.514   1.696 -0.7532 -1.5292  0.1520
 1000THF     H514132   4.707   0.380   1.785 -0.5836  0.1526 -0.1781
 1000THF     H614133   4.733   0.733   1.753  0.9935 -1.0905 -1.0384
 1000THF     H714134   4.858   0.765   1.866  0.3738  0.8844 -0.9122
 1000THF     C814135   4.908   0.623   1.702  0.3471  0.6112  0.3388
 1000THF     C914136   4.848   0.487   1.657 -0.1160  1.4198 -0.2500
 1000THF    H1014137   5.004   0.627   1.754  1.4010  0.4787 -1.4965
 1000THF    H1114138   4.912   0.695   1.620  2.6373 -0.9673 -1.0549
 1000THF    H1214139   4.813   0.491   1.554  0.5264  0.0225 -0.5428
 1000THF    H1314140   4.916   0.404   1.676 -1.7677 -0.2886 -1.5186
 1001THF     O114141   1.558   2.342   4.256  0.3641 -0.3375  0.2258
 1001THF     C214142   1.619   2.463   4.281 -0.3759 -0.5957  0.0997
 1001THF     C314143   1.459   2.314   4.348  0.0222 -0.3572 -0.4565
 1001THF     H414144   1.637   2.517   4.187  0.5735 -0.0993  0.5541
 1001THF     H514145   1.716   2.450   4.328 -1.0905  1.2990  2.3120
 1001THF     H614146   1.366   2.332   4.294  0.0033 -2.7481 -1.3688
 1001THF     H714147   1.464   2.207   4.369 -0.7823 -1.2068 -3.8797
 1001THF     C814148   1.480   2.410   4.463  0.2683  0.3701  0.0132
 1001THF     C914149   1.532   2.528   4.390  0.2337 -0.0139 -0.0644
 1001THF    H1014150   1.557   2.380   4.534 -2.1711 -0.8284  2.3213
 1001THF    H1114151   1.390   2.422   4.523  0.0320  0.6495 -0.3939
 1001THF    H1214152   1.445   2.577   4.347 -1.1268 -0.7940  1.6855
 1001THF    H1314153   1.583   2.594   4.461  1.9097 -2.5004  1.1862
 1002THF     O114154   1.072   2.216   3.835  0.2021 -0.1136 -0.0511
 1002THF     C214155   1.212   2.250   3.808  0.2639  0.5077  0.5406
 1002THF     C314156   1.078   2.080   3.873 -0.1220  1.2381  0.1228
 1002THF     H414157   1.212   2.358   3.796 -1.6686  0.6703  1.6015
 1002THF     H514158   1.247   2.203   3.717 -3.8390 -0.4284 -0.7694
 1002THF     H614159   0.993   2.059   3.937  0.3748 -0.7312  0.2039
 1002THF     H714160   1.081   2.003   3.796  1.8175 -0.4714  1.7698
 1002THF     C814161   1.211   2.058   3.952 -0.3377  0.6213  0.4371
 1002THF     C914162   1.284   2.190   3.926  0.2759  0.0684  0.3055
 1002THF    H1014163   1.258   1.965   3.921 -0.5155  1.0102 -1.0830
 1002THF    H1114164   1.195   2.048   4.059  2.0399 -0.3902  0.7725
 1002THF    H1214165   1.281   2.249   4.017 -1.8697  1.7962 -0.7762
 1002THF    H1314166   1.387   2.168   3.900  0.2406  0.7485 -0.4662
 1003THF     O114167   5.206   4.565   1.935  0.2799 -0.6611  0.0739
 1003THF     C214168   5.333   4.636   1.950  0.7655  0.4612  0.7677
 1003THF     C314169   5.242   4.429   1.908  0.4391  0.2814  0.0120
 1003THF     H414170   5.325   4.707   2.033  1.5874  1.6146 -0.0993
 1003THF     H514171   5.343   4.692   1.857  1.1107  0.8156  1.0122
 1003THF     H614172   5.159   4.374   1.953  2.1380  0.5488  3.7893
 1003THF     H714173   5.257   4.416   1.801 -0.3751  0.7582 -0.1710
 1003THF     C814174   5.367   4.399   1.983 -0.2302  0.0591  0.2453
 1003THF     C914175   5.440   4.535   1.976  0.0253  0.6841  0.1150
 1003THF    H1014176   5.419   4.312   1.945  0.6435  0.3163  0.8228
 1003THF    H1114177   5.345   4.379   2.088 -2.0505 -1.0261 -0.3152
 1003THF    H1214178   5.489   4.562   2.069  0.3058 -2.1004  0.8527
 1003THF    H1314179   5.498   4.536   1.883 -1.1340 -1.5641 -0.7132
 1004THF     O114180   1.072   3.639   0.419 -0.2886  0.4868  0.0071
 1004THF     C214181   0.953   3.578   0.460 -0.1063 -0.3991  0.4068
 1004THF     C314182   1.087   3.596   0.285 -0.9738 -0.0407 -0.2274
 1004THF     H414183   0.871   3.624   0.406  0.6128 -1.0384 -1.2841
 1004THF     H514184   0.941   3.581   0.569  0.4826 -0.1840  0.4688
 1004THF     H614185   1.014   3.632   0.211  1.0326  0.3642 -2.1330
 1004THF     H714186   1.190   3.606   0.250 -0.7411  0.8336  0.6684
 1004THF     C814187   1.057   3.447   0.294 -0.5033 -0.2414 -0.1498
 1004THF     C914188   0.978   3.435   0.421  0.5628  0.2699  0.2153
 1004THF    H1014189   1.151   3.396   0.315 -1.1078 -0.5500  2.0788
 1004THF    H1114190   1.008   3.392   0.214  0.8899 -3.4123  1.0063
 1004THF    H1214191   0.889   3.372   0.416  0.5856  0.3228 -1.0560
 1004THF    H1314192   1.040   3.381   0.492 -0.1942  0.5837  1.1357
 1005THF     O114193   1.544   0.881   2.254 -0.0803 -0.2437  0.3475
 1005THF     C214194   1.434   0.843   2.333 -0.5477 -0.8573  0.1805
 1005THF     C314195   1.604   0.757   2.208 -1.1430 -0.5325 -0.0529
 1005THF     H414196   1.365   0.927   2.333  0.6151  0.1399 -0.7805
 1005THF     H514197   1.470   0.839   2.436 -2.4880 -1.2384  0.8755
 1005THF     H614198   1.666   0.780   2.121 -1.2077 -1.0569 -0.2360
 1005THF     H714199   1.666   0.699   2.277 -1.2436 -1.3716 -0.6578
 1005THF     C814200   1.483   0.676   2.169 -0.4927 -0.5743 -0.2494
 1005THF     C914201   1.381   0.714   2.278  0.4088 -0.4170  0.3804
 1005THF    H1014202   1.511   0.571   2.179 -0.5552 -0.5764 -0.0798
 1005THF    H1114203   1.453   0.697   2.067 -1.5406 -1.7630 -0.2109
 1005THF    H1214204   1.292   0.722   2.215  1.5334 -0.7990 -1.3296
 1005THF    H1314205   1.354   0.639   2.352 -2.1255  0.7683  0.7788
 1006THF     O114206   0.462   1.836   3.830  0.1820 -0.0344 -0.5072
 1006THF     C214207   0.348   1.758   3.862 -0.0855  0.0574 -0.0072
 1006THF     C314208   0.435   1.919   3.717  0.5638  0.4431  0.9167
 1006THF     H414209   0.318   1.774   3.965 -2.3551  0.0355 -0.6067
 1006THF     H514210   0.362   1.650   3.859  1.0786  0.2130 -0.7300
 1006THF     H614211   0.499   2.007   3.706  0.8865  0.5592  3.2851
 1006THF     H714212   0.458   1.858   3.629  1.2677  1.1925  0.5616
 1006THF     C814213   0.283   1.944   3.725  0.1678  0.5641 -0.0997
 1006THF     C914214   0.234   1.806   3.774  0.4687 -1.0228  0.8975
 1006THF    H1014215   0.241   1.982   3.632 -1.6416  0.3192  0.5828
 1006THF    H1114216   0.259   2.023   3.797 -0.8580 -0.2971  0.5305
 1006THF    H1214217   0.140   1.811   3.829 -0.3874  1.2885 -0.6058
 1006THF    H1314218   0.226   1.743   3.686 -1.6521  1.2839 -0.7053
 1007THF     O114219   4.501   4.638   1.127 -0.0967  0.1353  0.5397
 1007THF     C214220   4.643   4.663   1.148 -0.0778 -0.6224  0.1262
 1007THF     C314221   4.421   4.714   1.217 -0.6032  0.9202  0.3543
 1007THF     H414222   4.676   4.700   1.050  0.9130  0.0199  0.6847
 1007THF     H514223   4.703   4.574   1.168  4.3347  1.3077 -2.7962
 1007THF     H614224   4.328   4.748   1.172 -0.2678  1.0399 -0.2504
 1007THF     H714225   4.396   4.648   1.300  0.9874 -1.1599 -0.7211
 1007THF     C814226   4.515   4.827   1.267 -0.3800  0.3037  0.3253
 1007THF     C914227   4.654   4.767   1.257 -0.6258 -0.1119 -0.7762
 1007THF    H1014228   4.480   4.842   1.369 -2.8754  3.6054 -0.8210
 1007THF    H1114229   4.498   4.910   1.198 -0.6792 -2.0030 -2.6083
 1007THF    H1214230   4.744   4.828   1.269 -0.9749  0.0712  1.2927
 1007THF    H1314231   4.663   4.702   1.344  2.2759  1.6736  0.4295
 1008THF     O114232   4.078   2.036   2.862  0.4281  0.1266  0.5137
 1008THF     C214233   4.135   1.912   2.821 -0.6746  0.4614 -0.5239
 1008THF     C314234   4.082   2.037   3.005  0.8350  0.3677  0.2116
 1008THF     H414235   4.190   1.918   2.727  0.5960 -1.9740 -0.0439
 1008THF     H514236   4.058   1.835   2.816  1.1096 -1.4548 -0.0657
 1008THF     H614237   4.134   2.122   3.050  0.6738  0.1993  0.7269
 1008THF     H714238   3.978   2.039   3.037 -0.1900 -0.1184 -2.7869
 1008THF     C814239   4.152   1.909   3.057 -0.0785 -0.4926  0.1998
 1008THF     C914240   4.226   1.867   2.936 -0.1544 -0.4661 -0.0834
 1008THF    H1014241   4.078   1.836   3.091  0.6827 -0.6728  1.5575
 1008THF    H1114242   4.214   1.927   3.146 -1.7425  1.3649  1.0647
 1008THF    H1214243   4.326   1.910   2.922 -0.3566 -0.0672 -0.3098
 1008THF    H1314244   4.229   1.759   2.946 -1.5304 -0.4897  0.2070
 1009THF     O114245   2.077   1.130   0.755 -0.5169 -0.5628 -0.3928
 1009THF     C214246   1.960   1.090   0.698 -0.2271 -0.4693  0.7604
 1009THF     C314247   2.193   1.122   0.667  0.1219  0.4264 -0.2655
 1009THF     H414248   1.872   1.131   0.748 -1.7811 -0.5174 -1.7847
 1009THF     H514249   1.959   0.981   0.695  1.8666 -0.5112 -0.1169
 1009THF     H614250   2.251   1.212   0.688  0.7046 -0.1033  0.4666
 1009THF     H714251   2.253   1.034   0.694  3.4081  1.6802 -2.7841
 1009THF     C814252   2.126   1.128   0.528 -0.4025  0.6064  0.6993
 1009THF     C914253   1.978   1.138   0.556  0.2124 -0.6754 -0.1746
 1009THF    H1014254   2.142   1.030   0.484  0.5883  0.9779  0.2029
 1009THF    H1114255   2.164   1.210   0.466 -1.5234  0.3120 -0.4082
 1009THF    H1214256   1.952   1.243   0.543 -1.4064 -0.8592  1.2477
 1009THF    H1314257   1.923   1.086   0.479  1.6470 -1.2586 -0.8375
 1010THF     O114258   5.202   3.853   3.382 -0.3836 -0.0054  0.0483
 1010THF     C214259   5.299   3.775   3.314 -0.0906  0.3551  0.4551
 1010THF     C314260   5.192   3.791   3.512  0.2834 -0.0335 -0.2743
 1010THF     H414261   5.335   3.835   3.231  0.0615 -0.1881  0.1235
 1010THF     H514262   5.255   3.694   3.256  0.8065  0.4188 -0.3313
 1010THF     H614263   5.139   3.842   3.594  1.6699  0.9815  0.0296
 1010THF     H714264   5.139   3.698   3.497  1.3453 -0.5243 -1.1048
 1010THF     C814265   5.331   3.775   3.551 -0.5677  0.4563 -0.2639
 1010THF     C914266   5.397   3.724   3.420 -0.2780  0.3489  0.2911
 1010THF    H1014267   5.339   3.694   3.624 -0.6422 -1.1354 -1.9594
 1010THF    H1114268   5.387   3.865   3.575 -0.2698  0.1232  0.3057
 1010THF    H1214269   5.495   3.765   3.392  0.4363 -2.0159 -0.9458
 1010THF    H1314270   5.398   3.616   3.433  1.7126  0.2846 -0.0675
 1011THF     O114271   5.366   4.709   2.437 -0.2791 -0.3230 -0.1464
 1011THF     C214272   5.376   4.566   2.407  0.0532 -0.4508 -0.6187
 1011THF     C314273   5.473   4.783   2.385 -0.1383 -0.1843  0.9922
 1011THF     H414274   5.309   4.544   2.323 -1.5233 -1.1773  0.7698
 1011THF     H514275   5.322   4.507   2.481  0.4611 -0.6457 -0.4749
 1011THF     H614276   5.447   4.839   2.295  1.9640 -1.4066 -0.4653
 1011THF     H714277   5.513   4.842   2.467  1.3000 -1.6428  1.3845
 1011THF     C814278   5.570   4.671   2.330 -0.0989  0.6653  0.2252
 1011THF     C914279   5.519   4.544   2.389 -0.2673 -0.1166 -0.2970
 1011THF    H1014280   5.675   4.696   2.341  0.3121 -0.8064 -0.1524
 1011THF    H1114281   5.554   4.680   2.222  0.2768 -1.7553 -0.0788
 1011THF    H1214282   5.528   4.451   2.334  1.4441 -0.2646  0.1811
 1011THF    H1314283   5.573   4.528   2.482  1.2154  2.2555 -0.6608
 1012THF     O114284   4.832   3.953   1.511 -0.1216 -0.1456  0.1605
 1012THF     C214285   4.814   3.891   1.632  0.4708 -0.5948 -0.1436
 1012THF     C314286   4.928   3.884   1.435 -0.0322 -0.1298  1.0257
 1012THF     H414287   4.747   3.805   1.625 -0.9763  0.2582  1.9843
 1012THF     H514288   4.771   3.956   1.709 -0.4174 -1.9392  0.5373
 1012THF     H614289   4.877   3.816   1.367 -1.6293  1.4628  0.5460
 1012THF     H714290   4.986   3.961   1.383  0.4519  1.0891  3.2447
 1012THF     C814291   5.020   3.805   1.527  0.2151 -0.3872  0.8756
 1012THF     C914292   4.962   3.837   1.659  0.0068 -0.7913 -0.1225
 1012THF    H1014293   5.129   3.808   1.528  0.2489 -1.3406  0.7895
 1012THF    H1114294   4.993   3.705   1.494 -1.0824  0.6526 -1.3978
 1012THF    H1214295   4.973   3.755   1.730  0.3443 -1.1023 -0.5325
 1012THF    H1314296   5.015   3.923   1.698  0.0634 -0.7882 -0.2065
 1013THF     O114297   3.711   1.899   0.751 -0.3437  0.3329  0.2058
 1013THF     C214298   3.711   2.019   0.677 -0.0855  0.4896 -0.4430
 1013THF     C314299   3.594   1.820   0.726 -0.5673 -0.0262 -0.4484
 1013THF     H414300   3.804   2.074   0.675  1.4455 -1.9780 -1.8186
 1013THF     H514301   3.636   2.088   0.716 -0.2602  1.2168 -1.9906
 1013THF     H614302   3.609   1.712   0.716  0.9448  0.2269 -1.0863
 1013THF     H714303   3.523   1.849   0.803  0.2522 -0.6037  0.5569
 1013THF     C814304   3.543   1.861   0.588  0.7013 -0.0129  0.3301
 1013THF     C914305   3.657   1.960   0.544 -0.2913 -0.0330 -0.0966
 1013THF    H1014306   3.445   1.908   0.593  1.6560  2.0333  1.0023
 1013THF    H1114307   3.527   1.776   0.522 -0.5150  0.9841 -0.7173
 1013THF    H1214308   3.735   1.906   0.490 -0.1926 -1.0700  1.0239
 1013THF    H1314309   3.623   2.040   0.479 -0.9030 -1.5790 -1.7597
 1014THF     O114310   3.368   3.746   3.612 -0.1997  0.4349  0.5008
 1014THF     C214311   3.409   3.866   3.540 -0.3433 -0.0691  0.1037
 1014THF     C314312   3.258   3.784   3.694  0.6685 -0.2618 -0.4732
 1014THF     H414313   3.338   3.894   3.462  1.0133  3.6887 -0.0133
 1014THF     H514314   3.502   3.843   3.490 -0.6660 -1.0134 -0.0784
 1014THF     H614315   3.159   3.751   3.662 -0.4817  2.2280  0.2933
 1014THF     H714316   3.277   3.725   3.784  0.1354  0.4453  0.1059
 1014THF     C814317   3.264   3.937   3.709 -0.1453 -0.6636  0.3336
 1014THF     C914318   3.402   3.973   3.643  0.2375 -0.2047 -0.3766
 1014THF    H1014319   3.266   3.966   3.814 -0.3105 -0.6305  0.3285
 1014THF    H1114320   3.185   3.990   3.655  0.9038  1.7819  1.0843
 1014THF    H1214321   3.401   4.070   3.594 -0.3289 -0.7509 -1.4791
 1014THF    H1314322   3.484   3.961   3.714 -1.1209  0.8188  1.4487
 1015THF     O114323   3.451   3.382   2.556  0.3321 -0.5095  0.5407
 1015THF     C214324   3.409   3.520   2.569  0.5941  0.4902 -0.2473
 1015THF     C314325   3.361   3.311   2.472 -0.0556  0.2792  0.9874
 1015THF     H414326   3.458   3.593   2.504  1.8419  1.8303  2.0806
 1015THF     H514327   3.428   3.568   2.665 -2.1835  0.8737  0.2213
 1015THF     H614328   3.419   3.253   2.400 -0.9037  0.3525  0.2232
 1015THF     H714329   3.322   3.240   2.545  1.8290 -1.1663  0.6452
 1015THF     C814330   3.249   3.414   2.433 -0.1372 -0.0320  0.1995
 1015THF     C914331   3.259   3.510   2.555 -0.3570  0.0211  0.3772
 1015THF    H1014332   3.151   3.372   2.411  0.0776 -0.7324  0.5728
 1015THF    H1114333   3.280   3.469   2.343  0.6600  0.3930  0.7175
 1015THF    H1214334   3.203   3.602   2.540  0.5118  0.5811  0.4962
 1015THF    H1314335   3.221   3.458   2.643 -0.3293  1.7944  1.4898
 1016THF     O114336   1.314   2.713   3.852  0.8047  0.6321 -0.2897
 1016THF     C214337   1.338   2.597   3.935  0.9069  0.4621 -0.3657
 1016THF     C314338   1.260   2.807   3.944 -0.1174 -0.0691  0.3947
 1016THF     H414339   1.410   2.534   3.883 -1.3339 -0.6633 -2.2986
 1016THF     H514340   1.241   2.550   3.945  0.4928  1.5604  1.0708
 1016THF     H614341   1.286   2.907   3.908  0.9305  0.1501  1.6862
 1016THF     H714342   1.151   2.801   3.942 -0.1642 -0.5542  2.1418
 1016THF     C814343   1.301   2.780   4.093 -0.4254 -0.2153 -0.0814
 1016THF     C914344   1.380   2.657   4.066  0.2882 -0.2914 -0.1097
 1016THF    H1014345   1.217   2.754   4.157 -0.9953  1.2760 -0.1804
 1016THF    H1114346   1.349   2.865   4.142 -1.0778  0.4425 -0.5502
 1016THF    H1214347   1.480   2.701   4.064 -0.3243  1.4094  2.2813
 1016THF    H1314348   1.378   2.593   4.154 -1.4685 -0.3764 -0.1799
 1017THF     O114349   3.368   2.885   5.294 -0.6264 -0.3287 -0.2856
 1017THF     C214350   3.446   2.939   5.186 -0.9375 -0.0919  0.4590
 1017THF     C314351   3.465   2.824   5.377  0.4441  0.0543  0.8347
 1017THF     H414352   3.489   3.038   5.200 -0.3434 -0.5031  1.7085
 1017THF     H514353   3.370   2.938   5.108 -0.3080  2.2234 -0.2640
 1017THF     H614354   3.511   2.897   5.443  0.2767  0.9528 -0.0074
 1017THF     H714355   3.409   2.754   5.439 -0.0444  0.2072  0.5758
 1017THF     C814356   3.558   2.750   5.278 -0.1429  0.4853 -0.3166
 1017THF     C914357   3.556   2.839   5.150  0.4238  1.0098  0.7713
 1017THF    H1014358   3.507   2.654   5.271 -0.8013  0.7888  0.2415
 1017THF    H1114359   3.657   2.738   5.321 -1.1328 -0.3949  1.8018
 1017THF    H1214360   3.654   2.884   5.137  0.2921  1.9117  2.5496
 1017THF    H1314361   3.544   2.775   5.063  2.1999  1.2585  0.3210
 1018THF     O114362   0.965   4.502   4.042  0.4767 -0.5687  1.0110
 1018THF     C214363   0.913   4.371   4.022 -0.3164  0.4564  0.4379
 1018THF     C314364   1.095   4.484   4.097  0.0583  0.5336  0.5737
 1018THF     H414365   0.830   4.369   3.952 -0.1232  1.0018  0.1886
 1018THF     H514366   0.876   4.344   4.121 -0.5519 -1.2680 -0.0802
 1018THF     H614367   1.150   4.576   4.079  1.9866 -0.6078  0.3531
 1018THF     H714368   1.100   4.456   4.202  1.0299  1.1886  0.7236
 1018THF     C814369   1.148   4.364   4.007 -0.2860 -1.4006 -0.6265
 1018THF     C914370   1.029   4.284   3.975 -1.2186 -0.0670 -1.1114
 1018THF    H1014371   1.221   4.308   4.066 -0.7691 -1.4258 -0.0468
 1018THF    H1114372   1.195   4.411   3.920  1.2409  2.1948  1.8942
 1018THF    H1214373   1.021   4.261   3.868  0.1999 -1.2154 -1.0008
 1018THF    H1314374   1.038   4.183   4.015 -0.4956  0.4060 -0.0583
 1019THF     O114375   0.766   3.810   5.175 -0.3796 -0.3894 -0.1315
 1019THF     C214376   0.723   3.884   5.061  0.5734 -0.6349 -0.3006
 1019THF     C314377   0.750   3.900   5.289 -0.3516 -0.3917 -0.9078
 1019THF     H414378   0.697   3.819   4.978  0.6238  0.7789 -1.4459
 1019THF     H514379   0.801   3.951   5.025 -2.5289  1.6120 -3.5571
 1019THF     H614380   0.721   3.839   5.374  0.0808  0.7695  0.1028
 1019THF     H714381   0.832   3.964   5.321 -0.6982 -0.6776  0.6302
 1019THF     C814382   0.628   3.983   5.250  0.4056 -0.5115  0.0262
 1019THF     C914383   0.595   3.955   5.106 -0.4769 -0.0853  0.4070
 1019THF    H1014384   0.649   4.090   5.259 -2.0779  0.1404 -1.0987
 1019THF    H1114385   0.539   3.946   5.299  1.0904  0.7290  2.3324
 1019THF    H1214386   0.511   3.887   5.099  0.5341 -1.2884 -0.7960
 1019THF    H1314387   0.579   4.054   5.063  1.2320  0.7693  1.5829
 1020THF     O114388   3.020   2.019   2.757  0.1666  0.0804  0.6470
 1020THF     C214389   2.879   2.039   2.763  0.5322 -0.1364  0.8140
 1020THF     C314390   3.060   2.008   2.620  0.2737 -0.0197 -0.4733
 1020THF     H414391   2.845   2.127   2.818  0.7947 -0.4825  1.5443
 1020THF     H514392   2.839   1.943   2.796  1.9928 -1.8362 -1.9330
 1020THF     H614393   3.106   2.090   2.567  3.5398 -1.9566 -0.9286
 1020THF     H714394   3.131   1.924   2.626 -1.4031 -1.5116 -0.6586
 1020THF     C814395   2.932   1.961   2.545  0.2192  0.6733 -0.2044
 1020THF     C914396   2.835   2.046   2.622  0.0287 -0.2601  0.7410
 1020THF    H1014397   2.918   1.854   2.557 -1.0389  0.6688 -1.4620
 1020THF    H1114398   2.923   1.987   2.440 -0.6994  2.7125  0.3233
 1020THF    H1214399   2.836   2.149   2.586 -0.1336 -0.2615  0.7300
 1020THF    H1314400   2.734   2.007   2.611  0.8461 -2.0182 -1.1678
 1021THF     O114401   0.526   5.094   4.390  0.0632 -0.5910  0.0768
 1021THF     C214402   0.416   5.056   4.467  0.2697 -0.1958 -0.7605
 1021THF     C314403   0.591   4.978   4.337 -0.1738 -0.4160 -0.6668
 1021THF     H414404   0.324   5.047   4.408 -2.3746  0.6884  2.8677
 1021THF     H514405   0.390   5.129   4.544 -0.2770 -1.1751  0.0059
 1021THF     H614406   0.541   4.931   4.253 -0.0140 -0.3806 -0.7832
 1021THF     H714407   0.693   5.003   4.307 -0.2805  1.0806  0.1133
 1021THF     C814408   0.598   4.891   4.462  0.2414  1.1451  0.2403
 1021THF     C914409   0.464   4.924   4.531 -0.4846 -1.0421  0.2290
 1021THF    H1014410   0.678   4.931   4.525  0.0835  0.6794  0.7377
 1021THF    H1114411   0.609   4.784   4.443 -1.1528  1.0219  0.0618
 1021THF    H1214412   0.383   4.858   4.502  0.7250 -2.5754  0.2554
 1021THF    H1314413   0.474   4.934   4.640 -0.2592  1.3720  0.0545
 1022THF     O114414   1.457   4.081   0.162  0.7199  0.2256  0.0049
 1022THF     C214415   1.406   4.086   0.031 -0.2952 -0.6019 -0.2396
 1022THF     C314416   1.348   4.080   0.254 -0.1846  0.4244 -0.1741
 1022THF     H414417   1.377   3.986   0.000 -0.3518 -0.7780  0.3642
 1022THF     H514418   1.486   4.118  -0.035 -0.7902  2.2158  0.3813
 1022THF     H614419   1.315   3.977   0.261 -2.4948  1.1975  1.7745
 1022THF     H714420   1.384   4.113   0.351  1.2872  0.8920 -0.8448
 1022THF     C814421   1.253   4.182   0.191  0.8070  0.6512  0.8645
 1022THF     C914422   1.287   4.173   0.040  0.2931 -0.1897 -0.6869
 1022THF    H1014423   1.278   4.278   0.236  3.8465 -0.3637  1.5756
 1022THF    H1114424   1.151   4.151   0.213  1.1327 -1.5705 -0.5010
 1022THF    H1214425   1.197   4.160  -0.019  0.2763  2.0039 -1.2235
 1022THF    H1314426   1.314   4.277   0.021 -0.2266  0.1362  0.2685
 1023THF     O114427   4.835   3.573   4.227  0.0786  0.4101 -0.6130
 1023THF     C214428   4.876   3.537   4.352 -0.6651 -1.1748  0.4311
 1023THF     C314429   4.697   3.529   4.207 -0.1451  0.7174 -0.3882
 1023THF     H414430   4.843   3.615   4.420  3.1083 -0.1936  1.3058
 1023THF     H514431   4.983   3.529   4.367 -0.7280 -0.2758  1.4572
 1023THF     H614432   4.626   3.584   4.269 -0.6175  0.8211 -1.0106
 1023THF     H714433   4.665   3.524   4.103 -1.1375  1.4253 -0.1199
 1023THF     C814434   4.710   3.382   4.267  0.7846  0.0501  0.0627
 1023THF     C914435   4.811   3.405   4.375 -0.2212 -0.4886  0.2446
 1023THF    H1014436   4.750   3.310   4.195  1.3873  1.5168 -1.1210
 1023THF    H1114437   4.616   3.342   4.307  1.9029 -2.6381  0.2433
 1023THF    H1214438   4.766   3.401   4.474  1.1019 -0.2675  0.8809
 1023THF    H1314439   4.893   3.332   4.374  1.5844  1.4635 -0.2353
 1024THF     O114440   0.329   1.358   0.956  0.0518  0.3332 -0.7035
 1024THF     C214441   0.192   1.374   1.002  0.0247  0.2598  0.0206
 1024THF     C314442   0.355   1.234   0.904  0.0667  0.3152 -0.3496
 1024THF     H414443   0.140   1.448   0.942 -0.4593 -0.7726 -0.8507
 1024THF     H514444   0.199   1.402   1.107  0.3124 -1.0279  0.3627
 1024THF     H614445   0.415   1.233   0.813  0.4520  1.0817 -0.1101
 1024THF     H714446   0.408   1.175   0.978 -0.8068  0.4603  0.4162
 1024THF     C814447   0.220   1.171   0.869 -0.4995 -0.4664  0.3627
 1024THF     C914448   0.138   1.229   0.985  0.1460 -0.1133  0.1426
 1024THF    H1014449   0.223   1.063   0.856  0.1320 -0.4736  0.5436
 1024THF    H1114450   0.189   1.209   0.772  2.0313  0.8064 -0.0365
 1024THF    H1214451   0.033   1.232   0.955 -0.4521  0.3581  2.1289
 1024THF    H1314452   0.147   1.172   1.077  1.7155 -2.1108 -1.1757
 1025THF     O114453   4.915   0.515   4.702 -0.5192  0.3491  0.4009
 1025THF     C214454   4.937   0.376   4.721  0.4843  0.7566 -0.7509
 1025THF     C314455   4.780   0.549   4.720  0.3324  0.3407  0.0030
 1025THF     H414456   4.999   0.351   4.807 -2.3176  0.1973  1.2903
 1025THF     H514457   4.991   0.334   4.636  3.1536  0.2341  1.0835
 1025THF     H614458   4.771   0.651   4.758  0.1092  0.4154 -0.2429
 1025THF     H714459   4.745   0.547   4.616 -0.1597  0.6847  0.1531
 1025THF     C814460   4.728   0.436   4.807 -0.6343  0.3070  0.9192
 1025THF     C914461   4.802   0.311   4.754 -0.3589 -0.2197  0.3838
 1025THF    H1014462   4.620   0.429   4.794 -0.4294  0.6835 -1.5762
 1025THF    H1114463   4.741   0.445   4.914 -1.7983 -2.0043  1.3349
 1025THF    H1214464   4.799   0.221   4.814 -1.0452 -0.9279 -0.6645
 1025THF    H1314465   4.761   0.287   4.656  1.4857 -1.9093 -0.0307
 1026THF     O114466   3.877   1.789   4.936  0.1754 -0.5193 -0.1716
 1026THF     C214467   3.847   1.658   4.979 -0.3419 -0.6047 -0.2093
 1026THF     C314468   3.930   1.775   4.801 -0.5461 -0.3090 -0.5795
 1026THF     H414469   3.763   1.648   5.049  0.1328  0.2046  0.5029
 1026THF     H514470   3.935   1.612   5.024  0.3959  0.2007 -0.7917
 1026THF     H614471   3.935   1.874   4.756  0.8993  0.1016  0.4390
 1026THF     H714472   4.023   1.718   4.801  0.5103  1.3198 -2.0203
 1026THF     C814473   3.816   1.682   4.745 -0.0940 -0.2507 -0.0685
 1026THF     C914474   3.784   1.589   4.861  0.2214 -0.3971 -0.0114
 1026THF    H1014475   3.862   1.637   4.657  0.7495 -0.6439  0.5588
 1026THF    H1114476   3.738   1.753   4.717  0.1248  0.9274  2.0779
 1026THF    H1214477   3.675   1.593   4.871  0.3301  0.6112  1.0107
 1026THF    H1314478   3.835   1.493   4.857  2.6938  0.7225  1.8663
 1027PF6-    P114479   5.156   3.294   3.498  0.1023 -0.1765  0.0143
 1027PF6-    F214480   5.149   3.185   3.618 -0.0188  0.2804  0.2576
 1027PF6-    F314481   5.155   3.398   3.374 -0.3766 -0.0847 -0.0196
 1027PF6-    F414482   4.998   3.321   3.521  0.3251  0.1381  0.5505
 1027PF6-    F514483   5.314   3.260   3.472 -0.1508 -0.6674 -0.1970
 1027PF6-    F614484   5.123   3.173   3.403 -0.1763 -0.0400  0.0304
 1027PF6-    F714485   5.191   3.418   3.595  0.1914  0.4930 -0.2165
 1028PF6-    P114486   1.888   4.715   4.835 -0.0838  0.1490  0.0846
 1028PF6-    F214487   1.952   4.644   4.705 -0.0904 -0.9200  0.3324
 1028PF6-    F314488   1.829   4.780   4.969  0.0281  0.1869  0.2554
 1028PF6-    F414489   2.037   4.744   4.882  0.4214 -0.5307  0.2439
 1028PF6-    F514490   1.744   4.680   4.779  0.1123 -0.6216  0.2060
 1028PF6-    F614491   1.894   4.573   4.902  0.0403  0.9164  0.3568
 1028PF6-    F714492   1.884   4.849   4.761 -0.2379 -0.4805  0.7041
 1029PF6-    P114493   0.043   1.574   1.788  0.1081 -0.1811 -0.7460
 1029PF6-    F214494  -0.065   1.690   1.816  0.6045 -0.1425 -0.2112
 1029PF6-    F314495   0.160   1.466   1.755  0.1415 -0.2779 -0.2706
 1029PF6-    F414496  -0.074   1.476   1.736  0.1205 -0.3834  0.1448
 1029PF6-    F514497   0.152   1.675   1.844 -0.1676  0.3228  0.0847
 1029PF6-    F614498   0.025   1.513   1.938 -0.2941 -0.1972  0.0728
 1029PF6-    F714499   0.063   1.634   1.637 -0.0235 -0.3697 -0.6584
 1030PF6-    P114500   0.429   4.920   3.194  0.2864 -0.4241  0.1427
 1030PF6-    F214501   0.579   4.966   3.150  0.0179  0.0343 -1.2399
 1030PF6-    F314502   0.280   4.873   3.237  0.2216 -0.2920 -0.2613
 1030PF6-    F414503   0.440   5.006   3.330  0.0719  0.0918  0.1156
 1030PF6-    F514504   0.410   4.830   3.064 -0.1118 -0.8332  0.3797
 1030PF6-    F614505   0.485   4.789   3.264  0.6382 -0.4088  0.2010
 1030PF6-    F714506   0.372   5.047   3.120  0.7552  0.8357 -0.4119
 1031PF6-    P114507   3.748   4.755   2.566 -0.4687  0.1252  0.1356
 1031PF6-    F214508   3.679   4.614   2.600  0.3135  0.1561 -0.3799
 1031PF6-    F314509   3.830   4.890   2.535  0.4067  0.3424  0.3915
 1031PF6-    F414510   3.869   4.671   2.507 -0.3005  0.3537 -0.1516
 1031PF6-    F514511   3.624   4.843   2.629  0.1750  0.0611  0.3273
 1031PF6-    F614512   3.823   4.751   2.708  0.2867  0.1816  0.1494
 1031PF6-    F714513   3.678   4.763   2.423  0.3794  0.4191  0.1269
 1032PF6-    P114514   4.760   5.018   4.766  0.0011 -0.4760 -0.0242
 1032PF6-    F214515   4.875   4.933   4.694 -0.5189  0.2570  0.2795
 1032PF6-    F314516   4.659   5.110   4.833  0.1798 -0.7471 -0.6634
 1032PF6-    F414517   4.757   5.125   4.645  0.4780  0.7052 -0.0053
 1032PF6-    F514518   4.747   4.912   4.882 -0.3243 -0.1952 -0.3821
 1032PF6-    F614519   4.878   5.096   4.844  0.3365  0.0739 -0.0614
 1032PF6-    F714520   4.642   4.944   4.688  0.2329  0.6439  0.1440
 1033PF6-    P114521   0.607   0.712   3.897  0.3903  0.4963  0.1340
 1033PF6-    F214522   0.617   0.813   3.769  0.4761 -0.1525  0.0509
 1033PF6-    F314523   0.606   0.614   4.027 -0.3837  0.0576 -0.1205
 1033PF6-    F414524   0.471   0.792   3.950 -0.4187 -0.5960 -0.5349
 1033PF6-    F514525   0.742   0.640   3.845 -0.2409  0.7047 -0.0910
 1033PF6-    F614526   0.688   0.817   3.976 -0.5632 -0.2069  0.1486
 1033PF6-    F714527   0.514   0.606   3.818 -0.2293  0.1940 -0.2621
 1034PF6-    P114528   0.803   5.388   3.863  0.1965  0.1034  0.0873
 1034PF6-    F214529   0.830   5.382   3.704  0.5839  0.3768 -0.6025
 1034PF6-    F314530   0.770   5.390   4.020 -0.1829 -0.1357  0.4523
 1034PF6-    F414531   0.897   5.522   3.872 -0.2209  0.1404 -0.2271
 1034PF6-    F514532   0.703   5.265   3.852 -0.2310  0.4832 -0.6381
 1034PF6-    F614533   0.922   5.292   3.877  0.0887 -0.6020 -0.0315
 1034PF6-    F714534   0.683   5.488   3.840  0.2703 -0.3581 -0.0850
 1035PF6-    P114535   4.256   0.297   4.642 -0.0240 -0.4371 -0.1669
 1035PF6-    F214536   4.325   0.401   4.536  0.8288 -0.8627  0.4551
 1035PF6-    F314537   4.191   0.189   4.744 -0.0155  0.5825  0.0461
 1035PF6-    F414538   4.388   0.203   4.645 -0.2847  0.1707  0.0933
 1035PF6-    F514539   4.126   0.391   4.649  0.5099 -0.1154  0.7342
 1035PF6-    F614540   4.194   0.211   4.511 -0.0925 -0.0188 -0.4712
 1035PF6-    F714541   4.311   0.385   4.762 -0.3052 -0.1043 -0.1598
 1036PF6-    P114542   0.180   0.900   4.725  0.8947 -0.0332 -0.1685
 1036PF6-    F214543   0.084   1.010   4.789  0.2247 -0.2471 -0.1716
 1036PF6-    F314544   0.277   0.794   4.661  0.6080  0.1362  0.4834
 1036PF6-    F414545   0.202   0.988   4.598  0.0136  0.3510  0.0470
 1036PF6-    F514546   0.149   0.808   4.853 -0.3621  0.5109  0.3942
 1036PF6-    F614547   0.048   0.827   4.659  0.1582 -0.0527 -0.1633
 1036PF6-    F714548   0.310   0.966   4.796  0.1564  0.1249 -0.2938
 1037PF6-    P114549   4.773   2.426   3.809  0.4641  0.0145 -0.0010
 1037PF6-    F214550   4.821   2.389   3.956  0.2440  0.8931  0.4160
 1037PF6-    F314551   4.724   2.455   3.662  0.2610 -0.0424 -0.1910
 1037PF6-    F414552   4.627   2.361   3.835 -0.0631 -0.4511  0.0716
 1037PF6-    F514553   4.922   2.495   3.788  0.2939 -0.2573 -0.9432
 1037PF6-    F614554   4.837   2.292   3.756  0.2520 -0.6101 -0.0866
 1037PF6-    F714555   4.714   2.570   3.863 -0.0849  0.3169  0.4446
 1038PF6-    P114556   3.277   3.070   4.815  0.1637  0.2842  0.1309
 1038PF6-    F214557   3.403   2.989   4.862  0.3733  0.3267 -0.0704
 1038PF6-    F314558   3.142   3.151   4.775  0.0863  0.2331 -0.1895
 1038PF6-    F414559   3.312   3.183   4.929 -0.1456 -0.1903  0.3832
 1038PF6-    F514560   3.240   2.951   4.708 -0.0833 -0.5456  0.4785
 1038PF6-    F614561   3.192   2.989   4.918  0.0151 -0.4719  0.1786
 1038PF6-    F714562   3.362   3.147   4.708 -0.1078  0.3727 -0.1246
 1039PF6-    P114563   1.139   3.555   3.414 -0.0965  0.3108  0.1366
 1039PF6-    F214564   1.228   3.466   3.516 -0.0296 -0.2438 -0.2940
 1039PF6-    F314565   1.049   3.635   3.309  0.0002 -0.1289 -0.3127
 1039PF6-    F414566   1.084   3.425   3.351 -0.2711  0.1201  0.2352
 1039PF6-    F514567   1.199   3.692   3.474  0.0156  0.0600  0.3126
 1039PF6-    F614568   1.257   3.545   3.311  0.1436 -0.0281 -0.4924
 1039PF6-    F714569   1.020   3.549   3.525 -0.0279 -0.0978 -0.1437
 1040PF6-    P114570   3.646   1.550   1.106 -0.4325 -0.3248  0.2770
 1040PF6-    F214571   3.768   1.652   1.122 -0.3986 -0.4677  0.0271
 1040PF6-    F314572   3.525   1.447   1.094 -0.1447  0.2019  0.1195
 1040PF6-    F414573   3.754   1.444   1.054 -0.2133 -0.1084  0.2693
 1040PF6-    F514574   3.551   1.668   1.162 -0.1125  0.5271 -0.3106
 1040PF6-    F614575   3.629   1.599   0.957 -0.1182 -0.3105 -0.1412
 1040PF6-    F714576   3.668   1.515   1.262  0.2035  0.7447 -0.8849
 1041PF6-    P114577   5.481   4.332   3.767 -0.2364  0.4085 -0.2884
 1041PF6-    F214578   5.645   4.350   3.760 -0.1459  0.1456 -0.4082
 1041PF6-    F314579   5.321   4.320   3.780  0.3226 -0.2300  0.0533
 1041PF6-    F414580   5.464   4.430   3.648 -0.0372  0.3133 -0.0661
 1041PF6-    F514581   5.489   4.227   3.887 -0.2061 -0.0391 -0.3784
 1041PF6-    F614582   5.471   4.450   3.859  0.1719 -0.1280 -0.3215
 1041PF6-    F714583   5.489   4.212   3.662 -0.0998 -0.1681  0.1418
 1042PF6-    P114584   1.838   3.929   1.065  0.1437 -0.0166  0.6623
 1042PF6-    F214585   1.802   4.080   1.093 -0.4023 -0.2670 -0.4780
 1042PF6-    F314586   1.876   3.779   1.037  0.0364  0.1876 -0.1474
 1042PF6-    F414587   1.934   3.971   0.938  0.1083 -0.4523 -0.3257
 1042PF6-    F514588   1.736   3.889   1.182 -0.2118 -0.0538  0.2497
 1042PF6-    F614589   1.715   3.916   0.959  0.0308 -0.0912 -0.4566
 1042PF6-    F714590   1.960   3.932   1.171 -0.4147  0.1191  0.3314
 1043PF6-    P114591   5.420   3.810   1.243 -0.2791 -0.5305  0.2760
 1043PF6-    F214592   5.329   3.734   1.352  0.0478  0.3546 -0.4022
 1043PF6-    F314593   5.521   3.881   1.132 -0.4762 -0.2966  0.0547
 1043PF6-    F414594   5.487   3.672   1.208 -0.0467  0.3236 -0.3707
 1043PF6-    F514595   5.353   3.953   1.275  0.5674  0.3153  0.4502
 1043PF6-    F614596   5.533   3.835   1.355  0.3216 -0.3327  0.1132
 1043PF6-    F714597   5.316   3.785   1.125 -0.2625  0.0751 -0.5312
 1044PF6-    P114598   1.669   3.240   5.022  0.2191  0.2666 -0.2611
 1044PF6-    F214599   1.721   3.189   5.164 -0.6369  0.5764 -0.1685
 1044PF6-    F314600   1.628   3.288   4.875 -0.1506  0.2044 -0.2355
 1044PF6-    F414601   1.732   3.389   5.045  0.0287  0.4168  0.3981
 1044PF6-    F514602   1.602   3.098   4.996  0.6866 -0.5866  0.3643
 1044PF6-    F614603   1.530   3.291   5.085 -0.2676 -0.3061  0.3137
 1044PF6-    F714604   1.810   3.186   4.955 -0.1664 -0.0060 -0.6669
 1045PF6-    P114605   2.391   2.279   4.795 -0.0734 -0.1040 -0.2437
 1045PF6-    F214606   2.534   2.345   4.763 -0.0857 -0.3603 -0.3671
 1045PF6-    F314607   2.244   2.217   4.826 -0.2122  0.0387 -0.7829
 1045PF6-    F414608   2.335   2.312   4.646 -0.0476 -0.0307 -0.0444
 1045PF6-    F514609   2.449   2.234   4.930  0.1155 -0.7071 -0.8893
 1045PF6-    F614610   2.344   2.420   4.864  0.1063  0.4103  0.2301
 1045PF6-    F714611   2.440   2.136   4.733 -0.0876 -0.1315 -0.2411
 1046PF6-    P114612   1.094   1.075   4.647  0.2894  0.3819 -0.2289
 1046PF6-    F214613   1.060   0.922   4.662  0.5642  0.0281  0.0593
 1046PF6-    F314614   1.130   1.233   4.622 -0.2093  0.0336  0.3888
 1046PF6-    F414615   0.958   1.117   4.722 -0.2012  0.3068 -0.3406
 1046PF6-    F514616   1.230   1.031   4.568 -0.4252 -0.7450 -0.0221
 1046PF6-    F614617   1.019   1.085   4.506  0.3143 -0.8392  0.1745
 1046PF6-    F714618   1.171   1.071   4.785 -0.3518 -0.6277 -0.6686
 1047PF6-    P114619   0.562   1.343   2.617  0.4231 -0.1396 -0.0509
 1047PF6-    F214620   0.567   1.312   2.777 -0.2092 -0.1808 -0.5169
 1047PF6-    F314621   0.548   1.378   2.460 -0.3920  0.6371 -0.2838
 1047PF6-    F414622   0.545   1.501   2.645  0.1850 -0.3440 -0.0615
 1047PF6-    F514623   0.569   1.185   2.584 -0.2311  0.0434  0.2067
 1047PF6-    F614624   0.401   1.325   2.621  0.5012 -0.3338  0.2581
 1047PF6-    F714625   0.723   1.359   2.606  0.0624 -0.2900  0.0024
 1048PF6-    P114626   1.675   3.282   1.607 -0.2613  0.3755  0.1520
 1048PF6-    F214627   1.735   3.419   1.558  0.1312 -0.1134  0.4474
 1048PF6-    F314628   1.608   3.146   1.665  0.0121  0.5417 -0.1444
 1048PF6-    F414629   1.705   3.208   1.464  0.3803 -0.0950 -0.6989
 1048PF6-    F514630   1.665   3.355   1.748  0.1092 -0.3185  0.0568
 1048PF6-    F614631   1.526   3.332   1.567 -0.9241  0.2066  0.0008
 1048PF6-    F714632   1.818   3.237   1.653 -0.3909  0.2275  0.0365
 1049PF6-    P114633   2.656   3.327   5.317 -0.2524  0.5255  0.0877
 1049PF6-    F214634   2.701   3.471   5.270 -0.1025  0.1910  0.0861
 1049PF6-    F314635   2.620   3.176   5.356  0.4276  0.4864  0.3058
 1049PF6-    F414636   2.813   3.298   5.347  0.3090  0.2319  0.4864
 1049PF6-    F514637   2.499   3.351   5.283 -0.3230 -0.2805 -0.0049
 1049PF6-    F614638   2.676   3.277   5.162 -0.1751 -0.0848 -0.0708
 1049PF6-    F714639   2.632   3.383   5.469 -0.1573 -0.0101  0.7041
 1050PF6-    P114640   4.648   4.953   3.785  0.3346 -0.0866  0.2213
 1050PF6-    F214641   4.765   4.852   3.754  0.6587 -0.4288 -0.1268
 1050PF6-    F314642   4.531   5.063   3.818 -0.2001  0.1236  0.3946
 1050PF6-    F414643   4.662   5.024   3.636  0.1318  0.2801  0.4075
 1050PF6-    F514644   4.633   4.887   3.927 -0.2164  0.2730  0.0300
 1050PF6-    F614645   4.752   5.056   3.852 -0.0028 -0.0646  0.1507
 1050PF6-    F714646   4.544   4.853   3.721 -0.4584 -0.1592 -0.6090
 1051PF6-    P114647   5.143   1.601   3.757  0.1544  0.0788 -0.0846
 1051PF6-    F214648   5.021   1.501   3.708 -0.7364  0.7098 -0.8762
 1051PF6-    F314649   5.264   1.696   3.797  0.4243  0.1354 -0.5305
 1051PF6-    F414650   5.135   1.665   3.608  0.0601 -0.2615 -0.1382
 1051PF6-    F514651   5.147   1.537   3.901  0.4837  0.3997 -0.0537
 1051PF6-    F614652   5.249   1.491   3.695 -0.6615 -0.3260 -0.1075
 1051PF6-    F714653   5.037   1.707   3.817  0.2393 -0.3249  0.5585
 1052PF6-    P114654   4.584   0.426   0.537 -0.3362  0.0715 -0.0245
 1052PF6-    F214655   4.630   0.322   0.656  0.3706  0.5249  0.0009
 1052PF6-    F314656   4.531   0.524   0.428 -0.4968 -0.5161 -0.4856
 1052PF6-    F414657   4.438   0.415   0.592 -0.5439 -0.3739 -0.0461
 1052PF6-    F514658   4.737   0.433   0.485 -0.2341  0.3941 -0.0783
 1052PF6-    F614659   4.549   0.299   0.442  0.9943  0.0192  0.1074
 1052PF6-    F714660   4.613   0.550   0.632 -0.0723 -0.0890  0.2956
 1053PF6-    P114661   5.083   0.996   5.445  0.3572 -0.0065  0.2500
 1053PF6-    F214662   5.047   0.889   5.329 -0.3799  0.1385 -0.4407
 1053PF6-    F314663   5.111   1.111   5.548 -0.2909  0.0578  0.1152
 1053PF6-    F414664   4.935   1.053   5.430  0.5254 -0.0865  0.1360
 1053PF6-    F514665   5.235   0.942   5.459  0.8668  0.1556 -0.0329
 1053PF6-    F614666   5.131   1.103   5.331 -0.0811  0.4724  0.2830
 1053PF6-    F714667   5.039   0.892   5.559  0.1477  0.1083 -0.0670
 1054PF6-    P114668   1.570   2.546   2.871  0.1694 -0.0282 -0.1227
 1054PF6-    F214669   1.611   2.435   2.979 -0.0724  0.2299 -0.0912
 1054PF6-    F314670   1.519   2.669   2.777  0.2485 -0.9750  0.1860
 1054PF6-    F414671   1.482   2.442   2.786  0.1322  0.4555  0.5392
 1054PF6-    F514672   1.656   2.656   2.953 -0.2952  0.0373  0.2840
 1054PF6-    F614673   1.699   2.518   2.780  0.5399  0.5724 -0.5439
 1054PF6-    F714674   1.444   2.579   2.966  0.6792 -0.6631  0.3865
 1055PF6-    P114675   3.066   0.004   2.933 -0.0016 -0.1294 -0.1476
 1055PF6-    F214676   3.056  -0.142   3.004 -0.3975 -0.7325 -0.1492
 1055PF6-    F314677   3.070   0.148   2.853  0.0910 -0.4770  0.3476
 1055PF6-    F414678   2.973  -0.046   2.813 -0.0336 -0.4373  0.3032
 1055PF6-    F514679   3.159   0.064   3.049 -0.6353 -0.1581  0.8331
 1055PF6-    F614680   3.197  -0.041   2.851  0.5064 -0.1593  0.0865
 1055PF6-    F714681   2.938   0.054   3.014  0.2591  0.6520  0.3067
 1056PF6-    P114682   2.857   3.805   2.370  0.6877  0.2022  0.3152
 1056PF6-    F214683   2.699   3.796   2.375 -0.0516 -0.3200 -0.8214
 1056PF6-    F314684   3.018   3.819   2.367  0.3268  0.3592  0.6826
 1056PF6-    F414685   2.860   3.801   2.528  0.0036 -0.0343 -0.3854
 1056PF6-    F514686   2.849   3.797   2.215  0.3412  0.3830  0.2338
 1056PF6-    F614687   2.847   3.969   2.362  0.1895 -0.3402  0.2284
 1056PF6-    F714688   2.855   3.649   2.380  0.1229 -0.2280  0.1360
 1057PF6-    P114689   2.650   1.605   0.722  0.6844 -0.4254 -0.2612
 1057PF6-    F214690   2.663   1.714   0.607 -0.1760  0.5189 -0.1345
 1057PF6-    F314691   2.637   1.498   0.838  0.2332  0.2773 -0.4177
 1057PF6-    F414692   2.509   1.556   0.668  0.0229 -0.8674  0.1621
 1057PF6-    F514693   2.796   1.642   0.790  0.3927  0.1232  0.4380
 1057PF6-    F614694   2.575   1.711   0.815  0.5452 -0.2264 -0.2790
 1057PF6-    F714695   2.720   1.501   0.624 -0.4366 -0.1200  0.7895
 1058PF6-    P114696   3.434   0.202   4.987  0.3170  0.4217  0.5089
 1058PF6-    F214697   3.373   0.285   5.109  0.4110  0.0128 -0.0636
 1058PF6-    F314698   3.490   0.116   4.867 -0.4486  0.1701 -0.1389
 1058PF6-    F414699   3.363   0.069   5.035  0.3539 -0.2130 -0.8348
 1058PF6-    F514700   3.508   0.336   4.931  0.1399  0.2510  0.1435
 1058PF6-    F614701   3.565   0.168   5.075  0.2942 -0.2366 -0.2910
 1058PF6-    F714702   3.303   0.237   4.904 -0.1515  0.0563 -0.1064
 1059PF6-    P114703   2.120   3.817   5.042 -0.0394 -0.2870  0.1958
 1059PF6-    F214704   2.142   3.935   5.155  0.4218 -0.0444  0.2709
 1059PF6-    F314705   2.095   3.689   4.940  0.1701 -0.1500  0.0588
 1059PF6-    F414706   2.108   3.920   4.922  0.0151 -0.0062 -0.0206
 1059PF6-    F514707   2.115   3.712   5.165 -0.3945  1.0735  0.0455
 1059PF6-    F614708   1.963   3.835   5.067 -0.1791  0.1604 -0.3718
 1059PF6-    F714709   2.281   3.808   5.024 -0.1273  0.7138 -0.3284
 1060PF6-    P114710   1.486   0.195   2.086  0.0805 -0.1023 -0.3999
 1060PF6-    F214711   1.557   0.174   2.227  0.5604 -0.4069  0.2585
 1060PF6-    F314712   1.424   0.218   1.933 -0.3111  0.6145  0.1472
 1060PF6-    F414713   1.345   0.163   2.154 -0.1748 -0.4374  0.3254
 1060PF6-    F514714   1.633   0.229   2.020 -0.2040 -0.0754  0.4411
 1060PF6-    F614715   1.506   0.033   2.047  0.0716  0.5913  0.3936
 1060PF6-    F714716   1.465   0.353   2.118 -1.0848 -0.4256  0.2005
 1061PF6-    P114717   0.460   2.787   4.300 -0.2848  0.3057  0.3584
 1061PF6-    F214718   0.570   2.675   4.273  0.1461 -0.2889 -0.1454
 1061PF6-    F314719   0.347   2.901   4.328  0.2925 -0.4269  0.1276
 1061PF6-    F414720   0.523   2.809   4.439  0.4756 -0.1207 -0.3310
 1061PF6-    F514721   0.396   2.753   4.161  0.0788  0.1265  0.4632
 1061PF6-    F614722   0.364   2.674   4.363 -0.0150 -0.0164  0.4657
 1061PF6-    F714723   0.562   2.890   4.232 -0.3954 -0.1128  1.0121
 1062PF6-    P114724   3.086   1.443   2.420  0.3575  0.2988 -0.1879
 1062PF6-    F214725   3.080   1.279   2.433  0.3798 -0.4301  0.0678
 1062PF6-    F314726   3.098   1.605   2.404  0.0929  0.1675  0.0985
 1062PF6-    F414727   3.028   1.455   2.574 -0.1898 -0.2959  0.5692
 1062PF6-    F514728   3.147   1.433   2.274 -0.7102 -0.0711 -0.3814
 1062PF6-    F614729   2.936   1.452   2.361  0.1424  0.4155 -0.1275
 1062PF6-    F714730   3.226   1.436   2.484  0.0897  0.1077 -0.0096
 1063PF6-    P114731   3.241   5.324   1.548  0.0636  0.7906 -0.0602
 1063PF6-    F214732   3.315   5.395   1.427  0.3187  0.0549 -0.2115
 1063PF6-    F314733   3.159   5.246   1.666  0.0308  0.2647  0.5150
 1063PF6-    F414734   3.113   5.419   1.524 -0.2013  0.1933  0.1624
 1063PF6-    F514735   3.369   5.231   1.575  0.4531 -0.1476 -0.5918
 1063PF6-    F614736   3.296   5.431   1.660 -1.0798 -0.1372  0.3709
 1063PF6-    F714737   3.181   5.220   1.438 -0.4626 -0.0081 -0.3145
 1064PF6-    P114738   3.844   0.756   0.050  0.0839 -0.3836 -0.0865
 1064PF6-    F214739   3.687   0.735   0.026  0.1293 -0.0375 -0.1007
 1064PF6-    F314740   4.001   0.774   0.069  0.3771  0.4312 -0.4608
 1064PF6-    F414741   3.849   0.610   0.117 -0.1131 -0.6263  0.3258
 1064PF6-    F514742   3.840   0.905  -0.021 -0.3933  0.3856 -0.3506
 1064PF6-    F614743   3.820   0.819   0.193 -0.0482 -0.1893  0.0286
 1064PF6-    F714744   3.866   0.693  -0.092  0.0041  1.0657  0.4042
 1065PF6-    P114745   2.752   4.964   3.935 -0.2208  0.2345 -0.1599
 1065PF6-    F214746   2.647   5.054   4.017  0.5021 -0.1453 -0.1526
 1065PF6-    F314747   2.859   4.877   3.849 -0.1015 -0.1473 -0.8817
 1065PF6-    F414748   2.626   4.892   3.868  0.5516 -0.1953 -0.1752
 1065PF6-    F514749   2.874   5.044   4.005 -0.0721  0.5444 -0.2006
 1065PF6-    F614750   2.751   4.844   4.043  0.7144 -0.0672  0.3333
 1065PF6-    F714751   2.750   5.075   3.821 -0.1532 -0.5660 -0.2105
 1066PF6-    P114752   2.604   4.359   1.419 -0.0696 -0.1004  0.2197
 1066PF6-    F214753   2.493   4.423   1.512  0.6380  0.1908  0.1889
 1066PF6-    F314754   2.715   4.299   1.320 -0.3607  0.9784  0.1032
 1066PF6-    F414755   2.491   4.286   1.335  0.2911 -0.1540 -0.0940
 1066PF6-    F514756   2.718   4.429   1.505 -0.3510  0.4099 -0.0293
 1066PF6-    F614757   2.609   4.235   1.519  0.3841  0.6544 -0.1435
 1066PF6-    F714758   2.600   4.494   1.331 -0.3053  0.2380 -0.0118
 1067PF6-    P114759   0.072   0.114   4.063 -0.1092  0.2355  0.0477
 1067PF6-    F214760  -0.066   0.142   3.990  0.1848 -0.3056  0.1947
 1067PF6-    F314761   0.212   0.088   4.141 -0.4162 -0.1692  0.5659
 1067PF6-    F414762   0.134   0.241   3.991 -0.1097  0.5706 -0.0629
 1067PF6-    F514763   0.001  -0.015   4.135 -0.5585 -0.0559 -0.3499
 1067PF6-    F614764   0.122   0.023   3.937 -0.1387 -0.0766  0.0790
 1067PF6-    F714765   0.017   0.209   4.181 -0.0882 -0.4856 -0.0491
 1068PF6-    P114766   0.477   3.650   4.694  0.1110  0.2285  0.0863
 1068PF6-    F214767   0.428   3.722   4.824 -0.5274  0.0171  0.1547
 1068PF6-    F314768   0.532   3.580   4.565  0.0778 -0.0322 -0.5106
 1068PF6-    F414769   0.626   3.640   4.756  0.0046  0.3059 -0.4160
 1068PF6-    F514770   0.336   3.649   4.627  0.0842 -0.1200  0.3629
 1068PF6-    F614771   0.509   3.790   4.636 -0.2908 -0.0487 -0.0081
 1068PF6-    F714772   0.453   3.504   4.756 -0.4292  0.0351 -0.4158
 1069PF6-    P114773   4.614   3.921   3.879 -0.3128 -0.3037  0.0979
 1069PF6-    F214774   4.523   3.969   3.763  0.3908 -0.1989  0.4679
 1069PF6-    F314775   4.706   3.884   4.000  0.1601 -0.9355  0.5876
 1069PF6-    F414776   4.571   3.766   3.847 -0.0538 -0.3263  0.3472
 1069PF6-    F514777   4.649   4.077   3.910 -0.2096  0.2545  0.3709
 1069PF6-    F614778   4.486   3.935   3.979 -0.0090 -0.3031  0.1477
 1069PF6-    F714779   4.733   3.909   3.776  0.1095  0.0298  0.1112
 1070PF6-    P114780   4.636   4.232   2.477 -0.1546 -0.0999  0.2504
 1070PF6-    F214781   4.622   4.200   2.320  0.1188 -0.3496 -0.7549
 1070PF6-    F314782   4.649   4.258   2.640  0.9464 -0.5219  1.0187
 1070PF6-    F414783   4.483   4.273   2.484 -0.3135 -0.4393  0.8816
 1070PF6-    F514784   4.798   4.193   2.474  0.5317 -0.2502  0.5246
 1070PF6-    F614785   4.674   4.389   2.445 -0.1517  0.2963  0.0939
 1070PF6-    F714786   4.598   4.077   2.506 -0.1121 -0.1327 -0.4148
 1071PF6-    P114787   0.236   2.290   1.386 -0.0225  0.3643 -0.2084
 1071PF6-    F214788   0.203   2.213   1.523 -0.3157  0.1199  0.2442
 1071PF6-    F314789   0.281   2.373   1.247  0.6038  0.4393 -0.2321
 1071PF6-    F414790   0.101   2.236   1.322  0.5230  0.3721  0.5285
 1071PF6-    F514791   0.362   2.345   1.453 -0.3153 -0.1415 -0.1426
 1071PF6-    F614792   0.315   2.158   1.339  0.0459 -0.0034 -0.4033
 1071PF6-    F714793   0.162   2.415   1.443  0.2927 -0.1514 -0.3328
 1072PF6-    P114794   5.328   4.271   5.400  0.0064  0.5076 -0.0095
 1072PF6-    F214795   5.179   4.234   5.349 -0.7234  0.1289  0.1883
 1072PF6-    F314796   5.468   4.308   5.461 -0.1637 -0.0335  0.1162
 1072PF6-    F414797   5.268   4.282   5.552  0.1198  0.4009 -0.1730
 1072PF6-    F514798   5.382   4.255   5.246 -0.5494 -0.0647 -0.1915
 1072PF6-    F614799   5.294   4.427   5.379  0.6820  0.1148 -0.0954
 1072PF6-    F714800   5.361   4.119   5.424 -0.0348  0.4149  0.3689
 1073PF6-    P114801   2.212   1.940   2.172 -0.2984  0.0284 -0.1956
 1073PF6-    F214802   2.209   1.912   2.016  0.3473 -0.1384 -0.0916
 1073PF6-    F314803   2.204   1.973   2.326 -0.4431  0.0586  0.3516
 1073PF6-    F414804   2.207   2.099   2.138  0.2399 -0.1216  0.2947
 1073PF6-    F514805   2.218   1.781   2.202 -0.3766 -0.1757 -0.4394
 1073PF6-    F614806   2.375   1.936   2.177 -0.4806 -0.0618  0.2810
 1073PF6-    F714807   2.049   1.937   2.172 -0.1753 -0.2539  0.1150
 1074PF6-    P114808   3.087   0.240   0.463 -0.3716 -0.0015 -0.3490
 1074PF6-    F214809   3.119   0.360   0.369  0.7892 -0.0616 -0.3072
 1074PF6-    F314810   3.049   0.116   0.555  0.2081  0.0508  0.3006
 1074PF6-    F414811   3.151   0.144   0.352 -0.1765  0.4960  0.2735
 1074PF6-    F514812   3.032   0.346   0.575  0.8846 -0.5285  0.1787
 1074PF6-    F614813   2.944   0.234   0.395 -0.2569  0.1661  0.4867
 1074PF6-    F714814   3.234   0.250   0.530 -0.0097  0.0310  0.2060
 1075PF6-    P114815   3.450   2.661   2.981 -0.2003 -0.1255  0.0757
 1075PF6-    F214816   3.442   2.606   3.126  0.2206  0.3661  0.1418
 1075PF6-    F314817   3.456   2.727   2.831  0.2688  0.2378 -0.0160
 1075PF6-    F414818   3.318   2.760   3.009 -0.7784  0.3374 -0.1640
 1075PF6-    F514819   3.568   2.561   2.940  0.2169  0.1632  0.1062
 1075PF6-    F614820   3.348   2.552   2.933 -0.2104 -0.5459 -0.1848
 1075PF6-    F714821   3.548   2.780   3.029  0.7973  0.3627 -0.3094
 1076PF6-    P114822   0.289   5.011   0.198 -0.1576 -0.1727 -0.5334
 1076PF6-    F214823   0.438   5.059   0.242  0.5625 -0.4029 -0.0259
 1076PF6-    F314824   0.132   4.965   0.169 -0.3043  0.3015 -0.4568
 1076PF6-    F414825   0.270   5.143   0.109  0.0437  0.4461  0.4737
 1076PF6-    F514826   0.306   4.878   0.288 -0.0035 -0.1264  0.1124
 1076PF6-    F614827   0.235   5.087   0.328 -0.0637  0.0323 -0.2943
 1076PF6-    F714828   0.351   4.936   0.073  0.4282 -0.5282  0.1721
 1077PF6-    P114829   2.863   2.240   1.771  0.1486 -0.3270  0.0303
 1077PF6-    F214830   3.010   2.234   1.704 -0.1204 -0.4465 -0.1812
 1077PF6-    F314831   2.721   2.241   1.846 -0.8356  0.0380 -0.4893
 1077PF6-    F414832   2.820   2.368   1.682 -0.2427 -0.2012  0.6656
 1077PF6-    F514833   2.900   2.116   1.860 -0.3163  0.2854  0.3088
 1077PF6-    F614834   2.925   2.347   1.878  0.0951 -0.4339 -0.1092
 1077PF6-    F714835   2.802   2.147   1.654  0.4101  0.2505  0.3599
 1078PF6-    P114836   0.746   4.415   4.987 -0.1972 -0.2439  0.0178
 1078PF6-    F214837   0.671   4.562   5.017 -0.2901 -0.6387  0.0858
 1078PF6-    F314838   0.818   4.280   4.942  0.1821  0.1086  0.3609
 1078PF6-    F414839   0.613   4.328   5.027  0.3020  0.3588 -0.2861
 1078PF6-    F514840   0.880   4.500   4.950 -0.1109  0.5135  0.5312
 1078PF6-    F614841   0.806   4.404   5.134 -0.3569 -0.5002  0.1330
 1078PF6-    F714842   0.695   4.430   4.838  0.1133  0.5320 -0.1554
 1079PF6-    P114843   1.665   0.679   0.801 -0.0695 -0.1567 -0.0177
 1079PF6-    F214844   1.776   0.585   0.866  0.2074 -0.4992 -0.0141
 1079PF6-    F314845   1.544   0.773   0.742 -0.2744  0.4889 -0.1422
 1079PF6-    F414846   1.562   0.559   0.820 -0.3845  0.7372 -0.5712
 1079PF6-    F514847   1.766   0.800   0.791  0.2337 -0.1476  0.6832
 1079PF6-    F614848   1.700   0.624   0.656 -0.0713 -0.2326 -0.1560
 1079PF6-    F714849   1.627   0.730   0.949 -0.3098  0.0013  0.1707
 1080PF6-    P114850   0.753   4.592   1.416  0.0237 -0.4552  0.7083
 1080PF6-    F214851   0.668   4.514   1.527  0.2305  0.3930 -0.4427
 1080PF6-    F314852   0.825   4.673   1.295 -0.2157 -0.0678 -0.2496
 1080PF6-    F414853   0.615   4.605   1.333  0.0318  0.0196 -0.3070
 1080PF6-    F514854   0.887   4.583   1.502 -0.5288 -0.4421 -0.0468
 1080PF6-    F614855   0.780   4.453   1.341 -0.0099  0.0560  0.0919
 1080PF6-    F714856   0.715   4.732   1.483 -0.0700 -0.4350 -0.3773
 1081PF6-    P114857   5.243   1.410   1.217 -0.2827  0.2700  0.4749
 1081PF6-    F214858   5.225   1.418   1.056  0.5430  0.0549  0.1222
 1081PF6-    F314859   5.265   1.402   1.377  0.0202  0.0330 -0.4127
 1081PF6-    F414860   5.345   1.286   1.202  0.0334 -1.0345 -0.1775
 1081PF6-    F514861   5.145   1.530   1.228 -0.2424 -0.8354  0.2447
 1081PF6-    F614862   5.123   1.308   1.227  0.2674  0.2462 -0.1423
 1081PF6-    F714863   5.371   1.501   1.214 -0.3449 -0.1115 -0.5039
 1082PF6-    P114864   1.507   1.782   5.103 -0.1062  0.1304  0.3349
 1082PF6-    F214865   1.379   1.837   5.029  0.0037 -0.7294  0.1292
 1082PF6-    F314866   1.639   1.722   5.174  0.3633  0.1308 -0.1801
 1082PF6-    F414867   1.602   1.893   5.032 -0.3068  0.4035 -0.0221
 1082PF6-    F514868   1.425   1.671   5.172  0.0436  0.1502  0.0368
 1082PF6-    F614869   1.528   1.682   4.979 -0.2837 -0.3789 -0.2199
 1082PF6-    F714870   1.485   1.882   5.227  0.1368  0.3998  0.6449
 1083PF6-    P114871   4.920   2.537   0.567 -0.0741 -0.4490  0.1146
 1083PF6-    F214872   4.834   2.629   0.454 -0.2730 -0.2838  0.1194
 1083PF6-    F314873   5.012   2.460   0.672 -0.3125 -0.0547 -0.1141
 1083PF6-    F414874   5.050   2.584   0.493  0.0561  0.3877 -0.2953
 1083PF6-    F514875   4.784   2.489   0.632 -0.1056 -0.3857 -0.0590
 1083PF6-    F614876   4.926   2.409   0.478  0.1434 -0.1752  0.3759
 1083PF6-    F714877   4.924   2.669   0.658  0.3480  0.4610 -0.3444
 1084PF6-    P114878   3.322   4.126   1.668 -0.2487 -0.6779 -0.0270
 1084PF6-    F214879   3.191   4.154   1.762 -0.2033 -0.1462  0.5116
 1084PF6-    F314880   3.454   4.103   1.587  0.3659  0.5245  0.5633
 1084PF6-    F414881   3.240   4.034   1.571  0.1259 -0.3697 -0.0178
 1084PF6-    F514882   3.400   4.222   1.770 -0.1859  0.3348  0.5729
 1084PF6-    F614883   3.354   3.999   1.755  0.2077 -0.2452  0.1913
 1084PF6-    F714884   3.291   4.247   1.571  0.3976 -0.0429  0.2914
 1085PF6-    P114885   1.319   0.957   1.392 -0.1035  0.1521 -0.0197
 1085PF6-    F214886   1.457   0.885   1.392  0.0830  0.6475  0.0027
 1085PF6-    F314887   1.178   1.034   1.390 -0.1478  0.0223 -0.1078
 1085PF6-    F414888   1.252   0.819   1.443  0.5028 -0.2547 -0.2139
 1085PF6-    F514889   1.392   1.087   1.333 -0.1361  0.3964  0.0817
 1085PF6-    F614890   1.292   0.902   1.248 -0.0839 -0.1298  0.5535
 1085PF6-    F714891   1.339   0.998   1.545  0.1909 -0.1780 -0.0234
 1086PF6-    P114892   2.041   0.860   2.362 -0.5722  0.4488 -0.0773
 1086PF6-    F214893   2.063   0.991   2.461  0.5266  0.2800  0.2548
 1086PF6-    F314894   2.027   0.724   2.275  0.1982  0.0876 -0.4011
 1086PF6-    F414895   2.033   0.953   2.235 -0.1163 -0.1723 -0.3416
 1086PF6-    F514896   2.047   0.763   2.491  0.0844  0.0371  0.0600
 1086PF6-    F614897   1.888   0.864   2.383  0.6907  0.0899 -0.3773
 1086PF6-    F714898   2.195   0.847   2.347 -0.4581 -0.3453 -0.2964
 1087PF6-    P114899   3.735   3.721   2.710 -0.3607 -0.0238 -0.0208
 1087PF6-    F214900   3.730   3.563   2.702 -0.8749 -0.1119 -0.1984
 1087PF6-    F314901   3.741   3.877   2.722  0.0174  0.1905  0.2352
 1087PF6-    F414902   3.861   3.724   2.611  0.5065  0.4059  0.1635
 1087PF6-    F514903   3.602   3.717   2.793  0.4880  0.7851  0.3157
 1087PF6-    F614904   3.816   3.708   2.848 -0.2829 -0.3606  0.5211
 1087PF6-    F714905   3.643   3.728   2.580  0.0816 -0.4296  0.6921
 1088PF6-    P114906   5.388   2.769   2.761 -0.0289  0.1024 -0.1590
 1088PF6-    F214907   5.344   2.863   2.883  0.6561 -0.1463 -0.2046
 1088PF6-    F314908   5.429   2.680   2.634  0.4052  0.2833  0.2913
 1088PF6-    F414909   5.530   2.838   2.767  0.5214  0.0009 -0.2984
 1088PF6-    F514910   5.244   2.700   2.762 -0.0667 -0.8813  0.2221
 1088PF6-    F614911   5.337   2.879   2.662  0.3432 -0.2853  0.2771
 1088PF6-    F714912   5.448   2.656   2.858  0.3592  0.0808 -0.8071
 1089PF6-    P114913   5.093   0.068   0.476  0.1756  0.1244  0.1805
 1089PF6-    F214914   5.002  -0.018   0.576  0.1067  0.4035  0.0813
 1089PF6-    F314915   5.177   0.148   0.375  0.1826  0.6228 -0.0002
 1089PF6-    F414916   4.975   0.075   0.368 -0.0384  0.0405  0.2813
 1089PF6-    F514917   5.215   0.063   0.587  0.1334  0.1800  0.6350
 1089PF6-    F614918   5.149  -0.063   0.415  0.5847  0.3887 -0.1387
 1089PF6-    F714919   5.033   0.201   0.544  0.8313  0.3321  0.5764
 1090PF6-    P114920   0.245   1.828   4.329  0.1129 -0.0835  0.0782
 1090PF6-    F214921   0.107   1.787   4.401 -0.2534 -0.5091 -0.3504
 1090PF6-    F314922   0.388   1.876   4.257  0.0907 -0.5673  0.7087
 1090PF6-    F414923   0.163   1.876   4.200  0.3435 -0.1573 -0.0467
 1090PF6-    F514924   0.323   1.782   4.455 -0.3994  0.3112 -0.1212
 1090PF6-    F614925   0.254   1.684   4.266 -0.0443  0.5816 -0.6516
 1090PF6-    F714926   0.241   1.970   4.394  0.6659 -0.0486  0.3868
 1091PF6-    P114927   0.328   2.532   3.856 -0.1896  0.6017 -0.1101
 1091PF6-    F214928   0.236   2.552   3.986  0.0773 -0.3378  0.0776
 1091PF6-    F314929   0.422   2.503   3.730  0.2902 -0.3861 -0.1960
 1091PF6-    F414930   0.402   2.674   3.873 -0.7391 -0.1614  0.1650
 1091PF6-    F514931   0.259   2.387   3.834 -0.1522  0.2971  0.3632
 1091PF6-    F614932   0.217   2.603   3.765  0.3069 -0.0960 -0.0711
 1091PF6-    F714933   0.437   2.461   3.945  0.0632  0.0544 -0.2781
 1092PF6-    P114934   1.108   3.293   3.913  0.5344  0.2345 -0.1864
 1092PF6-    F214935   1.230   3.395   3.952 -0.1310 -0.2510 -0.4525
 1092PF6-    F314936   0.989   3.191   3.889  0.1129 -0.1306 -0.4489
 1092PF6-    F414937   1.032   3.336   4.052 -0.0943 -0.9397  0.4642
 1092PF6-    F514938   1.180   3.245   3.784  0.0805  0.4708  1.2178
 1092PF6-    F614939   1.180   3.170   3.989  0.3914 -1.4039  0.0242
 1092PF6-    F714940   1.031   3.407   3.834 -0.4088 -0.2322  0.4087
 1093PF6-    P114941   0.238   4.381   0.695  0.2133 -0.0365 -0.0191
 1093PF6-    F214942   0.205   4.308   0.558 -0.3055 -0.1545 -0.2991
 1093PF6-    F314943   0.280   4.448   0.835 -0.4081  0.2878  0.3509
 1093PF6-    F414944   0.228   4.237   0.768 -0.5565  0.5450  0.2219
 1093PF6-    F514945   0.247   4.520   0.617 -0.5493 -0.2697 -0.1624
 1093PF6-    F614946   0.084   4.409   0.721  0.3611  0.8492  0.0552
 1093PF6-    F714947   0.395   4.363   0.671 -0.9197  0.2078 -0.1949
 1094PF6-    P114948   3.013   0.830   2.154 -0.0100  0.4577  0.3189
 1094PF6-    F214949   2.854   0.852   2.170 -0.4435  0.2363 -0.4452
 1094PF6-    F314950   3.171   0.802   2.138  0.2309  0.2049  0.8382
 1094PF6-    F414951   3.028   0.940   2.036  0.2052 -0.2271 -0.0933
 1094PF6-    F514952   3.005   0.712   2.263 -0.3322  0.4765 -0.2173
 1094PF6-    F614953   2.985   0.723   2.045  0.2611  0.3514  0.3591
 1094PF6-    F714954   3.040   0.947   2.268 -0.0059  0.0506  0.0493
 1095PF6-    P114955   3.405   2.973   0.495  0.0389 -0.2439 -0.0240
 1095PF6-    F214956   3.340   3.066   0.608 -0.1415  0.3152 -0.1841
 1095PF6-    F314957   3.474   2.882   0.380 -0.0207 -0.0217 -0.1002
 1095PF6-    F414958   3.323   3.054   0.383 -0.2477 -0.6700  0.1263
 1095PF6-    F514959   3.479   2.890   0.602  0.1789  0.2211 -0.2498
 1095PF6-    F614960   3.276   2.882   0.503  0.3281  0.1140 -0.4742
 1095PF6-    F714961   3.526   3.082   0.486 -0.0642 -0.0300 -0.1223
 1096PF6-    P114962   0.100   4.093   2.690  0.1554 -0.0716 -0.2208
 1096PF6-    F214963   0.058   4.187   2.570  0.0822  0.2030 -0.4721
 1096PF6-    F314964   0.135   3.999   2.816  0.4106 -0.5057  0.0003
 1096PF6-    F414965  -0.000   3.980   2.636 -0.2137 -0.6460 -0.1774
 1096PF6-    F514966   0.196   4.208   2.747  0.4613  0.5192 -0.0780
 1096PF6-    F614967  -0.014   4.163   2.781  0.4208 -0.3705  1.1297
 1096PF6-    F714968   0.218   4.027   2.600  0.3652  0.3053 -0.0536
 1097PF6-    P114969   0.744   2.749   1.604  0.1871 -0.3434  0.1670
 1097PF6-    F214970   0.681   2.802   1.742 -1.0557 -0.0268 -0.0747
 1097PF6-    F314971   0.817   2.688   1.477  0.2118 -0.0169 -0.0261
 1097PF6-    F414972   0.879   2.729   1.686 -0.3862 -0.4674  0.1277
 1097PF6-    F514973   0.612   2.787   1.528  0.0461  0.2577  0.3346
 1097PF6-    F614974   0.799   2.897   1.564  0.3610 -0.0524 -0.3665
 1097PF6-    F714975   0.684   2.605   1.644 -0.4078  0.0193 -0.6802
 1098PF6-    P114976   5.388   3.079   1.197  0.4364  0.1654 -0.2973
 1098PF6-    F214977   5.231   3.082   1.228  0.1548  0.4089  0.0468
 1098PF6-    F314978   5.542   3.080   1.179  0.2171  0.6175 -0.2670
 1098PF6-    F414979   5.382   2.930   1.144 -0.0127  0.1590 -0.0209
 1098PF6-    F514980   5.404   3.229   1.254  0.4926  0.0707  0.1067
 1098PF6-    F614981   5.409   3.012   1.343 -0.1345  0.4021  0.0214
 1098PF6-    F714982   5.372   3.147   1.052 -0.0239  0.0091 -0.4734
 1099PF6-    P114983   2.711   3.586   0.537  0.0419 -0.4454  0.2359
 1099PF6-    F214984   2.582   3.496   0.520 -0.1778 -0.1525  0.1779
 1099PF6-    F314985   2.832   3.689   0.543  0.6082  0.1179  0.1276
 1099PF6-    F414986   2.794   3.471   0.612  0.6243 -0.0348  0.0777
 1099PF6-    F514987   2.628   3.693   0.458  0.1677 -0.3438 -0.1393
 1099PF6-    F614988   2.659   3.640   0.680  0.4644 -0.4661 -0.0411
 1099PF6-    F714989   2.769   3.533   0.394  0.0894 -0.6233 -0.2656
 1100PF6-    P114990   1.193   2.879   2.982  0.1591 -0.2412 -0.1611
 1100PF6-    F214991   1.058   2.945   3.033  0.4051  0.4657 -0.0902
 1100PF6-    F314992   1.337   2.816   2.935 -0.2197 -0.0443  0.2648
 1100PF6-    F414993   1.246   3.023   2.949  0.2041  0.5779  0.0705
 1100PF6-    F514994   1.143   2.729   3.022 -0.7353  0.2438  0.1010
 1100PF6-    F614995   1.132   2.868   2.839  0.5534  0.4066 -0.1498
 1100PF6-    F714996   1.258   2.889   3.127 -0.0126  0.0628  0.1427
 1101PF6-    P114997   3.588   2.354   5.436 -0.0737 -0.3342  0.6347
 1101PF6-    F214998   3.683   2.460   5.365 -0.6024  0.0150 -0.2740
 1101PF6-    F314999   3.489   2.252   5.514 -0.5593 -0.0378 -0.1024
 1101PF6-    F415000   3.699   2.336   5.551  0.4049  0.1291 -0.1703
 1101PF6-    F515001   3.481   2.358   5.313 -0.2522 -0.4854 -0.1909
 1101PF6-    F615002   3.665   2.236   5.362 -0.3942  0.4817  0.3783
 1101PF6-    F715003   3.513   2.471   5.514 -0.4610  0.0966 -0.3424
 1102PF6-    P115004   3.952   2.081   1.051  0.1890 -0.1037 -0.7635
 1102PF6-    F215005   3.860   2.201   1.007 -0.0566 -0.2458 -0.4652
 1102PF6-    F315006   4.046   1.962   1.103 -0.5595 -0.6874 -0.1845
 1102PF6-    F415007   3.966   2.039   0.902 -0.0399 -0.1944  0.6159
 1102PF6-    F515008   3.940   2.121   1.206 -0.3088 -0.0634 -0.1332
 1102PF6-    F615009   3.821   1.983   1.068 -0.0806 -0.3085  0.0017
 1102PF6-    F715010   4.079   2.173   1.042 -0.0743  0.2844  0.2842
 1103PF6-    P115011   0.856   2.589   5.143 -0.0083 -0.0060 -0.1199
 1103PF6-    F215012   1.009   2.540   5.155 -0.3068 -0.5076  0.2241
 1103PF6-    F315013   0.705   2.638   5.128  0.5145  0.3872  0.0361
 1103PF6-    F415014   0.891   2.741   5.180 -0.0975  0.2926 -0.1659
 1103PF6-    F515015   0.810   2.439   5.099 -0.4748 -0.2486  0.4758
 1103PF6-    F615016   0.837   2.558   5.295 -0.3515 -0.5162 -0.0892
 1103PF6-    F715017   0.882   2.615   4.986  0.2447 -0.0213 -0.0536
 1104PF6-    P115018   1.809   1.643   2.941 -0.4488  0.1040  0.2190
 1104PF6-    F215019   1.854   1.500   3.005  0.1226  0.3123  0.0955
 1104PF6-    F315020   1.779   1.794   2.888 -0.0108 -0.1701 -0.2591
 1104PF6-    F415021   1.801   1.576   2.796 -0.2068 -0.3115 -0.0476
 1104PF6-    F515022   1.821   1.702   3.090 -0.0544  0.6468  0.1122
 1104PF6-    F615023   1.969   1.669   2.915 -0.3184  0.8351  0.5785
 1104PF6-    F715024   1.653   1.618   2.968 -0.3313  0.2464 -0.3499
 1105PF6-    P115025   2.483   0.204   1.149 -0.0933  0.1811 -0.1939
 1105PF6-    F215026   2.391   0.117   1.238  0.0998 -0.3637 -0.0523
 1105PF6-    F315027   2.575   0.305   1.069 -0.5231  0.0727 -0.2808
 1105PF6-    F415028   2.570   0.078   1.097 -0.3280  0.4857 -0.8680
 1105PF6-    F515029   2.392   0.324   1.198 -0.1350 -0.4604  0.1589
 1105PF6-    F615030   2.588   0.219   1.270  0.6095 -0.5056 -0.3452
 1105PF6-    F715031   2.379   0.199   1.025 -0.3279  0.3715  0.7012
 1106PF6-    P115032   4.549   5.305   1.207  0.4489 -0.5275  0.0025
 1106PF6-    F215033   4.636   5.292   1.342 -0.1059 -0.3058 -0.0867
 1106PF6-    F315034   4.458   5.308   1.076 -0.5665  0.0495 -0.1395
 1106PF6-    F415035   4.422   5.348   1.295  0.0572  0.0820  0.2565
 1106PF6-    F515036   4.675   5.258   1.110  0.2311 -0.1317  0.2564
 1106PF6-    F615037   4.508   5.154   1.227  0.2702 -0.3173 -0.2054
 1106PF6-    F715038   4.593   5.462   1.181  0.6662 -0.0214 -0.4089
 1107PF6-    P115039   1.292   4.551   2.470 -0.2912 -0.1099 -0.4557
 1107PF6-    F215040   1.318   4.691   2.539 -0.2104  0.4006  0.3939
 1107PF6-    F315041   1.263   4.412   2.394 -0.5189 -0.1469  0.0708
 1107PF6-    F415042   1.149   4.603   2.434  0.4026  0.3273  0.2179
 1107PF6-    F515043   1.444   4.501   2.509 -0.0494 -0.5016  0.2266
 1107PF6-    F615044   1.240   4.490   2.610  0.1544 -0.1354  0.2102
 1107PF6-    F715045   1.349   4.608   2.330  0.1230  0.2363 -0.2444
 1108PF6-    P115046   1.956   2.476   4.963 -0.5165  0.1686  0.0259
 1108PF6-    F215047   2.047   2.384   5.054  0.6243  0.0423  0.4128
 1108PF6-    F315048   1.875   2.574   4.870  0.1504  0.5937 -0.0862
 1108PF6-    F415049   2.082   2.480   4.861  0.7349 -0.4365 -0.0588
 1108PF6-    F515050   1.835   2.478   5.061 -0.6375 -0.4942 -0.2427
 1108PF6-    F615051   2.017   2.601   5.041  0.0061  0.3362  0.0377
 1108PF6-    F715052   1.898   2.345   4.888 -0.4526 -0.8403 -0.1446
 1109PF6-    P115053   0.959   4.292   3.461 -0.0065 -0.2351 -0.2048
 1109PF6-    F215054   1.011   4.442   3.431 -0.7016  1.0918 -0.2111
 1109PF6-    F315055   0.916   4.139   3.492  0.7283  0.3103 -0.1414
 1109PF6-    F415056   1.023   4.301   3.603 -0.1376 -0.2132 -0.6111
 1109PF6-    F515057   0.903   4.287   3.311  0.3196 -0.2907 -0.5187
 1109PF6-    F615058   1.104   4.245   3.407 -0.3996 -0.0594  0.5179
 1109PF6-    F715059   0.820   4.344   3.514 -0.4035 -0.1006  0.2217
 1110PF6-    P115060   1.036   2.376   4.745  0.0196 -0.3393 -0.2032
 1110PF6-    F215061   1.115   2.461   4.860 -0.8370  0.2851 -0.2821
 1110PF6-    F315062   0.960   2.290   4.635  0.6009 -0.4677  0.0158
 1110PF6-    F415063   1.149   2.266   4.744  0.3608 -0.0778  0.1730
 1110PF6-    F515064   0.925   2.491   4.737  0.2627 -0.2225  0.2366
 1110PF6-    F615065   1.121   2.457   4.629  0.3389  0.1347 -0.3405
 1110PF6-    F715066   0.952   2.297   4.860 -0.3373 -0.2301 -0.0361
 1111PF6-    P115067   3.950   1.361   2.840  0.2295 -0.3430 -0.2245
 1111PF6-    F215068   3.898   1.227   2.905  0.3339 -0.1150  0.1264
 1111PF6-    F315069   4.002   1.500   2.773 -0.0684  0.0587 -0.2849
 1111PF6-    F415070   3.928   1.439   2.979 -0.3915 -0.2511  0.3225
 1111PF6-    F515071   3.972   1.291   2.700 -0.8656 -0.0482 -0.3153
 1111PF6-    F615072   3.799   1.397   2.799  0.2888 -0.0008 -0.3407
 1111PF6-    F715073   4.101   1.325   2.888 -0.2414 -0.2030 -0.4462
 1112PF6-    P115074   3.595   3.346   1.618  0.0902 -0.3435  0.3200
 1112PF6-    F215075   3.484   3.246   1.552 -0.1008  0.6162  0.4249
 1112PF6-    F315076   3.698   3.451   1.685 -0.3886 -0.2752 -0.1769
 1112PF6-    F415077   3.623   3.413   1.472  0.4986 -0.0937 -0.0337
 1112PF6-    F515078   3.563   3.278   1.759  0.6545 -0.2315 -0.1971
 1112PF6-    F615079   3.722   3.250   1.594 -0.2306 -0.6704 -0.6789
 1112PF6-    F715080   3.475   3.459   1.627 -0.6357  0.4088 -0.6031
 1113PF6-    P115081   3.599   3.966   5.443 -0.3398 -0.0312  0.1586
 1113PF6-    F215082   3.733   4.022   5.380  0.4142  0.3129  0.2395
 1113PF6-    F315083   3.457   3.915   5.499 -0.2125 -0.4342  0.0443
 1113PF6-    F415084   3.683   3.868   5.541 -0.4234 -0.1417  0.4951
 1113PF6-    F515085   3.514   4.069   5.354 -0.5688 -0.1945  0.3971
 1113PF6-    F615086   3.591   3.852   5.331  0.0542 -0.1498 -0.4265
 1113PF6-    F715087   3.602   4.071   5.566  0.0292  0.0327  0.6056
 1114PF6-    P115088   2.574   2.442   0.996  0.0622 -0.0201 -0.6379
 1114PF6-    F215089   2.572   2.462   0.836 -0.3007 -0.3583 -0.6473
 1114PF6-    F315090   2.575   2.426   1.158 -0.0344  0.4115 -0.1872
 1114PF6-    F415091   2.410   2.426   0.988 -0.1523  0.0238 -0.5533
 1114PF6-    F515092   2.738   2.452   1.000 -0.5801 -0.2058  0.0049
 1114PF6-    F615093   2.552   2.592   1.014 -0.5557  0.0346 -0.7678
 1114PF6-    F715094   2.590   2.283   0.982 -0.0292  0.5698 -0.0631
 1115PF6-    P115095   4.020   0.220   3.576  0.0946  0.2130  0.1895
 1115PF6-    F215096   4.080   0.288   3.710  0.7662 -0.3321  0.0342
 1115PF6-    F315097   3.962   0.145   3.443 -0.0004 -0.0242 -0.0576
 1115PF6-    F415098   4.050   0.070   3.635  0.6147 -0.4336 -0.0208
 1115PF6-    F515099   3.979   0.361   3.507 -0.4825 -0.1761 -0.1343
 1115PF6-    F615100   4.164   0.222   3.507 -0.2422  0.0801  0.3155
 1115PF6-    F715101   3.874   0.213   3.649 -0.2914 -0.1440 -0.2730
 1116PF6-    P115102   1.089   5.374   2.875 -0.1379 -0.5319 -0.1691
 1116PF6-    F215103   1.229   5.332   2.937  0.0811 -0.0044 -0.3452
 1116PF6-    F315104   0.946   5.419   2.816 -0.0260 -0.1491 -0.2121
 1116PF6-    F415105   1.157   5.492   2.799 -0.0145 -0.1819  0.2550
 1116PF6-    F515106   1.030   5.250   2.948  0.4588 -0.3528  0.4844
 1116PF6-    F615107   1.064   5.466   3.007 -0.6153 -0.3463 -0.3395
 1116PF6-    F715108   1.118   5.274   2.745  0.3538 -0.5172 -0.4796
 1117PF6-    P115109   0.905   3.100   0.713  0.4328  0.0667  0.1584
 1117PF6-    F215110   1.046   3.037   0.662 -0.1777  0.1361  0.3307
 1117PF6-    F315111   0.761   3.163   0.758  0.3200  0.0673  0.4293
 1117PF6-    F415112   0.851   2.949   0.743  0.0023  0.0888 -0.6537
 1117PF6-    F515113   0.947   3.252   0.675 -0.0389 -0.0244 -0.2651
 1117PF6-    F615114   0.847   3.088   0.566  0.1786  0.2126 -0.4956
 1117PF6-    F715115   0.965   3.119   0.861  0.0934  0.0670  0.0772
 1118PF6-    P115116   4.430   1.560   4.064 -0.2748  0.0165 -0.4445
 1118PF6-    F215117   4.422   1.718   4.065 -0.2360  0.0515  0.0899
 1118PF6-    F315118   4.436   1.396   4.058 -0.1504  0.3949  0.2611
 1118PF6-    F415119   4.360   1.563   3.920  0.6069 -0.0663  0.0492
 1118PF6-    F515120   4.501   1.557   4.204  0.4847 -0.2136 -0.1440
 1118PF6-    F615121   4.285   1.555   4.130 -0.0439  0.0863  0.1880
 1118PF6-    F715122   4.580   1.564   3.994 -0.3439 -0.8749 -0.7331
 1119PF6-    P115123   4.006   3.742   4.831  0.3200 -0.0909 -0.0542
 1119PF6-    F215124   4.085   3.676   4.716  0.0328  0.7297 -0.0170
 1119PF6-    F315125   3.919   3.808   4.947 -0.1193 -0.3261 -0.5084
 1119PF6-    F415126   4.135   3.746   4.924  0.1513  0.0690  0.2499
 1119PF6-    F515127   3.872   3.738   4.746 -0.4130 -0.4262 -0.2852
 1119PF6-    F615128   3.976   3.592   4.891  0.6455  0.2368  0.4966
 1119PF6-    F715129   4.035   3.884   4.768 -0.4209 -0.2728 -0.0744
 1120PF6-    P115130   5.269   3.463   0.440  0.0598 -0.5091  0.6234
 1120PF6-    F215131   5.266   3.329   0.532  0.1024  0.3546 -0.6795
 1120PF6-    F315132   5.268   3.597   0.349 -0.0117  0.4971  0.1615
 1120PF6-    F415133   5.223   3.556   0.566  0.1946  0.2061 -0.0954
 1120PF6-    F515134   5.317   3.380   0.316  0.3546 -0.0839  0.3134
 1120PF6-    F615135   5.115   3.443   0.406 -0.6458  1.0822  0.2294
 1120PF6-    F715136   5.423   3.485   0.474 -0.1200  0.5088 -1.0472
 1121PF6-    P115137   2.703   1.481   3.337 -0.4238  0.0109  0.2303
 1121PF6-    F215138   2.826   1.405   3.397  0.7584 -0.5015 -0.0683
 1121PF6-    F315139   2.580   1.563   3.278  0.1156 -0.3947 -0.7774
 1121PF6-    F415140   2.806   1.584   3.271 -0.3641 -0.2069 -0.3821
 1121PF6-    F515141   2.604   1.376   3.400  0.2227  0.3116  0.2540
 1121PF6-    F615142   2.697   1.579   3.466  0.5278  0.5803  0.0002
 1121PF6-    F715143   2.720   1.389   3.205 -0.2536 -0.2842 -0.4433
 1122PF6-    P115144   3.993   2.556   1.668 -0.1426 -0.0010 -0.1504
 1122PF6-    F215145   3.952   2.398   1.648 -0.5382 -0.0439  0.0119
 1122PF6-    F315146   4.038   2.709   1.685 -0.2268  0.3746  0.3849
 1122PF6-    F415147   3.879   2.581   1.781 -0.2211  0.4394 -0.1474
 1122PF6-    F515148   4.104   2.536   1.549 -0.2281 -0.3260 -0.1763
 1122PF6-    F615149   3.884   2.593   1.559  0.5507  0.0494  0.4400
 1122PF6-    F715150   4.093   2.517   1.782 -0.4036  0.2003  0.5874
 1123PF6-    P115151   4.047   3.208   3.977  0.4173  0.0605 -0.2016
 1123PF6-    F215152   4.096   3.201   4.128  0.1946  0.1625 -0.2561
 1123PF6-    F315153   4.003   3.214   3.823  0.0156  0.2819 -0.6172
 1123PF6-    F415154   4.198   3.247   3.941  0.1460  0.2057 -0.0100
 1123PF6-    F515155   3.900   3.175   4.027 -0.7759  0.0396 -0.4436
 1123PF6-    F615156   4.017   3.367   3.999 -0.0181 -0.6859 -0.1139
 1123PF6-    F715157   4.082   3.052   3.968  0.2510  0.3949 -0.3557
 1124PF6-    P115158   3.468   2.333   4.649 -0.2164  0.1815 -0.6712
 1124PF6-    F215159   3.423   2.270   4.505  0.5028 -0.2332 -0.1219
 1124PF6-    F315160   3.502   2.392   4.799 -0.2642  0.1244  0.3099
 1124PF6-    F415161   3.331   2.290   4.708 -0.0642  0.0593  0.3728
 1124PF6-    F515162   3.611   2.383   4.590  0.0471 -0.0077  0.8564
 1124PF6-    F615163   3.407   2.472   4.599 -0.4370 -0.0093  0.5729
 1124PF6-    F715164   3.532   2.191   4.689 -0.1595  0.0569  0.2912
 1125PF6-    P115165   4.376   1.453   0.561 -0.3467 -0.3357  0.3604
 1125PF6-    F215166   4.330   1.336   0.462  0.4155  0.1853  0.1870
 1125PF6-    F315167   4.422   1.570   0.662 -0.2628  0.0139  0.5315
 1125PF6-    F415168   4.226   1.508   0.566 -0.0438 -0.2233  0.2062
 1125PF6-    F515169   4.525   1.393   0.563 -0.8360 -0.5742  0.2036
 1125PF6-    F615170   4.409   1.546   0.433  0.6637  0.7007  0.1146
 1125PF6-    F715171   4.341   1.358   0.695 -0.7641 -0.4397  0.0668
 1126PF6-    P115172   4.734   0.420   3.512 -0.0334  0.0846  0.1573
 1126PF6-    F215173   4.746   0.460   3.358 -0.1088 -0.0927  0.6256
 1126PF6-    F315174   4.716   0.383   3.667  0.1775  0.0888  0.3970
 1126PF6-    F415175   4.585   0.358   3.491  0.1672 -0.2158 -0.2180
 1126PF6-    F515176   4.880   0.481   3.531 -0.2097  0.2211  0.0434
 1126PF6-    F615177   4.667   0.563   3.537 -0.0924 -0.0463 -0.0521
 1126PF6-    F715178   4.795   0.273   3.481 -0.0829  0.4512 -0.2902
 1127Na+     N115179   4.800   0.389   5.336  0.0070  0.0184  0.2167
 1128Na+     N115180   3.996   0.745   5.233 -0.0585  0.1408 -0.1187
 1129Na+     N115181   3.619   5.331   3.135  0.7322 -0.3400 -0.0908
 1130Na+     N115182   4.627   1.172   0.429 -0.3767 -0.6683 -0.9566
 1131Na+     N115183   2.240   0.344   0.896 -0.2377 -0.5634 -0.0623
 1132Na+     N115184   1.495   4.808   4.828  0.1091  0.4457 -0.0751
 1133Na+     N115185   4.614   4.525   2.271 -0.0409 -0.0864 -0.0738
 1134Na+     N115186   0.706   2.382   4.870 -0.1875  0.0114  0.1849
 1135Na+     N115187   4.239   0.067   3.845 -0.3989  0.0744 -0.0731
 1136Na+     N115188   0.458   3.356   4.947 -0.3196 -0.7034 -0.0396
 1137Na+     N115189   4.556   3.030   3.538 -0.2065  0.1986  0.0197
 1138Na+     N115190   0.361   4.682   0.434  0.3817  0.4252 -0.0392
 1139Na+     N115191   5.389   0.728   4.836  0.2177 -0.0433  1.0150
 1140Na+     N115192   0.274   3.902   2.373  0.0969  0.3157  0.0248
 1141Na+     N115193   2.271   2.659   4.934 -0.0543 -0.2817  0.0223
 1142Na+     N115194   1.012   3.154   4.589  0.3913 -0.0067  0.3167
 1143Na+     N115195   4.589   3.763   3.216 -0.3761  0.4540 -0.1197
 1144Na+     N115196   2.581   1.780   1.065  0.1957  0.1844 -0.2324
 1145Na+     N115197   0.625   2.488   4.135 -0.0121  0.3510  0.1423
 1146Na+     N115198   2.935   3.551   5.254 -0.2630 -0.7220  0.1897
 1147Na+     N115199   3.651   5.466   4.744  0.4557  0.0264  0.2779
 1148Na+     N115200   1.403   2.835   2.682 -0.0546 -0.7441  0.5807
 1149Na+     N115201   0.151   4.309   3.469  0.0978 -0.4392 -0.0445
 1150Na+     N115202   5.390   1.618   1.460 -0.5167 -0.4500  0.0330
 1151Na+     N115203   4.852   4.439   3.421 -0.3775  0.4117 -0.2173
 1152Na+     N115204   0.440   4.322   4.853  0.1628  0.3698 -0.2680
 1153Na+     N115205   3.245   0.065   1.231  0.1202  0.0527 -0.6260
 1154Na+     N115206   1.262   4.174   3.236  0.2823 -0.0599  0.2378
 1155Na+     N115207   3.182   1.042   2.488 -0.5326 -0.3066  0.2140
 1156Na+     N115208   5.390   0.152   0.247 -0.1903 -0.1864  0.1901
 1157Na+     N115209   3.779   2.506   4.704  0.3380  0.5528  0.3239
 1158Na+     N115210   3.376   2.042   5.347  0.1179  0.2644 -0.2829
 1159Na+     N115211   0.658   0.493   4.251  0.2728 -0.0513 -0.1817
 1160Na+     N115212   0.529   1.992   1.395  0.3704 -0.1934 -0.1372
 1161Na+     N115213   1.445   0.779   1.097 -0.4868  0.1668 -0.3082
 1162Na+     N115214   3.812   1.780   0.923 -0.0786 -0.3349  0.4687
 1163Na+     N115215   5.087   0.374   3.500  0.1520  0.0875 -0.2496
 1164Na+     N115216   3.628   3.039   1.891 -0.1598  0.4922  0.5885
 1165Na+     N115217   5.288   1.347   4.005  0.4543 -0.1598 -0.3163
 1166Na+     N115218   1.378   3.280   3.606 -0.3844  0.4960 -0.9444
 1167Na+     N115219   3.060   2.114   3.340 -0.5477 -0.4056 -0.8168
 1168Na+     N115220   3.025   2.752   5.052  0.5286 -0.1782 -0.2546
 1169Na+     N115221   5.153   5.136   0.946  0.0683 -0.0692  0.3926
 1170Na+     N115222   4.007   2.341   1.391  0.5298  0.0836  0.1489
 1171Na+     N115223   4.022   2.272   2.790  0.3820  0.0430  0.2017
 1172Na+     N115224   1.270   1.228   1.717 -0.1327  0.2374 -0.0714
 1173Na+     N115225   2.948   3.780   2.759 -0.3774 -0.0204  0.2335
 1174Na+     N115226   4.768   1.576   3.787  0.0020 -0.2804  0.0337
 1175Na+     N115227   1.821   2.101   0.049  0.5555  0.2235  0.2173
 1176Na+     N115228   2.413   4.237   4.565 -0.3181  0.2134  0.4837
 1177Na+     N115229   0.697   0.012   3.545  0.0980 -0.4259  0.3528
 1178Na+     N115230   1.537   3.219   0.906  0.0229 -0.0168 -0.5457
 1179Na+     N115231   1.180   4.640   1.807  0.1747 -0.0389  0.0646
 1180Na+     N115232   2.282   2.073   2.550 -0.5661 -0.3338  0.3920
 1181Na+     N115233   5.176   2.406   0.861 -0.1974 -0.2283 -0.1934
 1182Na+     N115234   3.473   4.042   1.977 -0.5474  0.1517  0.5446
 1183Na+     N115235   2.505   4.253   0.484 -0.2340  0.0948 -0.2498
 1184Na+     N115236   2.855   5.307   2.623  0.3050  0.0354  0.1934
 1185Na+     N115237   4.059   0.513   3.288 -0.5148 -0.1363  0.2657
 1186Na+     N115238   4.259   2.240   0.321 -0.3511  0.0341  0.2506
 1187Na+     N115239   0.817   3.462   3.274 -0.1313  1.0152 -0.4184
 1188Na+     N115240   0.245   2.824   3.972  0.3561  0.2059  0.1087
 1189Na+     N115241   5.280   3.806   0.476  0.0679  0.2832  0.1484
 1190Na+     N115242   1.323   2.647   3.164  0.0273 -0.6059  0.0366
 1191Na+     N115243   1.934   1.500   3.223  0.1672 -0.1806  0.0405
 1192Na+     N115244   5.119   4.569   5.459 -0.2337  0.0487  0.0380
 1193Na+     N115245   3.084   3.044   0.377 -0.1688  0.0321  0.0116
 1194Na+     N115246   0.903   3.114   1.473 -0.0388 -0.6308  0.3849
 1195Na+     N115247   1.245   2.471   5.071  0.1019  0.6276 -0.7135
 1196Na+     N115248   3.632   3.348   2.743  0.1313  0.3115 -0.3085
 1197Na+     N115249   3.100   3.820   1.528  0.2202  0.5084 -0.2291
 1198Na+     N115250   0.993   4.695   3.422 -0.4686  0.0705  0.3303
 1199Na+     N115251   3.598   1.516   2.843  0.5254 -0.2433 -0.0902
 1200Na+     N115252   3.836   3.902   5.161 -0.0482 -0.2838 -0.2004
 1201Na+     N115253   4.872   0.341   0.661  0.0561 -0.2964 -0.2632
 1202Na+     N115254   0.047   3.510   4.091 -0.3913 -0.1127  0.2957
 1203Na+     N115255   2.146   3.786   1.837  0.3758  0.2501 -0.0821
 1204Na+     N115256   0.938   1.370   4.747 -0.2880 -0.6211 -0.1161
 1205Na+     N115257   3.841   0.685   0.398 -0.1216  0.2256  0.0834
 1206Na+     N115258   0.683   5.214   4.160  0.1082 -0.2098 -0.4010
 1207Na+     N115259   0.400   2.651   1.592  0.0629 -0.0097  0.5641
 1208Na+     N115260   3.095   1.570   2.052 -0.1856  0.2040  0.0216
 1209Na+     N115261   0.558   1.054   3.995 -0.0609  0.2639 -0.1360
 1210Na+     N115262   5.089   2.291   3.815  0.2350  0.2767  0.5213
 1211Na+     N115263   3.104   0.159   0.078 -0.2804 -0.5416 -0.1770
 1212Na+     N115264   0.902   5.187   2.587  0.2425  0.0159  0.3582
 1213Na+     N115265   4.185   3.770   4.511  0.5117  0.4774 -0.1015
 1214Na+     N115266   2.041   2.267   4.701  0.4515  0.7430  0.0600
 1215Na+     N115267   0.186   1.530   2.125 -0.0297  0.0048 -0.2089
 1216Na+     N115268   3.471   3.320   4.507  0.2600 -0.1972 -0.2431
 1217Na+     N115269   2.997   4.779   1.747 -0.3630 -0.2742 -0.1301
 1218Na+     N115270   1.955   1.211   2.317  0.0760  0.5347  0.3162
 1219Na+     N115271   4.567   5.063   4.463 -0.4192 -0.1687  0.5956
 1220Na+     N115272   3.759   3.089   0.961  0.1561  0.1201  0.4359
 1221Na+     N115273   0.047   3.437   1.214  0.1616 -0.4133  0.2057
 1222Na+     N115274   0.499   4.286   0.869 -0.3823 -0.0303 -0.1427
 1223Na+     N115275   1.870   3.615   5.093 -0.5815  0.3550 -0.4881
 1224Na+     N115276   2.455   2.654   1.250 -0.0497  0.2750 -0.5813
 1225Na+     N115277   1.852   0.261   1.872 -0.5692  0.1156  0.1078
 1226Na+     N115278   4.987   3.236   0.568 -0.1556 -0.0404 -0.1753
   5.50001   5.50001   5.50001
