DG-THF-PF6-Na    Amber RESP
15278
    1DG      C1    1   3.470   0.453   3.185  0.0394 -0.3948 -0.1927
    1DG      C2    2   3.918   0.882   3.179 -0.7034 -0.3555  0.6618
    1DG      H3    3   3.393   0.398   3.240  0.4017  0.6860  1.4845
    1DG      H4    4   3.568   0.413   3.211  0.1895  0.1477  0.0786
    1DG      H5    5   3.466   0.438   3.077  1.0535  0.1476 -0.3145
    1DG      H6    6   3.982   0.818   3.239 -0.5229  0.5526  1.4577
    1DG      H7    7   3.963   0.870   3.081  0.1911 -0.9140  1.1312
    1DG      H8    8   3.941   0.979   3.222 -3.3282 -0.3110  2.2284
    1DG      O9    9   3.477   0.597   3.215  0.1860  0.1447 -0.2157
    1DG     O10   10   3.773   0.874   3.180 -0.1722 -0.1469 -0.1797
    1DG     C11   11   3.360   0.658   3.164  0.0646 -0.3998 -0.2196
    1DG     C12   12   3.703   0.988   3.132  0.2269 -0.3892 -0.2720
    1DG     H13   13   3.272   0.625   3.220 -0.2044 -0.4754 -0.6822
    1DG     H14   14   3.354   0.631   3.059  1.9310 -0.8588 -0.2385
    1DG     H15   15   3.704   0.995   3.023  0.8016 -2.5845 -0.4569
    1DG     H16   16   3.749   1.077   3.175 -1.4242  1.2384 -1.6973
    1DG     C17   17   3.378   0.814   3.167 -0.2995 -0.7796  0.2017
    1DG     C18   18   3.556   0.969   3.182 -1.0450  0.4816 -0.0674
    1DG     O19   19   3.514   0.843   3.140  0.1624  0.1676  0.2140
    1DG     H20   20   3.358   0.853   3.267  2.2423  1.4800 -0.0401
    1DG     H21   21   3.316   0.866   3.094  0.7161  0.1317 -0.0391
    1DG     H22   22   3.555   0.970   3.291 -0.6172 -0.5625 -0.0398
    1DG     H23   23   3.493   1.050   3.145 -1.9409 -0.0126  0.3667
    2DG      C1   24   0.441   2.892   1.477  0.2529  0.6572  0.0792
    2DG      C2   25   0.908   3.142   1.944 -0.3934 -0.5570 -0.0512
    2DG      H3   26   0.470   2.825   1.397  1.7004  0.2370  0.9300
    2DG      H4   27   0.375   2.969   1.437 -0.6493 -0.0556  0.1644
    2DG      H5   28   0.378   2.839   1.548  0.7940  1.4440  1.1803
    2DG      H6   29   0.845   3.222   1.981 -0.4075 -0.3150 -0.5889
    2DG      H7   30   0.886   3.064   2.017 -0.6876  0.5044  1.0288
    2DG      H8   31   1.012   3.172   1.963 -0.6386  0.0382  0.3826
    2DG      O9   32   0.561   2.954   1.521  0.3988 -0.0426 -0.2656
    2DG     O10   33   0.889   3.120   1.799  0.3637 -0.5453 -0.5813
    2DG     C11   34   0.605   3.049   1.424 -0.3943 -0.1833  0.1556
    2DG     C12   35   0.929   3.232   1.727  0.2546 -0.0906 -0.3863
    2DG     H13   36   0.534   3.128   1.399 -2.8075 -2.1278  0.3843
    2DG     H14   37   0.614   2.994   1.331 -1.0443 -1.3470  0.7555
    2DG     H15   38   1.038   3.236   1.733  0.1712  0.2134  1.7347
    2DG     H16   39   0.893   3.325   1.772  3.4458  0.8482  0.5353
    2DG     C17   40   0.751   3.087   1.445  0.2336  0.4649 -0.1807
    2DG     C18   41   0.874   3.227   1.580 -0.1591  0.5784  0.2331
    2DG     O19   42   0.766   3.141   1.573 -0.3674  0.1603 -0.2764
    2DG     H20   43   0.769   3.163   1.369  2.4040 -0.7894 -0.9724
    2DG     H21   44   0.823   3.009   1.422 -0.6018 -0.5470  0.5400
    2DG     H22   45   0.854   3.322   1.530  2.2524  0.7172 -0.6197
    2DG     H23   46   0.958   3.185   1.524 -0.7081 -1.4838  0.8447
    3DG      C1   47   4.439   4.745   0.815  0.1870 -0.4073  0.3540
    3DG      C2   48   4.490   5.246   1.324  0.6884  0.9800  0.2078
    3DG      H3   49   4.541   4.714   0.793  0.0904  0.3196 -1.2646
    3DG      H4   50   4.424   4.834   0.753  0.4141  0.3758  1.3996
    3DG      H5   51   4.369   4.665   0.793  0.9051 -1.4088  1.5599
    3DG      H6   52   4.575   5.232   1.391  0.7681 -0.4193 -0.1594
    3DG      H7   53   4.511   5.310   1.238  0.3285 -0.4748 -0.9979
    3DG      H8   54   4.407   5.281   1.387 -2.4408 -2.4416 -1.6315
    3DG      O9   55   4.416   4.780   0.948 -0.0250 -0.2938  0.6619
    3DG     O10   56   4.433   5.128   1.274  0.2288  0.1552  0.1870
    3DG     C11   57   4.443   4.679   1.048  0.3403  0.0037 -0.3951
    3DG     C12   58   4.437   5.025   1.373  0.4686  0.4084 -0.4998
    3DG     H13   59   4.552   4.669   1.058  0.1019 -2.3055  0.6227
    3DG     H14   60   4.413   4.579   1.016  0.3527  0.2092 -1.0552
    3DG     H15   61   4.389   5.047   1.468  0.2422 -1.6284 -0.1089
    3DG     H16   62   4.537   4.996   1.405 -0.5279 -0.5426  1.9435
    3DG     C17   63   4.382   4.720   1.178  0.1041 -0.0343  0.5610
    3DG     C18   64   4.365   4.895   1.336 -0.2227  0.2330 -0.4221
    3DG     O19   65   4.411   4.853   1.206 -0.4657 -0.2970  0.1584
    3DG     H20   66   4.413   4.659   1.263 -0.9901 -0.9450  0.3454
    3DG     H21   67   4.275   4.710   1.160  0.3480 -0.7168 -0.6391
    3DG     H22   68   4.384   4.824   1.416  2.8846  0.6526 -0.6642
    3DG     H23   69   4.262   4.926   1.320  0.2216  1.5710 -0.7811
    4DG      C1   70   0.025   2.181   2.875  0.1581 -0.3911  0.1551
    4DG      C2   71   0.619   1.805   3.014  0.1860  0.5430  0.5666
    4DG      H3   72   0.027   2.256   2.796  1.9443  0.8321  1.2801
    4DG      H4   73  -0.072   2.186   2.924 -0.9482  1.8154 -2.0272
    4DG      H5   74   0.006   2.083   2.832  1.3297 -0.2254 -0.8076
    4DG      H6   75   0.633   1.802   2.906  0.5253 -0.0090  0.6212
    4DG      H7   76   0.721   1.805   3.055 -0.0038  0.8600  1.0467
    4DG      H8   77   0.569   1.712   3.040 -1.0629  1.0553  0.0650
    4DG      O9   78   0.144   2.175   2.956 -0.6121 -1.2958 -0.0864
    4DG     O10   79   0.561   1.930   3.037  0.1706  0.1037 -0.2869
    4DG     C11   80   0.223   2.300   2.941 -0.0671 -0.5091  0.0685
    4DG     C12   81   0.628   2.047   2.990 -0.5198  0.8013  0.4985
    4DG     H13   82   0.163   2.381   2.984 -0.5915 -0.9839  0.2367
    4DG     H14   83   0.239   2.315   2.835 -2.3338 -0.2890 -0.2986
    4DG     H15   84   0.630   2.051   2.881 -1.2769 -0.8823  0.3887
    4DG     H16   85   0.731   2.033   3.024 -1.0878 -0.8429  1.6706
    4DG     C17   86   0.355   2.299   3.017  0.0283  0.4301 -0.2367
    4DG     C18   87   0.558   2.173   3.044 -0.4517 -0.2557  0.1012
    4DG     O19   88   0.429   2.187   2.975 -0.0609 -0.0378 -0.0615
    4DG     H20   89   0.337   2.279   3.123 -0.5328  1.8845 -0.0399
    4DG     H21   90   0.407   2.394   3.006 -0.1667  0.5318 -0.2798
    4DG     H22   91   0.542   2.171   3.152 -1.6190 -0.3518 -0.0514
    4DG     H23   92   0.614   2.266   3.038 -1.1758  0.2465  0.9402
    5DG      C1   93   5.024   3.415   3.410  0.5545  0.3129 -0.0933
    5DG      C2   94   5.142   3.018   2.913  0.4253 -1.4266 -0.2351
    5DG      H3   95   5.023   3.337   3.486  0.1661  0.1066 -0.3024
    5DG      H4   96   4.999   3.510   3.458  1.0004  0.3882 -0.0134
    5DG      H5   97   5.126   3.439   3.384 -0.3115  1.6108 -2.6236
    5DG      H6   98   5.095   2.971   2.826 -1.1078  0.7342 -0.6662
    5DG      H7   99   5.242   3.049   2.882  0.2446  0.4966  0.9832
    5DG      H8  100   5.151   2.947   2.995  1.0325 -0.3705  0.6366
    5DG      O9  101   4.950   3.386   3.292  0.3726  0.1003 -0.3120
    5DG     O10  102   5.073   3.137   2.943 -0.0433 -0.2880 -0.7441
    5DG     C11  103   4.925   3.506   3.208 -0.4736  0.5946 -0.1976
    5DG     C12  104   5.049   3.222   2.837 -0.0221  0.5661  0.5201
    5DG     H13  105   5.010   3.573   3.208 -1.2866  1.6472 -0.3369
    5DG     H14  106   4.855   3.575   3.254  0.9510  1.4325  0.7600
    5DG     H15  107   5.002   3.166   2.756 -1.1376  2.7261 -0.4187
    5DG     H16  108   5.138   3.274   2.800  1.4653 -2.0043  0.2773
    5DG     C17  109   4.888   3.474   3.062  0.4252  0.0126 -0.0383
    5DG     C18  110   4.945   3.323   2.881  0.3175 -0.6816 -0.1883
    5DG     O19  111   4.981   3.393   3.001  0.1917  0.0672 -0.1751
    5DG     H20  112   4.880   3.559   2.994  0.5331 -0.1652 -0.2769
    5DG     H21  113   4.792   3.423   3.055 -0.8987  2.2842  0.8308
    5DG     H22  114   4.930   3.392   2.797 -0.1673  0.2532  0.6492
    5DG     H23  115   4.852   3.267   2.889  0.1729 -0.4743 -0.3727
    6DG      C1  116   3.577   1.208   2.613  0.4913 -0.8994  1.0420
    6DG      C2  117   3.321   0.906   2.145 -0.8681  0.0783 -0.0907
    6DG      H3  118   3.638   1.232   2.700  2.4590  0.9935 -0.7146
    6DG      H4  119   3.469   1.217   2.626 -0.0103 -1.5819 -1.9472
    6DG      H5  120   3.591   1.278   2.531 -1.1317 -0.4591  1.1167
    6DG      H6  121   3.225   0.866   2.110 -0.2864 -1.7111  0.2475
    6DG      H7  122   3.304   1.013   2.135 -0.3969  0.2451  0.8400
    6DG      H8  123   3.401   0.874   2.078  0.8268 -0.3046  2.0475
    6DG      O9  124   3.604   1.071   2.567  0.3860 -0.0838  0.3597
    6DG     O10  125   3.344   0.876   2.279 -0.3218  0.0582  0.1409
    6DG     C11  126   3.563   0.971   2.656 -0.5029 -0.1329 -0.3981
    6DG     C12  127   3.389   0.745   2.310 -0.1590  0.2092  0.2516
    6DG     H13  128   3.455   0.976   2.670 -0.4567  0.4117 -0.1804
    6DG     H14  129   3.612   0.981   2.753 -0.0385 -1.0807 -0.5301
    6DG     H15  130   3.471   0.720   2.243 -0.7739  2.7531 -1.6171
    6DG     H16  131   3.312   0.673   2.281  1.2551 -0.2885 -2.5313
    6DG     C17  132   3.601   0.832   2.599  0.3334 -0.3707  0.4859
    6DG     C18  133   3.435   0.737   2.456  0.2725 -0.5742 -0.2330
    6DG     O19  134   3.561   0.807   2.463  0.2005 -0.7933 -0.4561
    6DG     H20  135   3.577   0.754   2.671 -3.2450 -2.3460 -2.5152
    6DG     H21  136   3.710   0.833   2.603  0.3483 -0.4389  0.1151
    6DG     H22  137   3.366   0.786   2.525  0.7195  1.9165 -1.4402
    6DG     H23  138   3.456   0.639   2.498  1.9071 -0.2674 -0.2675
    7DG      C1  139   1.135   5.019   3.415 -0.0942  0.3165 -0.1390
    7DG      C2  140   1.847   4.923   3.403  0.3491  0.5698 -0.7658
    7DG      H3  141   1.118   5.087   3.331  1.7279  0.9218 -0.0502
    7DG      H4  142   1.068   5.019   3.501 -0.5881 -0.6654 -0.5160
    7DG      H5  143   1.118   4.920   3.373  1.7130 -0.4308  0.7649
    7DG      H6  144   1.819   4.847   3.330 -0.8245  2.0849 -1.9686
    7DG      H7  145   1.869   5.009   3.339  0.5675  0.1731 -1.2349
    7DG      H8  146   1.936   4.893   3.458 -1.0140 -1.2528  0.5730
    7DG      O9  147   1.267   5.041   3.462 -0.1612  0.3330 -0.4946
    7DG     O10  148   1.733   4.943   3.488  0.1477  0.2513 -0.2196
    7DG     C11  149   1.297   5.176   3.502 -0.1878  0.5575 -0.8043
    7DG     C12  150   1.748   5.043   3.585 -0.0983 -0.0374  0.1460
    7DG     H13  151   1.207   5.217   3.548 -0.4215  0.5510 -1.2456
    7DG     H14  152   1.331   5.237   3.418 -0.4511  2.3276  0.3196
    7DG     H15  153   1.775   5.142   3.548 -1.5252  0.2462 -0.1703
    7DG     H16  154   1.828   5.016   3.654  0.6274  0.8840 -0.3115
    7DG     C17  155   1.404   5.173   3.615 -0.2634  0.1221  0.4536
    7DG     C18  156   1.615   5.069   3.660  1.1823  0.2972 -0.3709
    7DG     O19  157   1.512   5.102   3.562 -0.7183 -0.3306  0.7459
    7DG     H20  158   1.364   5.128   3.707  0.4475 -0.3391  0.5445
    7DG     H21  159   1.435   5.273   3.644 -0.7829  1.2513 -2.5563
    7DG     H22  160   1.577   4.986   3.719  0.1798  1.7911  1.1806
    7DG     H23  161   1.615   5.144   3.739 -1.5141 -1.0659  1.0650
    8DG      C1  162   3.400   1.511   2.576  0.5998  0.2062  0.6375
    8DG      C2  163   2.891   1.978   2.441  0.1617  0.3357  0.3334
    8DG      H3  164   3.381   1.442   2.494 -1.4048 -0.7958  1.8492
    8DG      H4  165   3.326   1.469   2.645 -1.6255  0.6021 -1.3829
    8DG      H5  166   3.488   1.484   2.635  1.5823  1.5835 -0.1442
    8DG      H6  167   2.852   1.993   2.542 -1.3447 -2.9688  0.3704
    8DG      H7  168   2.890   2.073   2.388  0.4462 -0.0191 -0.3204
    8DG      H8  169   2.828   1.901   2.397  0.7043 -1.1467  2.0469
    8DG      O9  170   3.368   1.640   2.543  0.3413 -0.6018  0.9998
    8DG     O10  171   3.029   1.939   2.424 -0.1522 -0.0165 -0.1166
    8DG     C11  172   3.446   1.693   2.432 -0.0480  0.1163 -0.9449
    8DG     C12  173   3.062   1.928   2.288  0.0903  0.6770 -0.7548
    8DG     H13  174   3.447   1.627   2.345  1.3546  0.7913 -1.4927
    8DG     H14  175   3.551   1.703   2.461 -0.2973 -0.0125  0.0175
    8DG     H15  176   3.022   2.002   2.219 -3.0087 -1.1906 -1.1237
    8DG     H16  177   3.039   1.826   2.258  1.4069 -0.4942  1.8787
    8DG     C17  178   3.390   1.833   2.393 -0.6101  1.0347  0.6370
    8DG     C18  179   3.214   1.943   2.284 -0.3353  0.0107 -0.4088
    8DG     O19  180   3.255   1.831   2.364  0.3485 -0.1557 -0.3760
    8DG     H20  181   3.439   1.862   2.300 -0.7440 -0.6008  0.0193
    8DG     H21  182   3.408   1.900   2.477 -1.9114  1.5263  0.5475
    8DG     H22  183   3.251   1.926   2.182  2.0374  0.7099  0.2559
    8DG     H23  184   3.250   2.040   2.320  0.2729 -0.2205 -0.3754
    9DG      C1  185   2.311   1.866   3.899  0.3174 -0.1411  0.3636
    9DG      C2  186   2.815   1.421   4.034  0.2930  0.0594  0.3381
    9DG      H3  187   2.277   1.818   3.807 -2.0123 -0.3923  1.3027
    9DG      H4  188   2.399   1.925   3.871 -0.3035 -0.2361 -2.0865
    9DG      H5  189   2.237   1.944   3.917  1.7930  1.2242  0.7820
    9DG      H6  190   2.838   1.354   3.950  0.2935  0.9362 -0.3782
    9DG      H7  191   2.880   1.508   4.030  1.6977 -0.7840  2.7845
    9DG      H8  192   2.843   1.376   4.129  1.8056  0.9962  0.3652
    9DG      O9  193   2.350   1.785   4.009 -0.0252  0.4145 -0.6504
    9DG     O10  194   2.680   1.457   4.035  0.8818 -1.0338  1.0919
    9DG     C11  195   2.243   1.687   4.053  0.8905  0.0191 -0.0338
    9DG     C12  196   2.591   1.358   4.078  0.0926  0.5798  0.0647
    9DG     H13  197   2.187   1.637   3.974 -0.9409  0.1509  1.1230
    9DG     H14  198   2.174   1.746   4.114  0.3641  0.2848 -0.8735
    9DG     H15  199   2.638   1.290   4.149  0.3240  1.7069  1.0314
    9DG     H16  200   2.547   1.306   3.992 -1.7579  2.1287  0.0038
    9DG     C17  201   2.305   1.586   4.143  0.1570 -0.8552 -0.3470
    9DG     C18  202   2.470   1.413   4.150  0.0412 -0.2473 -0.0051
    9DG     O19  203   2.427   1.531   4.087  0.4322  0.5039 -0.6401
    9DG     H20  204   2.232   1.513   4.177  0.2465 -0.4870  0.6580
    9DG     H21  205   2.345   1.639   4.229  1.2193  0.9518 -1.8780
    9DG     H22  206   2.398   1.331   4.157  1.1523 -1.2284  0.3688
    9DG     H23  207   2.489   1.446   4.252 -3.0713  1.1280  0.2450
   10DG      C1  208   3.233   1.064   4.206  0.0727  0.4719  0.2918
   10DG      C2  209   3.870   1.195   4.198 -0.0523  0.1655 -0.4767
   10DG      H3  210   3.206   0.966   4.245 -0.7265  0.9027  0.8663
   10DG      H4  211   3.154   1.100   4.140 -0.3597 -1.7671 -0.5040
   10DG      H5  212   3.252   1.131   4.290 -0.1685  0.9235 -0.0120
   10DG      H6  213   3.926   1.273   4.147 -0.5704  0.4735 -0.5774
   10DG      H7  214   3.841   1.227   4.298 -0.0619  0.3328 -0.5320
   10DG      H8  215   3.938   1.115   4.227 -2.0121 -1.8868 -1.2645
   10DG      O9  216   3.351   1.046   4.138  0.1448  0.8224 -0.0622
   10DG     O10  217   3.765   1.139   4.129  0.5703 -0.2070  0.2862
   10DG     C11  218   3.338   0.965   4.023 -0.0009  0.0812  0.3576
   10DG     C12  219   3.802   1.087   3.998 -0.0431 -0.0902  0.0919
   10DG     H13  220   3.300   1.022   3.938  1.8944 -1.2233 -1.4854
   10DG     H14  221   3.267   0.884   4.041 -0.6696  0.9163  1.5894
   10DG     H15  222   3.890   1.024   4.005 -1.3613 -2.1664 -1.0797
   10DG     H16  223   3.820   1.166   3.925  0.4076 -0.6401 -0.3979
   10DG     C17  224   3.482   0.907   3.999 -0.3206 -0.2120 -0.4351
   10DG     C18  225   3.701   0.986   3.947 -0.1063  0.4525  0.0067
   10DG     O19  226   3.573   1.015   4.000 -0.4674 -0.0884 -0.1916
   10DG     H20  227   3.491   0.841   3.912  1.6991 -1.1901  0.4414
   10DG     H21  228   3.507   0.836   4.077 -0.4240 -0.2047 -0.3955
   10DG     H22  229   3.701   0.980   3.838 -1.1458  0.9999 -0.0409
   10DG     H23  230   3.729   0.891   3.992  2.0770  1.4502  0.8694
   11DG      C1  231   2.003   5.379   4.159  0.0431  0.4254  0.2337
   11DG      C2  232   2.659   5.530   4.171 -0.5549  0.5503  0.5651
   11DG      H3  233   2.036   5.286   4.205 -1.6464  0.1287  0.9155
   11DG      H4  234   1.996   5.372   4.050 -0.6224 -0.3251  0.3127
   11DG      H5  235   1.900   5.389   4.194 -0.2202 -1.5813  0.1207
   11DG      H6  236   2.736   5.591   4.219 -1.9556  1.7530  1.3499
   11DG      H7  237   2.689   5.431   4.207  1.2069  1.3516  1.4400
   11DG      H8  238   2.673   5.536   4.063  1.2003 -0.6793  0.6648
   11DG      O9  239   2.096   5.478   4.200 -0.0313  0.1482 -0.5489
   11DG     O10  240   2.537   5.586   4.218  0.5583  0.4407  0.5049
   11DG     C11  241   2.066   5.514   4.334  0.1944 -0.1832 -0.0145
   11DG     C12  242   2.535   5.586   4.366  0.2632 -0.5360  0.0350
   11DG     H13  243   2.063   5.424   4.395  1.6314 -0.0343  0.3221
   11DG     H14  244   1.966   5.558   4.339 -0.4028 -1.6515  2.1579
   11DG     H15  245   2.619   5.644   4.406  0.6772 -1.1076  0.0070
   11DG     H16  246   2.554   5.487   4.407  0.9674  0.0515  1.1843
   11DG     C17  247   2.171   5.613   4.391  0.0844  0.7836 -0.4412
   11DG     C18  248   2.399   5.641   4.411  0.1139 -0.3112  0.4351
   11DG     O19  249   2.297   5.551   4.375  0.2502  0.2034  0.1055
   11DG     H20  250   2.157   5.642   4.495 -1.1314  2.2445 -0.9803
   11DG     H21  251   2.151   5.703   4.333  2.2691  1.8116  0.2617
   11DG     H22  252   2.391   5.657   4.519  1.6682  3.4195  0.1771
   11DG     H23  253   2.381   5.739   4.366  1.7007  0.1458  0.7412
   12DG      C1  254   4.454   4.530   1.777  1.1747  0.1460 -0.2539
   12DG      C2  255   4.915   4.835   2.247 -0.0499 -0.3736 -0.3913
   12DG      H3  256   4.525   4.468   1.724  0.6977  0.0972 -0.8462
   12DG      H4  257   4.462   4.620   1.716  3.6764  0.8428  0.9584
   12DG      H5  258   4.349   4.502   1.774  0.7150  1.7667 -0.3390
   12DG      H6  259   4.919   4.922   2.182  1.9476 -0.4617 -0.4283
   12DG      H7  260   4.947   4.877   2.342 -1.1412 -0.5341  0.0616
   12DG      H8  261   4.993   4.766   2.217 -0.3484 -1.6659  1.6302
   12DG      O9  262   4.490   4.563   1.907  0.0066 -0.3241 -0.1037
   12DG     O10  263   4.777   4.788   2.232  0.2034  0.0928 -0.4303
   12DG     C11  264   4.502   4.449   1.990 -0.3181 -0.2794 -0.0018
   12DG     C12  265   4.746   4.684   2.319 -0.4774  1.0027  0.3322
   12DG     H13  266   4.595   4.395   1.971 -0.7579 -0.2618 -2.6361
   12DG     H14  267   4.417   4.386   1.964  0.4544 -1.6520  0.7014
   12DG     H15  268   4.751   4.720   2.421 -0.2880  1.6434  0.1020
   12DG     H16  269   4.819   4.604   2.305  0.6631  1.3479  3.5402
   12DG     C17  270   4.490   4.490   2.135  0.1736 -0.3293  0.9225
   12DG     C18  271   4.608   4.631   2.289  0.0424  0.5006  0.2559
   12DG     O19  272   4.607   4.572   2.160 -0.6811 -0.2250  0.2837
   12DG     H20  273   4.467   4.397   2.187 -1.2923 -2.0232 -2.3802
   12DG     H21  274   4.400   4.550   2.152  0.3762  0.0447  0.6972
   12DG     H22  275   4.597   4.543   2.353  2.6212  0.2686  0.4568
   12DG     H23  276   4.524   4.699   2.301 -1.4560 -1.1865 -0.1381
   13DG      C1  277   3.971   1.770   3.455 -0.6730  0.3067 -0.1099
   13DG      C2  278   4.109   1.138   3.638  0.2528  0.5080 -0.3318
   13DG      H3  279   3.924   1.865   3.431  0.5210  0.8774 -0.2600
   13DG      H4  280   4.050   1.759   3.381  0.6251  0.3695  1.2162
   13DG      H5  281   4.022   1.773   3.552  0.3520  1.5236 -0.6609
   13DG      H6  282   4.158   1.120   3.542 -2.8964 -1.8634 -1.6762
   13DG      H7  283   4.178   1.188   3.707 -3.1249  1.3246  2.7467
   13DG      H8  284   4.094   1.044   3.691  3.6353  0.4614  0.7846
   13DG      O9  285   3.900   1.647   3.433 -0.0239  0.0951 -0.1134
   13DG     O10  286   3.993   1.216   3.628 -0.6416 -0.0430 -0.2654
   13DG     C11  287   3.770   1.632   3.506  0.2264 -0.0705 -0.6557
   13DG     C12  288   3.893   1.170   3.535  0.5314  0.2275 -0.0130
   13DG     H13  289   3.694   1.689   3.453 -0.5440 -1.1972 -0.8109
   13DG     H14  290   3.758   1.671   3.606 -1.1290 -0.9238 -0.4456
   13DG     H15  291   3.857   1.074   3.570 -1.2479  0.2793 -1.5953
   13DG     H16  292   3.941   1.156   3.438 -0.0372 -0.9652 -0.1334
   13DG     C17  293   3.718   1.494   3.506  0.5038 -0.3293 -0.2864
   13DG     C18  294   3.769   1.262   3.522 -0.7379  0.3998 -0.1228
   13DG     O19  295   3.817   1.392   3.517 -0.0568 -0.0400  0.6741
   13DG     H20  296   3.666   1.469   3.413 -0.0199  0.1566 -0.1325
   13DG     H21  297   3.643   1.491   3.585 -0.1178  2.9346 -0.6226
   13DG     H22  298   3.719   1.226   3.432  0.4831 -0.4012 -0.5126
   13DG     H23  299   3.699   1.243   3.604  1.1039  1.6082  1.8426
   14DG      C1  300   4.864   3.052   4.931 -0.2130 -0.1630 -0.4631
   14DG      C2  301   4.276   2.864   4.670 -0.1399  0.1876  0.0422
   14DG      H3  302   4.840   3.151   4.893  0.3312 -0.7807 -2.5362
   14DG      H4  303   4.894   3.001   4.840 -0.9906 -2.8985  0.7137
   14DG      H5  304   4.943   3.038   5.005 -0.0477 -1.2013 -0.8208
   14DG      H6  305   4.169   2.853   4.685 -0.5889  1.3120 -1.9460
   14DG      H7  306   4.305   2.957   4.620 -0.5016  0.0722 -0.3883
   14DG      H8  307   4.320   2.784   4.610  1.2446  0.5368  0.5460
   14DG      O9  308   4.734   2.989   4.971  0.1080  0.8453  0.0952
   14DG     O10  309   4.339   2.868   4.796 -0.6807  0.0588  0.2307
   14DG     C11  310   4.687   3.043   5.095  0.1792 -0.1930  0.0026
   14DG     C12  311   4.277   2.949   4.900 -0.8378 -0.1906 -0.5978
   14DG     H13  312   4.663   3.148   5.079 -0.8731 -0.0864  1.9595
   14DG     H14  313   4.759   3.030   5.176 -0.6516 -1.7916  0.5243
   14DG     H15  314   4.180   2.904   4.920  0.6883 -2.5130  2.2491
   14DG     H16  315   4.271   3.055   4.876 -1.7165 -0.1649 -0.3216
   14DG     C17  316   4.566   2.961   5.134 -0.4841  0.3847  0.2325
   14DG     C18  317   4.350   2.936   5.037 -0.1357 -0.1631 -1.1068
   14DG     O19  318   4.484   2.968   5.022  0.1554 -0.3128  0.6998
   14DG     H20  319   4.524   3.004   5.225  0.2869 -1.8398  1.7250
   14DG     H21  320   4.589   2.857   5.154 -1.7487 -0.0346 -0.3969
   14DG     H22  321   4.303   3.003   5.109  0.8061  0.3227 -0.9179
   14DG     H23  322   4.334   2.831   5.060  0.7146  0.1129  0.9540
   15DG      C1  323   4.809   0.599   1.919  0.3981  0.3172 -0.0024
   15DG      C2  324   4.899  -0.026   2.149  0.1948 -0.1232  0.4903
   15DG      H3  325   4.913   0.605   1.951  0.1694 -0.5630  0.9733
   15DG      H4  326   4.754   0.693   1.926 -0.7633 -0.1750 -1.8089
   15DG      H5  327   4.798   0.567   1.816 -1.7682  0.2774  0.1827
   15DG      H6  328   4.866  -0.056   2.050  0.6005 -2.2093  0.9380
   15DG      H7  329   5.006  -0.006   2.144  0.0100  0.7215 -0.1837
   15DG      H8  330   4.888  -0.117   2.209  1.5422 -0.4526  0.2917
   15DG      O9  331   4.758   0.508   2.020 -0.7421 -0.2962 -0.4106
   15DG     O10  332   4.822   0.081   2.203 -0.1639 -0.4371  0.5813
   15DG     C11  333   4.620   0.495   2.003 -0.0336 -0.3216  0.2721
   15DG     C12  334   4.678   0.057   2.192 -0.3819  0.2421  0.6515
   15DG     H13  335   4.614   0.460   1.900  1.1094 -1.4976  0.5770
   15DG     H14  336   4.561   0.586   2.016  0.8994  0.0109  2.6882
   15DG     H15  337   4.624  -0.003   2.264 -0.3096  1.3586  1.6697
   15DG     H16  338   4.658   0.014   2.094 -1.6483 -2.5005  2.0233
   15DG     C17  339   4.563   0.392   2.107 -0.0266  0.9555 -0.1790
   15DG     C18  340   4.593   0.177   2.201 -0.1701 -0.1668  0.1956
   15DG     O19  341   4.646   0.274   2.111 -0.1725 -0.0056 -0.3589
   15DG     H20  342   4.460   0.368   2.084  0.4511 -0.2094 -1.2404
   15DG     H21  343   4.568   0.446   2.202 -1.6474  3.3993 -1.3682
   15DG     H22  344   4.490   0.153   2.175 -0.6197  2.3691 -0.5975
   15DG     H23  345   4.605   0.208   2.304  0.8875 -1.3207  0.4436
   16DG      C1  346   3.070   2.689   0.743 -0.4449 -0.5202 -0.4100
   16DG      C2  347   3.001   2.756   1.353  0.5975 -0.1329  0.9094
   16DG      H3  348   3.055   2.685   0.635  0.3716 -3.1477 -0.4993
   16DG      H4  349   3.040   2.591   0.780 -0.1322 -0.2685  0.5132
   16DG      H5  350   3.176   2.691   0.769 -0.7969 -1.3016  1.2023
   16DG      H6  351   3.100   2.729   1.391  0.8975  0.5537  0.6405
   16DG      H7  352   2.947   2.818   1.424 -1.4708 -0.5342 -0.2406
   16DG      H8  353   2.943   2.665   1.335  2.0489 -1.1721  1.2821
   16DG      O9  354   3.014   2.803   0.806  0.1039 -0.2682  0.0251
   16DG     O10  355   3.023   2.822   1.228  0.0161  0.7776 -0.4923
   16DG     C11  356   3.079   2.927   0.779 -0.1123  0.3358  1.2180
   16DG     C12  357   3.122   2.932   1.237  0.2636 -0.0398  0.1234
   16DG     H13  358   3.050   2.953   0.678  2.0697  1.4363  0.8156
   16DG     H14  359   3.188   2.916   0.778 -0.0104  1.2123 -0.1053
   16DG     H15  360   3.223   2.893   1.232  0.0117 -0.7328  0.4040
   16DG     H16  361   3.108   2.989   1.329 -1.5474  1.1585 -0.8339
   16DG     C17  362   3.027   3.020   0.888  0.2074  0.1040 -0.5579
   16DG     C18  363   3.110   3.037   1.120  0.1252  0.3887 -1.2936
   16DG     O19  364   3.082   2.953   1.006  0.1962 -0.2867 -0.0200
   16DG     H20  365   2.918   3.025   0.888  0.0794 -0.6197  2.3753
   16DG     H21  366   3.068   3.119   0.866  1.1845 -0.1930 -0.1329
   16DG     H22  367   3.033   3.107   1.151  1.1611  0.4175  1.4535
   16DG     H23  368   3.205   3.089   1.115  1.1044 -0.9462  1.3957
   17DG      C1  369   1.162   3.782   0.038 -0.6749 -0.1071  0.1259
   17DG      C2  370   0.474   3.680   0.177 -0.7325  0.9776  0.2993
   17DG      H3  371   1.135   3.807  -0.064  1.3522 -2.4096 -1.0734
   17DG      H4  372   1.185   3.675   0.039 -2.2542 -0.5095  2.3456
   17DG      H5  373   1.252   3.838   0.063 -0.0272 -0.6510 -0.9161
   17DG      H6  374   0.478   3.700   0.070 -0.5720 -0.1313  0.0842
   17DG      H7  375   0.464   3.572   0.188 -0.7238  0.7742 -1.5198
   17DG      H8  376   0.388   3.728   0.223 -0.2441  0.6251  1.6655
   17DG      O9  377   1.056   3.793   0.133  0.1138  0.1379  0.2050
   17DG     O10  378   0.607   3.708   0.229  0.2935 -0.9187  0.4380
   17DG     C11  379   1.097   3.759   0.262  0.8074  0.4715 -0.4014
   17DG     C12  380   0.625   3.651   0.363  0.3278 -0.1555  0.3512
   17DG     H13  381   1.174   3.825   0.302  2.3408 -0.2672 -1.9881
   17DG     H14  382   1.139   3.658   0.256 -2.5154 -1.0609  0.1624
   17DG     H15  383   0.631   3.542   0.361 -1.6158 -0.2941 -0.7863
   17DG     H16  384   0.544   3.668   0.433  0.9521 -1.1372  1.3409
   17DG     C17  385   0.978   3.776   0.363 -0.2713  0.3199 -0.1748
   17DG     C18  386   0.754   3.718   0.416 -0.0310 -0.1982 -0.2464
   17DG     O19  387   0.857   3.716   0.321 -0.5564 -0.0562 -0.0111
   17DG     H20  388   0.960   3.881   0.385 -0.3349  0.2736 -0.0031
   17DG     H21  389   1.014   3.734   0.457 -0.8460  0.5008  0.1291
   17DG     H22  390   0.738   3.821   0.448 -1.9546 -0.1815 -1.1270
   17DG     H23  391   0.783   3.660   0.504 -0.9788 -1.9687 -1.0570
   18DG      C1  392   4.569   1.068   4.958  0.2905 -0.2339 -0.1876
   18DG      C2  393   4.548   0.352   4.786 -0.3565  0.1594 -0.4961
   18DG      H3  394   4.643   1.038   5.032 -1.2632 -0.5970  1.2889
   18DG      H4  395   4.509   1.150   4.996  2.1090  0.1193  2.1868
   18DG      H5  396   4.622   1.101   4.869  0.2500  0.1354 -0.0747
   18DG      H6  397   4.601   0.291   4.860  0.3614  2.7447  1.2868
   18DG      H7  398   4.485   0.287   4.725 -0.0436  0.0397 -0.6933
   18DG      H8  399   4.626   0.396   4.724  2.2127  1.0383  3.0373
   18DG      O9  400   4.488   0.956   4.928 -0.1952 -0.0494  0.5220
   18DG     O10  401   4.488   0.458   4.861 -0.1071 -0.0317 -0.4360
   18DG     C11  402   4.429   0.904   5.043  0.2361 -0.4773  0.6388
   18DG     C12  403   4.370   0.501   4.801 -0.2829  0.3297 -0.4420
   18DG     H13  404   4.393   0.985   5.107  0.9491  1.1353 -0.9064
   18DG     H14  405   4.512   0.857   5.096  1.8624  0.5733 -0.8708
   18DG     H15  406   4.302   0.419   4.780 -1.3246  0.3521  2.4542
   18DG     H16  407   4.417   0.551   4.716  2.6925  1.0791  1.4867
   18DG     C17  408   4.326   0.803   5.014  0.2705 -0.6923  0.5448
   18DG     C18  409   4.298   0.596   4.903  0.2835 -0.5411 -0.1982
   18DG     O19  410   4.390   0.696   4.936  0.1737 -0.1709  0.1548
   18DG     H20  411   4.245   0.846   4.955  0.5580 -0.8346  0.0460
   18DG     H21  412   4.282   0.750   5.099 -2.2901 -0.5187 -0.5759
   18DG     H22  413   4.216   0.644   4.849 -1.1337 -1.1770  1.3201
   18DG     H23  414   4.274   0.539   4.993  1.4951 -0.3888  0.2411
   19DG      C1  415   5.206   0.930   1.925  0.4067 -0.2311  0.2777
   19DG      C2  416   5.208   1.367   2.411 -0.0922  0.1395 -0.0404
   19DG      H3  417   5.158   0.856   1.860  2.7374 -0.7367 -0.9876
   19DG      H4  418   5.288   0.883   1.979 -1.1513 -1.8875  1.2999
   19DG      H5  419   5.275   0.991   1.867  2.6923 -4.8564 -2.4987
   19DG      H6  420   5.284   1.307   2.460  0.3357  0.7644  0.0776
   19DG      H7  421   5.266   1.427   2.340  0.7374  2.0191  2.1042
   19DG      H8  422   5.159   1.432   2.484  0.9189 -0.6344  1.3752
   19DG      O9  423   5.122   1.014   2.001 -0.3746  0.5362  0.2318
   19DG     O10  424   5.120   1.295   2.328  0.2514 -0.4268 -0.2811
   19DG     C11  425   5.019   1.070   1.920 -0.5127 -0.3824  0.4340
   19DG     C12  426   5.014   1.377   2.273 -0.2170  0.1248 -0.0980
   19DG     H13  427   4.968   0.992   1.864  1.1905  0.3428 -2.3091
   19DG     H14  428   5.062   1.133   1.842 -2.0655 -0.5850 -0.6369
   19DG     H15  429   5.054   1.463   2.219  1.0789  1.6755  3.0959
   19DG     H16  430   4.958   1.421   2.355  0.4135  0.3805  0.2006
   19DG     C17  431   4.927   1.150   2.012  0.0674 -0.0401 -0.3870
   19DG     C18  432   4.919   1.297   2.179 -0.2206 -0.1232 -0.5896
   19DG     O19  433   5.007   1.218   2.103  0.0597  0.5608 -0.1319
   19DG     H20  434   4.853   1.083   2.056  1.6585 -2.0094 -0.5542
   19DG     H21  435   4.880   1.218   1.940  0.9483  1.1447  0.1151
   19DG     H22  436   4.859   1.236   2.247 -0.1371  0.8336  0.3665
   19DG     H23  437   4.861   1.371   2.125  0.5592  0.1873 -1.0208
   20DG      C1  438   0.162   1.172   1.757 -0.2706 -0.3100  0.3026
   20DG      C2  439   0.555   0.594   1.755 -0.3403  0.4004  0.3544
   20DG      H3  440   0.213   1.260   1.718 -1.8176 -0.0226 -1.2267
   20DG      H4  441   0.197   1.149   1.857 -0.9358 -1.4073  0.3051
   20DG      H5  442   0.054   1.187   1.766 -0.4598 -1.6243  0.4966
   20DG      H6  443   0.650   0.595   1.701  1.1987 -1.9515  2.8013
   20DG      H7  444   0.570   0.628   1.857  1.9041  1.4366 -0.2657
   20DG      H8  445   0.525   0.490   1.767 -2.1376  0.9345  0.8447
   20DG      O9  446   0.194   1.050   1.681 -0.0059  0.0340 -0.3750
   20DG     O10  447   0.449   0.661   1.694 -0.5546 -0.2170 -0.3156
   20DG     C11  448   0.210   1.053   1.540  0.2248 -0.3168 -0.3012
   20DG     C12  449   0.436   0.640   1.551 -0.8802  0.3450  0.4573
   20DG     H13  450   0.294   1.121   1.525 -0.1488  0.0922 -0.5382
   20DG     H14  451   0.117   1.101   1.511 -0.0913 -0.3310  0.6605
   20DG     H15  452   0.434   0.533   1.535 -0.4651  0.2425  1.0557
   20DG     H16  453   0.519   0.672   1.487 -0.9380 -1.0429 -0.3481
   20DG     C17  454   0.225   0.916   1.469  0.3142 -0.1857 -0.2226
   20DG     C18  455   0.306   0.709   1.508 -0.5414 -0.0643 -0.1729
   20DG     O19  456   0.314   0.844   1.552  0.4550  0.0554 -0.1008
   20DG     H20  457   0.274   0.935   1.374  0.9006 -2.3458 -0.3918
   20DG     H21  458   0.130   0.866   1.452  0.1309 -0.0595  0.4024
   20DG     H22  459   0.318   0.713   1.400  1.2156 -0.7866 -0.0319
   20DG     H23  460   0.221   0.646   1.534 -0.5416  0.5040  1.2718
   21DG      C1  461   2.253   2.642   1.472 -0.5459  0.5167  0.3198
   21DG      C2  462   2.698   2.874   1.042  0.0829 -0.4929 -0.0050
   21DG      H3  463   2.158   2.674   1.515  0.1298  2.8307  0.2219
   21DG      H4  464   2.321   2.598   1.546  0.3703  1.1873 -0.1081
   21DG      H5  465   2.227   2.577   1.389 -1.3173 -0.2741  1.1558
   21DG      H6  466   2.761   2.824   1.116  0.3715 -0.5721 -0.3024
   21DG      H7  467   2.649   2.803   0.976 -1.8595  0.6114  0.2000
   21DG      H8  468   2.758   2.942   0.982 -1.1426  1.7895  1.2332
   21DG      O9  469   2.318   2.758   1.410  0.1251 -0.0797  0.3157
   21DG     O10  470   2.602   2.949   1.112 -0.3070 -0.3663 -0.0330
   21DG     C11  471   2.322   2.871   1.485 -0.3540 -0.0901  0.1283
   21DG     C12  472   2.657   3.044   1.195 -0.7577 -0.1490  0.6718
   21DG     H13  473   2.381   2.856   1.575 -1.3900 -2.9964  0.4132
   21DG     H14  474   2.223   2.902   1.519 -1.0339 -1.5800 -0.4380
   21DG     H15  475   2.694   3.124   1.131 -3.1259  0.7376  0.2718
   21DG     H16  476   2.744   3.014   1.252  0.1541  3.1170  1.1997
   21DG     C17  477   2.368   2.994   1.406 -0.2029  0.3060  0.4323
   21DG     C18  478   2.547   3.092   1.284 -0.7163  0.2498  0.2495
   21DG     O19  479   2.491   2.965   1.345 -0.3046  0.4424  0.6442
   21DG     H20  480   2.382   3.089   1.457 -0.2484  0.3124  0.4327
   21DG     H21  481   2.297   3.023   1.328 -0.1147 -1.8972 -0.5509
   21DG     H22  482   2.599   3.155   1.357  1.7904 -1.3577 -0.0218
   21DG     H23  483   2.474   3.150   1.227 -2.3991 -0.0883  1.9925
   22DG      C1  484   1.544   5.492   3.931 -1.2556 -0.0878 -0.5643
   22DG      C2  485   1.740   5.789   3.548  0.0628 -0.3626 -0.3721
   22DG      H3  486   1.520   5.440   4.024  0.2016  0.2092 -0.0025
   22DG      H4  487   1.533   5.421   3.850 -1.7662 -0.3780 -0.2517
   22DG      H5  488   1.470   5.572   3.916  1.7896  3.3786  1.2292
   22DG      H6  489   1.704   5.741   3.638 -1.4287 -0.4183 -0.9666
   22DG      H7  490   1.649   5.809   3.491  0.5189  0.8533 -0.7044
   22DG      H8  491   1.797   5.714   3.493  0.8276 -0.8647  1.0448
   22DG      O9  492   1.671   5.559   3.935  0.0242  0.6842  0.4135
   22DG     O10  493   1.821   5.908   3.573  0.4637  0.6238 -0.7275
   22DG     C11  494   1.689   5.652   4.035  0.3289  0.2009  0.6655
   22DG     C12  495   1.782   5.980   3.687  0.0074  0.5789 -0.2965
   22DG     H13  496   1.736   5.603   4.121 -0.9599 -1.9290  0.2298
   22DG     H14  497   1.596   5.692   4.076  1.2923  0.2316  2.9645
   22DG     H15  498   1.678   6.013   3.691  0.2445  1.8622 -2.5866
   22DG     H16  499   1.826   6.079   3.677  0.9486  0.3253  1.0440
   22DG     C17  500   1.788   5.764   3.989  0.4016  0.1629  0.1211
   22DG     C18  501   1.837   5.913   3.818  0.0140 -0.0404 -0.0403
   22DG     O19  502   1.745   5.822   3.867  0.2787 -0.0470  0.2216
   22DG     H20  503   1.890   5.726   3.982  0.0843 -1.2130  2.1383
   22DG     H21  504   1.785   5.846   4.060 -0.9204 -0.1337  0.4265
   22DG     H22  505   1.936   5.877   3.792 -0.3117 -0.1929 -1.1694
   22DG     H23  506   1.839   5.992   3.893  0.5400  0.8998 -1.0218
   23DG      C1  507   5.133   2.304   2.989 -0.6177 -0.2232  0.9757
   23DG      C2  508   4.767   1.894   2.722 -0.1365  1.0935 -0.5071
   23DG      H3  509   5.066   2.244   3.050 -1.6939 -1.6729 -1.4654
   23DG      H4  510   5.160   2.397   3.038 -0.2137  1.0513 -1.4859
   23DG      H5  511   5.222   2.246   2.964 -1.9108 -1.7172 -0.4101
   23DG      H6  512   4.680   1.871   2.660  1.4176  1.8981 -3.1673
   23DG      H7  513   4.851   1.852   2.668 -0.3242 -1.1775  0.8431
   23DG      H8  514   4.766   1.841   2.817  0.2708 -0.3128 -1.2555
   23DG      O9  515   5.070   2.353   2.866 -0.0781 -0.3313  0.3151
   23DG     O10  516   4.778   2.036   2.747 -0.2190  0.2241  0.2356
   23DG     C11  517   4.978   2.456   2.892  0.5768  0.2646  0.1336
   23DG     C12  518   4.674   2.079   2.838 -0.3336 -0.0376  0.3054
   23DG     H13  519   4.956   2.509   2.799 -0.0188 -1.5613 -0.8192
   23DG     H14  520   4.997   2.528   2.971 -0.2919  2.0124 -1.1868
   23DG     H15  521   4.677   2.033   2.937 -0.8202 -0.8686 -0.0535
   23DG     H16  522   4.574   2.065   2.796 -0.2669  1.4176 -0.4101
   23DG     C17  523   4.842   2.397   2.927  0.3441 -1.0035 -0.0546
   23DG     C18  524   4.689   2.229   2.866  0.1024 -0.2148 -0.0744
   23DG     O19  525   4.825   2.277   2.854 -0.0015 -0.5473 -0.0524
   23DG     H20  526   4.760   2.465   2.903 -0.3634 -1.4264  1.0844
   23DG     H21  527   4.853   2.367   3.031 -0.8191 -2.3116 -0.2879
   23DG     H22  528   4.625   2.288   2.801 -2.2510 -2.9240 -0.4121
   23DG     H23  529   4.657   2.249   2.968 -0.2570 -0.4977 -0.1292
   24DG      C1  530   2.618   1.804   4.348  0.6625  0.1295  0.6725
   24DG      C2  531   2.844   1.619   3.740 -0.1805 -0.1699 -0.0933
   24DG      H3  532   2.715   1.800   4.397  0.7873 -0.4216  0.3973
   24DG      H4  533   2.594   1.697   4.339 -0.9683  0.3729  1.6404
   24DG      H5  534   2.554   1.861   4.415  1.5318 -0.2126  1.8355
   24DG      H6  535   2.950   1.595   3.735 -0.3481 -1.0950  0.4691
   24DG      H7  536   2.789   1.527   3.759  1.5249 -1.4682 -1.0960
   24DG      H8  537   2.809   1.650   3.642  2.4308  1.6446 -0.5464
   24DG      O9  538   2.617   1.849   4.213 -0.6819  0.0395  0.4718
   24DG     O10  539   2.804   1.706   3.849 -0.3706  0.1819 -0.3535
   24DG     C11  540   2.640   1.989   4.196 -0.2865  0.1773 -0.3265
   24DG     C12  541   2.855   1.834   3.836 -0.0839 -0.2554  0.3644
   24DG     H13  542   2.735   2.017   4.240 -1.0269  2.1713  0.1295
   24DG     H14  543   2.585   2.056   4.262  1.1789 -0.6204  1.8142
   24DG     H15  544   2.814   1.881   3.746  1.5097  1.0351  0.2595
   24DG     H16  545   2.962   1.846   3.821  0.3271 -0.9350  2.4829
   24DG     C17  546   2.620   2.031   4.056 -0.1977 -0.4333  0.9143
   24DG     C18  547   2.818   1.928   3.956 -0.1825 -0.4444 -0.4716
   24DG     O19  548   2.681   1.939   3.966  0.6123 -0.2027  0.4003
   24DG     H20  549   2.662   2.130   4.039  0.8350 -1.1926 -1.4580
   24DG     H21  550   2.513   2.040   4.036  0.1059  0.2413 -0.5949
   24DG     H22  551   2.868   1.899   4.049  0.8720 -0.7005 -1.0970
   24DG     H23  552   2.852   2.030   3.936 -0.7268 -0.4020 -1.2032
   25DG      C1  553   4.218   2.645   2.199 -0.2976  0.4839  0.3455
   25DG      C2  554   4.656   3.123   2.344 -0.3030 -0.3724  0.0260
   25DG      H3  555   4.167   2.563   2.249  0.7001 -1.6483 -1.9265
   25DG      H4  556   4.323   2.628   2.224  0.2092  1.2887 -1.1475
   25DG      H5  557   4.209   2.639   2.091  1.6833 -1.8708  0.2189
   25DG      H6  558   4.708   3.034   2.379  3.1405  1.4836  0.1202
   25DG      H7  559   4.696   3.142   2.244  1.2651 -1.1389  0.4791
   25DG      H8  560   4.686   3.202   2.412 -0.4868  0.2872 -0.6452
   25DG      O9  561   4.182   2.772   2.255 -0.2821 -0.5737 -0.1245
   25DG     O10  562   4.514   3.111   2.346  0.8816  0.3484 -0.0710
   25DG     C11  563   4.139   2.765   2.388 -0.3926 -0.0579  0.4520
   25DG     C12  564   4.453   3.128   2.476 -0.2352  0.4938  0.0721
   25DG     H13  565   4.200   2.702   2.452  1.6364  1.8219  0.4842
   25DG     H14  566   4.038   2.726   2.398 -0.7201  0.6600  0.0405
   25DG     H15  567   4.470   3.233   2.498  0.2136  0.2457  0.9576
   25DG     H16  568   4.500   3.070   2.556  0.9086  2.7422  1.1299
   25DG     C17  569   4.147   2.903   2.455  0.3607 -0.5021  0.2220
   25DG     C18  570   4.307   3.091   2.466 -0.4033  0.1704  0.1629
   25DG     O19  571   4.285   2.951   2.445  0.7141  0.2214  0.3362
   25DG     H20  572   4.124   2.900   2.562  0.9960  0.9890  0.4290
   25DG     H21  573   4.078   2.971   2.407 -0.7628 -1.2855  0.6710
   25DG     H22  574   4.245   3.124   2.550 -1.3202  0.5004 -0.6196
   25DG     H23  575   4.273   3.142   2.376 -1.7556 -1.0188 -0.0327
   26DG      C1  576   0.903   2.839   2.456  0.4720 -0.1711  0.7132
   26DG      C2  577   1.194   3.437   2.666 -0.0079 -0.0433  0.2756
   26DG      H3  578   0.811   2.818   2.511 -0.4254 -2.0472 -1.3800
   26DG      H4  579   0.933   2.745   2.409 -2.0314 -1.0784  0.7995
   26DG      H5  580   0.883   2.912   2.379  1.3649 -1.9755 -1.3369
   26DG      H6  581   1.288   3.474   2.707 -2.0695  2.6555  3.0393
   26DG      H7  582   1.192   3.456   2.559  1.2163  0.6873  0.3626
   26DG      H8  583   1.112   3.491   2.714 -1.7960 -0.7875 -1.7832
   26DG      O9  584   1.009   2.889   2.533 -0.3466  0.6968 -0.2338
   26DG     O10  585   1.161   3.297   2.679 -0.4236 -0.4961  0.4774
   26DG     C11  586   1.041   2.815   2.651 -0.1352  0.0713 -0.7490
   26DG     C12  587   1.171   3.249   2.810  0.2068 -0.0764 -0.0790
   26DG     H13  588   1.077   2.716   2.626 -0.9044 -0.6505  0.8812
   26DG     H14  589   0.958   2.807   2.721 -0.0126  1.7755 -0.3645
   26DG     H15  590   1.074   3.269   2.854  0.7630  1.3442  0.5441
   26DG     H16  591   1.252   3.303   2.859  0.3200 -1.5493  1.4537
   26DG     C17  592   1.160   2.886   2.720 -0.2158  0.0592 -0.3488
   26DG     C18  593   1.204   3.098   2.812  0.7140 -0.1373 -0.1450
   26DG     O19  594   1.120   3.021   2.731  0.5053 -0.4179  0.2941
   26DG     H20  595   1.258   2.876   2.675  0.5085 -1.0130  1.3617
   26DG     H21  596   1.168   2.842   2.819 -0.5983 -0.0264 -0.3557
   26DG     H22  597   1.309   3.079   2.790  0.5270 -0.7095 -0.5628
   26DG     H23  598   1.221   3.059   2.912 -0.6503  1.1235  0.6122
   27DG      C1  599   1.992   1.476   1.243  0.3639  0.1736 -0.7410
   27DG      C2  600   2.361   1.623   1.794 -0.2313  0.9187 -0.2129
   27DG      H3  601   2.065   1.464   1.162 -0.0241  0.4473 -1.1304
   27DG      H4  602   1.897   1.494   1.195 -1.6837 -2.8997  1.7276
   27DG      H5  603   1.969   1.384   1.296  0.2615  0.4951 -0.2196
   27DG      H6  604   2.343   1.519   1.823  0.0507  1.1925  1.0060
   27DG      H7  605   2.459   1.620   1.748  0.4793 -1.5533  1.2914
   27DG      H8  606   2.371   1.691   1.879  3.4482 -1.8807  1.8961
   27DG      O9  607   2.035   1.581   1.338  0.1334  0.2900  0.3035
   27DG     O10  608   2.261   1.678   1.706  1.1005  0.2555  0.3044
   27DG     C11  609   2.046   1.712   1.276 -1.1274  0.6000 -0.0319
   27DG     C12  610   2.278   1.814   1.676  0.0954  0.0006  0.2131
   27DG     H13  611   1.967   1.726   1.203  1.5942 -0.8142 -3.5717
   27DG     H14  612   2.133   1.702   1.211 -0.7037  1.1315  0.4306
   27DG     H15  613   2.377   1.834   1.635  0.1393  1.8697  1.1376
   27DG     H16  614   2.276   1.871   1.768 -1.6807 -0.2624  0.3616
   27DG     C17  615   2.068   1.823   1.379  0.4011 -0.5854 -0.4403
   27DG     C18  616   2.180   1.876   1.577 -0.1743  0.2410  0.0604
   27DG     O19  617   2.156   1.781   1.474  0.4678  0.2479  0.0922
   27DG     H20  618   1.971   1.842   1.426  0.7861  1.6352 -0.4639
   27DG     H21  619   2.106   1.917   1.340  1.0512  0.4414  2.4141
   27DG     H22  620   2.085   1.894   1.628  0.8976  1.5948  1.6811
   27DG     H23  621   2.210   1.974   1.540  2.4013 -0.6745 -0.5062
   28DG      C1  622   4.398   4.876   4.025 -0.0748  0.3970 -0.4122
   28DG      C2  623   4.641   4.535   3.518  0.2519 -0.0401 -0.0268
   28DG      H3  624   4.483   4.838   4.082  1.3217  0.3585 -2.3946
   28DG      H4  625   4.324   4.797   4.014  0.5209 -0.4145  1.1089
   28DG      H5  626   4.348   4.964   4.064  0.3452  0.1996  0.5809
   28DG      H6  627   4.737   4.486   3.534 -0.4841 -1.0037  1.7685
   28DG      H7  628   4.565   4.464   3.554 -0.1069  0.5346  0.3730
   28DG      H8  629   4.637   4.540   3.410 -1.2332 -2.7998 -0.1961
   28DG      O9  630   4.453   4.908   3.901 -0.0402 -0.1441  0.4199
   28DG     O10  631   4.637   4.656   3.596  0.2601  0.3193 -0.9574
   28DG     C11  632   4.563   4.995   3.903  0.1438 -0.3378  0.0751
   28DG     C12  633   4.744   4.744   3.570  0.3473  0.5796 -0.7589
   28DG     H13  634   4.644   4.946   3.957  0.8958  0.4195 -0.3558
   28DG     H14  635   4.551   5.092   3.950 -1.5927  0.1278 -1.2135
   28DG     H15  636   4.745   4.771   3.465  0.8959 -1.0878 -1.2242
   28DG     H16  637   4.841   4.697   3.591 -0.6171 -0.7796  0.9439
   28DG     C17  638   4.586   5.032   3.753 -0.6281  0.9396 -0.6672
   28DG     C18  639   4.732   4.859   3.672 -0.2293  0.2324  0.1954
   28DG     O19  640   4.598   4.906   3.680 -0.5101 -0.2914 -0.6654
   28DG     H20  641   4.667   5.103   3.742  0.3847 -0.1304 -0.3025
   28DG     H21  642   4.495   5.071   3.708  0.8015  1.8993 -2.9030
   28DG     H22  643   4.764   4.821   3.769 -0.1000 -0.1868 -0.0064
   28DG     H23  644   4.800   4.942   3.649 -0.7977  1.1072  1.5599
   29DG      C1  645   1.343   3.780   0.833  0.4434  0.0141  0.1392
   29DG      C2  646   1.838   3.401   0.603  0.5187  0.0704 -0.1800
   29DG      H3  647   1.425   3.822   0.891 -1.3849  2.3746  1.1998
   29DG      H4  648   1.298   3.710   0.904 -0.6618 -1.7279 -2.1438
   29DG      H5  649   1.263   3.853   0.824  0.4199  0.4644  2.9439
   29DG      H6  650   1.823   3.476   0.680 -0.7520  0.4990 -0.8021
   29DG      H7  651   1.878   3.306   0.638  0.2561 -0.6208 -1.6536
   29DG      H8  652   1.906   3.439   0.527  1.1646 -0.4723  0.1180
   29DG      O9  653   1.372   3.723   0.705 -0.2371 -0.6472  0.9577
   29DG     O10  654   1.712   3.373   0.544  0.3307  0.0391  0.3314
   29DG     C11  655   1.264   3.651   0.650 -0.3461  0.2932 -0.0077
   29DG     C12  656   1.661   3.472   0.454  0.2278  0.5533 -0.8921
   29DG     H13  657   1.183   3.723   0.639 -0.5701 -0.0390 -0.5464
   29DG     H14  658   1.241   3.580   0.730  0.4313  1.1895  1.0368
   29DG     H15  659   1.716   3.464   0.361  0.3202 -0.5303 -0.7575
   29DG     H16  660   1.689   3.573   0.486  2.2016 -0.1387 -0.2955
   29DG     C17  661   1.315   3.579   0.523  0.1121 -1.0065  0.1214
   29DG     C18  662   1.506   3.464   0.420 -0.3273 -0.1057  0.1565
   29DG     O19  663   1.444   3.521   0.535 -0.6561  0.5182  0.1936
   29DG     H20  664   1.314   3.647   0.438  1.5580  0.1595  0.9605
   29DG     H21  665   1.240   3.503   0.506  0.7322 -1.6000 -0.0132
   29DG     H22  666   1.482   3.517   0.327  1.0508  1.1023  0.4528
   29DG     H23  667   1.474   3.361   0.403 -0.6179 -0.2916  1.7188
   30DG      C1  668   5.434   0.688   3.143  0.3787 -0.1878  0.1583
   30DG      C2  669   5.903   0.636   2.764 -0.3570 -0.0629  0.1648
   30DG      H3  670   5.509   0.732   3.077  0.5980 -0.4686  0.2184
   30DG      H4  671   5.407   0.764   3.217 -1.0893 -1.4183  0.9549
   30DG      H5  672   5.342   0.671   3.087  0.9969 -3.0725 -0.1301
   30DG      H6  673   5.841   0.710   2.714 -0.4616  0.0232  0.4204
   30DG      H7  674   5.998   0.686   2.783 -0.8482  1.0115 -0.1265
   30DG      H8  675   5.931   0.547   2.707  4.5170  1.4522 -0.3115
   30DG      O9  676   5.472   0.556   3.191 -1.1568 -0.5400  0.0138
   30DG     O10  677   5.843   0.605   2.892  0.0794  0.2273 -0.2179
   30DG     C11  678   5.554   0.557   3.305 -0.1469 -0.2431  0.1752
   30DG     C12  679   5.907   0.504   2.973  0.4047 -0.3548  0.1144
   30DG     H13  680   5.546   0.461   3.355 -2.0843 -0.3112 -0.1939
   30DG     H14  681   5.528   0.633   3.379 -0.6177  0.4048 -0.6368
   30DG     H15  682   6.015   0.519   2.966  0.0727  1.9953 -1.1527
   30DG     H16  683   5.884   0.400   2.950 -2.6807  0.0124  1.1340
   30DG     C17  684   5.698   0.577   3.262 -0.5762 -0.2469  0.2068
   30DG     C18  685   5.877   0.523   3.121 -0.4139 -0.1973  0.4013
   30DG     O19  686   5.738   0.524   3.140  0.5927  0.1516  0.4063
   30DG     H20  687   5.759   0.548   3.347 -0.8138 -2.0516 -0.1892
   30DG     H21  688   5.712   0.685   3.251 -3.6134  0.2733  0.7002
   30DG     H22  689   5.919   0.437   3.173  0.3381 -0.3945 -0.5100
   30DG     H23  690   5.926   0.614   3.158  0.5652  0.1247 -1.5700
   31DG      C1  691   0.833   0.826   1.549  0.4392 -0.0049 -0.5184
   31DG      C2  692   0.400   0.859   2.120  0.3498 -0.0977 -0.1610
   31DG      H3  693   0.820   0.724   1.512  0.4560  0.0208 -0.5956
   31DG      H4  694   0.921   0.821   1.613 -1.5017 -0.4960  2.2419
   31DG      H5  695   0.861   0.893   1.467  0.2097  1.1614  0.3285
   31DG      H6  696   0.314   0.802   2.082  0.1333  0.6380 -0.7984
   31DG      H7  697   0.476   0.784   2.140  0.9716  0.4406 -0.4990
   31DG      H8  698   0.368   0.913   2.209  0.2964 -0.9368  0.3444
   31DG      O9  699   0.724   0.880   1.617 -0.0183  0.2428  0.2421
   31DG     O10  700   0.427   0.937   2.008 -0.4592  0.4573 -0.0312
   31DG     C11  701   0.724   1.025   1.625  0.4804  0.9127  0.5972
   31DG     C12  702   0.544   1.015   2.032  0.3091  0.1066 -0.1314
   31DG     H13  703   0.744   1.061   1.524  3.8663  0.9125  1.1455
   31DG     H14  704   0.805   1.049   1.694  1.0142 -0.6736  0.5566
   31DG     H15  705   0.635   0.957   2.049  1.4659  1.5830 -0.9419
   31DG     H16  706   0.510   1.084   2.109  1.2927 -1.4335  1.7436
   31DG     C17  707   0.587   1.078   1.679 -0.6788  0.3193  0.1967
   31DG     C18  708   0.578   1.088   1.907  0.7325 -0.2256  0.2395
   31DG     O19  709   0.568   0.998   1.795 -0.5669 -0.1408 -0.5544
   31DG     H20  710   0.507   1.044   1.613 -0.2516 -1.1502  0.3970
   31DG     H21  711   0.584   1.187   1.681  0.1495  0.3440  0.3991
   31DG     H22  712   0.511   1.172   1.890  0.4259 -0.2382  1.3196
   31DG     H23  713   0.678   1.127   1.925  0.2406  1.1893  0.0344
   32DG      C1  714   1.074   0.765   4.820  0.2538 -0.0291  0.3986
   32DG      C2  715   0.943   0.607   5.445  0.4989  0.4847 -0.9824
   32DG      H3  716   1.177   0.779   4.851  1.8719 -1.7873 -3.4764
   32DG      H4  717   1.055   0.855   4.761  0.1757 -0.8038 -0.8029
   32DG      H5  718   1.071   0.688   4.743 -0.2659  1.7040 -1.4251
   32DG      H6  719   1.023   0.563   5.386 -1.2338 -0.1005 -3.0418
   32DG      H7  720   0.981   0.684   5.512  0.3176 -0.3850  0.1414
   32DG      H8  721   0.917   0.527   5.514 -2.1030  1.2808 -0.9211
   32DG      O9  722   0.975   0.750   4.915 -0.2822 -0.3405 -0.7246
   32DG     O10  723   0.839   0.656   5.360 -0.5652  0.1989 -0.2701
   32DG     C11  724   0.845   0.728   4.859 -0.3917 -0.0831  0.4782
   32DG     C12  725   0.770   0.552   5.288 -0.6525  0.0541 -0.3323
   32DG     H13  726   0.843   0.645   4.788  0.6713  0.6264 -0.4129
   32DG     H14  727   0.817   0.811   4.794 -1.5814 -1.9122 -1.4719
   32DG     H15  728   0.695   0.505   5.352 -1.7656  0.0399 -1.5984
   32DG     H16  729   0.834   0.467   5.262 -0.1653  1.1763 -3.2046
   32DG     C17  730   0.734   0.712   4.962 -0.6451  0.4332  0.7256
   32DG     C18  731   0.699   0.606   5.165 -0.6438  0.1028 -0.5649
   32DG     O19  732   0.792   0.648   5.075 -0.7857  0.7703  0.0600
   32DG     H20  733   0.653   0.654   4.918  0.2901  0.3331 -0.9061
   32DG     H21  734   0.694   0.811   4.988 -0.0531  0.6298  0.8934
   32DG     H22  735   0.637   0.533   5.112  0.4573 -0.5526 -0.9894
   32DG     H23  736   0.647   0.695   5.201 -0.6977 -1.0089  2.3901
   33DG      C1  737   1.893   3.546   2.495  0.2308 -0.3542 -0.0078
   33DG      C2  738   2.424   3.593   2.148  0.0088 -0.3415 -0.1736
   33DG      H3  739   1.864   3.441   2.500 -0.7872 -0.0679  0.3419
   33DG      H4  740   1.798   3.599   2.499 -0.8738 -2.2977  0.5073
   33DG      H5  741   1.949   3.576   2.584 -2.1728  0.7467  1.2161
   33DG      H6  742   2.422   3.492   2.189 -0.6348  0.5701  2.2209
   33DG      H7  743   2.480   3.592   2.055 -0.9575  0.7051 -0.7969
   33DG      H8  744   2.458   3.652   2.233  1.9835 -3.3263  1.2785
   33DG      O9  745   1.959   3.577   2.367 -0.2488  0.0020  0.2628
   33DG     O10  746   2.289   3.629   2.125  0.1543  0.3616  0.1478
   33DG     C11  747   1.866   3.550   2.262  0.4082  0.3116 -1.2032
   33DG     C12  748   2.229   3.552   2.014  0.2215  0.1125 -0.4930
   33DG     H13  749   1.786   3.623   2.250  0.4597  0.7010  0.5013
   33DG     H14  750   1.809   3.461   2.288 -0.0588  0.7522 -0.6704
   33DG     H15  751   2.223   3.453   2.060  3.1275 -0.1720 -0.4928
   33DG     H16  752   2.304   3.541   1.935  0.2500  0.1151 -0.4666
   33DG     C17  753   1.937   3.520   2.131 -0.1205  0.1592 -0.8921
   33DG     C18  754   2.092   3.619   1.977  0.6058 -0.5551 -0.0009
   33DG     O19  755   2.001   3.638   2.083 -0.2019  0.1298  0.1008
   33DG     H20  756   1.860   3.474   2.068 -1.0553 -0.6466  0.7670
   33DG     H21  757   2.009   3.440   2.142  1.6861  1.8597  0.3251
   33DG     H22  758   2.106   3.717   1.932 -1.4323 -0.1754  0.0935
   33DG     H23  759   2.039   3.565   1.899  1.7729  1.3727 -2.2227
   34DG      C1  760   5.383   3.955   4.032 -0.2332 -0.3620 -0.5886
   34DG      C2  761   4.972   4.162   3.502 -0.2664  0.2841  0.6006
   34DG      H3  762   5.316   3.869   4.030  1.1500 -1.5012 -0.1817
   34DG      H4  763   5.347   4.027   4.106  3.3322 -0.6759  1.7215
   34DG      H5  764   5.484   3.928   4.065 -0.3971  0.1220  0.3288
   34DG      H6  765   4.885   4.204   3.552  1.4143  3.3447  1.1857
   34DG      H7  766   4.977   4.222   3.411 -2.1884 -0.3919  0.0004
   34DG      H8  767   4.954   4.057   3.479  0.0202  0.5159 -0.7512
   34DG      O9  768   5.397   4.007   3.897 -0.2508  0.1177 -0.0479
   34DG     O10  769   5.096   4.180   3.576  0.0122 -0.0784  0.6925
   34DG     C11  770   5.481   4.122   3.889  0.2137 -0.2560 -0.0131
   34DG     C12  771   5.205   4.153   3.498 -0.8959 -0.2630  0.6293
   34DG     H13  772   5.586   4.101   3.912  0.0835 -0.3864  0.4807
   34DG     H14  773   5.447   4.199   3.959 -0.1681  0.1919 -0.6843
   34DG     H15  774   5.199   4.221   3.413 -0.8742  1.3649  1.8688
   34DG     H16  775   5.208   4.049   3.466 -1.7034 -0.1082  0.0186
   34DG     C17  776   5.477   4.181   3.750 -0.6381 -0.3911  0.4164
   34DG     C18  777   5.338   4.204   3.561 -0.0149 -0.2224  0.2578
   34DG     O19  778   5.347   4.160   3.694  0.4151 -0.4129  0.2110
   34DG     H20  779   5.554   4.138   3.686  0.0033  1.6241 -0.2408
   34DG     H21  780   5.501   4.287   3.751  1.9483 -0.9016 -0.0191
   34DG     H22  781   5.420   4.161   3.504  0.5282 -0.0021  0.8707
   34DG     H23  782   5.334   4.312   3.549 -0.6581 -0.3993 -1.4453
   35DG      C1  783   2.851   1.800   1.961  0.4691 -0.2474  0.7386
   35DG      C2  784   3.352   1.884   1.577  0.1378 -0.4535  0.2236
   35DG      H3  785   2.830   1.890   1.903 -0.0750 -1.3689 -0.8784
   35DG      H4  786   2.823   1.827   2.063  0.5999  2.7934  0.0669
   35DG      H5  787   2.792   1.716   1.925 -0.0171  0.8258 -1.1271
   35DG      H6  788   3.458   1.886   1.551  0.1079 -0.7200  0.0795
   35DG      H7  789   3.310   1.820   1.500  0.4801 -1.4276  0.8170
   35DG      H8  790   3.319   1.986   1.559 -0.2805 -0.6014  0.1587
   35DG      O9  791   2.990   1.772   1.954  0.2811 -0.1168  0.1775
   35DG     O10  792   3.326   1.838   1.712 -0.1137 -0.1020  0.4488
   35DG     C11  793   3.014   1.643   1.994  0.0780  0.1982 -0.4844
   35DG     C12  794   3.396   1.716   1.738  0.3756 -0.1073 -0.4466
   35DG     H13  795   2.968   1.587   1.913  1.0614  3.8136 -3.8622
   35DG     H14  796   2.967   1.612   2.088 -0.2676 -1.3212 -1.1235
   35DG     H15  797   3.505   1.719   1.743  0.4162  1.6545 -1.4821
   35DG     H16  798   3.375   1.638   1.665  0.7105  0.6837 -1.4166
   35DG     C17  799   3.162   1.611   2.007  0.1006  0.5855  0.9404
   35DG     C18  800   3.352   1.665   1.884  0.0776  0.4383 -0.2391
   35DG     O19  801   3.208   1.672   1.888  0.3590  0.1181 -0.0291
   35DG     H20  802   3.185   1.505   2.011 -0.6380  0.4256  1.1231
   35DG     H21  803   3.207   1.670   2.086 -1.2382  1.0933  1.3653
   35DG     H22  804   3.375   1.559   1.892 -0.9073  0.2491  0.1848
   35DG     H23  805   3.405   1.718   1.963 -1.9002  1.6615  0.3385
   36DG      C1  806   3.048   1.962   0.503  0.3480 -0.0872 -0.2212
   36DG      C2  807   3.627   1.997   0.896  0.2213  0.2568 -0.8081
   36DG      H3  808   3.079   2.042   0.435  0.7486 -0.5319 -0.5712
   36DG      H4  809   3.008   1.997   0.598 -0.3242 -2.2803  0.3489
   36DG      H5  810   2.968   1.908   0.454  1.8111 -2.2118 -0.3803
   36DG      H6  811   3.672   2.078   0.837  0.7683  1.0596  0.6649
   36DG      H7  812   3.556   2.049   0.961  1.0577  0.6518 -0.1867
   36DG      H8  813   3.705   1.946   0.952  1.3998  1.5079 -1.2500
   36DG      O9  814   3.162   1.892   0.541  0.1084  0.0837  0.3915
   36DG     O10  815   3.560   1.906   0.821 -0.1725  0.4387  0.2050
   36DG     C11  816   3.119   1.770   0.603 -0.7729 -0.7024 -0.0070
   36DG     C12  817   3.494   1.799   0.888 -0.1778 -0.5964  0.3019
   36DG     H13  818   3.055   1.718   0.532 -1.3234 -0.0184 -0.0216
   36DG     H14  819   3.064   1.792   0.694 -0.9286  1.4065 -0.5627
   36DG     H15  820   3.423   1.826   0.966 -0.1267  1.4279 -0.2844
   36DG     H16  821   3.575   1.752   0.944  0.1570  0.4739  0.7404
   36DG     C17  822   3.248   1.695   0.632  0.3852 -0.6362 -0.0027
   36DG     C18  823   3.427   1.711   0.782  0.3929  0.0845 -0.1443
   36DG     O19  824   3.319   1.780   0.721 -0.0926 -0.1620  0.5176
   36DG     H20  825   3.311   1.683   0.544  1.0894 -0.5692  0.4790
   36DG     H21  826   3.219   1.603   0.683 -0.2924 -0.9923 -1.0203
   36DG     H22  827   3.496   1.692   0.700  0.2232  2.1717 -0.8459
   36DG     H23  828   3.397   1.619   0.830 -2.1864  0.2993 -1.1800
   37DG      C1  829   0.653   1.808   0.288  0.0975 -0.8042 -0.2826
   37DG      C2  830   0.571   1.389  -0.292  0.2212 -0.1496  0.5840
   37DG      H3  831   0.606   1.887   0.229  0.9259 -1.0350 -1.2891
   37DG      H4  832   0.759   1.816   0.261 -0.1518  0.4203 -0.9761
   37DG      H5  833   0.636   1.828   0.393 -1.0479  1.9243 -0.9050
   37DG      H6  834   0.534   1.422  -0.390  2.8313 -0.1675 -0.4902
   37DG      H7  835   0.680   1.395  -0.297  0.3723 -2.7718 -2.3851
   37DG      H8  836   0.532   1.290  -0.272 -0.0437 -0.6497 -2.0305
   37DG      O9  837   0.594   1.681   0.263  0.4250 -0.2208  0.7350
   37DG     O10  838   0.521   1.496  -0.202  0.8512  0.6062 -0.1521
   37DG     C11  839   0.454   1.683   0.268 -0.2293 -0.2264  0.7204
   37DG     C12  840   0.399   1.459  -0.143  1.1224  0.0617 -1.0054
   37DG     H13  841   0.411   1.755   0.338  0.5644 -0.4289  1.4310
   37DG     H14  842   0.420   1.582   0.291 -1.7592  0.2069  0.4675
   37DG     H15  843   0.399   1.370  -0.080 -1.1722 -0.5360 -1.7263
   37DG     H16  844   0.320   1.436  -0.216 -0.8716  1.4575  0.5947
   37DG     C17  845   0.396   1.709   0.133  0.2884 -0.3929 -0.6037
   37DG     C18  846   0.345   1.584  -0.065 -0.1031  0.1498  0.6460
   37DG     O19  847   0.432   1.601   0.048 -0.3026 -0.5259  0.0488
   37DG     H20  848   0.423   1.805   0.089 -1.0549 -0.0234 -0.6843
   37DG     H21  849   0.287   1.699   0.139  0.1475  0.4060 -1.5816
   37DG     H22  850   0.352   1.660  -0.143  0.6638 -2.1128 -1.6367
   37DG     H23  851   0.243   1.559  -0.039 -0.6805  0.5989 -1.0810
   38DG      C1  852   1.911   3.713   1.476 -0.2407  0.3794  0.4082
   38DG      C2  853   2.440   3.476   1.176 -0.4036  0.3730 -0.2075
   38DG      H3  854   1.824   3.704   1.541 -0.9595 -1.1862 -0.7225
   38DG      H4  855   1.879   3.698   1.373 -2.0460 -1.1874  1.1440
   38DG      H5  856   1.952   3.814   1.485 -0.1441  0.2819  1.0937
   38DG      H6  857   2.375   3.462   1.090  0.2410  1.1406 -0.8259
   38DG      H7  858   2.471   3.580   1.179 -0.8528  0.5006  0.2077
   38DG      H8  859   2.535   3.426   1.158 -0.8549 -0.2782 -0.8445
   38DG      O9  860   2.003   3.605   1.498 -0.7027  0.1443  0.1636
   38DG     O10  861   2.380   3.432   1.299  0.4088 -0.0077 -0.5092
   38DG     C11  862   2.088   3.642   1.610 -0.0714  0.4325  0.7532
   38DG     C12  863   2.465   3.449   1.409 -0.5756  0.2858  0.0450
   38DG     H13  864   2.032   3.641   1.704 -1.0033 -1.2920  0.2238
   38DG     H14  865   2.125   3.743   1.591  0.4385 -0.2638 -2.5266
   38DG     H15  866   2.509   3.548   1.406 -0.5414  0.2542 -0.5210
   38DG     H16  867   2.545   3.375   1.412 -0.5826  0.2852  0.2790
   38DG     C17  868   2.195   3.541   1.629  0.0646  0.2771 -0.6151
   38DG     C18  869   2.389   3.444   1.542 -0.5298  0.1612 -0.8115
   38DG     O19  870   2.278   3.530   1.519  0.9052  0.8124  0.4294
   38DG     H20  871   2.161   3.445   1.669  2.3710 -0.6907 -0.8429
   38DG     H21  872   2.256   3.573   1.713  0.8644 -2.8650  0.1599
   38DG     H22  873   2.363   3.350   1.592  0.9142  1.3692  2.5495
   38DG     H23  874   2.445   3.488   1.625 -1.5573 -3.6059  2.1537
   39DG      C1  875   3.976   4.242   4.097 -0.0704  0.1994  0.4680
   39DG      C2  876   4.467   4.625   4.454 -0.5047 -0.7036 -0.0028
   39DG      H3  877   3.917   4.178   4.163 -0.7718 -0.7397 -1.0361
   39DG      H4  878   4.054   4.175   4.063 -1.6240 -1.6010  0.2887
   39DG      H5  879   3.912   4.271   4.014  2.0687  2.3942 -0.5210
   39DG      H6  880   4.514   4.723   4.465 -0.3922 -0.5947 -1.3315
   39DG      H7  881   4.449   4.613   4.561  0.3687  0.5077  0.3106
   39DG      H8  882   4.532   4.549   4.411 -2.7360 -1.5924 -2.0237
   39DG      O9  883   4.024   4.363   4.151  0.1803 -0.2555 -0.8261
   39DG     O10  884   4.349   4.624   4.378 -0.4740  0.3874 -0.5209
   39DG     C11  885   3.924   4.449   4.202 -0.4101 -0.2440 -0.5392
   39DG     C12  886   4.257   4.713   4.439 -0.1153 -0.7541  0.7563
   39DG     H13  887   3.899   4.423   4.305 -1.9887 -2.1384 -1.3370
   39DG     H14  888   3.832   4.455   4.145 -1.1152  0.1928  0.6220
   39DG     H15  889   4.290   4.813   4.466 -2.1420  0.0394  0.4875
   39DG     H16  890   4.207   4.682   4.532 -0.4597  0.4616  0.9899
   39DG     C17  891   3.999   4.583   4.208 -0.1331 -0.4150 -0.5232
   39DG     C18  892   4.138   4.725   4.334 -0.0848  0.5403 -0.7388
   39DG     O19  893   4.099   4.593   4.305  0.3173 -0.1900  0.7463
   39DG     H20  894   3.921   4.657   4.227  0.4251  0.4472 -1.4936
   39DG     H21  895   4.042   4.596   4.108  2.2256 -1.5326  0.2586
   39DG     H22  896   4.068   4.800   4.371  2.6375  3.1402 -0.4863
   39DG     H23  897   4.181   4.777   4.249  2.4775 -0.3007 -0.0523
   40DG      C1  898   2.645   0.830   0.054  0.3170  0.3625 -0.4070
   40DG      C2  899   2.745   1.179  -0.493  0.0302  0.1935  0.4942
   40DG      H3  900   2.580   0.749   0.022  0.6998  0.3294 -1.1185
   40DG      H4  901   2.639   0.848   0.162 -1.1019  1.3614 -0.6259
   40DG      H5  902   2.747   0.791   0.054  0.2528  0.0235  1.7152
   40DG      H6  903   2.666   1.150  -0.562  0.4434  0.7471 -0.2290
   40DG      H7  904   2.793   1.269  -0.532 -0.8959 -1.2561 -4.8718
   40DG      H8  905   2.814   1.095  -0.491 -0.2603 -0.1327 -1.2798
   40DG      O9  906   2.616   0.961  -0.006 -0.0700  0.2669 -0.3132
   40DG     O10  907   2.690   1.201  -0.365  0.1852  0.3437 -0.7748
   40DG     C11  908   2.503   1.021   0.047  0.6027 -0.2305  0.3803
   40DG     C12  909   2.585   1.292  -0.341  0.1552  0.2148 -0.0706
   40DG     H13  910   2.516   1.033   0.155  1.9780  0.1356  0.1945
   40DG     H14  911   2.408   0.972   0.027  0.7838 -0.4704  0.0995
   40DG     H15  912   2.500   1.257  -0.400  0.0175  0.6478 -0.1384
   40DG     H16  913   2.622   1.390  -0.372  2.1897  0.0274  1.5774
   40DG     C17  914   2.494   1.163  -0.008 -0.4619  0.4341 -0.8666
   40DG     C18  915   2.537   1.298  -0.194  0.0453  0.5809 -0.1718
   40DG     O19  916   2.519   1.164  -0.151  0.4666  0.1029 -0.5677
   40DG     H20  917   2.571   1.228   0.034  0.2272 -0.1712 -1.1777
   40DG     H21  918   2.397   1.210   0.010  0.7866  2.4024  1.3499
   40DG     H22  919   2.620   1.348  -0.143  2.6410 -1.9408 -1.5798
   40DG     H23  920   2.452   1.366  -0.188 -1.9552 -1.7251 -0.8152
   41DG      C1  921   2.526   4.731   4.170 -0.2620 -0.3025  0.3168
   41DG      C2  922   2.451   4.083   3.959 -0.5402  0.0645 -0.6701
   41DG      H3  923   2.420   4.711   4.186 -0.1854  0.2329  1.6013
   41DG      H4  924   2.531   4.829   4.121 -1.1994  0.8151  2.3266
   41DG      H5  925   2.571   4.738   4.268 -1.6366  0.0783  0.9472
   41DG      H6  926   2.347   4.108   3.942 -0.8430 -1.1952 -0.7732
   41DG      H7  927   2.465   3.998   3.892 -0.1928 -0.6467  0.2819
   41DG      H8  928   2.472   4.044   4.058  1.6127 -1.0634 -1.4834
   41DG      O9  929   2.577   4.634   4.079  0.7776  0.0772 -0.0391
   41DG     O10  930   2.508   4.206   3.922  0.0142 -0.2422  0.1786
   41DG     C11  931   2.717   4.640   4.044  0.0641 -0.6632 -0.3835
   41DG     C12  932   2.653   4.196   3.929  0.1360 -0.1887  0.0534
   41DG     H13  933   2.775   4.617   4.133 -0.4672  0.2071  0.2096
   41DG     H14  934   2.750   4.740   4.017 -0.4744  0.0201  1.3292
   41DG     H15  935   2.687   4.116   3.862 -1.9340 -0.5728 -0.5952
   41DG     H16  936   2.689   4.164   4.027  0.5545 -3.2209 -0.9861
   41DG     C17  937   2.740   4.537   3.937  0.6047 -0.0619  0.2648
   41DG     C18  938   2.711   4.318   3.873 -0.4480 -0.2451  0.1000
   41DG     O19  939   2.679   4.412   3.971  0.1174 -0.1849 -0.3628
   41DG     H20  940   2.848   4.532   3.926  0.5370 -1.7441  0.1599
   41DG     H21  941   2.703   4.561   3.838  1.5141  0.6635  0.0841
   41DG     H22  942   2.819   4.313   3.856 -0.4150  0.3192  0.1377
   41DG     H23  943   2.659   4.334   3.779  2.2476 -0.5516 -1.5581
   42DG      C1  944   4.831   0.561   3.708 -0.1679 -0.3807 -0.1438
   42DG      C2  945   4.116   0.685   3.767  0.4316 -0.1846  0.8247
   42DG      H3  946   4.803   0.538   3.811 -0.7246 -0.3725 -0.2907
   42DG      H4  947   4.894   0.650   3.706 -2.4224  1.2794 -0.8851
   42DG      H5  948   4.899   0.484   3.672 -0.8975 -1.4507  0.6674
   42DG      H6  949   4.081   0.781   3.806  2.5686  0.9602  0.0768
   42DG      H7  950   4.048   0.633   3.699  0.3180  1.3532 -0.2792
   42DG      H8  951   4.133   0.624   3.856  1.2772 -0.9436  0.1654
   42DG      O9  952   4.705   0.575   3.654  0.6317 -0.5239  0.0245
   42DG     O10  953   4.247   0.700   3.715  0.1845 -0.1459  0.0483
   42DG     C11  954   4.702   0.642   3.524 -0.8270  0.2461  0.3585
   42DG     C12  955   4.238   0.765   3.589 -0.1292 -0.0822  0.7063
   42DG     H13  956   4.655   0.570   3.456 -2.7388 -0.3937  2.2390
   42DG     H14  957   4.800   0.681   3.499 -0.1665  0.3786  2.8589
   42DG     H15  958   4.169   0.849   3.586 -0.0501 -0.0474 -0.8019
   42DG     H16  959   4.197   0.691   3.521 -0.9162  0.8231  0.1803
   42DG     C17  960   4.596   0.758   3.517 -1.0085  0.6933  0.3592
   42DG     C18  961   4.379   0.817   3.542  0.2952 -0.8549  0.1707
   42DG     O19  962   4.469   0.707   3.526  0.0570 -0.5156  0.6257
   42DG     H20  963   4.616   0.807   3.422  1.3066  0.4806  0.6828
   42DG     H21  964   4.619   0.835   3.591  0.4539  2.3511 -1.6812
   42DG     H22  965   4.358   0.870   3.449  1.1710 -0.9750 -0.1054
   42DG     H23  966   4.413   0.893   3.612  0.6644 -2.0180  1.2949
   43DG      C1  967   1.067   3.600   1.838 -0.0927 -0.5699 -0.1308
   43DG      C2  968   0.898   4.070   2.223 -0.4042 -0.5384  0.2106
   43DG      H3  969   1.085   3.635   1.736  0.8081 -0.3323  0.0940
   43DG      H4  970   0.961   3.589   1.859  0.5480 -2.4634  2.6427
   43DG      H5  971   1.115   3.502   1.842 -0.7038 -0.8451  0.5449
   43DG      H6  972   0.927   4.119   2.317 -0.8372 -0.5058  0.3296
   43DG      H7  973   0.877   4.150   2.151  2.6003  0.7507  0.6214
   43DG      H8  974   0.810   4.008   2.237  0.1832 -1.2186  0.9815
   43DG      O9  975   1.124   3.686   1.933 -0.0268  0.4807  0.0700
   43DG     O10  976   1.001   3.986   2.180 -0.0315 -0.7157 -0.5248
   43DG     C11  977   1.262   3.714   1.903  0.3614  0.2136  0.1465
   43DG     C12  978   1.125   4.061   2.163  0.3814 -0.4217  0.0386
   43DG     H13  979   1.276   3.787   1.823  0.7308  2.4016  2.1208
   43DG     H14  980   1.319   3.622   1.885  0.5618  0.0459  1.5686
   43DG     H15  981   1.185   4.066   2.254 -1.2101  0.2197  1.1022
   43DG     H16  982   1.105   4.164   2.133  2.3502 -0.7629 -2.8461
   43DG     C17  983   1.320   3.782   2.032  0.0094 -0.1551  0.4214
   43DG     C18  984   1.205   3.988   2.051 -0.3128 -1.0057 -0.5847
   43DG     O19  985   1.237   3.870   2.105 -0.0642 -0.1007 -0.1018
   43DG     H20  986   1.413   3.837   2.021 -0.2105 -0.0807 -1.2301
   43DG     H21  987   1.338   3.697   2.097 -0.8756  0.0638  0.9739
   43DG     H22  988   1.136   3.975   1.968 -0.5614 -1.1659 -0.3576
   43DG     H23  989   1.285   4.056   2.022 -0.8258  0.7554  1.7780
   44DG      C1  990   5.017   2.313   2.465 -0.2424 -0.0975 -0.2036
   44DG      C2  991   4.998   1.927   3.041  0.0310 -0.3944 -0.2173
   44DG      H3  992   5.000   2.395   2.535 -0.5656  0.1674 -0.5891
   44DG      H4  993   4.922   2.283   2.420 -0.3099  0.8303 -0.7074
   44DG      H5  994   5.080   2.348   2.384  1.1784 -0.6607  0.6118
   44DG      H6  995   4.998   1.823   3.074 -0.6613 -1.3763 -3.0100
   44DG      H7  996   5.055   1.989   3.110 -0.6022 -0.6931  0.5927
   44DG      H8  997   4.896   1.966   3.035  0.7187  1.3874 -0.9038
   44DG      O9  998   5.077   2.208   2.532 -0.2234  0.0152  0.1429
   44DG     O10  999   5.069   1.950   2.922  0.0562  0.3066 -0.2279
   44DG     C11 1000   5.206   2.231   2.571  0.4057 -0.3446  0.4386
   44DG     C12 1001   5.199   1.907   2.922 -0.0028 -0.1246  0.4212
   44DG     H13 1002   5.217   2.308   2.647 -2.3768 -1.5585  2.1819
   44DG     H14 1003   5.252   2.275   2.482 -1.2037  1.4042  0.4098
   44DG     H15 1004   5.205   1.805   2.959  0.2100  0.0846  0.9657
   44DG     H16 1005   5.259   1.975   2.982 -1.2250 -0.8463  2.5849
   44DG     C17 1006   5.274   2.099   2.609 -1.0779  0.0908  0.2316
   44DG     C18 1007   5.254   1.922   2.788  0.0872  0.0851  0.2356
   44DG     O19 1008   5.226   2.056   2.737 -0.2226 -0.8721  0.0608
   44DG     H20 1009   5.379   2.129   2.611 -1.1430  0.4029 -0.7672
   44DG     H21 1010   5.279   2.025   2.529  2.9303  0.3266  0.0360
   44DG     H22 1011   5.363   1.925   2.782  0.0856 -1.1731 -0.8432
   44DG     H23 1012   5.235   1.836   2.725  1.2478 -0.3478  0.4375
   45DG      C1 1013   1.744   1.975   1.106  0.4376 -0.0435  0.5400
   45DG      C2 1014   1.630   2.330   0.553 -0.2958 -0.9999  0.2734
   45DG      H3 1015   1.773   2.003   1.208  0.1661 -0.9584  0.8778
   45DG      H4 1016   1.828   1.944   1.044 -2.4919 -1.9176 -2.8766
   45DG      H5 1017   1.676   1.890   1.109 -1.2510  1.2408  0.1351
   45DG      H6 1018   1.592   2.242   0.500  2.2296 -0.7542 -2.1677
   45DG      H7 1019   1.600   2.413   0.490 -0.3403 -0.9018  0.4235
   45DG      H8 1020   1.739   2.327   0.546 -0.3464 -1.2272 -0.5314
   45DG      O9 1021   1.665   2.068   1.036 -0.1257 -0.2389 -0.4676
   45DG     O10 1022   1.597   2.350   0.693 -0.4303  0.4224  0.3396
   45DG     C11 1023   1.533   2.079   1.079 -0.2030  0.5190 -0.1515
   45DG     C12 1024   1.458   2.330   0.714 -0.6794  0.4161  0.0316
   45DG     H13 1025   1.531   2.066   1.187  2.2586  0.9597  0.0202
   45DG     H14 1026   1.473   2.005   1.026 -0.5367  0.2801  0.5512
   45DG     H15 1027   1.421   2.234   0.680  1.3320 -0.6135  0.5919
   45DG     H16 1028   1.397   2.405   0.663 -2.5827 -0.0726  1.5005
   45DG     C17 1029   1.483   2.222   1.054 -0.3797 -0.1728  0.1233
   45DG     C18 1030   1.425   2.342   0.860 -0.2421 -0.1461 -0.1103
   45DG     O19 1031   1.505   2.239   0.911 -1.0904 -0.2890  0.0926
   45DG     H20 1032   1.546   2.294   1.107 -1.5027 -0.4520  1.9372
   45DG     H21 1033   1.380   2.234   1.087 -1.5288 -3.6453 -1.7715
   45DG     H22 1034   1.462   2.432   0.910  0.7980 -1.0238  0.7628
   45DG     H23 1035   1.320   2.319   0.880 -0.4148 -1.3435 -2.1502
   46DG      C1 1036   3.335   4.815   3.609  0.5398 -0.1525 -0.2471
   46DG      C2 1037   3.893   4.482   3.812 -0.0031 -0.0736  0.9291
   46DG      H3 1038   3.338   4.919   3.644  1.4709 -1.2388  3.2817
   46DG      H4 1039   3.313   4.760   3.700  0.7715  0.0790 -0.0508
   46DG      H5 1040   3.264   4.787   3.531 -0.4093 -1.5576  1.0607
   46DG      H6 1041   3.994   4.520   3.832  0.3836 -0.1773 -0.7015
   46DG      H7 1042   3.828   4.476   3.899 -0.9580  3.2738  0.6034
   46DG      H8 1043   3.906   4.383   3.768 -2.6331 -0.0335 -0.0973
   46DG      O9 1044   3.464   4.773   3.580  0.2075  0.1182 -0.1290
   46DG     O10 1045   3.844   4.586   3.726 -0.7635 -0.0598 -0.3925
   46DG     C11 1046   3.517   4.828   3.463 -0.1559 -0.0158  0.3289
   46DG     C12 1047   3.905   4.580   3.600 -0.0032 -0.2641  0.3434
   46DG     H13 1048   3.485   4.931   3.451  1.2659  0.2577 -1.6862
   46DG     H14 1049   3.497   4.777   3.368  2.6630  1.3640 -1.1368
   46DG     H15 1050   3.871   4.492   3.545  0.9061 -0.6683  0.4000
   46DG     H16 1051   4.014   4.572   3.605  0.1230  0.9792 -0.0955
   46DG     C17 1052   3.676   4.840   3.478  0.2629  0.0839  0.1271
   46DG     C18 1053   3.860   4.695   3.518 -0.0060  0.3054  0.4159
   46DG     O19 1054   3.717   4.711   3.528  0.0571 -0.0449 -0.1710
   46DG     H20 1055   3.709   4.914   3.550  0.0575 -0.2761  0.5984
   46DG     H21 1056   3.719   4.861   3.380  1.0164 -1.3954  0.1049
   46DG     H22 1057   3.913   4.783   3.556  0.7790  0.0638 -0.0995
   46DG     H23 1058   3.900   4.671   3.420 -1.5895  1.0652 -0.4457
   47DG      C1 1059   5.212   2.659   3.643  0.0743  0.6526 -0.1069
   47DG      C2 1060   4.713   2.737   4.135 -0.5581 -0.1456 -0.0951
   47DG      H3 1061   5.178   2.755   3.605  0.3608  1.0668  0.6591
   47DG      H4 1062   5.249   2.601   3.558  0.9818  1.1492 -0.0608
   47DG      H5 1063   5.299   2.672   3.708  0.2355  1.0068 -0.3917
   47DG      H6 1064   4.746   2.683   4.224  0.1398  0.1303 -0.1878
   47DG      H7 1065   4.723   2.842   4.161  3.3895 -0.2588 -0.6680
   47DG      H8 1066   4.609   2.711   4.115 -0.5813  0.3208 -0.5892
   47DG      O9 1067   5.105   2.577   3.696  0.1570  0.2929  0.0277
   47DG     O10 1068   4.791   2.712   4.015  0.0794  0.7486 -0.1516
   47DG     C11 1069   5.001   2.545   3.605 -0.1974  0.1608  0.4986
   47DG     C12 1070   4.745   2.803   3.916 -0.3000 -0.5342 -0.4746
   47DG     H13 1071   4.945   2.452   3.617 -2.5790  1.5329  0.8138
   47DG     H14 1072   5.044   2.543   3.505 -0.6310  0.7617  0.2934
   47DG     H15 1073   4.727   2.904   3.954  1.1004 -0.9728  1.5554
   47DG     H16 1074   4.650   2.773   3.873 -2.1026  1.4216  1.8431
   47DG     C17 1075   4.899   2.652   3.625  0.3514  0.2081  0.6509
   47DG     C18 1076   4.854   2.791   3.810 -0.1594  0.3271 -0.3814
   47DG     O19 1077   4.860   2.654   3.756  0.0817  0.1883  0.4031
   47DG     H20 1078   4.809   2.649   3.563  1.7526  1.4586 -1.5829
   47DG     H21 1079   4.957   2.742   3.605  0.8521 -0.1889  0.3024
   47DG     H22 1080   4.840   2.873   3.740  1.7812 -0.3097 -1.6244
   47DG     H23 1081   4.951   2.813   3.854 -0.0982 -1.1034  0.2545
   48DG      C1 1082   0.563   3.412   1.653 -0.3077 -0.2106 -0.1692
   48DG      C2 1083   0.649   2.779   1.865  0.4555  0.6075  0.9217
   48DG      H3 1084   0.576   3.390   1.547 -0.4890  2.2746 -0.7517
   48DG      H4 1085   0.663   3.410   1.698 -0.8197  0.3667  1.0517
   48DG      H5 1086   0.523   3.512   1.671  0.8103 -0.1379  2.5438
   48DG      H6 1087   0.749   2.801   1.900  0.6416 -1.4346  1.8370
   48DG      H7 1088   0.628   2.677   1.899  0.5958  0.1946 -0.2035
   48DG      H8 1089   0.661   2.767   1.758  3.1763  0.7875  1.1402
   48DG      O9 1090   0.494   3.302   1.717 -0.6960 -0.3194  0.3040
   48DG     O10 1091   0.558   2.880   1.891  0.2116 -0.5702  0.6037
   48DG     C11 1092   0.365   3.267   1.668  0.8441  0.6686 -0.6577
   48DG     C12 1093   0.425   2.836   1.866  0.1234 -0.2964  0.9200
   48DG     H13 1094   0.381   3.221   1.570  0.6348  1.4401 -1.0621
   48DG     H14 1095   0.307   3.356   1.645  0.5625  0.1322 -2.1854
   48DG     H15 1096   0.397   2.751   1.928 -1.5538 -0.7059 -0.3259
   48DG     H16 1097   0.416   2.801   1.763 -0.8270  0.9954  0.5322
   48DG     C17 1098   0.292   3.168   1.763 -0.3371 -0.0678  0.4278
   48DG     C18 1099   0.327   2.955   1.871  0.1684  0.3358 -0.1376
   48DG     O19 1100   0.369   3.046   1.773 -0.2559 -0.1680 -0.3801
   48DG     H20 1101   0.185   3.162   1.743 -0.5558  0.6329  1.2994
   48DG     H21 1102   0.299   3.215   1.862 -0.9002 -0.6624  0.7586
   48DG     H22 1103   0.227   2.915   1.850  0.4891 -1.4249  1.3985
   48DG     H23 1104   0.328   2.996   1.972 -2.9371 -1.3537  0.7189
   49DG      C1 1105   0.902   2.066   1.732 -0.3780 -0.4903  0.5406
   49DG      C2 1106   0.395   2.061   2.155  0.3630 -0.6247  0.1385
   49DG      H3 1107   1.003   2.028   1.721 -0.7117 -0.8551 -1.7364
   49DG      H4 1108   0.910   2.167   1.774 -0.6268 -1.4884  3.1854
   49DG      H5 1109   0.860   2.074   1.632 -0.2167  0.1921  0.5236
   49DG      H6 1110   0.376   2.131   2.074 -1.3238 -1.4726 -0.2419
   49DG      H7 1111   0.302   2.035   2.207 -0.4426 -0.4020 -1.1483
   49DG      H8 1112   0.456   2.113   2.229 -0.1476  1.3706 -0.7641
   49DG      O9 1113   0.821   1.984   1.812  0.5584 -0.7521 -0.2083
   49DG     O10 1114   0.464   1.953   2.095  0.0360 -0.1476 -0.1472
   49DG     C11 1115   0.792   1.853   1.758  0.0709 -0.3139  0.3139
   49DG     C12 1116   0.390   1.874   2.003  0.1347  0.1350 -0.1064
   49DG     H13 1117   0.884   1.803   1.728  0.7332  0.3711  1.1382
   49DG     H14 1118   0.743   1.864   1.662 -1.4073 -1.3322  0.9200
   49DG     H15 1119   0.338   1.938   1.931 -0.6792 -0.6827 -0.2658
   49DG     H16 1120   0.321   1.809   2.056  1.3850 -0.8184  0.3861
   49DG     C17 1121   0.701   1.780   1.849 -0.1747  0.0291  0.6285
   49DG     C18 1122   0.489   1.778   1.939  0.5664 -0.0372 -0.3253
   49DG     O19 1123   0.588   1.857   1.890 -0.5546 -0.2601 -0.0244
   49DG     H20 1124   0.748   1.752   1.943 -1.4420  2.3633  2.0540
   49DG     H21 1125   0.669   1.690   1.796 -0.7031 -0.0181  1.0112
   49DG     H22 1126   0.533   1.718   2.019  1.4272  0.7363 -0.1971
   49DG     H23 1127   0.443   1.711   1.867  0.9760 -1.2943  0.5386
   50DG      C1 1128   2.198   4.648   1.284  0.0351  0.5070  0.0479
   50DG      C2 1129   2.126   4.297   0.653  0.4173  0.0052 -1.1030
   50DG      H3 1130   2.132   4.718   1.233  2.9002  1.4309 -2.7896
   50DG      H4 1131   2.291   4.698   1.254 -1.0689  1.9610 -1.0903
   50DG      H5 1132   2.197   4.647   1.393 -0.6441 -2.5692  0.0982
   50DG      H6 1133   2.151   4.201   0.607 -0.6302 -1.6401  1.4897
   50DG      H7 1134   2.028   4.315   0.609  0.1396 -0.7765 -0.8395
   50DG      H8 1135   2.197   4.372   0.619 -1.5586  2.1027 -0.8720
   50DG      O9 1136   2.187   4.523   1.222 -0.4880 -0.3625  0.3749
   50DG     O10 1137   2.140   4.288   0.805  0.2768 -0.5337  0.2072
   50DG     C11 1138   2.067   4.471   1.258  0.8167  0.7330 -0.0869
   50DG     C12 1139   2.059   4.191   0.858  0.4145  0.0424  0.2459
   50DG     H13 1140   1.996   4.527   1.197  2.5282  1.8467 -1.1506
   50DG     H14 1141   2.041   4.488   1.363 -1.8267 -1.3345 -0.2963
   50DG     H15 1142   2.077   4.090   0.819  1.1740  0.5343 -0.7300
   50DG     H16 1143   1.951   4.202   0.848  0.4536  2.9821  1.8736
   50DG     C17 1144   2.042   4.325   1.202 -0.2483 -0.0362 -0.0081
   50DG     C18 1145   2.082   4.188   1.009  0.0641 -0.5447 -1.0648
   50DG     O19 1146   2.067   4.320   1.063  0.0575 -0.4696  0.3065
   50DG     H20 1147   1.937   4.306   1.225  0.1571 -0.0634  1.9723
   50DG     H21 1148   2.109   4.258   1.256 -1.7534  1.0163  3.4234
   50DG     H22 1149   2.002   4.129   1.053  0.8582 -0.0454  1.2020
   50DG     H23 1150   2.172   4.131   1.031 -0.9069 -1.8551 -0.3753
   51DG      C1 1151   3.900   4.831   2.279 -0.0614 -0.9583  0.5224
   51DG      C2 1152   4.256   4.539   2.455  0.1031 -0.4438 -0.7175
   51DG      H3 1153   3.921   4.874   2.181 -1.4723 -0.8578  0.2380
   51DG      H4 1154   3.805   4.877   2.307  0.3845  0.7164 -0.5446
   51DG      H5 1155   3.886   4.725   2.262 -1.1794 -0.5687 -1.2905
   51DG      H6 1156   4.338   4.549   2.384 -0.3071  1.3526 -0.9755
   51DG      H7 1157   4.293   4.474   2.534 -0.7868  1.5629  1.4680
   51DG      H8 1158   4.170   4.495   2.404  0.0818  0.4884 -1.5200
   51DG      O9 1159   4.012   4.862   2.360 -0.6499  0.6858  0.3673
   51DG     O10 1160   4.219   4.656   2.517  0.1777  0.7905  0.0001
   51DG     C11 1161   4.042   4.992   2.382  0.0981  0.0742 -0.0080
   51DG     C12 1162   4.329   4.730   2.574  0.0837 -0.5035  0.8709
   51DG     H13 1163   3.972   5.034   2.454 -0.1861 -0.5664  0.0956
   51DG     H14 1164   4.057   5.058   2.297 -1.3681 -1.2671 -1.3751
   51DG     H15 1165   4.390   4.767   2.492 -1.6476  0.7621  0.0878
   51DG     H16 1166   4.388   4.667   2.641  2.5194 -1.4756 -1.9690
   51DG     C17 1167   4.171   4.994   2.462  0.7036 -0.6293  0.8444
   51DG     C18 1168   4.272   4.850   2.642  0.3065 -0.0013  0.5431
   51DG     O19 1169   4.154   4.903   2.578 -0.0137  0.1325 -0.5845
   51DG     H20 1170   4.198   5.097   2.485  0.2077 -0.7664  2.1739
   51DG     H21 1171   4.245   4.959   2.390  0.0213 -0.7758  0.1992
   51DG     H22 1172   4.227   4.817   2.735 -1.1910 -1.3955 -0.6150
   51DG     H23 1173   4.343   4.929   2.667  1.9837 -0.5640 -2.0408
   52DG      C1 1174   4.167   0.344   0.038  0.2672  0.2021 -0.1594
   52DG      C2 1175   4.670   0.344   0.532 -0.2346 -0.5061 -0.3329
   52DG      H3 1176   4.167   0.388  -0.062 -1.7865 -1.0198 -0.7646
   52DG      H4 1177   4.130   0.415   0.112  0.5402 -0.8978  1.0744
   52DG      H5 1178   4.097   0.261   0.047  1.5957 -0.7490  2.2278
   52DG      H6 1179   4.756   0.365   0.469 -0.7392  1.4762 -0.4152
   52DG      H7 1180   4.625   0.442   0.547  1.0493  0.3044 -1.5817
   52DG      H8 1181   4.691   0.306   0.632  2.1674 -0.6803 -0.8532
   52DG      O9 1182   4.298   0.325   0.073  0.9812 -0.2781 -0.2053
   52DG     O10 1183   4.587   0.251   0.464  0.3387 -0.1340 -0.0296
   52DG     C11 1184   4.334   0.185   0.066 -0.5991 -0.7617  0.4739
   52DG     C12 1185   4.451   0.247   0.504  0.2609 -0.1739  0.1763
   52DG     H13 1186   4.440   0.188   0.042 -0.4858  1.7610  1.0064
   52DG     H14 1187   4.287   0.138  -0.020 -0.8820  0.9043 -0.3235
   52DG     H15 1188   4.409   0.344   0.477 -0.2287 -0.4655 -0.1329
   52DG     H16 1189   4.452   0.228   0.612 -1.5619 -1.1450  0.0642
   52DG     C17 1190   4.313   0.109   0.196  0.4618 -0.2606  0.3955
   52DG     C18 1191   4.384   0.138   0.422  0.2133  0.1800 -0.4190
   52DG     O19 1192   4.403   0.174   0.287  0.6349 -0.1591  0.4315
   52DG     H20 1193   4.336   0.002   0.190 -3.0423 -1.0651 -1.4052
   52DG     H21 1194   4.207   0.105   0.222  0.8964  0.1192  2.3356
   52DG     H22 1195   4.427   0.040   0.446 -1.0477 -0.1080  0.7205
   52DG     H23 1196   4.281   0.135   0.455 -0.6184 -1.1985 -2.8994
   53DG      C1 1197   3.941   3.336   1.766 -0.2154 -0.2029  0.1353
   53DG      C2 1198   4.272   3.603   1.075  0.8857  0.3280  0.5409
   53DG      H3 1199   3.843   3.375   1.739 -0.0086 -0.4794 -1.0464
   53DG      H4 1200   3.959   3.376   1.866  1.7880 -0.3064 -0.1394
   53DG      H5 1201   3.916   3.231   1.776 -0.8669  0.0065  0.8158
   53DG      H6 1202   4.197   3.583   0.998  1.9120 -0.7169 -0.2393
   53DG      H7 1203   4.313   3.702   1.058  0.0997  0.3453 -1.5418
   53DG      H8 1204   4.349   3.530   1.050 -0.4928 -1.0522  0.1322
   53DG      O9 1205   4.049   3.359   1.672 -0.4848 -0.1353 -0.4490
   53DG     O10 1206   4.229   3.582   1.211  0.2981  0.4389  0.1740
   53DG     C11 1207   4.097   3.495   1.676  0.0802 -0.4113  0.2309
   53DG     C12 1208   4.141   3.474   1.233 -0.1388 -0.5885 -0.3253
   53DG     H13 1209   4.127   3.526   1.776  0.8358  0.2275 -0.1746
   53DG     H14 1210   4.013   3.555   1.641  0.0071 -0.2328  0.7006
   53DG     H15 1211   4.180   3.376   1.209 -0.2372 -1.4758  2.7354
   53DG     H16 1212   4.047   3.490   1.180 -0.2244 -0.5517 -0.1649
   53DG     C17 1213   4.218   3.516   1.582 -0.4114  0.6484 -0.2081
   53DG     C18 1214   4.107   3.465   1.387  0.0402  0.2946  0.7553
   53DG     O19 1215   4.215   3.438   1.464  0.4257 -0.4591 -0.1287
   53DG     H20 1216   4.312   3.476   1.622 -0.4630 -0.2118 -0.9129
   53DG     H21 1217   4.217   3.624   1.566 -2.6179  1.3760  3.5891
   53DG     H22 1218   4.061   3.559   1.417 -1.8481 -0.1067 -0.6438
   53DG     H23 1219   4.032   3.387   1.401  0.5704 -0.4095 -0.2021
   54DG      C1 1220   5.373   3.720   4.427 -0.3348  0.7560  0.1705
   54DG      C2 1221   5.273   4.343   4.768  0.3179  0.8027 -0.2398
   54DG      H3 1222   5.274   3.679   4.448  0.2359  0.4512  2.5148
   54DG      H4 1223   5.433   3.631   4.408 -1.8211  0.6098 -5.6892
   54DG      H5 1224   5.364   3.779   4.336  1.7041 -0.8875 -1.1897
   54DG      H6 1225   5.316   4.390   4.679 -1.0438  1.6294 -0.4768
   54DG      H7 1226   5.169   4.349   4.736  0.5385  0.4425 -1.0639
   54DG      H8 1227   5.291   4.406   4.855  0.7222  1.9886 -1.1424
   54DG      O9 1228   5.420   3.791   4.538  0.0772  0.6665 -0.3378
   54DG     O10 1229   5.303   4.205   4.782  0.8705  0.4188 -0.3492
   54DG     C11 1230   5.410   3.720   4.665  0.0193  0.9031 -0.5517
   54DG     C12 1231   5.440   4.187   4.819 -0.0979 -0.7123 -0.2296
   54DG     H13 1232   5.464   3.626   4.655  1.0338  1.5043 -1.0281
   54DG     H14 1233   5.307   3.702   4.693  0.5788 -0.8709  0.4653
   54DG     H15 1234   5.468   4.256   4.898  1.5592  0.1769 -1.5146
   54DG     H16 1235   5.507   4.222   4.740  0.5151 -1.4295 -0.0337
   54DG     C17 1236   5.479   3.815   4.764 -0.1358 -0.1817  0.0676
   54DG     C18 1237   5.471   4.044   4.859 -0.2792  0.4834  0.2198
   54DG     O19 1238   5.427   3.951   4.761  0.4451  0.2693  0.6610
   54DG     H20 1239   5.583   3.827   4.734  0.6820  2.8437  3.3253
   54DG     H21 1240   5.480   3.763   4.860 -0.3002  0.0112  0.1732
   54DG     H22 1241   5.579   4.030   4.871 -0.2489  0.0248 -0.4961
   54DG     H23 1242   5.430   4.016   4.956 -0.7518 -0.0803 -0.1361
   55DG      C1 1243   4.390   2.290   4.698 -0.0723 -0.9880  0.2438
   55DG      C2 1244   4.449   1.859   4.110  0.5318 -0.2997  0.0106
   55DG      H3 1245   4.373   2.305   4.805 -1.5332 -0.9375  0.0179
   55DG      H4 1246   4.334   2.369   4.650  1.6334 -0.0724 -0.3463
   55DG      H5 1247   4.494   2.306   4.669 -0.6841  1.8713 -0.6932
   55DG      H6 1248   4.404   1.929   4.040 -1.9520 -0.2578  1.5289
   55DG      H7 1249   4.556   1.876   4.108  0.3406  1.0839  0.4145
   55DG      H8 1250   4.418   1.761   4.074  1.7619 -1.4974  2.0114
   55DG      O9 1251   4.334   2.170   4.648  0.2883  0.4068  0.6771
   55DG     O10 1252   4.393   1.881   4.244 -0.1707 -0.1365  0.2182
   55DG     C11 1253   4.385   2.060   4.725 -0.1158  0.4622  0.2120
   55DG     C12 1254   4.444   1.791   4.332 -0.4440 -0.2389  0.0923
   55DG     H13 1255   4.337   2.049   4.822  0.7992  0.4011  0.6708
   55DG     H14 1256   4.493   2.054   4.734 -0.0850 -1.5060 -0.8912
   55DG     H15 1257   4.541   1.835   4.356 -1.4137  2.0867  0.0622
   55DG     H16 1258   4.450   1.696   4.280 -0.7755  0.6471 -1.6543
   55DG     C17 1259   4.341   1.942   4.642 -0.4187  0.7628 -0.6830
   55DG     C18 1260   4.372   1.806   4.458 -0.0024  0.5761 -0.3843
   55DG     O19 1261   4.388   1.938   4.509 -0.1214 -0.3515 -0.2771
   55DG     H20 1262   4.232   1.942   4.638 -0.4307  0.4749 -0.4357
   55DG     H21 1263   4.353   1.852   4.702  0.9279  1.1995 -0.2580
   55DG     H22 1264   4.266   1.787   4.441  0.1230  1.6829 -2.7010
   55DG     H23 1265   4.416   1.732   4.526 -1.8270 -0.5067 -0.3239
   56DG      C1 1266   4.045   3.640   4.663  0.2214 -0.1406  0.2070
   56DG      C2 1267   3.846   3.159   5.134 -0.8148 -0.3165  0.0496
   56DG      H3 1268   3.985   3.585   4.590  3.7411 -1.3538 -2.0192
   56DG      H4 1269   4.147   3.602   4.667  1.4043  2.2113 -3.1078
   56DG      H5 1270   4.039   3.740   4.620  0.4803  0.2490  1.0578
   56DG      H6 1271   3.763   3.123   5.072 -1.3570  0.3980  0.3476
   56DG      H7 1272   3.932   3.093   5.120 -1.2035 -0.2621 -3.5250
   56DG      H8 1273   3.821   3.132   5.237  0.4794 -1.3483  0.1191
   56DG      O9 1274   3.980   3.612   4.789 -0.1910 -0.1890  0.0139
   56DG     O10 1275   3.887   3.301   5.119  0.5282 -0.0583  0.1444
   56DG     C11 1276   3.850   3.677   4.796 -0.5418  0.0455  0.5758
   56DG     C12 1277   3.775   3.374   5.174 -0.3570 -1.1061 -0.6461
   56DG     H13 1278   3.783   3.626   4.728  0.4582  0.7099 -0.9471
   56DG     H14 1279   3.851   3.779   4.757  0.5244  0.3650  1.3636
   56DG     H15 1280   3.786   3.379   5.282  4.1014  1.2230 -0.9597
   56DG     H16 1281   3.675   3.337   5.149 -1.5971  1.0593  0.8086
   56DG     C17 1282   3.789   3.663   4.937 -0.2736  0.0554  0.2567
   56DG     C18 1283   3.792   3.521   5.120 -0.0698 -0.1908  0.6036
   56DG     O19 1284   3.797   3.526   4.977  0.6544  0.3909 -0.3978
   56DG     H20 1285   3.686   3.699   4.936 -0.1073  0.6020  1.2870
   56DG     H21 1286   3.846   3.731   5.000  2.0495 -2.2141  0.8103
   56DG     H22 1287   3.702   3.575   5.150  0.3908 -0.1828  2.0347
   56DG     H23 1288   3.882   3.566   5.163  0.4869  2.2691 -2.7132
   57DG      C1 1289   2.026   3.508   4.456 -0.0539  0.0274 -0.6352
   57DG      C2 1290   2.078   3.601   3.828 -0.3831 -0.4775 -0.4909
   57DG      H3 1291   1.996   3.517   4.560 -0.3526  0.9055 -0.7948
   57DG      H4 1292   2.132   3.530   4.447 -0.3047  0.6221 -2.5670
   57DG      H5 1293   2.025   3.404   4.423  1.3701  0.3062 -1.6838
   57DG      H6 1294   2.081   3.697   3.777 -3.2976 -0.9285 -1.6405
   57DG      H7 1295   2.180   3.574   3.857 -0.9335 -0.4506  1.6897
   57DG      H8 1296   2.048   3.510   3.775 -1.1980 -1.3778  1.3965
   57DG      O9 1297   1.946   3.583   4.363 -0.2597 -0.1610 -0.0791
   57DG     O10 1298   1.994   3.625   3.947  0.4830 -0.1496  0.1806
   57DG     C11 1299   1.808   3.577   4.371 -0.1132  0.5486 -0.4108
   57DG     C12 1300   1.855   3.643   3.904  0.0347 -0.1461 -0.3138
   57DG     H13 1301   1.776   3.609   4.471  0.9788 -0.5593  0.3281
   57DG     H14 1302   1.779   3.473   4.355  0.1178  0.4547 -0.2420
   57DG     H15 1303   1.809   3.546   3.891  2.4174 -1.3556 -0.2658
   57DG     H16 1304   1.849   3.709   3.817  0.0560 -1.1744 -1.1192
   57DG     C17 1305   1.756   3.673   4.264  0.2715  0.0806 -0.1119
   57DG     C18 1306   1.784   3.698   4.027  0.2434 -0.4909  0.5882
   57DG     O19 1307   1.824   3.627   4.140  0.5659  0.3510  0.2727
   57DG     H20 1308   1.785   3.773   4.297  3.1204 -0.2213 -1.3812
   57DG     H21 1309   1.649   3.651   4.269 -0.0448  1.5885  0.2378
   57DG     H22 1310   1.819   3.800   4.040 -0.6254  0.0107 -0.7810
   57DG     H23 1311   1.676   3.703   4.010  0.3105 -0.4554  0.1723
   58DG      C1 1312   1.964   4.040   4.820 -0.3580  0.6287  0.2897
   58DG      C2 1313   1.495   3.864   5.353  0.0622  0.7287 -0.0420
   58DG      H3 1314   1.997   4.123   4.758  3.5002 -0.4687  0.6330
   58DG      H4 1315   2.008   3.948   4.780  0.4240  0.8792  0.5516
   58DG      H5 1316   2.023   4.067   4.907 -1.2638 -1.7862  1.7445
   58DG      H6 1317   1.526   3.760   5.371  3.6610  2.0147  2.4336
   58DG      H7 1318   1.569   3.922   5.409 -0.1143  1.5743 -0.6847
   58DG      H8 1319   1.398   3.902   5.382  0.7126  2.7243 -0.3134
   58DG      O9 1320   1.821   4.027   4.849 -1.3259 -0.0864 -0.3543
   58DG     O10 1321   1.499   3.896   5.219  0.2846 -0.4683  0.0525
   58DG     C11 1322   1.760   4.149   4.875  0.3248  0.1582 -0.4506
   58DG     C12 1323   1.426   4.018   5.183 -0.4771 -0.2426 -0.8001
   58DG     H13 1324   1.780   4.213   4.789 -1.5743  1.1626 -0.1931
   58DG     H14 1325   1.810   4.200   4.957 -0.6745  0.3808  0.0301
   58DG     H15 1326   1.454   4.105   5.242 -1.8296 -1.5568  1.9816
   58DG     H16 1327   1.318   4.020   5.194 -0.4005  2.6481  0.2480
   58DG     C17 1328   1.607   4.139   4.888 -0.0718 -0.5135 -0.2264
   58DG     C18 1329   1.448   4.050   5.039 -0.1355  0.0674 -0.4111
   58DG     O19 1330   1.587   4.066   5.012 -0.1897  1.0406 -0.1624
   58DG     H20 1331   1.559   4.095   4.800  1.1312  0.4810 -1.4219
   58DG     H21 1332   1.562   4.237   4.899 -0.5432 -0.5732 -1.4856
   58DG     H22 1333   1.406   3.974   4.973  1.8498 -0.6270 -0.9246
   58DG     H23 1334   1.389   4.141   5.024 -0.3184 -0.2412 -1.6975
   59DG      C1 1335   4.174   3.926   4.358  0.3146  0.3576 -0.1414
   59DG      C2 1336   4.574   3.716   3.857 -0.0643 -0.0160 -0.9340
   59DG      H3 1337   4.099   3.907   4.435  0.0840 -1.6430 -0.7956
   59DG      H4 1338   4.174   4.029   4.321 -1.3531 -0.3163 -2.2085
   59DG      H5 1339   4.269   3.911   4.409 -0.1958  0.4984  0.8727
   59DG      H6 1340   4.603   3.647   3.778  1.7227 -0.5509  0.1228
   59DG      H7 1341   4.584   3.821   3.829  1.4537  0.1501  0.1109
   59DG      H8 1342   4.645   3.708   3.939 -0.9416  0.7363 -0.0774
   59DG      O9 1343   4.168   3.831   4.257  0.1786  0.1988  0.3237
   59DG     O10 1344   4.442   3.688   3.914  0.6226  0.3976  0.5465
   59DG     C11 1345   4.044   3.807   4.197 -0.3992  0.4501  0.9659
   59DG     C12 1346   4.336   3.710   3.823  0.7840 -0.9254 -0.0675
   59DG     H13 1347   4.006   3.899   4.151 -0.6708 -0.7824 -1.4200
   59DG     H14 1348   3.964   3.775   4.264 -3.2733  1.1011 -1.8666
   59DG     H15 1349   4.345   3.641   3.739 -0.6093 -0.2197 -0.8215
   59DG     H16 1350   4.333   3.805   3.770 -0.3912 -1.1921 -0.5015
   59DG     C17 1351   4.068   3.702   4.089  0.4599 -0.3182 -0.5843
   59DG     C18 1352   4.194   3.679   3.884  0.4972  0.2065 -1.2360
   59DG     O19 1353   4.171   3.755   4.004  0.1951  0.4946 -0.4554
   59DG     H20 1354   3.984   3.676   4.025 -0.0972  0.1596 -0.0463
   59DG     H21 1355   4.107   3.621   4.150  1.5875 -0.9862 -2.1063
   59DG     H22 1356   4.107   3.701   3.821 -1.0674 -0.6944  0.4907
   59DG     H23 1357   4.193   3.571   3.895 -0.3337  0.1027 -2.2377
   60DG      C1 1358   1.387   4.589   3.492 -0.4446  0.2096  1.0862
   60DG      C2 1359   1.614   5.184   3.256 -0.0370  0.2300  0.5843
   60DG      H3 1360   1.424   4.625   3.588 -0.8593  1.5939  0.7547
   60DG      H4 1361   1.422   4.490   3.464  1.6748  0.3597  2.9083
   60DG      H5 1362   1.280   4.592   3.514 -1.0019 -2.7592 -0.7156
   60DG      H6 1363   1.628   5.255   3.175 -2.9986 -0.4125 -0.6401
   60DG      H7 1364   1.539   5.226   3.323 -1.0268 -2.3931  1.2868
   60DG      H8 1365   1.692   5.147   3.323 -0.1997 -0.2684  0.5050
   60DG      O9 1366   1.391   4.677   3.379 -0.0628  0.3971 -0.0516
   60DG     O10 1367   1.560   5.065   3.197  0.0744 -0.1781 -0.1569
   60DG     C11 1368   1.306   4.651   3.271  0.6541  0.4652  0.0395
   60DG     C12 1369   1.448   5.080   3.111 -0.1562  0.6874 -0.4260
   60DG     H13 1370   1.202   4.661   3.300 -0.3586 -1.3160 -2.5595
   60DG     H14 1371   1.322   4.545   3.248 -0.3682  0.2941  0.0850
   60DG     H15 1372   1.470   5.134   3.019 -1.0050  0.1335 -0.9738
   60DG     H16 1373   1.370   5.141   3.158  0.5536  0.2592  1.3933
   60DG     C17 1374   1.347   4.725   3.138 -0.2682  0.8017 -1.1499
   60DG     C18 1375   1.398   4.941   3.080 -0.0316  0.2434  0.4697
   60DG     O19 1376   1.368   4.856   3.189 -0.2141 -0.4463  0.1565
   60DG     H20 1377   1.272   4.719   3.059 -1.0158  1.5392 -0.5175
   60DG     H21 1378   1.440   4.684   3.098 -0.1937 -0.3971  0.1909
   60DG     H22 1379   1.301   4.939   3.031 -0.4067  0.9483  1.1527
   60DG     H23 1380   1.475   4.901   3.015 -0.9776  2.2286 -2.0209
   61DG      C1 1381   1.114   3.784   2.475 -0.0102 -0.1588 -0.3047
   61DG      C2 1382   0.780   3.897   1.897  0.0323  0.3880 -0.0073
   61DG      H3 1383   1.125   3.892   2.482 -1.0460 -0.1368  1.4453
   61DG      H4 1384   1.205   3.748   2.427  1.2126  1.5445  0.6336
   61DG      H5 1385   1.115   3.749   2.579  0.4498 -1.9514 -0.8708
   61DG      H6 1386   0.882   3.907   1.858  1.0073 -0.3900  2.2074
   61DG      H7 1387   0.723   3.914   1.806 -0.3477 -2.1092 -0.3018
   61DG      H8 1388   0.770   3.983   1.964 -0.2983 -1.9872  3.2107
   61DG      O9 1389   0.997   3.751   2.415 -0.1951 -0.2647 -0.3268
   61DG     O10 1390   0.762   3.770   1.966 -0.2316 -0.3890 -0.5305
   61DG     C11 1391   0.871   3.766   2.481  0.5722  0.2090  1.1240
   61DG     C12 1392   0.641   3.770   2.049  0.8520  0.2626 -0.5906
   61DG     H13 1393   0.833   3.867   2.494 -1.0742 -0.2274 -0.0617
   61DG     H14 1394   0.885   3.724   2.581  1.8986  0.5939  1.1218
   61DG     H15 1395   0.555   3.737   1.991 -1.7921  1.6616  2.2372
   61DG     H16 1396   0.614   3.871   2.081 -1.4705  0.9379 -4.1566
   61DG     C17 1397   0.757   3.694   2.395 -0.1868 -0.1941 -0.2254
   61DG     C18 1398   0.663   3.689   2.174  0.2110 -0.4168 -0.1249
   61DG     O19 1399   0.763   3.741   2.261  0.2936  0.1875  0.1822
   61DG     H20 1400   0.662   3.724   2.439  0.0187  0.6065 -0.3026
   61DG     H21 1401   0.775   3.587   2.399  0.0390 -0.1160  1.5697
   61DG     H22 1402   0.564   3.678   2.217 -1.0140 -0.1871 -2.6912
   61DG     H23 1403   0.696   3.589   2.145  0.2425 -0.3165 -0.4493
   62DG      C1 1404   3.168   5.008   1.074 -0.3073 -0.0061 -0.6130
   62DG      C2 1405   3.521   4.930   1.547 -0.1664 -0.5289  0.7483
   62DG      H3 1406   3.171   4.900   1.066 -0.0808 -0.3458  2.7438
   62DG      H4 1407   3.264   5.052   1.045  0.7779 -0.9460  1.4044
   62DG      H5 1408   3.092   5.042   1.003 -0.1874  0.7669 -0.3828
   62DG      H6 1409   3.586   4.922   1.460  0.1131 -0.9972  0.9948
   62DG      H7 1410   3.582   4.975   1.625  1.1732  1.5097 -1.3300
   62DG      H8 1411   3.489   4.831   1.580 -0.0592 -0.7198  0.2868
   62DG      O9 1412   3.139   5.028   1.213  0.3960  0.1771  0.8026
   62DG     O10 1413   3.411   5.016   1.511  0.3747 -0.1441  0.4918
   62DG     C11 1414   3.131   5.157   1.258 -0.2188 -0.4052  0.4177
   62DG     C12 1415   3.348   5.074   1.621  0.3851  0.2973 -0.1047
   62DG     H13 1416   3.077   5.221   1.188  0.7150 -2.0840 -1.9526
   62DG     H14 1417   3.235   5.188   1.267  0.2557 -1.4595 -1.0476
   62DG     H15 1418   3.419   5.130   1.682 -0.3231 -1.2661  2.2633
   62DG     H16 1419   3.310   4.986   1.673  0.0435 -1.0585 -2.4903
   62DG     C17 1420   3.066   5.164   1.398  0.1356  0.7279  0.4520
   62DG     C18 1421   3.231   5.165   1.578 -0.5608  0.0488 -0.2106
   62DG     O19 1422   3.150   5.093   1.490 -0.3606 -0.3966 -0.5064
   62DG     H20 1423   2.974   5.106   1.386  0.3079  0.7284 -0.9930
   62DG     H21 1424   3.053   5.268   1.430 -1.6532  0.9619 -0.8712
   62DG     H22 1425   3.177   5.190   1.669  0.4130  0.3060  0.3191
   62DG     H23 1426   3.264   5.265   1.549 -1.2774  0.5473  0.6343
   63DG      C1 1427   2.349   2.516   0.700  0.3608 -0.1508 -0.0699
   63DG      C2 1428   2.928   2.495   0.405 -0.5753 -0.1507 -0.1162
   63DG      H3 1429   2.243   2.544   0.700  0.5417  0.7906 -2.6520
   63DG      H4 1430   2.397   2.610   0.725 -0.3685 -0.1040  1.2385
   63DG      H5 1431   2.377   2.451   0.782  0.6678  0.6336  0.4519
   63DG      H6 1432   3.003   2.442   0.345  1.1201 -2.3695  3.5841
   63DG      H7 1433   2.921   2.599   0.375  1.1055 -0.2647 -1.0109
   63DG      H8 1434   2.960   2.484   0.508  1.5236 -0.7787 -0.7901
   63DG      O9 1435   2.390   2.453   0.578  0.3378 -0.3258  0.3982
   63DG     O10 1436   2.794   2.437   0.382  0.3864 -0.1633  0.1746
   63DG     C11 1437   2.318   2.484   0.456  0.3387  0.2228  0.1108
   63DG     C12 1438   2.751   2.457   0.248 -0.4925  0.6398 -0.6661
   63DG     H13 1439   2.321   2.592   0.441 -0.3715  0.2212 -0.0961
   63DG     H14 1440   2.214   2.450   0.466  0.2737  0.7747  1.4905
   63DG     H15 1441   2.824   2.406   0.184 -0.3142  1.9844 -1.5809
   63DG     H16 1442   2.756   2.565   0.231 -0.8454  0.8000  0.2001
   63DG     C17 1443   2.389   2.420   0.342 -0.1019  0.1547  0.3099
   63DG     C18 1444   2.606   2.414   0.234  0.0280  0.1830  0.1266
   63DG     O19 1445   2.524   2.474   0.333 -0.0186  0.7815 -0.3419
   63DG     H20 1446   2.331   2.445   0.252  1.0244  0.5568 -0.3222
   63DG     H21 1447   2.394   2.312   0.353  0.0364 -0.1641 -2.2110
   63DG     H22 1448   2.573   2.454   0.138 -0.6935  1.0820  0.7436
   63DG     H23 1449   2.611   2.305   0.231  1.8732  0.1963 -3.4943
   64DG      C1 1450   1.351   2.735   3.185 -0.4811  0.3734 -0.2824
   64DG      C2 1451   1.768   2.751   3.616  0.6859 -0.1735  0.1582
   64DG      H3 1452   1.279   2.714   3.106 -1.5832  2.4055  0.1350
   64DG      H4 1453   1.302   2.820   3.232  1.3204  1.2737  0.0396
   64DG      H5 1454   1.351   2.653   3.257  0.8181  0.0852 -0.5778
   64DG      H6 1455   1.779   2.657   3.671 -0.7185 -0.9993 -0.9106
   64DG      H7 1456   1.860   2.809   3.621  0.9779 -0.4752 -1.2913
   64DG      H8 1457   1.689   2.804   3.668  0.2250 -0.4183 -0.2804
   64DG      O9 1458   1.484   2.779   3.144  0.1568 -0.0929 -0.7925
   64DG     O10 1459   1.735   2.726   3.475 -0.1055 -0.4687 -0.1367
   64DG     C11 1460   1.558   2.663   3.090  0.4688  0.1551  0.2223
   64DG     C12 1461   1.845   2.694   3.393  0.3664 -0.1368 -0.1229
   64DG     H13 1462   1.503   2.631   3.001  0.5138 -0.5171  0.4331
   64DG     H14 1463   1.558   2.578   3.158  0.2644  0.1516  0.2184
   64DG     H15 1464   1.891   2.608   3.442 -1.5408 -3.6349 -3.8504
   64DG     H16 1465   1.911   2.780   3.396 -0.1814  0.4239  4.7402
   64DG     C17 1466   1.699   2.693   3.056  0.3564 -0.1550 -1.0301
   64DG     C18 1467   1.810   2.637   3.255 -0.0769  0.1238 -0.1126
   64DG     O19 1468   1.750   2.742   3.181 -0.2515 -0.4641  0.3360
   64DG     H20 1469   1.710   2.780   2.991  1.5647  1.6739  1.4672
   64DG     H21 1470   1.758   2.611   3.014  1.2617  0.3095 -0.6856
   64DG     H22 1471   1.892   2.592   3.198  0.2662  1.6844 -0.9174
   64DG     H23 1472   1.738   2.557   3.274 -2.1623  2.0343  0.5277
   65DG      C1 1473   0.919   0.352   1.951  0.1135 -0.6609  0.3259
   65DG      C2 1474   0.600  -0.002   2.412 -0.0748  0.6298 -0.0216
   65DG      H3 1475   0.852   0.433   1.979  0.2747 -0.2743 -0.3587
   65DG      H4 1476   0.877   0.317   1.856  0.9850 -0.2324 -0.2404
   65DG      H5 1477   1.018   0.392   1.928 -0.2121 -1.2849 -2.6758
   65DG      H6 1478   0.606  -0.013   2.521 -1.0301 -2.2034 -0.1670
   65DG      H7 1479   0.533   0.076   2.377  0.7877  0.6566 -1.7153
   65DG      H8 1480   0.560  -0.099   2.382  0.6418  0.3473 -0.0829
   65DG      O9 1481   0.927   0.243   2.047  0.6586 -0.7916  0.1114
   65DG     O10 1482   0.734   0.014   2.354  0.2786  0.5857  0.4912
   65DG     C11 1483   1.018   0.143   1.998 -0.0342 -0.0028  0.0730
   65DG     C12 1484   0.809  -0.109   2.344 -0.2803  0.3226 -0.1764
   65DG     H13 1485   1.117   0.181   1.973  1.3357 -0.8948  3.5977
   65DG     H14 1486   0.984   0.087   1.911  0.9048 -0.1344 -0.2170
   65DG     H15 1487   0.750  -0.175   2.281  1.7034  0.3486 -2.1778
   65DG     H16 1488   0.825  -0.160   2.440  1.6644  0.7433 -0.2375
   65DG     C17 1489   1.053   0.052   2.116  0.5967  0.1539  0.4618
   65DG     C18 1490   0.951  -0.081   2.281 -0.4146  0.1117  0.3068
   65DG     O19 1491   0.930   0.006   2.168  0.7496 -0.3005 -0.4769
   65DG     H20 1492   1.106   0.107   2.193  2.6799  0.2012 -0.9416
   65DG     H21 1493   1.110  -0.030   2.073 -0.0870  0.0372 -0.2394
   65DG     H22 1494   1.019  -0.044   2.357  1.1856 -0.5818 -0.7503
   65DG     H23 1495   0.990  -0.178   2.249  0.1844 -0.1857  1.8691
   66DG      C1 1496   1.285   1.104   1.164  0.1626  0.1022 -0.0043
   66DG      C2 1497   1.250   1.678   0.850  1.0149 -0.4228  0.1711
   66DG      H3 1498   1.380   1.144   1.199  0.1810  0.3417 -0.3271
   66DG      H4 1499   1.300   1.082   1.058 -1.6481 -1.6820  0.0554
   66DG      H5 1500   1.254   1.015   1.218  1.5038  0.2450  1.0565
   66DG      H6 1501   1.179   1.752   0.815  1.7000  0.3497  0.3857
   66DG      H7 1502   1.330   1.726   0.907  1.9347 -0.7034 -0.8498
   66DG      H8 1503   1.308   1.630   0.772  1.2336 -1.2922  0.8432
   66DG      O9 1504   1.178   1.200   1.158  0.1469 -0.2317  0.0487
   66DG     O10 1505   1.165   1.583   0.917  0.1114 -0.0147  0.3823
   66DG     C11 1506   1.147   1.265   1.277 -0.1427  0.5459 -0.0942
   66DG     C12 1507   1.098   1.644   1.029 -0.1235  0.7710  0.7585
   66DG     H13 1508   1.230   1.307   1.334 -1.3936 -0.9468  3.1158
   66DG     H14 1509   1.100   1.191   1.342 -0.0292 -0.4865 -1.1727
   66DG     H15 1510   1.036   1.720   0.980  0.2885  0.7615  0.2095
   66DG     H16 1511   1.161   1.706   1.093  0.8873  1.3955 -0.7632
   66DG     C17 1512   1.038   1.368   1.247 -0.6595 -0.3731  0.1611
   66DG     C18 1513   1.013   1.542   1.097  0.3563 -0.0350 -0.3367
   66DG     O19 1514   1.106   1.458   1.159 -0.2921  0.1394 -0.2662
   66DG     H20 1515   1.008   1.421   1.337  1.4100 -1.1576  1.3772
   66DG     H21 1516   0.949   1.324   1.202  2.7921 -3.5289 -4.5720
   66DG     H22 1517   0.940   1.591   1.161 -0.9067 -2.9555  0.6464
   66DG     H23 1518   0.958   1.482   1.024  1.7094 -0.4292 -1.0591
   67DG      C1 1519   5.186   5.498   0.304 -0.8052  0.6816 -0.1864
   67DG      C2 1520   4.928   4.973   0.614  0.5630 -0.2999 -0.1511
   67DG      H3 1521   5.290   5.520   0.330 -0.6175  0.6097 -0.8630
   67DG      H4 1522   5.122   5.545   0.378 -1.1858 -0.0258 -0.0571
   67DG      H5 1523   5.164   5.540   0.206  0.7709  0.0567 -0.8589
   67DG      H6 1524   4.838   4.964   0.554 -0.0665 -1.6643  0.9424
   67DG      H7 1525   4.929   4.884   0.676  1.1565 -0.6263 -0.6168
   67DG      H8 1526   4.912   5.052   0.688  1.0870 -0.7616  0.4716
   67DG      O9 1527   5.173   5.356   0.305  0.2339  0.0756  0.2445
   67DG     O10 1528   5.035   4.997   0.524 -0.4350 -0.2940  0.5491
   67DG     C11 1529   5.246   5.287   0.199 -0.0003  0.1565  0.3523
   67DG     C12 1530   5.043   4.916   0.408  0.0797  0.4202  0.1092
   67DG     H13 1531   5.337   5.335   0.162 -0.3777  0.9862  0.4619
   67DG     H14 1532   5.168   5.291   0.122 -0.9022 -2.5670  1.0214
   67DG     H15 1533   4.951   4.924   0.351 -0.9821 -0.7326  1.5802
   67DG     H16 1534   5.050   4.811   0.435 -0.2400  0.2705 -0.3823
   67DG     C17 1535   5.270   5.147   0.228 -0.4062 -0.0900 -0.8164
   67DG     C18 1536   5.167   4.942   0.324  0.0312  0.2478 -0.5159
   67DG     O19 1537   5.155   5.074   0.282 -0.3363  0.2968 -0.3792
   67DG     H20 1538   5.336   5.142   0.315 -2.8744 -0.2226  1.1748
   67DG     H21 1539   5.318   5.081   0.156  1.9236  0.6616 -0.0530
   67DG     H22 1540   5.262   4.926   0.376  0.1788 -1.0527 -1.1398
   67DG     H23 1541   5.179   4.876   0.237 -3.3428 -1.0136 -0.1696
   68DG      C1 1542   4.991   1.274   0.104  0.8641 -0.3455  0.3507
   68DG      C2 1543   5.494   0.775  -0.026 -0.3542 -0.5414  0.7632
   68DG      H3 1544   4.957   1.217   0.190  0.4093  1.6370  1.5630
   68DG      H4 1545   4.896   1.311   0.065  0.7916 -0.3670  0.5068
   68DG      H5 1546   5.064   1.350   0.133  1.7047  0.3929 -3.2370
   68DG      H6 1547   5.452   0.721   0.059 -0.2790  0.6288  1.5617
   68DG      H7 1548   5.520   0.691  -0.090  0.4707  0.3221 -0.0651
   68DG      H8 1549   5.587   0.825  -0.001  0.2827  0.1949 -2.5794
   68DG      O9 1550   5.056   1.190   0.012  0.4064 -0.0842  0.0589
   68DG     O10 1551   5.392   0.864  -0.063  0.0006 -0.2497 -0.4420
   68DG     C11 1552   5.076   1.258  -0.109 -0.0058 -0.5502  0.5259
   68DG     C12 1553   5.423   0.931  -0.183  0.4823  0.2947 -0.0694
   68DG     H13 1554   5.148   1.339  -0.095 -0.0824 -0.1651 -1.0804
   68DG     H14 1555   4.978   1.290  -0.144 -0.0861 -2.1038 -0.7780
   68DG     H15 1556   5.460   0.859  -0.256 -0.1463  0.1887 -0.2942
   68DG     H16 1557   5.503   1.004  -0.171  1.9670 -1.3463  0.4723
   68DG     C17 1558   5.135   1.164  -0.214  0.1034 -0.1252  0.8964
   68DG     C18 1559   5.294   0.993  -0.233  1.1564 -0.2926 -0.0412
   68DG     O19 1560   5.254   1.108  -0.158  0.1072  0.1604  0.0420
   68DG     H20 1561   5.158   1.214  -0.308  0.1709  1.6338  1.7935
   68DG     H21 1562   5.063   1.086  -0.236 -0.3641  0.8392 -1.2473
   68DG     H22 1563   5.313   1.026  -0.336  0.6357 -1.9752 -0.6972
   68DG     H23 1564   5.217   0.916  -0.234  0.4647  0.1829  3.6452
   69DG      C1 1565   2.378   3.243   0.586 -0.1367 -0.4905 -0.3196
   69DG      C2 1566   2.526   3.820   0.953 -0.2588 -0.1589  0.0364
   69DG      H3 1567   2.357   3.174   0.668 -0.2301 -0.8142 -0.6126
   69DG      H4 1568   2.480   3.220   0.556 -0.7053 -3.5538 -0.2232
   69DG      H5 1569   2.309   3.204   0.511  0.5705 -0.5381 -0.9515
   69DG      H6 1570   2.571   3.748   1.021 -2.3261 -1.8581 -0.2909
   69DG      H7 1571   2.608   3.879   0.911 -1.6748  0.1171 -2.5320
   69DG      H8 1572   2.463   3.892   1.007 -0.0398 -0.6175  0.9264
   69DG      O9 1573   2.357   3.384   0.603 -0.6603  0.1980 -0.0456
   69DG     O10 1574   2.445   3.747   0.859 -0.0677  0.0989 -0.3345
   69DG     C11 1575   2.375   3.453   0.483  0.3728  0.3561 -0.1747
   69DG     C12 1576   2.397   3.835   0.761 -0.1554  0.4593 -0.0451
   69DG     H13 1577   2.336   3.394   0.401  1.0516  0.2533 -0.4328
   69DG     H14 1578   2.483   3.455   0.466  0.7354 -1.5968  1.3878
   69DG     H15 1579   2.480   3.880   0.706 -1.5349  2.1910 -0.8237
   69DG     H16 1580   2.331   3.910   0.806  2.0498  2.4316  0.1217
   69DG     C17 1581   2.330   3.598   0.495 -0.2474 -0.2117 -0.0657
   69DG     C18 1582   2.310   3.762   0.658 -0.0197 -0.1757 -0.1520
   69DG     O19 1583   2.390   3.659   0.607  0.4730 -0.3453 -0.1454
   69DG     H20 1584   2.221   3.597   0.501 -0.4699 -1.5692 -2.7257
   69DG     H21 1585   2.347   3.644   0.398  1.8174 -3.1891 -1.2630
   69DG     H22 1586   2.224   3.727   0.715  1.2150  0.8740  2.5150
   69DG     H23 1587   2.283   3.841   0.588 -1.7424 -1.5345 -1.1206
   70DG      C1 1588   1.991   0.082   2.033 -0.2980  0.0904 -0.3178
   70DG      C2 1589   2.148   0.435   2.617  0.2415 -0.2577  0.3076
   70DG      H3 1590   1.887   0.050   2.047 -0.0276  0.1566  2.2074
   70DG      H4 1591   2.041   0.010   1.967 -0.6026 -1.0941  0.7122
   70DG      H5 1592   2.002   0.180   1.987 -2.7708  0.1330 -0.9948
   70DG      H6 1593   2.240   0.472   2.662 -0.1844 -0.6255  1.5254
   70DG      H7 1594   2.104   0.506   2.547  0.7425  2.0518  2.2135
   70DG      H8 1595   2.073   0.421   2.694  0.3644  1.3544  0.7591
   70DG      O9 1596   2.067   0.079   2.151 -0.3202  0.2534 -0.4214
   70DG     O10 1597   2.183   0.320   2.554  0.1837  0.3303  0.4485
   70DG     C11 1598   2.033  -0.028   2.234  0.4264 -0.2596 -0.1274
   70DG     C12 1599   2.206   0.205   2.636  0.0033  0.7307 -0.0920
   70DG     H13 1600   2.041  -0.125   2.187 -1.3516 -0.9491  0.8660
   70DG     H14 1601   1.931  -0.019   2.272  0.6411  1.7024  0.1339
   70DG     H15 1602   2.118   0.205   2.700  0.6310  0.0502  0.7995
   70DG     H16 1603   2.297   0.211   2.695  0.6830  0.6995 -1.1060
   70DG     C17 1604   2.127  -0.030   2.355 -0.0635  0.9061 -0.1819
   70DG     C18 1605   2.213   0.082   2.550 -0.1428 -0.3533 -0.3370
   70DG     O19 1606   2.130   0.088   2.427  0.7023 -0.0901 -0.2667
   70DG     H20 1607   2.224  -0.065   2.321 -1.3363 -0.5609 -2.5613
   70DG     H21 1608   2.091  -0.112   2.418  0.1147  0.5103 -0.5914
   70DG     H22 1609   2.316   0.074   2.517 -0.1580 -2.6071  0.0089
   70DG     H23 1610   2.194  -0.009   2.608  3.1602  0.3947  2.2254
   71DG      C1 1611   0.166   4.299   4.174 -0.1742 -0.3208 -0.0287
   71DG      C2 1612  -0.246   4.833   4.332 -0.3959  0.1066  0.6407
   71DG      H3 1613   0.258   4.251   4.139  1.6727  1.1305  2.5307
   71DG      H4 1614   0.093   4.225   4.140 -0.4410 -0.0262 -0.1047
   71DG      H5 1615   0.173   4.295   4.282  1.9759 -1.9808 -0.1651
   71DG      H6 1616  -0.255   4.812   4.438 -0.3478  2.4345  1.1628
   71DG      H7 1617  -0.230   4.941   4.333  1.6270 -0.1455  0.8730
   71DG      H8 1618  -0.330   4.809   4.267  1.1294 -1.3705 -0.9046
   71DG      O9 1619   0.154   4.435   4.120 -0.2112  0.4178 -0.1363
   71DG     O10 1620  -0.119   4.795   4.279 -0.5888 -0.3813 -0.2398
   71DG     C11 1621   0.269   4.516   4.141 -0.4637 -0.7642  0.4023
   71DG     C12 1622  -0.091   4.847   4.148  0.5605  0.5047  0.7286
   71DG     H13 1623   0.361   4.492   4.087  0.8528  3.2069  0.5281
   71DG     H14 1624   0.305   4.518   4.244  0.5836 -1.5949  0.0654
   71DG     H15 1625  -0.102   4.955   4.160  1.7281  1.1646 -2.7531
   71DG     H16 1626  -0.166   4.804   4.081  0.0401  1.6886  0.5244
   71DG     C17 1627   0.232   4.663   4.094  0.0824  0.1232 -0.2981
   71DG     C18 1628   0.056   4.820   4.113  0.5117 -0.1628 -0.5530
   71DG     O19 1629   0.096   4.688   4.148 -0.8506 -0.1340 -0.0423
   71DG     H20 1630   0.233   4.671   3.985  0.9140  0.7794 -0.2453
   71DG     H21 1631   0.299   4.733   4.143 -2.1664  1.7355  0.6779
   71DG     H22 1632   0.079   4.840   4.008  1.3755 -3.5942 -1.1464
   71DG     H23 1633   0.124   4.889   4.163  0.7378 -1.0551  0.3872
   72DG      C1 1634   3.677   0.010   2.984  0.1049 -0.0971 -0.4147
   72DG      C2 1635   4.266  -0.283   2.810  0.2236 -0.5875  0.2766
   72DG      H3 1636   3.579  -0.039   2.983 -1.1773  2.1492  1.5612
   72DG      H4 1637   3.685   0.066   2.891  1.3912  0.2726 -0.0977
   72DG      H5 1638   3.671   0.080   3.068  2.7592 -1.0358  0.6744
   72DG      H6 1639   4.208  -0.356   2.753  0.8302  0.5878 -1.9844
   72DG      H7 1640   4.267  -0.193   2.748  1.5976 -0.2172  0.8010
   72DG      H8 1641   4.369  -0.316   2.820  0.6052 -0.8391 -3.2405
   72DG      O9 1642   3.786  -0.078   3.009  0.1134 -0.3152 -0.3643
   72DG     O10 1643   4.212  -0.240   2.931  0.6368 -0.3253 -0.3354
   72DG     C11 1644   3.759  -0.156   3.123 -0.6222 -0.3921 -0.3997
   72DG     C12 1645   4.205  -0.343   3.028 -0.5570 -0.6295 -0.1425
   72DG     H13 1646   3.690  -0.233   3.091 -0.3152 -0.6194 -0.5258
   72DG     H14 1647   3.709  -0.098   3.200 -0.4598  0.2098 -0.7389
   72DG     H15 1648   4.300  -0.354   3.080 -0.5664  0.9839  0.2927
   72DG     H16 1649   4.181  -0.436   2.978 -2.8054  0.1100 -0.5622
   72DG     C17 1650   3.887  -0.219   3.173  0.0494  0.0663  0.5421
   72DG     C18 1651   4.096  -0.306   3.128  0.4866  0.4033 -0.1950
   72DG     O19 1652   3.969  -0.263   3.070 -0.4714 -0.2282 -0.3577
   72DG     H20 1653   3.857  -0.291   3.249 -1.4524 -0.7894 -0.8013
   72DG     H21 1654   3.945  -0.142   3.224 -1.2420  1.0711  0.5567
   72DG     H22 1655   4.063  -0.393   3.185 -2.6026  1.1375 -0.6827
   72DG     H23 1656   4.151  -0.241   3.197  1.5474 -1.3592  0.6889
   73DG      C1 1657   0.881   1.521   0.314  0.0136  0.2677  0.4045
   73DG      C2 1658   0.652   1.812  -0.177  0.2634 -0.1567  0.0442
   73DG      H3 1659   0.839   1.426   0.350  2.4539 -1.2484 -0.5250
   73DG      H4 1660   0.818   1.597   0.360 -2.0125 -0.8937 -0.2766
   73DG      H5 1661   0.980   1.541   0.355  0.5439 -1.9346  0.3360
   73DG      H6 1662   0.575   1.766  -0.240  0.2923 -0.3143  0.1219
   73DG      H7 1663   0.591   1.853  -0.097 -0.8320 -2.3948  0.4363
   73DG      H8 1664   0.697   1.898  -0.227  1.1756 -1.0429 -0.7086
   73DG      O9 1665   0.874   1.512   0.170 -0.1161 -0.1239  0.2671
   73DG     O10 1666   0.751   1.722  -0.136 -0.4943  0.0792  0.4641
   73DG     C11 1667   0.930   1.394   0.122  0.2992  0.4468  0.7961
   73DG     C12 1668   0.822   1.667  -0.242 -0.0058 -0.0037  0.1790
   73DG     H13 1669   0.865   1.309   0.101  2.3425 -1.6081  2.3506
   73DG     H14 1670   1.014   1.363   0.184  0.7522  2.6065  1.3404
   73DG     H15 1671   0.863   1.739  -0.312  2.1941 -1.7602 -0.4498
   73DG     H16 1672   0.754   1.599  -0.291  1.4456 -1.0290 -0.4872
   73DG     C17 1673   0.989   1.422  -0.012 -0.2915  0.1940 -0.3794
   73DG     C18 1674   0.929   1.579  -0.180 -0.2984  0.1028  0.0644
   73DG     O19 1675   0.881   1.488  -0.083  0.4145  0.1626  0.0359
   73DG     H20 1676   1.029   1.336  -0.067  3.2032  1.9177 -0.7956
   73DG     H21 1677   1.078   1.482   0.004  0.9385 -1.6614  0.1390
   73DG     H22 1678   0.991   1.526  -0.253 -3.2341 -1.2674 -1.5903
   73DG     H23 1679   0.997   1.651  -0.134 -1.1175  0.2002  1.1667
   74DG      C1 1680   2.352   2.815   0.955 -0.0300 -0.2228  0.7592
   74DG      C2 1681   2.628   2.656   1.514  0.2287  0.0002 -0.0086
   74DG      H3 1682   2.314   2.868   1.043  1.4556 -1.0735  1.9605
   74DG      H4 1683   2.264   2.805   0.892  0.6011  1.0503 -0.3605
   74DG      H5 1684   2.430   2.877   0.911  0.7929 -0.0300  2.3987
   74DG      H6 1685   2.550   2.595   1.559  0.3797 -0.7036 -0.6808
   74DG      H7 1686   2.709   2.643   1.586 -0.0091  2.1697  0.7297
   74DG      H8 1687   2.592   2.758   1.512  2.5787  0.8883 -1.2892
   74DG      O9 1688   2.393   2.686   0.999  0.0529 -0.3277 -1.0222
   74DG     O10 1689   2.661   2.614   1.385  0.7288 -0.1682 -0.8084
   74DG     C11 1690   2.288   2.622   1.069  0.1674 -0.2815 -0.3504
   74DG     C12 1691   2.658   2.473   1.359 -0.3435  0.3313 -0.4951
   74DG     H13 1692   2.215   2.594   0.992 -1.0749  1.3771  0.1475
   74DG     H14 1693   2.239   2.684   1.145 -2.6593 -1.9351 -0.6959
   74DG     H15 1694   2.686   2.406   1.440 -1.6398  1.1198  0.6407
   74DG     H16 1695   2.722   2.455   1.272 -0.7417 -0.6772 -0.5882
   74DG     C17 1696   2.345   2.497   1.136 -0.1856  0.5421  0.1382
   74DG     C18 1697   2.511   2.436   1.306 -0.0527 -0.5219  0.2755
   74DG     O19 1698   2.465   2.526   1.198 -0.3598 -0.3930  0.0558
   74DG     H20 1699   2.362   2.414   1.066 -0.8006 -1.7734  2.5575
   74DG     H21 1700   2.273   2.458   1.208  1.6769  0.1368  1.8361
   74DG     H22 1701   2.512   2.336   1.263 -0.0085 -0.4012 -0.0062
   74DG     H23 1702   2.433   2.449   1.381 -1.0196  3.3897 -1.1589
   75DG      C1 1703   0.507   1.459   2.887  0.0385  0.0363  0.6353
   75DG      C2 1704  -0.158   1.321   2.994 -0.3324 -0.3461  0.3837
   75DG      H3 1705   0.519   1.471   2.994 -0.6322 -0.6876  0.7977
   75DG      H4 1706   0.474   1.559   2.856  0.2445 -0.0890  0.0057
   75DG      H5 1707   0.605   1.444   2.841 -1.1444  0.2942 -2.2239
   75DG      H6 1708  -0.137   1.395   3.071  2.1726 -0.0718 -0.4381
   75DG      H7 1709  -0.252   1.348   2.946  0.3546 -0.6567 -1.2244
   75DG      H8 1710  -0.163   1.231   3.054  1.1239 -1.4995 -1.1076
   75DG      O9 1711   0.423   1.346   2.855 -0.1363 -0.0380 -0.4990
   75DG     O10 1712  -0.049   1.316   2.907  0.0939  0.0349  0.1811
   75DG     C11 1713   0.368   1.344   2.724  0.9377 -0.1194 -0.1823
   75DG     C12 1714  -0.069   1.223   2.803 -0.1005 -0.2549  1.0267
   75DG     H13 1715   0.447   1.342   2.649  1.0421 -1.4141 -0.0623
   75DG     H14 1716   0.327   1.441   2.697  1.5116 -0.0054 -0.6492
   75DG     H15 1717  -0.166   1.235   2.756 -1.4268 -1.8846  3.1538
   75DG     H16 1718  -0.073   1.121   2.839 -2.1168 -0.8505 -0.7020
   75DG     C17 1719   0.285   1.220   2.692  0.3619 -0.0459 -0.0500
   75DG     C18 1720   0.055   1.242   2.716  0.3641  0.2613 -0.5441
   75DG     O19 1721   0.176   1.213   2.785 -0.5975 -0.1062  0.0012
   75DG     H20 1722   0.342   1.128   2.699 -0.2310 -0.8336 -3.5809
   75DG     H21 1723   0.262   1.230   2.586 -0.9271 -0.4612  0.1743
   75DG     H22 1724   0.046   1.184   2.624  2.4637 -1.4065  0.2059
   75DG     H23 1725   0.057   1.344   2.677 -0.1854  0.9474  1.1264
   76DG      C1 1726   1.601   3.776   4.753 -0.1505  0.1778 -0.1300
   76DG      C2 1727   2.080   3.877   5.210 -0.3198  0.2617  0.5853
   76DG      H3 1728   1.669   3.844   4.702  0.6315 -0.7479 -0.3377
   76DG      H4 1729   1.513   3.840   4.758  0.0958  0.6825 -1.8669
   76DG      H5 1730   1.591   3.697   4.679 -0.3864 -0.6983  0.8148
   76DG      H6 1731   2.028   3.961   5.165  0.5013 -0.9415 -2.9573
   76DG      H7 1732   2.109   3.892   5.314 -0.5765  2.2185  0.4113
   76DG      H8 1733   2.168   3.863   5.148 -1.7746  1.0967 -1.7953
   76DG      O9 1734   1.653   3.746   4.884 -0.0269  0.3652  0.4368
   76DG     O10 1735   1.998   3.765   5.180 -0.5305 -0.6795 -0.0696
   76DG     C11 1736   1.563   3.673   4.962 -0.4201 -0.0383  0.0215
   76DG     C12 1737   1.903   3.729   5.284  0.1720 -0.5876 -0.3484
   76DG     H13 1738   1.511   3.605   4.895  2.0327 -1.7936 -0.2183
   76DG     H14 1739   1.502   3.740   5.024  0.2173 -1.7048  2.5927
   76DG     H15 1740   1.836   3.809   5.316  1.0983 -0.0669  0.3394
   76DG     H16 1741   1.964   3.709   5.372  0.5931  0.7280 -0.3119
   76DG     C17 1742   1.641   3.592   5.069 -0.1935  0.9352  0.0888
   76DG     C18 1743   1.809   3.616   5.248  0.5898 -0.0043  0.4215
   76DG     O19 1744   1.742   3.672   5.131 -0.2888  0.3527 -0.5983
   76DG     H20 1745   1.692   3.510   5.018  1.5257  0.6126  2.1723
   76DG     H21 1746   1.569   3.540   5.133 -0.2737 -0.2942 -0.9562
   76DG     H22 1747   1.860   3.526   5.215 -1.0491 -0.4076 -1.1710
   76DG     H23 1748   1.729   3.594   5.319 -1.5080  2.5296 -0.9642
   77DG      C1 1749   5.394   4.869   1.326  0.2589  0.2483 -0.1854
   77DG      C2 1750   5.246   5.371   1.806  0.6237 -0.3238 -1.0745
   77DG      H3 1751   5.302   4.831   1.282 -0.1530  1.7421 -0.6673
   77DG      H4 1752   5.429   4.804   1.406  1.1325 -1.3729 -1.8224
   77DG      H5 1753   5.468   4.873   1.247  0.6344  3.1251  0.1911
   77DG      H6 1754   5.324   5.330   1.869  0.0930  0.6616  0.3051
   77DG      H7 1755   5.270   5.477   1.799  1.7940 -0.3605  1.2321
   77DG      H8 1756   5.147   5.353   1.849 -0.1613 -0.5622 -2.8779
   77DG      O9 1757   5.381   5.009   1.366  0.2654  0.3750 -0.2206
   77DG     O10 1758   5.261   5.320   1.677  0.0460  0.5502  0.2175
   77DG     C11 1759   5.346   5.081   1.251 -0.2208  0.4398  0.2658
   77DG     C12 1760   5.165   5.381   1.587  0.0020  0.5007  0.0028
   77DG     H13 1761   5.267   5.026   1.199 -0.2851  0.5875  0.2060
   77DG     H14 1762   5.423   5.061   1.176 -0.2079 -0.0051  0.3928
   77DG     H15 1763   5.152   5.487   1.607  1.8265  0.4715  1.6804
   77DG     H16 1764   5.071   5.330   1.607  0.3617  0.2178  1.0579
   77DG     C17 1765   5.306   5.232   1.274  0.2440 -0.3831  0.6540
   77DG     C18 1766   5.210   5.371   1.441  0.2157  0.0020 -0.2918
   77DG     O19 1767   5.263   5.239   1.411  0.6542  0.0593  0.0354
   77DG     H20 1768   5.213   5.248   1.220  0.5118  1.5500  0.6978
   77DG     H21 1769   5.375   5.311   1.245 -0.7164  0.4239  0.5172
   77DG     H22 1770   5.129   5.404   1.376 -1.0072 -1.7852  0.2429
   77DG     H23 1771   5.295   5.439   1.445  1.7370 -1.8497  0.9757
   78DG      C1 1772   5.016   0.724   4.140  0.0074 -0.2513 -0.2580
   78DG      C2 1773   5.017   1.323   3.885 -0.2729 -0.6222  0.1139
   78DG      H3 1774   5.058   0.630   4.175 -0.8546 -1.0223 -1.2287
   78DG      H4 1775   5.001   0.691   4.037  0.2518 -0.8135 -0.1187
   78DG      H5 1776   4.918   0.730   4.187  0.4019 -1.3148  0.7475
   78DG      H6 1777   4.989   1.346   3.782 -0.0505 -3.2830 -0.6217
   78DG      H7 1778   4.973   1.386   3.962  1.1352 -2.9083  3.0172
   78DG      H8 1779   5.121   1.356   3.893 -0.3265 -0.5048  0.3163
   78DG      O9 1780   5.094   0.837   4.164  0.1840 -0.3881 -0.3168
   78DG     O10 1781   5.022   1.185   3.926  0.0829 -0.2779 -0.0923
   78DG     C11 1782   5.204   0.832   4.076 -0.0170 -0.2069  0.2405
   78DG     C12 1783   5.103   1.093   3.850  0.2276 -0.7251  0.5186
   78DG     H13 1784   5.174   0.807   3.974  0.3014 -0.7538  0.2785
   78DG     H14 1785   5.265   0.743   4.089  1.2079  0.4892 -0.4919
   78DG     H15 1786   5.090   1.108   3.742  0.3301 -0.2663  0.5677
   78DG     H16 1787   5.060   0.998   3.883  0.4970 -0.9294  0.2834
   78DG     C17 1788   5.305   0.945   4.073  0.0481 -0.4647 -0.3047
   78DG     C18 1789   5.247   1.098   3.896  0.6034 -0.2082  0.0948
   78DG     O19 1790   5.253   1.076   4.037 -0.2397 -0.2542 -0.1329
   78DG     H20 1791   5.394   0.918   4.017  1.0343  1.0233  0.4607
   78DG     H21 1792   5.332   0.949   4.179  0.3506 -3.0092 -0.2138
   78DG     H22 1793   5.308   1.019   3.851  0.2725 -0.4168  0.0048
   78DG     H23 1794   5.293   1.190   3.862 -0.5045  0.6539  0.8314
   79DG      C1 1795   4.417   1.355   0.750 -0.4892 -0.9528  0.8022
   79DG      C2 1796   3.842   1.661   0.813 -0.1144 -0.4275  0.5145
   79DG      H3 1797   4.361   1.369   0.657  1.3266 -1.6656 -0.4454
   79DG      H4 1798   4.406   1.255   0.790 -1.0094 -1.7824 -1.2897
   79DG      H5 1799   4.522   1.345   0.723 -1.1579 -1.9325 -1.7533
   79DG      H6 1800   3.790   1.586   0.872  0.0416  1.7794  3.6867
   79DG      H7 1801   3.787   1.755   0.812 -1.2745 -1.0388  2.3920
   79DG      H8 1802   3.849   1.634   0.707 -0.2876 -3.0384  1.0980
   79DG      O9 1803   4.383   1.463   0.827  0.8520  0.4697 -0.1924
   79DG     O10 1804   3.976   1.684   0.850 -0.1223 -0.6074  0.0094
   79DG     C11 1805   4.435   1.458   0.962  0.7404  0.5076  0.3515
   79DG     C12 1806   3.995   1.689   0.995 -0.0733  0.4775  0.0961
   79DG     H13 1807   4.543   1.470   0.964  0.6076  1.7530  1.4668
   79DG     H14 1808   4.409   1.365   1.013 -0.2535  0.0343 -0.9618
   79DG     H15 1809   3.936   1.617   1.052 -0.2561  2.1786  2.1812
   79DG     H16 1810   3.951   1.780   1.034 -3.3682 -1.0142  0.1687
   79DG     C17 1811   4.357   1.578   1.016 -0.6634 -0.9169  0.4379
   79DG     C18 1812   4.148   1.698   1.017 -0.4179  0.0239 -0.6833
   79DG     O19 1813   4.220   1.582   0.980 -0.3157  0.7504  0.1525
   79DG     H20 1814   4.391   1.667   0.965 -2.3403 -0.1699  0.5591
   79DG     H21 1815   4.384   1.587   1.121  0.8450  2.0451 -0.1010
   79DG     H22 1816   4.185   1.774   0.948 -1.2181  0.6463 -0.4274
   79DG     H23 1817   4.170   1.731   1.118 -1.3743 -0.7566 -0.2148
   80DG      C1 1818   3.083   1.011   1.904  0.0456  0.5540 -0.0225
   80DG      C2 1819   3.153   1.083   1.303 -0.0905 -0.0578  0.1650
   80DG      H3 1820   3.137   0.936   1.846  1.2422  1.7349 -0.4959
   80DG      H4 1821   2.976   1.001   1.887  0.0044  2.0004 -0.7753
   80DG      H5 1822   3.100   0.998   2.011 -1.6050  2.6682  0.5775
   80DG      H6 1823   3.197   1.049   1.209  2.6410  1.1782  0.9130
   80DG      H7 1824   3.046   1.060   1.303 -0.2592  0.6863 -0.2367
   80DG      H8 1825   3.169   1.191   1.305  0.4387 -0.1417  0.7264
   80DG      O9 1826   3.111   1.139   1.847  0.0114  0.3324  0.1287
   80DG     O10 1827   3.213   1.034   1.420  0.3013  0.0148 -0.1613
   80DG     C11 1828   3.239   1.198   1.873  0.3523  0.6706 -0.4807
   80DG     C12 1829   3.348   1.083   1.432  0.4432  0.5657  0.4543
   80DG     H13 1830   3.260   1.182   1.979  0.5941 -0.3443 -0.6711
   80DG     H14 1831   3.250   1.304   1.851 -1.1711  1.2679  1.3346
   80DG     H15 1832   3.353   1.191   1.418  2.1302  0.3523 -0.8999
   80DG     H16 1833   3.419   1.039   1.362 -1.3880  0.0568 -1.1921
   80DG     C17 1834   3.340   1.119   1.791 -0.1212 -0.1314 -0.8552
   80DG     C18 1835   3.390   1.056   1.573 -0.3182  0.3678 -1.0524
   80DG     O19 1836   3.303   1.126   1.655  0.3314  0.9325 -0.3265
   80DG     H20 1837   3.345   1.014   1.821 -1.4312 -0.3765 -1.4230
   80DG     H21 1838   3.439   1.157   1.813  0.5251 -1.5276 -1.2318
   80DG     H22 1839   3.382   0.951   1.603  3.6389  0.3968  0.6406
   80DG     H23 1840   3.494   1.083   1.586 -0.5486  0.5925  0.5116
   81DG      C1 1841   3.498   4.892   1.188 -0.0543  0.1161  0.4909
   81DG      C2 1842   3.038   4.813   1.666  0.2913 -0.5206  0.2986
   81DG      H3 1843   3.476   4.996   1.213  2.8181  0.8666  0.2237
   81DG      H4 1844   3.461   4.873   1.088  0.5590 -0.3687  0.3498
   81DG      H5 1845   3.604   4.866   1.192  0.2382  0.9878 -1.0316
   81DG      H6 1846   2.940   4.770   1.643 -0.6220  1.6868 -0.1990
   81DG      H7 1847   3.055   4.801   1.773 -1.7516  0.4588  0.7853
   81DG      H8 1848   3.041   4.921   1.653 -1.4079 -0.3034  1.3077
   81DG      O9 1849   3.430   4.798   1.276  1.0350 -0.0187  0.4312
   81DG     O10 1850   3.142   4.748   1.594  0.1668 -0.5003  0.3748
   81DG     C11 1851   3.491   4.672   1.297  0.1326 -0.0911  0.2014
   81DG     C12 1852   3.190   4.628   1.659 -0.6096 -0.3140 -0.1521
   81DG     H13 1853   3.571   4.672   1.372  0.1043  1.1585  0.2506
   81DG     H14 1854   3.534   4.628   1.207 -3.1553 -1.2700 -0.9388
   81DG     H15 1855   3.111   4.563   1.697  0.6608 -2.7320 -1.4462
   81DG     H16 1856   3.259   4.651   1.740  0.8224 -1.0944 -1.1085
   81DG     C17 1857   3.381   4.580   1.349  0.1672  0.3578  0.0278
   81DG     C18 1858   3.263   4.557   1.553  0.5459 -0.1264  0.3625
   81DG     O19 1859   3.343   4.645   1.472  0.0468  0.5396 -0.1155
   81DG     H20 1860   3.409   4.475   1.359 -0.5528  0.2841  1.3923
   81DG     H21 1861   3.289   4.574   1.290  0.5160  0.7833 -0.5686
   81DG     H22 1862   3.315   4.476   1.603 -0.5762  0.0424  1.8906
   81DG     H23 1863   3.189   4.520   1.482  0.0602  2.1474 -0.4254
   82DG      C1 1864   3.859   0.552   0.094  0.5040  0.0332  0.0522
   82DG      C2 1865   3.321   0.461  -0.310  0.0818 -0.3161 -0.4147
   82DG      H3 1866   3.926   0.624   0.140 -1.0703  2.5731 -1.3852
   82DG      H4 1867   3.898   0.450   0.086 -0.5754 -0.3770 -0.0976
   82DG      H5 1868   3.776   0.555   0.164  3.0325 -3.4399  3.6412
   82DG      H6 1869   3.306   0.418  -0.409  3.2799  0.3513 -1.3053
   82DG      H7 1870   3.315   0.387  -0.231 -3.3006 -2.0401 -2.0994
   82DG      H8 1871   3.238   0.528  -0.287  1.0094  1.0723 -0.9821
   82DG      O9 1872   3.820   0.596  -0.033  0.2487  0.6268  0.4660
   82DG     O10 1873   3.447   0.534  -0.305 -0.1783  0.3017  0.0067
   82DG     C11 1874   3.810   0.736  -0.033 -0.0921 -0.3239 -0.0767
   82DG     C12 1875   3.434   0.670  -0.310 -0.4080 -0.0297 -0.5436
   82DG     H13 1876   3.907   0.782  -0.014 -0.4310  0.2326  0.3484
   82DG     H14 1877   3.750   0.771   0.052  0.3448 -0.7019  0.3860
   82DG     H15 1878   3.375   0.705  -0.226 -0.7712 -2.1500  0.1414
   82DG     H16 1879   3.390   0.703  -0.404 -0.8159 -0.4747 -0.5074
   82DG     C17 1880   3.747   0.777  -0.165 -0.2272 -0.5457  0.3418
   82DG     C18 1881   3.563   0.744  -0.303 -0.2422  0.0590 -0.5530
   82DG     O19 1882   3.634   0.699  -0.186  0.7147  0.1133  0.1245
   82DG     H20 1883   3.819   0.765  -0.246  0.6839 -1.4613  1.2624
   82DG     H21 1884   3.728   0.884  -0.156  3.9146  0.4381 -0.8267
   82DG     H22 1885   3.623   0.732  -0.393  0.4344  0.8828 -0.2348
   82DG     H23 1886   3.547   0.850  -0.287 -0.9376 -0.2993  1.3302
   83DG      C1 1887   4.297   0.680   0.201 -0.2799 -0.0179 -0.3566
   83DG      C2 1888   4.781   0.191   0.174  0.1847  0.4920 -0.7536
   83DG      H3 1889   4.312   0.783   0.170  1.5030 -0.0097  0.4229
   83DG      H4 1890   4.220   0.676   0.278  0.0924  0.1329  0.0256
   83DG      H5 1891   4.264   0.626   0.112  0.9302  0.2628 -0.9825
   83DG      H6 1892   4.783   0.191   0.065  1.5601  1.5824 -0.7630
   83DG      H7 1893   4.878   0.152   0.205 -0.0992 -1.9286 -2.6368
   83DG      H8 1894   4.712   0.112   0.204 -0.8564  0.5513 -2.7778
   83DG      O9 1895   4.427   0.632   0.225  0.2230 -0.1377 -0.0239
   83DG     O10 1896   4.743   0.320   0.222  1.0584  0.1040  0.5934
   83DG     C11 1897   4.478   0.677   0.353  0.1367  0.7437  0.0542
   83DG     C12 1898   4.843   0.411   0.193  0.5739  0.4422 -0.4556
   83DG     H13 1899   4.452   0.598   0.423  0.9834  1.1098  0.7977
   83DG     H14 1900   4.426   0.766   0.389 -3.2358 -1.7577  1.9826
   83DG     H15 1901   4.853   0.416   0.084  0.6179 -2.2849 -0.6402
   83DG     H16 1902   4.938   0.381   0.236  0.3921 -0.6139 -0.7704
   83DG     C17 1903   4.632   0.674   0.351  0.2053 -0.0663  0.0212
   83DG     C18 1904   4.814   0.542   0.260 -0.1826 -0.4302  0.4493
   83DG     O19 1905   4.678   0.556   0.278  0.6249  0.5471 -0.6129
   83DG     H20 1906   4.674   0.699   0.448 -1.7108  1.0190  0.6128
   83DG     H21 1907   4.657   0.759   0.287 -0.2552 -0.3035 -0.4787
   83DG     H22 1908   4.866   0.542   0.356 -0.3955 -2.5169  0.6254
   83DG     H23 1909   4.867   0.620   0.205 -0.1499 -0.6088  0.2270
   84DG      C1 1910   3.456   1.953   2.753  0.2038  0.4688 -0.7535
   84DG      C2 1911   2.955   1.557   2.459 -0.2165  0.3578  0.7529
   84DG      H3 1912   3.520   1.965   2.841  1.6683  0.3113 -1.7680
   84DG      H4 1913   3.436   2.056   2.724  0.0341  0.5983 -0.1943
   84DG      H5 1914   3.512   1.901   2.676  1.6769  0.8035  0.0560
   84DG      H6 1915   2.957   1.619   2.370  0.3585  2.6796  2.3038
   84DG      H7 1916   3.025   1.475   2.440  0.7187  1.3837 -0.3478
   84DG      H8 1917   2.855   1.515   2.448  0.6367 -1.6441  0.0778
   84DG      O9 1918   3.348   1.873   2.780  0.8846  0.0630 -0.8468
   84DG     O10 1919   2.990   1.622   2.580  0.8363 -0.3316  0.0480
   84DG     C11 1920   3.368   1.760   2.865 -0.3635 -0.0711  0.4019
   84DG     C12 1921   3.013   1.530   2.689 -0.1051  1.0764  0.1730
   84DG     H13 1922   3.415   1.795   2.957 -2.0391  2.1455  0.4937
   84DG     H14 1923   3.438   1.696   2.811 -2.7550 -2.2515 -0.3357
   84DG     H15 1924   3.099   1.470   2.659  0.8624  2.4277  0.1251
   84DG     H16 1925   2.928   1.466   2.710  0.7704 -0.4302 -0.7166
   84DG     C17 1926   3.235   1.688   2.908 -0.0947 -0.0200  0.1325
   84DG     C18 1927   3.036   1.606   2.817 -0.0427  0.4820 -0.3255
   84DG     O19 1928   3.152   1.681   2.797  0.2898 -0.0293  0.2946
   84DG     H20 1929   3.175   1.742   2.981 -2.3982  0.3118 -1.8834
   84DG     H21 1930   3.262   1.592   2.953  0.9103  0.4892  0.6593
   84DG     H22 1931   2.954   1.673   2.843 -0.6603  0.2281 -1.5428
   84DG     H23 1932   3.039   1.533   2.898 -0.5175  0.9275  0.0968
   85DG      C1 1933   3.888   3.278   0.871  0.2763 -0.2265 -0.3161
   85DG      C2 1934   3.437   3.255   0.405 -0.3141 -0.3419  0.0568
   85DG      H3 1935   3.953   3.351   0.918  0.2102 -0.6857  0.5015
   85DG      H4 1936   3.931   3.252   0.774 -0.6898  1.2678 -1.1791
   85DG      H5 1937   3.890   3.184   0.927 -1.4873 -0.4518 -0.5584
   85DG      H6 1938   3.536   3.259   0.359  0.6205 -0.0939  1.9524
   85DG      H7 1939   3.371   3.190   0.347 -1.8906  0.4938  0.8565
   85DG      H8 1940   3.390   3.353   0.410  1.2474  0.4224  0.5387
   85DG      O9 1941   3.757   3.310   0.834 -0.3211  0.5769 -0.2641
   85DG     O10 1942   3.464   3.214   0.533 -0.2622 -0.2382 -0.6460
   85DG     C11 1943   3.672   3.317   0.941 -0.2295 -0.0507 -0.7371
   85DG     C12 1944   3.354   3.189   0.625 -0.2880  0.0835  0.5426
   85DG     H13 1945   3.627   3.416   0.934  0.9865  0.5777  0.0592
   85DG     H14 1946   3.718   3.297   1.037  0.2088  0.0332 -0.9263
   85DG     H15 1947   3.283   3.119   0.581  0.0803 -0.0603  0.1684
   85DG     H16 1948   3.289   3.276   0.628 -0.2735  0.0788  1.6832
   85DG     C17 1949   3.560   3.215   0.930  0.1275  0.1982 -0.5282
   85DG     C18 1950   3.399   3.153   0.765 -0.2942 -0.0959 -0.4349
   85DG     O19 1951   3.513   3.238   0.800 -0.5587  0.2318 -0.2648
   85DG     H20 1952   3.477   3.236   0.997 -0.3165 -0.4849 -0.8625
   85DG     H21 1953   3.599   3.116   0.952 -0.7335 -0.3842 -1.5117
   85DG     H22 1954   3.317   3.153   0.836  1.0117 -1.2074  1.1428
   85DG     H23 1955   3.426   3.049   0.750 -2.1598 -0.6184 -0.3924
   86DG      C1 1956   4.266   5.172   5.091  0.6744  0.1797  0.3137
   86DG      C2 1957   4.808   5.554   4.967 -0.1512 -0.4203  0.5359
   86DG      H3 1958   4.315   5.078   5.120  0.6677  0.6209  1.8241
   86DG      H4 1959   4.169   5.143   5.052  0.4846 -1.0629  1.6139
   86DG      H5 1960   4.247   5.233   5.179 -2.3923  0.2392 -0.3102
   86DG      H6 1961   4.767   5.643   5.015  2.1306  0.1764  1.5302
   86DG      H7 1962   4.837   5.479   5.041  0.3681  0.2072  0.9852
   86DG      H8 1963   4.902   5.594   4.929 -1.8276  1.8888 -1.5408
   86DG      O9 1964   4.346   5.244   4.995  0.4235  0.3638  0.7038
   86DG     O10 1965   4.697   5.529   4.881  0.3330 -0.7364  0.2519
   86DG     C11 1966   4.369   5.165   4.874 -0.5289 -0.6709 -0.3512
   86DG     C12 1967   4.727   5.452   4.763  0.1222  0.3174 -0.0109
   86DG     H13 1968   4.277   5.123   4.834  0.0007 -4.3030  1.8378
   86DG     H14 1969   4.424   5.072   4.885  0.5630 -0.3806 -2.7124
   86DG     H15 1970   4.797   5.372   4.789  0.0492 -0.4583 -1.9717
   86DG     H16 1971   4.785   5.508   4.689  0.4837 -0.2304 -0.1534
   86DG     C17 1972   4.423   5.257   4.758  0.1110 -0.0487  0.5702
   86DG     C18 1973   4.598   5.404   4.697 -0.0593  0.3617 -0.4759
   86DG     O19 1974   4.535   5.329   4.797  0.3405 -0.1999  0.2314
   86DG     H20 1975   4.342   5.327   4.737 -0.8141 -0.7250  1.7733
   86DG     H21 1976   4.446   5.195   4.672  1.6732  1.3035 -0.0474
   86DG     H22 1977   4.530   5.485   4.670 -1.5683 -0.7588 -0.1648
   86DG     H23 1978   4.602   5.343   4.607  1.4991 -0.1060 -0.1283
   87DG      C1 1979   4.604   3.762   4.275 -0.5185 -0.3350  0.1949
   87DG      C2 1980   4.123   3.251   4.045  0.3763 -0.4291  0.6591
   87DG      H3 1981   4.607   3.840   4.352 -2.5201  1.2994 -1.2599
   87DG      H4 1982   4.621   3.794   4.172 -1.7866 -1.3395 -0.3530
   87DG      H5 1983   4.698   3.708   4.287 -2.0106 -3.0758  0.1949
   87DG      H6 1984   4.127   3.291   3.944 -0.4099 -2.7387 -0.3759
   87DG      H7 1985   4.170   3.152   4.041 -1.8709 -1.5547 -2.9280
   87DG      H8 1986   4.016   3.237   4.063  0.0655 -0.5402 -1.0597
   87DG      O9 1987   4.484   3.687   4.287  0.0537 -0.5745 -0.2587
   87DG     O10 1988   4.177   3.341   4.139  0.2735 -0.3327  0.0193
   87DG     C11 1989   4.484   3.620   4.410  0.4084  0.1839  0.3227
   87DG     C12 1990   4.164   3.298   4.274 -0.1271  0.3185  0.1469
   87DG     H13 1991   4.513   3.689   4.490 -2.7160  4.3769 -1.7272
   87DG     H14 1992   4.539   3.527   4.414  1.7572  0.8562 -1.5039
   87DG     H15 1993   4.231   3.214   4.292  0.1930  0.9212  2.0041
   87DG     H16 1994   4.062   3.263   4.288  0.7814 -2.1706  1.0263
   87DG     C17 1995   4.334   3.581   4.441  0.4444 -0.4226 -0.6499
   87DG     C18 1996   4.181   3.411   4.382 -0.2326 -0.3278 -0.1466
   87DG     O19 1997   4.302   3.484   4.346 -0.4553 -0.6141 -0.1674
   87DG     H20 1998   4.272   3.666   4.411  0.7881 -0.5047 -1.6448
   87DG     H21 1999   4.325   3.553   4.546  0.7234  0.7945 -0.2785
   87DG     H22 2000   4.089   3.467   4.394 -0.7826 -1.7139  3.3014
   87DG     H23 2001   4.192   3.362   4.478  1.3361 -0.1985 -0.2343
   88DG      C1 2002   3.524   0.996   4.482  0.6339  0.1480 -0.0750
   88DG      C2 2003   3.643   1.395   3.886  0.3178 -0.0170 -0.6745
   88DG      H3 2004   3.499   0.991   4.588  2.1597  1.4323  0.3890
   88DG      H4 2005   3.628   0.969   4.470  0.7474  0.1237  0.8399
   88DG      H5 2006   3.446   0.943   4.427  0.7514  0.6952 -0.7789
   88DG      H6 2007   3.731   1.436   3.838 -0.9102  1.7218 -1.5260
   88DG      H7 2008   3.630   1.292   3.850 -2.9948  0.2966 -0.6700
   88DG      H8 2009   3.563   1.460   3.852 -0.1980  0.7851  1.8583
   88DG      O9 2010   3.530   1.134   4.442 -0.1016 -0.2177  0.3005
   88DG     O10 2011   3.612   1.393   4.027 -0.0899  0.0412 -0.4945
   88DG     C11 2012   3.631   1.215   4.494 -0.0921 -0.6217  0.4269
   88DG     C12 2013   3.671   1.501   4.097  0.3933 -0.2754  0.7490
   88DG     H13 2014   3.721   1.166   4.458  0.5383  0.4606  0.5153
   88DG     H14 2015   3.628   1.211   4.603  2.3116 -0.3733  0.5471
   88DG     H15 2016   3.651   1.597   4.049 -1.6344 -0.1862  1.6873
   88DG     H16 2017   3.780   1.492   4.087  0.3981  0.9529 -0.8256
   88DG     C17 2018   3.619   1.360   4.442 -0.7243 -0.2041 -0.5598
   88DG     C18 2019   3.620   1.500   4.248 -0.2085 -0.5184  0.5978
   88DG     O19 2020   3.638   1.373   4.304 -0.2367 -0.1868 -0.5239
   88DG     H20 2021   3.694   1.416   4.497  0.5250 -1.8811 -0.4676
   88DG     H21 2022   3.521   1.404   4.460 -0.2724  0.9744 -0.8785
   88DG     H22 2023   3.678   1.575   4.302  4.2311 -2.4982 -0.9452
   88DG     H23 2024   3.514   1.524   4.249  0.2245  2.0536 -2.2383
   89DG      C1 2025   2.109   4.582   5.225 -0.8166 -0.1734 -0.1254
   89DG      C2 2026   1.642   4.531   5.648  0.3038 -0.6758  0.0208
   89DG      H3 2027   2.040   4.624   5.152  0.4552  0.1381 -1.1867
   89DG      H4 2028   2.096   4.476   5.249  0.8652 -0.0542  1.5683
   89DG      H5 2029   2.214   4.598   5.198 -0.3090 -1.8689  0.6524
   89DG      H6 2030   1.555   4.554   5.586  0.5265 -1.8638 -0.7687
   89DG      H7 2031   1.665   4.425   5.637 -1.7830 -1.2171  0.4845
   89DG      H8 2032   1.609   4.524   5.752 -1.5009 -0.1216 -0.4823
   89DG      O9 2033   2.087   4.649   5.346  0.1240  0.7791 -0.0823
   89DG     O10 2034   1.745   4.626   5.644  0.0116  0.0719  0.1650
   89DG     C11 2035   2.075   4.794   5.330 -0.1481  0.3568 -0.2136
   89DG     C12 2036   1.696   4.756   5.625 -0.1261 -0.5781  0.1195
   89DG     H13 2037   2.021   4.812   5.237 -1.6218 -0.5746  0.4283
   89DG     H14 2038   2.171   4.836   5.303 -1.0699  0.4279 -3.8971
   89DG     H15 2039   1.653   4.786   5.720 -0.5652  1.1783 -0.6001
   89DG     H16 2040   1.613   4.763   5.555  0.1548  2.0537 -0.0612
   89DG     C17 2041   2.010   4.851   5.455 -0.3775 -0.0906 -0.0622
   89DG     C18 2042   1.817   4.839   5.589 -0.5457  0.0321  0.2935
   89DG     O19 2043   1.896   4.782   5.483  0.6625  0.2258 -0.4876
   89DG     H20 2044   1.997   4.958   5.445  0.9809 -0.0260 -1.5997
   89DG     H21 2045   2.087   4.845   5.533 -1.1557 -0.5245  0.6863
   89DG     H22 2046   1.782   4.938   5.559  1.4230 -0.0627 -2.6717
   89DG     H23 2047   1.874   4.845   5.682 -1.1832  1.5629  0.6212
   90DG      C1 2048   5.104   2.683   3.168  0.7203  0.6497 -0.2161
   90DG      C2 2049   4.266   2.781   3.455 -0.0997  0.3788 -0.4964
   90DG      H3 2050   5.079   2.742   3.080 -0.8829  0.3957  0.0372
   90DG      H4 2051   5.196   2.628   3.153  2.0728  2.5800  0.6148
   90DG      H5 2052   5.126   2.748   3.252  1.8942  0.7425 -0.5772
   90DG      H6 2053   4.217   2.713   3.525 -0.1168 -0.0720 -0.9475
   90DG      H7 2054   4.303   2.859   3.522 -0.7404 -1.6196  2.4195
   90DG      H8 2055   4.197   2.833   3.389  1.1085  1.1590 -1.1783
   90DG      O9 2056   4.990   2.598   3.187  0.2303  0.6985  0.8698
   90DG     O10 2057   4.368   2.715   3.386  0.4516  0.0826  0.4407
   90DG     C11 2058   4.878   2.674   3.226  0.0459  0.3415  0.4912
   90DG     C12 2059   4.463   2.648   3.467 -0.0536  0.0753  0.4873
   90DG     H13 2060   4.848   2.756   3.161 -0.4698 -0.8628 -0.8403
   90DG     H14 2061   4.894   2.705   3.329 -4.1653  0.1212  1.4086
   90DG     H15 2062   4.410   2.574   3.528 -3.0453  1.4917 -0.2217
   90DG     H16 2063   4.525   2.711   3.531  0.9219  0.4227 -0.7821
   90DG     C17 2064   4.758   2.579   3.254 -0.2571  0.6918 -0.2571
   90DG     C18 2065   4.552   2.574   3.374  0.1794 -0.3901 -0.4111
   90DG     O19 2066   4.661   2.653   3.327 -0.9569  0.6326  0.1866
   90DG     H20 2067   4.783   2.488   3.309 -2.2759  0.7357  0.8428
   90DG     H21 2068   4.718   2.542   3.159  0.3644 -0.3706 -0.1165
   90DG     H22 2069   4.596   2.487   3.422  0.8530  0.1606  0.0077
   90DG     H23 2070   4.494   2.549   3.286  1.3390 -0.7690 -1.0911
   91DG      C1 2071   5.262   2.697   4.019 -0.9740 -0.3797 -0.1000
   91DG      C2 2072   4.999   2.182   3.807 -0.1019 -0.1294  0.6709
   91DG      H3 2073   5.308   2.612   3.968  3.5507  2.3118 -0.9642
   91DG      H4 2074   5.329   2.730   4.097 -0.1106 -0.5604 -0.7536
   91DG      H5 2075   5.278   2.769   3.939  2.9540 -1.1232 -0.1699
   91DG      H6 2076   4.951   2.235   3.725  1.3388 -0.9827 -0.7975
   91DG      H7 2077   5.069   2.114   3.758  2.4080  1.6084  1.6453
   91DG      H8 2078   4.931   2.127   3.872 -1.0662  1.6658  1.2550
   91DG      O9 2079   5.124   2.689   4.065  0.0025 -0.0542 -0.5658
   91DG     O10 2080   5.072   2.275   3.881 -0.1256  0.6476 -0.2528
   91DG     C11 2081   5.108   2.639   4.197  0.0206  0.3830  0.0570
   91DG     C12 2082   5.122   2.214   3.999  0.5317  0.0309 -0.6093
   91DG     H13 2083   5.004   2.643   4.228  0.3865  2.8291  1.2800
   91DG     H14 2084   5.152   2.715   4.263  0.7886  0.5804 -0.6645
   91DG     H15 2085   5.199   2.142   3.970 -0.3958 -0.8762 -0.8908
   91DG     H16 2086   5.042   2.166   4.055 -0.5480  0.5291 -1.6763
   91DG     C17 2087   5.167   2.500   4.219  0.2945 -0.4382  0.4151
   91DG     C18 2088   5.202   2.309   4.091  0.1241 -0.2347  0.7135
   91DG     O19 2089   5.123   2.421   4.111  0.3040 -0.3252  0.2937
   91DG     H20 2090   5.135   2.443   4.307 -0.3779 -3.0129 -1.3940
   91DG     H21 2091   5.274   2.520   4.224 -0.2316  3.1914 -0.1751
   91DG     H22 2092   5.224   2.262   4.187 -1.8589 -0.5671  1.0584
   91DG     H23 2093   5.291   2.343   4.039  0.6335 -4.2913 -1.5123
   92DG      C1 2094   4.692   0.295   3.310 -0.2124  0.2656 -0.0529
   92DG      C2 2095   4.556  -0.336   3.301 -0.3872 -0.4981  0.6268
   92DG      H3 2096   4.734   0.267   3.406 -0.8847 -2.2113 -0.4141
   92DG      H4 2097   4.586   0.316   3.319 -0.2148 -0.1978  1.0426
   92DG      H5 2098   4.756   0.382   3.293  1.7298 -1.3138 -1.3421
   92DG      H6 2099   4.568  -0.431   3.250  1.8451  0.9011 -1.6882
   92DG      H7 2100   4.589  -0.349   3.404 -3.0877  0.1605  1.6617
   92DG      H8 2101   4.451  -0.314   3.319 -0.1483 -1.3046  3.5036
   92DG      O9 2102   4.711   0.191   3.213  0.4529 -0.8206  0.0712
   92DG     O10 2103   4.630  -0.241   3.221 -0.2939  0.1374 -0.2495
   92DG     C11 2104   4.673   0.229   3.081  0.1710  0.2244  0.5002
   92DG     C12 2105   4.575  -0.234   3.087  0.5835  0.4103  0.1361
   92DG     H13 2106   4.726   0.315   3.040 -0.6305  0.4491 -0.0771
   92DG     H14 2107   4.570   0.263   3.074  0.7188  2.1081  1.1808
   92DG     H15 2108   4.470  -0.203   3.088  1.0916  2.2307  1.4488
   92DG     H16 2109   4.587  -0.332   3.041  0.5083  0.5929 -0.2785
   92DG     C17 2110   4.684   0.115   2.976 -0.0142  0.5812 -0.1164
   92DG     C18 2111   4.638  -0.127   2.998 -0.0486 -0.5112  0.0208
   92DG     O19 2112   4.615   0.008   3.048 -0.3962 -0.9184  0.4350
   92DG     H20 2113   4.787   0.083   2.963 -0.8158 -1.6982 -1.2697
   92DG     H21 2114   4.631   0.129   2.882  0.2646 -0.5386 -0.4501
   92DG     H22 2115   4.743  -0.155   2.996 -0.0632 -0.5442 -0.5165
   92DG     H23 2116   4.592  -0.135   2.899 -0.4711 -1.2520  0.2693
   93DG      C1 2117   0.405   5.199   3.531  0.2835  0.2546 -0.3688
   93DG      C2 2118   0.271   4.470   3.773  0.2450  0.3503 -0.4549
   93DG      H3 2119   0.432   5.271   3.608  0.5119  0.0977 -0.3001
   93DG      H4 2120   0.440   5.245   3.439  0.9895 -0.5377 -0.5114
   93DG      H5 2121   0.452   5.101   3.542  0.4396  0.1901 -1.5021
   93DG      H6 2122   0.164   4.461   3.793 -0.4904  0.5655 -3.7894
   93DG      H7 2123   0.296   4.448   3.669  2.2901  0.4063 -0.0112
   93DG      H8 2124   0.333   4.399   3.829 -0.3005 -2.0456 -2.6807
   93DG      O9 2125   0.263   5.183   3.525 -0.1116  0.0573  0.0115
   93DG     O10 2126   0.328   4.601   3.780 -0.7138 -0.0180 -0.0407
   93DG     C11 2127   0.199   5.168   3.649  0.3253  0.1394 -0.4111
   93DG     C12 2128   0.246   4.690   3.713 -0.8198  0.8125 -0.4774
   93DG     H13 2129   0.093   5.153   3.625 -0.0629  1.8203  0.1034
   93DG     H14 2130   0.200   5.265   3.698 -0.5942 -1.5059  3.1526
   93DG     H15 2131   0.143   4.678   3.747 -0.4926 -0.9424 -0.0011
   93DG     H16 2132   0.252   4.669   3.606  0.9228 -0.5767 -0.1394
   93DG     C17 2133   0.248   5.055   3.740 -0.4410  0.1453  0.6339
   93DG     C18 2134   0.302   4.823   3.751  0.5376 -0.3039 -0.6806
   93DG     O19 2135   0.222   4.923   3.686 -0.2468  0.0219 -0.1566
   93DG     H20 2136   0.210   5.074   3.840  1.0275  4.2330  0.6177
   93DG     H21 2137   0.356   5.069   3.750 -0.6555  1.3257  1.5488
   93DG     H22 2138   0.311   4.831   3.860 -1.1244 -0.4540 -0.5079
   93DG     H23 2139   0.407   4.826   3.723  0.4412 -1.2969 -1.1551
   94DG      C1 2140   5.052   5.097   5.463 -0.4071 -0.0177 -0.0419
   94DG      C2 2141   4.495   4.791   5.290 -0.3206  0.1001 -0.8355
   94DG      H3 2142   4.990   5.155   5.532 -0.2981  0.0063  0.0382
   94DG      H4 2143   5.035   5.158   5.375 -0.2897 -0.3700 -0.3095
   94DG      H5 2144   5.157   5.086   5.490  0.1869 -1.8551 -2.7105
   94DG      H6 2145   4.486   4.848   5.198 -1.1125  1.0656 -0.1952
   94DG      H7 2146   4.427   4.706   5.296  1.5071 -1.3580  0.1922
   94DG      H8 2147   4.460   4.865   5.363  0.7464  2.5276 -2.6677
   94DG      O9 2148   4.996   4.962   5.455  0.7705  0.2743 -0.2946
   94DG     O10 2149   4.631   4.761   5.317  0.2533  0.2903  0.4846
   94DG     C11 2150   5.067   4.880   5.364  0.5540 -0.5718 -0.1261
   94DG     C12 2151   4.682   4.642   5.262 -0.5025 -0.2080 -1.0970
   94DG     H13 2152   5.169   4.885   5.403  0.9819  1.6903 -1.3914
   94DG     H14 2153   5.075   4.907   5.259  1.9647 -0.3865  0.0015
   94DG     H15 2154   4.692   4.657   5.154 -0.5984  0.9736 -0.9618
   94DG     H16 2155   4.613   4.558   5.269  0.2414 -0.7880 -0.5614
   94DG     C17 2156   5.019   4.733   5.373  0.1883  0.0307  0.0127
   94DG     C18 2157   4.813   4.621   5.346 -0.3226 -0.1878  0.7496
   94DG     O19 2158   4.895   4.732   5.314  0.4289 -0.0427  0.4749
   94DG     H20 2159   5.029   4.687   5.471 -2.8581  1.4141  1.1199
   94DG     H21 2160   5.086   4.670   5.316  0.1032 -1.2046  1.2226
   94DG     H22 2161   4.793   4.614   5.453 -0.9212 -1.8021  0.5518
   94DG     H23 2162   4.853   4.529   5.305 -1.6590 -0.3842 -0.1761
   95DG      C1 2163   5.206   1.822   5.009  0.3475 -1.0007  0.5885
   95DG      C2 2164   5.717   1.369   5.010 -0.1272 -0.3006 -0.4422
   95DG      H3 2165   5.264   1.894   5.067  1.1580 -1.2713  0.1370
   95DG      H4 2166   5.104   1.859   5.010  0.5456  0.2056 -3.7533
   95DG      H5 2167   5.236   1.831   4.905 -1.8297  0.4670  0.0244
   95DG      H6 2168   5.796   1.415   5.069 -0.2234  1.0617 -1.3300
   95DG      H7 2169   5.747   1.265   5.008 -0.9166 -0.6031  1.3541
   95DG      H8 2170   5.727   1.396   4.905  0.6805 -1.4081 -0.6636
   95DG      O9 2171   5.226   1.693   5.054  0.3850  0.0448 -0.1737
   95DG     O10 2172   5.587   1.385   5.057  0.3621 -0.4371 -0.0032
   95DG     C11 2173   5.216   1.689   5.194  0.1646  0.5021 -0.4859
   95DG     C12 2174   5.557   1.361   5.188  0.5162  0.3038  0.4192
   95DG     H13 2175   5.132   1.737   5.243 -1.4689 -2.4973 -0.1150
   95DG     H14 2176   5.306   1.745   5.222  2.6589 -2.7115 -1.3989
   95DG     H15 2177   5.615   1.438   5.239  0.7759  0.9677 -0.8409
   95DG     H16 2178   5.590   1.262   5.221  0.3537 -0.3973 -1.4172
   95DG     C17 2179   5.247   1.540   5.239 -0.0522 -0.2479  1.7204
   95DG     C18 2180   5.409   1.374   5.230 -0.6636  0.5629  0.8356
   95DG     O19 2181   5.363   1.494   5.162  0.3902  0.3456  0.4078
   95DG     H20 2182   5.159   1.478   5.219 -0.2652  0.5867 -0.0529
   95DG     H21 2183   5.271   1.544   5.346  0.2567 -0.6283  1.6703
   95DG     H22 2184   5.351   1.294   5.186 -1.3833  0.2803  2.2480
   95DG     H23 2185   5.401   1.378   5.339 -0.7080 -2.5114  1.0156
   96DG      C1 2186   3.438   1.324   0.142 -1.3051  0.3704  0.3554
   96DG      C2 2187   4.058   1.796   0.226 -0.3864 -0.1967  0.2131
   96DG      H3 2188   3.460   1.232   0.088 -1.0256  1.3833 -1.3171
   96DG      H4 2189   3.341   1.369   0.120  0.2842  3.0160 -1.9435
   96DG      H5 2190   3.443   1.289   0.245  0.9630  1.7488  0.8048
   96DG      H6 2191   4.066   1.762   0.330 -0.0856 -2.5258 -0.5128
   96DG      H7 2192   4.161   1.796   0.192 -0.4537  0.8861 -0.0060
   96DG      H8 2193   4.012   1.894   0.234 -0.3436 -0.0372 -1.2699
   96DG      O9 2194   3.534   1.430   0.134 -0.4593  0.4134  0.0534
   96DG     O10 2195   3.970   1.704   0.154 -0.6560  0.2055 -0.1880
   96DG     C11 2196   3.527   1.484   0.001  0.1793  0.1156 -0.5669
   96DG     C12 2197   3.928   1.752   0.025  0.6977  0.2848 -0.6641
   96DG     H13 2198   3.463   1.571   0.004 -4.0540 -2.7509  0.8231
   96DG     H14 2199   3.465   1.426  -0.068  1.0503  1.0957 -2.2533
   96DG     H15 2200   4.016   1.782  -0.032  1.4829 -2.4854 -1.0801
   96DG     H16 2201   3.857   1.830   0.051  0.7477 -0.8266  3.6325
   96DG     C17 2202   3.662   1.513  -0.064 -0.0395  0.1998 -0.3409
   96DG     C18 2203   3.858   1.639  -0.051  0.4128 -0.2198 -0.2972
   96DG     O19 2204   3.744   1.594   0.018  0.4010  0.0883  0.1539
   96DG     H20 2205   3.652   1.569  -0.157 -1.9750  0.0453 -0.2727
   96DG     H21 2206   3.718   1.420  -0.073 -0.3295 -0.2106  1.5073
   96DG     H22 2207   3.843   1.655  -0.158 -1.7046 -0.7844 -0.1275
   96DG     H23 2208   3.918   1.548  -0.046 -2.0937 -1.9840  4.7635
   97DG      C1 2209   4.373   5.258   1.811 -0.8144 -0.2168 -0.4650
   97DG      C2 2210   3.763   5.404   1.897  0.2103  0.7116 -0.3296
   97DG      H3 2211   4.469   5.209   1.825 -0.5734  0.5177  0.5108
   97DG      H4 2212   4.383   5.366   1.810  0.5495 -0.3015  0.7411
   97DG      H5 2213   4.343   5.217   1.714  0.5901  0.5808 -1.2658
   97DG      H6 2214   3.745   5.506   1.863 -2.1845  0.2761 -0.5353
   97DG      H7 2215   3.736   5.342   1.812 -1.9739 -0.6247  1.2328
   97DG      H8 2216   3.688   5.378   1.972  0.7637  0.7300  0.2346
   97DG      O9 2217   4.285   5.211   1.912 -0.4974  0.4891  0.1662
   97DG     O10 2218   3.894   5.384   1.944 -0.5232  0.8049  0.2945
   97DG     C11 2219   4.320   5.253   2.043 -0.0445  0.4431  0.9353
   97DG     C12 2220   3.932   5.456   2.062  0.1056  0.5697  0.6002
   97DG     H13 2221   4.351   5.357   2.053 -2.2526  1.0439  2.3599
   97DG     H14 2222   4.411   5.201   2.073  0.9365  1.4110 -0.2558
   97DG     H15 2223   3.860   5.437   2.141 -1.4582 -1.5273 -1.2115
   97DG     H16 2224   3.931   5.563   2.039  0.0978  0.6281  0.8723
   97DG     C17 2225   4.208   5.217   2.146  0.3938  0.5452  0.0701
   97DG     C18 2226   4.072   5.413   2.104  0.8661  0.1586 -0.0120
   97DG     O19 2227   4.081   5.274   2.108  0.4866  0.1850 -0.1666
   97DG     H20 2228   4.224   5.250   2.249  0.4319 -1.6217  0.8134
   97DG     H21 2229   4.199   5.109   2.145 -0.8078  0.6358 -1.1348
   97DG     H22 2230   4.159   5.456   2.056  1.0994  0.1198  0.3754
   97DG     H23 2231   4.075   5.448   2.207 -0.0131 -1.0184  0.4383
   98DG      C1 2232   2.954   3.867   4.846 -0.1116  0.1865 -0.9913
   98DG      C2 2233   3.008   3.754   4.195  0.2957 -0.4751  0.7019
   98DG      H3 2234   2.965   3.972   4.871 -0.3635 -0.0362  0.1004
   98DG      H4 2235   3.053   3.838   4.812  0.4705 -0.3261  1.0136
   98DG      H5 2236   2.939   3.810   4.938  1.0350  1.2069 -0.1421
   98DG      H6 2237   3.045   3.855   4.179  0.9512 -1.1012 -2.3258
   98DG      H7 2238   3.102   3.709   4.227  1.0955  0.4347 -0.2828
   98DG      H8 2239   2.967   3.709   4.104 -0.8614  2.2494 -0.2599
   98DG      O9 2240   2.867   3.840   4.744  0.5696 -0.1289  0.4860
   98DG     O10 2241   2.918   3.740   4.299  0.5001  0.1834 -0.0491
   98DG     C11 2242   2.750   3.915   4.739 -0.0023  0.4093  0.2534
   98DG     C12 2243   2.796   3.810   4.275 -0.0675 -0.6839  0.6132
   98DG     H13 2244   2.770   4.021   4.720  1.5312  0.1985  0.5524
   98DG     H14 2245   2.700   3.909   4.835 -0.7271  1.2633 -0.0487
   98DG     H15 2246   2.739   3.780   4.187  0.5153  0.5217 -0.1996
   98DG     H16 2247   2.814   3.913   4.245  1.2526 -1.5877 -2.0186
   98DG     C17 2248   2.658   3.864   4.621 -1.0835  0.5716  0.1375
   98DG     C18 2249   2.695   3.794   4.389 -0.2789  0.2177 -0.4941
   98DG     O19 2250   2.749   3.854   4.510 -0.4841 -0.0878  0.3893
   98DG     H20 2251   2.564   3.919   4.615 -1.6103 -0.0708  1.8496
   98DG     H21 2252   2.624   3.760   4.631  0.4398 -0.2611 -2.4277
   98DG     H22 2253   2.597   3.838   4.373 -1.3762 -1.2390  1.8055
   98DG     H23 2254   2.680   3.689   4.411 -1.1625  0.1120 -1.5732
   99DG      C1 2255   1.072   0.397   4.480 -0.0004 -0.8148  0.0147
   99DG      C2 2256   0.594  -0.065   4.323 -0.2719  0.8313 -0.1598
   99DG      H3 2257   1.128   0.459   4.410  1.7032  0.9110  2.7046
   99DG      H4 2258   1.128   0.306   4.501  1.9403  0.5030  0.8665
   99DG      H5 2259   1.072   0.453   4.574  3.1089 -0.7004  0.0412
   99DG      H6 2260   0.519  -0.074   4.245  0.2884 -0.1408 -0.6092
   99DG      H7 2261   0.685  -0.107   4.278 -1.4410  0.6104 -2.4758
   99DG      H8 2262   0.557  -0.116   4.412  0.4201  1.6398  0.6084
   99DG      O9 2263   0.943   0.369   4.425 -0.8009  0.1267 -0.1779
   99DG     O10 2264   0.613   0.077   4.345  0.2874 -0.4585 -0.2955
   99DG     C11 2265   0.866   0.482   4.384  0.2307  0.3648  0.4883
   99DG     C12 2266   0.507   0.163   4.327 -0.1002 -0.2002  0.1593
   99DG     H13 2267   0.885   0.486   4.276  2.6930  0.1099  0.8491
   99DG     H14 2268   0.901   0.570   4.437 -1.4522  1.5261 -0.2606
   99DG     H15 2269   0.417   0.123   4.373  0.3552  0.9348  2.1325
   99DG     H16 2270   0.483   0.178   4.221 -0.0749 -2.6474 -0.2424
   99DG     C17 2271   0.724   0.458   4.428  1.1437  0.1413 -0.1208
   99DG     C18 2272   0.546   0.305   4.378 -0.0646 -0.1931 -0.0892
   99DG     O19 2273   0.682   0.339   4.361  0.1107  0.2918 -0.2464
   99DG     H20 2274   0.652   0.534   4.399 -2.2988 -2.6015  0.4758
   99DG     H21 2275   0.729   0.454   4.536  0.6139  1.4147 -0.0430
   99DG     H22 2276   0.479   0.384   4.346  0.1041  0.4437  1.0688
   99DG     H23 2277   0.531   0.299   4.486 -1.6351 -1.9265 -0.3410
  100DG      C1 2278   2.620   3.717   1.675 -0.2528 -0.4463 -0.3225
  100DG      C2 2279   2.607   4.246   2.029 -0.1208  0.1313 -0.4415
  100DG      H3 2280   2.517   3.754   1.684  0.4324  1.7045 -0.7788
  100DG      H4 2281   2.635   3.645   1.755 -0.6426 -0.0104  0.1553
  100DG      H5 2282   2.631   3.664   1.581  1.9863  1.6525 -1.3563
  100DG      H6 2283   2.612   4.177   2.114  0.5238  2.2824  1.3522
  100DG      H7 2284   2.632   4.341   2.075 -3.7630  1.7949 -1.5841
  100DG      H8 2285   2.502   4.250   2.001  0.3190  2.3010 -2.0344
  100DG      O9 2286   2.701   3.834   1.684  0.0305 -0.0841  0.4893
  100DG     O10 2287   2.689   4.199   1.922 -0.3748  0.4858 -0.2148
  100DG     C11 2288   2.837   3.808   1.675 -0.5594 -1.2080  0.8271
  100DG     C12 2289   2.826   4.193   1.974  1.1639 -0.0136 -0.1043
  100DG     H13 2290   2.858   3.785   1.570  0.7613  0.0977  0.7765
  100DG     H14 2291   2.863   3.728   1.744  1.1549 -0.0979  1.5236
  100DG     H15 2292   2.826   4.138   2.068 -0.1860 -2.3568 -1.3473
  100DG     H16 2293   2.867   4.290   1.998  0.4415 -0.1343  1.7637
  100DG     C17 2294   2.907   3.934   1.717  0.6273 -0.3323 -0.6529
  100DG     C18 2295   2.901   4.115   1.865  0.4948  0.3029  0.0985
  100DG     O19 2296   2.842   3.989   1.839 -0.0042 -0.1321 -0.3402
  100DG     H20 2297   2.897   3.998   1.630 -0.8534  2.1766  1.2271
  100DG     H21 2298   3.012   3.914   1.737  0.2209 -2.1671 -0.1352
  100DG     H22 2299   2.905   4.168   1.770 -1.2204 -1.0009 -0.7556
  100DG     H23 2300   3.001   4.094   1.902  0.7272 -1.0600 -1.2150
  101DG      C1 2301   3.818   2.927   0.752 -0.5519 -0.3048  0.4391
  101DG      C2 2302   3.804   3.510   0.582 -0.4036  0.6517  0.5338
  101DG      H3 2303   3.792   2.832   0.705  0.6932 -1.3974  1.8341
  101DG      H4 2304   3.732   2.971   0.802 -1.2760  1.2964 -2.0294
  101DG      H5 2305   3.900   2.913   0.823  0.3036  0.9221 -0.2604
  101DG      H6 2306   3.714   3.535   0.637 -1.2779 -0.8156 -0.1508
  101DG      H7 2307   3.888   3.476   0.642  1.9377  2.1262 -1.6981
  101DG      H8 2308   3.835   3.598   0.525  0.0678  0.3604  0.3305
  101DG      O9 2309   3.842   3.023   0.643 -0.2858  0.9720  0.0736
  101DG     O10 2310   3.778   3.407   0.484 -0.0449 -0.0930 -0.4573
  101DG     C11 2311   3.938   2.990   0.543 -0.3108  0.2375 -0.2016
  101DG     C12 2312   3.875   3.397   0.383 -0.4498  0.0422 -0.0521
  101DG     H13 2313   3.907   2.896   0.496 -0.0136 -0.0171  0.1084
  101DG     H14 2314   4.033   2.966   0.590 -0.4002 -2.2995 -1.1593
  101DG     H15 2315   3.974   3.393   0.427  0.2143 -0.6070 -1.5486
  101DG     H16 2316   3.867   3.473   0.305 -0.7069  0.7701  0.6677
  101DG     C17 2317   3.953   3.102   0.442 -0.5448 -0.4193  0.2806
  101DG     C18 2318   3.842   3.263   0.313  0.7325 -0.2451  0.4956
  101DG     O19 2319   3.826   3.156   0.408  0.0719 -0.0459  0.2029
  101DG     H20 2320   4.009   3.079   0.351  0.3289  2.2197  0.0651
  101DG     H21 2321   4.011   3.179   0.494 -1.2652  0.3935 -0.1082
  101DG     H22 2322   3.738   3.267   0.279 -0.2427 -0.2611  3.2384
  101DG     H23 2323   3.894   3.240   0.220 -2.0161 -0.4415 -1.0999
  102DG      C1 2324   5.290   5.159   5.182 -0.1158  0.2380  0.4720
  102DG      C2 2325   5.130   4.982   4.663  0.3445  0.6348 -0.5360
  102DG      H3 2326   5.184   5.182   5.195  0.0913  1.4955  0.0821
  102DG      H4 2327   5.349   5.192   5.268  0.2374 -0.0692  0.3504
  102DG      H5 2328   5.293   5.051   5.187 -0.6903  0.2666  3.0670
  102DG      H6 2329   5.161   4.879   4.680 -0.8413  0.2049 -0.8771
  102DG      H7 2330   5.061   5.007   4.744  0.6617 -1.2658  0.3829
  102DG      H8 2331   5.081   4.967   4.567  0.7123  0.5521 -0.7124
  102DG      O9 2332   5.342   5.201   5.057  0.2163  0.7137  0.2993
  102DG     O10 2333   5.231   5.080   4.652  0.0293 -0.5230  0.5576
  102DG     C11 2334   5.312   5.336   5.033  0.3171  0.1030  0.1423
  102DG     C12 2335   5.181   5.212   4.622 -0.0482  0.5488  0.2194
  102DG     H13 2336   5.355   5.414   5.096  0.0524  1.8035 -1.6614
  102DG     H14 2337   5.204   5.350   5.031  0.6344  3.2284 -1.6144
  102DG     H15 2338   5.077   5.220   4.590  0.2359  2.4589 -0.3573
  102DG     H16 2339   5.235   5.245   4.534 -0.9002  0.3269 -0.3953
  102DG     C17 2340   5.367   5.389   4.901  0.0090  0.8567  0.1129
  102DG     C18 2341   5.201   5.300   4.745 -0.0845 -0.5183 -0.3285
  102DG     O19 2342   5.341   5.304   4.782  0.3696 -0.5846  0.8775
  102DG     H20 2343   5.475   5.402   4.892  0.0683  0.7039  0.5487
  102DG     H21 2344   5.322   5.486   4.881 -3.2111 -0.4913  0.2479
  102DG     H22 2345   5.174   5.404   4.724 -3.0258 -1.8764 -4.5135
  102DG     H23 2346   5.131   5.255   4.815 -3.0435  0.0979 -2.6878
  103DG      C1 2347   4.828   5.328   1.187  0.1410 -0.0653 -0.5354
  103DG      C2 2348   5.207   5.834   1.494 -0.0964 -1.1745 -0.1961
  103DG      H3 2349   4.784   5.427   1.194 -1.3252 -0.7678  1.2556
  103DG      H4 2350   4.808   5.294   1.289 -0.5784  1.1925 -0.2327
  103DG      H5 2351   4.767   5.268   1.119  0.3645 -1.1329  0.1651
  103DG      H6 2352   5.220   5.742   1.551 -1.0646 -1.6269 -0.6802
  103DG      H7 2353   5.284   5.907   1.521 -0.0727 -0.8226 -1.1744
  103DG      H8 2354   5.111   5.866   1.534  0.8968 -0.2757  1.5915
  103DG      O9 2355   4.967   5.341   1.159 -0.6457  0.0287 -0.4236
  103DG     O10 2356   5.221   5.815   1.353  0.0522  0.3483 -0.7424
  103DG     C11 2357   4.998   5.379   1.023  0.4104  0.5883 -0.1843
  103DG     C12 2358   5.129   5.722   1.306  0.1602  0.2875  0.0970
  103DG     H13 2359   4.915   5.412   0.961 -0.4210  1.0386  1.1398
  103DG     H14 2360   5.041   5.293   0.971 -2.7842 -0.7269 -0.8759
  103DG     H15 2361   5.028   5.740   1.343  0.1640 -0.5824  0.5822
  103DG     H16 2362   5.144   5.620   1.342 -1.0007 -0.0414 -0.3199
  103DG     C17 2363   5.094   5.503   1.034 -0.2353  0.1595  0.0052
  103DG     C18 2364   5.110   5.715   1.156 -0.1144 -0.0277 -1.0185
  103DG     O19 2365   5.037   5.595   1.122 -0.5706 -0.3392 -0.2548
  103DG     H20 2366   5.114   5.542   0.934  0.5436 -1.2701 -0.4069
  103DG     H21 2367   5.188   5.465   1.071  0.0156  0.9037  0.1555
  103DG     H22 2368   5.073   5.808   1.114  0.4694  0.0936 -1.2698
  103DG     H23 2369   5.212   5.714   1.117  0.8226  2.9855  0.9920
  104DG      C1 2370   5.271   4.763   5.059 -0.7712  0.6193 -0.3669
  104DG      C2 2371   5.744   5.257   5.022  0.3540 -0.2037  0.1902
  104DG      H3 2372   5.177   4.818   5.060  0.3302  2.6020  0.0166
  104DG      H4 2373   5.333   4.814   5.134  0.6071  1.9567 -2.3152
  104DG      H5 2374   5.249   4.661   5.091  0.2695  0.6982  0.7164
  104DG      H6 2375   5.667   5.325   5.058  1.4166  1.4324 -0.5283
  104DG      H7 2376   5.843   5.262   5.067 -0.1079  3.0896  1.0897
  104DG      H8 2377   5.751   5.294   4.919  0.8709 -1.0000 -0.0711
  104DG      O9 2378   5.321   4.789   4.922  0.7415  0.3699  0.2756
  104DG     O10 2379   5.697   5.126   4.999  0.2696 -0.1636 -0.1289
  104DG     C11 2380   5.433   4.704   4.895  0.8715 -0.1882  0.2867
  104DG     C12 2381   5.682   5.054   5.121 -0.0199  0.7923 -0.0370
  104DG     H13 2382   5.462   4.729   4.793  1.9064  1.9694  1.0556
  104DG     H14 2383   5.397   4.601   4.902  1.6912 -0.5554 -0.6423
  104DG     H15 2384   5.601   5.081   5.189  0.2086  0.5127  0.3504
  104DG     H16 2385   5.770   5.068   5.183  0.0621  0.2682 -0.0296
  104DG     C17 2386   5.545   4.733   4.993 -0.2538  0.1678 -0.1012
  104DG     C18 2387   5.672   4.906   5.076  0.3090 -0.1552  0.5638
  104DG     O19 2388   5.553   4.870   5.012 -0.5346 -0.0920  0.4431
  104DG     H20 2389   5.638   4.694   4.952  0.2021  0.8208  0.2853
  104DG     H21 2390   5.531   4.683   5.089 -3.0935 -0.0591 -0.5555
  104DG     H22 2391   5.753   4.891   5.005  0.1445 -0.7055  0.4914
  104DG     H23 2392   5.700   4.835   5.154  1.5807 -0.2336  0.0579
  105DG      C1 2393   0.001   0.241   3.012 -0.6016  0.2729  0.5948
  105DG      C2 2394   0.148   0.871   2.860  0.4232  0.4109  0.0423
  105DG      H3 2395   0.107   0.243   3.034 -0.5055 -0.6100  0.2606
  105DG      H4 2396  -0.023   0.138   2.984 -2.0968  0.2472  1.8404
  105DG      H5 2397  -0.062   0.236   3.101 -1.2096 -0.0747  0.1559
  105DG      H6 2398   0.102   0.935   2.936 -0.5258 -0.2803  0.0723
  105DG      H7 2399   0.239   0.833   2.906 -0.5490  0.1589  1.8738
  105DG      H8 2400   0.179   0.933   2.776  1.1260 -1.7883 -1.3993
  105DG      O9 2401  -0.047   0.341   2.926  0.4177 -0.0838  0.4987
  105DG     O10 2402   0.071   0.768   2.804 -0.6889 -0.0479  0.0559
  105DG     C11 2403  -0.187   0.349   2.924 -0.3569  0.1167 -0.3931
  105DG     C12 2404  -0.066   0.809   2.788 -0.5158 -0.1426  0.0510
  105DG     H13 2405  -0.242   0.368   3.016 -0.4852 -1.1202 -0.1937
  105DG     H14 2406  -0.230   0.258   2.882 -0.3191 -2.0789  3.8820
  105DG     H15 2407  -0.069   0.887   2.712  2.5648  0.0106 -0.0357
  105DG     H16 2408  -0.099   0.845   2.885  0.7245 -0.4389  0.6041
  105DG     C17 2409  -0.210   0.466   2.816 -0.8316 -0.2716 -0.9027
  105DG     C18 2410  -0.144   0.686   2.744  0.4769 -0.3137 -0.1957
  105DG     O19 2411  -0.120   0.578   2.839  0.0875 -0.9166 -0.3695
  105DG     H20 2412  -0.315   0.496   2.818 -1.1250 -1.2711 -0.4279
  105DG     H21 2413  -0.179   0.425   2.720  0.1016 -0.1755 -0.6536
  105DG     H22 2414  -0.247   0.715   2.723  1.1565  2.6629  0.1334
  105DG     H23 2415  -0.108   0.646   2.649  1.0631  1.2362 -0.6743
  106DG      C1 2416   4.834   0.583   4.963 -0.3397  0.2796 -0.3791
  106DG      C2 2417   4.361   0.850   4.587  0.1021  0.0894  0.0374
  106DG      H3 2418   4.930   0.545   4.998 -0.6877  0.1882  0.5027
  106DG      H4 2419   4.758   0.510   4.992  0.9692  0.4618  4.1323
  106DG      H5 2420   4.804   0.666   5.026 -0.4697 -0.3189  0.3643
  106DG      H6 2421   4.346   0.890   4.487 -1.1104  0.1690  0.2306
  106DG      H7 2422   4.279   0.779   4.601 -0.1921  0.3438 -0.3917
  106DG      H8 2423   4.364   0.938   4.651  1.4121 -0.5262  0.8695
  106DG      O9 2424   4.817   0.624   4.829 -0.0386 -0.4804 -0.2506
  106DG     O10 2425   4.493   0.788   4.598 -0.4146 -0.4079  0.6433
  106DG     C11 2426   4.887   0.542   4.735 -0.2014  0.1628 -0.6657
  106DG     C12 2427   4.522   0.719   4.476 -0.6433 -0.1145 -0.0906
  106DG     H13 2428   4.846   0.442   4.746 -1.4395  0.8730  2.3928
  106DG     H14 2429   4.994   0.540   4.755 -0.7143 -0.4693  2.5211
  106DG     H15 2430   4.488   0.782   4.394 -2.5270  0.0923  0.7919
  106DG     H16 2431   4.464   0.627   4.475 -2.7490  1.1210  1.0941
  106DG     C17 2432   4.843   0.587   4.595 -0.1182 -0.4504  0.4545
  106DG     C18 2433   4.667   0.682   4.465  0.6907 -0.2469  0.1474
  106DG     O19 2434   4.704   0.621   4.587  0.2939  0.2283  0.1780
  106DG     H20 2435   4.885   0.507   4.533  3.4040  2.5424 -1.5116
  106DG     H21 2436   4.906   0.673   4.569  1.5438 -1.1760  1.8770
  106DG     H22 2437   4.691   0.614   4.383  3.7391  1.9583 -0.9565
  106DG     H23 2438   4.728   0.772   4.460  0.7676 -0.3363 -0.6080
  107DG      C1 2439   4.368   0.470   4.127 -0.1972 -0.0875 -0.0524
  107DG      C2 2440   4.119   0.161   3.696 -0.4440  0.2038  0.1654
  107DG      H3 2441   4.423   0.410   4.199 -2.4371 -0.2864  1.6140
  107DG      H4 2442   4.266   0.432   4.122 -1.1412  2.0805  0.9707
  107DG      H5 2443   4.363   0.571   4.169 -0.4998  0.0515 -0.4137
  107DG      H6 2444   4.058   0.163   3.606  0.7841  0.8100 -0.6892
  107DG      H7 2445   4.133   0.055   3.717  0.5649 -0.0379 -1.5019
  107DG      H8 2446   4.064   0.198   3.782  2.0156 -0.7932  2.3018
  107DG      O9 2447   4.413   0.479   3.993 -0.0389  0.3994 -0.1187
  107DG     O10 2448   4.248   0.208   3.666 -0.5995 -0.4101  0.0330
  107DG     C11 2449   4.431   0.347   3.944 -0.4172 -0.3562  0.4399
  107DG     C12 2450   4.241   0.341   3.620  0.4699 -0.1432 -0.2601
  107DG     H13 2451   4.333   0.301   3.930 -1.2373  1.4950 -0.2133
  107DG     H14 2452   4.496   0.284   4.005  0.4651  1.8389  1.9028
  107DG     H15 2453   4.190   0.416   3.680 -1.7128 -1.0652 -0.8546
  107DG     H16 2454   4.189   0.336   3.524 -0.4664  0.8910  0.1755
  107DG     C17 2455   4.501   0.351   3.808 -0.0089  0.0526 -0.0958
  107DG     C18 2456   4.390   0.380   3.590 -0.3833 -0.2867  0.5472
  107DG     O19 2457   4.444   0.438   3.708  0.3888  0.1556  0.1877
  107DG     H20 2458   4.516   0.245   3.785  0.6628 -0.5095  2.6448
  107DG     H21 2459   4.600   0.394   3.827 -0.6381  0.8800  1.4628
  107DG     H22 2460   4.442   0.295   3.547  1.1278  1.0863 -0.4769
  107DG     H23 2461   4.376   0.457   3.514  0.0146 -0.8967 -0.1521
  108DG      C1 2462   5.288   4.020   0.141 -0.4625  0.4215  0.0681
  108DG      C2 2463   5.601   4.422  -0.321  0.3580  0.1818  0.1229
  108DG      H3 2464   5.213   4.094   0.114 -1.9612 -1.3667 -0.8447
  108DG      H4 2465   5.288   4.028   0.250 -0.2151  0.6764  0.0530
  108DG      H5 2466   5.248   3.929   0.098  1.7475 -0.1068 -1.0510
  108DG      H6 2467   5.595   4.506  -0.252  0.8316  0.6826 -0.4322
  108DG      H7 2468   5.689   4.445  -0.382  1.6689 -1.1159  1.4405
  108DG      H8 2469   5.508   4.399  -0.373  1.0778  0.6665 -1.4478
  108DG      O9 2470   5.413   4.064   0.085  0.1171  0.1208 -0.1970
  108DG     O10 2471   5.646   4.318  -0.238 -0.0168 -0.0091  0.0497
  108DG     C11 2472   5.514   3.964   0.102  0.4218  0.9520  0.2717
  108DG     C12 2473   5.684   4.191  -0.294 -0.4603 -0.0673 -0.0816
  108DG     H13 2474   5.481   3.865   0.071 -0.2876  1.8520 -2.0528
  108DG     H14 2475   5.526   3.962   0.210 -0.4106  2.7418  0.4443
  108DG     H15 2476   5.773   4.196  -0.356 -0.7841 -0.3171 -0.5708
  108DG     H16 2477   5.614   4.147  -0.366  0.6391 -0.4389 -0.9443
  108DG     C17 2478   5.645   4.008   0.025 -0.2434  0.5107 -0.4552
  108DG     C18 2479   5.729   4.095  -0.180 -0.3863 -0.1156  0.0076
  108DG     O19 2480   5.620   4.078  -0.096  0.2892 -0.1924 -0.5035
  108DG     H20 2481   5.716   3.927   0.007  0.9181  1.7061 -1.4014
  108DG     H21 2482   5.713   4.070   0.084 -0.5800  1.0647 -0.6540
  108DG     H22 2483   5.767   4.003  -0.225  2.0617  1.5236 -1.4842
  108DG     H23 2484   5.813   4.143  -0.130 -2.9081  3.1832  1.4305
  109DG      C1 2485   1.183   0.901   5.299  0.2471  0.2830  0.6814
  109DG      C2 2486   0.884   0.355   4.975  0.6934  0.1051  0.2020
  109DG      H3 2487   1.074   0.897   5.306  0.0908 -0.0940 -1.2879
  109DG      H4 2488   1.203   0.955   5.207 -1.0536 -1.3264 -0.6206
  109DG      H5 2489   1.245   0.949   5.375 -0.6373 -1.6437  2.7424
  109DG      H6 2490   0.792   0.412   4.991 -0.5249 -1.8708  0.4881
  109DG      H7 2491   0.864   0.316   4.875  1.3011 -0.3395  0.2521
  109DG      H8 2492   0.882   0.272   5.045 -0.0530  0.6297  0.8277
  109DG      O9 2493   1.212   0.765   5.269  0.0467  0.4278  0.2864
  109DG     O10 2494   1.002   0.437   4.979 -0.0855  0.3548  0.1628
  109DG     C11 2495   1.340   0.739   5.212 -0.0642  0.4390 -0.5518
  109DG     C12 2496   1.115   0.364   5.010 -0.3992 -0.2018 -0.7364
  109DG     H13 2497   1.428   0.755   5.275 -0.0984  1.7864 -0.8189
  109DG     H14 2498   1.357   0.798   5.122 -1.4493  1.5589 -0.1144
  109DG     H15 2499   1.126   0.280   4.942  0.0919  0.8199 -1.9576
  109DG     H16 2500   1.101   0.339   5.116 -0.2011  3.2809  0.2332
  109DG     C17 2501   1.349   0.594   5.166 -0.3618 -0.0401  0.8289
  109DG     C18 2502   1.238   0.457   5.007  0.3831  0.0387  0.1984
  109DG     O19 2503   1.227   0.547   5.116 -0.3351  0.8601 -0.0559
  109DG     H20 2504   1.382   0.539   5.254 -1.5104  1.2526  2.1422
  109DG     H21 2505   1.435   0.591   5.099 -0.7877 -0.7224  0.3079
  109DG     H22 2506   1.332   0.402   5.016  0.8074  0.3132 -1.9739
  109DG     H23 2507   1.252   0.516   4.916 -1.2959  0.4884  0.1870
  110DG      C1 2508   4.072   3.157   2.164 -0.2207  0.1359 -0.4770
  110DG      C2 2509   4.626   2.760   2.192  0.0955  0.8847 -0.6061
  110DG      H3 2510   4.043   3.095   2.250  0.0403  1.9437  0.9763
  110DG      H4 2511   3.974   3.170   2.118 -1.2251 -3.1506  0.4483
  110DG      H5 2512   4.094   3.257   2.202  1.9622  0.1838 -1.7375
  110DG      H6 2513   4.690   2.679   2.158 -0.9993  0.4956 -1.7729
  110DG      H7 2514   4.694   2.836   2.232 -0.2844  0.8847  0.0579
  110DG      H8 2515   4.575   2.718   2.279  1.1710 -0.1571 -0.4515
  110DG      O9 2516   4.175   3.103   2.084  0.1392 -0.0933 -0.6093
  110DG     O10 2517   4.545   2.821   2.090 -0.5862  0.2358 -0.0576
  110DG     C11 2518   4.240   3.182   1.997  0.1300 -0.2118  0.8451
  110DG     C12 2519   4.613   2.881   1.984 -1.1622  0.3027 -0.0269
  110DG     H13 2520   4.295   3.254   2.058 -1.8026  3.1201 -1.0147
  110DG     H14 2521   4.171   3.247   1.943  0.1208  0.6816  1.8851
  110DG     H15 2522   4.675   2.810   1.929 -3.2751 -1.2419 -0.5430
  110DG     H16 2523   4.679   2.963   2.014  2.6757 -1.6509 -2.3432
  110DG     C17 2524   4.335   3.105   1.903  0.1211  0.0578 -0.2178
  110DG     C18 2525   4.517   2.934   1.889  0.4829 -0.8408 -0.2117
  110DG     O19 2526   4.436   3.024   1.973 -0.2135  0.2261  0.5512
  110DG     H20 2527   4.388   3.171   1.835  0.4473 -0.4017 -0.4191
  110DG     H21 2528   4.277   3.046   1.832  0.2695 -0.7643  0.3261
  110DG     H22 2529   4.561   2.993   1.809 -0.6881  0.8559  0.3418
  110DG     H23 2530   4.463   2.851   1.844 -0.7989 -0.3753  0.4105
  111DG      C1 2531   3.613   4.430   3.325 -0.6285  0.3352 -0.7909
  111DG      C2 2532   3.552   3.763   3.395  0.3027  0.1332  0.0706
  111DG      H3 2533   3.524   4.434   3.388 -0.0732 -0.8893  0.1026
  111DG      H4 2534   3.574   4.448   3.225  1.5008 -0.3402 -1.7893
  111DG      H5 2535   3.687   4.506   3.352 -4.1411  3.1182  2.1013
  111DG      H6 2536   3.490   3.781   3.483 -0.5677  1.5665 -0.7876
  111DG      H7 2537   3.487   3.762   3.307  2.2175  0.8987 -1.4255
  111DG      H8 2538   3.603   3.668   3.411 -1.0369 -0.4464  1.1046
  111DG      O9 2539   3.682   4.302   3.343  0.2435  0.6264 -0.3226
  111DG     O10 2540   3.647   3.862   3.382  0.4154  0.2689 -0.4386
  111DG     C11 2541   3.794   4.285   3.254  0.5656  0.0524 -0.9279
  111DG     C12 2542   3.742   3.852   3.278  0.0120  0.0652 -0.3832
  111DG     H13 2543   3.839   4.377   3.217  2.2120 -1.5210 -3.1367
  111DG     H14 2544   3.763   4.256   3.153 -0.8442  2.0360 -1.1223
  111DG     H15 2545   3.705   3.870   3.177  0.6887  1.2138 -0.4508
  111DG     H16 2546   3.775   3.748   3.284  0.1460  0.1112 -0.3135
  111DG     C17 2547   3.898   4.186   3.312 -0.1642 -0.1093  0.1198
  111DG     C18 2548   3.856   3.947   3.292  0.5695 -0.2533  0.1535
  111DG     O19 2549   3.806   4.076   3.336 -0.4556 -0.2959  0.1742
  111DG     H20 2550   3.943   4.219   3.406  2.4151  1.0117 -1.4069
  111DG     H21 2551   3.976   4.172   3.237 -0.0589  1.3274 -0.0693
  111DG     H22 2552   3.932   3.913   3.362 -0.0811  1.8410  2.0085
  111DG     H23 2553   3.898   3.960   3.192 -0.7077  0.6757 -0.3028
  112DG      C1 2554   2.843   3.425   1.546 -0.0940  0.0208 -0.3450
  112DG      C2 2555   3.003   4.161   1.259 -0.5636 -0.1063 -0.0691
  112DG      H3 2556   2.952   3.436   1.546 -0.2037  1.3270 -1.6344
  112DG      H4 2557   2.813   3.323   1.522  0.1086  0.1066 -0.9828
  112DG      H5 2558   2.806   3.449   1.645  0.3425 -1.5354  0.2173
  112DG      H6 2559   2.948   4.223   1.188  0.9167  0.1806 -1.0014
  112DG      H7 2560   2.998   4.220   1.351  1.8507 -1.6008  1.1237
  112DG      H8 2561   3.107   4.145   1.229 -0.6080  0.5167 -0.5885
  112DG      O9 2562   2.783   3.539   1.480  0.3026 -0.0821  0.0872
  112DG     O10 2563   2.946   4.030   1.280 -0.0499 -0.1625  0.3477
  112DG     C11 2564   2.811   3.535   1.344 -0.7276  0.4007 -0.5148
  112DG     C12 2565   2.948   3.949   1.162 -0.0038  0.6245  0.3219
  112DG     H13 2566   2.771   3.441   1.304  3.2934 -1.3074 -0.9542
  112DG     H14 2567   2.917   3.541   1.321 -0.5979  0.5533  0.1165
  112DG     H15 2568   3.043   3.896   1.153  0.5617  1.5335  0.7868
  112DG     H16 2569   2.939   4.013   1.074  0.0055 -0.2267 -0.3106
  112DG     C17 2570   2.755   3.650   1.262  0.4726  0.4220  0.1615
  112DG     C18 2571   2.827   3.853   1.172  0.3876  0.0712 -0.5029
  112DG     O19 2572   2.850   3.752   1.271  0.0720  0.0487  0.1481
  112DG     H20 2573   2.662   3.684   1.308  1.4499  0.5373  2.1250
  112DG     H21 2574   2.731   3.610   1.163  1.1119 -0.9837  0.5523
  112DG     H22 2575   2.735   3.905   1.198  1.0367  1.0423 -0.0737
  112DG     H23 2576   2.813   3.813   1.072  0.9059  0.2849 -0.6629
  113DG      C1 2577   4.627   2.221   0.615  0.6599  0.0213  0.6760
  113DG      C2 2578   3.959   2.029   0.584 -0.2691  0.0121 -0.0104
  113DG      H3 2579   4.715   2.274   0.652  1.4790 -1.8024  1.4722
  113DG      H4 2580   4.576   2.263   0.529 -0.7631 -0.2807  1.3368
  113DG      H5 2581   4.664   2.123   0.586 -0.9966 -0.5769  0.4843
  113DG      H6 2582   3.857   2.034   0.623  0.1738  1.9447  0.9866
  113DG      H7 2583   3.951   2.069   0.483 -1.8300  1.0827  0.4954
  113DG      H8 2584   3.987   1.923   0.580 -0.5977 -0.0516 -3.2993
  113DG      O9 2585   4.519   2.222   0.696 -0.3050  0.2534 -0.2937
  113DG     O10 2586   4.047   2.102   0.675  0.1753  0.4584  0.0989
  113DG     C11 2587   4.530   2.164   0.824  0.0535 -0.2778  0.1690
  113DG     C12 2588   4.051   2.063   0.814 -0.7157 -0.2951 -0.2692
  113DG     H13 2589   4.613   2.213   0.875 -1.0024  1.1959  0.5610
  113DG     H14 2590   4.569   2.063   0.823 -0.2713 -0.4092 -0.9352
  113DG     H15 2591   4.075   1.958   0.828  1.9805  0.2024 -0.6267
  113DG     H16 2592   3.955   2.096   0.855 -0.5210  3.5504 -2.4344
  113DG     C17 2593   4.394   2.183   0.901 -0.3455 -0.1475 -0.0136
  113DG     C18 2594   4.164   2.140   0.895 -0.0817 -0.0934  0.4618
  113DG     O19 2595   4.294   2.114   0.831  0.0850 -0.4055 -0.0494
  113DG     H20 2596   4.382   2.291   0.900  1.1361  0.0419 -1.1687
  113DG     H21 2597   4.401   2.160   1.008  0.1079  2.2692  0.5506
  113DG     H22 2598   4.145   2.247   0.897 -2.2449 -0.4171 -0.2467
  113DG     H23 2599   4.153   2.105   0.997  1.2674 -1.6261  0.1328
  114DG      C1 2600   3.926   2.486   4.447  0.0864 -0.5155  0.4086
  114DG      C2 2601   3.237   2.604   4.229 -0.5003  0.3034  0.1726
  114DG      H3 2602   3.957   2.589   4.463  1.0011 -0.1988 -2.7292
  114DG      H4 2603   3.951   2.489   4.341 -0.1013  1.3765  0.3828
  114DG      H5 2604   3.998   2.410   4.477 -0.0967 -0.9679 -0.2819
  114DG      H6 2605   3.233   2.700   4.281 -1.1052  0.2710  0.1894
  114DG      H7 2606   3.268   2.629   4.127 -1.3440  1.3493  0.1558
  114DG      H8 2607   3.134   2.570   4.235 -0.6938  0.5072 -1.4672
  114DG      O9 2608   3.790   2.476   4.466 -0.1928 -0.3617 -0.7638
  114DG     O10 2609   3.326   2.519   4.293 -0.0278  0.3960  0.5195
  114DG     C11 2610   3.740   2.353   4.437  0.1002  1.0521  0.1663
  114DG     C12 2611   3.286   2.490   4.424  0.1680  0.7960 -0.1594
  114DG     H13 2612   3.805   2.275   4.476 -2.0271 -1.3917 -0.9047
  114DG     H14 2613   3.731   2.338   4.330 -0.6819 -0.5830  0.4307
  114DG     H15 2614   3.179   2.473   4.432  0.1536  0.5106 -0.9260
  114DG     H16 2615   3.306   2.576   4.489  1.6646  0.9177 -0.7367
  114DG     C17 2616   3.599   2.314   4.497  0.1247 -0.1758  0.4735
  114DG     C18 2617   3.371   2.369   4.461 -0.1088  0.1770 -0.8215
  114DG     O19 2618   3.507   2.415   4.447  0.2443  0.1696  0.4852
  114DG     H20 2619   3.607   2.319   4.606  1.5460 -0.9351  0.4319
  114DG     H21 2620   3.587   2.207   4.478  2.4008 -0.2700 -0.8541
  114DG     H22 2621   3.366   2.327   4.562 -1.5630  1.0829 -0.4856
  114DG     H23 2622   3.366   2.286   4.392  0.1895 -1.2457  0.7863
  115THF     O1 2623   1.150   1.835   4.272  0.0376  0.0448 -0.1358
  115THF     C2 2624   1.156   1.700   4.323  0.9236 -0.7094 -0.1095
  115THF     C3 2625   1.216   1.924   4.352 -0.3216  0.6707 -0.0595
  115THF     H4 2626   1.230   1.649   4.261  0.0742 -0.7854 -1.0661
  115THF     H5 2627   1.062   1.649   4.304  0.3704  0.6413 -1.1586
  115THF     H6 2628   1.312   1.954   4.309  1.3521  0.9351  3.4755
  115THF     H7 2629   1.151   2.012   4.362  0.9887  1.6053  0.5765
  115THF     C8 2630   1.249   1.849   4.479 -0.0953 -0.2396  0.6560
  115THF     C9 2631   1.182   1.713   4.473  0.1090  0.5184  0.0336
  115THF    H10 2632   1.215   1.907   4.566 -0.2344  0.7975 -0.0727
  115THF    H11 2633   1.357   1.848   4.488 -0.0593  1.4108  0.8578
  115THF    H12 2634   1.252   1.640   4.512  0.1956  1.2307  1.2675
  115THF    H13 2635   1.086   1.706   4.523 -0.6866  1.6288 -1.2460
  116THF     O1 2636   0.239   5.481   5.389  0.3817  0.0597  0.0962
  116THF     C2 2637   0.107   5.500   5.344 -0.1892 -0.5466 -0.1623
  116THF     C3 2638   0.256   5.344   5.423  0.3830  0.1667  0.0713
  116THF     H4 2639   0.092   5.467   5.241 -3.1876 -1.2102  0.3883
  116THF     H5 2640   0.066   5.600   5.357 -1.0454 -0.8822 -0.1761
  116THF     H6 2641   0.260   5.280   5.335  1.7206 -1.0150  0.9509
  116THF     H7 2642   0.345   5.326   5.483 -0.1401 -0.5630  0.6402
  116THF     C8 2643   0.134   5.313   5.506  0.0064 -0.1260 -0.5318
  116THF     C9 2644   0.033   5.409   5.446  0.1201  0.3953 -0.5766
  116THF    H10 2645   0.136   5.326   5.614 -1.3919 -0.1743 -0.4913
  116THF    H11 2646   0.104   5.209   5.494 -0.0073 -0.2615  0.6114
  116THF    H12 2647  -0.046   5.350   5.398 -0.0355  0.1504 -0.0262
  116THF    H13 2648  -0.011   5.468   5.526  0.9960 -0.7851  0.8299
  117THF     O1 2649   1.112   4.685   3.914 -0.4715 -0.4214 -0.0075
  117THF     C2 2650   1.251   4.694   3.887  0.2590  0.1751  0.4289
  117THF     C3 2651   1.097   4.756   4.038  0.7241  0.0757  0.2737
  117THF     H4 2652   1.269   4.794   3.848  0.1540 -0.4995 -1.4493
  117THF     H5 2653   1.285   4.618   3.817  0.3135 -0.0477  0.6954
  117THF     H6 2654   1.105   4.864   4.024 -3.4515  0.6000  0.5713
  117THF     H7 2655   1.010   4.724   4.096  0.1696 -0.0296 -0.5894
  117THF     C8 2656   1.215   4.704   4.115  1.0764 -0.5089  0.1373
  117THF     C9 2657   1.325   4.689   4.017  0.2024 -0.1057  0.0593
  117THF    H10 2658   1.173   4.613   4.159 -0.9052 -0.3470 -1.2863
  117THF    H11 2659   1.241   4.776   4.192  0.3505  3.0832 -2.7032
  117THF    H12 2660   1.402   4.766   4.018 -0.9613  1.2125 -2.6130
  117THF    H13 2661   1.372   4.592   4.033 -2.1721 -1.1523  1.2703
  118THF     O1 2662   3.820   2.748   1.811  0.5179  0.3999 -0.4726
  118THF     C2 2663   3.889   2.776   1.930 -0.1485  0.2198 -0.1235
  118THF     C3 2664   3.923   2.715   1.714 -0.3500 -0.2718 -0.1869
  118THF     H4 2665   3.895   2.687   1.993 -0.8150 -1.2551 -2.0569
  118THF     H5 2666   3.838   2.847   1.995 -0.0832 -0.2268  0.4245
  118THF     H6 2667   3.966   2.620   1.744  0.3686 -0.2898 -1.2188
  118THF     H7 2668   3.902   2.704   1.607 -0.9244  1.1809 -0.2464
  118THF     C8 2669   4.034   2.812   1.741 -0.3349 -0.0583  0.4916
  118THF     C9 2670   4.030   2.816   1.889  0.6928  0.2814 -0.7690
  118THF    H10 2671   4.024   2.913   1.701  2.1842 -0.4837 -1.5065
  118THF    H11 2672   4.130   2.775   1.704 -1.7895 -1.5939 -2.0452
  118THF    H12 2673   4.112   2.756   1.928 -0.2832  0.0191  1.0104
  118THF    H13 2674   4.041   2.920   1.918 -2.6272  0.6343 -0.3820
  119THF     O1 2675   4.974   2.984   4.340 -0.0540 -0.5624  0.0510
  119THF     C2 2676   5.060   3.064   4.430  0.4172 -0.2099 -0.1984
  119THF     C3 2677   5.015   2.994   4.202  0.1517  0.8397 -0.2248
  119THF     H4 2678   5.105   3.003   4.508  1.2094  1.0690  0.3629
  119THF     H5 2679   5.011   3.147   4.480 -0.4369 -1.0802  0.4572
  119THF     H6 2680   4.993   2.895   4.161  1.6761  0.7722 -0.9454
  119THF     H7 2681   4.961   3.073   4.150 -0.5199  0.7820  0.3653
  119THF     C8 2682   5.162   3.027   4.214  0.7317 -0.5051  0.2867
  119THF     C9 2683   5.170   3.117   4.339  0.3977 -0.0172  0.0875
  119THF    H10 2684   5.184   3.093   4.131 -2.7822 -1.0543 -1.2761
  119THF    H11 2685   5.222   2.937   4.225 -0.1663 -1.2311 -0.5663
  119THF    H12 2686   5.272   3.100   4.375  1.1476  1.0042 -1.4025
  119THF    H13 2687   5.160   3.224   4.326  0.5787 -0.0955 -0.8029
  120THF     O1 2688   1.184   1.675   3.610  0.0028 -0.6305 -0.7099
  120THF     C2 2689   1.255   1.779   3.683 -0.4035 -1.0013 -0.1739
  120THF     C3 2690   1.105   1.607   3.704 -0.3896  0.1989 -0.0862
  120THF     H4 2691   1.238   1.883   3.657  0.9496 -0.4500  0.9845
  120THF     H5 2692   1.362   1.760   3.676  0.0195  0.8437  0.7732
  120THF     H6 2693   1.010   1.660   3.705  0.9975  2.8827  1.6246
  120THF     H7 2694   1.076   1.502   3.696 -0.2087  0.1076  0.3942
  120THF     C8 2695   1.188   1.613   3.835 -0.1943 -0.3320  0.1726
  120THF     C9 2696   1.224   1.754   3.834  0.3703  0.3144  0.5288
  120THF    H10 2697   1.273   1.545   3.838  1.1893  1.3188  0.8276
  120THF    H11 2698   1.130   1.591   3.925 -0.4985 -1.8492 -0.3706
  120THF    H12 2699   1.134   1.814   3.848 -0.1760  0.2999 -2.3287
  120THF    H13 2700   1.307   1.779   3.902  1.5794 -1.8200 -0.0734
  121THF     O1 2701   0.819   0.030   0.012 -0.2673  0.3626  0.4246
  121THF     C2 2702   0.745  -0.047  -0.078 -0.6827 -0.0001  0.6392
  121THF     C3 2703   0.890   0.132  -0.055 -0.7268  0.0164 -0.2497
  121THF     H4 2704   0.667  -0.112  -0.037  0.6302 -1.8037  0.4289
  121THF     H5 2705   0.810  -0.112  -0.137 -0.7127 -0.2529  0.8800
  121THF     H6 2706   0.923   0.210   0.014 -0.4356  1.0214 -1.5006
  121THF     H7 2707   0.973   0.086  -0.109 -0.8581 -2.7206  1.6636
  121THF     C8 2708   0.784   0.173  -0.157  0.5232  0.7480 -0.4230
  121THF     C9 2709   0.687   0.059  -0.164  0.1421 -0.2258  0.1752
  121THF    H10 2710   0.828   0.204  -0.252 -0.0855  3.7048  0.1670
  121THF    H11 2711   0.724   0.257  -0.123  1.8348  1.2968  0.6230
  121THF    H12 2712   0.590   0.099  -0.134  0.2762  1.6472 -1.6631
  121THF    H13 2713   0.686   0.023  -0.267  1.7130 -1.1644  0.4499
  122THF     O1 2714   4.278   3.662   1.906  0.2285  1.0913  0.7556
  122THF     C2 2715   4.318   3.794   1.872 -0.1814 -0.0445  0.0511
  122THF     C3 2716   4.176   3.661   2.007 -0.0083 -0.9833 -0.7881
  122THF     H4 2717   4.234   3.832   1.814 -1.0538  0.4771  1.5770
  122THF     H5 2718   4.408   3.803   1.812  2.0330 -1.5914  2.8485
  122THF     H6 2719   4.080   3.676   1.957  0.2823  2.5944 -0.5492
  122THF     H7 2720   4.179   3.567   2.062  4.3739 -0.0904  0.8862
  122THF     C8 2721   4.203   3.792   2.082  0.1347  0.1003 -0.0738
  122THF     C9 2722   4.317   3.861   1.998  0.6365 -0.6808 -0.2036
  122THF    H10 2723   4.237   3.774   2.184  0.2769  1.5654  0.1464
  122THF    H11 2724   4.105   3.840   2.084 -0.2380 -0.6535  0.5953
  122THF    H12 2725   4.289   3.962   1.968 -0.0060 -0.9632 -0.5778
  122THF    H13 2726   4.411   3.864   2.053 -0.6196  0.3404  2.0202
  123THF     O1 2727   4.913   3.518   0.503  0.7288  0.2454  0.0874
  123THF     C2 2728   4.920   3.435   0.620 -0.2937 -0.4431  0.3009
  123THF     C3 2729   4.773   3.539   0.468 -0.1290  0.0831 -0.0462
  123THF     H4 2730   4.895   3.496   0.707 -0.3013  0.0595 -0.0453
  123THF     H5 2731   5.020   3.394   0.633 -0.0908 -0.7686 -1.8527
  123THF     H6 2732   4.741   3.621   0.531  1.6545  0.5004  0.3715
  123THF     H7 2733   4.739   3.565   0.368  0.3395  5.7361  0.9678
  123THF     C8 2734   4.711   3.404   0.505  0.3789 -0.3659  0.7230
  123THF     C9 2735   4.817   3.327   0.590  0.2636  0.8857 -0.5257
  123THF    H10 2736   4.702   3.351   0.410  0.6723  1.6528 -0.4851
  123THF    H11 2737   4.613   3.430   0.545  0.1926  0.1440 -0.0435
  123THF    H12 2738   4.777   3.280   0.680 -0.8257  1.6579 -0.5867
  123THF    H13 2739   4.860   3.247   0.530 -2.9287 -0.2895 -1.4885
  124THF     O1 2740   3.866   3.935   1.306  0.8126  0.1710  0.7683
  124THF     C2 2741   3.924   3.860   1.411 -0.2476 -0.4478 -0.1939
  124THF     C3 2742   3.954   4.029   1.250  0.2593  0.0474  0.1177
  124THF     H4 2743   3.862   3.774   1.434  1.2487 -1.2034  1.2179
  124THF     H5 2744   3.935   3.922   1.500  1.3153 -2.4378  1.1074
  124THF     H6 2745   3.918   4.059   1.152  0.5497 -0.4784 -0.1579
  124THF     H7 2746   3.961   4.109   1.324  1.4346  1.5238 -1.5101
  124THF     C8 2747   4.081   3.940   1.252 -0.0889  0.0646  0.2504
  124THF     C9 2748   4.059   3.829   1.355 -0.2706 -0.0414 -0.0317
  124THF    H10 2749   4.171   3.998   1.275 -0.1989  0.7131 -0.8644
  124THF    H11 2750   4.105   3.893   1.157  0.0874  0.8449 -0.1006
  124THF    H12 2751   4.058   3.739   1.294 -0.7923  0.0504 -0.1609
  124THF    H13 2752   4.129   3.825   1.439 -1.2588 -1.1044  0.7742
  125THF     O1 2753   2.490   0.400   2.641  0.4102  0.2009  0.2107
  125THF     C2 2754   2.547   0.526   2.634 -0.3233 -0.4344 -0.1272
  125THF     C3 2755   2.585   0.310   2.586 -0.1586 -0.0562  0.0817
  125THF     H4 2756   2.505   0.595   2.708  0.8033  1.0363 -0.8151
  125THF     H5 2757   2.516   0.576   2.543 -1.2853 -0.4625  0.1680
  125THF     H6 2758   2.557   0.210   2.619 -1.4578  0.6112  1.0696
  125THF     H7 2759   2.580   0.308   2.477 -3.0858 -2.6838  0.1445
  125THF     C8 2760   2.712   0.359   2.655  0.8572 -0.6871  0.4748
  125THF     C9 2761   2.701   0.511   2.637  0.7478  0.1418 -0.7670
  125THF    H10 2762   2.796   0.309   2.607  0.6250 -0.8717  0.2543
  125THF    H11 2763   2.716   0.340   2.762  0.2584  1.3720  0.9006
  125THF    H12 2764   2.753   0.572   2.710  2.4810 -0.6882 -1.2487
  125THF    H13 2765   2.741   0.535   2.538  1.5383 -1.5587 -0.9061
  126THF     O1 2766   3.466   1.778   4.189 -0.5589  0.5870 -0.2259
  126THF     C2 2767   3.586   1.854   4.200  0.3192 -0.0219 -0.1653
  126THF     C3 2768   3.360   1.834   4.259 -0.0655  0.0463 -0.0540
  126THF     H4 2769   3.643   1.841   4.108 -0.4366 -0.6125 -0.5637
  126THF     H5 2770   3.646   1.825   4.287  0.9544  4.9902  1.3696
  126THF     H6 2771   3.280   1.837   4.185 -1.6795 -1.6448  1.5219
  126THF     H7 2772   3.325   1.768   4.338 -0.4811 -0.0730 -0.3382
  126THF     C8 2773   3.408   1.967   4.299 -0.5237  0.1201  0.3846
  126THF     C9 2774   3.517   1.988   4.204  0.1774 -0.5371  0.3151
  126THF    H10 2775   3.444   1.970   4.402  0.5218  1.5925  0.0065
  126THF    H11 2776   3.318   2.027   4.288 -0.7583 -0.3764 -0.5676
  126THF    H12 2777   3.465   2.015   4.112  1.1543 -0.3120 -0.1910
  126THF    H13 2778   3.575   2.073   4.238 -0.2626 -1.1498  2.8198
  127THF     O1 2779   0.576   3.606   3.446 -0.0784  0.8692  0.1223
  127THF     C2 2780   0.711   3.620   3.446 -0.6248  0.8017 -0.2492
  127THF     C3 2781   0.507   3.711   3.519  0.1058 -0.2695  0.3915
  127THF     H4 2782   0.770   3.581   3.363 -1.3166 -1.3819  0.2160
  127THF     H5 2783   0.754   3.585   3.541 -2.0959  1.6199  0.7518
  127THF     H6 2784   0.402   3.714   3.490  0.9556 -0.1763 -3.0243
  127THF     H7 2785   0.510   3.694   3.627 -2.2287 -0.7633  0.4305
  127THF     C8 2786   0.599   3.829   3.485  0.1047 -0.1858 -0.0703
  127THF     C9 2787   0.734   3.772   3.437 -0.1652  0.0593 -0.2602
  127THF    H10 2788   0.605   3.902   3.567 -0.5805 -0.0612 -0.1256
  127THF    H11 2789   0.569   3.890   3.400  0.2766  0.8752  0.5996
  127THF    H12 2790   0.753   3.808   3.336 -0.2620  0.4994 -0.1222
  127THF    H13 2791   0.808   3.796   3.513 -0.6941  0.9817 -0.0336
  128THF     O1 2792   0.886   2.763   4.938 -0.2090 -0.4578 -0.7916
  128THF     C2 2793   0.892   2.635   4.878 -0.3814 -0.1850 -0.3123
  128THF     C3 2794   1.018   2.802   4.977 -0.4602  0.8359 -0.3761
  128THF     H4 2795   0.799   2.604   4.831  0.6207 -1.0221 -1.8155
  128THF     H5 2796   0.917   2.564   4.956  1.6144 -1.0701 -1.6747
  128THF     H6 2797   1.037   2.908   4.992  1.9157  0.2941  1.1502
  128THF     H7 2798   1.066   2.753   5.063 -0.9313  0.8731 -0.0912
  128THF     C8 2799   1.100   2.751   4.861 -0.2941 -0.9287  0.0662
  128THF     C9 2800   1.005   2.664   4.782 -0.1254  0.1638  0.1266
  128THF    H10 2801   1.192   2.700   4.892  0.7523  1.2447  0.7806
  128THF    H11 2802   1.137   2.836   4.804 -0.2379 -0.2380  1.1013
  128THF    H12 2803   0.978   2.694   4.681 -1.8060  0.6828  0.6970
  128THF    H13 2804   1.056   2.570   4.761 -0.2992 -0.1192  0.9294
  129THF     O1 2805   2.815   3.574   4.717 -0.2999  0.2344  0.0451
  129THF     C2 2806   2.899   3.523   4.814 -0.1093 -0.0719  0.8069
  129THF     C3 2807   2.698   3.494   4.718 -0.5278 -1.0599  0.5842
  129THF     H4 2808   2.864   3.568   4.907  0.2299  1.1235  0.3863
  129THF     H5 2809   3.003   3.554   4.812  0.2422 -1.0933  2.3261
  129THF     H6 2810   2.638   3.551   4.789  0.3808 -2.1183  2.2629
  129THF     H7 2811   2.654   3.499   4.618 -0.5366  0.2102  0.6309
  129THF     C8 2812   2.739   3.352   4.758 -0.8635 -0.8951 -0.3273
  129THF     C9 2813   2.876   3.372   4.822  0.1036 -0.0873 -0.2262
  129THF    H10 2814   2.745   3.279   4.677  0.0495 -0.5938 -0.5422
  129THF    H11 2815   2.658   3.324   4.825 -0.0006  0.8531  1.5812
  129THF    H12 2816   2.880   3.335   4.925 -0.3866  1.2654  0.2982
  129THF    H13 2817   2.952   3.320   4.764  0.7477 -1.5517  1.8289
  130THF     O1 2818   2.945   2.221   4.128  0.1270  0.1384 -0.0135
  130THF     C2 2819   2.913   2.323   4.219  0.7119 -0.4300 -0.4453
  130THF     C3 2820   3.060   2.170   4.190 -0.0112  0.1299 -0.4145
  130THF     H4 2821   2.810   2.352   4.200  1.6623  2.6373 -1.5344
  130THF     H5 2822   2.977   2.410   4.203 -1.6812  1.6112  0.5196
  130THF     H6 2823   3.086   2.076   4.141  1.0898 -0.8066  1.8043
  130THF     H7 2824   3.146   2.236   4.179  0.1468 -0.0846 -0.4736
  130THF     C8 2825   3.026   2.156   4.341 -0.3430 -0.4580 -0.3024
  130THF     C9 2826   2.923   2.259   4.356  1.2206  0.6589 -0.1437
  130THF    H10 2827   3.111   2.167   4.409 -2.4664 -0.6409  2.5379
  130THF    H11 2828   2.975   2.063   4.364 -0.4140 -0.7042 -1.3898
  130THF    H12 2829   2.831   2.207   4.380  0.8210  0.4638 -1.9539
  130THF    H13 2830   2.945   2.333   4.433  0.8387  0.8886 -0.2551
  131THF     O1 2831   2.407   4.407   3.697 -0.4755  0.0628 -0.2168
  131THF     C2 2832   2.455   4.521   3.628  0.1004  0.3583 -0.2863
  131THF     C3 2833   2.416   4.288   3.617 -1.0567 -0.2859 -0.6126
  131THF     H4 2834   2.507   4.589   3.695 -0.1985 -0.0440  0.3556
  131THF     H5 2835   2.367   4.566   3.583  0.2555  0.6135 -0.3424
  131THF     H6 2836   2.478   4.211   3.662 -0.8147 -0.6405 -1.5354
  131THF     H7 2837   2.314   4.250   3.607 -1.3833  0.3228  0.2397
  131THF     C8 2838   2.469   4.337   3.482  0.4888  0.2597  0.2833
  131THF     C9 2839   2.546   4.463   3.516  0.5533 -0.6579  0.0812
  131THF    H10 2840   2.386   4.376   3.422  1.6744 -0.8959 -2.2809
  131THF    H11 2841   2.524   4.267   3.419  0.3431  0.5806 -0.2135
  131THF    H12 2842   2.647   4.449   3.554  1.1537  3.5806  0.5344
  131THF    H13 2843   2.558   4.531   3.432  1.2579  0.0979  0.7796
  132THF     O1 2844   4.227   1.625   3.560 -0.0072  0.2326 -0.3464
  132THF     C2 2845   4.317   1.550   3.649  0.7449  0.0389  0.4979
  132THF     C3 2846   4.302   1.733   3.505 -0.9011 -0.0023 -0.2035
  132THF     H4 2847   4.380   1.474   3.603  1.7426  0.7307  0.7058
  132THF     H5 2848   4.263   1.500   3.730 -1.1418 -1.2964 -1.4907
  132THF     H6 2849   4.335   1.707   3.404 -1.1218  0.0557 -0.2911
  132THF     H7 2850   4.255   1.831   3.499 -1.8666 -0.5154 -1.5456
  132THF     C8 2851   4.432   1.741   3.593  0.4729 -0.4503  0.3265
  132THF     C9 2852   4.397   1.650   3.710 -0.0257  0.2206  0.1473
  132THF    H10 2853   4.457   1.844   3.622 -0.1890 -0.4479  0.9220
  132THF    H11 2854   4.513   1.699   3.535 -0.2882 -1.5402  0.0268
  132THF    H12 2855   4.490   1.600   3.737 -0.0209 -1.1066 -2.1494
  132THF    H13 2856   4.352   1.699   3.796  1.0151  0.0416  0.8150
  133THF     O1 2857   2.612   4.275   1.643  0.5555 -0.1073  0.2088
  133THF     C2 2858   2.487   4.315   1.597 -0.1113  0.2533  0.6066
  133THF     C3 2859   2.706   4.331   1.555  0.4510  0.1515  0.2030
  133THF     H4 2860   2.410   4.279   1.666  0.1921 -0.3850  0.6192
  133THF     H5 2861   2.474   4.263   1.502  1.2570  2.7845 -1.0890
  133THF     H6 2862   2.803   4.337   1.606  1.1469  0.2167 -1.0987
  133THF     H7 2863   2.699   4.256   1.477 -0.7519  1.0978 -0.6369
  133THF     C8 2864   2.644   4.471   1.528  0.2476 -0.0968 -0.5790
  133THF     C9 2865   2.505   4.467   1.590 -0.1176  0.5297 -0.3693
  133THF    H10 2866   2.641   4.477   1.419  1.2086 -0.4985 -0.6309
  133THF    H11 2867   2.697   4.559   1.565  0.8214 -0.0340 -1.5284
  133THF    H12 2868   2.497   4.512   1.688 -0.8618 -0.1735 -0.0919
  133THF    H13 2869   2.424   4.510   1.530 -1.2409  1.0145  1.4059
  134THF     O1 2870   2.811   2.373   2.542 -0.3213  0.0919 -0.6626
  134THF     C2 2871   2.758   2.374   2.416 -0.4915 -0.0445 -0.2597
  134THF     C3 2872   2.706   2.371   2.635  0.6101  0.9870  0.3709
  134THF     H4 2873   2.820   2.349   2.329 -1.2779 -1.8331 -0.3405
  134THF     H5 2874   2.710   2.472   2.401 -2.2776 -0.5711  1.5918
  134THF     H6 2875   2.734   2.321   2.728  0.2498 -1.6652 -0.8644
  134THF     H7 2876   2.682   2.475   2.657 -0.0448  0.7421  0.8359
  134THF     C8 2877   2.589   2.304   2.562  0.0677 -0.0596 -0.0430
  134THF     C9 2878   2.643   2.276   2.423  0.2344  0.0639 -0.5817
  134THF    H10 2879   2.507   2.375   2.551  0.0751 -0.0236  0.1378
  134THF    H11 2880   2.548   2.219   2.618  0.2250 -2.4295 -3.2497
  134THF    H12 2881   2.679   2.175   2.401  1.6617  0.3749  0.1615
  134THF    H13 2882   2.560   2.289   2.354 -0.3097  1.4393  0.2841
  135THF     O1 2883   2.825   0.017   3.594  0.6139  0.3328 -0.0782
  135THF     C2 2884   2.746  -0.098   3.582  0.7675 -0.0576 -0.2490
  135THF     C3 2885   2.823   0.054   3.738  0.0281 -0.2053  0.3089
  135THF     H4 2886   2.750  -0.152   3.487 -2.3104 -1.0355  0.0535
  135THF     H5 2887   2.641  -0.091   3.612  0.2879 -1.8915 -1.3728
  135THF     H6 2888   2.913   0.110   3.760  1.0198 -0.0976 -3.3159
  135THF     H7 2889   2.733   0.099   3.779 -0.4721 -0.4383 -0.5084
  135THF     C8 2890   2.835  -0.082   3.807 -0.1996  0.3113 -0.2185
  135THF     C9 2891   2.807  -0.185   3.696  0.3684  0.0598 -0.0241
  135THF    H10 2892   2.766  -0.091   3.891 -1.6549  0.5065 -1.3589
  135THF    H11 2893   2.937  -0.093   3.846 -0.3159 -2.2113 -0.4213
  135THF    H12 2894   2.899  -0.235   3.666 -0.1282 -1.2482  0.5810
  135THF    H13 2895   2.743  -0.265   3.732  0.0055  0.4027  0.1044
  136THF     O1 2896   2.209   1.724   0.853  0.1509  0.3378 -1.0548
  136THF     C2 2897   2.313   1.803   0.915 -0.3722  0.6170  0.5729
  136THF     C3 2898   2.252   1.709   0.715  0.8903  0.7200 -0.8223
  136THF     H4 2899   2.312   1.805   1.024  0.5438 -1.3576  0.6585
  136THF     H5 2900   2.297   1.906   0.883  0.0228  0.6494  0.4692
  136THF     H6 2901   2.187   1.646   0.655  0.1811  0.2196  0.4410
  136THF     H7 2902   2.245   1.803   0.660 -1.7197 -0.6878 -3.1363
  136THF     C8 2903   2.394   1.668   0.723 -1.3048 -0.7434  0.2109
  136THF     C9 2904   2.442   1.731   0.860 -0.1872  0.4589  0.1705
  136THF    H10 2905   2.440   1.710   0.634  0.7533 -1.6629  0.7570
  136THF    H11 2906   2.393   1.561   0.703  1.3652 -0.9194  0.6561
  136THF    H12 2907   2.482   1.663   0.935  1.7154  1.4173  0.0749
  136THF    H13 2908   2.524   1.801   0.846  1.1362 -1.2194 -0.8758
  137THF     O1 2909   1.955   0.342   3.052 -0.2476 -0.0157 -0.4067
  137THF     C2 2910   1.985   0.476   3.025  0.3414  0.0663 -0.1343
  137THF     C3 2911   1.904   0.330   3.183 -0.3882 -0.2228 -0.0610
  137THF     H4 2912   1.961   0.508   2.924 -0.1296  3.1826  0.8699
  137THF     H5 2913   2.088   0.503   3.049  0.3806 -1.1505  1.2416
  137THF     H6 2914   1.841   0.242   3.196 -1.6177  0.5620 -0.4786
  137THF     H7 2915   1.987   0.333   3.253  0.5002 -2.0969 -0.9754
  137THF     C8 2916   1.814   0.447   3.187 -0.0088  0.4477 -0.0707
  137THF     C9 2917   1.892   0.555   3.122  0.5534  0.5123  0.2040
  137THF    H10 2918   1.778   0.461   3.289 -1.0848 -1.8210 -0.0740
  137THF    H11 2919   1.722   0.419   3.135  0.0040  2.3994 -1.2855
  137THF    H12 2920   1.828   0.627   3.073 -0.7926  0.7237  2.1450
  137THF    H13 2921   1.943   0.618   3.195 -0.7851  0.0702  1.5857
  138THF     O1 2922   1.584   0.276   0.768 -0.5139 -0.1266  0.2360
  138THF     C2 2923   1.518   0.373   0.690 -0.1462  0.0599  0.1020
  138THF     C3 2924   1.627   0.174   0.685  0.4387 -0.6499 -0.3031
  138THF     H4 2925   1.581   0.434   0.625 -3.1969  3.6501  0.1722
  138THF     H5 2926   1.458   0.441   0.750 -2.4902  0.0563 -2.0331
  138THF     H6 2927   1.717   0.198   0.628  0.0214  2.7556  0.2871
  138THF     H7 2928   1.637   0.082   0.744 -3.1481 -0.7928  0.2894
  138THF     C8 2929   1.506   0.159   0.587  0.0369 -0.2029  0.1382
  138THF     C9 2930   1.423   0.288   0.607 -0.3409 -0.4542  0.0682
  138THF    H10 2931   1.440   0.078   0.617  1.5013 -0.8808  1.6965
  138THF    H11 2932   1.534   0.151   0.482 -1.7480 -0.1464 -0.3784
  138THF    H12 2933   1.396   0.334   0.512  0.2323  0.5851  0.3868
  138THF    H13 2934   1.341   0.270   0.676 -1.0006 -0.5834 -0.7308
  139THF     O1 2935   4.055   1.289   0.819  0.1395 -0.5192  0.0572
  139THF     C2 2936   4.102   1.166   0.880  0.0613 -0.0517  0.2055
  139THF     C3 2937   3.950   1.329   0.895  0.3428 -0.5560 -0.2535
  139THF     H4 2938   4.147   1.180   0.979  0.5484  1.4642 -0.1955
  139THF     H5 2939   4.174   1.110   0.821 -2.1836 -2.2808 -0.6252
  139THF     H6 2940   3.999   1.384   0.975 -2.4769 -1.4614  2.2621
  139THF     H7 2941   3.882   1.386   0.832  0.2566  0.4377  0.7107
  139THF     C8 2942   3.890   1.199   0.953 -0.1949 -0.0989 -0.3534
  139THF     C9 2943   3.970   1.091   0.890  0.0103  0.3680  0.2889
  139THF    H10 2944   3.785   1.188   0.929 -0.6271  1.4700  0.6351
  139THF    H11 2945   3.905   1.191   1.061  1.1008 -2.0197 -0.6207
  139THF    H12 2946   3.980   0.999   0.948  1.2058 -0.6917 -1.4698
  139THF    H13 2947   3.940   1.050   0.793  2.1046  0.5439 -0.4972
  140THF     O1 2948   2.276   5.168   5.486 -0.2314  0.2978  0.0149
  140THF     C2 2949   2.342   5.289   5.521 -0.3119  0.2234 -0.5867
  140THF     C3 2950   2.350   5.068   5.566  0.0863 -0.2317  0.0968
  140THF     H4 2951   2.285   5.377   5.494 -1.8593  0.0818  1.9294
  140THF     H5 2952   2.438   5.294   5.469  0.3622  0.9981  0.6957
  140THF     H6 2953   2.301   4.971   5.572 -2.1645  0.8893  0.8980
  140THF     H7 2954   2.448   5.042   5.526  0.7735  0.6937  1.1446
  140THF     C8 2955   2.370   5.142   5.700  0.3352  0.2042 -0.6696
  140THF     C9 2956   2.365   5.285   5.669 -0.1881 -0.1855 -0.5911
  140THF    H10 2957   2.454   5.103   5.757  0.3544 -0.1345 -0.9267
  140THF    H11 2958   2.285   5.131   5.766 -0.9207  1.8227 -1.9094
  140THF    H12 2959   2.282   5.329   5.724 -0.4513 -0.0118 -1.1191
  140THF    H13 2960   2.458   5.341   5.686 -1.1849  1.1470  0.7243
  141THF     O1 2961   0.595   1.305   0.106  0.1191  0.6378  0.2148
  141THF     C2 2962   0.597   1.169   0.067  0.3886  0.1407  0.0032
  141THF     C3 2963   0.557   1.313   0.248 -0.0405 -0.1866  0.5149
  141THF     H4 2964   0.697   1.133   0.089 -0.0398 -1.2499 -0.2085
  141THF     H5 2965   0.568   1.170  -0.038  0.6339  1.9558 -0.0704
  141THF     H6 2966   0.628   1.361   0.316  0.8852  3.2392 -2.5749
  141THF     H7 2967   0.461   1.362   0.257  0.5153  1.6363 -2.3630
  141THF     C8 2968   0.531   1.174   0.295  0.7666  0.2721  0.2027
  141THF     C9 2969   0.503   1.095   0.168  0.5658 -0.6640  0.1460
  141THF    H10 2970   0.454   1.162   0.372  0.3717  0.3235 -0.1774
  141THF    H11 2971   0.618   1.144   0.353 -0.6218  0.3426  2.4491
  141THF    H12 2972   0.522   0.988   0.172 -1.4914 -1.0831 -0.1940
  141THF    H13 2973   0.398   1.112   0.144  0.4258  0.6298  1.5562
  142THF     O1 2974   5.291   3.079   0.816  0.0270 -0.3069  0.0914
  142THF     C2 2975   5.220   3.200   0.839  0.3555 -1.0047  0.7316
  142THF     C3 2976   5.352   3.031   0.938  0.3903 -0.3873 -0.1806
  142THF     H4 2977   5.144   3.219   0.764  2.8369 -2.0880 -2.2335
  142THF     H5 2978   5.283   3.287   0.858  0.5034 -1.0987  0.6584
  142THF     H6 2979   5.350   2.922   0.931 -1.8692 -0.4446  0.6193
  142THF     H7 2980   5.448   3.080   0.957  0.8099 -1.1597 -0.2696
  142THF     C8 2981   5.235   3.068   1.040  0.6202  0.0965  0.0803
  142THF     C9 2982   5.153   3.170   0.968  0.8948 -0.0533  0.4763
  142THF    H10 2983   5.276   3.115   1.129  0.7492 -1.2936  0.7788
  142THF    H11 2984   5.174   2.983   1.069 -2.6558  2.7185  1.5286
  142THF    H12 2985   5.053   3.130   0.947  0.4563  1.6261 -0.9355
  142THF    H13 2986   5.130   3.259   1.025  0.1910  0.3234 -0.3675
  143THF     O1 2987   0.309   1.692   4.017  0.4891 -0.2126  0.0142
  143THF     C2 2988   0.338   1.791   3.921 -0.0036 -0.1650 -0.1498
  143THF     C3 2989   0.249   1.582   3.939  1.3256  0.3117 -0.2991
  143THF     H4 2990   0.430   1.848   3.937 -0.9025  1.0988  0.6625
  143THF     H5 2991   0.268   1.871   3.944  1.0739  0.3587  1.5142
  143THF     H6 2992   0.237   1.484   3.985  0.7178 -0.1866 -1.4517
  143THF     H7 2993   0.146   1.617   3.926  0.9756 -0.7204 -0.4170
  143THF     C8 2994   0.334   1.577   3.803  0.2469 -0.4942 -0.1443
  143THF     C9 2995   0.338   1.726   3.776  0.0517  0.1503 -0.0423
  143THF    H10 2996   0.288   1.522   3.721 -1.3668 -0.4915  0.7341
  143THF    H11 2997   0.439   1.546   3.805 -0.1434 -1.8667  0.4939
  143THF    H12 2998   0.403   1.763   3.697 -0.8864 -0.9500 -1.3716
  143THF    H13 2999   0.236   1.751   3.748 -0.9785 -2.0795  1.4106
  144THF     O1 3000   0.265   3.570   2.278 -0.1375 -0.1076  0.7105
  144THF     C2 3001   0.310   3.612   2.409  0.0641 -0.4407  0.0641
  144THF     C3 3002   0.144   3.509   2.290 -0.1315  0.2952 -0.0066
  144THF     H4 3003   0.263   3.705   2.439 -1.2296 -0.8228 -0.7053
  144THF     H5 3004   0.419   3.615   2.402  0.1429 -2.5722 -0.5941
  144THF     H6 3005   0.080   3.597   2.290  1.0150  1.1387  0.0558
  144THF     H7 3006   0.109   3.447   2.207  0.1231 -1.1832  0.9383
  144THF     C8 3007   0.167   3.424   2.420  0.6748  0.2318 -0.3807
  144THF     C9 3008   0.264   3.505   2.502 -0.5972 -0.0607  0.4941
  144THF    H10 3009   0.227   3.339   2.391  0.3797  0.3462 -1.3815
  144THF    H11 3010   0.074   3.401   2.472  0.4611  0.7255 -0.5255
  144THF    H12 3011   0.217   3.552   2.589 -0.0730 -2.6901  2.2892
  144THF    H13 3012   0.353   3.450   2.532  0.0389  2.3793  3.6156
  145THF     O1 3013   3.151   4.641   5.390 -0.6388 -0.0121  0.4091
  145THF     C2 3014   3.025   4.701   5.422 -0.1483 -0.5364  0.5556
  145THF     C3 3015   3.153   4.613   5.250 -0.3925  0.4929  0.3994
  145THF     H4 3016   3.057   4.772   5.499  1.3143 -1.3799  0.7618
  145THF     H5 3017   2.952   4.627   5.451 -0.5034 -0.6236 -0.5220
  145THF     H6 3018   3.256   4.618   5.214 -0.3558 -2.0174 -0.0381
  145THF     H7 3019   3.125   4.510   5.224  3.0342 -0.2199 -1.0762
  145THF     C8 3020   3.062   4.720   5.184  0.0716 -0.0688  0.1078
  145THF     C9 3021   2.980   4.776   5.297 -0.1492 -0.3618 -0.3462
  145THF    H10 3022   2.994   4.683   5.107  0.6069 -0.3320 -0.2476
  145THF    H11 3023   3.120   4.796   5.133 -2.1553  1.7555  0.1531
  145THF    H12 3024   3.001   4.882   5.306 -1.1539 -0.2475  0.9308
  145THF    H13 3025   2.875   4.755   5.277 -0.8769  1.9575  0.7100
  146THF     O1 3026   0.077   5.195   4.115  0.3803 -0.0634 -0.4982
  146THF     C2 3027   0.160   5.309   4.087  0.2705  0.7448 -0.6821
  146THF     C3 3028  -0.057   5.239   4.133  0.5469  0.6728 -0.0291
  146THF     H4 3029   0.137   5.348   3.988  1.1389  1.2527 -0.6915
  146THF     H5 3030   0.268   5.293   4.086  0.2150  0.0819 -3.0521
  146THF     H6 3031  -0.127   5.230   4.051  0.9730 -1.2691 -0.2297
  146THF     H7 3032  -0.090   5.177   4.216  1.8095 -1.9242 -1.3364
  146THF     C8 3033  -0.044   5.391   4.177  0.0201  0.4895 -0.2843
  146THF     C9 3034   0.107   5.405   4.194  0.0166 -0.3013  0.2418
  146THF    H10 3035  -0.091   5.415   4.272  0.8500  0.3719  0.1627
  146THF    H11 3036  -0.074   5.450   4.090  2.7317 -0.6817 -2.1702
  146THF    H12 3037   0.134   5.508   4.171 -0.8829 -0.0429  0.3242
  146THF    H13 3038   0.152   5.381   4.290 -1.5683 -1.7605  0.6602
  147THF     O1 3039   2.176   5.048   5.051  0.0059 -0.1411 -0.3294
  147THF     C2 3040   2.131   5.122   5.163  0.2315 -0.4958 -0.1625
  147THF     C3 3041   2.145   5.126   4.936 -0.8186 -0.6301  0.1212
  147THF     H4 3042   2.176   5.092   5.258 -1.6274 -3.2450 -0.0306
  147THF     H5 3043   2.024   5.106   5.180 -0.3493 -0.1478 -2.9925
  147THF     H6 3044   2.185   5.080   4.845  0.0153 -0.2850  0.3049
  147THF     H7 3045   2.039   5.146   4.922 -0.8355 -0.6022  0.2909
  147THF     C8 3046   2.208   5.258   4.973 -0.4134  0.6410  0.7739
  147THF     C9 3047   2.166   5.264   5.118  0.4958 -0.0054  0.0958
  147THF    H10 3048   2.162   5.343   4.923  1.2178  1.1278  0.0223
  147THF    H11 3049   2.316   5.274   4.964 -0.1557 -0.7722  1.0538
  147THF    H12 3050   2.244   5.308   5.181  0.0945  1.1506 -0.1846
  147THF    H13 3051   2.080   5.329   5.132 -1.0149 -1.7076 -0.9769
  148THF     O1 3052   1.837   3.659   3.509 -0.0861  0.0518 -0.2319
  148THF     C2 3053   1.809   3.518   3.484  0.7034  0.1858 -0.4600
  148THF     C3 3054   1.845   3.720   3.380  0.3146  0.4960  0.4279
  148THF     H4 3055   1.713   3.491   3.529  1.1875 -0.0794  0.4359
  148THF     H5 3056   1.882   3.449   3.526  0.3760 -0.4846 -0.9770
  148THF     H6 3057   1.809   3.823   3.385  0.4114  0.5372  0.2553
  148THF     H7 3058   1.948   3.717   3.344 -0.0943  2.0500 -0.9817
  148THF     C8 3059   1.753   3.636   3.294  0.1737  0.1123  0.6741
  148THF     C9 3060   1.804   3.502   3.329 -0.1498  0.1304 -0.1624
  148THF    H10 3061   1.777   3.663   3.191  0.6033 -1.2628  0.3971
  148THF    H11 3062   1.648   3.647   3.319  0.2808  0.8376  0.8463
  148THF    H12 3063   1.736   3.419   3.312  0.3332  0.2225 -3.0141
  148THF    H13 3064   1.906   3.484   3.295  0.0141 -0.1910  0.4794
  149THF     O1 3065   5.258   0.517   5.073 -0.1425  0.7318 -0.0278
  149THF     C2 3066   5.318   0.636   5.106 -0.2856 -0.2325 -0.4699
  149THF     C3 3067   5.308   0.475   4.946  0.0788  0.4099  0.1792
  149THF     H4 3068   5.315   0.656   5.213 -3.1927 -0.3255 -0.4542
  149THF     H5 3069   5.276   0.719   5.050 -1.5597 -0.5473 -0.0063
  149THF     H6 3070   5.305   0.367   4.928  1.7452  0.3530  0.0353
  149THF     H7 3071   5.265   0.531   4.864  0.3934  0.3539 -0.0264
  149THF     C8 3072   5.457   0.497   4.972  0.0222 -0.5903 -0.0835
  149THF     C9 3073   5.472   0.612   5.076  0.6724 -0.1844  0.7144
  149THF    H10 3074   5.511   0.535   4.886  0.8174 -1.7281 -0.1138
  149THF    H11 3075   5.505   0.404   5.002 -0.0339  0.0182  2.1215
  149THF    H12 3076   5.524   0.574   5.164  1.6038 -0.9457 -0.1311
  149THF    H13 3077   5.529   0.698   5.040 -0.4169 -0.1711 -1.1372
  150THF     O1 3078   2.469   3.023   4.432  0.4135  0.5830  0.1036
  150THF     C2 3079   2.497   3.051   4.570  0.9158  0.2374 -0.5227
  150THF     C3 3080   2.452   3.143   4.363  0.2518  0.0255 -0.2256
  150THF     H4 3081   2.603   3.031   4.587  0.9784  0.6439 -0.4091
  150THF     H5 3082   2.438   2.980   4.629 -1.3815  0.6899 -2.1660
  150THF     H6 3083   2.548   3.186   4.335 -0.3072  1.0293 -0.6698
  150THF     H7 3084   2.385   3.150   4.277  0.3657 -0.7505 -0.3882
  150THF     C8 3085   2.391   3.234   4.477 -0.4638 -0.1107 -0.3067
  150THF     C9 3086   2.443   3.188   4.608 -1.0658 -0.2138 -0.5360
  150THF    H10 3087   2.282   3.238   4.486 -0.5281  2.6744 -1.3316
  150THF    H11 3088   2.421   3.339   4.472  1.9120 -0.7677 -1.1669
  150THF    H12 3089   2.528   3.253   4.630 -1.3619 -0.4846  1.6507
  150THF    H13 3090   2.376   3.190   4.694  0.9371  0.1780  1.1239
  151THF     O1 3091   5.271   0.762   0.930 -0.4108 -0.0266 -0.2290
  151THF     C2 3092   5.256   0.902   0.959  0.6958  0.4245 -0.5379
  151THF     C3 3093   5.347   0.750   0.805 -0.0452 -0.3025 -0.2723
  151THF     H4 3094   5.302   0.922   1.056 -0.2063 -0.1365  0.0187
  151THF     H5 3095   5.150   0.924   0.970  0.7736 -0.0484  1.6439
  151THF     H6 3096   5.409   0.661   0.803 -0.0035 -0.2744 -0.2362
  151THF     H7 3097   5.282   0.750   0.717 -0.0090  0.9820 -0.3223
  151THF     C8 3098   5.420   0.880   0.783 -0.1955 -0.5739  0.7189
  151THF     C9 3099   5.323   0.979   0.842  0.3748 -1.0482 -0.5132
  151THF    H10 3100   5.426   0.889   0.675  1.0190 -0.8091  0.7499
  151THF    H11 3101   5.521   0.880   0.825  2.2736 -0.6777 -4.4994
  151THF    H12 3102   5.367   1.070   0.883 -0.2085  0.1600 -2.4266
  151THF    H13 3103   5.243   1.003   0.772 -1.5573 -0.0422  1.8980
  152THF     O1 3104   0.335   5.175   2.228  0.1647 -0.2733  0.2442
  152THF     C2 3105   0.341   5.065   2.318 -0.0818  0.5773 -0.2001
  152THF     C3 3106   0.264   5.129   2.108  0.0399  0.1677  0.0856
  152THF     H4 3107   0.355   5.088   2.423  1.9313 -0.9185 -0.0729
  152THF     H5 3108   0.406   4.984   2.285  2.0401  0.9839  2.6176
  152THF     H6 3109   0.247   5.218   2.048  2.8740 -0.2748 -1.5310
  152THF     H7 3110   0.328   5.058   2.056 -0.0180 -0.0533  0.3119
  152THF     C8 3111   0.139   5.075   2.170  0.3197  0.0669  0.7538
  152THF     C9 3112   0.190   5.026   2.315 -0.3754  0.0936  1.1846
  152THF    H10 3113   0.104   4.990   2.111  0.9012  0.1943  0.2202
  152THF    H11 3114   0.058   5.146   2.189 -0.1401 -0.5999  1.3463
  152THF    H12 3115   0.136   5.085   2.390 -1.7459  1.2716 -0.6293
  152THF    H13 3116   0.177   4.921   2.338 -0.8242 -0.0611  0.2614
  153THF     O1 3117   3.936   4.935   5.364 -0.4610  0.2215 -0.1579
  153THF     C2 3118   3.949   5.072   5.395 -0.6478  0.0393 -0.1719
  153THF     C3 3119   3.938   4.850   5.479 -0.3617 -0.0893 -0.6794
  153THF     H4 3120   3.913   5.149   5.326  0.1092 -0.0938 -0.7224
  153THF     H5 3121   4.052   5.099   5.420 -0.9246  0.5553  0.4419
  153THF     H6 3122   3.899   4.750   5.461  1.8306 -0.4097 -4.7779
  153THF     H7 3123   4.046   4.846   5.495 -0.4675  0.1286  0.1476
  153THF     C8 3124   3.855   4.933   5.572  0.0220 -0.6125 -0.3970
  153THF     C9 3125   3.862   5.078   5.523  0.5779  0.3728  0.4451
  153THF    H10 3126   3.890   4.924   5.675  0.8567  1.5606 -0.4275
  153THF    H11 3127   3.754   4.892   5.567 -0.6609  0.6003  1.7993
  153THF    H12 3128   3.760   5.114   5.509 -0.3068 -1.6492  1.2410
  153THF    H13 3129   3.914   5.145   5.591 -1.0263  2.3269 -0.1496
  154THF     O1 3130   1.409   5.457   3.166  0.1938  0.1403 -0.0060
  154THF     C2 3131   1.480   5.540   3.072 -0.1108  0.5484 -0.2726
  154THF     C3 3132   1.271   5.473   3.139  0.1406  0.9294 -0.2299
  154THF     H4 3133   1.492   5.490   2.976  3.5078 -0.4867  0.5772
  154THF     H5 3134   1.582   5.563   3.102  0.0656  0.5980 -0.9000
  154THF     H6 3135   1.244   5.407   3.057  0.2167  1.9235 -1.0677
  154THF     H7 3136   1.195   5.453   3.215 -0.4247  1.3830 -0.6626
  154THF     C8 3137   1.257   5.615   3.084 -0.0305 -0.0502  0.1223
  154THF     C9 3138   1.397   5.670   3.061  0.4845  0.1713 -0.4870
  154THF    H10 3139   1.216   5.668   3.170 -0.1425 -0.4369  0.3074
  154THF    H11 3140   1.190   5.624   2.998 -1.7904  0.0009  1.4635
  154THF    H12 3141   1.409   5.712   2.961  1.4134 -1.7010 -1.2060
  154THF    H13 3142   1.435   5.732   3.143  2.3810 -0.0448 -1.1633
  155THF     O1 3143   4.688   3.084   0.094 -0.0063  0.2417 -0.5640
  155THF     C2 3144   4.609   3.127  -0.023 -0.6862  0.6081 -0.0830
  155THF     C3 3145   4.718   3.206   0.152  0.1615 -0.1722  0.5892
  155THF     H4 3146   4.560   3.039  -0.063  0.6480 -0.8217  1.2751
  155THF     H5 3147   4.677   3.166  -0.099  0.5216  0.1802  0.7600
  155THF     H6 3148   4.772   3.198   0.247  1.8526 -1.4692 -0.4159
  155THF     H7 3149   4.788   3.262   0.090  0.4927 -1.8853 -0.6696
  155THF     C8 3150   4.580   3.279   0.152 -0.4423  0.5755  0.1439
  155THF     C9 3151   4.508   3.233   0.026 -0.0486 -0.0808 -0.1823
  155THF    H10 3152   4.599   3.386   0.163 -2.9006  1.3399 -1.9602
  155THF    H11 3153   4.529   3.235   0.238  1.2243  0.0227  0.9095
  155THF    H12 3154   4.413   3.190   0.060 -0.2087 -0.0754 -0.6271
  155THF    H13 3155   4.499   3.308  -0.052  2.2535  0.9724  0.4911
  156THF     O1 3156   2.420   1.547   1.480 -0.3481  0.3064 -0.1505
  156THF     C2 3157   2.518   1.446   1.524 -1.0215 -0.5131  0.3158
  156THF     C3 3158   2.494   1.634   1.399  0.1811  0.4617  0.1154
  156THF     H4 3159   2.477   1.354   1.564  0.2880 -0.6154  1.5022
  156THF     H5 3160   2.596   1.485   1.589 -0.1297 -0.2117 -0.9019
  156THF     H6 3161   2.437   1.714   1.352  0.5921  1.1492  0.7702
  156THF     H7 3162   2.571   1.689   1.453  1.0890 -0.6341 -0.0162
  156THF     C8 3163   2.571   1.547   1.302  0.0222 -0.6484  0.6153
  156THF     C9 3164   2.578   1.418   1.383 -0.4598 -0.0610  0.1537
  156THF    H10 3165   2.666   1.595   1.278 -0.7994  0.8736  0.3156
  156THF    H11 3166   2.516   1.532   1.209  0.5053  3.1998 -0.4530
  156THF    H12 3167   2.522   1.336   1.337  0.7150 -1.0575  0.4756
  156THF    H13 3168   2.679   1.381   1.398 -0.2482  0.5209  0.1742
  157THF     O1 3169   3.361   5.291   3.800  0.0958  0.1219  0.2489
  157THF     C2 3170   3.459   5.348   3.894  0.0284 -0.3784 -0.0838
  157THF     C3 3171   3.330   5.158   3.839  0.0824  0.1698 -0.2093
  157THF     H4 3172   3.448   5.456   3.888 -1.4751 -0.5438 -0.5846
  157THF     H5 3173   3.559   5.311   3.871 -0.4368 -0.7772 -1.5855
  157THF     H6 3174   3.229   5.141   3.802  0.6086 -1.5344 -0.9645
  157THF     H7 3175   3.390   5.087   3.782  1.6800  0.9201  0.4735
  157THF     C8 3176   3.347   5.149   3.994  0.2359  0.0161  0.0455
  157THF     C9 3177   3.404   5.291   4.028  0.1580 -0.0530  0.2551
  157THF    H10 3178   3.417   5.070   4.021  2.6768  1.0455 -2.6045
  157THF    H11 3179   3.256   5.117   4.043  0.5433  0.3078  0.8236
  157THF    H12 3180   3.331   5.361   4.070  0.8655  0.1389  1.1938
  157THF    H13 3181   3.481   5.292   4.105 -2.0915 -2.3707  2.7816
  158THF     O1 3182   2.223   4.780   1.696 -0.1567  0.4123 -0.6479
  158THF     C2 3183   2.171   4.911   1.689  0.7173  0.1626 -0.1686
  158THF     C3 3184   2.247   4.749   1.835 -0.1818 -0.2681  0.2085
  158THF     H4 3185   2.063   4.895   1.692  0.9087 -1.0668  1.6525
  158THF     H5 3186   2.201   4.966   1.600 -0.5250  2.2316  0.6093
  158THF     H6 3187   2.154   4.729   1.888 -0.9725  1.6279 -0.3785
  158THF     H7 3188   2.326   4.675   1.843  0.3306  0.2256 -0.2203
  158THF     C8 3189   2.305   4.879   1.895  0.5829  0.4025 -0.2065
  158THF     C9 3190   2.226   4.986   1.815  0.3733  0.5009 -0.2389
  158THF    H10 3191   2.411   4.889   1.868  0.3282  0.3859 -1.2432
  158THF    H11 3192   2.296   4.879   2.003 -0.2625 -1.0818 -0.2427
  158THF    H12 3193   2.150   5.019   1.886 -0.1464  0.6281 -0.8531
  158THF    H13 3194   2.283   5.073   1.784  1.6878 -0.3789 -0.4112
  159THF     O1 3195   0.563   2.400   3.552 -0.2074  0.0152  0.0891
  159THF     C2 3196   0.433   2.353   3.514  0.0193 -0.1409 -0.2625
  159THF     C3 3197   0.614   2.474   3.441 -0.2629  0.3979 -0.0030
  159THF     H4 3198   0.362   2.434   3.525 -0.8612 -0.7589 -1.2494
  159THF     H5 3199   0.400   2.279   3.587  0.5633  1.1653  1.3853
  159THF     H6 3200   0.573   2.575   3.438 -0.3937  0.3596 -2.9570
  159THF     H7 3201   0.722   2.486   3.446 -0.0386 -1.0604 -0.6548
  159THF     C8 3202   0.564   2.394   3.322 -0.0401  0.0314 -0.2739
  159THF     C9 3203   0.440   2.319   3.367 -0.7110  0.4113  0.4167
  159THF    H10 3204   0.641   2.328   3.281 -0.8638 -0.6341 -0.7858
  159THF    H11 3205   0.537   2.450   3.232 -1.2277 -0.8950 -0.5213
  159THF    H12 3206   0.348   2.340   3.312 -0.0603 -2.8570 -2.2235
  159THF    H13 3207   0.461   2.213   3.373  0.3384  0.6858  3.8670
  160THF     O1 3208   2.784   3.610   3.849  0.5538 -0.7040  0.0195
  160THF     C2 3209   2.661   3.619   3.786 -0.2761 -0.1160 -0.6295
  160THF     C3 3210   2.791   3.491   3.932 -0.2243 -0.0919 -0.1026
  160THF     H4 3211   2.674   3.660   3.686  1.5425  1.7715  0.3150
  160THF     H5 3212   2.585   3.683   3.830 -1.4274 -0.7485 -1.6324
  160THF     H6 3213   2.894   3.458   3.946  0.1933  0.7677 -1.0659
  160THF     H7 3214   2.737   3.508   4.025  1.1255  1.8419  0.3959
  160THF     C8 3215   2.718   3.389   3.848 -0.7614  0.5380 -0.1834
  160THF     C9 3216   2.616   3.477   3.767  0.7882 -0.0253 -0.1068
  160THF    H10 3217   2.685   3.303   3.907  2.2109 -0.5707  0.0613
  160THF    H11 3218   2.786   3.342   3.777  1.8629 -0.8436  2.9462
  160THF    H12 3219   2.604   3.448   3.662 -1.3958  0.2773  0.0212
  160THF    H13 3220   2.515   3.473   3.809  1.7736 -0.3075  2.4057
  161THF     O1 3221   2.838   4.796   3.732 -0.0734 -0.5247 -0.3863
  161THF     C2 3222   2.839   4.941   3.747 -0.1631 -0.0138  0.1324
  161THF     C3 3223   2.973   4.758   3.729 -1.1165  0.0681 -0.2251
  161THF     H4 3224   2.740   4.975   3.778 -0.2748 -0.5709  0.4003
  161THF     H5 3225   2.862   4.986   3.650  0.7466  1.4912  1.0003
  161THF     H6 3226   2.985   4.652   3.753 -2.2389 -0.2095 -0.8063
  161THF     H7 3227   3.017   4.777   3.631  0.9477  0.0157  0.6500
  161THF     C8 3228   3.047   4.854   3.833 -0.1590  0.3299 -0.8698
  161THF     C9 3229   2.952   4.971   3.844  0.1166 -0.3584 -0.1865
  161THF    H10 3230   3.141   4.885   3.787  1.7665 -2.0304  1.2092
  161THF    H11 3231   3.057   4.811   3.933 -1.1164 -0.4181 -1.0771
  161THF    H12 3232   2.912   4.962   3.945 -0.3454 -2.2513 -0.5044
  161THF    H13 3233   3.000   5.069   3.833 -0.3918 -0.2799 -2.0171
  162THF     O1 3234   4.712   4.883   1.093 -0.1492  0.1611  0.0060
  162THF     C2 3235   4.749   4.939   1.217 -0.1256 -0.1328 -0.5638
  162THF     C3 3236   4.818   4.906   1.000  0.4150  0.1210  0.4457
  162THF     H4 3237   4.713   4.881   1.302  0.9296  0.3748  0.2458
  162THF     H5 3238   4.702   5.037   1.233 -0.1544 -0.1431 -0.5845
  162THF     H6 3239   4.854   4.809   0.964  0.0504  0.4235 -0.7864
  162THF     H7 3240   4.770   4.963   0.920  0.1114  1.6922  1.7021
  162THF     C8 3241   4.931   4.984   1.068  0.2496  0.4013 -0.1830
  162THF     C9 3242   4.900   4.957   1.208 -0.6596  0.2965  0.1595
  162THF    H10 3243   4.915   5.087   1.037 -1.3904  0.0197 -0.6684
  162THF    H11 3244   5.031   4.954   1.035 -0.8568 -2.6966 -1.0577
  162THF    H12 3245   4.945   4.861   1.237 -0.1454  0.6404  0.5129
  162THF    H13 3246   4.935   5.038   1.272 -0.5283 -0.0974  0.6009
  163THF     O1 3247   4.882   3.383   4.592 -0.6171  0.2905 -0.4467
  163THF     C2 3248   4.877   3.431   4.726 -0.0819 -0.6624  0.3904
  163THF     C3 3249   4.908   3.490   4.501  0.4310  0.3171 -0.6375
  163THF     H4 3250   4.888   3.353   4.802 -2.2193 -0.7550  0.6585
  163THF     H5 3251   4.778   3.475   4.734  0.8327  1.3306  1.5871
  163THF     H6 3252   4.967   3.450   4.419  2.3004 -1.2743  1.3523
  163THF     H7 3253   4.816   3.534   4.462 -1.3896  0.3147  3.1603
  163THF     C8 3254   4.978   3.600   4.584  0.6650 -0.5515  0.5928
  163THF     C9 3255   4.972   3.553   4.732 -0.9224  0.6665  0.2890
  163THF    H10 3256   4.930   3.696   4.571  0.4832 -0.7911 -0.6493
  163THF    H11 3257   5.083   3.620   4.561  1.1356 -1.7811  1.5386
  163THF    H12 3258   5.062   3.505   4.771 -1.2137 -0.7604 -0.7082
  163THF    H13 3259   4.937   3.637   4.792  1.5204  0.4964  2.1026
  164THF     O1 3260   1.840   4.225   4.173 -0.1842  0.3807  0.1005
  164THF     C2 3261   1.940   4.299   4.241 -0.5640 -0.4917  0.8384
  164THF     C3 3262   1.731   4.211   4.267  0.2277  0.3948  0.1672
  164THF     H4 3263   1.917   4.405   4.241  0.4711 -0.2443 -0.1697
  164THF     H5 3264   2.040   4.294   4.197 -0.9919  0.8181 -0.3365
  164THF     H6 3265   1.677   4.306   4.266  1.1182  0.9110 -0.1297
  164THF     H7 3266   1.666   4.131   4.231  1.0291 -0.0869 -0.2324
  164THF     C8 3267   1.793   4.185   4.403 -0.1295 -0.0158  0.2433
  164THF     C9 3268   1.938   4.248   4.388  0.3318 -0.0835 -0.7072
  164THF    H10 3269   1.798   4.077   4.407  1.2463  0.0478  0.8232
  164THF    H11 3270   1.735   4.236   4.480 -0.7531 -0.5403  0.1240
  164THF    H12 3271   1.950   4.325   4.464  0.2469 -0.8935  0.1474
  164THF    H13 3272   2.020   4.178   4.402  0.1525 -0.8138 -2.8954
  165THF     O1 3273   5.459   4.377   0.227  0.3345 -0.4435 -0.1002
  165THF     C2 3274   5.358   4.451   0.160 -0.7461  0.2431  0.0699
  165THF     C3 3275   5.411   4.330   0.355  0.6821 -0.4564  0.5054
  165THF     H4 3276   5.284   4.377   0.128  0.5118 -0.5909 -1.0455
  165THF     H5 3277   5.407   4.485   0.069 -1.1246 -3.4506 -1.7420
  165THF     H6 3278   5.359   4.235   0.346 -0.3879 -0.1890  3.0375
  165THF     H7 3279   5.488   4.311   0.431  1.0879  0.0366  0.2290
  165THF     C8 3280   5.318   4.438   0.393 -0.4024 -0.7866 -0.3139
  165THF     C9 3281   5.324   4.540   0.280 -0.0960  0.3650  1.1659
  165THF    H10 3282   5.335   4.489   0.488 -2.7014 -0.5238  0.0227
  165THF    H11 3283   5.214   4.405   0.388 -1.5542  2.6025 -1.6606
  165THF    H12 3284   5.230   4.593   0.263 -1.8039 -2.8701 -0.2544
  165THF    H13 3285   5.413   4.602   0.298  0.8748 -0.3645 -0.8857
  166THF     O1 3286   0.711   2.051   3.317 -0.1787  0.7137 -0.2346
  166THF     C2 3287   0.645   2.000   3.439 -0.6087  0.0172  0.5333
  166THF     C3 3288   0.837   1.988   3.318  0.3170 -0.0630  0.2295
  166THF     H4 3289   0.610   1.897   3.448 -0.4672 -0.0237  0.6197
  166THF     H5 3290   0.550   2.051   3.457 -0.5528  1.5725 -2.8997
  166THF     H6 3291   0.813   1.890   3.277 -1.3084  0.6281 -0.5574
  166THF     H7 3292   0.922   2.022   3.259  0.4577 -2.3051 -0.9696
  166THF     C8 3293   0.874   2.014   3.464 -0.0433  0.6429  0.4466
  166THF     C9 3294   0.750   2.015   3.547  0.5025  0.3067  1.2769
  166THF    H10 3295   0.932   2.105   3.479 -1.7390  1.9515 -0.6144
  166THF    H11 3296   0.928   1.929   3.506 -0.6119  0.2802  0.4561
  166THF    H12 3297   0.746   1.926   3.609 -2.0190 -1.9853 -1.7976
  166THF    H13 3298   0.741   2.109   3.602  2.2733  1.1336  0.2567
  167THF     O1 3299   1.707   0.354   1.732  0.2172  0.7898 -0.1808
  167THF     C2 3300   1.799   0.368   1.623 -0.3895  0.3736  0.5075
  167THF     C3 3301   1.771   0.401   1.844  1.3877 -0.3015  0.4675
  167THF     H4 3302   1.750   0.350   1.527 -0.9799 -0.8806  1.0268
  167THF     H5 3303   1.892   0.313   1.619  1.2353  2.9917 -2.3027
  167THF     H6 3304   1.692   0.434   1.911  0.6983 -0.4009 -0.2899
  167THF     H7 3305   1.835   0.329   1.894 -0.4206 -0.9282  2.0040
  167THF     C8 3306   1.853   0.523   1.787 -0.1253  0.1783  0.4076
  167THF     C9 3307   1.840   0.517   1.638  0.4424 -0.1251 -0.4283
  167THF    H10 3308   1.955   0.500   1.819 -0.1923 -0.6892  0.0275
  167THF    H11 3309   1.815   0.620   1.817 -1.9948  0.3182 -2.0630
  167THF    H12 3310   1.758   0.584   1.610 -0.2418  0.4348  2.6209
  167THF    H13 3311   1.930   0.552   1.587  0.1272  1.1396 -0.1614
  168THF     O1 3312   5.363   1.369   0.631 -0.7463  0.3026 -0.1650
  168THF     C2 3313   5.273   1.296   0.719 -1.1333 -0.0492  0.1322
  168THF     C3 3314   5.302   1.378   0.503  0.2437  0.6672 -0.5587
  168THF     H4 3315   5.292   1.315   0.824  0.0293  2.8103 -0.5000
  168THF     H5 3316   5.293   1.191   0.697  0.4040 -0.0899  1.5077
  168THF     H6 3317   5.335   1.469   0.453  1.9569 -0.0452 -0.7750
  168THF     H7 3318   5.329   1.287   0.450 -0.0842 -0.4323  1.0657
  168THF     C8 3319   5.149   1.384   0.525 -0.2770  0.6178 -0.7304
  168THF     C9 3320   5.131   1.336   0.666  0.0851  0.8961 -0.9384
  168THF    H10 3321   5.090   1.334   0.449 -1.0353  0.0013  0.2429
  168THF    H11 3322   5.122   1.490   0.528  0.0286  0.6815  0.6780
  168THF    H12 3323   5.094   1.410   0.737  0.5981 -1.5595  2.1109
  168THF    H13 3324   5.067   1.248   0.666 -0.2782  1.1062 -3.1875
  169THF     O1 3325   1.746   3.054   3.466  0.5766  0.2873 -0.0871
  169THF     C2 3326   1.884   3.092   3.486 -0.1764 -0.4681 -0.1897
  169THF     C3 3327   1.675   3.147   3.547 -0.1158  0.5080 -0.0416
  169THF     H4 3328   1.890   3.182   3.425 -3.0543 -1.6886 -2.4506
  169THF     H5 3329   1.944   3.012   3.443  1.5825  1.8103 -2.2302
  169THF     H6 3330   1.678   3.238   3.487 -0.4156  0.6323  0.1219
  169THF     H7 3331   1.571   3.127   3.573  0.1851 -0.9057  0.1286
  169THF     C8 3332   1.758   3.154   3.675  1.0154 -0.9267 -0.7835
  169THF     C9 3333   1.904   3.129   3.633  0.5559 -0.1583  0.1218
  169THF    H10 3334   1.723   3.079   3.745 -1.4099 -0.7001 -1.6619
  169THF    H11 3335   1.747   3.254   3.717 -1.1109 -1.2759 -0.4205
  169THF    H12 3336   1.969   3.217   3.637  1.1182 -0.4512 -1.5832
  169THF    H13 3337   1.938   3.038   3.682  1.9232  1.1397  1.7267
  170THF     O1 3338   0.337   3.687   1.344 -0.1339  0.2101 -0.6591
  170THF     C2 3339   0.352   3.543   1.350  0.3304  0.2388  0.3079
  170THF     C3 3340   0.468   3.745   1.332  0.9131  0.1088  0.5002
  170THF     H4 3341   0.263   3.498   1.306  0.2320  1.2733 -0.5901
  170THF     H5 3342   0.353   3.507   1.453 -2.0138  2.5393  1.2282
  170THF     H6 3343   0.473   3.846   1.292 -5.2322  0.8456  0.6231
  170THF     H7 3344   0.514   3.755   1.431  1.8112  0.5627  0.0456
  170THF     C8 3345   0.539   3.645   1.244  0.2893  0.3774 -0.1692
  170THF     C9 3346   0.484   3.509   1.286 -0.0102 -0.0706 -0.0758
  170THF    H10 3347   0.648   3.646   1.234  0.3644  1.7124  0.4890
  170THF    H11 3348   0.506   3.669   1.143 -1.3450  2.1093  0.7074
  170THF    H12 3349   0.463   3.438   1.206 -0.2619  0.0532 -0.1176
  170THF    H13 3350   0.561   3.465   1.350 -2.2281  0.0362  2.8214
  171THF     O1 3351   0.036   3.196   4.534 -0.2680 -0.1149 -0.0589
  171THF     C2 3352   0.116   3.147   4.430 -0.2238  0.8145 -0.2068
  171THF     C3 3353   0.049   3.339   4.543 -0.0508  0.2255 -0.0137
  171THF     H4 3354   0.052   3.139   4.343 -0.4061  0.1821 -0.0190
  171THF     H5 3355   0.145   3.046   4.458  0.0494 -0.3001 -3.9964
  171THF     H6 3356  -0.006   3.398   4.470  2.5224  0.9866 -1.4700
  171THF     H7 3357   0.025   3.376   4.643 -0.3143 -1.7100  0.7010
  171THF     C8 3358   0.201   3.355   4.517 -0.3179 -0.1898  1.0131
  171THF     C9 3359   0.230   3.248   4.415 -0.4914  0.2105  0.1773
  171THF    H10 3360   0.255   3.332   4.609  1.2437 -2.7566 -0.4506
  171THF    H11 3361   0.241   3.453   4.491  0.7059 -0.8819 -0.0767
  171THF    H12 3362   0.223   3.291   4.315  3.0136  1.3609  0.2770
  171THF    H13 3363   0.332   3.209   4.421 -0.9353 -0.9721  0.4013
  172THF     O1 3364   1.978   1.988   2.105 -0.9084 -0.9397 -0.4214
  172THF     C2 3365   1.976   1.852   2.076  0.0930  0.2987 -0.2700
  172THF     C3 3366   1.953   2.059   1.992  0.0706 -0.0577 -0.3295
  172THF     H4 3367   1.871   1.823   2.072  0.3656 -0.5970 -1.8477
  172THF     H5 3368   2.044   1.810   2.150  0.4779  2.2324  0.5292
  172THF     H6 3369   1.850   2.060   1.957  0.5554  0.2530 -1.8360
  172THF     H7 3370   1.978   2.161   2.020  3.2974 -1.0103  0.7009
  172THF     C8 3371   2.043   1.980   1.890  0.1022 -0.3099 -0.1461
  172THF     C9 3372   2.039   1.842   1.934 -0.0318 -0.0341 -0.8713
  172THF    H10 3373   2.144   2.020   1.905  0.2326 -0.7471  0.1555
  172THF    H11 3374   2.010   1.998   1.788 -0.3041  0.3915  0.1017
  172THF    H12 3375   1.968   1.795   1.866 -2.3549 -1.1139  2.0762
  172THF    H13 3376   2.139   1.801   1.932  0.3120  0.6170  0.9733
  173THF     O1 3377   1.100   0.038   5.106 -0.6483  0.0417  0.2975
  173THF     C2 3378   1.016  -0.077   5.099  0.0827 -0.5811 -0.0547
  173THF     C3 3379   1.231  -0.014   5.114 -0.4404 -0.5822  0.0161
  173THF     H4 3380   1.025  -0.109   4.995  1.2757 -3.2403  0.7600
  173THF     H5 3381   0.909  -0.066   5.118  0.2260  1.7655 -0.4030
  173THF     H6 3382   1.266  -0.063   5.023 -1.7500 -0.5212 -0.5477
  173THF     H7 3383   1.298   0.062   5.154 -0.2762 -0.1264 -1.1017
  173THF     C8 3384   1.218  -0.116   5.229  0.4509  0.3643  0.7719
  173THF     C9 3385   1.089  -0.187   5.183  0.1075 -0.4727 -0.3564
  173THF    H10 3386   1.202  -0.060   5.322 -0.7519  3.1569 -1.0034
  173THF    H11 3387   1.307  -0.177   5.242  0.6129  0.4362 -0.0000
  173THF    H12 3388   1.118  -0.267   5.115 -0.1494 -1.0549  0.1994
  173THF    H13 3389   1.036  -0.232   5.268 -2.8311 -0.1954 -1.9225
  174THF     O1 3390   0.821   0.766   4.207  0.1829 -0.2504 -0.5787
  174THF     C2 3391   0.908   0.830   4.301 -0.7540 -0.5682  0.1307
  174THF     C3 3392   0.784   0.867   4.116 -0.1751 -0.5185 -0.4217
  174THF     H4 3393   1.010   0.820   4.264  0.2266 -0.2978  2.6168
  174THF     H5 3394   0.895   0.776   4.395 -2.9276 -0.8807 -0.2898
  174THF     H6 3395   0.858   0.868   4.035 -0.4875  2.1199 -0.7727
  174THF     H7 3396   0.694   0.831   4.065 -1.1153  1.9270 -0.6455
  174THF     C8 3397   0.785   1.003   4.186  0.2353  0.1540 -0.5998
  174THF     C9 3398   0.863   0.973   4.310 -0.8500  0.0271  0.0581
  174THF    H10 3399   0.693   1.057   4.203 -0.2657 -1.0075  0.5183
  174THF    H11 3400   0.852   1.069   4.130  2.0122  0.6423  1.9348
  174THF    H12 3401   0.933   1.050   4.341 -0.9771  0.2049 -0.0986
  174THF    H13 3402   0.788   0.964   4.388 -0.8598 -1.5162 -0.1012
  175THF     O1 3403   0.697   1.997   1.315 -0.0604 -0.3136 -0.0523
  175THF     C2 3404   0.730   1.866   1.372  0.0384 -0.4143  0.2462
  175THF     C3 3405   0.643   1.971   1.185 -0.1141  0.5862 -0.5840
  175THF     H4 3406   0.646   1.824   1.428  0.3010  0.3782  1.2548
  175THF     H5 3407   0.816   1.878   1.437  1.2277  0.1941 -1.3594
  175THF     H6 3408   0.543   2.013   1.182 -0.3182  0.1419 -0.2567
  175THF     H7 3409   0.699   2.026   1.109  0.3763 -1.7658 -2.0353
  175THF     C8 3410   0.651   1.825   1.152 -0.4403 -0.0688  0.5528
  175THF     C9 3411   0.753   1.775   1.249 -0.2958 -1.0178  0.6491
  175THF    H10 3412   0.692   1.805   1.053  1.2420 -3.4809  1.7847
  175THF    H11 3413   0.553   1.782   1.171  0.3385 -1.5834  1.2777
  175THF    H12 3414   0.749   1.671   1.281  0.3372 -0.9790  0.8504
  175THF    H13 3415   0.857   1.787   1.220 -0.4489 -0.2739  0.3723
  176THF     O1 3416   1.763   3.733   0.679 -0.3419 -0.3991  0.1813
  176THF     C2 3417   1.910   3.758   0.659  0.0850  0.2135  0.5553
  176THF     C3 3418   1.712   3.862   0.713  0.5828 -0.2791 -0.2683
  176THF     H4 3419   1.944   3.682   0.589  0.7573  0.2679  0.8258
  176THF     H5 3420   1.985   3.761   0.737  1.2097 -1.7191 -0.3668
  176THF     H6 3421   1.603   3.865   0.704  0.2054  3.0136  3.0405
  176THF     H7 3422   1.724   3.875   0.821 -1.2275 -0.3549 -0.0194
  176THF     C8 3423   1.794   3.961   0.631  0.4936  0.5111  0.9186
  176THF     C9 3424   1.923   3.889   0.588  0.2788  0.3276  0.3786
  176THF    H10 3425   1.812   4.048   0.694  0.6440  2.4642 -1.6940
  176THF    H11 3426   1.732   4.011   0.557 -3.1557 -0.9023  2.7324
  176THF    H12 3427   1.917   3.876   0.480  4.0793  0.0203  0.0439
  176THF    H13 3428   2.017   3.943   0.600  1.5910 -1.3530 -1.5651
  177THF     O1 3429   1.997   1.364   5.133  0.1425 -0.4877 -0.3227
  177THF     C2 3430   2.000   1.240   5.064  0.3325 -0.1852  0.6914
  177THF     C3 3431   1.954   1.468   5.046  0.2409 -0.7641  0.0556
  177THF     H4 3432   2.009   1.153   5.129  1.0715  0.6095  1.6957
  177THF     H5 3433   2.077   1.247   4.987  2.6979 -1.2210  2.7965
  177THF     H6 3434   1.917   1.554   5.102 -1.7995 -0.0707 -2.1989
  177THF     H7 3435   2.031   1.503   4.978 -0.8653  0.2104 -0.7357
  177THF     C8 3436   1.850   1.398   4.960  0.0539 -0.2770 -0.3471
  177THF     C9 3437   1.865   1.250   4.988 -0.3345  0.1552 -0.6871
  177THF    H10 3438   1.867   1.421   4.854  1.9059  2.0442  0.3666
  177THF    H11 3439   1.752   1.431   4.992  0.1102 -1.1017  0.7172
  177THF    H12 3440   1.780   1.214   5.045  0.2914 -1.5037 -0.7511
  177THF    H13 3441   1.884   1.187   4.901 -0.9072 -0.6412 -0.2542
  178THF     O1 3442   3.051   2.120   3.572 -0.2060  0.0912 -0.1147
  178THF     C2 3443   3.072   2.208   3.461 -0.3513  0.0776  0.2160
  178THF     C3 3444   3.098   2.193   3.689 -0.0492 -0.4608  0.4366
  178THF     H4 3445   2.996   2.286   3.464 -1.4094 -0.7312 -2.6548
  178THF     H5 3446   3.060   2.141   3.376 -0.3498  0.1024  0.1965
  178THF     H6 3447   3.009   2.226   3.742  0.9260 -0.6004  2.2644
  178THF     H7 3448   3.141   2.132   3.769  2.1086  1.5203  0.8903
  178THF     C8 3449   3.202   2.292   3.634  0.7576 -0.2701 -0.6199
  178THF     C9 3450   3.215   2.264   3.485  0.0376 -0.0488  0.5227
  178THF    H10 3451   3.296   2.287   3.690  0.0965 -0.2268  0.5209
  178THF    H11 3452   3.156   2.390   3.650 -0.1825 -1.1140  2.6038
  178THF    H12 3453   3.239   2.350   3.422 -0.6845 -0.8079 -0.8078
  178THF    H13 3454   3.293   2.192   3.461 -0.7822  0.0305 -2.8841
  179THF     O1 3455   0.459   5.074   3.090 -0.6421 -0.2822 -0.2480
  179THF     C2 3456   0.481   5.131   2.956  0.3219 -0.2306  0.1244
  179THF     C3 3457   0.569   5.103   3.173 -0.3892  0.3479 -0.7415
  179THF     H4 3458   0.397   5.151   2.889  1.4056 -0.5249 -1.3680
  179THF     H5 3459   0.546   5.059   2.907  2.2634  1.1112  0.5937
  179THF     H6 3460   0.552   5.067   3.275  2.4508  2.5182  0.6297
  179THF     H7 3461   0.659   5.063   3.128  0.7798  3.2767 -1.2203
  179THF     C8 3462   0.572   5.256   3.146  0.5678  1.6512  0.4013
  179THF     C9 3463   0.561   5.260   3.001  0.8026 -0.2200  0.4218
  179THF    H10 3464   0.658   5.309   3.188  1.8418  0.3298 -0.4426
  179THF    H11 3465   0.474   5.281   3.186  0.1227  0.4413  0.1147
  179THF    H12 3466   0.489   5.342   2.988 -0.6136 -1.3508  0.8452
  179THF    H13 3467   0.651   5.279   2.943  1.3377  1.7274  1.7769
  180THF     O1 3468   3.015   3.448   4.486 -0.1716 -0.7833  0.2439
  180THF     C2 3469   3.103   3.346   4.442 -0.3245 -0.0931 -0.8373
  180THF     C3 3470   2.892   3.417   4.419  0.5447  0.1608 -0.2760
  180THF     H4 3471   3.091   3.267   4.516  1.5052  0.3411 -0.0065
  180THF     H5 3472   3.207   3.379   4.443 -0.6970  1.4333  2.3563
  180THF     H6 3473   2.844   3.333   4.468  1.7075 -0.7719 -0.6766
  180THF     H7 3474   2.823   3.501   4.426 -0.6209 -0.7528 -0.5250
  180THF     C8 3475   2.931   3.383   4.276 -0.6179 -0.4271 -0.5137
  180THF     C9 3476   3.062   3.313   4.305 -0.7427 -0.3870 -0.0602
  180THF    H10 3477   2.957   3.481   4.235 -0.7698  0.3674  1.1901
  180THF    H11 3478   2.850   3.335   4.221 -0.2148 -0.2234 -1.2979
  180THF    H12 3479   3.023   3.211   4.303 -1.3718 -0.1439 -0.6831
  180THF    H13 3480   3.140   3.326   4.229  1.3741  0.3506  2.1196
  181THF     O1 3481   1.735   4.862   1.912 -0.7218 -0.5520 -0.0213
  181THF     C2 3482   1.813   4.745   1.939 -0.1930 -0.0884  0.6336
  181THF     C3 3483   1.610   4.820   1.966  0.1794 -0.8279  0.0773
  181THF     H4 3484   1.838   4.725   2.043  1.4390 -2.0428 -0.0646
  181THF     H5 3485   1.909   4.746   1.887  0.3604  0.0961  1.6380
  181THF     H6 3486   1.607   4.824   2.075 -1.6739 -0.4720  0.0553
  181THF     H7 3487   1.533   4.889   1.929  0.7522  0.7533  1.6850
  181THF     C8 3488   1.587   4.688   1.898 -0.8205  0.0286 -0.0248
  181THF     C9 3489   1.725   4.636   1.886 -0.3216 -0.5233  0.4343
  181THF    H10 3490   1.541   4.708   1.801  0.7156  2.1222 -0.4154
  181THF    H11 3491   1.529   4.620   1.960  0.1512 -1.1202 -0.3292
  181THF    H12 3492   1.751   4.549   1.947  0.0275 -0.2194  0.7222
  181THF    H13 3493   1.745   4.607   1.783  0.7362  1.1418  0.1267
  182THF     O1 3494   3.348   1.344   4.073 -0.5727 -0.0317  0.9652
  182THF     C2 3495   3.305   1.337   3.936 -1.4264  0.3722 -0.2199
  182THF     C3 3496   3.273   1.454   4.127 -0.2018 -0.0975  0.1796
  182THF     H4 3497   3.344   1.242   3.900 -2.6987  0.4447 -1.9296
  182THF     H5 3498   3.356   1.414   3.878 -0.5024 -1.3610 -1.8263
  182THF     H6 3499   3.254   1.445   4.234 -0.5987 -0.7874  0.0571
  182THF     H7 3500   3.325   1.549   4.114  1.5853 -0.8624  1.3414
  182THF     C8 3501   3.139   1.447   4.055  0.6282 -0.2807  0.2867
  182THF     C9 3502   3.157   1.363   3.940 -1.0918  0.7158  0.1336
  182THF    H10 3503   3.120   1.549   4.023  1.2482  0.1464  1.2241
  182THF    H11 3504   3.057   1.421   4.123 -2.1822  1.5119 -2.1726
  182THF    H12 3505   3.122   1.263   3.962 -0.6227  0.4545 -0.2798
  182THF    H13 3506   3.110   1.399   3.848  2.5838  0.8313 -1.8910
  183THF     O1 3507   1.201   1.689   2.445 -0.3953  1.1012 -0.5710
  183THF     C2 3508   1.195   1.617   2.563  0.0614  0.6372 -0.4576
  183THF     C3 3509   1.279   1.808   2.476  0.1497  0.2980  0.2198
  183THF     H4 3510   1.145   1.521   2.551  0.5700  0.0595  1.5467
  183THF     H5 3511   1.121   1.672   2.621  1.4435  1.4425  0.6236
  183THF     H6 3512   1.306   1.856   2.383  0.9486 -0.5963 -0.0303
  183THF     H7 3513   1.223   1.864   2.551 -0.6713 -0.7341  0.4095
  183THF     C8 3514   1.396   1.741   2.548 -0.1390 -0.4625  0.5677
  183THF     C9 3515   1.338   1.617   2.613 -0.1374 -0.4582  0.9320
  183THF    H10 3516   1.450   1.796   2.625  0.1022  0.2745 -0.1119
  183THF    H11 3517   1.466   1.718   2.467  1.5837  1.1802  1.5004
  183THF    H12 3518   1.384   1.534   2.559 -0.5926 -0.2320  0.1718
  183THF    H13 3519   1.361   1.608   2.719  0.2344  0.1653  0.9095
  184THF     O1 3520   1.208   0.448   0.068 -0.6177  0.1250  0.5620
  184THF     C2 3521   1.328   0.518   0.076  0.4294 -0.1637  0.1561
  184THF     C3 3522   1.226   0.346  -0.039  0.4152 -0.6916 -0.4203
  184THF     H4 3523   1.346   0.571   0.170  0.0207  0.3945 -0.0748
  184THF     H5 3524   1.328   0.593  -0.003 -2.6595  1.7594  1.8018
  184THF     H6 3525   1.154   0.266  -0.019 -3.0772  2.4065  0.6421
  184THF     H7 3526   1.199   0.399  -0.131 -1.2353  1.9024  1.4129
  184THF     C8 3527   1.372   0.311  -0.037  0.1543  0.0116 -0.0541
  184THF     C9 3528   1.431   0.418   0.056 -0.2471 -0.5636 -0.8411
  184THF    H10 3529   1.410   0.305  -0.139  0.7880  1.9290  0.0347
  184THF    H11 3530   1.393   0.207  -0.009  2.6591  0.3188 -0.5204
  184THF    H12 3531   1.462   0.369   0.148  0.6303  1.7188  0.1444
  184THF    H13 3532   1.519   0.469   0.016 -1.1734  1.1566 -0.8033
  185THF     O1 3533   3.576   2.702   4.606  0.2195 -0.0200  0.5573
  185THF     C2 3534   3.531   2.622   4.718  0.3989 -0.2185  0.3545
  185THF     C3 3535   3.707   2.754   4.631 -0.3296  0.2002 -0.2944
  185THF     H4 3536   3.474   2.534   4.687  2.2400 -0.7165 -1.8686
  185THF     H5 3537   3.467   2.695   4.769 -0.2193 -0.0445 -0.6203
  185THF     H6 3538   3.780   2.701   4.569 -0.8326 -0.7876 -0.0760
  185THF     H7 3539   3.713   2.860   4.611  3.2984  0.2578  0.4762
  185THF     C8 3540   3.736   2.714   4.774 -0.6467  0.3856 -0.3956
  185THF     C9 3541   3.661   2.590   4.785  0.0597 -0.5783 -0.3887
  185THF    H10 3542   3.692   2.783   4.846  0.6838  0.4195  0.4359
  185THF    H11 3543   3.836   2.698   4.815 -0.8683  2.3242  1.0693
  185THF    H12 3544   3.700   2.503   4.733 -2.1096 -1.0383 -1.3657
  185THF    H13 3545   3.654   2.556   4.888  0.5688 -3.5242 -1.2334
  186THF     O1 3546   2.722   2.663   1.885  0.4736 -0.0553 -0.1809
  186THF     C2 3547   2.671   2.533   1.889  0.3366  0.4769  0.1817
  186THF     C3 3548   2.721   2.713   2.018  0.4255  0.4379  0.6768
  186THF     H4 3549   2.680   2.481   1.793  2.6454  1.7576 -0.3562
  186THF     H5 3550   2.563   2.532   1.902 -0.5148 -2.3974 -4.6757
  186THF     H6 3551   2.774   2.808   2.025  2.5593 -0.6577  0.2799
  186THF     H7 3552   2.618   2.739   2.042  0.7749  2.0623  0.5721
  186THF     C8 3553   2.790   2.602   2.100 -0.2358  0.5439  0.4312
  186THF     C9 3554   2.748   2.476   2.016 -0.0268 -0.1942  0.8674
  186THF    H10 3555   2.775   2.601   2.207  2.3363 -0.5980  0.8555
  186THF    H11 3556   2.894   2.623   2.074 -0.7749  1.0167 -1.5636
  186THF    H12 3557   2.822   2.406   1.979 -0.3548 -0.1165  0.0469
  186THF    H13 3558   2.688   2.404   2.073 -1.5958 -0.5193 -1.1092
  187THF     O1 3559   2.400   4.317   1.039 -0.1564 -0.0253 -0.3728
  187THF     C2 3560   2.475   4.225   0.967  0.5533  0.5035  0.2303
  187THF     C3 3561   2.449   4.327   1.175  0.5720 -0.0063  0.5670
  187THF     H4 3562   2.465   4.252   0.862 -0.4401  2.8888  0.8682
  187THF     H5 3563   2.432   4.125   0.972 -1.0241  1.0961 -0.7553
  187THF     H6 3564   2.456   4.435   1.184  0.8207 -0.0008  0.3136
  187THF     H7 3565   2.384   4.291   1.255  2.1647  1.0271  2.4082
  187THF     C8 3566   2.583   4.257   1.177  0.6511  0.3707  0.3705
  187THF     C9 3567   2.615   4.244   1.026  0.0041  0.5959 -0.8457
  187THF    H10 3568   2.571   4.157   1.219  2.1886  0.7321  1.8292
  187THF    H11 3569   2.662   4.308   1.232 -0.4341  0.8108  1.5693
  187THF    H12 3570   2.653   4.339   0.987  1.2420  0.5197  0.0844
  187THF    H13 3571   2.689   4.167   1.004 -0.2358  0.0398  0.2067
  188THF     O1 3572   4.880   0.301   3.985  0.2658 -0.5194 -0.4462
  188THF     C2 3573   4.885   0.179   3.908  0.1587  0.2963  0.4456
  188THF     C3 3574   5.010   0.319   4.041  0.6318 -0.7430 -0.1650
  188THF     H4 3575   4.881   0.204   3.802 -0.2077  0.3821  0.4784
  188THF     H5 3576   4.799   0.121   3.941 -0.4475  1.6619  1.3424
  188THF     H6 3577   5.058   0.380   3.965  0.5526  0.9292  1.0495
  188THF     H7 3578   5.001   0.377   4.134  1.7080  0.4348 -0.7626
  188THF     C8 3579   5.070   0.185   4.064  0.1202 -0.2934 -0.5271
  188THF     C9 3580   5.016   0.117   3.938  0.0888  0.1695  0.8597
  188THF    H10 3581   5.041   0.143   4.160 -0.8680  4.3897  1.5103
  188THF    H11 3582   5.178   0.201   4.064  0.1825 -0.5929  1.0066
  188THF    H12 3583   5.084   0.117   3.853  1.5788  1.4183  1.9906
  188THF    H13 3584   4.993   0.011   3.947 -2.5325  0.3705 -1.9111
  189THF     O1 3585   2.817   0.571   5.418 -0.1035 -0.3194  0.5338
  189THF     C2 3586   2.928   0.596   5.334  0.0327  1.0154 -0.0338
  189THF     C3 3587   2.806   0.434   5.429  0.0696  0.0048 -0.1760
  189THF     H4 3588   3.011   0.581   5.404 -1.0692  1.1268  1.3505
  189THF     H5 3589   2.943   0.700   5.306  1.0292  0.5719 -1.2130
  189THF     H6 3590   2.881   0.400   5.501 -1.4687 -1.2864  0.9092
  189THF     H7 3591   2.707   0.402   5.463 -0.5804  0.0218 -1.9503
  189THF     C8 3592   2.833   0.383   5.288 -0.6254 -0.1342  0.0142
  189THF     C9 3593   2.921   0.495   5.224  0.6392 -0.0633 -0.1172
  189THF    H10 3594   2.744   0.368   5.227 -0.5746 -0.3930  0.0045
  189THF    H11 3595   2.883   0.287   5.278 -0.8635 -0.2118 -0.4137
  189THF    H12 3596   3.020   0.462   5.193  0.5410 -1.5647  1.0567
  189THF    H13 3597   2.856   0.530   5.144 -2.8208 -2.1394  1.5657
  190THF     O1 3598   1.295   0.157   3.704  0.3655 -0.6548 -0.4221
  190THF     C2 3599   1.194   0.128   3.613  0.0304 -0.1316 -0.0463
  190THF     C3 3600   1.410   0.198   3.628 -0.0070  0.9495  0.0810
  190THF     H4 3601   1.094   0.138   3.654  0.3976 -1.6836  1.3618
  190THF     H5 3602   1.212   0.027   3.576 -0.0700 -0.5454  0.9990
  190THF     H6 3603   1.484   0.253   3.686  1.4359  0.2721 -1.0440
  190THF     H7 3604   1.457   0.102   3.608 -2.8990 -0.5584  0.0050
  190THF     C8 3605   1.359   0.254   3.493  0.1341  0.1343 -0.4415
  190THF     C9 3606   1.209   0.234   3.499 -0.2691  0.9074 -0.2058
  190THF    H10 3607   1.391   0.180   3.420  0.7737 -2.4838  2.2793
  190THF    H11 3608   1.396   0.356   3.482  0.1589  0.4277  1.7779
  190THF    H12 3609   1.162   0.324   3.537 -1.3305  1.1703 -2.0568
  190THF    H13 3610   1.151   0.211   3.410  0.1628  3.4930 -1.2439
  191THF     O1 3611   2.844   0.303   1.376  0.2225  0.1662 -0.1136
  191THF     C2 3612   2.737   0.358   1.446  0.2522  0.9264 -0.4009
  191THF     C3 3613   2.805   0.172   1.331  0.3939 -1.1501 -0.2355
  191THF     H4 3614   2.666   0.392   1.370  2.3167  1.5915 -2.1483
  191THF     H5 3615   2.756   0.445   1.509 -0.5863 -0.4729  1.9140
  191THF     H6 3616   2.731   0.194   1.254  0.9377  1.4936 -0.1021
  191THF     H7 3617   2.893   0.127   1.286 -0.9027 -1.1499 -3.0121
  191THF     C8 3618   2.753   0.114   1.457  0.6648 -0.7180  0.1375
  191THF     C9 3619   2.705   0.238   1.528 -0.2001 -0.1111  0.1304
  191THF    H10 3620   2.837   0.069   1.511  0.6951  0.2266  0.9006
  191THF    H11 3621   2.672   0.042   1.448 -0.8320  0.6873  1.7250
  191THF    H12 3622   2.601   0.247   1.559  0.0047  1.6587  0.3669
  191THF    H13 3623   2.755   0.247   1.624  0.6479 -1.6772 -0.1336
  192THF     O1 3624   3.796   1.302   1.603  0.4144  0.4638 -0.0522
  192THF     C2 3625   3.783   1.298   1.739 -0.1578 -0.4771 -0.3109
  192THF     C3 3626   3.742   1.428   1.551  0.5833  0.3121 -0.1463
  192THF     H4 3627   3.868   1.244   1.780 -0.2189 -1.6315 -1.6249
  192THF     H5 3628   3.689   1.258   1.778 -0.6775  1.3139  0.3961
  192THF     H6 3629   3.784   1.449   1.452 -0.6310 -2.2596 -1.3166
  192THF     H7 3630   3.634   1.425   1.541  0.7461 -0.2910 -2.1849
  192THF     C8 3631   3.788   1.529   1.666 -0.4494 -0.0574  0.1887
  192THF     C9 3632   3.776   1.443   1.787 -0.4609 -0.2178 -1.0222
  192THF    H10 3633   3.721   1.613   1.677 -1.0742 -0.6034  0.6095
  192THF    H11 3634   3.885   1.561   1.628 -2.0397  4.2677 -0.8372
  192THF    H12 3635   3.862   1.458   1.853 -0.6078  0.0086 -0.8826
  192THF    H13 3636   3.684   1.459   1.842 -0.0812 -1.3801  0.0198
  193THF     O1 3637   4.521   1.439   2.212  0.4067  0.7025  0.0491
  193THF     C2 3638   4.536   1.326   2.134  0.6737  0.2334  0.5032
  193THF     C3 3639   4.626   1.527   2.179 -0.3623 -0.4492  0.3840
  193THF     H4 3640   4.450   1.260   2.146 -0.7618  2.0775  0.7147
  193THF     H5 3641   4.623   1.269   2.167 -0.8604 -1.2912  2.1500
  193THF     H6 3642   4.621   1.633   2.202 -0.7355 -0.4893  0.4948
  193THF     H7 3643   4.720   1.498   2.225  1.0597  0.8721 -1.4923
  193THF     C8 3644   4.633   1.522   2.030  0.0191  0.2271  0.4255
  193THF     C9 3645   4.555   1.394   1.994  0.1314 -0.0122  0.4414
  193THF    H10 3646   4.733   1.510   1.987 -0.3619  1.4147 -0.8814
  193THF    H11 3647   4.600   1.617   1.989  2.0704  0.2829 -1.2535
  193THF    H12 3648   4.454   1.418   1.959  0.4899 -0.3703 -0.9106
  193THF    H13 3649   4.619   1.332   1.930  0.7083 -0.3557  1.3288
  194THF     O1 3650   5.053   4.293   1.331  0.4018  0.8495  0.1580
  194THF     C2 3651   5.165   4.305   1.239 -0.1381  0.0507  0.2509
  194THF     C3 3652   5.060   4.175   1.403 -0.1288 -0.2319  0.3365
  194THF     H4 3653   5.184   4.412   1.235 -1.2432  0.3014  1.1765
  194THF     H5 3654   5.137   4.268   1.141  0.1916  2.8648 -0.9810
  194THF     H6 3655   5.055   4.188   1.511  0.1139 -0.5643  0.3909
  194THF     H7 3656   4.976   4.107   1.386 -0.5689  0.4444 -0.2229
  194THF     C8 3657   5.197   4.114   1.367  0.4310 -0.3978 -0.4259
  194THF     C9 3658   5.273   4.229   1.305 -0.6003 -0.6854 -0.1876
  194THF    H10 3659   5.177   4.037   1.292 -0.2067 -2.1771  1.4932
  194THF    H11 3660   5.270   4.071   1.434  1.1504  1.0798 -0.2180
  194THF    H12 3661   5.312   4.291   1.386 -0.7021 -0.3301 -0.4085
  194THF    H13 3662   5.356   4.200   1.240 -0.8750  1.5171 -1.6085
  195THF     O1 3663   1.043   2.474   3.093 -0.1767 -0.1698  0.0963
  195THF     C2 3664   1.157   2.388   3.068  0.0413 -0.3922 -0.0447
  195THF     C3 3665   1.022   2.486   3.234 -0.1682  0.6191 -0.0928
  195THF     H4 3666   1.241   2.446   3.107  0.1311  0.3907 -1.3339
  195THF     H5 3667   1.167   2.372   2.961  0.3906  0.7101 -0.1825
  195THF     H6 3668   1.095   2.561   3.262 -0.0292  2.1812 -3.9411
  195THF     H7 3669   0.919   2.509   3.264  0.0849  1.1906  0.3393
  195THF     C8 3670   1.046   2.340   3.271  0.5852  0.2251  0.2170
  195THF     C9 3671   1.101   2.271   3.148 -0.4449 -0.2318  0.7539
  195THF    H10 3672   0.958   2.287   3.306 -0.8627  1.3280 -1.5686
  195THF    H11 3673   1.110   2.322   3.358 -1.8007 -2.1342  1.6254
  195THF    H12 3674   1.180   2.203   3.179  1.1812  2.3574  2.7603
  195THF    H13 3675   1.033   2.219   3.081 -1.8327 -1.7749  3.2277
  196THF     O1 3676   1.840   2.034   4.356 -0.0408 -0.1712  0.0418
  196THF     C2 3677   1.721   2.102   4.387  0.4348  0.5979 -0.5099
  196THF     C3 3678   1.830   1.906   4.311 -1.0700  0.4009 -0.4788
  196THF     H4 3679   1.692   2.182   4.319  1.1307 -1.2952 -3.1460
  196THF     H5 3680   1.716   2.151   4.485 -0.2352  0.0535 -0.2697
  196THF     H6 3681   1.809   1.902   4.204  0.4213 -1.2264 -0.7727
  196THF     H7 3682   1.924   1.851   4.324 -0.6083  0.4820 -2.9820
  196THF     C8 3683   1.711   1.849   4.393 -0.6229 -0.1650 -0.2628
  196THF     C9 3684   1.629   1.981   4.396 -0.4150  0.1662 -0.0389
  196THF    H10 3685   1.732   1.822   4.496 -1.6471  0.8601  0.2285
  196THF    H11 3686   1.662   1.769   4.338  2.3503 -0.0841 -3.4347
  196THF    H12 3687   1.563   1.982   4.310  0.2476 -0.6080 -0.5753
  196THF    H13 3688   1.561   1.992   4.480 -1.4298  0.1824 -0.8453
  197THF     O1 3689   1.837   0.820   1.548 -0.7317  0.6371 -0.1076
  197THF     C2 3690   1.742   0.920   1.584 -0.1509  0.0609 -0.6252
  197THF     C3 3691   1.957   0.865   1.595  0.4190  0.1304  0.1018
  197THF     H4 3692   1.643   0.876   1.577  0.5144 -1.8029  0.7815
  197THF     H5 3693   1.760   1.017   1.539  2.6517  1.1886  2.4955
  197THF     H6 3694   2.030   0.785   1.587 -0.0817 -0.3963  0.7317
  197THF     H7 3695   1.984   0.936   1.517 -1.5557 -0.7293 -1.4637
  197THF     C8 3696   1.927   0.917   1.736 -0.2721  0.0222 -0.2124
  197THF     C9 3697   1.776   0.941   1.731  0.5306  0.7236  0.0145
  197THF    H10 3698   1.986   1.008   1.748  0.6754 -0.7800  1.8121
  197THF    H11 3699   1.962   0.857   1.820  1.0410  1.1676  0.1122
  197THF    H12 3700   1.727   0.862   1.787  2.8216 -1.8148 -1.3096
  197THF    H13 3701   1.757   1.045   1.757  0.6536  1.4987 -2.6652
  198THF     O1 3702   3.556   0.399   5.493 -0.3102  0.1282 -0.1987
  198THF     C2 3703   3.445   0.475   5.543 -0.9900  0.6525  0.5664
  198THF     C3 3704   3.576   0.282   5.582  0.6164 -0.2272 -0.5284
  198THF     H4 3705   3.355   0.419   5.517  0.5005 -2.8553  2.3410
  198THF     H5 3706   3.438   0.567   5.485  1.9271  1.3333  1.1418
  198THF     H6 3707   3.524   0.191   5.554 -0.3075 -0.3199  1.3568
  198THF     H7 3708   3.683   0.263   5.596  0.5731  0.0411  0.2302
  198THF     C8 3709   3.509   0.333   5.723  0.5259  0.3056 -0.2761
  198THF     C9 3710   3.464   0.471   5.691 -0.2830  1.0120  0.4885
  198THF    H10 3711   3.576   0.331   5.809 -0.6668 -0.2681  0.6569
  198THF    H11 3712   3.429   0.265   5.751  0.5553  0.0740 -0.7374
  198THF    H12 3713   3.376   0.509   5.743  0.1766  1.5912  0.8575
  198THF    H13 3714   3.551   0.531   5.716  0.8268  0.2676 -1.3239
  199THF     O1 3715   1.812   5.191   2.332  0.2952 -0.9803  0.0691
  199THF     C2 3716   1.890   5.073   2.349 -0.0422  0.6390  0.2167
  199THF     C3 3717   1.780   5.208   2.195 -0.0692  0.2737  0.6719
  199THF     H4 3718   1.835   4.979   2.359  0.3907  0.4993  1.5134
  199THF     H5 3719   1.953   5.071   2.438 -0.0943  0.7003  0.2556
  199THF     H6 3720   1.676   5.188   2.169  0.7332 -2.8956 -0.5625
  199THF     H7 3721   1.786   5.314   2.172 -2.2248  0.7910  2.1442
  199THF     C8 3722   1.877   5.109   2.120  0.0311 -0.6045  0.2648
  199THF     C9 3723   1.965   5.049   2.224  0.4545 -0.6052 -0.9747
  199THF    H10 3724   1.939   5.163   2.049 -0.0581  0.7978  1.1935
  199THF    H11 3725   1.819   5.037   2.063  0.1260 -0.6865  0.2731
  199THF    H12 3726   1.993   4.945   2.208 -0.5432 -0.7853 -1.6112
  199THF    H13 3727   2.055   5.111   2.221  0.3041 -0.3752 -0.7850
  200THF     O1 3728   4.626   1.622   3.342 -0.4892  0.1847  0.4182
  200THF     C2 3729   4.769   1.630   3.351 -0.1834  0.4939  0.3718
  200THF     C3 3730   4.581   1.676   3.217  0.2780  0.8214  0.3687
  200THF     H4 3731   4.799   1.557   3.426 -1.5439 -0.7561 -0.2470
  200THF     H5 3732   4.800   1.729   3.385  3.7954 -0.7540  0.9250
  200THF     H6 3733   4.481   1.655   3.179  0.9267 -1.5751 -0.1950
  200THF     H7 3734   4.561   1.780   3.243  1.5451  0.8032  1.5128
  200THF     C8 3735   4.697   1.653   3.113 -0.0774  0.0344 -0.7587
  200THF     C9 3736   4.804   1.597   3.206 -0.6809  0.2517  0.2388
  200THF    H10 3737   4.716   1.744   3.057  1.1826  0.9152  1.0181
  200THF    H11 3738   4.663   1.574   3.046 -1.9429 -1.0467  1.3018
  200THF    H12 3739   4.809   1.489   3.194 -1.2397  0.3482 -0.9737
  200THF    H13 3740   4.900   1.644   3.184 -0.8799  0.7702  0.4545
  201THF     O1 3741   2.932   1.994   1.590  0.7569  0.5369 -0.3901
  201THF     C2 3742   2.855   1.884   1.538 -0.4267  0.1578  0.3868
  201THF     C3 3743   2.915   2.107   1.500  0.2588  0.2414 -0.0311
  201THF     H4 3744   2.817   1.811   1.610 -0.0242  0.3389  0.7827
  201THF     H5 3745   2.916   1.825   1.469 -0.7136 -0.6626  0.8107
  201THF     H6 3746   2.915   2.197   1.560 -0.8589 -2.2197  4.0167
  201THF     H7 3747   2.996   2.103   1.427  1.0214 -0.0254  0.8086
  201THF     C8 3748   2.784   2.090   1.428  0.6977 -0.6147 -0.4022
  201THF     C9 3749   2.742   1.948   1.461  0.5733  0.5556 -0.5096
  201THF    H10 3750   2.807   2.107   1.323  1.9915  0.5973  0.0464
  201THF    H11 3751   2.698   2.147   1.463 -0.8924 -4.2028  2.2186
  201THF    H12 3752   2.653   1.935   1.522  0.8468 -1.5441 -0.4933
  201THF    H13 3753   2.728   1.885   1.372 -0.5088  1.4157 -0.9636
  202THF     O1 3754   0.984   4.556   5.489  0.5015 -0.1668  0.7379
  202THF     C2 3755   0.869   4.563   5.393 -0.3084  0.2038 -0.5745
  202THF     C3 3756   0.908   4.523   5.614 -0.0019 -0.1434  0.2235
  202THF     H4 3757   0.842   4.458   5.381  1.6511 -0.3820 -0.2761
  202THF     H5 3758   0.892   4.613   5.299  0.2717 -0.9094 -1.0476
  202THF     H6 3759   0.877   4.418   5.614 -1.5874  0.2934  1.3044
  202THF     H7 3760   0.970   4.553   5.698 -1.1477  2.1181  0.3391
  202THF     C8 3761   0.790   4.614   5.618 -0.1350  0.5447 -0.6559
  202THF     C9 3762   0.757   4.637   5.473  0.4964 -0.9711 -0.2372
  202THF    H10 3763   0.810   4.715   5.654  1.9143  0.5552 -1.6962
  202THF    H11 3764   0.702   4.580   5.673  0.4066 -0.4056 -0.3595
  202THF    H12 3765   0.659   4.597   5.447  0.4190 -1.3864  0.6604
  202THF    H13 3766   0.762   4.745   5.461 -0.7859 -0.9289 -0.5281
  203THF     O1 3767   4.858   0.417   2.337  0.1311 -0.7333 -0.0082
  203THF     C2 3768   4.977   0.369   2.393  1.2063  0.9258 -0.1512
  203THF     C3 3769   4.766   0.456   2.447 -0.4351  0.4849  0.2922
  203THF     H4 3770   5.064   0.383   2.329  1.1558  1.9566 -0.0100
  203THF     H5 3771   4.952   0.263   2.403  1.7540  0.8472  0.5026
  203THF     H6 3772   4.734   0.559   2.433  0.8737  1.2270  2.2750
  203THF     H7 3773   4.689   0.379   2.451  0.9033 -0.8572  1.6001
  203THF     C8 3774   4.850   0.446   2.580  0.6132 -0.4482 -0.0309
  203THF     C9 3775   4.996   0.443   2.528 -0.1876 -0.4984 -0.5418
  203THF    H10 3776   4.808   0.349   2.610 -3.5343  0.9906 -0.4883
  203THF    H11 3777   4.822   0.524   2.650 -0.1526 -0.8793  0.1637
  203THF    H12 3778   5.024   0.548   2.512 -0.7213 -0.4177 -1.0120
  203THF    H13 3779   5.062   0.401   2.603 -1.0024 -1.5342 -0.3861
  204THF     O1 3780   3.501   0.334   4.456  0.7007 -0.0219  0.3446
  204THF     C2 3781   3.545   0.219   4.525  0.0912  0.2558  0.0796
  204THF     C3 3782   3.595   0.357   4.351  0.4258 -0.6218 -0.1496
  204THF     H4 3783   3.463   0.167   4.576  1.4007 -1.0422  0.9399
  204THF     H5 3784   3.617   0.259   4.596  1.8688  1.8442 -2.4539
  204THF     H6 3785   3.554   0.419   4.271 -3.5123 -3.3350 -0.5272
  204THF     H7 3786   3.677   0.409   4.400 -0.1640  0.8692 -0.6822
  204THF     C8 3787   3.641   0.220   4.307  0.0809 -0.6758 -0.0079
  204THF     C9 3788   3.609   0.131   4.423 -0.7697 -0.0471 -0.1369
  204THF    H10 3789   3.742   0.232   4.268  0.3635 -0.7833  0.6818
  204THF    H11 3790   3.579   0.186   4.223  1.2782  0.7106 -1.5062
  204THF    H12 3791   3.544   0.048   4.395 -0.6652 -0.1233 -0.1565
  204THF    H13 3792   3.699   0.079   4.457 -0.2091  0.5995 -0.6128
  205THF     O1 3793   3.020   2.893   3.827 -0.5985 -0.4346 -0.5230
  205THF     C2 3794   3.117   2.989   3.792  0.5671 -0.4233  0.2174
  205THF     C3 3795   2.960   2.920   3.953 -0.0353  0.5211  0.6413
  205THF     H4 3796   3.151   2.985   3.689 -0.3661 -0.2924 -0.1085
  205THF     H5 3797   3.208   2.969   3.848  0.9623 -0.3649 -0.4072
  205THF     H6 3798   2.852   2.917   3.940 -0.4326  1.3848  3.2353
  205THF     H7 3799   2.993   2.855   4.034  0.7661  1.6829  1.2775
  205THF     C8 3800   2.999   3.064   3.975  0.3384 -0.4786  0.2150
  205THF     C9 3801   3.047   3.114   3.839  0.2400  0.0490 -0.3427
  205THF    H10 3802   3.080   3.089   4.044  0.9192  0.8267 -0.8908
  205THF    H11 3803   2.916   3.120   4.019 -1.4166 -1.1209 -2.0995
  205THF    H12 3804   2.970   3.129   3.763 -0.7080 -0.2426  0.5372
  205THF    H13 3805   3.102   3.208   3.839 -0.4326  0.4505  0.0911
  206THF     O1 3806   2.511   1.883   5.085 -0.6265  0.1855 -0.4305
  206THF     C2 3807   2.476   2.006   5.161 -0.5825  1.0344  0.9141
  206THF     C3 3808   2.632   1.907   5.013  0.8229 -0.0024  0.0719
  206THF     H4 3809   2.524   2.007   5.259 -0.2684  0.1649  0.7749
  206THF     H5 3810   2.369   2.021   5.176 -0.8582  1.1322 -0.9577
  206THF     H6 3811   2.722   1.874   5.065  1.1095 -0.2246 -0.5646
  206THF     H7 3812   2.621   1.864   4.914 -0.4352 -1.4833  0.7964
  206THF     C8 3813   2.644   2.060   5.001  0.2553  0.1632  0.5913
  206THF     C9 3814   2.516   2.116   5.063  0.4325 -0.1288  0.7663
  206THF    H10 3815   2.659   2.107   4.903 -0.7871  2.0442  1.2695
  206THF    H11 3816   2.729   2.092   5.061  1.0465 -0.7885  0.0083
  206THF    H12 3817   2.541   2.210   5.112  1.8077  0.0270 -0.1723
  206THF    H13 3818   2.439   2.130   4.988  0.6232 -0.6698  0.4644
  207THF     O1 3819   2.497   0.048   1.663 -0.5248 -0.3854 -0.1175
  207THF     C2 3820   2.403  -0.055   1.657 -0.4715 -0.3668 -0.5572
  207THF     C3 3821   2.500   0.100   1.795  0.0885 -0.1975  0.0118
  207THF     H4 3822   2.444  -0.146   1.702 -1.3014  0.7315  2.7387
  207THF     H5 3823   2.384  -0.081   1.553  1.8724  0.3338 -1.2206
  207THF     H6 3824   2.592   0.070   1.844 -0.4044 -0.9892  0.4715
  207THF     H7 3825   2.497   0.209   1.787  0.6358 -0.0754  1.3028
  207THF     C8 3826   2.369   0.053   1.856 -0.2598 -0.0572 -0.1270
  207THF     C9 3827   2.285  -0.007   1.741 -0.6163 -0.2825  0.0481
  207THF    H10 3828   2.316   0.129   1.913  0.6433  0.7933 -0.4090
  207THF    H11 3829   2.382  -0.022   1.934  1.6647 -1.0467 -1.3223
  207THF    H12 3830   2.217  -0.073   1.794 -2.7312  0.2650 -1.8414
  207THF    H13 3831   2.230   0.071   1.689 -0.5654  0.7608  1.5097
  208THF     O1 3832   2.369   0.163   3.444  0.4298  0.4447 -0.4230
  208THF     C2 3833   2.266   0.082   3.387 -0.2045  0.5432 -0.1353
  208THF     C3 3834   2.499   0.098   3.445 -0.4429  0.1165  0.6175
  208THF     H4 3835   2.211   0.152   3.324  0.7158  1.4315  0.0194
  208THF     H5 3836   2.198   0.028   3.453 -1.6643  0.2603 -1.7893
  208THF     H6 3837   2.567   0.157   3.385  1.0943  1.0242  3.1077
  208THF     H7 3838   2.553   0.098   3.540  0.1733  0.6685  0.2642
  208THF     C8 3839   2.476  -0.045   3.384  0.0259 -0.7679  0.1126
  208THF     C9 3840   2.349  -0.022   3.305  0.4287  0.4634 -0.4218
  208THF    H10 3841   2.472  -0.118   3.464  0.5303 -1.0707 -0.1274
  208THF    H11 3842   2.557  -0.063   3.312 -0.8577  1.1385 -1.4788
  208THF    H12 3843   2.375   0.021   3.208 -2.5752 -0.3595 -1.7031
  208THF    H13 3844   2.306  -0.121   3.293 -0.2406  0.3096  2.4345
  209THF     O1 3845   0.871   0.953   5.167 -0.1337 -0.0630  0.1519
  209THF     C2 3846   0.784   1.026   5.258  0.4343  0.3565  0.4109
  209THF     C3 3847   0.914   1.053   5.081 -1.0317 -0.7003  0.3004
  209THF     H4 3848   0.765   0.983   5.357  2.9318  0.0357  0.8297
  209THF     H5 3849   0.690   1.035   5.204  0.1179 -0.3637  0.8271
  209THF     H6 3850   0.992   1.031   5.008 -2.6600 -0.3758 -1.6003
  209THF     H7 3851   0.839   1.089   5.011  0.1257  2.1992  0.3838
  209THF     C8 3852   0.952   1.162   5.180 -0.3653  0.3532 -0.2520
  209THF     C9 3853   0.866   1.148   5.300 -0.1172  0.2007 -0.1791
  209THF    H10 3854   0.958   1.264   5.143  0.7311  0.8943  1.3075
  209THF    H11 3855   1.055   1.131   5.201 -0.3002  1.0086  0.4233
  209THF    H12 3856   0.914   1.130   5.396  1.4505  1.6548 -0.6468
  209THF    H13 3857   0.804   1.236   5.317  0.8534  0.6467  1.2281
  210THF     O1 3858   0.087   2.881   0.609 -0.9659 -0.3551 -0.2057
  210THF     C2 3859   0.133   2.864   0.479  0.1492  0.4530 -0.0856
  210THF     C3 3860   0.182   2.952   0.686 -0.3099 -0.3229  1.1260
  210THF     H4 3861   0.063   2.830   0.403  0.4787 -0.5161  0.0344
  210THF     H5 3862   0.214   2.791   0.482 -1.2837 -1.1810  0.0705
  210THF     H6 3863   0.131   2.989   0.776 -2.3374  2.7683 -1.0943
  210THF     H7 3864   0.247   2.868   0.711 -1.4200 -0.9535  2.0055
  210THF     C8 3865   0.237   3.048   0.582  0.0279  0.2571  0.1549
  210THF     C9 3866   0.193   3.007   0.447  0.0123  0.5383  0.3123
  210THF    H10 3867   0.346   3.058   0.587  0.3233 -1.5237 -1.6545
  210THF    H11 3868   0.203   3.152   0.590  1.7971  0.8739  0.1538
  210THF    H12 3869   0.105   3.063   0.415 -0.6461 -0.9132 -0.4925
  210THF    H13 3870   0.266   3.027   0.370  0.3705 -0.0488  0.4933
  211THF     O1 3871   5.434   1.942   2.363  0.0845  0.2409  0.2570
  211THF     C2 3872   5.378   1.833   2.292 -0.6542 -0.0017  0.1468
  211THF     C3 3873   5.522   1.891   2.463 -0.5854  0.9256 -0.0185
  211THF     H4 3874   5.345   1.857   2.192  1.9734 -1.7678 -1.2733
  211THF     H5 3875   5.292   1.795   2.347 -0.0834 -2.1283 -0.3201
  211THF     H6 3876   5.610   1.954   2.470  0.8584 -1.1545  2.3274
  211THF     H7 3877   5.484   1.884   2.565 -2.1249 -1.3189 -0.6571
  211THF     C8 3878   5.566   1.747   2.419 -0.0975 -0.5003 -0.8197
  211THF     C9 3879   5.493   1.729   2.289  0.1954 -0.7399 -0.2735
  211THF    H10 3880   5.529   1.686   2.502 -1.1062 -0.4621 -1.2307
  211THF    H11 3881   5.674   1.745   2.409 -0.0352  1.5263 -0.9045
  211THF    H12 3882   5.559   1.744   2.204 -0.5673 -0.4872 -0.8337
  211THF    H13 3883   5.450   1.629   2.283  1.2860 -1.1654 -1.4519
  212THF     O1 3884   1.976   0.118   5.355  0.5147  0.4904  0.4000
  212THF     C2 3885   1.834   0.137   5.384  0.0317 -0.9865 -0.3865
  212THF     C3 3886   2.022  -0.009   5.402 -0.2774 -0.1281 -0.0607
  212THF     H4 3887   1.795   0.200   5.304  2.9130  1.5330  0.0253
  212THF     H5 3888   1.819   0.179   5.483 -2.1826 -0.9964 -0.6726
  212THF     H6 3889   2.100  -0.057   5.342 -1.4814 -0.9270 -1.0247
  212THF     H7 3890   2.064  -0.008   5.503 -1.0123 -1.1080  0.2698
  212THF     C8 3891   1.899  -0.100   5.404  0.2321 -0.3371 -0.4565
  212THF     C9 3892   1.787  -0.003   5.358  0.3060  0.0234 -0.2769
  212THF    H10 3893   1.882  -0.131   5.507  0.3474 -2.3960 -1.0095
  212THF    H11 3894   1.900  -0.197   5.355  1.0182 -1.2092  1.2354
  212THF    H12 3895   1.771  -0.025   5.253 -0.5707 -2.0239  0.2284
  212THF    H13 3896   1.686  -0.013   5.398  0.1972  2.2132  0.0965
  213THF     O1 3897   0.594   3.377   4.035  0.5553 -0.0166  0.6015
  213THF     C2 3898   0.504   3.299   4.117  0.4849  0.1501  0.2668
  213THF     C3 3899   0.582   3.339   3.897  0.3004  0.5384 -0.5256
  213THF     H4 3900   0.470   3.352   4.206 -1.3554 -1.2210  0.4414
  213THF     H5 3901   0.556   3.206   4.144 -1.6247 -1.1228  0.1672
  213THF     H6 3902   0.566   3.430   3.838  0.4985  1.7272  1.1818
  213THF     H7 3903   0.672   3.299   3.849 -2.0909 -2.9385 -2.5592
  213THF     C8 3904   0.465   3.236   3.894 -0.2863  0.5197  0.2154
  213THF     C9 3905   0.390   3.265   4.022 -0.0828  0.7834 -0.3068
  213THF    H10 3906   0.511   3.138   3.906 -0.9774  0.0184 -1.0450
  213THF    H11 3907   0.405   3.228   3.803  0.5458 -1.8260 -0.1816
  213THF    H12 3908   0.325   3.353   4.016 -1.2069  0.1372  1.4044
  213THF    H13 3909   0.326   3.182   4.053  1.6360 -0.5782 -0.2553
  214THF     O1 3910   5.230   3.263   1.542 -0.5167 -0.0268  0.3528
  214THF     C2 3911   5.117   3.330   1.603 -0.3397 -0.2538 -0.1844
  214THF     C3 3912   5.200   3.220   1.411 -0.7993 -0.0538  0.2585
  214THF     H4 3913   5.139   3.435   1.622 -1.0441 -0.2168  0.4892
  214THF     H5 3914   5.083   3.296   1.701  1.5964 -1.3274  0.1703
  214THF     H6 3915   5.239   3.297   1.344 -2.2379 -0.8042 -1.4941
  214THF     H7 3916   5.235   3.122   1.380 -1.4389  0.6906 -3.2072
  214THF     C8 3917   5.053   3.218   1.410  0.5573 -0.0617 -0.3557
  214THF     C9 3918   5.013   3.330   1.499 -0.2889  0.1952 -0.5005
  214THF    H10 3919   5.036   3.117   1.445  0.2853 -0.5876 -1.9111
  214THF    H11 3920   5.004   3.216   1.312 -0.5884  1.2483  0.1424
  214THF    H12 3921   5.004   3.419   1.438  1.9271  0.4429 -0.5443
  214THF    H13 3922   4.916   3.312   1.546 -1.7855  0.2372 -3.3555
  215THF     O1 3923   5.069   3.818   3.601 -0.3463  0.2813  0.0131
  215THF     C2 3924   5.183   3.761   3.538 -0.5721  0.6576  0.3161
  215THF     C3 3925   5.036   3.721   3.706 -0.3178 -0.4364 -0.2261
  215THF     H4 3926   5.244   3.844   3.502  2.1720 -0.3390  2.3621
  215THF     H5 3927   5.141   3.713   3.450  0.5889  4.0195 -2.3223
  215THF     H6 3928   4.961   3.760   3.775 -0.2969 -0.2755 -0.2920
  215THF     H7 3929   4.991   3.633   3.661  0.2295 -1.0789  0.4603
  215THF     C8 3930   5.172   3.685   3.767 -0.1687 -0.1443 -0.0467
  215THF     C9 3931   5.251   3.679   3.644 -0.2780  0.3666  0.6232
  215THF    H10 3932   5.177   3.590   3.820  0.8682 -0.3006 -0.4007
  215THF    H11 3933   5.210   3.758   3.839 -0.2405  0.7428 -0.8944
  215THF    H12 3934   5.352   3.718   3.661 -0.1151  0.7326 -0.9837
  215THF    H13 3935   5.260   3.577   3.606 -0.2188  0.2921  0.8401
  216THF     O1 3936   4.474   2.007   5.081  0.2118 -0.4062  0.4247
  216THF     C2 3937   4.435   2.133   5.130 -0.4494  0.6179  0.0917
  216THF     C3 3938   4.518   1.921   5.182 -0.1735 -0.5104  0.2250
  216THF     H4 3939   4.359   2.184   5.070  0.0026  3.2369  1.5691
  216THF     H5 3940   4.522   2.198   5.141  1.3481 -1.8877  1.7708
  216THF     H6 3941   4.476   1.820   5.186 -1.7615  0.1590  2.6832
  216THF     H7 3942   4.625   1.913   5.164 -0.0035  1.3229  0.2462
  216THF     C8 3943   4.482   1.980   5.322  0.1334  0.0715  0.6797
  216THF     C9 3944   4.394   2.093   5.275  0.7177 -0.3289 -0.1373
  216THF    H10 3945   4.577   2.010   5.367  0.5820  0.1457 -0.2833
  216THF    H11 3946   4.437   1.905   5.386  1.5348 -0.4438  1.1025
  216THF    H12 3947   4.291   2.058   5.282  0.4700  0.5041  0.5118
  216THF    H13 3948   4.390   2.179   5.342 -0.0693  1.4640 -2.3439
  217THF     O1 3949   5.099   2.227   1.976 -0.2641 -0.1532  0.2042
  217THF     C2 3950   5.041   2.230   1.848 -0.6182 -0.1895 -0.7628
  217THF     C3 3951   5.153   2.360   1.992  0.2571  0.4926  0.3439
  217THF     H4 3952   4.939   2.260   1.872 -0.1436 -1.0802  3.1462
  217THF     H5 3953   5.045   2.126   1.816 -0.8216 -0.8359  1.1903
  217THF     H6 3954   5.072   2.423   2.029  0.3760  0.0880  1.3144
  217THF     H7 3955   5.229   2.361   2.071  0.2434 -1.1578  0.3970
  217THF     C8 3956   5.203   2.411   1.859  0.2133 -0.3806 -0.0166
  217THF     C9 3957   5.133   2.317   1.760  0.2312 -0.4264 -0.4178
  217THF    H10 3958   5.311   2.424   1.856  0.0189  1.3916 -1.1141
  217THF    H11 3959   5.164   2.512   1.840 -0.2954 -0.4504  0.6405
  217THF    H12 3960   5.071   2.360   1.681 -1.1373 -0.5000  0.5824
  217THF    H13 3961   5.199   2.249   1.705  0.6584 -2.3064  2.2239
  218THF     O1 3962   3.682   3.849   5.319 -0.1593 -0.1822 -0.1235
  218THF     C2 3963   3.661   3.992   5.318 -0.0132  0.3399 -0.8620
  218THF     C3 3964   3.752   3.817   5.438  0.0625  0.5818 -0.3456
  218THF     H4 3965   3.584   4.023   5.248 -0.1331  0.6125 -0.6142
  218THF     H5 3966   3.760   4.031   5.293 -0.9498  1.5029 -2.9739
  218THF     H6 3967   3.733   3.715   5.470 -0.7717  1.2376  1.4411
  218THF     H7 3968   3.859   3.820   5.416  0.7975  0.8357  2.7129
  218THF     C8 3969   3.718   3.918   5.542 -0.2696 -0.1277  0.7044
  218THF     C9 3970   3.631   4.021   5.473 -0.6823 -0.2134  0.1055
  218THF    H10 3971   3.815   3.962   5.566 -1.0455  0.2361  3.6165
  218THF    H11 3972   3.681   3.884   5.639 -0.9954  1.0245  0.8362
  218THF    H12 3973   3.528   4.006   5.507 -1.8422  3.2444 -1.4032
  218THF    H13 3974   3.663   4.123   5.496 -0.2097 -0.6075  1.2720
  219THF     O1 3975   5.294   1.470   4.854 -0.3619  0.8944 -0.2086
  219THF     C2 3976   5.190   1.392   4.916 -0.5593  0.5338 -0.9473
  219THF     C3 3977   5.237   1.539   4.745 -0.2290  0.7074 -0.4075
  219THF     H4 3978   5.133   1.453   4.985 -0.0836 -0.6820  0.5942
  219THF     H5 3979   5.226   1.298   4.959 -2.4150  1.3327  2.8192
  219THF     H6 3980   5.202   1.637   4.778  1.0241  1.4297 -1.1501
  219THF     H7 3981   5.306   1.561   4.663 -1.6005  1.2241 -1.4721
  219THF     C8 3982   5.116   1.456   4.698 -0.3585 -1.0593  0.4102
  219THF     C9 3983   5.113   1.343   4.788 -0.2639 -0.5333  0.5756
  219THF    H10 3984   5.126   1.439   4.591  0.4873 -0.5488  0.3944
  219THF    H11 3985   5.019   1.505   4.707 -0.7334 -1.9595  1.5260
  219THF    H12 3986   5.010   1.315   4.811 -0.3608 -3.0183 -2.2187
  219THF    H13 3987   5.157   1.256   4.738 -2.5083 -1.5606  0.2858
  220THF     O1 3988   4.849   1.746   1.036 -0.2137 -0.2570  0.2391
  220THF     C2 3989   4.723   1.807   1.007 -0.3948 -0.0992  0.1184
  220THF     C3 3990   4.830   1.649   1.138 -0.0284  0.0676 -0.7511
  220THF     H4 3991   4.662   1.733   0.955 -0.7848  0.0281  0.3929
  220THF     H5 3992   4.718   1.900   0.950 -1.1670 -1.0575 -1.4604
  220THF     H6 3993   4.810   1.550   1.096  1.5619 -0.0662 -1.2550
  220THF     H7 3994   4.915   1.633   1.205 -2.2360  0.4557  2.3489
  220THF     C8 3995   4.711   1.698   1.213  0.7152  0.2118 -0.6326
  220THF     C9 3996   4.671   1.831   1.147 -0.5558 -0.0297  0.5316
  220THF    H10 3997   4.735   1.713   1.318 -1.2172 -1.9146  0.1887
  220THF    H11 3998   4.627   1.630   1.226  1.9964 -1.2646  0.2626
  220THF    H12 3999   4.569   1.866   1.161 -0.5503  0.9216 -1.4977
  220THF    H13 4000   4.732   1.915   1.180 -0.5887 -0.6403  2.2428
  221THF     O1 4001   1.532   3.335   0.843 -0.3741 -0.0462  0.1090
  221THF     C2 4002   1.394   3.330   0.868  0.1198  0.0056 -0.1622
  221THF     C3 4003   1.591   3.203   0.859 -0.7105 -0.0267  0.0988
  221THF     H4 4004   1.363   3.311   0.765 -0.0302 -1.2420  0.0933
  221THF     H5 4005   1.343   3.416   0.911  0.2138 -0.8807  1.8262
  221THF     H6 4006   1.649   3.164   0.775 -0.2427 -1.4391  1.0365
  221THF     H7 4007   1.657   3.200   0.946 -0.9951 -0.0530  0.3168
  221THF     C8 4008   1.466   3.113   0.882  0.0349 -0.0876 -0.1172
  221THF     C9 4009   1.365   3.203   0.955  1.2085 -0.2240  0.7362
  221THF    H10 4010   1.489   3.027   0.945 -1.9212  0.2403  1.1436
  221THF    H11 4011   1.440   3.083   0.781 -1.0087 -0.0360  0.1303
  221THF    H12 4012   1.260   3.175   0.957  0.8841  0.9383  0.4024
  221THF    H13 4013   1.402   3.224   1.056  0.7816 -0.2319  0.8981
  222THF     O1 4014   0.500   4.988   3.935  0.6919 -0.3731 -0.1087
  222THF     C2 4015   0.435   5.036   4.057 -0.3280 -0.0564  0.0740
  222THF     C3 4016   0.636   5.030   3.935  0.4528  0.4558  0.4284
  222THF     H4 4017   0.406   4.946   4.111 -2.0858  0.9205  0.8151
  222THF     H5 4018   0.340   5.081   4.028 -1.0362 -2.0978 -0.9994
  222THF     H6 4019   0.698   4.953   3.888 -1.3158 -0.4091 -0.6095
  222THF     H7 4020   0.646   5.115   3.867  1.7141 -1.3488 -1.8142
  222THF     C8 4021   0.667   5.061   4.078 -0.2604 -0.3022 -0.0672
  222THF     C9 4022   0.536   5.126   4.123  0.1655  0.2267 -0.3343
  222THF    H10 4023   0.757   5.122   4.081 -0.3548 -0.2039  0.9663
  222THF    H11 4024   0.672   4.971   4.140 -1.4781  0.7502  1.6347
  222THF    H12 4025   0.537   5.122   4.232  1.7880 -0.1138 -0.3232
  222THF    H13 4026   0.529   5.226   4.082  3.1686  0.0401 -1.5412
  223THF     O1 4027   4.250   2.890   2.956  0.5913 -0.5284 -0.8764
  223THF     C2 4028   4.213   2.756   2.996  0.5789  0.1911  0.3096
  223THF     C3 4029   4.382   2.901   3.010  0.6576 -0.6864 -0.3937
  223THF     H4 4030   4.121   2.726   2.946  1.1025  0.0790 -0.5957
  223THF     H5 4031   4.199   2.733   3.102  0.3314  0.1777  0.2741
  223THF     H6 4032   4.453   2.977   2.976  0.7190 -0.8104 -0.5423
  223THF     H7 4033   4.369   2.919   3.117 -0.1737  0.4649 -0.6702
  223THF     C8 4034   4.447   2.764   2.972  0.2210  0.2207 -0.4418
  223THF     C9 4035   4.328   2.676   2.940 -0.0982  0.2025  0.1657
  223THF    H10 4036   4.497   2.724   3.060 -0.1025 -0.0958 -0.3994
  223THF    H11 4037   4.522   2.754   2.894 -0.6862 -1.5749 -1.1634
  223THF    H12 4038   4.304   2.666   2.834 -2.0910 -0.2834  0.6119
  223THF    H13 4039   4.334   2.574   2.979 -1.0691  0.6260  1.4903
  224THF     O1 4040   1.834   2.527   0.097  0.0320  0.1026 -0.0609
  224THF     C2 4041   1.879   2.397   0.151  0.2970 -0.2284  1.1095
  224THF     C3 4042   1.940   2.620   0.106  0.1351 -0.0012  0.0458
  224THF     H4 4043   1.850   2.316   0.085  0.8730  0.5551 -0.1517
  224THF     H5 4044   1.825   2.391   0.246 -1.4526  1.4681  0.2760
  224THF     H6 4045   1.994   2.627   0.011  1.3887  1.5881  0.8207
  224THF     H7 4046   1.915   2.724   0.130  0.5778  0.0656  0.2268
  224THF     C8 4047   2.022   2.557   0.213 -0.1048 -0.7477  0.1197
  224THF     C9 4048   2.022   2.419   0.181 -0.0478 -0.4044 -0.0812
  224THF    H10 4049   1.982   2.586   0.310  0.0608 -0.0733 -0.0062
  224THF    H11 4050   2.115   2.611   0.194 -0.7958 -0.4359 -3.0515
  224THF    H12 4051   2.088   2.395   0.097  0.2598 -0.0881  0.0657
  224THF    H13 4052   2.060   2.356   0.261 -2.5892 -0.4305  1.1735
  225THF     O1 4053   0.012   1.672   4.750 -0.5993  0.1655  0.2584
  225THF     C2 4054  -0.015   1.809   4.729 -0.6110  0.3630 -0.2844
  225THF     C3 4055   0.057   1.617   4.625 -0.2731 -0.5417 -0.2864
  225THF     H4 4056  -0.019   1.874   4.817 -1.1327  3.1547 -2.2418
  225THF     H5 4057  -0.110   1.823   4.678 -0.6005  3.7245  0.4016
  225THF     H6 4058   0.108   1.523   4.644  0.7963 -0.6440 -3.0880
  225THF     H7 4059  -0.027   1.601   4.557 -0.8678 -0.1824  0.3595
  225THF     C8 4060   0.153   1.723   4.574 -0.0020  0.1630 -0.7070
  225THF     C9 4061   0.115   1.848   4.653  0.1574 -0.0160 -0.4078
  225THF    H10 4062   0.132   1.733   4.468 -3.6355  0.7528 -0.0922
  225THF    H11 4063   0.256   1.696   4.596 -1.0604 -2.8608  1.2414
  225THF    H12 4064   0.203   1.869   4.713  0.6099 -0.7561 -0.7954
  225THF    H13 4065   0.088   1.934   4.592 -1.3095  0.3554  0.7137
  226THF     O1 4066   2.052   2.791   4.382  0.1369 -0.2446  0.1219
  226THF     C2 4067   2.160   2.873   4.415  0.0359 -0.2152 -0.6758
  226THF     C3 4068   1.991   2.743   4.503 -0.1013 -0.0860 -0.6060
  226THF     H4 4069   2.194   2.936   4.333 -0.5593  1.1993  0.1121
  226THF     H5 4070   2.237   2.808   4.456  0.4931 -0.0805 -1.3014
  226THF     H6 4071   1.887   2.716   4.484 -0.7864  1.3274  0.9054
  226THF     H7 4072   2.045   2.656   4.542 -0.5796 -0.6284 -1.1297
  226THF     C8 4073   1.992   2.870   4.584  0.0973  0.4415 -0.2014
  226THF     C9 4074   2.106   2.942   4.530  0.4344  0.0518 -0.1383
  226THF    H10 4075   1.992   2.860   4.692 -0.8826 -0.3405 -0.2533
  226THF    H11 4076   1.894   2.914   4.562 -0.3422  0.6135  1.8562
  226THF    H12 4077   2.099   3.049   4.512 -0.6722  0.1305  0.6973
  226THF    H13 4078   2.191   2.949   4.599  2.3537  0.0369 -2.3781
  227THF     O1 4079   4.303   0.574   2.082 -0.5390  0.0545 -0.0876
  227THF     C2 4080   4.257   0.652   1.975 -0.0914 -0.4813  0.1939
  227THF     C3 4081   4.315   0.658   2.196  0.8771  0.1663 -0.1527
  227THF     H4 4082   4.151   0.673   1.990  0.2384  0.0989  1.8986
  227THF     H5 4083   4.258   0.601   1.878 -1.3020  0.2287 -0.2172
  227THF     H6 4084   4.216   0.671   2.240  1.4975  1.4603  0.9200
  227THF     H7 4085   4.381   0.615   2.270 -1.4640  0.2078  2.1178
  227THF     C8 4086   4.370   0.785   2.140 -0.7560  0.4647  0.8536
  227THF     C9 4087   4.334   0.777   1.985 -0.4962 -0.8472 -0.4282
  227THF    H10 4088   4.478   0.793   2.157 -0.5412 -0.6236  0.1204
  227THF    H11 4089   4.335   0.879   2.183 -1.4934  0.1287  0.9923
  227THF    H12 4090   4.273   0.859   1.948  2.3455  0.6381 -2.1869
  227THF    H13 4091   4.423   0.775   1.923 -0.5054 -1.8336 -0.4248
  228THF     O1 4092   4.371   2.218   0.396  0.2371  0.2384 -0.2585
  228THF     C2 4093   4.313   2.097   0.339 -0.3066  0.7056 -0.3655
  228THF     C3 4094   4.421   2.299   0.291 -0.1818 -0.5587 -0.5421
  228THF     H4 4095   4.244   2.045   0.406 -1.9744  2.3564 -0.6898
  228THF     H5 4096   4.395   2.029   0.316 -2.4893 -2.2688  0.0792
  228THF     H6 4097   4.415   2.403   0.322 -3.7951 -0.3499 -1.5180
  228THF     H7 4098   4.522   2.260   0.280  0.5447  0.3101  2.0771
  228THF     C8 4099   4.339   2.262   0.169  0.4326  0.1150  0.0890
  228THF     C9 4100   4.241   2.151   0.216  0.1600 -0.0505  0.1269
  228THF    H10 4101   4.405   2.226   0.091  0.3297  0.5908 -0.2230
  228THF    H11 4102   4.285   2.348   0.130  0.3602  0.7025  1.4028
  228THF    H12 4103   4.143   2.197   0.234  0.9332  1.2298  1.2319
  228THF    H13 4104   4.238   2.078   0.136 -1.5776 -0.3365  0.4019
  229THF     O1 4105   2.565   1.259   2.986 -0.1533  0.2715 -0.0067
  229THF     C2 4106   2.640   1.372   3.030  0.2230  0.4174  0.1867
  229THF     C3 4107   2.661   1.153   2.967 -1.0267  0.3029  0.3968
  229THF     H4 4108   2.643   1.392   3.137  3.3389  0.6330  0.1790
  229THF     H5 4109   2.582   1.449   2.979  0.6424  0.7226  0.1531
  229THF     H6 4110   2.701   1.099   3.053  2.8613  0.4201 -1.1278
  229THF     H7 4111   2.610   1.081   2.903 -0.3568 -0.2990  0.5202
  229THF     C8 4112   2.770   1.220   2.882  0.7198  0.3064  0.1138
  229THF     C9 4113   2.775   1.347   2.972  0.4230  0.2984 -0.8210
  229THF    H10 4114   2.720   1.234   2.786 -0.9642 -0.1160  0.8798
  229THF    H11 4115   2.867   1.171   2.887  0.6502  0.1820  0.2513
  229THF    H12 4116   2.844   1.318   3.052 -0.4237 -3.2679 -1.1849
  229THF    H13 4117   2.824   1.428   2.919  0.9305 -0.7513 -2.0230
  230THF     O1 4118   1.976   2.797   1.633  0.0287  0.3189  0.3067
  230THF     C2 4119   2.037   2.878   1.732 -0.0509 -0.1876  0.0243
  230THF     C3 4120   1.950   2.669   1.688  0.1655 -0.1275 -0.1192
  230THF     H4 4121   1.957   2.925   1.788  0.7458  0.4178  0.6659
  230THF     H5 4122   2.105   2.951   1.688 -1.3262  1.0887  0.1142
  230THF     H6 4123   1.861   2.672   1.749 -0.4490  0.6982 -1.0164
  230THF     H7 4124   1.942   2.592   1.611  2.1986  0.0969 -0.6222
  230THF     C8 4125   2.067   2.638   1.776  0.7012 -0.6699  0.4843
  230THF     C9 4126   2.115   2.774   1.814  0.4296 -0.1809 -0.8806
  230THF    H10 4127   2.150   2.592   1.723  0.6624  2.5316 -2.7867
  230THF    H11 4128   2.032   2.579   1.861  2.3145  0.8922  2.3178
  230THF    H12 4129   2.093   2.799   1.918  1.2839  1.3419 -1.0270
  230THF    H13 4130   2.223   2.791   1.812  0.3590  0.3931 -0.3588
  231THF     O1 4131   3.465   1.301   3.444 -0.1933 -0.1875 -0.3517
  231THF     C2 4132   3.387   1.281   3.327 -0.6571 -0.3306  0.5344
  231THF     C3 4133   3.428   1.209   3.546 -0.2996 -0.2645 -0.1249
  231THF     H4 4134   3.468   1.247   3.263 -0.6583 -0.7839  0.7720
  231THF     H5 4135   3.344   1.365   3.272  1.4625  0.6825  0.3402
  231THF     H6 4136   3.491   1.120   3.538  0.4957  0.3602 -1.2184
  231THF     H7 4137   3.452   1.261   3.639 -0.2114 -1.7106  0.6919
  231THF     C8 4138   3.282   1.182   3.508  0.9788  0.0572  0.2193
  231THF     C9 4139   3.281   1.171   3.355 -0.2038 -0.4408  0.0562
  231THF    H10 4140   3.222   1.270   3.535  1.0276  0.0309  0.4200
  231THF    H11 4141   3.227   1.102   3.557 -0.6756  0.3804 -1.0330
  231THF    H12 4142   3.310   1.068   3.333 -2.3579 -1.3959  1.3392
  231THF    H13 4143   3.185   1.191   3.309  0.2425  2.8009  0.3382
  232THF     O1 4144   0.594   1.115   0.983 -0.0985 -0.2565  0.1755
  232THF     C2 4145   0.725   1.166   0.985  0.0304 -0.2829  0.4801
  232THF     C3 4146   0.563   1.042   1.103  0.1463  0.6772  0.1611
  232THF     H4 4147   0.717   1.255   1.047 -1.6917 -0.7053  0.9313
  232THF     H5 4148   0.763   1.188   0.885  1.5615  0.1340  1.1331
  232THF     H6 4149   0.507   1.113   1.164  2.8114  2.7531  0.3358
  232THF     H7 4150   0.512   0.947   1.084 -0.0058  1.1363 -1.9925
  232THF     C8 4151   0.695   1.016   1.171 -0.1758  0.0871  0.5329
  232THF     C9 4152   0.798   1.059   1.062 -0.7005  0.2614  1.0286
  232THF    H10 4153   0.700   0.912   1.203  0.7355  0.6537  2.3362
  232THF    H11 4154   0.705   1.082   1.258  1.4870 -0.3582  0.7130
  232THF    H12 4155   0.895   1.085   1.104 -0.4009 -0.5582  0.8735
  232THF    H13 4156   0.803   0.967   1.003 -1.0492  0.2296  1.0448
  233THF     O1 4157   2.688   4.026   3.411  0.3218 -0.2228 -0.0525
  233THF     C2 4158   2.736   4.080   3.287 -0.6785 -0.3296  0.3293
  233THF     C3 4159   2.797   4.010   3.495 -0.1297 -0.1440  0.3408
  233THF     H4 4160   2.660   4.140   3.236 -0.7961  1.5675  2.5519
  233THF     H5 4161   2.757   4.003   3.213 -0.3869 -0.7147  0.8023
  233THF     H6 4162   2.765   3.997   3.598 -0.5825  0.5749  0.2983
  233THF     H7 4163   2.850   3.918   3.470  1.3305  0.3404  1.4831
  233THF     C8 4164   2.882   4.133   3.473 -0.3075 -0.0211 -0.1073
  233THF     C9 4165   2.864   4.154   3.326  0.1239  0.6225 -0.3142
  233THF    H10 4166   2.985   4.123   3.507  0.0408  2.9505  0.0038
  233THF    H11 4167   2.851   4.224   3.525  1.4152 -0.2377  1.3864
  233THF    H12 4168   2.858   4.261   3.302 -1.0037  0.5236 -0.5653
  233THF    H13 4169   2.945   4.106   3.273 -0.4276 -1.6029  0.7453
  234THF     O1 4170   0.182   3.397   4.875  0.3947 -0.6269 -0.3048
  234THF     C2 4171   0.243   3.282   4.939  0.5480  0.5375  0.2806
  234THF     C3 4172   0.272   3.502   4.867 -0.3263  0.4972 -0.5787
  234THF     H4 4173   0.203   3.191   4.893  0.4170  0.5211  0.4300
  234THF     H5 4174   0.210   3.292   5.042 -0.0655 -0.6875  0.2188
  234THF     H6 4175   0.234   3.571   4.792  1.6482  0.9309 -1.2216
  234THF     H7 4176   0.279   3.549   4.965  2.8178  0.6315 -0.7907
  234THF     C8 4177   0.404   3.434   4.843 -0.1131 -0.0287  0.5853
  234THF     C9 4178   0.400   3.305   4.933 -0.1251 -0.7893 -0.4467
  234THF    H10 4179   0.490   3.499   4.859  1.0567 -1.6059  0.9274
  234THF    H11 4180   0.415   3.398   4.741 -1.0762 -1.7120  1.0289
  234THF    H12 4181   0.468   3.225   4.905  3.0998  0.4307  3.0214
  234THF    H13 4182   0.429   3.343   5.031 -1.2226 -0.1275 -0.3622
  235THF     O1 4183   0.441   0.771   3.673  0.0695  0.0056  0.7859
  235THF     C2 4184   0.419   0.858   3.555 -0.0126  1.1608 -0.3259
  235THF     C3 4185   0.546   0.681   3.629 -0.3649  0.1256 -0.0349
  235THF     H4 4186   0.366   0.944   3.595 -0.6362  1.0083 -0.7959
  235THF     H5 4187   0.350   0.796   3.497 -0.1668  0.6675  0.3672
  235THF     H6 4188   0.585   0.623   3.713  0.3180 -1.1454 -1.1878
  235THF     H7 4189   0.516   0.604   3.558 -0.7980 -1.2838  1.5901
  235THF     C8 4190   0.647   0.776   3.560  0.0363  1.0188  0.5762
  235THF     C9 4191   0.558   0.872   3.491 -0.5985 -0.3705 -0.3221
  235THF    H10 4192   0.715   0.719   3.497 -1.8235 -0.0246 -0.5746
  235THF    H11 4193   0.716   0.822   3.630  1.2385  0.7138 -0.3723
  235THF    H12 4194   0.594   0.972   3.514 -2.1864  0.3380 -0.7666
  235THF    H13 4195   0.562   0.865   3.382  1.1487 -1.4945 -0.2344
  236THF     O1 4196   2.408   3.203   3.299  0.0502  0.1649  0.8916
  236THF     C2 4197   2.367   3.274   3.414  0.3678  0.4697  0.5398
  236THF     C3 4198   2.330   3.236   3.190  0.5751 -0.2113  0.3871
  236THF     H4 4199   2.412   3.372   3.401 -0.6678  0.7177 -1.5040
  236THF     H5 4200   2.385   3.214   3.504  0.6253 -1.0223 -0.4649
  236THF     H6 4201   2.354   3.339   3.161  2.1076  0.2545  2.9939
  236THF     H7 4202   2.334   3.172   3.102 -1.2545  0.1599 -0.0260
  236THF     C8 4203   2.195   3.240   3.252  0.2553 -0.5632 -0.3944
  236THF     C9 4204   2.219   3.283   3.397  0.4823 -0.0348 -0.6067
  236THF    H10 4205   2.161   3.136   3.249  2.4438 -1.3133 -2.4487
  236THF    H11 4206   2.131   3.304   3.193  1.7636  0.4161 -1.0228
  236THF    H12 4207   2.185   3.385   3.419  0.3835 -0.4923  1.5617
  236THF    H13 4208   2.167   3.214   3.463  1.8336 -1.4657 -0.9790
  237THF     O1 4209   2.693   0.330   3.743  0.7023 -0.6433  0.3073
  237THF     C2 4210   2.793   0.403   3.664  0.6043 -0.0080  0.2966
  237THF     C3 4211   2.585   0.418   3.747  0.1058  0.2849 -0.6018
  237THF     H4 4212   2.846   0.332   3.601 -0.6018  1.0620 -2.0519
  237THF     H5 4213   2.868   0.458   3.721 -1.6677  1.5278  1.9931
  237THF     H6 4214   2.498   0.364   3.783  1.8277 -1.3013  1.4911
  237THF     H7 4215   2.610   0.495   3.819  1.3255 -0.3760 -0.2781
  237THF     C8 4216   2.567   0.465   3.606  0.4998  0.4746 -0.4435
  237THF     C9 4217   2.714   0.500   3.574 -0.8474  0.3461  0.0420
  237THF    H10 4218   2.489   0.541   3.602  0.1299  0.2618  1.6236
  237THF    H11 4219   2.551   0.382   3.536 -0.3073  0.3452 -0.1235
  237THF    H12 4220   2.740   0.502   3.468 -0.8723 -0.4396  0.0208
  237THF    H13 4221   2.743   0.604   3.593  0.9709  0.0990 -1.1759
  238THF     O1 4222   2.232   3.081   0.102 -0.5580 -0.1452  0.3099
  238THF     C2 4223   2.091   3.100   0.070 -0.4131  0.3155  0.2445
  238THF     C3 4224   2.249   3.176   0.201 -0.0544  0.0831 -0.0975
  238THF     H4 4225   2.055   3.012   0.017  0.9207 -0.7421  1.0242
  238THF     H5 4226   2.074   3.187   0.008  2.1644 -0.4543 -1.7265
  238THF     H6 4227   2.339   3.157   0.260 -1.6089 -1.3562  1.9727
  238THF     H7 4228   2.263   3.272   0.151 -0.4385 -1.2002 -2.8287
  238THF     C8 4229   2.127   3.158   0.295 -0.7984 -0.8323  0.0408
  238THF     C9 4230   2.018   3.125   0.201 -0.0557 -0.6363 -0.1558
  238THF    H10 4231   2.101   3.244   0.357 -2.1670 -0.5993 -0.8092
  238THF    H11 4232   2.153   3.075   0.360  1.3407  1.0209  1.7452
  238THF    H12 4233   1.974   3.034   0.241  0.5025  0.3258  2.9082
  238THF    H13 4234   1.944   3.205   0.201 -0.4881 -0.9429  2.6358
  239THF     O1 4235   5.077   0.794   5.490  0.3953  0.3598 -0.0859
  239THF     C2 4236   5.116   0.661   5.522  0.1148  0.5735 -0.2260
  239THF     C3 4237   4.938   0.794   5.466 -0.1699 -0.3601  0.0667
  239THF     H4 4238   5.093   0.621   5.620  3.9020 -0.0900  0.5572
  239THF     H5 4239   5.225   0.661   5.523  0.1141  0.3623 -0.1779
  239THF     H6 4240   4.887   0.799   5.562 -2.1674  2.3731 -1.0292
  239THF     H7 4241   4.930   0.888   5.411  2.8063 -1.2420 -2.1330
  239THF     C8 4242   4.918   0.671   5.379 -0.1599  0.4982  0.6307
  239THF     C9 4243   5.036   0.579   5.413 -0.1226  0.1285  0.0144
  239THF    H10 4244   4.911   0.706   5.276  0.2715  2.9381  1.3751
  239THF    H11 4245   4.817   0.640   5.408 -0.4357 -0.8449 -1.4929
  239THF    H12 4246   5.015   0.478   5.448 -0.6014 -0.3552 -1.5998
  239THF    H13 4247   5.103   0.569   5.328 -1.2296 -0.2587 -0.8354
  240THF     O1 4248   4.552   1.049   2.888  0.0539 -0.1620 -0.2114
  240THF     C2 4249   4.683   1.039   2.941 -0.1525  0.0173 -0.1444
  240THF     C3 4250   4.480   1.165   2.943  0.0148  0.7469 -0.0030
  240THF     H4 4251   4.759   1.091   2.883  2.3864 -2.8874  0.2861
  240THF     H5 4252   4.726   0.939   2.946  1.6929  0.6247 -2.2529
  240THF     H6 4253   4.478   1.257   2.884  2.5704  0.3936 -0.7749
  240THF     H7 4254   4.379   1.127   2.953  1.0484 -1.9903  1.0330
  240THF     C8 4255   4.550   1.194   3.073  0.5420  0.4074  0.0268
  240THF     C9 4256   4.672   1.101   3.079 -0.6025 -0.5827  0.3932
  240THF    H10 4257   4.488   1.163   3.158  1.3362  0.8220  0.7657
  240THF    H11 4258   4.583   1.298   3.073  0.6798  0.4675  3.0753
  240THF    H12 4259   4.765   1.149   3.108  0.0429 -2.1868  1.1436
  240THF    H13 4260   4.657   1.020   3.152 -1.8980 -0.2204  0.5628
  241THF     O1 4261   4.151   4.337   4.445  0.0337 -0.3651 -0.1758
  241THF     C2 4262   4.047   4.363   4.542 -0.6854  0.2584 -0.4136
  241THF     C3 4263   4.254   4.264   4.506  0.1161 -0.2255  0.4240
  241THF     H4 4264   3.975   4.282   4.553 -1.4940  1.1482  1.2932
  241THF     H5 4265   3.990   4.456   4.535  2.7417  2.7758  1.7863
  241THF     H6 4266   4.237   4.157   4.502 -0.8330 -0.0761  0.1994
  241THF     H7 4267   4.346   4.290   4.454  0.1072  0.0442  0.5399
  241THF     C8 4268   4.271   4.319   4.647  0.2432 -0.7000 -0.0653
  241THF     C9 4269   4.129   4.384   4.673 -0.4410  0.2019 -0.1700
  241THF    H10 4270   4.355   4.387   4.660  0.8311 -1.3591 -0.3365
  241THF    H11 4271   4.292   4.240   4.720  3.0688  0.2500  0.2858
  241THF    H12 4272   4.072   4.356   4.761 -0.2188  1.9180  0.5612
  241THF    H13 4273   4.137   4.492   4.684  0.6517  0.3962 -2.3151
  242THF     O1 4274   1.495   4.787   2.545 -0.7239  0.4758 -0.1718
  242THF     C2 4275   1.353   4.790   2.568  0.2524 -0.6628 -0.0030
  242THF     C3 4276   1.533   4.658   2.595 -0.0290  0.7010 -0.0765
  242THF     H4 4277   1.301   4.739   2.487  0.0205 -0.8270  0.2442
  242THF     H5 4278   1.320   4.894   2.569  0.4404 -0.6010 -0.0553
  242THF     H6 4279   1.519   4.579   2.522  1.0478  1.5566 -1.2617
  242THF     H7 4280   1.640   4.649   2.615 -0.1924 -0.8801  0.2026
  242THF     C8 4281   1.451   4.641   2.723 -0.5366 -0.8730  0.4784
  242THF     C9 4282   1.334   4.736   2.712  0.6970 -0.3701  0.3158
  242THF    H10 4283   1.517   4.667   2.806 -0.1724  0.5078 -0.2172
  242THF    H11 4284   1.423   4.536   2.730  1.5724 -1.3876  2.8118
  242THF    H12 4285   1.234   4.709   2.744  1.3038  0.0764  2.7800
  242THF    H13 4286   1.349   4.815   2.785 -1.5980  1.0721 -0.6624
  243THF     O1 4287   0.768   4.255   3.683  0.3418 -0.8726 -0.3196
  243THF     C2 4288   0.874   4.265   3.775 -0.1732 -0.1021  0.2713
  243THF     C3 4289   0.684   4.376   3.694  0.4685 -0.6442  0.2172
  243THF     H4 4290   0.957   4.325   3.737 -0.4477  0.8835  1.1776
  243THF     H5 4291   0.925   4.175   3.808  0.3284 -0.1468 -0.5972
  243THF     H6 4292   0.713   4.442   3.612  0.5379 -1.3959 -0.3781
  243THF     H7 4293   0.583   4.347   3.666  0.4582 -0.9640  0.5797
  243THF     C8 4294   0.697   4.431   3.837 -0.6873  0.5116  0.6439
  243THF     C9 4295   0.807   4.342   3.896  0.1871 -1.2690 -0.5786
  243THF    H10 4296   0.624   4.428   3.917 -1.8994  1.4412 -0.3795
  243THF    H11 4297   0.730   4.535   3.834  0.1040  0.2570 -0.2361
  243THF    H12 4298   0.871   4.394   3.966 -0.5216  0.5942 -1.2642
  243THF    H13 4299   0.768   4.262   3.959 -0.6252  0.1450  0.7982
  244THF     O1 4300   2.815   4.514   2.587 -0.3583  0.9384 -0.5416
  244THF     C2 4301   2.865   4.643   2.566 -0.5004 -0.9100 -0.2908
  244THF     C3 4302   2.910   4.420   2.543  0.0270  0.1453 -0.5563
  244THF     H4 4303   2.924   4.694   2.642 -1.2145  2.8092 -1.9817
  244THF     H5 4304   2.777   4.703   2.540 -1.1242 -2.1942 -1.2422
  244THF     H6 4305   2.976   4.387   2.624 -2.2355 -2.3638  0.4201
  244THF     H7 4306   2.848   4.349   2.488  1.3014  0.6853 -2.8686
  244THF     C8 4307   3.002   4.496   2.445 -0.7917  0.5334 -0.5656
  244THF     C9 4308   2.942   4.632   2.434 -0.7537 -0.5518 -0.2263
  244THF    H10 4309   2.991   4.439   2.353  3.0124 -0.9353 -0.2819
  244THF    H11 4310   3.106   4.497   2.477 -0.6357  1.5728 -1.0675
  244THF    H12 4311   3.015   4.713   2.429 -1.3115 -0.0399 -0.0860
  244THF    H13 4312   2.877   4.637   2.347 -1.0030  2.2178  0.0283
  245THF     O1 4313   1.965   4.373   0.199 -0.3274 -0.3334  0.4167
  245THF     C2 4314   2.098   4.333   0.235  0.8408 -0.6655  0.1332
  245THF     C3 4315   1.877   4.260   0.226 -0.1862 -0.6510  0.3329
  245THF     H4 4316   2.111   4.375   0.335 -2.4704  2.4517 -0.5248
  245THF     H5 4317   2.172   4.387   0.175  1.5317  0.7773  2.1789
  245THF     H6 4318   1.789   4.284   0.285 -1.6816 -0.9447 -1.6502
  245THF     H7 4319   1.848   4.225   0.127  0.0742 -1.9575  0.6949
  245THF     C8 4320   1.952   4.159   0.314  0.5115  0.2773 -0.5290
  245THF     C9 4321   2.092   4.176   0.252 -0.0298  0.5455 -0.1404
  245THF    H10 4322   1.925   4.053   0.317 -0.3215  0.4947 -0.0980
  245THF    H11 4323   1.952   4.199   0.415 -0.9087  1.6386 -1.0300
  245THF    H12 4324   2.176   4.143   0.313 -1.2794 -0.7862  0.9364
  245THF    H13 4325   2.094   4.122   0.157  0.9055  0.8218 -0.2816
  246THF     O1 4326   0.056   3.388   4.141  0.2527  0.4287  0.8109
  246THF     C2 4327   0.083   3.526   4.163  0.1273  0.5769  0.7507
  246THF     C3 4328  -0.066   3.367   4.066  0.4974 -0.6880  0.7680
  246THF     H4 4329   0.183   3.560   4.137  0.1774  1.6618  2.2437
  246THF     H5 4330   0.075   3.545   4.270 -1.8464  0.2926  0.6992
  246THF     H6 4331  -0.048   3.365   3.958  0.9070 -2.0095  0.8491
  246THF     H7 4332  -0.121   3.278   4.096 -0.9797  0.4763  1.6911
  246THF     C8 4333  -0.139   3.496   4.087 -0.1251  0.3671 -0.0133
  246THF     C9 4334  -0.026   3.597   4.084 -0.1351  0.5775 -0.4726
  246THF    H10 4335  -0.181   3.490   4.187 -2.4448  2.3052 -0.7839
  246THF    H11 4336  -0.211   3.516   4.008 -0.9374 -1.7685  0.1369
  246THF    H12 4337   0.002   3.614   3.980  0.0949  0.4688 -0.4289
  246THF    H13 4338  -0.055   3.698   4.113  1.4023  0.8287  0.2750
  247THF     O1 4339   2.504   3.995   1.572 -1.5148 -0.0380  0.3564
  247THF     C2 4340   2.554   3.973   1.441  0.2653  0.2834 -0.2923
  247THF     C3 4341   2.363   3.973   1.569 -0.1097  1.1357  0.2442
  247THF     H4 4342   2.625   3.890   1.442 -0.5192 -0.3965 -0.5880
  247THF     H5 4343   2.600   4.064   1.402  0.4033 -0.4725 -1.9666
  247THF     H6 4344   2.321   3.938   1.663 -1.2965  0.3322 -0.5549
  247THF     H7 4345   2.319   4.071   1.550 -0.0026  1.4083  1.3511
  247THF     C8 4346   2.337   3.877   1.448  0.1799 -0.1298 -0.2151
  247THF     C9 4347   2.440   3.935   1.353 -0.7114 -0.0078  0.0851
  247THF    H10 4348   2.235   3.884   1.409 -0.3550 -2.8716  0.4535
  247THF    H11 4349   2.347   3.773   1.478  0.4478  0.2188  0.9513
  247THF    H12 4350   2.461   3.879   1.262 -2.6756 -0.0428 -0.3913
  247THF    H13 4351   2.390   4.030   1.331  0.3205  0.6791  0.6142
  248THF     O1 4352   5.140   4.499   3.335 -0.1863  0.5681  0.0216
  248THF     C2 4353   5.015   4.528   3.287 -0.0378 -0.1596 -0.3722
  248THF     C3 4354   5.237   4.524   3.235 -0.0411 -0.0252 -0.4520
  248THF     H4 4355   5.000   4.635   3.279 -0.5459 -0.1408  0.7468
  248THF     H5 4356   4.934   4.484   3.345 -1.3107  2.3800 -0.1309
  248THF     H6 4357   5.254   4.632   3.233  2.3847 -0.2679  1.5120
  248THF     H7 4358   5.334   4.478   3.255  0.8353  0.8610 -2.4185
  248THF     C8 4359   5.165   4.478   3.103 -0.4015  0.4070  0.3451
  248THF     C9 4360   5.021   4.464   3.147 -0.5873 -0.2731 -0.3559
  248THF    H10 4361   5.214   4.392   3.057  0.4244  0.6743  0.7025
  248THF    H11 4362   5.168   4.541   3.015 -0.2037  0.1606  0.1754
  248THF    H12 4363   4.943   4.511   3.087 -3.2052 -1.9219  1.5159
  248THF    H13 4364   4.987   4.360   3.148  0.6844 -0.7364 -1.6269
  249THF     O1 4365   2.022   4.706   4.376 -0.0624 -0.0207  0.3882
  249THF     C2 4366   2.094   4.794   4.461 -0.5641  0.1262 -0.1179
  249THF     C3 4367   1.926   4.789   4.314  0.1037  0.6012 -0.9628
  249THF     H4 4368   2.194   4.756   4.484 -0.6923  0.2558  0.6892
  249THF     H5 4369   2.030   4.796   4.549 -0.7671  0.9770 -0.2794
  249THF     H6 4370   1.876   4.725   4.241 -0.6653  0.3569 -0.2396
  249THF     H7 4371   1.853   4.809   4.393 -0.4034  0.2162 -1.3303
  249THF     C8 4372   1.989   4.923   4.289  0.2790 -0.8999  0.1541
  249THF     C9 4373   2.110   4.927   4.380 -0.8143 -0.4851 -0.7925
  249THF    H10 4374   1.919   5.005   4.303 -0.7209 -1.8231  0.7256
  249THF    H11 4375   2.016   4.929   4.183 -1.5053 -1.7302 -0.3726
  249THF    H12 4376   2.201   4.923   4.320  0.8556 -1.3026  1.6534
  249THF    H13 4377   2.107   5.025   4.429  2.0255 -0.7831  0.1447
  250THF     O1 4378   2.034   1.463   4.575  0.1655  0.0098  0.1996
  250THF     C2 4379   2.112   1.365   4.642  0.1787 -0.1150  0.5832
  250THF     C3 4380   2.101   1.492   4.450  0.1314 -0.2079 -0.0991
  250THF     H4 4381   2.058   1.298   4.709  1.1632 -0.3388  1.1723
  250THF     H5 4382   2.193   1.405   4.702  0.1358  0.5898  0.1754
  250THF     H6 4383   2.018   1.507   4.381  0.1441 -0.4636 -0.1700
  250THF     H7 4384   2.161   1.583   4.456  1.4582 -0.9797 -1.2721
  250THF     C8 4385   2.186   1.374   4.406  1.1677 -0.2420 -0.7247
  250THF     C9 4386   2.178   1.286   4.526 -0.3794 -0.3445 -0.1717
  250THF    H10 4387   2.289   1.399   4.381  2.1382 -3.2552 -0.0620
  250THF    H11 4388   2.138   1.319   4.325  0.5893  0.1137 -0.6356
  250THF    H12 4389   2.120   1.196   4.511 -0.6830 -0.1116 -0.4023
  250THF    H13 4390   2.279   1.252   4.552  0.0526  0.3083 -0.9254
  251THF     O1 4391   0.798   0.019   0.912 -0.2507 -0.1398 -0.6826
  251THF     C2 4392   0.680  -0.060   0.901  0.0963  0.2910 -0.1451
  251THF     C3 4393   0.762   0.160   0.876 -0.1486  0.3573  0.2763
  251THF     H4 4394   0.628  -0.064   0.997 -1.4500  0.7819 -0.9311
  251THF     H5 4395   0.693  -0.164   0.874 -1.1012 -0.5856  2.3432
  251THF     H6 4396   0.709   0.210   0.958  1.7632 -0.6147  2.2178
  251THF     H7 4397   0.849   0.225   0.865 -0.0885  0.1892 -0.2779
  251THF     C8 4398   0.656   0.147   0.758 -0.1905  0.9012 -0.1677
  251THF     C9 4399   0.595   0.009   0.792 -0.6061  0.6294  0.2252
  251THF    H10 4400   0.706   0.153   0.661  0.8077  3.1215  0.4120
  251THF    H11 4401   0.584   0.229   0.752 -1.1720 -0.0282 -1.7629
  251THF    H12 4402   0.489   0.018   0.819 -1.5949 -2.0896 -2.1751
  251THF    H13 4403   0.593  -0.060   0.707 -0.5374  1.8844 -0.8142
  252THF     O1 4404   4.660   3.221   1.032  0.4271  0.0956 -0.2958
  252THF     C2 4405   4.694   3.278   1.157 -0.0243 -0.2348 -0.2132
  252THF     C3 4406   4.587   3.318   0.968  0.0077 -0.5251  0.1919
  252THF     H4 4407   4.765   3.203   1.192  1.2626  1.4180  0.8593
  252THF     H5 4408   4.614   3.271   1.230  0.2332 -0.2448  0.0687
  252THF     H6 4409   4.579   3.292   0.862 -0.0887 -1.5351  0.4317
  252THF     H7 4410   4.493   3.341   1.017  0.7791  3.6637  0.0317
  252THF     C8 4411   4.678   3.445   0.992 -0.4724  0.3766  0.2662
  252THF     C9 4412   4.740   3.415   1.126 -0.9830 -0.5572 -0.0007
  252THF    H10 4413   4.616   3.534   0.991 -2.0303 -0.6363  1.1732
  252THF    H11 4414   4.764   3.441   0.925  0.2412  1.0799  1.1176
  252THF    H12 4415   4.847   3.432   1.131 -0.5319 -0.1648 -5.0868
  252THF    H13 4416   4.693   3.481   1.199 -0.1761  1.5384 -1.2632
  253THF     O1 4417   1.430   0.539   3.236 -0.1772 -0.0564  0.1249
  253THF     C2 4418   1.290   0.530   3.260  0.2439  0.3369 -0.0873
  253THF     C3 4419   1.480   0.669   3.277 -0.1624  0.2855 -0.4968
  253THF     H4 4420   1.244   0.454   3.323 -0.7388  1.5492  0.6859
  253THF     H5 4421   1.245   0.512   3.162 -1.4482 -0.0717  0.7366
  253THF     H6 4422   1.561   0.660   3.349 -1.5097  1.7404  1.2813
  253THF     H7 4423   1.499   0.727   3.187  1.5847 -0.8706 -0.9188
  253THF     C8 4424   1.364   0.736   3.348  0.2771 -0.2759 -0.3810
  253THF     C9 4425   1.237   0.663   3.311  0.7586  0.1809  0.0920
  253THF    H10 4426   1.368   0.845   3.348 -1.4202 -0.1084  2.3362
  253THF    H11 4427   1.382   0.714   3.453  0.5613 -1.5015 -0.6686
  253THF    H12 4428   1.172   0.668   3.399  0.3795  1.7737 -0.2433
  253THF    H13 4429   1.192   0.727   3.236 -2.7971  1.5673  3.0877
  254THF     O1 4430   4.964   3.096   3.754 -0.5054 -0.3732  0.3847
  254THF     C2 4431   5.089   3.109   3.825 -0.2449  0.0817 -0.7349
  254THF     C3 4432   4.909   3.223   3.747 -0.1990 -0.4996  0.6888
  254THF     H4 4433   5.157   3.033   3.787  1.7635  1.2855  0.2815
  254THF     H5 4434   5.072   3.106   3.933  0.1327  3.2026 -0.5023
  254THF     H6 4435   4.881   3.256   3.646  1.9795 -2.2213 -0.5548
  254THF     H7 4436   4.823   3.234   3.812 -1.5354  1.5171 -1.2592
  254THF     C8 4437   5.015   3.330   3.790  0.3039  0.1024 -0.3814
  254THF     C9 4438   5.144   3.246   3.801  0.1812  0.3587 -0.0391
  254THF    H10 4439   4.992   3.359   3.893  0.8551 -0.2706 -0.1481
  254THF    H11 4440   5.015   3.414   3.720  0.1950 -0.2057 -0.7556
  254THF    H12 4441   5.189   3.242   3.702 -0.9083 -0.1535 -0.5278
  254THF    H13 4442   5.206   3.288   3.880  0.2367  0.4177 -0.1135
  255THF     O1 4443   4.966   1.759   2.249  0.5044 -0.5331 -0.8492
  255THF     C2 4444   4.941   1.881   2.316 -0.3858 -0.1370 -0.1004
  255THF     C3 4445   4.970   1.791   2.111  0.8973  0.0266  0.0044
  255THF     H4 4446   4.968   1.879   2.422  1.3447  1.5072 -0.4413
  255THF     H5 4447   4.835   1.906   2.308  0.1364  1.9747 -1.3608
  255THF     H6 4448   5.036   1.714   2.072 -2.5016 -2.2161 -1.8388
  255THF     H7 4449   4.869   1.763   2.081  1.2132 -0.5776 -0.5097
  255THF     C8 4450   5.002   1.941   2.090  0.0195  0.6579  0.9440
  255THF     C9 4451   5.025   1.984   2.230 -0.1317 -0.5823  0.1643
  255THF    H10 4452   4.914   1.978   2.038 -1.3869 -2.1386  1.0991
  255THF    H11 4453   5.092   1.957   2.031 -0.8960  2.3274 -0.0646
  255THF    H12 4454   5.128   1.976   2.263  0.7639  0.0941 -2.2631
  255THF    H13 4455   5.009   2.089   2.255  1.3346  0.3547 -2.5376
  256THF     O1 4456   0.093   0.031   1.678  0.4009 -0.7413 -0.2419
  256THF     C2 4457   0.157   0.009   1.556  0.2873  0.2147  0.0526
  256THF     C3 4458  -0.024   0.107   1.655 -1.0957 -0.3195  0.2750
  256THF     H4 4459   0.092  -0.054   1.493 -0.6473  1.7511 -0.5743
  256THF     H5 4460   0.260  -0.027   1.551 -0.2514 -1.4054  0.0312
  256THF     H6 4461  -0.101   0.049   1.604 -1.8463  0.3818  0.5933
  256THF     H7 4462  -0.053   0.142   1.754  0.3757  1.2183  0.2061
  256THF     C8 4463   0.039   0.219   1.565  0.3550 -0.3478  0.5045
  256THF     C9 4464   0.156   0.151   1.499 -0.1934 -0.8574  0.5089
  256THF    H10 4465   0.080   0.299   1.627 -0.0233 -0.2688  0.6550
  256THF    H11 4466  -0.033   0.241   1.487  0.5937 -0.5443  0.2231
  256THF    H12 4467   0.154   0.147   1.390 -0.6622 -0.5624  0.5058
  256THF    H13 4468   0.249   0.206   1.513 -0.4397  0.5769 -2.7061
  257THF     O1 4469   4.222   3.710   3.054  0.7383 -0.0123 -0.4914
  257THF     C2 4470   4.171   3.757   2.930  0.0414  0.4519 -0.0240
  257THF     C3 4471   4.201   3.816   3.148 -0.2164 -0.1141 -0.5465
  257THF     H4 4472   4.063   3.745   2.937  0.2310 -0.1998  4.2925
  257THF     H5 4473   4.224   3.706   2.849  1.3780  2.9252 -0.7863
  257THF     H6 4474   4.098   3.811   3.183  0.4520 -0.4262  1.5276
  257THF     H7 4475   4.267   3.791   3.231  2.1980  0.9588 -2.0128
  257THF     C8 4476   4.228   3.943   3.069 -0.0570 -0.6366  0.3904
  257THF     C9 4477   4.208   3.900   2.924 -0.0106 -0.0023  0.7834
  257THF    H10 4478   4.332   3.956   3.100 -0.0431  0.1249  0.0410
  257THF    H11 4479   4.176   4.032   3.102 -0.1364 -0.4783 -0.1511
  257THF    H12 4480   4.130   3.965   2.885  0.8617  1.5335  1.5030
  257THF    H13 4481   4.295   3.921   2.861 -0.3047 -1.8377 -0.2930
  258THF     O1 4482   2.918   5.008   4.406 -0.1276  0.1754  0.0036
  258THF     C2 4483   3.061   5.021   4.407  0.0383  0.1831 -0.2410
  258THF     C3 4484   2.886   4.873   4.384  0.1977  0.3026  0.2273
  258THF     H4 4485   3.089   4.964   4.496  1.1316 -2.3515 -2.1098
  258THF     H5 4486   3.111   5.117   4.410  0.6037 -0.1228  0.4149
  258THF     H6 4487   2.909   4.812   4.471  0.2814 -0.3344 -0.2416
  258THF     H7 4488   2.779   4.866   4.364  0.4153 -0.4027 -0.7362
  258THF     C8 4489   2.968   4.850   4.264  0.0963 -0.2114  0.3922
  258THF     C9 4490   3.091   4.938   4.286 -0.3300 -0.3076  0.4938
  258THF    H10 4491   2.901   4.878   4.183 -0.5913 -1.6909  0.3994
  258THF    H11 4492   2.992   4.745   4.248  3.1261  0.4530  0.0583
  258THF    H12 4493   3.182   4.877   4.286 -0.3263 -0.4434 -2.3226
  258THF    H13 4494   3.097   5.000   4.196  0.0909 -1.3941 -0.2523
  259THF     O1 4495   2.347   0.410   5.450  0.1050 -0.4285 -0.0008
  259THF     C2 4496   2.273   0.288   5.485  0.1326  0.0182 -0.0548
  259THF     C3 4497   2.438   0.387   5.339  0.7289  1.1757  0.0038
  259THF     H4 4498   2.179   0.311   5.435  0.7404  1.2629 -0.6669
  259THF     H5 4499   2.282   0.258   5.590 -0.7142  0.2823  0.1025
  259THF     H6 4500   2.397   0.403   5.239  0.9920  0.7937 -0.1652
  259THF     H7 4501   2.528   0.446   5.354  1.9479 -0.5658 -0.1979
  259THF     C8 4502   2.464   0.240   5.354  0.7097  0.0730 -0.4484
  259THF     C9 4503   2.345   0.178   5.418 -0.6382  0.7447  0.1185
  259THF    H10 4504   2.544   0.231   5.428  0.7152  3.1513  0.0661
  259THF    H11 4505   2.491   0.182   5.266 -0.7416 -3.1570  1.0706
  259THF    H12 4506   2.286   0.131   5.339  0.0638 -1.5047  0.8512
  259THF    H13 4507   2.382   0.102   5.487 -0.1609  2.0253  1.2942
  260THF     O1 4508   5.478   4.186   0.755 -0.2453  0.1638  0.0375
  260THF     C2 4509   5.394   4.121   0.845  0.2099  0.2438 -0.3662
  260THF     C3 4510   5.480   4.327   0.789 -0.2111  0.3954  0.7302
  260THF     H4 4511   5.419   4.018   0.870 -0.0069 -0.3228 -2.3385
  260THF     H5 4512   5.288   4.121   0.816 -0.1527 -1.8543  0.7863
  260THF     H6 4513   5.575   4.352   0.742  0.9714 -2.4896  1.3853
  260THF     H7 4514   5.395   4.386   0.755  0.5928  0.3730 -1.4918
  260THF     C8 4515   5.490   4.332   0.933  0.0080  0.4167 -0.5206
  260THF     C9 4516   5.412   4.199   0.970  0.1912 -0.8445  0.3047
  260THF    H10 4517   5.441   4.426   0.959 -0.6878  0.1982 -1.0090
  260THF    H11 4518   5.592   4.319   0.969 -0.8426 -3.0776  1.0276
  260THF    H12 4519   5.468   4.137   1.039 -1.6935  0.7744  3.5451
  260THF    H13 4520   5.311   4.218   1.007  0.3273 -0.7707  0.6421
  261THF     O1 4521   2.887   1.103   0.540 -0.6398 -0.1122  0.2667
  261THF     C2 4522   2.783   1.059   0.455 -0.9021 -0.7654 -0.5454
  261THF     C3 4523   2.850   1.085   0.674 -0.2680  0.1666  0.3908
  261THF     H4 4524   2.837   1.014   0.372  0.4331  2.1715 -1.4302
  261THF     H5 4525   2.728   1.132   0.396 -1.7605 -1.0304 -0.0911
  261THF     H6 4526   2.928   1.067   0.748 -2.8078  0.7795  3.4342
  261THF     H7 4527   2.799   1.174   0.711  2.6446  0.9099  3.0262
  261THF     C8 4528   2.759   0.963   0.673  0.1296  0.1461 -0.1097
  261THF     C9 4529   2.696   0.962   0.531  0.6306 -0.0886 -0.6754
  261THF    H10 4530   2.686   0.965   0.753  0.8536  2.2679  0.5538
  261THF    H11 4531   2.812   0.868   0.682  0.9210  0.6095  0.2713
  261THF    H12 4532   2.694   0.865   0.481  3.0541 -0.4978 -0.0966
  261THF    H13 4533   2.592   0.996   0.523  0.4636  0.2028  1.9781
  262THF     O1 4534   3.083   5.058   0.469  0.4292  0.1135 -0.1083
  262THF     C2 4535   3.173   5.160   0.435  0.0772 -0.4166  0.6560
  262THF     C3 4536   3.034   5.097   0.599  0.5021  0.1771 -0.2098
  262THF     H4 4537   3.193   5.166   0.328  1.6758 -2.6526  0.7636
  262THF     H5 4538   3.269   5.145   0.484  0.5601 -0.8436 -0.3795
  262THF     H6 4539   2.943   5.040   0.620 -0.0611  1.1441  0.0212
  262THF     H7 4540   3.106   5.072   0.676 -0.5912 -1.1372  0.4271
  262THF     C8 4541   3.024   5.249   0.591  0.2498  0.8364 -0.9904
  262THF     C9 4542   3.110   5.287   0.472  0.7188 -0.6074  0.0689
  262THF    H10 4543   3.054   5.304   0.680  0.0463 -1.2846  0.4653
  262THF    H11 4544   2.923   5.279   0.565  0.0328  0.9370 -0.0365
  262THF    H12 4545   3.041   5.324   0.395 -0.3761  0.4232  1.4783
  262THF    H13 4546   3.186   5.361   0.497 -0.3242 -0.6919  4.3152
  263THF     O1 4547   0.808   4.488   1.894 -0.3885  0.3277 -0.2880
  263THF     C2 4548   0.696   4.404   1.923  0.3644 -0.3559 -0.4394
  263THF     C3 4549   0.822   4.573   2.003 -0.0006  0.2791  0.3586
  263THF     H4 4550   0.715   4.346   2.014 -0.9907  1.7979  1.3269
  263THF     H5 4551   0.661   4.329   1.852  0.0942 -1.2728  0.6362
  263THF     H6 4552   0.873   4.516   2.081 -1.1259 -3.3184 -1.3254
  263THF     H7 4553   0.873   4.665   1.975 -1.5595  1.8793  2.4765
  263THF     C8 4554   0.676   4.602   2.035 -0.7830 -0.0994  1.0558
  263THF     C9 4555   0.589   4.496   1.966 -0.2739 -0.4473 -0.3648
  263THF    H10 4556   0.648   4.704   2.008 -0.0369 -0.4235 -1.1658
  263THF    H11 4557   0.663   4.596   2.143  1.4826 -0.0802  1.3868
  263THF    H12 4558   0.515   4.457   2.035 -0.2353  2.3475  1.4267
  263THF    H13 4559   0.526   4.531   1.884  1.0767 -0.4781 -1.4548
  264THF     O1 4560   1.650   0.917   0.215 -0.0298 -0.1514 -0.3377
  264THF     C2 4561   1.653   1.014   0.321 -0.3531 -0.2021 -0.2776
  264THF     C3 4562   1.778   0.900   0.155 -0.1488 -0.1315  0.7676
  264THF     H4 4563   1.579   0.987   0.396  0.7354 -2.4108  0.0710
  264THF     H5 4564   1.636   1.115   0.282 -1.9951 -1.1700 -2.2897
  264THF     H6 4565   1.787   0.801   0.109 -2.4285 -0.8389  1.7299
  264THF     H7 4566   1.791   0.974   0.077 -0.2416  0.6482  1.4785
  264THF     C8 4567   1.874   0.927   0.262 -0.1547 -0.0455 -0.3170
  264THF     C9 4568   1.797   0.994   0.376 -0.4218  0.0093  0.1063
  264THF    H10 4569   1.965   0.978   0.232  0.9415 -1.3149  0.7204
  264THF    H11 4570   1.914   0.834   0.304 -0.8113  0.5648  1.7865
  264THF    H12 4571   1.786   0.926   0.460 -2.1271  0.0621 -0.0264
  264THF    H13 4572   1.846   1.087   0.403  2.4756 -1.3907  0.0096
  265THF     O1 4573   2.343   3.899   3.540  0.6406 -0.3849  0.5523
  265THF     C2 4574   2.253   3.857   3.442 -0.0984  0.2933  0.1145
  265THF     C3 4575   2.440   3.798   3.553 -0.7550  0.6861  0.1436
  265THF     H4 4576   2.303   3.861   3.345 -0.5859 -1.0834 -0.2145
  265THF     H5 4577   2.163   3.918   3.447  0.9758  1.8655  3.1693
  265THF     H6 4578   2.525   3.818   3.487  0.1542 -0.0203  1.0754
  265THF     H7 4579   2.489   3.780   3.648  0.9569 -0.7367 -0.9339
  265THF     C8 4580   2.365   3.666   3.522  0.8080  0.0822 -0.2711
  265THF     C9 4581   2.225   3.709   3.474 -0.1926  0.0751  0.1986
  265THF    H10 4582   2.366   3.627   3.624  1.6290 -0.5051 -0.4908
  265THF    H11 4583   2.406   3.582   3.465 -1.8085 -3.1270  2.1644
  265THF    H12 4584   2.186   3.652   3.390 -2.8421  1.6603  0.2586
  265THF    H13 4585   2.155   3.711   3.557 -0.9152 -0.2212 -0.3999
  266THF     O1 4586   1.561   2.850   1.968 -0.6361 -0.0243 -0.7982
  266THF     C2 4587   1.498   2.968   1.927  0.1271  0.9894 -0.0737
  266THF     C3 4588   1.658   2.811   1.870 -0.2853 -0.7683 -0.6326
  266THF     H4 4589   1.533   3.051   1.989  0.1098  0.7629  0.2457
  266THF     H5 4590   1.389   2.968   1.921  0.1759  2.6457 -2.3180
  266THF     H6 4591   1.756   2.777   1.903 -0.2448  1.1562  1.5423
  266THF     H7 4592   1.611   2.724   1.826 -0.0769 -1.6152  0.7719
  266THF     C8 4593   1.677   2.923   1.771 -0.2656  0.2672 -0.3120
  266THF     C9 4594   1.544   2.985   1.778  0.3100 -0.6461 -0.0335
  266THF    H10 4595   1.714   2.874   1.681 -2.6893 -1.9882 -0.2135
  266THF    H11 4596   1.753   2.993   1.807 -1.3159  0.5825  1.4279
  266THF    H12 4597   1.555   3.088   1.743  3.2631 -0.5937  0.7810
  266THF    H13 4598   1.471   2.934   1.715 -0.3130 -1.7113  1.4804
  267THF     O1 4599   3.882   0.732   0.567 -0.2266 -0.5470 -0.1189
  267THF     C2 4600   3.769   0.650   0.584 -0.1435  0.0902 -0.3497
  267THF     C3 4601   3.853   0.865   0.611  0.0170 -0.7102 -0.9684
  267THF     H4 4602   3.755   0.619   0.687 -4.2036  1.5264 -0.2959
  267THF     H5 4603   3.776   0.566   0.515 -0.3334  0.3399 -0.6769
  267THF     H6 4604   3.872   0.861   0.718 -1.3389 -2.4728 -0.7511
  267THF     H7 4605   3.906   0.946   0.562 -2.3563  1.2549 -0.5245
  267THF     C8 4606   3.700   0.878   0.570 -0.5454 -0.1580  0.0473
  267THF     C9 4607   3.654   0.734   0.545  0.1488  0.2371 -0.3850
  267THF    H10 4608   3.709   0.940   0.480  3.9251 -2.2994 -1.2844
  267THF    H11 4609   3.634   0.941   0.630  0.3327  1.4120 -0.5742
  267THF    H12 4610   3.573   0.710   0.613 -0.5089  1.7599 -0.6059
  267THF    H13 4611   3.633   0.718   0.439  0.9677 -1.5736 -0.3156
  268THF     O1 4612   0.595   0.915   4.751  0.2505  0.2012  0.1752
  268THF     C2 4613   0.591   0.981   4.628  0.1419  0.0653  0.0629
  268THF     C3 4614   0.533   0.993   4.850  0.5541  0.1913 -0.3685
  268THF     H4 4615   0.516   0.933   4.565 -0.8020  0.8545  0.5536
  268THF     H5 4616   0.689   0.970   4.581  0.6819 -2.2559  1.5199
  268THF     H6 4617   0.467   0.925   4.904 -3.2106  1.6436 -2.7406
  268THF     H7 4618   0.620   1.031   4.905  0.5834 -0.0766 -0.2287
  268THF     C8 4619   0.458   1.093   4.774  0.1649  0.6608 -0.3230
  268THF     C9 4620   0.540   1.119   4.655 -0.8176 -0.3550 -0.2574
  268THF    H10 4621   0.421   1.177   4.831 -0.8671  1.8254 -2.5698
  268THF    H11 4622   0.367   1.038   4.749  1.2371 -2.3618  1.8710
  268THF    H12 4623   0.485   1.149   4.565 -2.3592 -1.1019  0.3910
  268THF    H13 4624   0.623   1.183   4.683 -1.0853 -0.4854  0.8697
  269THF     O1 4625   3.093   1.568   4.966  0.7383  0.0716  0.2544
  269THF     C2 4626   2.961   1.549   5.002 -0.5952 -0.5304 -0.1518
  269THF     C3 4627   3.171   1.593   5.085  0.6073 -0.2403 -0.8865
  269THF     H4 4628   2.916   1.491   4.921 -0.6247 -0.3904 -0.2360
  269THF     H5 4629   2.900   1.639   5.002  1.4837  0.9603  0.6272
  269THF     H6 4630   3.273   1.563   5.064  0.2541 -1.1746 -1.3509
  269THF     H7 4631   3.181   1.698   5.112  3.3347 -0.6135 -0.2152
  269THF     C8 4632   3.104   1.507   5.194  0.0923  0.0170  0.3940
  269THF     C9 4633   2.964   1.485   5.137 -0.7091  0.7498 -0.7376
  269THF    H10 4634   3.103   1.548   5.295 -1.1850 -1.1039  0.8615
  269THF    H11 4635   3.162   1.415   5.192 -1.7289 -1.1883 -0.2918
  269THF    H12 4636   2.935   1.380   5.126  1.7029  0.2386 -3.3356
  269THF    H13 4637   2.886   1.530   5.199  2.0857  1.0541  2.8835
  270THF     O1 4638   2.231   3.817   4.823  0.3604 -0.8144 -0.1827
  270THF     C2 4639   2.350   3.758   4.788  0.0051  0.0074  0.0763
  270THF     C3 4640   2.126   3.722   4.821 -0.5646 -0.1068  0.1232
  270THF     H4 4641   2.400   3.740   4.883 -1.7476 -1.8606  0.7162
  270THF     H5 4642   2.411   3.817   4.720 -0.4101  0.6127  0.2192
  270THF     H6 4643   2.047   3.734   4.895  1.6226 -0.4009  2.6894
  270THF     H7 4644   2.088   3.730   4.720  1.0475  0.0408 -0.5061
  270THF     C8 4645   2.192   3.588   4.814 -0.4272  0.6779  0.4301
  270THF     C9 4646   2.311   3.623   4.733 -0.2217 -0.9020  0.6225
  270THF    H10 4647   2.149   3.520   4.740 -0.9617  4.3362 -2.9191
  270THF    H11 4648   2.216   3.541   4.909  2.4192  1.6991  0.2953
  270THF    H12 4649   2.388   3.546   4.743  0.2229 -0.6085 -0.4033
  270THF    H13 4650   2.287   3.633   4.627  2.1238  0.1490  0.1231
  271THF     O1 4651   1.700   3.825   0.304 -0.2041  0.1805  0.4928
  271THF     C2 4652   1.571   3.825   0.368 -0.7053  0.5337  0.4590
  271THF     C3 4653   1.673   3.866   0.179  0.0589  0.0456 -0.0411
  271THF     H4 4654   1.567   3.808   0.476 -2.9059  1.8970  0.6490
  271THF     H5 4655   1.502   3.748   0.334 -1.4610  1.7930 -0.9989
  271THF     H6 4656   1.766   3.897   0.130  0.3613 -2.4300 -1.1425
  271THF     H7 4657   1.638   3.789   0.111  2.7496 -1.7663  0.4405
  271THF     C8 4658   1.575   3.983   0.195 -0.1148  0.2989  0.0303
  271THF     C9 4659   1.502   3.955   0.334 -0.7474  0.0427 -0.1533
  271THF    H10 4660   1.502   3.982   0.115 -0.7534 -1.3892  0.5885
  271THF    H11 4661   1.626   4.079   0.185  0.2810 -0.1648 -3.3223
  271THF    H12 4662   1.533   4.034   0.403  0.3264  1.5125 -2.2432
  271THF    H13 4663   1.393   3.960   0.326 -0.7637  3.4231  0.5302
  272THF     O1 4664   0.613   5.468   2.052  0.6080  0.3556  0.0777
  272THF     C2 4665   0.685   5.470   1.930  0.0347  0.3622 -0.2758
  272THF     C3 4666   0.496   5.388   2.034  0.0510  0.1044 -0.9907
  272THF     H4 4667   0.770   5.402   1.940 -0.4658 -0.0825  1.2275
  272THF     H5 4668   0.714   5.575   1.922  1.1193  0.2506  1.5368
  272THF     H6 4669   0.521   5.282   2.042 -0.7191 -0.1670 -2.0087
  272THF     H7 4670   0.408   5.405   2.096  0.2635  1.7905 -1.1117
  272THF     C8 4671   0.458   5.409   1.887 -0.1180 -0.7717 -0.5884
  272THF     C9 4672   0.593   5.430   1.818 -0.0065  0.5205  0.6356
  272THF    H10 4673   0.401   5.502   1.880  0.4988 -0.0747  2.3589
  272THF    H11 4674   0.391   5.334   1.847 -0.3952  0.0528 -1.7165
  272THF    H12 4675   0.619   5.332   1.777 -0.2746  0.8212 -0.2578
  272THF    H13 4676   0.586   5.493   1.730 -0.1964 -0.0323  0.2513
  273THF     O1 4677   4.051   5.191   0.312  0.2899 -0.1159  0.6333
  273THF     C2 4678   4.087   5.100   0.419  0.0849 -0.4898  0.2175
  273THF     C3 4679   4.154   5.207   0.221 -0.2010  0.2717  0.9726
  273THF     H4 4680   4.022   5.021   0.456 -1.4724  0.8869  0.5543
  273THF     H5 4681   4.107   5.162   0.507 -0.5831 -1.8586  1.3777
  273THF     H6 4682   4.137   5.143   0.135 -1.2394  0.3709  1.0888
  273THF     H7 4683   4.163   5.315   0.206 -3.6227  0.4379 -1.0440
  273THF     C8 4684   4.279   5.155   0.287  0.2528 -0.5891 -0.3584
  273THF     C9 4685   4.223   5.037   0.362  0.5585  0.0213 -0.1967
  273THF    H10 4686   4.317   5.224   0.362 -0.6603  0.8370 -1.1763
  273THF    H11 4687   4.360   5.127   0.219 -0.4039  0.6241 -1.6802
  273THF    H12 4688   4.214   4.940   0.314 -0.8082  0.0175  0.0450
  273THF    H13 4689   4.286   5.004   0.445 -0.5240 -0.6698  0.3709
  274THF     O1 4690   1.770   2.463   5.197 -0.2740 -0.2406 -0.1283
  274THF     C2 4691   1.722   2.402   5.076 -0.6028 -0.2410  0.0206
  274THF     C3 4692   1.770   2.356   5.293  0.2888 -0.0138  0.1893
  274THF     H4 4693   1.762   2.444   4.984 -1.4977  0.2786 -0.1491
  274THF     H5 4694   1.613   2.402   5.072 -0.7430  1.7773  2.0133
  274THF     H6 4695   1.821   2.384   5.386 -0.8863  2.6704  0.1384
  274THF     H7 4696   1.666   2.331   5.311  0.7863 -2.1163  0.4348
  274THF     C8 4697   1.827   2.236   5.229 -0.1918  0.3630  0.7875
  274THF     C9 4698   1.769   2.254   5.087 -0.5157 -0.2068 -0.4705
  274THF    H10 4699   1.774   2.161   5.287 -2.6181  1.1498 -0.2639
  274THF    H11 4700   1.935   2.221   5.230 -0.2239  0.0031  0.0811
  274THF    H12 4701   1.847   2.241   5.012  0.4651 -0.2592  0.5285
  274THF    H13 4702   1.678   2.198   5.072 -1.2431  0.2355  1.8141
  275THF     O1 4703   4.794   4.562   1.872 -0.2743  0.7085  0.0903
  275THF     C2 4704   4.893   4.504   1.957 -0.8513  0.0555 -0.3318
  275THF     C3 4705   4.829   4.555   1.733 -0.2027  0.1316  0.0930
  275THF     H4 4706   4.852   4.467   2.051  2.2769 -2.6620  0.1532
  275THF     H5 4707   4.981   4.567   1.974  0.2331 -1.4373 -0.2280
  275THF     H6 4708   4.743   4.564   1.666  0.6902 -1.2998 -1.3090
  275THF     H7 4709   4.907   4.626   1.705 -0.5672  0.1546 -0.9121
  275THF     C8 4710   4.872   4.407   1.734 -0.4789  0.3950 -0.1218
  275THF     C9 4711   4.943   4.383   1.867  0.3495 -0.2311 -0.0069
  275THF    H10 4712   4.917   4.383   1.638 -1.6542 -0.6374 -0.4451
  275THF    H11 4713   4.776   4.355   1.736 -1.2105  1.5775 -1.8827
  275THF    H12 4714   4.918   4.283   1.904  3.7784 -0.8344  0.9578
  275THF    H13 4715   5.052   4.384   1.867  0.3866  2.1979  0.2326
  276THF     O1 4716   3.424   2.496   5.239  0.3974  0.3669  0.0392
  276THF     C2 4717   3.471   2.618   5.195  0.5362 -0.2244  0.8850
  276THF     C3 4718   3.297   2.477   5.169 -0.2640  0.2122  0.4610
  276THF     H4 4719   3.502   2.605   5.092 -2.2001 -1.1958  0.1050
  276THF     H5 4720   3.559   2.646   5.253  0.4513 -1.9128  1.9168
  276THF     H6 4721   3.308   2.459   5.062 -0.1031  0.8450  0.3676
  276THF     H7 4722   3.231   2.397   5.202  1.2206 -1.0201  0.6038
  276THF     C8 4723   3.231   2.614   5.186  0.2482  0.2851 -0.4172
  276THF     C9 4724   3.349   2.711   5.189  0.0813  0.1384  0.3257
  276THF    H10 4725   3.182   2.614   5.283  1.8968  0.0827  0.4559
  276THF    H11 4726   3.154   2.645   5.115  0.2976 -0.7583 -0.9330
  276THF    H12 4727   3.352   2.767   5.096  1.9976 -1.7587 -0.8590
  276THF    H13 4728   3.338   2.781   5.272 -1.2498 -0.2809  0.5213
  277THF     O1 4729   5.111   5.055   2.736 -0.1126  0.2980  0.0800
  277THF     C2 4730   4.987   5.033   2.674  0.6919  0.7518  0.3562
  277THF     C3 4731   5.177   4.930   2.759  0.2164 -0.0058 -0.3803
  277THF     H4 4732   4.988   5.067   2.570  0.0285 -0.1508  0.0417
  277THF     H5 4733   4.897   5.071   2.722 -0.5404 -3.5219  1.8050
  277THF     H6 4734   5.253   4.911   2.683  0.5478  1.2130 -0.3617
  277THF     H7 4735   5.244   4.924   2.845 -0.9164 -0.5387  0.4833
  277THF     C8 4736   5.072   4.833   2.757  0.0050 -0.5674 -0.6977
  277THF     C9 4737   4.968   4.883   2.659  0.3847  1.0876  0.5095
  277THF    H10 4738   5.024   4.810   2.852 -1.5482 -4.1566 -2.1890
  277THF    H11 4739   5.099   4.730   2.736  1.7264 -0.8789  2.4743
  277THF    H12 4740   4.984   4.856   2.554 -0.7577 -1.5085  0.9304
  277THF    H13 4741   4.869   4.843   2.678 -1.4089  4.3202 -1.2472
  278THF     O1 4742   1.872   3.239   2.173  0.0645  0.8453 -0.0339
  278THF     C2 4743   1.927   3.152   2.073 -0.2601  0.9068  0.3581
  278THF     C3 4744   1.871   3.176   2.301 -0.3455  0.4851 -0.0746
  278THF     H4 4745   2.012   3.192   2.018  0.0007 -0.6654 -0.4300
  278THF     H5 4746   1.851   3.131   1.998  1.1373  0.2371 -0.9185
  278THF     H6 4747   1.964   3.214   2.341 -0.7051  1.1551  0.1455
  278THF     H7 4748   1.791   3.202   2.370  2.7495 -0.2129  4.1282
  278THF     C8 4749   1.877   3.026   2.264  1.0004 -0.3874  0.0122
  278THF     C9 4750   1.975   3.031   2.155 -0.1444  0.0135  0.3208
  278THF    H10 4751   1.774   3.006   2.234  0.5903 -0.5334  1.4472
  278THF    H11 4752   1.904   2.961   2.348 -1.7245  0.7375  1.9026
  278THF    H12 4753   2.079   3.053   2.179  0.3754  0.2547 -1.9430
  278THF    H13 4754   1.969   2.937   2.101  0.3403 -0.7169  1.4884
  279THF     O1 4755   3.264   1.347   4.766 -0.2339  0.4070  0.0728
  279THF     C2 4756   3.338   1.262   4.672  0.3322 -0.1138 -0.0276
  279THF     C3 4757   3.187   1.257   4.844 -0.3941  0.2425 -0.8206
  279THF     H4 4758   3.426   1.222   4.722  0.5583 -0.3349 -0.6060
  279THF     H5 4759   3.364   1.316   4.582 -0.0674 -1.4151 -0.9522
  279THF     H6 4760   3.252   1.194   4.905  1.6257  1.1206 -1.9813
  279THF     H7 4761   3.114   1.297   4.915 -1.0220 -0.5370 -1.0006
  279THF     C8 4762   3.122   1.163   4.743 -0.0491 -0.6760 -0.4619
  279THF     C9 4763   3.223   1.167   4.633  0.5720  0.1366 -0.1427
  279THF    H10 4764   3.023   1.192   4.709 -1.1748 -0.1405  2.9143
  279THF    H11 4765   3.114   1.063   4.786  0.5907 -0.6698 -0.3171
  279THF    H12 4766   3.266   1.069   4.612 -2.3351 -0.7342 -2.9178
  279THF    H13 4767   3.173   1.202   4.542  1.1987  2.6221  0.3802
  280THF     O1 4768   2.402   4.086   0.150  0.1840 -0.4504 -0.1301
  280THF     C2 4769   2.456   4.141   0.028  0.2421 -0.8087 -0.2447
  280THF     C3 4770   2.473   3.966   0.185  0.1111 -0.5844  0.0861
  280THF     H4 4771   2.454   4.249   0.042  0.0562 -0.8607  0.1433
  280THF     H5 4772   2.385   4.122  -0.054 -1.4201 -0.0088  0.9460
  280THF     H6 4773   2.462   3.944   0.292 -2.4512 -1.0958 -0.2256
  280THF     H7 4774   2.431   3.881   0.131  0.9190  0.0081 -1.5328
  280THF     C8 4775   2.610   3.999   0.137 -0.2911  0.3983  0.3828
  280THF     C9 4776   2.593   4.073   0.013  0.1921 -0.9727  0.1730
  280THF    H10 4777   2.687   3.925   0.117 -0.0415  0.8731 -0.4596
  280THF    H11 4778   2.664   4.071   0.199  2.1666  0.5235 -1.7033
  280THF    H12 4779   2.669   4.151   0.005 -1.1709  0.2393 -1.8434
  280THF    H13 4780   2.600   4.018  -0.081 -0.9832 -1.8268  0.5625
  281THF     O1 4781   1.994   2.349   3.336 -0.5516  0.0646  0.0175
  281THF     C2 4782   2.127   2.313   3.297 -0.0328 -0.5363 -0.2408
  281THF     C3 4783   1.910   2.231   3.335 -0.1465 -0.1826  0.4629
  281THF     H4 4784   2.171   2.272   3.388 -0.4657  1.0552  0.7188
  281THF     H5 4785   2.201   2.388   3.269 -0.4874 -0.2553 -0.6954
  281THF     H6 4786   1.897   2.200   3.439 -0.2569  1.7346  1.0454
  281THF     H7 4787   1.813   2.263   3.296 -0.9716 -2.8451  0.0954
  281THF     C8 4788   1.987   2.138   3.240  0.1673 -0.0418  0.1671
  281THF     C9 4789   2.099   2.214   3.188  0.0654  0.6708  0.9212
  281THF    H10 4790   1.930   2.103   3.154 -0.1378  1.3760 -0.2348
  281THF    H11 4791   2.023   2.050   3.293 -1.3556 -0.6034  0.3117
  281THF    H12 4792   2.194   2.162   3.172  0.0076  0.7819  0.1956
  281THF    H13 4793   2.072   2.255   3.091  1.6624 -1.5464 -0.5759
  282THF     O1 4794   4.723   1.156   0.600  0.0129  0.5444 -0.0630
  282THF     C2 4795   4.597   1.128   0.539 -0.1732 -0.4691  0.6372
  282THF     C3 4796   4.816   1.053   0.573  0.4551  0.0605 -0.5988
  282THF     H4 4797   4.549   1.218   0.501 -2.0777 -1.1156  1.3953
  282THF     H5 4798   4.531   1.083   0.613 -0.1650 -2.9135 -0.7408
  282THF     H6 4799   4.919   1.084   0.590  0.1854  0.2058  0.8624
  282THF     H7 4800   4.788   0.964   0.629 -2.8909  0.1100 -1.9617
  282THF     C8 4801   4.780   1.018   0.431 -0.2163  0.1754  0.5460
  282THF     C9 4802   4.627   1.016   0.450  0.1374 -1.1649  0.2480
  282THF    H10 4803   4.829   0.926   0.398  1.7754  1.9728 -1.9178
  282THF    H11 4804   4.819   1.099   0.369 -2.5315  1.9542  1.2559
  282THF    H12 4805   4.578   1.018   0.353 -0.2444 -0.1256  0.4554
  282THF    H13 4806   4.594   0.927   0.505  2.3675 -1.7205  0.8017
  283THF     O1 4807   5.100   3.076   0.377 -0.1546 -0.0186  0.0568
  283THF     C2 4808   5.185   3.126   0.275 -0.5820  0.6161  0.1980
  283THF     C3 4809   5.188   3.043   0.488  0.2767  0.6862 -0.0188
  283THF     H4 4810   5.133   3.195   0.209 -1.2808 -0.0314  0.0663
  283THF     H5 4811   5.231   3.044   0.220  1.9852  1.5294  0.8285
  283THF     H6 4812   5.134   3.043   0.582 -0.0112  0.3157 -0.1819
  283THF     H7 4813   5.240   2.949   0.469  0.0904  0.1171  2.0616
  283THF     C8 4814   5.293   3.153   0.501 -0.4834  0.0402 -0.0565
  283THF     C9 4815   5.290   3.200   0.355 -0.3031 -0.1108 -0.3094
  283THF    H10 4816   5.393   3.122   0.531 -0.3778  1.1599  0.8097
  283THF    H11 4817   5.264   3.245   0.551  0.9276  1.2500 -1.3502
  283THF    H12 4818   5.271   3.307   0.361  2.7454  0.4559  0.6826
  283THF    H13 4819   5.383   3.192   0.299  0.2184 -3.0955  0.7806
  284THF     O1 4820   3.642   0.057   4.032  0.0681  0.2649  0.5127
  284THF     C2 4821   3.770  -0.007   4.044  0.9458 -0.4626 -0.3455
  284THF     C3 4822   3.657   0.156   3.925 -0.4857  0.3634 -0.4785
  284THF     H4 4823   3.758  -0.097   4.104 -1.1974  0.2487  0.3634
  284THF     H5 4824   3.835   0.062   4.098 -0.5443  1.9316 -1.4003
  284THF     H6 4825   3.556   0.175   3.891 -0.0102  0.4369 -1.8862
  284THF     H7 4826   3.701   0.249   3.963  0.5990 -0.6024  0.7439
  284THF     C8 4827   3.757   0.088   3.831  0.2682  0.2128  0.3170
  284THF     C9 4828   3.814  -0.030   3.904 -0.3770  0.4356  0.8979
  284THF    H10 4829   3.834   0.155   3.792 -0.4374 -0.8064 -3.2499
  284THF    H11 4830   3.703   0.049   3.745 -0.3667  1.6407  0.0422
  284THF    H12 4831   3.771  -0.125   3.870  1.4078  0.0939 -0.5958
  284THF    H13 4832   3.922  -0.030   3.891 -0.5852 -0.5847 -1.3514
  285THF     O1 4833   2.443   0.850   3.582 -0.5279 -0.2412  0.3396
  285THF     C2 4834   2.394   0.850   3.721  0.4684  0.5857 -0.0573
  285THF     C3 4835   2.515   0.966   3.569 -0.4301 -0.0477 -0.6924
  285THF     H4 4836   2.461   0.793   3.784 -1.4115 -0.6697  0.8994
  285THF     H5 4837   2.299   0.797   3.724  0.1855  1.1296  1.0802
  285THF     H6 4838   2.614   0.955   3.614 -0.9840  2.0517  1.2542
  285THF     H7 4839   2.519   1.003   3.467 -0.9324  0.9317 -0.3743
  285THF     C8 4840   2.432   1.070   3.646  0.0810 -0.1686  0.3441
  285THF     C9 4841   2.394   0.994   3.768  0.5234  0.8120 -0.6116
  285THF    H10 4842   2.345   1.098   3.586  0.3488  0.9722  0.4680
  285THF    H11 4843   2.489   1.155   3.684 -0.8506  0.5749  0.1330
  285THF    H12 4844   2.468   0.990   3.848  0.3089 -0.3984 -0.4606
  285THF    H13 4845   2.296   1.033   3.794  0.1491 -0.6696  0.3006
  286THF     O1 4846   1.548   2.159   3.609 -0.0686  0.4165  0.7973
  286THF     C2 4847   1.450   2.260   3.586 -0.1178 -0.4114  0.4645
  286THF     C3 4848   1.643   2.218   3.699  0.0112  0.3443  0.4134
  286THF     H4 4849   1.362   2.247   3.649  0.1052  0.1198  0.8902
  286THF     H5 4850   1.420   2.252   3.482  3.0602 -0.9595 -0.5249
  286THF     H6 4851   1.614   2.209   3.804  1.8004 -0.7986  0.8549
  286THF     H7 4852   1.738   2.166   3.690  0.2606  0.6842  1.0000
  286THF     C8 4853   1.652   2.367   3.670  0.4188  0.5183  0.0358
  286THF     C9 4854   1.509   2.394   3.613 -0.1800  0.2091 -0.3687
  286THF    H10 4855   1.720   2.393   3.589  0.5889  1.3469  0.4406
  286THF    H11 4856   1.665   2.436   3.753 -1.8733  2.9089 -1.4261
  286THF    H12 4857   1.456   2.438   3.698  0.5174  1.1383 -0.3934
  286THF    H13 4858   1.508   2.458   3.524 -0.8667  0.8659  0.0951
  287THF     O1 4859   2.862   4.510   3.175 -0.5001 -0.2363 -0.3804
  287THF     C2 4860   2.875   4.602   3.283 -0.9617 -0.4940  0.6977
  287THF     C3 4861   2.986   4.498   3.102 -0.3934  0.3665 -0.1162
  287THF     H4 4862   2.808   4.579   3.366  1.7746 -3.8432  2.2401
  287THF     H5 4863   2.853   4.703   3.247 -0.8367 -0.2328  1.3405
  287THF     H6 4864   3.011   4.396   3.077  0.6604  0.4315  0.6156
  287THF     H7 4865   2.984   4.553   3.008 -2.2379  1.1659  0.3371
  287THF     C8 4866   3.087   4.555   3.208 -0.4202 -0.2619  0.2704
  287THF     C9 4867   3.015   4.574   3.336  0.8227  0.2400  0.8815
  287THF    H10 4868   3.123   4.651   3.171 -1.5353 -0.3081 -0.9921
  287THF    H11 4869   3.176   4.495   3.225  0.2697  0.1193 -1.8199
  287THF    H12 4870   3.028   4.484   3.396  0.7911 -1.1861 -1.1636
  287THF    H13 4871   3.070   4.652   3.389  1.7262 -0.9814  1.7855
  288THF     O1 4872   1.033   1.536   3.407 -0.0745  0.4244  0.3558
  288THF     C2 4873   0.978   1.429   3.331  0.9198  0.1932  0.3468
  288THF     C3 4874   0.928   1.625   3.409  0.5088 -0.5998 -0.0731
  288THF     H4 4875   1.034   1.336   3.337  1.7576  0.5505 -1.3174
  288THF     H5 4876   0.976   1.464   3.227 -0.0987  1.7421  0.8555
  288THF     H6 4877   0.949   1.710   3.474  0.1196  0.1898 -0.9486
  288THF     H7 4878   0.914   1.680   3.315  0.4994  0.3242  0.4511
  288THF     C8 4879   0.799   1.545   3.447  0.4440 -0.1018  0.2086
  288THF     C9 4880   0.838   1.409   3.393 -0.0650 -0.0102  0.3957
  288THF    H10 4881   0.707   1.587   3.405  0.8763  0.4854 -0.1647
  288THF    H11 4882   0.782   1.533   3.554  1.7333 -0.5923  0.3713
  288THF    H12 4883   0.844   1.337   3.474  1.5298  1.2466  1.4532
  288THF    H13 4884   0.769   1.373   3.316  2.0058 -0.1451 -1.4975
  289THF     O1 4885   3.843   1.850   2.179 -0.4285  0.1453 -0.5734
  289THF     C2 4886   3.802   1.726   2.122 -0.0491  0.1920 -0.2889
  289THF     C3 4887   3.827   1.952   2.077 -0.3555 -0.1384  0.1827
  289THF     H4 4888   3.772   1.647   2.191 -0.8374  0.5877 -0.1650
  289THF     H5 4889   3.882   1.688   2.059  0.5016  1.5994 -0.4640
  289THF     H6 4890   3.814   2.046   2.131  0.7805 -0.4936  1.0944
  289THF     H7 4891   3.912   1.961   2.009 -0.1022 -1.9983  0.1944
  289THF     C8 4892   3.705   1.910   2.001  0.0082  0.1608 -0.7399
  289THF     C9 4893   3.692   1.759   2.026 -0.2379 -0.7129  1.0555
  289THF    H10 4894   3.732   1.926   1.897 -1.8399  1.2192 -1.0959
  289THF    H11 4895   3.619   1.968   2.034 -0.1767 -0.3688 -0.2812
  289THF    H12 4896   3.602   1.727   2.078  1.2521 -2.8418  2.5227
  289THF    H13 4897   3.700   1.710   1.929 -0.9147  2.3051 -0.6585
  290THF     O1 4898   1.666   0.768   3.760  0.1253  0.2716  0.3304
  290THF     C2 4899   1.563   0.836   3.687  0.1622  0.4469  0.1182
  290THF     C3 4900   1.784   0.845   3.751  0.7071 -0.7487 -0.2495
  290THF     H4 4901   1.507   0.907   3.748 -2.4343 -0.5469 -0.9387
  290THF     H5 4902   1.485   0.770   3.648 -0.4392  1.4334 -0.4062
  290THF     H6 4903   1.814   0.880   3.850  0.8909 -2.8679  0.4888
  290THF     H7 4904   1.869   0.787   3.715  0.8196 -0.5135 -0.3691
  290THF     C8 4905   1.752   0.966   3.656 -0.1453 -0.7155 -0.2341
  290THF     C9 4906   1.638   0.915   3.581  0.0497 -0.3220 -0.1057
  290THF    H10 4907   1.839   1.002   3.601 -0.2798 -1.5710 -1.0461
  290THF    H11 4908   1.726   1.045   3.726  3.5367 -1.1145  1.8495
  290THF    H12 4909   1.570   0.987   3.535 -2.7476 -2.2321  0.7367
  290THF    H13 4910   1.673   0.850   3.501  0.1599 -0.6043  0.1722
  291THF     O1 4911   2.966   1.042   3.970 -0.4354 -1.0294 -0.3719
  291THF     C2 4912   2.987   0.920   3.898 -0.1215  0.0896 -0.1854
  291THF     C3 4913   2.846   1.024   4.047 -0.4743 -0.4464 -0.5790
  291THF     H4 4914   3.044   0.847   3.956 -0.1901 -0.0312 -0.2677
  291THF     H5 4915   3.035   0.936   3.801 -1.6448  2.4738 -0.6060
  291THF     H6 4916   2.873   0.954   4.126  0.4648  1.2245  0.6542
  291THF     H7 4917   2.807   1.120   4.080  3.4254  1.1577  0.0129
  291THF     C8 4918   2.758   0.946   3.961  0.7311  0.0749 -0.2477
  291THF     C9 4919   2.846   0.870   3.868 -0.7902  0.6094  0.2414
  291THF    H10 4920   2.694   1.017   3.907 -0.4381  0.2468  1.3029
  291THF    H11 4921   2.700   0.882   4.027  3.6111 -1.5226  0.8638
  291THF    H12 4922   2.830   0.762   3.875  0.9898  0.2800 -0.0550
  291THF    H13 4923   2.811   0.883   3.765  0.4700 -1.4121 -0.5098
  292THF     O1 4924   0.055   3.381   3.670 -0.0530  0.4974  0.0265
  292THF     C2 4925   0.066   3.467   3.555  0.1568  0.0200 -0.6616
  292THF     C3 4926   0.183   3.353   3.712  1.1382 -0.0586 -0.3501
  292THF     H4 4927  -0.016   3.537   3.537  0.5806  0.3140 -1.5142
  292THF     H5 4928   0.063   3.402   3.468  0.5925 -1.1574  0.1772
  292THF     H6 4929   0.185   3.320   3.816 -0.6613  1.9283  0.3838
  292THF     H7 4930   0.218   3.268   3.653  0.5995  0.6206 -1.6983
  292THF     C8 4931   0.269   3.477   3.690  0.1322  0.0096 -0.3177
  292THF     C9 4932   0.207   3.543   3.566 -0.4026 -0.4320  0.0731
  292THF    H10 4933   0.375   3.451   3.682 -0.7763 -5.2073  0.8650
  292THF    H11 4934   0.255   3.547   3.773 -3.3144 -2.3080  1.2955
  292THF    H12 4935   0.205   3.652   3.575  1.3615 -0.4381  1.0257
  292THF    H13 4936   0.269   3.515   3.481 -0.1360 -1.5502  0.6259
  293THF     O1 4937   0.255   4.302   0.552  0.1328  0.0337  0.0405
  293THF     C2 4938   0.376   4.325   0.627  0.1976  0.1199 -0.2120
  293THF     C3 4939   0.235   4.166   0.533  0.3916 -0.0041 -0.2964
  293THF     H4 4940   0.369   4.422   0.677  0.0079  0.0046 -0.0126
  293THF     H5 4941   0.464   4.310   0.565  0.2389 -2.8139  0.4213
  293THF     H6 4942   0.133   4.127   0.528  0.5215 -0.6782  1.4679
  293THF     H7 4943   0.286   4.135   0.443 -0.8111  1.6641 -1.6097
  293THF     C8 4944   0.289   4.102   0.662  0.4590  0.1728  0.2340
  293THF     C9 4945   0.360   4.220   0.729  0.3236 -0.2240 -0.3167
  293THF    H10 4946   0.352   4.018   0.632  0.4621 -0.7625  2.6861
  293THF    H11 4947   0.208   4.069   0.726  1.5143 -0.2665  1.3937
  293THF    H12 4948   0.307   4.255   0.818 -1.5098 -0.3768 -1.2979
  293THF    H13 4949   0.459   4.193   0.766  0.8653 -0.7351 -2.0479
  294THF     O1 4950   5.064   2.225   1.132  0.1326  0.0167  0.5074
  294THF     C2 4951   5.013   2.362   1.130 -0.3584 -0.2536  0.7378
  294THF     C3 4952   4.960   2.135   1.090 -0.2418 -0.0221 -0.0998
  294THF     H4 4953   5.064   2.422   1.055 -1.1993  3.3762  2.8382
  294THF     H5 4954   5.007   2.411   1.227 -0.9595 -0.5626  0.8644
  294THF     H6 4955   5.003   2.052   1.034  0.4630  0.2184  0.0717
  294THF     H7 4956   4.904   2.103   1.178  1.5174  0.8486  1.4084
  294THF     C8 4957   4.868   2.228   1.009 -0.4375  0.2216 -0.3616
  294THF     C9 4958   4.874   2.362   1.083  0.1468  0.5239 -0.4425
  294THF    H10 4959   4.766   2.190   1.003 -0.6815 -0.0803  3.2111
  294THF    H11 4960   4.917   2.250   0.914 -0.0419  0.9442  0.0012
  294THF    H12 4961   4.850   2.448   1.020  0.9518  0.8640 -0.2971
  294THF    H13 4962   4.801   2.348   1.163  2.2147 -1.3802  1.2516
  295THF     O1 4963   4.872   2.048   0.126  0.2919  0.0329 -0.3743
  295THF     C2 4964   4.913   2.152   0.212 -0.1467 -0.2906 -0.0222
  295THF     C3 4965   4.744   1.993   0.162  0.1696 -0.1417  0.0787
  295THF     H4 4966   4.922   2.244   0.154 -2.7991 -1.3798 -2.3729
  295THF     H5 4967   5.013   2.131   0.252 -0.3399  1.5900  1.6200
  295THF     H6 4968   4.658   2.036   0.111 -1.2304  0.4540  2.7801
  295THF     H7 4969   4.741   1.885   0.153 -3.2779 -0.1327 -0.0853
  295THF     C8 4970   4.735   2.030   0.313 -0.9783  0.1849  0.3159
  295THF     C9 4971   4.813   2.165   0.326 -0.4526  0.6586 -0.0219
  295THF    H10 4972   4.780   1.951   0.371  0.6751  0.8037 -0.0728
  295THF    H11 4973   4.633   2.044   0.348 -1.7242 -0.8091 -1.3083
  295THF    H12 4974   4.753   2.251   0.297 -1.7183 -0.1927 -0.0611
  295THF    H13 4975   4.868   2.183   0.418 -0.4247  0.3731  0.0205
  296THF     O1 4976   4.539   0.297   4.400  0.0131 -0.1727 -0.3148
  296THF     C2 4977   4.681   0.298   4.380  0.7222 -0.0131  0.5816
  296THF     C3 4978   4.493   0.166   4.415 -0.8357  0.5447  0.3443
  296THF     H4 4979   4.732   0.363   4.451 -0.7173  1.5913  0.2238
  296THF     H5 4980   4.713   0.333   4.282 -1.9243  0.0040 -0.3584
  296THF     H6 4981   4.493   0.148   4.523  0.2991 -1.7986  0.0314
  296THF     H7 4982   4.394   0.149   4.373 -1.3657  0.2174  1.6836
  296THF     C8 4983   4.608   0.077   4.363 -0.0763 -0.3893  0.3157
  296THF     C9 4984   4.729   0.160   4.402 -0.5282 -0.5266  0.1688
  296THF    H10 4985   4.601   0.071   4.254 -2.6506  1.1809  0.3057
  296THF    H11 4986   4.601  -0.024   4.405  1.6718 -1.5545 -1.9312
  296THF    H12 4987   4.750   0.138   4.507 -1.8620 -0.8042  0.3999
  296THF    H13 4988   4.822   0.137   4.350 -1.3710 -3.1778 -0.3369
  297THF     O1 4989   3.628   4.140   1.085  0.2167 -0.4365  0.0297
  297THF     C2 4990   3.617   4.111   1.228  0.1352  0.0079  0.1600
  297THF     C3 4991   3.494   4.170   1.031 -0.2490 -0.2533 -0.9462
  297THF     H4 4992   3.704   4.125   1.291  2.0162 -1.0685 -2.0448
  297THF     H5 4993   3.571   4.015   1.253  0.2768 -0.1422 -0.1568
  297THF     H6 4994   3.487   4.221   0.936  1.6451 -0.5794 -1.3135
  297THF     H7 4995   3.445   4.073   1.040 -0.0322 -0.3123 -0.2869
  297THF     C8 4996   3.448   4.267   1.136 -0.0774  0.0016  1.1789
  297THF     C9 4997   3.520   4.228   1.261 -0.5004 -0.4397 -0.0079
  297THF    H10 4998   3.341   4.285   1.139  0.0402  0.8175  0.8984
  297THF    H11 4999   3.492   4.360   1.100  0.2190 -0.3708  0.5557
  297THF    H12 5000   3.579   4.311   1.297 -0.5041  0.2771 -1.5624
  297THF    H13 5001   3.456   4.195   1.343 -1.2665 -0.0233 -0.4301
  298THF     O1 5002   2.581   2.526   4.549  0.5639  0.1897  1.0972
  298THF     C2 5003   2.511   2.646   4.589 -0.0208 -0.0233  0.4577
  298THF     C3 5004   2.670   2.488   4.655 -0.1723 -0.3540  0.5673
  298THF     H4 5005   2.405   2.631   4.607 -0.3590  0.8629 -0.6737
  298THF     H5 5006   2.510   2.715   4.505  0.8616 -0.4757  0.0618
  298THF     H6 5007   2.660   2.383   4.684  0.7753 -1.2145 -1.9324
  298THF     H7 5008   2.774   2.502   4.626 -0.1528  1.2128  1.3312
  298THF     C8 5009   2.640   2.584   4.769  0.3964  0.1140  0.1115
  298THF     C9 5010   2.592   2.717   4.702 -0.3352  0.0938 -0.7369
  298THF    H10 5011   2.732   2.611   4.822  1.5052  0.7934 -2.0740
  298THF    H11 5012   2.560   2.542   4.830  1.0312 -0.9911  0.2134
  298THF    H12 5013   2.519   2.772   4.762 -0.5330 -0.8719 -0.0660
  298THF    H13 5014   2.670   2.783   4.663  0.2350 -0.3224 -0.3285
  299THF     O1 5015   0.485   4.630   2.556  0.0825 -0.1556  0.1979
  299THF     C2 5016   0.451   4.668   2.426  0.1902 -0.0685  0.6767
  299THF     C3 5017   0.391   4.532   2.591  0.4058 -0.1256 -0.2047
  299THF     H4 5018   0.511   4.617   2.350 -2.0746 -2.0270  0.0843
  299THF     H5 5019   0.460   4.776   2.419 -1.2077  0.0368  0.2473
  299THF     H6 5020   0.414   4.438   2.541 -1.2861  0.1228 -1.5869
  299THF     H7 5021   0.394   4.511   2.698  2.3784  0.2766 -0.1601
  299THF     C8 5022   0.255   4.575   2.539  0.0243 -0.7274  0.0590
  299THF     C9 5023   0.304   4.622   2.393 -0.4232 -0.0458 -0.5933
  299THF    H10 5024   0.207   4.662   2.583 -1.8137 -1.0481 -1.2044
  299THF    H11 5025   0.181   4.495   2.530 -0.1851 -0.4692 -0.5746
  299THF    H12 5026   0.293   4.544   2.318  2.0420 -0.9388 -0.1419
  299THF    H13 5027   0.257   4.714   2.361 -0.4794 -0.4092 -1.6114
  300THF     O1 5028   3.525   1.770   3.686  0.3105 -0.0642 -0.2487
  300THF     C2 5029   3.441   1.767   3.797 -0.0610  0.1375 -0.2183
  300THF     C3 5030   3.562   1.911   3.672  0.5241  0.4406 -0.3304
  300THF     H4 5031   3.493   1.732   3.886  2.3934  1.6384 -0.9310
  300THF     H5 5032   3.367   1.692   3.771  0.1326 -0.4804  0.9442
  300THF     H6 5033   3.652   1.928   3.731  0.5612  1.0408 -0.5537
  300THF     H7 5034   3.596   1.930   3.571 -1.0754 -2.0428 -1.4251
  300THF     C8 5035   3.435   1.991   3.705  0.6754  0.8496 -0.2731
  300THF     C9 5036   3.380   1.902   3.815 -0.9684  0.0087  0.8489
  300THF    H10 5037   3.355   1.991   3.631 -0.9517 -1.6496  1.3351
  300THF    H11 5038   3.460   2.092   3.737 -0.7342  0.5999  1.8187
  300THF    H12 5039   3.413   1.952   3.906 -2.1627  1.7610  0.3659
  300THF    H13 5040   3.272   1.918   3.811 -0.8408  1.1777  1.4745
  301THF     O1 5041   1.777   5.362   2.777 -0.7389  0.1621  0.7659
  301THF     C2 5042   1.777   5.315   2.643  0.1654 -0.0653 -0.1513
  301THF     C3 5043   1.727   5.491   2.779 -0.2474 -0.2024 -0.0553
  301THF     H4 5044   1.674   5.284   2.626  0.3513 -0.5143 -0.4860
  301THF     H5 5045   1.843   5.230   2.622  0.8166 -0.1067  1.8313
  301THF     H6 5046   1.620   5.496   2.760 -0.6081 -1.8777  1.2674
  301THF     H7 5047   1.738   5.545   2.873  1.5610  2.4517 -1.6589
  301THF     C8 5048   1.808   5.553   2.667  0.0525  0.7716 -0.1504
  301THF     C9 5049   1.807   5.443   2.561  0.9032 -0.0116 -0.6020
  301THF    H10 5050   1.909   5.562   2.707  0.5804  0.9141 -1.4681
  301THF    H11 5051   1.769   5.644   2.622  0.4290  0.6260 -0.7939
  301THF    H12 5052   1.744   5.462   2.474  1.2052  1.8455 -0.4491
  301THF    H13 5053   1.899   5.442   2.501  1.2725 -1.3063 -0.0457
  302THF     O1 5054   0.780   1.391   2.634 -0.0060 -0.2062  0.1513
  302THF     C2 5055   0.784   1.521   2.571 -0.0467  0.5171  0.4252
  302THF     C3 5056   0.893   1.386   2.721 -0.4620 -0.3948  0.1365
  302THF     H4 5057   0.686   1.556   2.536 -0.9609 -2.7132 -0.5590
  302THF     H5 5058   0.855   1.506   2.489 -1.2536  2.1165 -1.0180
  302THF     H6 5059   0.902   1.297   2.784  0.4386  0.4148  1.1891
  302THF     H7 5060   0.987   1.381   2.665 -0.2460  0.1849  0.4380
  302THF     C8 5061   0.895   1.525   2.788  0.5451 -0.6249 -0.2127
  302THF     C9 5062   0.829   1.609   2.682 -0.4597 -0.3982 -0.2421
  302THF    H10 5063   0.996   1.559   2.812  0.1346  0.9528 -0.6298
  302THF    H11 5064   0.843   1.521   2.884 -0.2133 -0.7570 -0.6211
  302THF    H12 5065   0.749   1.665   2.730  0.7880  0.1787  1.2443
  302THF    H13 5066   0.898   1.687   2.648 -0.1602 -0.0991  1.0078
  303THF     O1 5067   4.125   0.379   4.555  0.0309 -0.3520  0.1892
  303THF     C2 5068   4.075   0.496   4.494  0.1973 -0.8622 -0.0230
  303THF     C3 5069   4.031   0.299   4.616  0.0717  0.5982  0.2257
  303THF     H4 5070   4.089   0.503   4.386  0.6877 -1.6852 -0.0176
  303THF     H5 5071   4.123   0.587   4.529 -0.1010  0.1204 -2.0172
  303THF     H6 5072   4.052   0.193   4.601  0.2194  0.6902 -0.2269
  303THF     H7 5073   4.034   0.320   4.723 -0.7090 -0.9066  0.5640
  303THF     C8 5074   3.895   0.349   4.565  0.4590  0.1620 -0.0146
  303THF     C9 5075   3.928   0.494   4.537  0.0654  0.1001 -0.4613
  303THF    H10 5076   3.815   0.334   4.636  1.7613  0.7800  1.6517
  303THF    H11 5077   3.866   0.287   4.481  0.4987 -1.6401  1.2556
  303THF    H12 5078   3.865   0.537   4.459 -1.9612  0.5478  1.3313
  303THF    H13 5079   3.909   0.558   4.623 -0.0293  0.4764 -0.7623
  304THF     O1 5080   0.623   3.153   2.061  0.1314 -0.1579  0.2438
  304THF     C2 5081   0.558   3.074   2.164  0.5582  0.2858 -0.0038
  304THF     C3 5082   0.617   3.292   2.098 -0.0929 -0.4452 -0.0055
  304THF     H4 5083   0.614   3.030   2.246  0.7962 -1.7916 -1.2140
  304THF     H5 5084   0.505   3.001   2.102  2.0997 -1.0471  0.1851
  304THF     H6 5085   0.686   3.313   2.180 -0.7599 -1.6406  0.8812
  304THF     H7 5086   0.656   3.353   2.016  0.1793 -0.0529  0.4096
  304THF     C8 5087   0.481   3.303   2.139 -0.2896  0.2348 -0.2724
  304THF     C9 5088   0.452   3.172   2.212  0.1602 -0.7315  0.5033
  304THF    H10 5089   0.421   3.318   2.049  0.9671  0.4400 -1.1037
  304THF    H11 5090   0.467   3.389   2.204  1.6911  1.3610 -1.2074
  304THF    H12 5091   0.472   3.190   2.317 -2.4746 -0.1339  0.9743
  304THF    H13 5092   0.347   3.141   2.213 -0.5366  1.3967  2.0876
  305THF     O1 5093   1.585   4.083   1.441 -0.3107  0.2842  0.2454
  305THF     C2 5094   1.510   4.015   1.541 -0.3972  0.6041  0.2721
  305THF     C3 5095   1.715   4.034   1.457 -0.5833 -0.3802  0.1925
  305THF     H4 5096   1.481   3.915   1.508 -0.3192  1.2509 -1.9304
  305THF     H5 5097   1.414   4.064   1.559 -2.0903 -2.9669  1.8610
  305THF     H6 5098   1.715   3.932   1.418  3.3929  0.0263 -1.2891
  305THF     H7 5099   1.793   4.093   1.410 -0.6498 -0.4104  0.0453
  305THF     C8 5100   1.738   4.021   1.609  0.4242 -0.8342 -0.1142
  305THF     C9 5101   1.600   3.996   1.665  0.4247 -0.0691  0.4916
  305THF    H10 5102   1.769   4.115   1.655  0.8298 -1.3748  0.7450
  305THF    H11 5103   1.823   3.964   1.647  1.3869  1.2264  1.0199
  305THF    H12 5104   1.590   3.892   1.696 -0.2072  0.1183  0.9558
  305THF    H13 5105   1.587   4.067   1.747  1.7936  0.5853  0.1727
  306THF     O1 5106   3.565   4.906   4.814 -0.4336  0.2923 -0.2975
  306THF     C2 5107   3.691   4.966   4.788 -0.6101 -0.6119  0.2718
  306THF     C3 5108   3.464   5.009   4.797  0.0693 -0.2948 -0.6284
  306THF     H4 5109   3.709   4.967   4.680  0.8320  1.6451  0.4532
  306THF     H5 5110   3.772   4.912   4.836  1.1398  0.2635 -1.5509
  306THF     H6 5111   3.403   4.984   4.710 -0.2613  2.0490 -1.1251
  306THF     H7 5112   3.398   5.007   4.884 -0.3158 -2.2134 -0.9277
  306THF     C8 5113   3.537   5.139   4.792 -0.2758 -1.2585 -0.4944
  306THF     C9 5114   3.680   5.109   4.840  0.0006 -0.7338 -0.4142
  306THF    H10 5115   3.484   5.220   4.842  0.3993 -1.1855  0.1238
  306THF    H11 5116   3.554   5.176   4.691  1.3599 -0.9722 -0.1467
  306THF    H12 5117   3.752   5.185   4.808 -1.3448 -0.0768 -2.0501
  306THF    H13 5118   3.682   5.113   4.949  1.3185  0.4512 -0.4484
  307THF     O1 5119   0.137   5.243   3.002  0.2383 -0.4271  0.1975
  307THF     C2 5120   0.065   5.140   2.927  0.0578 -0.6237 -0.7058
  307THF     C3 5121   0.075   5.373   2.993 -0.2798  0.0105 -0.3648
  307THF     H4 5122   0.090   5.045   2.974 -1.8878 -0.4309  0.8316
  307THF     H5 5123   0.095   5.149   2.823  0.2124  1.9320 -0.5107
  307THF     H6 5124   0.115   5.440   3.069  2.5571 -0.0089 -1.7192
  307THF     H7 5125   0.093   5.422   2.897  0.9929  1.0655  0.3782
  307THF     C8 5126  -0.076   5.327   3.008  0.7330 -1.0337  0.0420
  307THF     C9 5127  -0.083   5.182   2.955 -0.0931 -0.5861  0.6153
  307THF    H10 5128  -0.132   5.402   2.953 -0.6238 -1.7058  0.4768
  307THF    H11 5129  -0.095   5.327   3.115  0.7590  2.5609  0.1674
  307THF    H12 5130  -0.116   5.116   3.036  3.0757 -1.2326  1.5497
  307THF    H13 5131  -0.143   5.175   2.865  2.4173  0.6847 -1.2787
  308THF     O1 5132   4.229   2.332   1.990  0.1361  0.1207 -0.2819
  308THF     C2 5133   4.239   2.261   2.111  0.0361  0.2342 -0.4991
  308THF     C3 5134   4.098   2.309   1.943 -0.4543 -0.2935  0.0413
  308THF     H4 5135   4.260   2.339   2.185 -0.4023 -0.2883  0.1872
  308THF     H5 5136   4.330   2.203   2.121  0.8183  1.3631 -0.8620
  308THF     H6 5137   4.058   2.392   1.884 -0.8485  0.0123  0.7360
  308THF     H7 5138   4.096   2.220   1.880  0.2850 -0.1096 -0.2614
  308THF     C8 5139   4.015   2.276   2.059  0.8597  0.3138 -0.7664
  308THF     C9 5140   4.108   2.191   2.141 -0.0218 -0.0824 -0.0350
  308THF    H10 5141   3.917   2.234   2.034 -0.5268  1.5873  2.0675
  308THF    H11 5142   3.983   2.367   2.110 -1.2956 -0.5921 -0.3617
  308THF    H12 5143   4.076   2.200   2.244 -0.8952 -1.0458 -0.2093
  308THF    H13 5144   4.100   2.086   2.112 -3.6772  0.3045 -0.9489
  309THF     O1 5145   2.434   4.786   2.275 -0.6713 -0.2136  0.2716
  309THF     C2 5146   2.324   4.690   2.267  0.1318  0.0316  0.1506
  309THF     C3 5147   2.543   4.721   2.331 -0.1010  0.2605  0.4829
  309THF     H4 5148   2.249   4.729   2.198  0.9483  0.6032 -0.4492
  309THF     H5 5149   2.280   4.680   2.366 -0.0095  0.3859  0.1257
  309THF     H6 5150   2.642   4.763   2.312  0.1066 -0.3625  0.1701
  309THF     H7 5151   2.529   4.723   2.439 -0.0143  0.6906  0.4883
  309THF     C8 5152   2.538   4.578   2.279  0.5273  0.1735  0.3250
  309THF     C9 5153   2.396   4.566   2.222  0.6448  0.3016  0.2974
  309THF    H10 5154   2.552   4.498   2.352  0.8324  0.7643  0.9234
  309THF    H11 5155   2.606   4.546   2.200 -0.8748  0.1320 -0.8862
  309THF    H12 5156   2.402   4.575   2.113 -2.5128 -0.6379 -0.0496
  309THF    H13 5157   2.350   4.469   2.244  1.4090 -0.0306  0.4492
  310THF     O1 5158   0.566   1.236   3.896 -0.2029 -0.2623 -0.9004
  310THF     C2 5159   0.546   1.120   3.816  0.1218  0.5306 -0.9416
  310THF     C3 5160   0.696   1.290   3.881 -0.2952  0.4330  0.3259
  310THF     H4 5161   0.495   1.145   3.722  0.4713  2.8187 -0.5791
  310THF     H5 5162   0.487   1.040   3.860  0.9781  1.0503  1.2330
  310THF     H6 5163   0.688   1.393   3.846  0.8101  1.0455  1.7964
  310THF     H7 5164   0.743   1.289   3.979  0.2117 -0.4242  0.0778
  310THF     C8 5165   0.768   1.204   3.773  0.1757  0.1150 -0.0510
  310THF     C9 5166   0.683   1.079   3.784 -0.4661  0.3135 -0.3842
  310THF    H10 5167   0.877   1.200   3.784  0.2012  2.6927  1.4003
  310THF    H11 5168   0.754   1.232   3.669 -1.7068 -0.0339  0.1297
  310THF    H12 5169   0.690   1.031   3.686 -1.9099  3.7534 -2.3552
  310THF    H13 5170   0.727   1.015   3.861 -3.0902 -1.8831 -0.5407
  311THF     O1 5171   2.358   1.127   0.321  0.5312  0.0299  0.6308
  311THF     C2 5172   2.417   1.242   0.384  1.0805 -0.1334  0.2529
  311THF     C3 5173   2.222   1.154   0.292 -0.0020 -0.0416  0.4781
  311THF     H4 5174   2.463   1.300   0.303 -1.8283  1.5507 -0.3198
  311THF     H5 5175   2.499   1.209   0.447  1.4493 -1.6353 -0.9460
  311THF     H6 5176   2.207   1.159   0.184 -2.6185 -3.0114  0.5544
  311THF     H7 5177   2.158   1.081   0.341  1.0640 -0.1434  1.7748
  311THF     C8 5178   2.188   1.294   0.352  0.5371  0.3178  0.0771
  311THF     C9 5179   2.297   1.309   0.452  0.1986  0.1678 -0.5737
  311THF    H10 5180   2.087   1.297   0.391  1.2617  1.7132  2.0236
  311THF    H11 5181   2.198   1.369   0.273  0.4052  0.1943 -0.0567
  311THF    H12 5182   2.319   1.412   0.481 -3.3345  1.1216 -0.8905
  311THF    H13 5183   2.272   1.247   0.538 -1.1242  1.0960 -0.2581
  312THF     O1 5184   4.531   1.529   2.611 -0.2691  0.0511  0.5089
  312THF     C2 5185   4.447   1.559   2.726 -0.7265 -0.0372 -0.0693
  312THF     C3 5186   4.461   1.454   2.515  0.3973  0.2069  0.1912
  312THF     H4 5187   4.412   1.662   2.722 -0.8027  0.0162  1.3781
  312THF     H5 5188   4.500   1.542   2.820  0.1526  1.0296 -0.3494
  312THF     H6 5189   4.400   1.522   2.458 -1.0336 -0.4134  0.9263
  312THF     H7 5190   4.520   1.393   2.446 -0.3560 -0.3702  0.0480
  312THF     C8 5191   4.367   1.368   2.594 -0.1634 -0.0230 -0.2825
  312THF     C9 5192   4.335   1.459   2.721  0.1788  0.1425 -0.7281
  312THF    H10 5193   4.431   1.285   2.623  0.2272  0.1349 -0.6685
  312THF    H11 5194   4.269   1.351   2.551 -0.6805 -0.2332  0.9444
  312THF    H12 5195   4.237   1.506   2.714  0.2771  0.2423 -1.5539
  312THF    H13 5196   4.306   1.414   2.815 -0.6039 -0.6871 -1.3469
  313THF     O1 5197   1.748   1.887   1.764  0.2727 -0.2554 -0.3719
  313THF     C2 5198   1.639   1.879   1.855  0.2656 -0.1664  0.2077
  313THF     C3 5199   1.705   1.938   1.637 -0.3496 -0.4438 -0.6247
  313THF     H4 5200   1.681   1.889   1.955  1.9807 -0.0536 -0.4900
  313THF     H5 5201   1.596   1.779   1.847  1.1583 -0.4404 -2.0848
  313THF     H6 5202   1.784   1.998   1.593 -1.3501 -0.5398 -2.6769
  313THF     H7 5203   1.678   1.861   1.564 -0.1644 -1.0638 -0.0512
  313THF     C8 5204   1.587   2.026   1.670  0.0320  0.5818  0.2650
  313THF     C9 5205   1.543   1.989   1.807  0.0842  0.7477  0.5513
  313THF    H10 5206   1.509   2.007   1.596 -1.2929 -0.4939  1.8522
  313THF    H11 5207   1.618   2.131   1.674  1.5990  0.1161  2.9297
  313THF    H12 5208   1.537   2.067   1.883 -3.5414  0.3434  0.8542
  313THF    H13 5209   1.445   1.942   1.812  0.4454  0.0003  0.8082
  314THF     O1 5210   1.786   5.193   0.259  0.1397 -0.2533 -0.2888
  314THF     C2 5211   1.790   5.332   0.294  0.0472  0.1188  0.5195
  314THF     C3 5212   1.881   5.124   0.340  0.3858  0.0011  0.0762
  314THF     H4 5213   1.713   5.399   0.255 -0.1902 -0.0393  0.7119
  314THF     H5 5214   1.889   5.369   0.267 -0.8537  0.7716 -2.1577
  314THF     H6 5215   1.835   5.026   0.344 -0.5528  0.1952 -3.2428
  314THF     H7 5216   1.978   5.125   0.291 -0.2847  0.3452 -1.2868
  314THF     C8 5217   1.887   5.211   0.467 -0.5195 -0.1074 -0.0318
  314THF     C9 5218   1.787   5.325   0.440  0.2683  0.3499  0.3135
  314THF    H10 5219   1.985   5.257   0.465 -0.2105 -0.7705 -1.5114
  314THF    H11 5220   1.875   5.157   0.561  2.3370 -0.4319  0.2194
  314THF    H12 5221   1.684   5.297   0.461  0.4451  0.7704  1.8647
  314THF    H13 5222   1.805   5.414   0.499 -0.7546  0.1014  1.0367
  315THF     O1 5223   2.433   1.693   2.694 -0.3999 -0.5166 -0.5551
  315THF     C2 5224   2.473   1.558   2.686 -0.1814  0.2165  0.0444
  315THF     C3 5225   2.543   1.780   2.663  0.8076 -0.0821  0.1687
  315THF     H4 5226   2.430   1.515   2.596 -0.1615 -0.6547  0.4411
  315THF     H5 5227   2.448   1.497   2.773 -2.5270 -0.1265 -0.7938
  315THF     H6 5228   2.515   1.854   2.588  0.6665 -0.2670  0.0368
  315THF     H7 5229   2.560   1.843   2.750 -0.1256  1.8201 -0.9571
  315THF     C8 5230   2.657   1.685   2.599  0.0510 -0.9406 -0.1763
  315THF     C9 5231   2.629   1.559   2.668 -0.2765 -0.2873 -0.2138
  315THF    H10 5232   2.756   1.726   2.616 -0.3138 -0.5068  0.9908
  315THF    H11 5233   2.641   1.691   2.491  0.5211 -0.8398 -0.2415
  315THF    H12 5234   2.675   1.480   2.609 -0.9369 -1.4356  0.7569
  315THF    H13 5235   2.678   1.566   2.764  0.2960 -1.9991 -0.3482
  316THF     O1 5236   4.824   2.738   0.371 -0.3496 -0.9349  0.4401
  316THF     C2 5237   4.803   2.603   0.390  0.0853 -0.6341 -0.1773
  316THF     C3 5238   4.960   2.761   0.366  0.7199 -0.3356  0.0835
  316THF     H4 5239   4.698   2.585   0.369  0.3262 -0.3897 -1.7272
  316THF     H5 5240   4.822   2.563   0.490 -2.2790  0.7702  0.9301
  316THF     H6 5241   4.972   2.841   0.293  0.7769 -0.4833 -0.0688
  316THF     H7 5242   4.989   2.810   0.459  3.0566  0.1100 -0.8093
  316THF     C8 5243   5.026   2.624   0.326  0.4698 -0.3944  0.2198
  316THF     C9 5244   4.910   2.530   0.301 -0.2077  0.3306 -0.4927
  316THF    H10 5245   5.081   2.578   0.408  0.3379 -1.0810 -0.0687
  316THF    H11 5246   5.102   2.640   0.249  0.1518 -2.4226 -0.5744
  316THF    H12 5247   4.878   2.547   0.198  0.5175  0.5256 -0.6875
  316THF    H13 5248   4.923   2.424   0.321 -2.0137  0.1835  0.1526
  317THF     O1 5249   1.315   3.024   2.429 -0.0705 -0.7806  0.2402
  317THF     C2 5250   1.286   3.018   2.293  0.5957  0.5667 -0.1533
  317THF     C3 5251   1.438   2.964   2.440 -0.0542  0.4641 -1.0841
  317THF     H4 5252   1.354   3.091   2.248  0.2216  1.6266  0.9310
  317THF     H5 5253   1.185   3.046   2.265 -0.7418 -2.1635  1.4796
  317THF     H6 5254   1.517   3.037   2.422 -0.5401  1.2616 -0.0746
  317THF     H7 5255   1.448   2.923   2.541 -2.6580 -1.4015 -1.4671
  317THF     C8 5256   1.442   2.842   2.342  0.0634  0.2280  0.5856
  317THF     C9 5257   1.318   2.876   2.256 -0.0596 -0.1982 -0.2881
  317THF    H10 5258   1.441   2.749   2.399  0.9288 -0.1564 -0.0012
  317THF    H11 5259   1.540   2.848   2.294  0.5712  2.5856  1.7520
  317THF    H12 5260   1.339   2.885   2.149  0.0492 -0.0173 -0.2526
  317THF    H13 5261   1.235   2.808   2.272 -0.5215  0.7471  1.6028
  318THF     O1 5262   1.011   4.499   4.486  0.3035 -0.9284  0.4181
  318THF     C2 5263   1.003   4.390   4.389 -0.0855 -0.3201  0.6920
  318THF     C3 5264   0.945   4.606   4.422 -0.1181 -0.2460 -0.2665
  318THF     H4 5265   1.000   4.297   4.445 -0.1035 -1.0091 -0.4424
  318THF     H5 5266   1.094   4.392   4.329 -1.3275  0.7692 -1.2889
  318THF     H6 5267   0.929   4.677   4.504 -0.9643 -0.4047 -0.2789
  318THF     H7 5268   1.011   4.654   4.350 -0.0978 -0.2058 -0.2213
  318THF     C8 5269   0.824   4.536   4.355 -0.1936  0.4007  0.2961
  318THF     C9 5270   0.882   4.407   4.299 -0.5720  0.2798 -0.0648
  318THF    H10 5271   0.783   4.596   4.273  0.8751  2.2348  1.0424
  318THF    H11 5272   0.741   4.514   4.421 -1.8695  1.2512 -1.4173
  318THF    H12 5273   0.821   4.318   4.281 -0.3013 -0.1187  0.9491
  318THF    H13 5274   0.920   4.435   4.201 -0.8659  3.7979  0.6760
  319THF     O1 5275   1.426   0.911   2.623  0.2988 -0.4031 -0.2672
  319THF     C2 5276   1.470   0.839   2.507  0.2704 -0.3603 -0.2030
  319THF     C3 5277   1.530   0.907   2.728 -0.2276 -0.3376 -0.2470
  319THF     H4 5278   1.413   0.869   2.418  0.8285  0.9112 -0.1527
  319THF     H5 5279   1.447   0.733   2.518 -0.0936 -0.5476 -2.2171
  319THF     H6 5280   1.525   0.995   2.792 -2.4433 -0.1281 -0.6228
  319THF     H7 5281   1.512   0.827   2.799  0.8555 -0.2043  0.2006
  319THF     C8 5282   1.660   0.894   2.655 -0.3461  0.2033  0.9341
  319THF     C9 5283   1.617   0.879   2.511  1.3011 -0.1191  0.1351
  319THF    H10 5284   1.715   0.802   2.677  1.2683  0.2691 -2.3654
  319THF    H11 5285   1.734   0.971   2.676 -1.9390  1.4638  2.1463
  319THF    H12 5286   1.631   0.978   2.469  1.2584 -0.2688 -0.2336
  319THF    H13 5287   1.671   0.805   2.451 -1.3712  0.2824 -3.0144
  320THF     O1 5288   4.880   1.516   0.364  0.3406  0.0216 -0.6949
  320THF     C2 5289   4.890   1.639   0.439  0.5125  0.5367  0.1288
  320THF     C3 5290   4.746   1.463   0.380  0.5127 -0.3391  0.2635
  320THF     H4 5291   4.827   1.720   0.402  0.5731  0.3654 -0.3540
  320THF     H5 5292   4.988   1.684   0.455  0.2905  0.4143  2.1982
  320THF     H6 5293   4.678   1.530   0.326  0.5306 -0.3268  0.2566
  320THF     H7 5294   4.738   1.363   0.337  0.0459  0.7238 -2.2996
  320THF     C8 5295   4.734   1.472   0.532  0.1130 -0.0857 -0.1179
  320THF     C9 5296   4.825   1.591   0.572  0.0874 -0.9452  0.0631
  320THF    H10 5297   4.758   1.387   0.596  0.0491  0.5648  0.7847
  320THF    H11 5298   4.630   1.495   0.557  0.3642  0.2013  0.6914
  320THF    H12 5299   4.771   1.670   0.623  1.7338  0.4790 -0.3083
  320THF    H13 5300   4.907   1.561   0.638 -0.2770 -1.5827  0.2417
  321THF     O1 5301   4.549   3.362   1.939  0.2254  0.6389 -0.2467
  321THF     C2 5302   4.671   3.300   1.939 -0.3836  0.0170 -0.8005
  321THF     C3 5303   4.569   3.478   1.873 -0.1326 -0.5288  0.5686
  321THF     H4 5304   4.658   3.194   1.962 -0.6857  0.3623  0.7095
  321THF     H5 5305   4.754   3.337   2.000  0.8573 -0.7278 -1.9605
  321THF     H6 5306   4.470   3.504   1.835  1.1806  1.4649 -1.7531
  321THF     H7 5307   4.605   3.556   1.940  0.7036  1.7247 -2.3031
  321THF     C8 5308   4.674   3.455   1.758  0.1722  0.3910 -0.4516
  321THF     C9 5309   4.722   3.318   1.796 -0.0011 -0.0102  0.3247
  321THF    H10 5310   4.752   3.531   1.756 -0.1575  0.7323 -0.3597
  321THF    H11 5311   4.627   3.453   1.660  0.9642 -0.6133 -0.8411
  321THF    H12 5312   4.688   3.238   1.731  2.8251 -0.5363 -0.6437
  321THF    H13 5313   4.831   3.307   1.797  0.2636  1.3811 -2.4689
  322THF     O1 5314   3.300   0.637   1.903  0.4718  0.2050 -0.3893
  322THF     C2 5315   3.221   0.615   1.791 -0.1207 -0.2673  0.3697
  322THF     C3 5316   3.311   0.517   1.977  0.2209 -0.0860  0.4992
  322THF     H4 5317   3.275   0.543   1.730  0.1719  1.2151 -1.1937
  322THF     H5 5318   3.200   0.703   1.730  0.0115  0.3372  1.1839
  322THF     H6 5319   3.370   0.441   1.927 -0.1593  0.8815 -1.4982
  322THF     H7 5320   3.333   0.513   2.084 -0.9647 -2.3176  0.7072
  322THF     C8 5321   3.165   0.483   1.968 -0.3900 -0.1868  0.1222
  322THF     C9 5322   3.097   0.566   1.861  0.0576 -1.2146  1.0049
  322THF    H10 5323   3.122   0.503   2.066  0.4366  1.7644  0.1295
  322THF    H11 5324   3.147   0.377   1.954 -2.4418  0.1534 -0.2256
  322THF    H12 5325   3.043   0.507   1.787  0.7086  0.0112 -0.4998
  322THF    H13 5326   3.033   0.647   1.895 -0.6587  0.0777 -2.8608
  323THF     O1 5327   5.039   1.161   3.210 -0.2017 -0.5367  0.0210
  323THF     C2 5328   5.116   1.217   3.320  0.2829  0.3064  0.2235
  323THF     C3 5329   5.055   1.022   3.227 -0.2378  0.6446  0.2397
  323THF     H4 5330   5.086   1.319   3.342  0.3234  0.3580  0.0438
  323THF     H5 5331   5.224   1.215   3.304  0.2118 -1.1476 -0.2249
  323THF     H6 5332   4.987   0.973   3.158 -1.1902  1.6318  0.4480
  323THF     H7 5333   5.155   0.986   3.203 -0.2096  1.2099 -0.4930
  323THF     C8 5334   5.021   0.999   3.375 -0.4458  0.6536  0.2073
  323THF     C9 5335   5.086   1.122   3.438 -0.3888  0.1942  0.4710
  323THF    H10 5336   5.061   0.902   3.404  1.4013  1.2001 -0.3330
  323THF    H11 5337   4.914   1.006   3.394 -0.3645 -0.0252  0.9562
  323THF    H12 5338   5.028   1.171   3.517  0.4496  0.6034  0.8510
  323THF    H13 5339   5.180   1.099   3.487 -0.0081  2.9518  1.2013
  324THF     O1 5340   4.348   4.207   4.183 -0.0055 -0.3851 -0.2208
  324THF     C2 5341   4.333   4.117   4.073 -0.3616  1.0046 -0.0929
  324THF     C3 5342   4.493   4.231   4.189  0.0951  1.1073  0.2366
  324THF     H4 5343   4.347   4.168   3.977  3.1466  0.6629  0.0947
  324THF     H5 5344   4.237   4.067   4.086  0.2141 -0.6561 -1.7180
  324THF     H6 5345   4.546   4.264   4.099  3.5884  0.1871  1.8014
  324THF     H7 5346   4.529   4.292   4.271  0.2186 -0.9775  1.8044
  324THF     C8 5347   4.533   4.085   4.201 -0.5370  0.6170  0.5031
  324THF     C9 5348   4.444   4.008   4.098 -0.5346 -0.3805  0.2264
  324THF    H10 5349   4.507   4.059   4.304 -1.3884 -1.7730 -0.2436
  324THF    H11 5350   4.638   4.065   4.182 -1.4381 -2.9674 -1.6127
  324THF    H12 5351   4.499   3.981   4.008 -0.3754  2.1861 -0.5183
  324THF    H13 5352   4.409   3.915   4.143  0.7390 -0.5837  0.8435
  325THF     O1 5353   2.610   3.779   5.333 -0.0413  0.4814 -0.3027
  325THF     C2 5354   2.499   3.765   5.252  0.2799  0.6124  0.4997
  325THF     C3 5355   2.730   3.786   5.259  0.2662  0.7880  0.1726
  325THF     H4 5356   2.456   3.860   5.219 -0.1656  0.7662  1.4847
  325THF     H5 5357   2.421   3.712   5.307 -0.3296 -1.7149 -2.3606
  325THF     H6 5358   2.728   3.887   5.216  0.4951  0.7559  0.0818
  325THF     H7 5359   2.816   3.762   5.321 -0.6210  3.2160  2.5273
  325THF     C8 5360   2.703   3.682   5.155  0.6834  0.0888 -0.1506
  325THF     C9 5361   2.552   3.684   5.128  0.2758 -0.1388  0.3536
  325THF    H10 5362   2.731   3.582   5.190 -0.9739 -0.9223 -1.5128
  325THF    H11 5363   2.761   3.702   5.064  0.5217  0.3559 -0.1951
  325THF    H12 5364   2.532   3.739   5.036 -1.0843  0.1579  0.8067
  325THF    H13 5365   2.518   3.582   5.114 -0.8852  0.4767 -1.6915
  326THF     O1 5366   1.753   2.474   1.975 -0.8109  0.0806 -0.4174
  326THF     C2 5367   1.671   2.382   1.908 -0.0432  0.7368 -0.3378
  326THF     C3 5368   1.702   2.524   2.094 -0.1035 -0.1073 -1.1745
  326THF     H4 5369   1.681   2.283   1.953 -0.5836  1.4611  1.4591
  326THF     H5 5370   1.689   2.360   1.803 -2.1238 -0.0033 -0.5918
  326THF     H6 5371   1.728   2.453   2.173  0.6344 -1.1583 -2.3245
  326THF     H7 5372   1.740   2.621   2.128  1.4977 -0.1739 -2.6394
  326THF     C8 5373   1.555   2.526   2.059  0.1017 -0.4207  0.6422
  326THF     C9 5374   1.534   2.440   1.927  0.3627  0.3887 -0.3128
  326THF    H10 5375   1.507   2.619   2.026  0.4411 -0.5004 -0.0832
  326THF    H11 5376   1.483   2.498   2.137 -0.9675  0.2760 -0.0590
  326THF    H12 5377   1.463   2.361   1.949  1.8956 -0.9232  0.1643
  326THF    H13 5378   1.499   2.504   1.846  0.5700  1.3924  0.3764
  327THF     O1 5379   0.868   1.962   2.679 -0.2996  0.4081  0.3219
  327THF     C2 5380   0.935   2.005   2.788 -0.0675  0.2887 -0.6110
  327THF     C3 5381   0.863   2.061   2.585 -0.0907 -0.2437 -0.5258
  327THF     H4 5382   0.968   1.916   2.843 -2.0304 -0.0921  0.0390
  327THF     H5 5383   0.864   2.059   2.850 -0.6131  0.6866 -1.5519
  327THF     H6 5384   0.826   2.018   2.492  0.0695 -2.6291  0.4513
  327THF     H7 5385   0.795   2.142   2.611  1.9220  0.7605  2.0584
  327THF     C8 5386   1.008   2.125   2.597  0.1928  0.5121  0.4427
  327THF     C9 5387   1.047   2.100   2.736 -0.4880  0.0451  0.0560
  327THF    H10 5388   1.011   2.230   2.568 -4.5341  0.5336 -0.7885
  327THF    H11 5389   1.071   2.071   2.526 -0.5560 -0.3965  0.4591
  327THF    H12 5390   1.138   2.042   2.742 -1.1621 -0.9582  0.9801
  327THF    H13 5391   1.037   2.192   2.794 -0.8023  0.1034 -0.0906
  328THF     O1 5392   1.335   4.879   5.398 -0.2150 -0.2314 -0.5177
  328THF     C2 5393   1.239   4.800   5.468  0.6884 -0.2508  0.0614
  328THF     C3 5394   1.264   4.973   5.312  0.1165 -0.4289  0.5151
  328THF     H4 5395   1.285   4.756   5.557  2.1913 -1.1623 -1.1136
  328THF     H5 5396   1.204   4.715   5.410  1.1539  1.0630 -2.2817
  328THF     H6 5397   1.324   5.058   5.279  0.6221 -0.4542  1.3329
  328THF     H7 5398   1.227   4.922   5.223  2.4180 -0.0824 -0.7305
  328THF     C8 5399   1.135   5.001   5.394  0.3070 -0.1119 -0.2587
  328THF     C9 5400   1.128   4.899   5.505  0.3151 -0.3956 -0.0668
  328THF    H10 5401   1.044   4.998   5.335 -0.5438 -0.5750  1.0335
  328THF    H11 5402   1.145   5.101   5.437 -1.0706  0.2098 -0.6455
  328THF    H12 5403   1.158   4.952   5.596 -2.5528  0.1386  0.6774
  328THF    H13 5404   1.027   4.857   5.510 -0.4963  0.7404 -3.6107
  329THF     O1 5405   2.430   4.418   4.256 -0.2007  0.2643 -0.0233
  329THF     C2 5406   2.542   4.341   4.300 -0.4824 -0.0272  0.1420
  329THF     C3 5407   2.369   4.467   4.371 -0.2190 -0.2997 -0.0986
  329THF     H4 5408   2.636   4.387   4.270 -0.3258 -1.5239 -1.7804
  329THF     H5 5409   2.548   4.247   4.246  1.6276  0.2109 -0.1140
  329THF     H6 5410   2.427   4.556   4.396  0.2711 -0.8080  0.6362
  329THF     H7 5411   2.267   4.503   4.361 -0.1124  0.0164 -0.0700
  329THF     C8 5412   2.381   4.360   4.475 -0.9418 -0.3852 -0.3436
  329THF     C9 5413   2.523   4.302   4.450  0.0753  0.1196  1.1560
  329THF    H10 5414   2.312   4.276   4.473 -0.3061 -0.9335  0.3190
  329THF    H11 5415   2.369   4.399   4.576  0.1174 -0.4530 -0.1864
  329THF    H12 5416   2.600   4.365   4.494  0.5476 -0.9053  1.8268
  329THF    H13 5417   2.535   4.200   4.485 -1.3876 -0.0048  1.3406
  330THF     O1 5418   4.551   3.807   5.434 -0.2892 -0.0757 -0.5175
  330THF     C2 5419   4.482   3.696   5.486 -0.6178 -0.4060  0.1731
  330THF     C3 5420   4.554   3.915   5.524  0.0912  0.3223 -0.8786
  330THF     H4 5421   4.538   3.604   5.467 -0.5335 -0.2209 -0.5201
  330THF     H5 5422   4.390   3.685   5.430  0.1930 -2.1656 -0.8819
  330THF     H6 5423   4.653   3.918   5.571 -0.6022 -2.3020  0.9726
  330THF     H7 5424   4.539   4.008   5.470 -0.1334 -0.1531 -1.6416
  330THF     C8 5425   4.443   3.880   5.624  0.6132 -0.6895 -0.1023
  330THF     C9 5426   4.462   3.734   5.629 -0.6012 -0.5330  0.3715
  330THF    H10 5427   4.342   3.908   5.595  0.0554 -0.1614  2.1240
  330THF    H11 5428   4.456   3.935   5.718  0.4289  0.3558 -0.6731
  330THF    H12 5429   4.555   3.717   5.683  0.3850  2.0325 -0.3685
  330THF    H13 5430   4.385   3.679   5.683  0.2765  0.1334  2.4071
  331THF     O1 5431   3.657   5.426   1.402  0.5709  0.0906 -0.6394
  331THF     C2 5432   3.575   5.310   1.378  0.0555 -0.0689 -0.0778
  331THF     C3 5433   3.688   5.482   1.277  0.1052 -0.3731 -0.3129
  331THF     H4 5434   3.470   5.339   1.375  0.1312  0.1115 -1.4608
  331THF     H5 5435   3.594   5.247   1.465 -0.4813 -0.0466  0.0554
  331THF     H6 5436   3.621   5.568   1.264  0.5313  0.3159  1.7142
  331THF     H7 5437   3.791   5.518   1.277  0.9945 -2.7351 -0.0440
  331THF     C8 5438   3.668   5.380   1.164 -0.1072 -0.3327 -0.2021
  331THF     C9 5439   3.622   5.256   1.243  0.1647  0.1421  1.2839
  331THF    H10 5440   3.765   5.372   1.114 -1.1374  1.2098 -2.5970
  331THF    H11 5441   3.603   5.419   1.086 -1.5456 -2.7350 -0.3154
  331THF    H12 5442   3.532   5.205   1.206 -2.0369  2.0737  3.5899
  331THF    H13 5443   3.701   5.181   1.248  1.5636  0.9046 -3.8699
  332THF     O1 5444   0.033   0.716   1.294 -0.2720 -0.0571  0.0411
  332THF     C2 5445  -0.104   0.765   1.304 -0.0178 -0.3228  0.1655
  332THF     C3 5446   0.027   0.637   1.175 -0.6649 -0.0034 -0.4496
  332THF     H4 5447  -0.118   0.853   1.241 -1.6945 -0.7840 -0.1762
  332THF     H5 5448  -0.129   0.796   1.406 -1.8774 -0.4839 -0.2051
  332THF     H6 5449   0.025   0.705   1.091  0.3347  0.1650 -0.3591
  332THF     H7 5450   0.105   0.561   1.162 -0.7048  0.3281 -2.9501
  332THF     C8 5451  -0.110   0.572   1.176  0.5879  0.4902  0.4265
  332THF     C9 5452  -0.206   0.657   1.262 -0.6995  0.1420 -0.7651
  332THF    H10 5453  -0.099   0.470   1.213  0.1497  0.2333 -0.1377
  332THF    H11 5454  -0.145   0.571   1.073 -0.2207 -0.8676  0.6808
  332THF    H12 5455  -0.296   0.692   1.212 -1.0052 -0.2723 -0.5143
  332THF    H13 5456  -0.237   0.609   1.354  1.1228  0.9140  0.3064
  333THF     O1 5457   4.168   1.021   4.066  0.2482  0.5568  0.1872
  333THF     C2 5458   4.235   1.131   4.011  0.5499  0.0646 -0.0831
  333THF     C3 5459   4.266   0.960   4.157 -0.1024 -0.5675 -0.4704
  333THF     H4 5460   4.174   1.207   3.961 -2.1609 -1.1385  1.2013
  333THF     H5 5461   4.304   1.092   3.937 -0.7486 -2.5176 -0.0496
  333THF     H6 5462   4.220   0.898   4.233  1.1464 -0.5511  0.3217
  333THF     H7 5463   4.329   0.883   4.112 -0.0157 -0.3444 -0.7357
  333THF     C8 5464   4.335   1.080   4.226 -0.0150 -0.3746 -0.1033
  333THF     C9 5465   4.308   1.198   4.127 -0.0816  0.1089 -0.6302
  333THF    H10 5466   4.441   1.058   4.240 -0.1239 -1.0469 -0.2922
  333THF    H11 5467   4.287   1.105   4.321 -0.3928 -1.2560 -0.0532
  333THF    H12 5468   4.244   1.266   4.182  1.3079 -1.1925  2.8822
  333THF    H13 5469   4.401   1.242   4.088 -1.0777  0.3960 -2.8662
  334THF     O1 5470   2.430   4.614   0.909 -0.1860  0.3857  0.1963
  334THF     C2 5471   2.457   4.603   0.770 -0.8144  0.1686  0.6577
  334THF     C3 5472   2.531   4.681   0.977  0.0768 -0.3062  0.1702
  334THF     H4 5473   2.370   4.581   0.708 -0.7812 -1.4919  1.1548
  334THF     H5 5474   2.530   4.523   0.755 -0.7135  0.3069  0.3934
  334THF     H6 5475   2.496   4.721   1.072  0.5525  0.0104  0.2160
  334THF     H7 5476   2.613   4.615   1.006 -0.3957  0.0619  2.5813
  334THF     C8 5477   2.586   4.775   0.869  0.3121 -0.3249 -0.4333
  334THF     C9 5478   2.506   4.751   0.740  0.5960  0.7802 -0.4899
  334THF    H10 5479   2.689   4.742   0.853  0.2401 -1.6572  1.5117
  334THF    H11 5480   2.592   4.879   0.899 -0.8554 -0.6076  0.8946
  334THF    H12 5481   2.414   4.809   0.745 -0.3807 -0.7766  0.0027
  334THF    H13 5482   2.563   4.753   0.647  0.0176  2.3463 -0.8471
  335THF     O1 5483   1.675   4.407   2.851 -0.5067  0.0230 -0.5802
  335THF     C2 5484   1.715   4.311   2.756 -0.0126 -0.5153  0.5909
  335THF     C3 5485   1.785   4.483   2.895  1.1878 -0.0331 -0.4369
  335THF     H4 5486   1.635   4.313   2.681 -0.4741 -0.0600  1.0898
  335THF     H5 5487   1.730   4.211   2.798 -0.8587 -1.2932 -0.8766
  335THF     H6 5488   1.757   4.586   2.874 -1.5573 -0.3201  1.2766
  335THF     H7 5489   1.799   4.480   3.003 -2.0884  0.1454  0.0893
  335THF     C8 5490   1.904   4.434   2.814 -0.4460  1.1192  0.2059
  335THF     C9 5491   1.839   4.371   2.692  0.4498  0.0415  0.2175
  335THF    H10 5492   1.947   4.362   2.884 -1.6497  1.5203  1.3940
  335THF    H11 5493   1.988   4.499   2.793  0.5321  0.7344  2.5983
  335THF    H12 5494   1.820   4.459   2.630  0.0985  1.2856  2.0195
  335THF    H13 5495   1.904   4.296   2.647 -0.5772  0.1981 -1.6412
  336THF     O1 5496   4.905   2.846   2.752  0.7012  0.5812 -0.5139
  336THF     C2 5497   4.870   2.935   2.645  0.3301  0.0931  0.0958
  336THF     C3 5498   4.831   2.868   2.867  0.8640  0.4873 -0.2062
  336THF     H4 5499   4.861   2.886   2.548  2.4252 -0.1658 -0.0127
  336THF     H5 5500   4.952   3.006   2.631  0.6993  0.1891  2.3735
  336THF     H6 5501   4.765   2.783   2.888  0.8090  0.9310  1.5943
  336THF     H7 5502   4.896   2.857   2.954 -0.1754 -3.1497  0.2967
  336THF     C8 5503   4.753   2.997   2.851 -0.4586 -0.3371  0.2484
  336THF     C9 5504   4.755   3.020   2.701 -0.3890 -0.3064 -0.7110
  336THF    H10 5505   4.817   3.076   2.891 -0.6785  0.1162 -0.2848
  336THF    H11 5506   4.653   2.977   2.891 -1.1297 -2.7438 -2.3479
  336THF    H12 5507   4.658   2.991   2.661 -0.8464  1.9339 -1.3908
  336THF    H13 5508   4.766   3.127   2.682 -0.0408 -0.3182 -0.5889
  337THF     O1 5509   1.932   4.259   1.567 -0.2182  0.4324 -0.5288
  337THF     C2 5510   2.068   4.218   1.581  0.7328  0.6866  0.8332
  337THF     C3 5511   1.908   4.347   1.676  0.0065 -0.0050 -0.3990
  337THF     H4 5512   2.109   4.174   1.490  0.8693 -2.2558  2.2179
  337THF     H5 5513   2.072   4.137   1.653  0.5313 -1.4879 -1.4742
  337THF     H6 5514   1.819   4.403   1.647  0.4720 -0.1962 -2.3380
  337THF     H7 5515   1.916   4.284   1.765  0.1785 -1.1389 -1.1956
  337THF     C8 5516   2.030   4.438   1.669  0.1389  0.6714 -0.1310
  337THF     C9 5517   2.139   4.346   1.618 -0.1221  0.8466  0.1481
  337THF    H10 5518   2.052   4.483   1.766  0.1809 -1.5909  0.9667
  337THF    H11 5519   2.014   4.512   1.590  1.8831  1.1441 -0.0798
  337THF    H12 5520   2.182   4.393   1.530 -0.9355  0.2534 -0.5814
  337THF    H13 5521   2.203   4.341   1.706  0.2426  0.1906 -0.1571
  338THF     O1 5522   4.982   1.494   2.655  0.8023 -0.0279  0.4499
  338THF     C2 5523   5.011   1.508   2.799  0.0508 -0.5370 -0.2083
  338THF     C3 5524   4.861   1.416   2.638 -0.6204 -0.6305  0.2517
  338THF     H4 5525   4.992   1.611   2.831  1.8035 -0.0996 -0.4154
  338THF     H5 5526   5.113   1.484   2.831 -0.0623  0.3858  0.9047
  338THF     H6 5527   4.801   1.461   2.560 -0.9852  0.2190  0.9975
  338THF     H7 5528   4.890   1.318   2.600 -2.9573 -0.5722 -1.8872
  338THF     C8 5529   4.792   1.418   2.775 -0.4335 -0.4595  0.1517
  338THF     C9 5530   4.909   1.421   2.871 -0.8312  0.6967  0.0666
  338THF    H10 5531   4.737   1.324   2.780 -0.3246 -0.5977 -1.1022
  338THF    H11 5532   4.726   1.502   2.794  0.3710  0.3131 -0.3821
  338THF    H12 5533   4.889   1.453   2.973 -1.0831  3.4262 -0.7470
  338THF    H13 5534   4.944   1.318   2.878 -2.7505 -0.1927 -2.1792
  339THF     O1 5535   1.837   5.014   1.341  0.4551  0.5772 -0.2379
  339THF     C2 5536   1.851   4.876   1.381 -0.1023 -0.2585  0.7720
  339THF     C3 5537   1.700   5.044   1.337 -0.8352 -0.5056 -0.6195
  339THF     H4 5538   1.951   4.850   1.417  2.0425  2.0133 -2.9267
  339THF     H5 5539   1.828   4.812   1.295 -2.7786 -2.0080  2.6404
  339THF     H6 5540   1.695   5.152   1.354 -0.7740  0.0497 -3.4888
  339THF     H7 5541   1.669   5.017   1.236  0.4170  0.3535 -1.2642
  339THF     C8 5542   1.634   4.955   1.438  0.5721 -0.3827 -0.2105
  339THF     C9 5543   1.743   4.868   1.487  0.1501  0.2560 -0.4799
  339THF    H10 5544   1.551   4.897   1.397  1.2098 -0.2581 -1.7684
  339THF    H11 5545   1.593   5.008   1.523  2.4460  0.5377  0.1673
  339THF    H12 5546   1.778   4.909   1.582  0.9761 -1.6327  0.0704
  339THF    H13 5547   1.704   4.768   1.501  0.2612  0.0884 -1.3147
  340THF     O1 5548   2.650   5.374   0.939  0.1232  0.1631 -0.0027
  340THF     C2 5549   2.708   5.433   1.053 -0.2176 -0.3073  0.8007
  340THF     C3 5550   2.723   5.257   0.904  0.1878  0.3352 -0.0285
  340THF     H4 5551   2.659   5.413   1.148 -0.3623 -1.9208  0.4232
  340THF     H5 5552   2.715   5.540   1.032  0.8889 -0.5611 -0.2400
  340THF     H6 5553   2.688   5.180   0.973 -2.0902  1.9882  0.7379
  340THF     H7 5554   2.729   5.227   0.799  0.7544  0.9762 -0.1902
  340THF     C8 5555   2.859   5.301   0.941  0.1407  0.1720 -0.4602
  340THF     C9 5556   2.846   5.372   1.071 -0.1562 -0.3301  0.2547
  340THF    H10 5557   2.879   5.375   0.863 -1.4651 -0.0634 -1.1400
  340THF    H11 5558   2.940   5.229   0.940 -0.4956 -0.7407  2.8412
  340THF    H12 5559   2.844   5.294   1.148  2.2331 -0.8382 -0.1040
  340THF    H13 5560   2.929   5.437   1.099  0.0909 -0.7954  0.6319
  341THF     O1 5561   4.785   3.629   2.472 -0.4648 -0.4008 -0.1961
  341THF     C2 5562   4.644   3.658   2.490  0.0968 -0.5604  0.0200
  341THF     C3 5563   4.786   3.501   2.401 -0.2923  0.0579  0.6028
  341THF     H4 5564   4.634   3.766   2.490  4.1161  0.0447  2.3351
  341THF     H5 5565   4.602   3.626   2.586 -1.0943 -0.1980 -0.3664
  341THF     H6 5566   4.878   3.481   2.346 -0.4777  2.1181 -0.5473
  341THF     H7 5567   4.769   3.419   2.470  1.7795 -1.8274 -0.9846
  341THF     C8 5568   4.668   3.515   2.291 -0.5073  0.7410 -0.4016
  341THF     C9 5569   4.566   3.577   2.388  0.3608 -0.2175  0.0915
  341THF    H10 5570   4.620   3.420   2.265  0.2015  0.0561  0.6750
  341THF    H11 5571   4.693   3.592   2.219  1.0728  3.2817  2.5812
  341THF    H12 5572   4.492   3.633   2.330  1.2103 -1.0214 -1.8569
  341THF    H13 5573   4.508   3.502   2.442  0.5995 -0.1921  0.3832
  342THF     O1 5574   1.393   1.219   1.682  0.4516  0.4854  0.2323
  342THF     C2 5575   1.370   1.101   1.605  0.7611  0.2999  0.6118
  342THF     C3 5576   1.283   1.312   1.646 -0.4729  0.5364 -0.3786
  342THF     H4 5577   1.431   1.015   1.631  0.8641  0.1906  0.0277
  342THF     H5 5578   1.397   1.122   1.502 -1.5407 -0.5708 -0.2492
  342THF     H6 5579   1.278   1.389   1.723  0.2099 -1.5072  1.8290
  342THF     H7 5580   1.305   1.360   1.551 -0.6224  1.1088 -0.1265
  342THF     C8 5581   1.164   1.213   1.648 -0.0782 -0.4820 -0.2751
  342THF     C9 5582   1.222   1.077   1.613  0.1380 -0.3590  0.2000
  342THF    H10 5583   1.098   1.249   1.569  0.6711  2.7900  0.4346
  342THF    H11 5584   1.108   1.207   1.741  0.8488 -1.4367  0.2463
  342THF    H12 5585   1.204   0.996   1.684 -0.7890 -1.5489 -1.3084
  342THF    H13 5586   1.181   1.042   1.518  1.6355 -1.4972 -0.0688
  343THF     O1 5587   3.155   2.594   3.379 -0.1234 -0.3123  0.1731
  343THF     C2 5588   3.134   2.558   3.239  0.2208  0.7773  0.4699
  343THF     C3 5589   3.033   2.602   3.451 -0.4150 -0.7125 -0.1668
  343THF     H4 5590   3.209   2.492   3.196 -1.0576 -1.5651  1.6227
  343THF     H5 5591   3.125   2.644   3.172 -1.8343  0.3071  0.0522
  343THF     H6 5592   3.020   2.527   3.529 -0.5733  0.2114  0.7180
  343THF     H7 5593   3.032   2.700   3.500  1.0834  1.4883 -4.1180
  343THF     C8 5594   2.919   2.579   3.355 -0.1248  1.3213  1.5310
  343THF     C9 5595   2.992   2.496   3.247  0.4116 -0.5724  0.1695
  343THF    H10 5596   2.880   2.674   3.318 -3.0029  0.2818  1.5815
  343THF    H11 5597   2.835   2.522   3.395 -0.9105  0.9884 -0.4621
  343THF    H12 5598   2.973   2.390   3.265 -0.1387 -0.2317  1.8680
  343THF    H13 5599   2.943   2.507   3.150  2.1272  1.6641 -0.5236
  344THF     O1 5600   3.284   5.388   3.055  0.3336 -0.2694  0.0000
  344THF     C2 5601   3.277   5.441   2.928  1.1984 -0.5151 -0.1152
  344THF     C3 5602   3.227   5.262   3.037  0.1006  0.2091 -0.2025
  344THF     H4 5603   3.365   5.420   2.867  0.2947  0.0879 -1.6880
  344THF     H5 5604   3.277   5.548   2.948 -1.6700 -0.4171 -0.2183
  344THF     H6 5605   3.292   5.186   2.993 -1.8563 -1.3913 -0.4872
  344THF     H7 5606   3.199   5.219   3.133  0.9972 -1.4440 -0.6462
  344THF     C8 5607   3.099   5.288   2.955  0.3843  0.5324  0.5816
  344THF     C9 5608   3.145   5.399   2.862  0.6513 -0.3680 -0.6007
  344THF    H10 5609   3.020   5.330   3.017  0.4705  1.5802  0.0116
  344THF    H11 5610   3.071   5.196   2.904  2.3551 -0.5607  1.3731
  344THF    H12 5611   3.147   5.368   2.757 -0.0038 -3.9342  0.2924
  344THF    H13 5612   3.071   5.478   2.876  2.7073  1.7261 -1.0408
  345THF     O1 5613   0.779   2.817   3.670  0.5172 -0.5848  0.0908
  345THF     C2 5614   0.902   2.826   3.605 -0.5021 -0.0477  0.0307
  345THF     C3 5615   0.672   2.862   3.580 -0.4891  0.0685 -0.4426
  345THF     H4 5616   0.920   2.743   3.537 -1.8652  0.7126 -1.3137
  345THF     H5 5617   0.993   2.837   3.663  0.3524 -0.4643 -1.1928
  345THF     H6 5618   0.650   2.801   3.492 -0.8422  1.2010 -1.1585
  345THF     H7 5619   0.582   2.866   3.642  0.5887 -0.1562  1.2043
  345THF     C8 5620   0.734   2.991   3.538  0.0549 -0.4734  0.1851
  345THF     C9 5621   0.888   2.956   3.529  0.0002  0.1225  0.3845
  345THF    H10 5622   0.723   3.056   3.625  0.3337  0.5263 -0.5048
  345THF    H11 5623   0.699   3.047   3.452  2.1855  0.7897  0.0721
  345THF    H12 5624   0.908   2.948   3.422 -0.9088  0.9802  0.1282
  345THF    H13 5625   0.948   3.040   3.566 -1.3445  0.9108  0.8795
  346THF     O1 5626   1.191   1.269   0.760  0.3407 -0.1309  0.0916
  346THF     C2 5627   1.122   1.150   0.771  0.0143  1.0273  1.2317
  346THF     C3 5628   1.121   1.361   0.669 -0.4138 -0.8265  0.4710
  346THF     H4 5629   1.025   1.159   0.819 -0.4277  1.0793  0.3506
  346THF     H5 5630   1.190   1.080   0.820  0.1469  0.4884  0.2957
  346THF     H6 5631   1.039   1.419   0.713  0.3436 -0.5037  1.4768
  346THF     H7 5632   1.191   1.435   0.630 -0.4802 -1.6514 -1.2927
  346THF     C8 5633   1.061   1.264   0.565  0.7466 -0.6569 -0.0682
  346THF     C9 5634   1.098   1.127   0.624  0.4553 -0.5269 -0.0848
  346THF    H10 5635   1.085   1.270   0.459 -0.5347 -3.5807 -0.6073
  346THF    H11 5636   0.953   1.261   0.575  0.6559 -0.1979 -0.8364
  346THF    H12 5637   1.023   1.055   0.592  0.5742 -0.6111 -0.1744
  346THF    H13 5638   1.197   1.100   0.588  0.6042  1.9061 -1.7551
  347THF     O1 5639   4.620   5.161   4.430  0.5129 -0.0248  0.4567
  347THF     C2 5640   4.565   5.090   4.319  0.2023  0.0989  0.0542
  347THF     C3 5641   4.725   5.098   4.487 -0.1605  0.3799  0.8624
  347THF     H4 5642   4.599   5.134   4.225  2.7493 -3.5646 -0.9870
  347THF     H5 5643   4.456   5.093   4.315  0.1932  1.6728  0.8318
  347THF     H6 5644   4.818   5.114   4.432 -0.3749 -0.0572  0.3574
  347THF     H7 5645   4.733   5.128   4.591  0.8641  2.0046  0.3479
  347THF     C8 5646   4.689   4.954   4.463  0.7611 -0.0057 -0.7924
  347THF     C9 5647   4.629   4.955   4.327  0.4322 -0.4387 -1.0805
  347THF    H10 5648   4.620   4.905   4.532 -0.6565  2.7032 -0.1376
  347THF    H11 5649   4.779   4.893   4.474  1.0336  0.3900 -0.7859
  347THF    H12 5650   4.711   4.949   4.254  0.5224 -0.2306 -0.9978
  347THF    H13 5651   4.560   4.874   4.306  0.5625 -1.1231  0.9512
  348THF     O1 5652   0.770   3.860   1.506  0.3137 -0.1413  0.4913
  348THF     C2 5653   0.893   3.796   1.493  0.1367 -0.3839 -0.6884
  348THF     C3 5654   0.756   3.924   1.383 -0.3043  0.2196  0.4185
  348THF     H4 5655   0.897   3.694   1.454  1.0347 -0.2389 -0.9938
  348THF     H5 5656   0.935   3.787   1.593  0.4995 -0.3122 -0.8311
  348THF     H6 5657   0.724   3.844   1.316  1.1258 -0.4560  0.4989
  348THF     H7 5658   0.667   3.988   1.381 -0.5182  0.0931  2.8209
  348THF     C8 5659   0.883   3.996   1.353 -0.1912  0.1746 -0.3370
  348THF     C9 5660   0.980   3.896   1.403  0.0625 -0.4202 -1.0454
  348THF    H10 5661   0.877   4.091   1.406  0.0429  1.4655 -2.5043
  348THF    H11 5662   0.906   4.019   1.248  1.5779  1.9672  0.3685
  348THF    H12 5663   1.043   3.845   1.330  1.4354 -1.1677  0.5795
  348THF    H13 5664   1.056   3.958   1.452 -1.5038  1.2749 -0.6653
  349THF     O1 5665   5.234   2.644   2.202  0.0026  0.2531 -0.2027
  349THF     C2 5666   5.221   2.690   2.337 -0.6354 -0.2783 -0.1238
  349THF     C3 5667   5.119   2.706   2.126 -0.3009  0.3704  0.5256
  349THF     H4 5668   5.267   2.789   2.343 -1.9714  0.4963 -1.5747
  349THF     H5 5669   5.268   2.620   2.406 -0.5191 -0.3578 -0.2833
  349THF     H6 5670   5.140   2.812   2.111  1.1360  0.1079  0.6163
  349THF     H7 5671   5.116   2.661   2.028 -0.1108 -1.1308  1.1848
  349THF     C8 5672   5.005   2.680   2.229  0.1574 -0.2697  0.1649
  349THF     C9 5673   5.070   2.696   2.358 -0.4333 -0.5894 -0.2025
  349THF    H10 5674   4.956   2.583   2.224 -1.4279  0.4585  0.9268
  349THF    H11 5675   4.925   2.753   2.217 -1.6975 -2.4841 -1.8951
  349THF    H12 5676   5.037   2.792   2.400 -0.0959 -0.6529  0.2062
  349THF    H13 5677   5.038   2.611   2.418  0.3953 -0.1235  0.9121
  350THF     O1 5678   4.848   4.412   0.739  0.1756  0.4043  0.8896
  350THF     C2 5679   4.844   4.521   0.643  0.3814  0.0358 -0.1028
  350THF     C3 5680   4.917   4.300   0.688 -0.0388  0.6059  0.4255
  350THF     H4 5681   4.859   4.616   0.695  3.0598  0.1788 -0.9680
  350THF     H5 5682   4.747   4.521   0.594  0.7342 -1.6497 -0.8781
  350THF     H6 5683   4.950   4.239   0.772  2.4349  0.6481 -0.4481
  350THF     H7 5684   4.852   4.236   0.628  1.1993 -1.4385  1.1765
  350THF     C8 5685   5.026   4.366   0.598  0.6394  0.1211 -0.2356
  350THF     C9 5686   4.946   4.483   0.532 -0.1595 -1.0512 -0.0573
  350THF    H10 5687   5.064   4.294   0.526  1.4084 -1.3247  1.5405
  350THF    H11 5688   5.110   4.394   0.662  1.5197 -1.5853 -0.5916
  350THF    H12 5689   5.009   4.569   0.506 -1.5149  0.7137  2.1010
  350THF    H13 5690   4.894   4.451   0.441  0.4560 -0.7417 -0.5300
  351THF     O1 5691   0.958   0.040   4.140 -0.4562 -0.3026  0.4420
  351THF     C2 5692   0.890  -0.037   4.044 -0.1490  0.9031 -0.4961
  351THF     C3 5693   1.104   0.025   4.127  0.9153  0.2617  0.2690
  351THF     H4 5694   0.811   0.019   3.995 -0.8599 -0.2878 -0.7648
  351THF     H5 5695   0.852  -0.127   4.093  1.9570  0.7697  1.0391
  351THF     H6 5696   1.150   0.120   4.155 -2.0614  2.5414 -1.9428
  351THF     H7 5697   1.149  -0.054   4.187  1.5353  0.4329  0.0361
  351THF     C8 5698   1.120  -0.007   3.984 -0.7816  0.3568 -0.0774
  351THF     C9 5699   0.993  -0.077   3.937 -0.9607 -0.0168  0.4042
  351THF    H10 5700   1.211  -0.067   3.980 -1.3016 -0.8767  3.1634
  351THF    H11 5701   1.142   0.077   3.918 -0.5851 -0.0015 -0.4754
  351THF    H12 5702   0.960  -0.044   3.839 -0.5513  0.5538  0.4523
  351THF    H13 5703   1.007  -0.185   3.934 -1.0435 -0.1309  2.3667
  352THF     O1 5704   0.150   5.015   3.262  0.3004 -0.1674  0.5104
  352THF     C2 5705   0.079   4.984   3.384 -0.0923 -0.4406 -0.4057
  352THF     C3 5706   0.190   4.895   3.208 -0.3130 -0.7983 -0.3641
  352THF     H4 5707   0.021   5.074   3.402 -0.0254 -0.4806  0.0194
  352THF     H5 5708   0.159   4.964   3.456 -1.2536 -0.5035  0.9071
  352THF     H6 5709   0.228   4.923   3.110 -1.4626  2.0181 -0.0875
  352THF     H7 5710   0.277   4.859   3.264  1.7884  2.7517 -1.0468
  352THF     C8 5711   0.069   4.806   3.205  0.4969 -0.6088  0.2810
  352THF     C9 5712   0.012   4.845   3.343 -0.1405 -0.5253 -0.8677
  352THF    H10 5713   0.097   4.700   3.197  0.1156 -0.6913 -0.0236
  352THF    H11 5714   0.008   4.853   3.128  0.5085  1.6870  1.6063
  352THF    H12 5715  -0.097   4.852   3.340 -0.1590 -0.8365 -1.0145
  352THF    H13 5716   0.042   4.770   3.417  0.8125  1.6620  1.0784
  353THF     O1 5717   2.678   0.288   4.990 -0.6351  0.4738 -0.7061
  353THF     C2 5718   2.622   0.165   4.965  0.0020  0.0618 -0.1288
  353THF     C3 5719   2.752   0.327   4.870  0.4580  1.1181 -0.0301
  353THF     H4 5720   2.517   0.167   4.994 -0.2253 -0.9024 -0.8437
  353THF     H5 5721   2.671   0.090   5.027 -0.3300  0.9360  1.2439
  353THF     H6 5722   2.777   0.431   4.850  0.5723  0.5799 -3.3294
  353THF     H7 5723   2.843   0.269   4.886 -0.5459 -0.1795  1.3337
  353THF     C8 5724   2.669   0.278   4.755  0.5120 -0.1875  0.1856
  353THF     C9 5725   2.640   0.135   4.815  0.6923 -0.0398 -0.7478
  353THF    H10 5726   2.711   0.275   4.655  0.8851 -0.0026  0.3328
  353THF    H11 5727   2.580   0.340   4.744  0.8297  0.3377  0.5285
  353THF    H12 5728   2.549   0.098   4.767 -0.1338 -0.3925  1.0253
  353THF    H13 5729   2.722   0.067   4.793 -0.0451 -1.8817  1.7660
  354THF     O1 5730   1.961   3.331   4.729  0.7631 -0.6161  0.3707
  354THF     C2 5731   2.000   3.198   4.760  0.8287  0.3275  0.0763
  354THF     C3 5732   1.826   3.347   4.771  0.4942 -0.6586  0.2509
  354THF     H4 5733   2.107   3.187   4.776  0.8576  0.9705  0.3547
  354THF     H5 5734   1.967   3.143   4.672 -0.4640 -1.3701  1.5550
  354THF     H6 5735   1.811   3.454   4.789 -1.0230 -0.8484  0.2584
  354THF     H7 5736   1.756   3.300   4.702 -0.6450 -1.8932  2.1482
  354THF     C8 5737   1.815   3.277   4.903 -0.2566 -0.3303 -0.2699
  354THF     C9 5738   1.921   3.165   4.889  0.5285 -0.1920  0.3551
  354THF    H10 5739   1.711   3.248   4.922 -0.3702 -0.8834 -1.6428
  354THF    H11 5740   1.830   3.343   4.988  0.1066  0.1836 -0.7268
  354THF    H12 5741   1.975   3.141   4.981  0.1846 -0.2427  0.5448
  354THF    H13 5742   1.873   3.068   4.872  1.7891 -0.7262 -0.3305
  355THF     O1 5743   4.709   3.596   3.436 -0.6220 -0.8836  0.0433
  355THF     C2 5744   4.618   3.647   3.334 -0.0976 -0.4552  0.2828
  355THF     C3 5745   4.652   3.478   3.492 -0.4456 -0.5103 -0.1123
  355THF     H4 5746   4.649   3.624   3.232  1.0663 -0.7990  0.6988
  355THF     H5 5747   4.613   3.756   3.343 -1.5477 -0.3847 -1.0197
  355THF     H6 5748   4.723   3.396   3.491  0.2668  0.0935 -0.4892
  355THF     H7 5749   4.617   3.486   3.595  0.4300 -1.6318  0.2826
  355THF     C8 5750   4.525   3.451   3.415  0.2900  0.7636  0.1285
  355THF     C9 5751   4.484   3.580   3.357 -0.1723  0.4221 -0.3450
  355THF    H10 5752   4.446   3.417   3.483  0.5055 -0.9699 -0.4497
  355THF    H11 5753   4.541   3.377   3.337  0.4395 -0.1522  1.0013
  355THF    H12 5754   4.416   3.570   3.272  0.0315  1.5618 -0.6651
  355THF    H13 5755   4.426   3.634   3.432  1.4067  0.2017  1.0802
  356THF     O1 5756   0.306   1.977   1.560 -0.3565  0.1316 -0.2870
  356THF     C2 5757   0.362   1.978   1.423 -0.7676  0.3870 -0.6749
  356THF     C3 5758   0.192   2.056   1.553 -0.0834  0.1860 -0.6792
  356THF     H4 5759   0.419   1.889   1.397  1.3061  1.2706  0.5956
  356THF     H5 5760   0.431   2.062   1.418 -0.7739  0.3196 -4.4329
  356THF     H6 5761   0.128   2.041   1.639 -0.3531  2.7749 -0.3524
  356THF     H7 5762   0.205   2.164   1.551  0.8745  0.1468  1.0729
  356THF     C8 5763   0.130   2.006   1.422 -1.0248  0.4318  0.4039
  356THF     C9 5764   0.246   2.003   1.326  0.0081 -0.0108 -0.4269
  356THF    H10 5765   0.055   2.070   1.376  0.6640  1.4540 -1.0663
  356THF    H11 5766   0.093   1.905   1.440  1.2129 -0.5299 -0.0693
  356THF    H12 5767   0.238   1.927   1.248  2.4748  0.5342 -1.3245
  356THF    H13 5768   0.252   2.104   1.285  2.0683  0.6103  1.2087
  357THF     O1 5769   2.175   1.294   1.537 -0.0897 -0.1785  0.0768
  357THF     C2 5770   2.200   1.173   1.468 -0.1866 -0.0048  0.2354
  357THF     C3 5771   2.203   1.262   1.676  0.5098 -0.2608  0.5429
  357THF     H4 5772   2.240   1.200   1.370 -1.5251  0.6048 -0.1583
  357THF     H5 5773   2.117   1.103   1.472  0.7088 -1.0492  2.2451
  357THF     H6 5774   2.249   1.341   1.736  0.4550  0.1229  0.0871
  357THF     H7 5775   2.110   1.230   1.724  0.1749  0.1471  0.1746
  357THF     C8 5776   2.292   1.141   1.687  1.0761 -0.2444 -0.4492
  357THF     C9 5777   2.306   1.106   1.550  0.5016 -0.0744 -0.2272
  357THF    H10 5778   2.244   1.072   1.755  2.3481  0.0893  0.8246
  357THF    H11 5779   2.390   1.154   1.732  0.9184 -0.2581 -0.0974
  357THF    H12 5780   2.410   1.123   1.524  0.5003 -1.6573 -1.4718
  357THF    H13 5781   2.284   1.000   1.539 -2.5053  0.4655 -0.4342
  358THF     O1 5782   4.974   0.462   2.988 -0.1800 -0.1624  0.2993
  358THF     C2 5783   4.883   0.554   2.923 -0.7720  0.2549 -0.2817
  358THF     C3 5784   5.030   0.525   3.101  0.0898  0.6739  0.0431
  358THF     H4 5785   4.811   0.499   2.863  1.0467  0.5492 -2.8562
  358THF     H5 5786   4.929   0.624   2.854 -0.2686  0.3797  0.1703
  358THF     H6 5787   5.047   0.440   3.167  0.9955  0.6438 -0.2122
  358THF     H7 5788   5.128   0.564   3.072  0.1853  1.4209  1.2919
  358THF     C8 5789   4.923   0.617   3.149  0.3337  0.1433 -0.4422
  358THF     C9 5790   4.813   0.623   3.037 -0.1930 -0.4443 -0.7066
  358THF    H10 5791   4.979   0.709   3.167  0.6900 -0.5618  2.5411
  358THF    H11 5792   4.875   0.569   3.234  1.0468  1.1434  0.5488
  358THF    H12 5793   4.723   0.568   3.064 -0.2366 -0.0520 -0.0263
  358THF    H13 5794   4.800   0.725   3.004  2.1832 -0.6520 -2.5761
  359THF     O1 5795   1.930   4.731   4.809 -0.0435 -0.0651  0.4477
  359THF     C2 5796   2.060   4.765   4.850 -0.1236  0.3293  0.6004
  359THF     C3 5797   1.899   4.599   4.857  0.4706  0.4042 -0.8906
  359THF     H4 5798   2.048   4.811   4.949 -3.7315 -2.0333  1.4373
  359THF     H5 5799   2.108   4.839   4.786 -1.4221  0.1688 -0.5855
  359THF     H6 5800   1.852   4.608   4.955  0.9063  0.6543 -0.6978
  359THF     H7 5801   1.826   4.541   4.802  0.9856 -1.8001  0.5996
  359THF     C8 5802   2.031   4.526   4.873  0.0362  0.4124  0.6232
  359THF     C9 5803   2.138   4.638   4.860  0.8234 -0.2667  0.2794
  359THF    H10 5804   2.052   4.442   4.807  2.9761 -0.0492  1.9465
  359THF    H11 5805   2.044   4.501   4.979  0.6264 -2.2541 -0.0027
  359THF    H12 5806   2.216   4.640   4.935  1.2081  0.1175 -0.1217
  359THF    H13 5807   2.198   4.631   4.769  0.3804  2.3400 -0.2972
  360THF     O1 5808   3.443   0.099   2.185  0.6377  0.0332 -0.3610
  360THF     C2 5809   3.517   0.146   2.075 -0.0659  0.6657 -0.2410
  360THF     C3 5810   3.543   0.065   2.281 -0.2785 -0.3687  0.3552
  360THF     H4 5811   3.457   0.207   2.007 -2.6528 -0.7271  0.6676
  360THF     H5 5812   3.550   0.058   2.020 -0.0853 -0.1224  0.9829
  360THF     H6 5813   3.498   0.088   2.378  1.3864  0.8274  0.8941
  360THF     H7 5814   3.574  -0.038   2.266  0.6256 -0.2037  1.0192
  360THF     C8 5815   3.660   0.161   2.262  0.5266 -0.9033  0.3233
  360THF     C9 5816   3.644   0.218   2.129 -0.4581 -0.0129  0.1413
  360THF    H10 5817   3.754   0.108   2.280 -0.6483 -2.3254  2.8959
  360THF    H11 5818   3.657   0.240   2.337 -2.3650 -0.7614  0.1629
  360THF    H12 5819   3.616   0.323   2.136 -4.0607 -0.6296 -1.9518
  360THF    H13 5820   3.729   0.209   2.062 -1.0607 -1.5203 -0.4695
  361THF     O1 5821   2.793   3.080   2.902 -0.1012  0.5511 -0.1175
  361THF     C2 5822   2.693   3.180   2.928 -0.3526 -0.7266 -0.9835
  361THF     C3 5823   2.920   3.115   2.959 -0.4350 -0.6765 -0.1156
  361THF     H4 5824   2.608   3.128   2.973 -0.4113 -0.1574 -0.4352
  361THF     H5 5825   2.669   3.228   2.833 -0.2144  1.5463  0.0874
  361THF     H6 5826   2.949   3.057   3.046  1.2183  1.5586  0.9164
  361THF     H7 5827   2.993   3.093   2.881 -0.2941  0.6840 -0.3927
  361THF     C8 5828   2.909   3.267   2.993  0.1229 -0.3165  0.3197
  361THF     C9 5829   2.760   3.285   3.026  0.0313  0.6174 -0.6021
  361THF    H10 5830   2.936   3.333   2.911  0.7630  0.2189  0.9476
  361THF    H11 5831   2.973   3.278   3.081 -0.1898 -2.7252  0.9228
  361THF    H12 5832   2.734   3.252   3.127  0.9478 -0.9064 -0.8249
  361THF    H13 5833   2.712   3.382   3.018 -2.7747 -0.6780 -0.9651
  362THF     O1 5834   3.882   1.649   3.830  0.0733  0.2457  0.1874
  362THF     C2 5835   3.983   1.550   3.820 -0.1792  0.8937 -1.0135
  362THF     C3 5836   3.926   1.745   3.922  0.2685  0.3129 -0.1811
  362THF     H4 5837   4.043   1.550   3.729  1.7250  1.0410  0.1912
  362THF     H5 5838   3.933   1.454   3.807 -2.8479  1.9560  0.6530
  362THF     H6 5839   3.959   1.825   3.856  0.6991 -0.0722 -0.4357
  362THF     H7 5840   3.856   1.799   3.987  0.0168  0.1939 -0.3526
  362THF     C8 5841   4.059   1.696   3.983  0.9888 -0.0350  0.2387
  362THF     C9 5842   4.058   1.550   3.955  0.3161  0.1986 -0.6080
  362THF    H10 5843   4.050   1.728   4.087  0.2784 -0.3018  0.2681
  362THF    H11 5844   4.151   1.740   3.944  0.5390 -1.1544 -2.2840
  362THF    H12 5845   4.154   1.499   3.946 -0.2003 -0.5596 -2.3644
  362THF    H13 5846   3.999   1.495   4.027 -1.3032  0.3955 -1.7379
  363THF     O1 5847   4.677   4.091   1.708  0.4914 -0.2239  0.0799
  363THF     C2 5848   4.603   3.984   1.755  0.1628  0.0333  0.2456
  363THF     C3 5849   4.814   4.051   1.711 -0.6313 -0.5731  0.1130
  363THF     H4 5850   4.603   3.910   1.675 -1.8021  0.7927 -0.5100
  363THF     H5 5851   4.500   4.005   1.783  0.2498  2.2157 -0.9253
  363THF     H6 5852   4.829   3.998   1.617  0.7304  0.0723 -0.0542
  363THF     H7 5853   4.882   4.135   1.721  0.3633 -1.4054  0.5469
  363THF     C8 5854   4.829   3.969   1.840  0.9615  0.0895 -0.1654
  363THF     C9 5855   4.683   3.939   1.880  0.1174 -0.4726  0.0647
  363THF    H10 5856   4.867   4.028   1.924  0.9832 -0.7640  0.4307
  363THF    H11 5857   4.892   3.886   1.811  0.1491 -0.1854 -1.2342
  363THF    H12 5858   4.658   3.840   1.918  0.7081  0.0219  1.8686
  363THF    H13 5859   4.651   4.001   1.964  2.2715 -1.5596  1.7966
  364THF     O1 5860   5.152   5.189   3.229 -0.2423 -0.8383 -0.5416
  364THF     C2 5861   5.033   5.273   3.256 -0.3232 -0.0416  0.3990
  364THF     C3 5862   5.112   5.065   3.165  0.0227 -0.3902  0.2538
  364THF     H4 5863   5.026   5.355   3.185 -0.1391  1.0651  1.6293
  364THF     H5 5864   5.040   5.327   3.350  0.4688  2.7149 -1.1190
  364THF     H6 5865   5.116   5.081   3.057 -0.8918 -3.8866 -0.4338
  364THF     H7 5866   5.189   4.988   3.166  1.1901  0.7083  2.5165
  364THF     C8 5867   4.969   5.043   3.219  0.3309  0.7207  0.1590
  364THF     C9 5868   4.908   5.179   3.245  0.6672  0.4877  0.2058
  364THF    H10 5869   4.978   4.988   3.313  0.4312 -0.5252 -0.5552
  364THF    H11 5870   4.921   4.971   3.152  1.6078 -1.3611  1.3437
  364THF    H12 5871   4.843   5.203   3.161 -2.2477 -1.0979  1.8234
  364THF    H13 5872   4.840   5.178   3.331 -0.5400  0.0985 -0.7226
  365THF     O1 5873   3.849   2.479   0.553  0.5883 -0.4088  0.2269
  365THF     C2 5874   3.888   2.462   0.694  0.9787 -0.4180  0.9149
  365THF     C3 5875   3.793   2.361   0.502  0.5038  0.0459  0.5017
  365THF     H4 5876   3.881   2.558   0.745  0.4832  0.6876 -1.0887
  365THF     H5 5877   3.983   2.410   0.703  0.8690 -0.9765 -0.7804
  365THF     H6 5878   3.728   2.382   0.416  0.1582 -1.7801  0.2747
  365THF     H7 5879   3.875   2.294   0.477  2.0168  1.8095  0.5326
  365THF     C8 5880   3.704   2.317   0.622 -0.2892  0.6927  0.0561
  365THF     C9 5881   3.782   2.352   0.744  0.0546  0.5661  0.1835
  365THF    H10 5882   3.689   2.209   0.620  2.8344  0.1446  1.0554
  365THF    H11 5883   3.605   2.362   0.613 -0.7855 -0.6681 -2.1149
  365THF    H12 5884   3.721   2.394   0.823  1.3250 -0.2148  1.6319
  365THF    H13 5885   3.826   2.261   0.785 -3.2824 -1.4563 -0.3756
  366THF     O1 5886   1.360   2.763   0.173 -0.4870  0.8207  0.1179
  366THF     C2 5887   1.490   2.746   0.233 -0.0293 -0.2422  0.1781
  366THF     C3 5888   1.379   2.877   0.097  0.1138  0.3175 -0.1818
  366THF     H4 5889   1.557   2.714   0.153  3.1302  0.9233  2.1671
  366THF     H5 5890   1.492   2.680   0.320  0.1066  0.4545  0.7052
  366THF     H6 5891   1.448   2.861   0.014  1.0258 -0.0411  0.6214
  366THF     H7 5892   1.288   2.919   0.055 -1.1361 -0.6365  1.4871
  366THF     C8 5893   1.433   2.974   0.199 -1.0449  0.0936  0.2122
  366THF     C9 5894   1.528   2.884   0.287  0.2971  0.2636 -0.5138
  366THF    H10 5895   1.356   3.004   0.270 -2.7530  1.6014 -2.1474
  366THF    H11 5896   1.488   3.056   0.153 -0.3044 -1.3380 -1.5860
  366THF    H12 5897   1.635   2.903   0.274  0.5498 -0.8697 -0.2513
  366THF    H13 5898   1.508   2.891   0.394 -2.4599 -0.3663 -0.9199
  367THF     O1 5899   0.021   1.866   1.993 -0.8428  1.1244  0.0050
  367THF     C2 5900   0.031   2.002   1.990  0.6987  0.5246 -0.4530
  367THF     C3 5901  -0.009   1.822   1.866  0.3489 -0.0895  0.5905
  367THF     H4 5902   0.120   2.028   1.932  2.2436  2.1725  2.4702
  367THF     H5 5903   0.034   2.055   2.085 -0.1607 -1.2799  0.6212
  367THF     H6 5904   0.081   1.828   1.804  0.1680  0.3873  0.3654
  367THF     H7 5905  -0.045   1.719   1.869  0.8073 -0.3243 -1.1032
  367THF     C8 5906  -0.109   1.921   1.814 -0.4378 -0.5705 -0.0816
  367THF     C9 5907  -0.089   2.043   1.903  0.0644 -0.4004 -0.6544
  367THF    H10 5908  -0.213   1.891   1.827 -0.1807 -1.0052  1.1852
  367THF    H11 5909  -0.092   1.949   1.710  0.4514 -0.1259  0.1718
  367THF    H12 5910  -0.090   2.146   1.868 -1.3733 -1.0241 -2.6388
  367THF    H13 5911  -0.178   2.046   1.966  0.7050  0.4146  0.2255
  368THF     O1 5912   1.554   1.337   4.360 -0.2989  0.5853 -0.1292
  368THF     C2 5913   1.649   1.312   4.460 -0.6935  0.2000  0.2504
  368THF     C3 5914   1.453   1.425   4.404 -0.7529 -0.1124 -0.2637
  368THF     H4 5915   1.739   1.268   4.418 -0.3289  0.7489  0.4383
  368THF     H5 5916   1.610   1.251   4.542  0.7104 -1.5778 -0.3260
  368THF     H6 5917   1.388   1.462   4.325 -0.2917  0.1565 -0.5293
  368THF     H7 5918   1.384   1.368   4.465 -1.5289  1.8936  0.8221
  368THF     C8 5919   1.534   1.526   4.490 -0.0561 -0.2703  0.2147
  368THF     C9 5920   1.669   1.457   4.516  0.3878  0.0091 -0.8632
  368THF    H10 5921   1.484   1.556   4.583 -2.6188  1.3329 -1.5430
  368THF    H11 5922   1.554   1.616   4.432 -0.1793 -0.9105 -0.8449
  368THF    H12 5923   1.741   1.524   4.468 -0.9844  2.0976 -0.1214
  368THF    H13 5924   1.689   1.460   4.623  1.4410 -0.6746 -1.0271
  369THF     O1 5925   0.494   0.167   0.274 -0.5537  0.2141  0.2916
  369THF     C2 5926   0.474   0.062   0.182 -0.0502 -0.0923  0.1116
  369THF     C3 5927   0.631   0.157   0.303  0.0686 -0.0220 -0.7016
  369THF     H4 5928   0.524   0.089   0.089  1.3368  2.0258  1.3916
  369THF     H5 5929   0.368   0.048   0.161 -0.4753 -0.2289  2.1554
  369THF     H6 5930   0.692   0.190   0.218  1.4508 -0.7623 -0.0331
  369THF     H7 5931   0.653   0.215   0.392  0.1508  0.7305 -1.2028
  369THF     C8 5932   0.633   0.008   0.348 -0.5362 -0.4835  0.9597
  369THF     C9 5933   0.531  -0.059   0.255 -0.0671 -0.4987  0.2006
  369THF    H10 5934   0.615  -0.007   0.454  3.0891  0.9998  1.9423
  369THF    H11 5935   0.736  -0.022   0.331 -0.2171  1.6583 -1.5082
  369THF    H12 5936   0.566  -0.142   0.193  0.7131  0.7532 -1.0871
  369THF    H13 5937   0.454  -0.110   0.313 -0.8875 -1.1203 -1.3826
  370THF     O1 5938   4.269   0.483   0.642 -0.4859  0.0582 -0.2738
  370THF     C2 5939   4.285   0.508   0.781  0.0352  0.3177 -0.5971
  370THF     C3 5940   4.160   0.562   0.601  0.7449  0.9706 -0.6438
  370THF     H4 5941   4.373   0.455   0.818 -0.0360 -0.0375 -0.9311
  370THF     H5 5942   4.198   0.462   0.827 -0.2834  0.2692 -1.2441
  370THF     H6 5943   4.148   0.573   0.493 -0.2942 -1.6101 -0.8896
  370THF     H7 5944   4.064   0.516   0.627  1.8690 -2.4147 -1.8667
  370THF     C8 5945   4.194   0.693   0.663  0.6901 -0.0662  0.2533
  370THF     C9 5946   4.281   0.661   0.779  0.2951  0.1214 -0.3187
  370THF    H10 5947   4.096   0.733   0.692  0.2923 -2.1410  1.9802
  370THF    H11 5948   4.246   0.766   0.601 -2.6526  0.7418 -1.8973
  370THF    H12 5949   4.387   0.685   0.766  0.6716 -0.3096  1.7095
  370THF    H13 5950   4.237   0.712   0.864 -0.0318 -2.0528  0.8711
  371THF     O1 5951   0.995   4.323   2.506 -0.8312  0.2219  0.1104
  371THF     C2 5952   1.026   4.370   2.635  0.1063  0.2131 -0.7452
  371THF     C3 5953   0.969   4.448   2.432 -0.2299  0.3533 -0.2153
  371THF     H4 5954   1.124   4.417   2.645  0.9037 -1.5458  0.0865
  371THF     H5 5955   1.011   4.295   2.714 -0.0285 -0.0711 -1.0399
  371THF     H6 5956   1.055   4.513   2.419  0.2814 -0.2325  0.1318
  371THF     H7 5957   0.925   4.421   2.336 -0.0539  0.5085 -0.3395
  371THF     C8 5958   0.878   4.525   2.534 -0.2290 -0.0762  0.0519
  371THF     C9 5959   0.906   4.465   2.668  0.6742  0.0854 -0.6499
  371THF    H10 5960   0.774   4.526   2.503 -0.0893 -0.0610 -0.4159
  371THF    H11 5961   0.915   4.627   2.542  1.3555 -0.6459  0.4069
  371THF    H12 5962   0.920   4.540   2.746  0.0007  0.3372 -0.7596
  371THF    H13 5963   0.815   4.413   2.697 -0.2634  1.6881 -0.5897
  372THF     O1 5964   2.457   2.160   3.542  0.0171 -0.3088  0.0333
  372THF     C2 5965   2.537   2.112   3.651 -0.7204  0.0259  0.8871
  372THF     C3 5966   2.502   2.293   3.498  1.2058  0.5273  0.3583
  372THF     H4 5967   2.590   2.020   3.627 -0.7083 -0.3514  2.3141
  372THF     H5 5968   2.469   2.090   3.733 -1.1925 -0.4499  0.3716
  372THF     H6 5969   2.497   2.298   3.389 -1.6025  2.0616  0.4500
  372THF     H7 5970   2.445   2.370   3.549  0.3463  0.6509 -0.7395
  372THF     C8 5971   2.650   2.293   3.538  0.4331  0.4107 -0.3126
  372THF     C9 5972   2.640   2.220   3.670 -0.4400  0.4430  0.3497
  372THF    H10 5973   2.690   2.394   3.541  1.7118 -0.0633 -0.8657
  372THF    H11 5974   2.717   2.241   3.470  0.4221  2.5895 -2.0821
  372THF    H12 5975   2.735   2.170   3.688 -0.1092  0.0706 -2.1099
  372THF    H13 5976   2.608   2.287   3.750  1.7297 -0.1010  1.7527
  373THF     O1 5977   1.959   5.247   4.675 -0.0816  0.0937 -0.0650
  373THF     C2 5978   1.851   5.337   4.653 -0.0200 -0.2806  0.9025
  373THF     C3 5979   1.933   5.121   4.609 -0.4209 -0.1853 -0.3628
  373THF     H4 5980   1.858   5.362   4.548  1.0479 -2.5549  0.3696
  373THF     H5 5981   1.859   5.425   4.718 -0.5127 -0.9387  1.8848
  373THF     H6 5982   1.942   5.137   4.501  1.5081  2.7719  0.1265
  373THF     H7 5983   2.007   5.048   4.642  0.0549  1.1322  1.6849
  373THF     C8 5984   1.786   5.103   4.652 -0.0275 -0.7044  0.1831
  373THF     C9 5985   1.735   5.243   4.684  0.0322 -0.1848  0.1944
  373THF    H10 5986   1.786   5.030   4.733  1.3579 -0.5161  0.3888
  373THF    H11 5987   1.725   5.065   4.570 -1.0991  2.7037 -0.7632
  373THF    H12 5988   1.647   5.267   4.624 -0.1632 -0.7028  0.2660
  373THF    H13 5989   1.708   5.244   4.790  1.1212  2.2077  0.5011
  374THF     O1 5990   2.344   1.322   0.797 -0.4384  0.1938 -0.3961
  374THF     C2 5991   2.482   1.291   0.803  0.2133 -0.0857  0.7018
  374THF     C3 5992   2.296   1.356   0.927 -0.2130  0.1483  0.1615
  374THF     H4 5993   2.537   1.380   0.773 -2.6737  1.7257  0.3461
  374THF     H5 5994   2.504   1.211   0.733 -0.5931 -0.8719  1.3216
  374THF     H6 5995   2.326   1.454   0.963 -0.9684  0.5189 -0.1903
  374THF     H7 5996   2.188   1.338   0.930 -0.4347  1.5383  1.1068
  374THF     C8 5997   2.365   1.244   1.000 -0.0677 -0.1699 -0.1830
  374THF     C9 5998   2.504   1.252   0.950 -0.2198 -0.5394  1.1024
  374THF    H10 5999   2.321   1.152   0.962  1.2873  0.0552 -2.4679
  374THF    H11 6000   2.363   1.244   1.109  1.1679 -0.7210 -0.1395
  374THF    H12 6001   2.562   1.327   1.004 -1.0500 -0.6070  2.0985
  374THF    H13 6002   2.550   1.153   0.945 -0.6160 -0.6798 -0.2270
  375THF     O1 6003   5.169   2.129   3.526 -0.4545 -0.4378 -0.5424
  375THF     C2 6004   5.075   2.167   3.427 -0.5644 -0.4514  0.8614
  375THF     C3 6005   5.244   2.246   3.565  0.6191 -0.1314 -0.4415
  375THF     H4 6006   5.009   2.247   3.462  0.6588  0.7677  0.5159
  375THF     H5 6007   5.019   2.089   3.376 -1.7559 -0.0635  1.5356
  375THF     H6 6008   5.181   2.320   3.614  0.9235  0.0450 -0.3110
  375THF     H7 6009   5.330   2.220   3.627  0.1449  0.8547  0.6860
  375THF     C8 6010   5.290   2.290   3.430  0.6551 -0.0849  0.0671
  375THF     C9 6011   5.170   2.247   3.334  0.2107  1.0279 -0.5321
  375THF    H10 6012   5.377   2.235   3.394 -1.4272 -2.5374 -1.5519
  375THF    H11 6013   5.311   2.397   3.423  2.4797 -0.3640  0.9178
  375THF    H12 6014   5.111   2.326   3.287  0.2009 -0.2092 -2.7372
  375THF    H13 6015   5.208   2.177   3.259  1.2501  1.7310 -0.6780
  376THF     O1 6016   3.600   5.150   3.511  0.0108 -0.4356  0.3553
  376THF     C2 6017   3.701   5.196   3.598  0.8848  0.2149 -0.0240
  376THF     C3 6018   3.523   5.263   3.489  0.2334 -0.1883 -0.1607
  376THF     H4 6019   3.777   5.120   3.618  0.4317 -0.4668 -0.8441
  376THF     H5 6020   3.661   5.230   3.693  0.7612  1.6403 -0.5622
  376THF     H6 6021   3.459   5.261   3.401 -0.9415  1.7656  0.5952
  376THF     H7 6022   3.460   5.287   3.574  1.2130  0.5900  0.3600
  376THF     C8 6023   3.614   5.377   3.477  0.3282  0.0522  0.1495
  376THF     C9 6024   3.742   5.322   3.532 -0.5982 -0.2478 -0.8686
  376THF    H10 6025   3.568   5.461   3.529 -0.2605 -0.1964  0.0492
  376THF    H11 6026   3.627   5.399   3.371  1.7273 -0.1036  0.2693
  376THF    H12 6027   3.817   5.290   3.459  0.5779  0.7750 -0.1409
  376THF    H13 6028   3.798   5.396   3.589 -0.5227 -1.0423  0.0986
  377THF     O1 6029   4.052   5.322   3.657 -0.3379 -0.1929 -0.8562
  377THF     C2 6030   4.047   5.191   3.719 -0.0622  0.3213 -0.2008
  377THF     C3 6031   4.165   5.331   3.578 -0.1041 -0.0215  0.6539
  377THF     H4 6032   3.949   5.168   3.761  1.3699 -1.1932  2.5897
  377THF     H5 6033   4.112   5.185   3.806 -1.3690 -0.6267  0.7626
  377THF     H6 6034   4.132   5.392   3.494  0.3002 -0.2200  0.3427
  377THF     H7 6035   4.245   5.387   3.627  0.4102  0.1399 -0.3406
  377THF     C8 6036   4.198   5.185   3.540  0.8560 -1.0689  0.6096
  377THF     C9 6037   4.086   5.100   3.602  0.4307 -0.1370  0.2255
  377THF    H10 6038   4.294   5.154   3.580 -0.0424 -3.1165  1.3316
  377THF    H11 6039   4.211   5.176   3.433 -0.6231 -0.5804  0.3614
  377THF    H12 6040   4.010   5.084   3.526  3.0002 -0.6658 -2.4439
  377THF    H13 6041   4.121   5.002   3.633 -0.4496 -0.6348 -0.3243
  378THF     O1 6042   1.299   4.916   4.874  0.0058 -0.0037 -0.0743
  378THF     C2 6043   1.234   5.026   4.931 -0.2644  0.0269 -0.7356
  378THF     C3 6044   1.390   4.959   4.769 -0.1381 -1.0153  0.0159
  378THF     H4 6045   1.275   5.032   5.032 -0.3712 -3.7695 -0.3265
  378THF     H5 6046   1.130   5.009   4.959  0.4598  0.9176  3.1622
  378THF     H6 6047   1.484   4.912   4.796  0.6251  0.7445  0.5792
  378THF     H7 6048   1.354   4.937   4.669  0.9162 -0.5250 -0.4872
  378THF     C8 6049   1.413   5.102   4.796  0.2782 -0.6951  0.1777
  378THF     C9 6050   1.275   5.145   4.845 -0.1172  0.3782 -0.6169
  378THF    H10 6051   1.445   5.155   4.707  0.0202 -0.1952  0.3773
  378THF    H11 6052   1.486   5.114   4.876  0.9651 -0.8326 -0.4191
  378THF    H12 6053   1.261   5.243   4.891 -1.1519 -0.5491  1.1702
  378THF    H13 6054   1.205   5.142   4.762  0.1777  1.7726 -0.9349
  379THF     O1 6055   1.508   4.216   3.333 -0.4760 -0.5074 -0.3832
  379THF     C2 6056   1.580   4.145   3.228  0.2455 -0.8333  0.1274
  379THF     C3 6057   1.601   4.245   3.435  0.1436 -0.1461  0.3125
  379THF     H4 6058   1.626   4.220   3.162  0.2208 -1.4782 -0.6330
  379THF     H5 6059   1.517   4.079   3.170 -1.0004  0.5978 -0.2170
  379THF     H6 6060   1.662   4.332   3.410 -0.7208  0.1218 -0.9764
  379THF     H7 6061   1.542   4.262   3.525 -0.3871 -0.3602  0.0059
  379THF     C8 6062   1.682   4.116   3.441 -0.1674 -0.2320  0.4239
  379THF     C9 6063   1.682   4.065   3.304 -0.2715 -0.3921  0.5237
  379THF    H10 6064   1.622   4.052   3.506 -2.5372 -0.1099 -1.5436
  379THF    H11 6065   1.779   4.138   3.486 -1.0089 -0.9256  2.7420
  379THF    H12 6066   1.772   4.063   3.243  0.2817 -0.3513  1.3202
  379THF    H13 6067   1.640   3.964   3.300 -1.5598  0.1268  0.3554
  380THF     O1 6068   2.112   4.134   3.833  0.1916  0.0037 -0.7607
  380THF     C2 6069   1.982   4.148   3.884 -0.4499 -0.1454  0.3427
  380THF     C3 6070   2.098   4.011   3.772 -0.6278  0.0607 -0.0604
  380THF     H4 6071   1.970   4.246   3.930  0.0472 -0.7249  1.7740
  380THF     H5 6072   1.973   4.078   3.967  3.4426 -0.0288  1.0112
  380THF     H6 6073   2.185   3.999   3.708 -1.2687 -1.2692 -0.7232
  380THF     H7 6074   2.088   3.933   3.847 -1.6360  0.2738  0.0482
  380THF     C8 6075   1.967   4.015   3.687  0.7754 -0.1537  0.4554
  380THF     C9 6076   1.896   4.124   3.762 -0.0806 -0.3741 -0.2882
  380THF    H10 6077   1.910   3.922   3.685  1.8317 -0.8094 -0.2363
  380THF    H11 6078   1.991   4.040   3.584 -1.1463  1.4419  0.3245
  380THF    H12 6079   1.885   4.221   3.714 -1.8883  1.4956  3.5062
  380THF    H13 6080   1.798   4.088   3.792 -1.0686  1.2244 -1.4286
  381THF     O1 6081   0.648   4.899   0.220  0.5984 -0.3069  0.4831
  381THF     C2 6082   0.694   5.022   0.157  0.1940  0.2051  0.3985
  381THF     C3 6083   0.511   4.879   0.169 -0.1542 -0.2310  0.0544
  381THF     H4 6084   0.802   5.022   0.148  0.1590 -1.2703 -0.3590
  381THF     H5 6085   0.667   5.114   0.210  0.7511  0.2378  0.6288
  381THF     H6 6086   0.519   4.783   0.119  1.0187 -1.6595  2.7608
  381THF     H7 6087   0.443   4.879   0.255  0.3268 -1.2036  0.4480
  381THF     C8 6088   0.483   4.994   0.069  0.0057  0.4363 -0.4901
  381THF     C9 6089   0.626   5.024   0.021 -0.5439 -0.9335 -0.2509
  381THF    H10 6090   0.449   5.081   0.125  1.2930  1.1520 -0.7756
  381THF    H11 6091   0.419   4.953  -0.010  0.3809  0.1067 -0.6268
  381THF    H12 6092   0.660   4.936  -0.034 -0.7888 -1.9746  1.2040
  381THF    H13 6093   0.640   5.115  -0.037  1.9329 -0.0024  1.6503
  382THF     O1 6094   2.845   0.033   4.454  0.0071 -0.1065 -0.2717
  382THF     C2 6095   2.916  -0.090   4.413  0.1803 -0.8789  0.6808
  382THF     C3 6096   2.940   0.112   4.512  0.7483  0.4454  0.1180
  382THF     H4 6097   2.961  -0.065   4.317 -0.2775 -0.5860  0.5377
  382THF     H5 6098   2.848  -0.171   4.387 -0.6713  0.0258  0.0351
  382THF     H6 6099   2.959   0.192   4.441 -0.8954  0.9847  0.2460
  382THF     H7 6100   2.905   0.169   4.598 -1.2771 -1.0350  0.3605
  382THF     C8 6101   3.059   0.022   4.554  0.1251 -0.1138 -0.1688
  382THF     C9 6102   3.013  -0.119   4.528 -0.1834  0.4514  0.1630
  382THF    H10 6103   3.088   0.022   4.659  0.4799 -1.4424 -0.2520
  382THF    H11 6104   3.139   0.040   4.483 -0.6290 -1.9536 -1.5477
  382THF    H12 6105   3.101  -0.178   4.504 -0.0251  0.9381 -0.4830
  382THF    H13 6106   2.962  -0.159   4.616  2.2309  0.9788  1.9326
  383THF     O1 6107   2.940   4.134   3.974  0.1766  0.3310 -0.1990
  383THF     C2 6108   2.985   4.019   3.902 -0.8814  0.0246 -0.1524
  383THF     C3 6109   3.045   4.168   4.064 -0.2344  0.6645 -0.4253
  383THF     H4 6110   2.924   3.985   3.818 -1.5248 -0.3407  0.4495
  383THF     H5 6111   2.976   3.939   3.976 -0.4354  0.7432  0.6983
  383THF     H6 6112   3.035   4.267   4.108 -0.1635 -0.0874  1.3898
  383THF     H7 6113   3.040   4.092   4.143  0.0954  1.0055 -0.0774
  383THF     C8 6114   3.166   4.152   3.977  0.6971 -0.0026 -1.1079
  383THF     C9 6115   3.129   4.055   3.872  0.1096 -0.3494 -0.0069
  383THF    H10 6116   3.256   4.110   4.020  0.8271  0.9517 -0.4111
  383THF    H11 6117   3.182   4.250   3.930  0.6331  1.1999  1.2311
  383THF    H12 6118   3.135   4.102   3.774  1.1589 -0.8300 -0.1867
  383THF    H13 6119   3.192   3.966   3.864 -0.6974 -0.9348  0.0618
  384THF     O1 6120   1.134   2.858   2.029 -0.1988  0.7335  0.6040
  384THF     C2 6121   1.134   2.815   1.891 -0.0132  0.5107  0.0506
  384THF     C3 6122   1.037   2.764   2.094 -0.1055  0.4362 -0.2154
  384THF     H4 6123   1.215   2.859   1.833 -0.9416  0.0255 -1.7083
  384THF     H5 6124   1.041   2.849   1.844  1.0755  2.7417 -0.6374
  384THF     H6 6125   1.045   2.753   2.202 -0.2313 -0.7485 -0.3094
  384THF     H7 6126   0.939   2.810   2.077 -0.6439  0.1887  1.9847
  384THF     C8 6127   1.045   2.630   2.021 -0.0908  0.0524 -0.7495
  384THF     C9 6128   1.141   2.659   1.901  0.1679 -0.1608  0.2234
  384THF    H10 6129   0.946   2.608   1.981 -0.3202  1.0973 -0.7980
  384THF    H11 6130   1.078   2.541   2.075  0.1280  1.3336  1.3479
  384THF    H12 6131   1.243   2.630   1.929  1.4148  2.7021 -0.9655
  384THF    H13 6132   1.115   2.601   1.813  2.3365 -3.3228  1.4693
  385THF     O1 6133   4.343   0.725   2.506 -0.4148 -0.7741 -0.1691
  385THF     C2 6134   4.455   0.812   2.540 -0.5567 -0.5171 -0.0090
  385THF     C3 6135   4.335   0.626   2.602 -0.2505  0.3244  0.3391
  385THF     H4 6136   4.433   0.915   2.509  1.7627 -0.4851 -1.8372
  385THF     H5 6137   4.548   0.793   2.486  0.5226 -0.5192  1.7709
  385THF     H6 6138   4.245   0.644   2.660  0.3448  1.5736  0.9089
  385THF     H7 6139   4.335   0.527   2.555  0.8148 -0.2637  1.5144
  385THF     C8 6140   4.461   0.636   2.687 -0.0768 -0.2130 -0.3996
  385THF     C9 6141   4.479   0.786   2.688  0.2253 -0.3748  0.5887
  385THF    H10 6142   4.546   0.589   2.636  0.6561  0.5917  0.0526
  385THF    H11 6143   4.459   0.607   2.792  2.1999 -1.1701 -0.5597
  385THF    H12 6144   4.399   0.832   2.746  0.9961  0.0792  1.3145
  385THF    H13 6145   4.579   0.814   2.719  1.1545 -1.1157 -1.5199
  386THF     O1 6146   2.685   2.366   3.164  0.2268 -0.0199  0.4944
  386THF     C2 6147   2.624   2.492   3.198  0.1036  0.1856 -0.6040
  386THF     C3 6148   2.682   2.346   3.023 -0.3371 -0.4298  0.3678
  386THF     H4 6149   2.693   2.573   3.173 -0.3243  1.2129  1.3526
  386THF     H5 6150   2.600   2.504   3.303 -0.1748  1.8160 -0.8295
  386THF     H6 6151   2.768   2.403   2.987  0.2253 -1.1182  0.5932
  386THF     H7 6152   2.698   2.241   2.998 -1.8248 -0.4856 -0.4409
  386THF     C8 6153   2.553   2.418   2.979 -0.1322 -0.7307 -0.0968
  386THF     C9 6154   2.503   2.487   3.101  0.3266  0.0902 -0.0953
  386THF    H10 6155   2.481   2.345   2.941  0.3264 -0.4196 -1.6347
  386THF    H11 6156   2.576   2.491   2.902  1.8617 -0.0395  1.0821
  386THF    H12 6157   2.472   2.590   3.083 -0.5679 -0.5475 -2.6066
  386THF    H13 6158   2.428   2.425   3.150  0.6499 -1.1995 -1.1864
  387THF     O1 6159   2.539   5.065   0.714  0.1758  0.0030  0.2213
  387THF     C2 6160   2.505   5.045   0.571  0.0050 -0.5232 -0.6752
  387THF     C3 6161   2.423   5.117   0.787 -0.0140  0.8172  0.9787
  387THF     H4 6162   2.469   4.943   0.556  1.4999 -1.2180  0.1850
  387THF     H5 6163   2.602   5.057   0.522  0.1199 -0.8281 -0.5229
  387THF     H6 6164   2.351   5.035   0.779  0.7368  0.3311 -1.9534
  387THF     H7 6165   2.433   5.161   0.886  1.7178  1.2942  0.6147
  387THF     C8 6166   2.369   5.215   0.682  0.0842 -0.2964 -0.0841
  387THF     C9 6167   2.399   5.156   0.542  0.7825  0.4921  0.6911
  387THF    H10 6168   2.420   5.310   0.694 -0.0272 -0.4448  1.8462
  387THF    H11 6169   2.269   5.253   0.702 -0.6527 -1.1931 -1.8836
  387THF    H12 6170   2.318   5.117   0.480  1.6846 -0.6050  0.1580
  387THF    H13 6171   2.455   5.222   0.475  0.1604 -1.3759 -1.8560
  388THF     O1 6172   3.153   0.219   0.077 -0.0201  0.0015  0.3885
  388THF     C2 6173   3.091   0.212  -0.048  0.0218  0.7682 -0.6736
  388THF     C3 6174   3.158   0.089   0.126 -0.1294  0.3026  0.5382
  388THF     H4 6175   3.105   0.301  -0.109  0.8640  1.1068 -0.0034
  388THF     H5 6176   2.987   0.179  -0.043  1.3858 -4.6265 -0.8600
  388THF     H6 6177   3.238   0.080   0.198  2.4946 -0.5532 -2.2847
  388THF     H7 6178   3.064   0.050   0.166  0.9407 -0.9645  1.9157
  388THF     C8 6179   3.201   0.003   0.011 -0.3452 -0.1182  0.0146
  388THF     C9 6180   3.182   0.101  -0.101  0.0599 -0.0128  0.1779
  388THF    H10 6181   3.151  -0.093  -0.008  0.8366 -1.1491  1.7796
  388THF    H11 6182   3.306  -0.024   0.003  0.3767  2.4232  0.1779
  388THF    H12 6183   3.270   0.154  -0.138 -1.0093  0.6816 -1.5367
  388THF    H13 6184   3.141   0.055  -0.192  1.0368 -0.2224 -0.1657
  389THF     O1 6185   3.499   0.764   4.684 -0.2235  0.0744  0.4208
  389THF     C2 6186   3.505   0.652   4.594  0.2764  0.0330 -0.6830
  389THF     C3 6187   3.465   0.707   4.810  0.0133 -0.0527 -0.6685
  389THF     H4 6188   3.569   0.696   4.517 -1.0224  1.8708 -0.7620
  389THF     H5 6189   3.406   0.633   4.552 -0.1293  0.2313  0.1628
  389THF     H6 6190   3.475   0.777   4.893 -1.0595 -0.4476 -0.1888
  389THF     H7 6191   3.361   0.676   4.813  0.3242 -1.1719 -0.9814
  389THF     C8 6192   3.559   0.590   4.819 -0.7732 -0.5734  0.3345
  389THF     C9 6193   3.566   0.534   4.675 -0.1691  0.4433  0.3180
  389THF    H10 6194   3.523   0.520   4.895  1.5157 -0.7764  1.3218
  389THF    H11 6195   3.657   0.621   4.856 -0.8247 -0.2621  0.2080
  389THF    H12 6196   3.658   0.494   4.634  0.3664  2.0784 -0.1327
  389THF    H13 6197   3.489   0.456   4.674 -2.4181  2.5509  0.7292
  390THF     O1 6198   1.045   0.440   0.906  0.4702  0.1629 -0.0660
  390THF     C2 6199   0.986   0.404   1.037 -0.3231 -0.2597  0.5519
  390THF     C3 6200   1.185   0.434   0.918 -0.1691 -0.1761  0.1319
  390THF     H4 6201   0.884   0.370   1.018  0.1163 -0.1192 -2.6341
  390THF     H5 6202   0.980   0.490   1.103  2.7913 -1.9036  3.2723
  390THF     H6 6203   1.229   0.402   0.824  0.1158  1.9708 -0.5176
  390THF     H7 6204   1.229   0.524   0.961  1.6935 -0.6062 -0.7440
  390THF     C8 6205   1.207   0.331   1.021 -0.1927 -0.3647  0.2905
  390THF     C9 6206   1.076   0.289   1.076 -0.1664 -0.2950  0.2901
  390THF    H10 6207   1.271   0.376   1.097  0.2158 -2.2131  1.1042
  390THF    H11 6208   1.269   0.253   0.978 -0.3368 -0.1084 -0.3990
  390THF    H12 6209   1.056   0.188   1.040  1.5236 -1.5223  2.5520
  390THF    H13 6210   1.077   0.278   1.184  1.3882  1.4188  0.4975
  391THF     O1 6211   3.696   3.978   3.667 -0.7948  0.2915  0.1277
  391THF     C2 6212   3.692   3.849   3.723  0.1016  0.0835 -0.1559
  391THF     C3 6213   3.781   4.062   3.742  0.0308 -0.4450  0.1019
  391THF     H4 6214   3.694   3.774   3.644  1.0235 -0.6640  0.5593
  391THF     H5 6215   3.598   3.832   3.776 -1.3962 -0.0627 -2.6569
  391THF     H6 6216   3.813   4.146   3.680  0.1729 -1.4078 -1.1740
  391THF     H7 6217   3.723   4.100   3.826  0.1781  2.7298 -1.0984
  391THF     C8 6218   3.889   3.964   3.786  0.2747  0.4775  0.3108
  391THF     C9 6219   3.813   3.839   3.822  0.5794 -0.0416 -0.3337
  391THF    H10 6220   3.952   4.001   3.867  0.4299 -0.9870  0.9008
  391THF    H11 6221   3.955   3.937   3.703 -0.5411 -1.6806  0.2959
  391THF    H12 6222   3.873   3.751   3.799 -2.3177 -2.4066  0.5601
  391THF    H13 6223   3.781   3.844   3.926  1.1427 -0.7977 -0.1185
  392THF     O1 6224   1.782   0.564   0.998 -0.0981 -0.3374 -0.1633
  392THF     C2 6225   1.741   0.427   1.029  0.0589 -0.2213 -0.1338
  392THF     C3 6226   1.846   0.568   0.873  0.0103 -0.4210  0.0856
  392THF     H4 6227   1.654   0.413   0.964 -1.2621  1.2738  1.2345
  392THF     H5 6228   1.704   0.416   1.131  1.4327 -1.6331  0.2594
  392THF     H6 6229   1.780   0.563   0.787  2.3642 -0.7901 -1.7928
  392THF     H7 6230   1.916   0.649   0.852  0.9212 -1.4335 -0.9414
  392THF     C8 6231   1.939   0.451   0.880 -0.1923  0.7883 -0.3470
  392THF     C9 6232   1.865   0.355   0.966 -0.1027 -0.2746 -1.0928
  392THF    H10 6233   2.035   0.483   0.921 -0.0215  1.1000 -0.9738
  392THF    H11 6234   1.959   0.417   0.778  0.0234 -0.1024 -0.0138
  392THF    H12 6235   1.836   0.261   0.917  2.3883 -1.3318 -0.6868
  392THF    H13 6236   1.929   0.320   1.047 -1.9747  3.3669  2.2552
  393THF     O1 6237   0.745   4.051   4.344  0.4612 -0.8658  0.2638
  393THF     C2 6238   0.851   3.959   4.356 -0.2445  0.0754 -0.5579
  393THF     C3 6239   0.696   4.052   4.215  0.0079  0.4918  1.1860
  393THF     H4 6240   0.838   3.897   4.445 -0.1039  0.8690  0.0236
  393THF     H5 6241   0.937   4.022   4.378  0.4630 -0.7799 -0.8169
  393THF     H6 6242   0.591   4.079   4.207  0.7266  2.9890 -1.5661
  393THF     H7 6243   0.749   4.124   4.152  2.2353 -0.6467  1.6359
  393THF     C8 6244   0.734   3.918   4.148  0.0813 -0.2196 -0.4875
  393THF     C9 6245   0.871   3.896   4.216  0.2573 -0.6337  0.2700
  393THF    H10 6246   0.732   3.923   4.040 -1.0413 -0.7471 -0.5088
  393THF    H11 6247   0.666   3.841   4.184  0.1809 -0.1838 -0.2168
  393THF    H12 6248   0.901   3.792   4.220 -0.4394 -0.8205  1.6714
  393THF    H13 6249   0.949   3.943   4.157 -0.7457 -0.0886 -0.6560
  394THF     O1 6250   4.623   4.354   4.951 -0.3466 -0.0484  0.1928
  394THF     C2 6251   4.489   4.321   4.916 -0.0014  0.5362 -0.0356
  394THF     C3 6252   4.658   4.264   5.056 -0.1421  0.4500 -0.6760
  394THF     H4 6253   4.485   4.222   4.870 -0.3884 -0.3716  1.8568
  394THF     H5 6254   4.450   4.397   4.848  0.0615  0.2472 -0.4015
  394THF     H6 6255   4.655   4.164   5.014 -2.0128  1.2345 -2.6469
  394THF     H7 6256   4.749   4.288   5.110 -1.9086  2.3832  1.6781
  394THF     C8 6257   4.529   4.272   5.142  0.1903  0.1486  0.1319
  394THF     C9 6258   4.421   4.328   5.053  0.4757  0.3666 -0.5484
  394THF    H10 6259   4.540   4.340   5.226  0.0913 -1.6974  1.6966
  394THF    H11 6260   4.501   4.184   5.200  2.3892 -0.5970  0.1668
  394THF    H12 6261   4.330   4.269   5.053 -0.5094  1.8113 -0.1447
  394THF    H13 6262   4.389   4.432   5.067 -3.1711 -0.4163 -2.0080
  395THF     O1 6263   0.425   2.966   3.437  0.1728  0.2249  0.0291
  395THF     C2 6264   0.408   3.078   3.525  1.1328  1.1554  0.0055
  395THF     C3 6265   0.404   3.021   3.306  0.0390  0.0868 -0.0133
  395THF     H4 6266   0.485   3.081   3.603  1.6734 -1.6297 -0.3284
  395THF     H5 6267   0.307   3.067   3.565  0.1461  0.9566 -2.4131
  395THF     H6 6268   0.453   2.954   3.236 -1.7349 -1.3518  0.0620
  395THF     H7 6269   0.297   3.026   3.285  0.0038  1.5802  0.3833
  395THF     C8 6270   0.464   3.158   3.301 -0.3087  1.1415  0.3675
  395THF     C9 6271   0.425   3.199   3.444  0.1024 -0.4745 -0.0909
  395THF    H10 6272   0.415   3.228   3.234 -1.1857  1.1121  0.9582
  395THF    H11 6273   0.571   3.164   3.281 -0.6508 -0.8180 -2.7222
  395THF    H12 6274   0.492   3.276   3.483 -1.9033  0.4340  1.7501
  395THF    H13 6275   0.332   3.254   3.427  1.0207  0.9908 -0.6082
  396THF     O1 6276   3.988   0.732   1.316 -0.0330 -0.2790  0.1233
  396THF     C2 6277   3.972   0.636   1.216  0.0476 -0.1282 -0.5560
  396THF     C3 6278   4.020   0.852   1.256  0.0564 -0.5555  0.0414
  396THF     H4 6279   3.871   0.644   1.178  0.1659  0.1560 -0.8073
  396THF     H5 6280   3.988   0.536   1.256  3.2362  1.1540  1.8437
  396THF     H6 6281   3.936   0.898   1.203  1.4570  0.3916 -1.4379
  396THF     H7 6282   4.051   0.925   1.330  0.3387 -0.2839 -0.3423
  396THF     C8 6283   4.127   0.813   1.159  0.6639 -0.1851  0.0143
  396THF     C9 6284   4.071   0.678   1.101 -0.0125  0.0760  0.7916
  396THF    H10 6285   4.216   0.795   1.219  0.2959  1.9813  1.3282
  396THF    H11 6286   4.151   0.888   1.084  0.9043  0.4336  0.6924
  396THF    H12 6287   4.028   0.698   1.003  0.4810  0.0530  0.5650
  396THF    H13 6288   4.153   0.605   1.093 -1.1126 -1.3613  2.1180
  397THF     O1 6289   0.465   2.074   0.584 -0.1472 -0.0456  0.4667
  397THF     C2 6290   0.442   1.964   0.662  0.1077 -0.3649  0.5770
  397THF     C3 6291   0.606   2.098   0.601 -0.6256  0.1887 -0.3091
  397THF     H4 6292   0.437   1.876   0.598 -2.2143  0.9146 -1.1560
  397THF     H5 6293   0.341   1.977   0.700  0.5466  1.1611  1.2991
  397THF     H6 6294   0.664   2.025   0.545 -0.5967 -0.3684  0.4381
  397THF     H7 6295   0.639   2.199   0.576  1.1256 -0.4055 -0.5938
  397THF     C8 6296   0.624   2.079   0.753 -0.1149 -0.2832  0.0012
  397THF     C9 6297   0.532   1.966   0.787  0.4925 -0.2957 -0.1521
  397THF    H10 6298   0.592   2.172   0.801  0.4095 -1.1180  2.0432
  397THF    H11 6299   0.724   2.061   0.791 -0.3264 -1.4511  0.0388
  397THF    H12 6300   0.579   1.868   0.794  0.8894 -0.1068 -0.1147
  397THF    H13 6301   0.487   1.974   0.886 -1.4042 -0.1847 -0.9877
  398THF     O1 6302   4.726   2.780   4.672 -0.1760 -0.3956 -0.4488
  398THF     C2 6303   4.682   2.660   4.598 -0.2997  0.1484  0.3998
  398THF     C3 6304   4.852   2.817   4.613  0.5825  0.1357 -0.5726
  398THF     H4 6305   4.636   2.691   4.504 -1.5361  0.3779  1.0695
  398THF     H5 6306   4.604   2.603   4.647  0.7503 -1.6397  0.0889
  398THF     H6 6307   4.845   2.854   4.510 -1.2193  1.3158 -0.0704
  398THF     H7 6308   4.906   2.894   4.669  0.4327 -2.0268  2.8174
  398THF     C8 6309   4.923   2.685   4.601 -0.3257  0.7134 -0.2577
  398THF     C9 6310   4.809   2.578   4.595 -0.6628  1.0287  0.5024
  398THF    H10 6311   4.981   2.671   4.692  0.9130  0.7087 -1.0157
  398THF    H11 6312   4.997   2.681   4.521 -0.8716 -0.6609 -0.7228
  398THF    H12 6313   4.810   2.521   4.502 -0.0458 -2.0122  2.2762
  398THF    H13 6314   4.827   2.518   4.683 -0.3802  0.1527 -0.1393
  399THF     O1 6315   1.591   3.625   1.787 -0.1681  0.1711 -0.2615
  399THF     C2 6316   1.657   3.521   1.857  0.0946 -0.1442 -0.0423
  399THF     C3 6317   1.533   3.567   1.671 -0.3005 -0.2442 -0.2858
  399THF     H4 6318   1.698   3.539   1.957  1.4534  1.4457 -0.8454
  399THF     H5 6319   1.746   3.488   1.805  0.3532 -0.0591  0.3446
  399THF     H6 6320   1.460   3.639   1.634  1.2987  0.8740 -1.4122
  399THF     H7 6321   1.617   3.548   1.604  2.7186 -0.9606  3.3565
  399THF     C8 6322   1.491   3.427   1.717  1.0585 -0.1008 -0.2632
  399THF     C9 6323   1.551   3.406   1.851  0.3228  0.5342 -0.5173
  399THF    H10 6324   1.521   3.347   1.650 -2.3506  0.5254 -2.8303
  399THF    H11 6325   1.383   3.412   1.719  0.8186  1.2168  2.9748
  399THF    H12 6326   1.481   3.424   1.933 -0.0907 -0.7029 -0.5788
  399THF    H13 6327   1.587   3.306   1.876  1.4719  1.0689  0.0165
  400THF     O1 6328   1.509   3.179   4.310  0.1533  0.0782  0.0211
  400THF     C2 6329   1.608   3.238   4.392  0.1748  0.2454  0.1435
  400THF     C3 6330   1.548   3.055   4.274 -0.4037  0.0538 -0.4793
  400THF     H4 6331   1.575   3.313   4.464  0.6950 -0.0240  0.6720
  400THF     H5 6332   1.670   3.295   4.322  2.9311 -1.1891  1.2679
  400THF     H6 6333   1.461   3.002   4.235  1.1715  0.0414 -4.3903
  400THF     H7 6334   1.619   3.076   4.194  0.9309 -0.7617  0.4533
  400THF     C8 6335   1.608   3.001   4.405 -0.0989  0.1399  0.5268
  400THF     C9 6336   1.674   3.126   4.464  0.1556  0.3436 -0.5752
  400THF    H10 6337   1.677   2.916   4.403 -0.2235 -0.0251  1.9952
  400THF    H11 6338   1.532   2.960   4.472 -0.0052 -0.6027  0.1880
  400THF    H12 6339   1.674   3.124   4.573  0.1797  1.4372 -0.5431
  400THF    H13 6340   1.780   3.122   4.438  0.0994 -2.1661 -0.6506
  401THF     O1 6341   2.601   4.257   0.589 -0.1155 -0.6839  0.2032
  401THF     C2 6342   2.673   4.353   0.507  0.0511  0.3008  0.2354
  401THF     C3 6343   2.462   4.240   0.556 -0.4053  0.4988  0.2710
  401THF     H4 6344   2.776   4.336   0.478 -0.3443 -1.5760 -0.2323
  401THF     H5 6345   2.685   4.449   0.558 -0.0373  0.8716 -0.7965
  401THF     H6 6346   2.442   4.143   0.512  0.2454  1.2551 -1.8048
  401THF     H7 6347   2.403   4.252   0.647 -1.5446 -0.0270 -0.3753
  401THF     C8 6348   2.439   4.350   0.451  0.1225  0.0059 -0.0021
  401THF     C9 6349   2.578   4.358   0.386  0.6952  0.1719 -0.3296
  401THF    H10 6350   2.407   4.439   0.505 -0.8740 -0.8054  0.7918
  401THF    H11 6351   2.372   4.324   0.369  0.2578 -0.3509 -0.0015
  401THF    H12 6352   2.594   4.274   0.318 -1.9782 -0.5368 -0.1938
  401THF    H13 6353   2.573   4.453   0.331 -0.3777  2.1606  2.9362
  402THF     O1 6354   2.495   0.741   0.979 -0.1852  0.0910 -0.8087
  402THF     C2 6355   2.474   0.632   1.076  0.0941  0.3293  0.0976
  402THF     C3 6356   2.554   0.851   1.040 -0.0904 -0.0249 -0.7664
  402THF     H4 6357   2.534   0.551   1.035  0.9836  2.0971 -2.3053
  402THF     H5 6358   2.373   0.594   1.091  0.5593 -0.5839  1.0996
  402THF     H6 6359   2.662   0.862   1.030 -0.2706  2.4200 -0.8080
  402THF     H7 6360   2.518   0.948   1.005 -0.4929 -0.2691 -1.0420
  402THF     C8 6361   2.537   0.837   1.187  0.0449 -0.0792  0.3253
  402THF     C9 6362   2.521   0.685   1.210  0.0464  0.3130 -0.0071
  402THF    H10 6363   2.442   0.886   1.210  0.7803  1.4505  0.2187
  402THF    H11 6364   2.614   0.885   1.246 -0.3603  2.6539 -1.2145
  402THF    H12 6365   2.613   0.628   1.214  0.1393  0.5113  0.8969
  402THF    H13 6366   2.460   0.672   1.300  1.8317 -0.9201  1.0739
  403THF     O1 6367   3.483   2.424   2.161 -0.2675  0.3136 -0.2016
  403THF     C2 6368   3.425   2.491   2.052  0.3610  0.2021 -0.2764
  403THF     C3 6369   3.623   2.445   2.161  0.2120  0.2616 -0.0498
  403THF     H4 6370   3.387   2.589   2.079  0.0831  0.1783 -0.5701
  403THF     H5 6371   3.342   2.437   2.007 -1.4851  1.7467  1.1368
  403THF     H6 6372   3.649   2.496   2.255 -1.7542  0.6829  0.2995
  403THF     H7 6373   3.669   2.347   2.171 -3.0308 -1.4068 -0.3553
  403THF     C8 6374   3.659   2.527   2.040 -0.6401 -0.1103  0.2860
  403THF     C9 6375   3.545   2.508   1.955  0.5045  0.4879  0.1887
  403THF    H10 6376   3.746   2.490   1.987 -1.4810 -1.2692 -0.3316
  403THF    H11 6377   3.673   2.632   2.066 -0.8566 -0.6303  2.7668
  403THF    H12 6378   3.532   2.576   1.871  2.5294 -1.4108 -1.7935
  403THF    H13 6379   3.563   2.414   1.903 -1.2882 -0.3796  1.0318
  404THF     O1 6380   5.087   2.176   5.231 -0.2734 -0.2039  0.2588
  404THF     C2 6381   5.021   2.238   5.337  0.2468  0.4188 -0.8650
  404THF     C3 6382   4.998   2.185   5.112  0.1386  0.5851 -0.9537
  404THF     H4 6383   5.009   2.344   5.314 -1.5563  0.8830  1.8325
  404THF     H5 6384   5.074   2.223   5.431  1.3670 -0.1396 -1.5668
  404THF     H6 6385   4.993   2.288   5.077 -0.1989  1.7233  2.1208
  404THF     H7 6386   5.019   2.126   5.023  0.5925  0.4310 -0.7477
  404THF     C8 6387   4.866   2.140   5.175 -0.4479  0.1560 -0.1212
  404THF     C9 6388   4.871   2.181   5.319 -0.1257 -0.3988  0.3044
  404THF    H10 6389   4.865   2.032   5.162 -2.1669  0.3562 -2.1304
  404THF    H11 6390   4.778   2.172   5.119 -0.5847 -1.4240 -0.8668
  404THF    H12 6391   4.795   2.253   5.351  0.7828  0.8749 -0.3531
  404THF    H13 6392   4.859   2.097   5.387  0.3084 -0.4035  0.3769
  405THF     O1 6393   2.190   3.122   3.812  0.1253 -0.1083 -0.1097
  405THF     C2 6394   2.318   3.188   3.836  0.3984  0.3159  0.2494
  405THF     C3 6395   2.223   2.982   3.800  0.5692 -0.3603  0.2346
  405THF     H4 6396   2.304   3.285   3.883 -0.9074  0.0150  0.5036
  405THF     H5 6397   2.378   3.195   3.744 -0.5811 -0.0828 -0.4368
  405THF     H6 6398   2.140   2.911   3.809  0.6626 -0.5269 -0.2046
  405THF     H7 6399   2.274   2.965   3.706  1.3347 -1.8422  0.8815
  405THF     C8 6400   2.316   2.969   3.915 -0.0347 -0.1239 -0.1432
  405THF     C9 6401   2.383   3.095   3.942 -0.3971 -0.6481 -0.1293
  405THF    H10 6402   2.385   2.888   3.890 -2.2359 -2.1551 -0.0135
  405THF    H11 6403   2.266   2.932   4.004 -0.3919  1.1932  0.2294
  405THF    H12 6404   2.368   3.128   4.044 -0.2287  0.1333 -0.3519
  405THF    H13 6405   2.488   3.070   3.924 -0.5610 -0.0218 -2.3322
  406THF     O1 6406   1.376   2.379   0.298  0.2400  0.4733 -0.7692
  406THF     C2 6407   1.241   2.401   0.251  0.1162 -0.2275 -0.8203
  406THF     C3 6408   1.467   2.332   0.201 -0.5760 -0.1015 -0.1774
  406THF     H4 6409   1.217   2.505   0.273 -0.2528 -0.8422  2.0048
  406THF     H5 6410   1.171   2.329   0.294 -1.1471 -0.8418 -3.6359
  406THF     H6 6411   1.529   2.415   0.167 -0.6375  0.0237  0.0170
  406THF     H7 6412   1.524   2.248   0.241 -1.3570 -0.1709  0.8126
  406THF     C8 6413   1.366   2.281   0.096  0.6272  0.4598 -0.0939
  406THF     C9 6414   1.250   2.377   0.100  0.1327 -0.0305 -0.6345
  406THF    H10 6415   1.332   2.187   0.139  0.0316 -0.1223 -1.7531
  406THF    H11 6416   1.409   2.263  -0.002 -2.0213 -0.4900 -1.1610
  406THF    H12 6417   1.289   2.468   0.054 -1.3089  1.0115  0.1175
  406THF    H13 6418   1.164   2.342   0.043  0.8822 -0.6330 -1.4281
  407THF     O1 6419   4.150   5.004   1.825  0.3877  0.2777  0.4938
  407THF     C2 6420   4.180   4.905   1.913 -0.2695  0.2789 -0.1025
  407THF     C3 6421   4.182   4.956   1.691  0.8597 -0.5400  0.9076
  407THF     H4 6422   4.112   4.894   1.998  0.3309  0.4279  0.4099
  407THF     H5 6423   4.265   4.927   1.978 -0.7648 -0.9934  1.0206
  407THF     H6 6424   4.087   4.959   1.637  1.2789  0.8229  0.1949
  407THF     H7 6425   4.250   5.026   1.642  0.8572 -1.2160 -0.1149
  407THF     C8 6426   4.246   4.815   1.699 -0.0348 -0.5505 -0.4648
  407THF     C9 6427   4.213   4.770   1.846 -0.2614  0.0639 -0.5514
  407THF    H10 6428   4.354   4.815   1.686  0.2040 -2.2996  1.0580
  407THF    H11 6429   4.209   4.732   1.638  0.3710 -2.0105  1.2084
  407THF    H12 6430   4.132   4.698   1.857 -0.3808  0.3488  0.5724
  407THF    H13 6431   4.298   4.722   1.894 -0.5566 -0.1467 -0.2348
  408THF     O1 6432   0.502   3.833   3.847  0.4271 -0.0744 -0.1362
  408THF     C2 6433   0.406   3.767   3.930  0.8410  0.1281 -0.0097
  408THF     C3 6434   0.491   3.974   3.867  0.1807 -0.2698 -0.0303
  408THF     H4 6435   0.448   3.742   4.027  0.9637 -1.6226 -0.4696
  408THF     H5 6436   0.389   3.672   3.879  0.6788 -0.9085  1.8830
  408THF     H6 6437   0.529   3.995   3.967 -2.5553  2.3115  0.6231
  408THF     H7 6438   0.544   4.036   3.795  0.3478 -0.0097  0.3112
  408THF     C8 6439   0.341   3.988   3.849 -0.5150 -0.1013 -0.4115
  408THF     C9 6440   0.288   3.859   3.914  0.2427  0.6853  0.3714
  408THF    H10 6441   0.309   3.977   3.746 -0.7927  0.8437 -0.4407
  408THF    H11 6442   0.301   4.079   3.894 -2.1837 -1.6879  1.5264
  408THF    H12 6443   0.265   3.882   4.018  2.0920 -0.9897  1.2173
  408THF    H13 6444   0.207   3.812   3.858  0.3983  0.1164  0.6141
  409THF     O1 6445   0.431   5.291   0.564  0.0777  0.1709 -0.4790
  409THF     C2 6446   0.295   5.281   0.618 -0.5818 -0.3061  0.5935
  409THF     C3 6447   0.445   5.179   0.470 -0.5879  0.2455  0.1375
  409THF     H4 6448   0.265   5.371   0.672  0.9826  0.5862  0.0296
  409THF     H5 6449   0.302   5.198   0.687 -2.7063  0.2465  1.5660
  409THF     H6 6450   0.526   5.184   0.397 -0.6313  1.2519  0.1344
  409THF     H7 6451   0.455   5.091   0.532 -0.6733  1.0123  1.2713
  409THF     C8 6452   0.310   5.166   0.400 -0.0714  0.2656 -0.1863
  409THF     C9 6453   0.214   5.246   0.494  0.3387  0.1387  0.4174
  409THF    H10 6454   0.281   5.061   0.394 -1.7080  0.3972  3.0079
  409THF    H11 6455   0.316   5.215   0.303  2.6156  1.3788  0.4704
  409THF    H12 6456   0.179   5.341   0.453 -1.7234 -1.4504 -1.7506
  409THF    H13 6457   0.127   5.188   0.527 -1.2775  2.8851  1.3606
  410THF     O1 6458   5.362   3.488   0.104  0.2203 -0.7188  0.0744
  410THF     C2 6459   5.309   3.466  -0.022 -0.2914 -0.4249 -0.5210
  410THF     C3 6460   5.255   3.546   0.174  0.1239  0.0569  0.1949
  410THF     H4 6461   5.368   3.388  -0.069 -1.3405 -1.2362 -0.5384
  410THF     H5 6462   5.330   3.562  -0.069  0.5448 -0.0490  0.5722
  410THF     H6 6463   5.269   3.517   0.278  2.4414 -1.5031 -0.4778
  410THF     H7 6464   5.271   3.654   0.164  0.2265 -0.0708 -1.2322
  410THF     C8 6465   5.117   3.511   0.115  0.1132  0.3409  0.0265
  410THF     C9 6466   5.162   3.421   0.005 -0.6418 -0.2769  0.2294
  410THF    H10 6467   5.061   3.601   0.090 -0.7479  0.1449  1.1880
  410THF    H11 6468   5.050   3.456   0.180 -1.5599 -0.1459 -1.9849
  410THF    H12 6469   5.155   3.318   0.040  1.1980 -0.3928  0.3600
  410THF    H13 6470   5.102   3.427  -0.086  0.4785 -1.2877 -0.6195
  411THF     O1 6471   1.928   3.100   2.611 -0.1951 -0.0842  0.2973
  411THF     C2 6472   1.981   3.214   2.686  0.4243  0.4004 -0.3461
  411THF     C3 6473   1.808   3.054   2.672 -0.1343 -0.3011  0.2414
  411THF     H4 6474   2.017   3.294   2.622  0.1402  1.4285  0.7457
  411THF     H5 6475   2.057   3.185   2.758 -1.5214 -0.6738  1.3905
  411THF     H6 6476   1.750   3.018   2.587 -1.2606  2.3954 -0.2184
  411THF     H7 6477   1.821   2.975   2.746  0.9172  0.2654  0.6848
  411THF     C8 6478   1.747   3.183   2.734  0.3874  0.0035 -0.1823
  411THF     C9 6479   1.861   3.271   2.763  0.1504  0.0944 -0.5571
  411THF    H10 6480   1.675   3.162   2.814  0.2870 -0.2209 -0.3319
  411THF    H11 6481   1.690   3.234   2.656 -0.2945 -1.7724 -0.8927
  411THF    H12 6482   1.840   3.376   2.744 -2.1806 -0.2502 -0.1879
  411THF    H13 6483   1.881   3.268   2.870  0.8087 -2.5158 -0.6929
  412THF     O1 6484   2.565   1.971   0.648 -0.8283 -0.0698  0.0538
  412THF     C2 6485   2.481   2.065   0.585 -0.3963  0.1346 -0.0767
  412THF     C3 6486   2.699   2.024   0.649  0.0128 -0.1193 -0.7149
  412THF     H4 6487   2.438   2.146   0.645 -0.2806  0.4471 -0.4135
  412THF     H5 6488   2.395   2.017   0.538 -0.3948 -1.1300  1.1568
  412THF     H6 6489   2.710   2.103   0.722 -1.2291 -2.5356  2.3110
  412THF     H7 6490   2.776   1.949   0.670 -2.0244 -1.4108  3.1483
  412THF     C8 6491   2.711   2.083   0.512  0.5305 -0.2824 -0.2215
  412THF     C9 6492   2.575   2.135   0.481 -0.5028  1.2543 -0.1320
  412THF    H10 6493   2.731   2.007   0.437  0.5177 -0.1695 -0.3404
  412THF    H11 6494   2.788   2.161   0.505  1.2230 -0.8933  0.4180
  412THF    H12 6495   2.570   2.243   0.473 -1.2263  1.1977 -0.5568
  412THF    H13 6496   2.540   2.093   0.387 -2.0787  1.8064  0.1857
  413THF     O1 6497   0.678   2.475   0.263 -0.1186  0.4221  0.2211
  413THF     C2 6498   0.736   2.373   0.337 -0.6582  0.3739 -0.5286
  413THF     C3 6499   0.745   2.484   0.138  0.0078 -0.0448 -0.3219
  413THF     H4 6500   0.664   2.318   0.397  1.2022 -1.2522  0.3190
  413THF     H5 6501   0.811   2.413   0.405 -0.6851 -1.2912  0.5250
  413THF     H6 6502   0.691   2.550   0.071  0.5139  0.3311 -0.3613
  413THF     H7 6503   0.842   2.534   0.143 -0.3156  0.6370 -0.8093
  413THF     C8 6504   0.751   2.333   0.096  0.4576 -0.8919 -0.1174
  413THF     C9 6505   0.783   2.272   0.234 -0.4218 -0.0705 -0.5561
  413THF    H10 6506   0.818   2.303   0.015  0.4400 -0.9872 -0.0966
  413THF    H11 6507   0.653   2.300   0.064  0.3755  0.4047 -1.3022
  413THF    H12 6508   0.739   2.173   0.249 -1.7231  0.6756  0.8693
  413THF    H13 6509   0.890   2.257   0.244 -0.5278 -0.0633  0.7766
  414THF     O1 6510   1.327   0.452   1.520 -0.2452 -0.1885  0.9563
  414THF     C2 6511   1.383   0.444   1.649  0.4124 -0.2197 -0.0631
  414THF     C3 6512   1.314   0.588   1.488 -0.3253 -0.1050 -0.5300
  414THF     H4 6513   1.490   0.461   1.635  0.4878  1.0115  1.7857
  414THF     H5 6514   1.375   0.349   1.702 -0.9613  0.2672  0.6241
  414THF     H6 6515   1.414   0.620   1.459 -0.7413  0.1770 -1.7287
  414THF     H7 6516   1.243   0.614   1.409 -0.5349  1.2411  0.0729
  414THF     C8 6517   1.287   0.660   1.625  0.8177  0.4385  0.8757
  414THF     C9 6518   1.313   0.551   1.727 -0.0909  0.1253  0.4044
  414THF    H10 6519   1.182   0.687   1.631  1.0953  1.6249  0.6787
  414THF    H11 6520   1.351   0.746   1.646  1.4616  0.7166 -1.8158
  414THF    H12 6521   1.363   0.586   1.817  1.2476  1.5128 -0.8074
  414THF    H13 6522   1.221   0.509   1.766 -1.2033  0.7850 -1.3926
  415THF     O1 6523   0.305   2.371   4.829 -0.3338 -0.0065  0.4719
  415THF     C2 6524   0.292   2.272   4.732 -0.1433 -0.1315  0.5551
  415THF     C3 6525   0.370   2.476   4.764  0.4559 -0.3080 -0.1056
  415THF     H4 6526   0.197   2.300   4.685  0.2640  0.0322 -0.1769
  415THF     H5 6527   0.292   2.176   4.784  1.6569  0.6736  2.2025
  415THF     H6 6528   0.290   2.545   4.735 -0.2170 -0.9697  0.1628
  415THF     H7 6529   0.433   2.538   4.829  0.4136  2.7731 -2.7040
  415THF     C8 6530   0.447   2.423   4.648  0.1755  0.9521 -0.4893
  415THF     C9 6531   0.414   2.277   4.642 -0.2905  0.0214  0.5488
  415THF    H10 6532   0.549   2.460   4.650  0.6129 -0.1522 -1.3538
  415THF    H11 6533   0.411   2.475   4.559 -0.0405 -0.4703 -1.2613
  415THF    H12 6534   0.393   2.253   4.538 -1.4801  2.4739  0.1481
  415THF    H13 6535   0.492   2.215   4.686 -0.0791 -0.1383 -0.0408
  416THF     O1 6536   3.942   0.207   0.271  0.3377 -0.3514  0.0750
  416THF     C2 6537   3.974   0.301   0.377  0.8070 -0.2502 -0.5692
  416THF     C3 6538   3.884   0.098   0.341 -0.8646  0.4423  0.4622
  416THF     H4 6539   3.883   0.361   0.384  0.0759 -1.2766 -1.0971
  416THF     H5 6540   4.055   0.365   0.341  0.0031  3.0219  2.7438
  416THF     H6 6541   3.784   0.134   0.363 -0.8033  1.4026 -0.7723
  416THF     H7 6542   3.874   0.007   0.282 -0.4584  1.6240 -1.5033
  416THF     C8 6543   3.975   0.075   0.459 -0.4808 -0.2850 -0.0553
  416THF     C9 6544   3.993   0.213   0.508  0.0923 -0.0118 -0.4432
  416THF    H10 6545   4.076   0.048   0.428  1.4643  3.8847  1.7604
  416THF    H11 6546   3.930   0.004   0.528 -1.1547  0.2785  0.0949
  416THF    H12 6547   3.908   0.223   0.576 -1.1872 -1.6707 -1.6873
  416THF    H13 6548   4.091   0.241   0.546 -0.0430  0.4307 -0.4112
  417THF     O1 6549   1.912   1.488   1.634  0.1780 -0.2326  0.0733
  417THF     C2 6550   1.828   1.369   1.637 -0.4205  0.3096  0.2358
  417THF     C3 6551   1.818   1.592   1.624  0.1320 -0.4483  0.5647
  417THF     H4 6552   1.871   1.276   1.674 -0.9804 -0.2684 -0.5266
  417THF     H5 6553   1.794   1.346   1.536  1.3417  1.4440 -0.6471
  417THF     H6 6554   1.860   1.690   1.646 -0.4461 -0.1093  0.1914
  417THF     H7 6555   1.771   1.591   1.526 -0.8741  1.8219  0.9584
  417THF     C8 6556   1.701   1.554   1.719 -0.1939 -0.3106  0.4654
  417THF     C9 6557   1.713   1.406   1.730 -0.3305 -0.0924  0.2417
  417THF    H10 6558   1.609   1.597   1.680 -0.9559 -4.3042 -2.8884
  417THF    H11 6559   1.729   1.595   1.816 -0.6765 -0.6905  0.7657
  417THF    H12 6560   1.743   1.362   1.826  1.2924 -0.3208 -0.3447
  417THF    H13 6561   1.617   1.361   1.703 -0.4333  0.3149 -0.0637
  418THF     O1 6562   4.050   5.344   1.683  0.3731  0.2095  0.0938
  418THF     C2 6563   3.994   5.305   1.553  0.4689 -0.4243 -0.3727
  418THF     C3 6564   4.065   5.477   1.682  0.2502  0.3814  0.1374
  418THF     H4 6565   3.891   5.336   1.537 -0.3275 -2.0321  1.2524
  418THF     H5 6566   4.017   5.201   1.529 -2.4966 -0.5601 -3.3271
  418THF     H6 6567   3.978   5.542   1.691  0.6031  0.7892  0.6646
  418THF     H7 6568   4.126   5.492   1.771 -0.9695 -0.0433  1.0707
  418THF     C8 6569   4.134   5.507   1.546  0.4803  0.0559 -0.5392
  418THF     C9 6570   4.077   5.389   1.458  0.0258  0.2747 -0.2278
  418THF    H10 6571   4.241   5.521   1.552  0.2486  1.3388  1.6832
  418THF    H11 6572   4.099   5.600   1.501  0.2476 -1.0052 -2.6986
  418THF    H12 6573   4.024   5.421   1.368 -1.1370 -0.9528 -0.0072
  418THF    H13 6574   4.167   5.338   1.422  0.1946  0.3025  0.1534
  419THF     O1 6575   4.747   4.611   4.685 -0.3093  0.1152  0.0661
  419THF     C2 6576   4.692   4.633   4.819  0.0375 -0.1799 -0.8991
  419THF     C3 6577   4.883   4.645   4.698 -0.3886  0.5664 -0.6485
  419THF     H4 6578   4.612   4.560   4.829  0.9701 -1.5081 -2.6488
  419THF     H5 6579   4.654   4.735   4.820 -1.6369 -0.7679 -1.1877
  419THF     H6 6580   4.940   4.610   4.611  1.3182 -0.3975  0.8005
  419THF     H7 6581   4.889   4.753   4.711  1.2426  0.4745 -0.3889
  419THF     C8 6582   4.927   4.575   4.826  0.2584  0.0715 -0.1947
  419THF     C9 6583   4.809   4.605   4.915  0.1290  0.1422  0.5466
  419THF    H10 6584   5.023   4.602   4.869  2.2184 -3.3858 -1.9749
  419THF    H11 6585   4.927   4.467   4.812 -0.3872  0.2761 -2.0227
  419THF    H12 6586   4.783   4.536   4.994  2.1475  0.3743  1.4731
  419THF    H13 6587   4.830   4.696   4.970  0.0370  0.1234  0.6116
  420THF     O1 6588   0.235   3.804   4.317 -0.7490  0.1171 -0.9547
  420THF     C2 6589   0.375   3.777   4.333  0.5224 -0.3582  0.1973
  420THF     C3 6590   0.199   3.911   4.404 -0.5512  0.4541 -0.2839
  420THF     H4 6591   0.426   3.777   4.237  1.3639 -1.8790  0.6043
  420THF     H5 6592   0.377   3.678   4.378  0.7038 -0.5823 -0.3004
  420THF     H6 6593   0.109   3.958   4.364 -0.4907 -1.3218 -2.7448
  420THF     H7 6594   0.174   3.876   4.505 -1.2009  0.2459 -0.5111
  420THF     C8 6595   0.320   3.996   4.410  0.4490 -0.6609  0.4163
  420THF     C9 6596   0.426   3.888   4.424 -0.0882  0.3736  0.1408
  420THF    H10 6597   0.313   4.054   4.502  0.6661 -0.6062  0.3989
  420THF    H11 6598   0.336   4.069   4.331  1.0102  2.9878  3.5963
  420THF    H12 6599   0.524   3.918   4.387 -0.8731 -0.4751 -3.0072
  420THF    H13 6600   0.424   3.848   4.525 -0.0005 -0.2381 -0.0898
  421THF     O1 6601   2.884   4.272   4.386  0.5414  0.3275 -0.0290
  421THF     C2 6602   2.916   4.155   4.453 -0.0918  0.4401 -0.2480
  421THF     C3 6603   2.975   4.374   4.399 -0.1877  1.4415 -0.6913
  421THF     H4 6604   2.992   4.100   4.397  1.0530  1.0466  0.6737
  421THF     H5 6605   2.832   4.089   4.473 -0.3930  0.1177 -2.3293
  421THF     H6 6606   3.038   4.374   4.310  1.1237  0.5765  0.1896
  421THF     H7 6607   2.925   4.471   4.406  1.1759  2.3016 -2.1724
  421THF     C8 6608   3.049   4.336   4.532 -0.2171 -0.1302  0.0671
  421THF     C9 6609   2.984   4.204   4.575  0.3462 -0.9992  0.2958
  421THF    H10 6610   3.039   4.425   4.594 -1.1121  0.5441 -0.9990
  421THF    H11 6611   3.154   4.319   4.510  0.0697  0.5221  0.8805
  421THF    H12 6612   3.049   4.129   4.620 -1.1576 -2.8029 -0.4020
  421THF    H13 6613   2.906   4.228   4.647  0.5794  1.8489 -0.2699
  422THF     O1 6614   4.308   4.031   5.114  0.3054  0.2671 -0.1271
  422THF     C2 6615   4.172   3.999   5.072  0.5024 -0.5743  0.4966
  422THF     C3 6616   4.293   4.031   5.258  0.1435 -0.1237  0.4629
  422THF     H4 6617   4.171   3.958   4.971  0.2223  0.1676  0.1930
  422THF     H5 6618   4.112   4.090   5.070  0.8605 -0.3404  0.1365
  422THF     H6 6619   4.391   4.043   5.305 -0.6609  0.4293  2.0445
  422THF     H7 6620   4.238   4.122   5.279  0.8200  1.1162 -2.5901
  422THF     C8 6621   4.220   3.900   5.286  1.0513 -0.1546 -0.4509
  422THF     C9 6622   4.113   3.901   5.173  0.5196  0.4478  0.0673
  422THF    H10 6623   4.188   3.903   5.390  0.9245 -0.8111 -0.4697
  422THF    H11 6624   4.284   3.814   5.269 -1.4462 -2.3209  0.4589
  422THF    H12 6625   4.075   3.805   5.140 -0.9949  0.5753  1.3498
  422THF    H13 6626   4.019   3.946   5.204 -0.0681  0.7597 -1.9826
  423THF     O1 6627   2.517   2.808   2.313  0.3007  0.5632  0.2922
  423THF     C2 6628   2.431   2.898   2.242 -0.7861 -0.4768 -0.3718
  423THF     C3 6629   2.458   2.776   2.441 -0.5165  0.0054  0.4524
  423THF     H4 6630   2.426   2.869   2.137 -0.0775 -0.1592 -0.4971
  423THF     H5 6631   2.463   3.002   2.249 -0.6678 -0.6353  2.5317
  423THF     H6 6632   2.448   2.669   2.458 -3.8106 -0.3461 -2.4569
  423THF     H7 6633   2.523   2.810   2.521 -0.5743 -1.3319  1.0827
  423THF     C8 6634   2.317   2.847   2.449 -0.4352 -0.5898 -0.5358
  423THF     C9 6635   2.296   2.869   2.301  0.0800 -0.3426 -0.0481
  423THF    H10 6636   2.334   2.935   2.512  2.1133 -1.2431 -0.2027
  423THF    H11 6637   2.240   2.778   2.484  0.6385 -1.3938  0.3051
  423THF    H12 6638   2.264   2.775   2.256  2.7770 -0.9595 -0.9084
  423THF    H13 6639   2.229   2.953   2.282  0.8135  0.4034  0.6000
  424THF     O1 6640   2.021   5.243   3.513  0.4835 -0.2848  0.0296
  424THF     C2 6641   1.935   5.340   3.470  0.2248 -0.0118  0.9492
  424THF     C3 6642   2.069   5.281   3.639  0.1276 -0.5712  0.4257
  424THF     H4 6643   1.855   5.297   3.408  0.8281 -0.5402  0.5283
  424THF     H5 6644   2.005   5.393   3.406  1.6925  0.1786  2.6626
  424THF     H6 6645   2.098   5.204   3.710  0.7777 -1.0559 -0.3457
  424THF     H7 6646   2.140   5.364   3.640 -0.2590 -0.1161 -2.1068
  424THF     C8 6647   1.947   5.349   3.703  0.3536 -0.0481  0.3993
  424THF     C9 6648   1.887   5.426   3.587 -0.3313 -0.1687  0.3792
  424THF    H10 6649   1.981   5.407   3.789  2.1870  0.0423 -0.3294
  424THF    H11 6650   1.885   5.265   3.734 -0.2485 -0.3229 -1.4227
  424THF    H12 6651   1.780   5.444   3.601 -0.0446  0.6112  1.7477
  424THF    H13 6652   1.928   5.525   3.567 -3.0860  1.4203  1.9118
  425THF     O1 6653   2.131   0.897   0.595  0.1494 -0.3074  0.0704
  425THF     C2 6654   2.246   0.969   0.633  0.1058  0.1478  0.0975
  425THF     C3 6655   2.106   0.792   0.688 -0.2159  0.2228  0.2693
  425THF     H4 6656   2.222   1.070   0.666  0.6862 -0.0046  1.0342
  425THF     H5 6657   2.317   0.973   0.551  0.7548 -0.8708  0.5841
  425THF     H6 6658   2.046   0.823   0.774  1.2370  1.3397  0.9299
  425THF     H7 6659   2.064   0.701   0.647 -0.4800 -0.3120  1.6495
  425THF     C8 6660   2.250   0.756   0.748 -0.5090  0.0611  0.2743
  425THF     C9 6661   2.308   0.891   0.749 -0.2021 -0.1827 -0.1081
  425THF    H10 6662   2.298   0.687   0.679  1.0715 -0.9055  2.2301
  425THF    H11 6663   2.240   0.694   0.837 -2.1937 -0.7882 -0.4668
  425THF    H12 6664   2.282   0.938   0.845  1.0149  0.1914  0.0609
  425THF    H13 6665   2.417   0.892   0.757 -0.2522 -0.6211  0.8388
  426THF     O1 6666   0.945   3.032   3.070  0.5858 -0.1868  0.2941
  426THF     C2 6667   1.044   2.986   3.158 -0.1418 -0.1103 -0.3872
  426THF     C3 6668   0.876   2.919   3.018 -0.0531 -1.2661  0.6936
  426THF     H4 6669   1.035   3.038   3.253 -1.9390  0.1159 -0.6503
  426THF     H5 6670   1.144   3.008   3.119  0.7312 -3.3296 -0.2952
  426THF     H6 6671   0.771   2.931   2.989 -0.1770 -2.4094  0.6352
  426THF     H7 6672   0.920   2.887   2.924 -0.0603  1.9778 -0.5545
  426THF     C8 6673   0.877   2.829   3.134  0.1643 -0.0052 -0.4895
  426THF     C9 6674   1.015   2.836   3.189 -0.5485 -0.0124 -0.5154
  426THF    H10 6675   0.846   2.733   3.094 -1.0722 -0.5287  1.5764
  426THF    H11 6676   0.802   2.852   3.211 -0.3582 -0.3544 -0.8878
  426THF    H12 6677   1.031   2.796   3.289  2.7558  1.5021 -0.2832
  426THF    H13 6678   1.080   2.774   3.125 -0.4640 -0.1102 -0.3362
  427THF     O1 6679   4.643   3.956   2.774  0.4587 -0.0509 -0.1765
  427THF     C2 6680   4.780   3.946   2.732  0.0376  0.0049 -0.5500
  427THF     C3 6681   4.624   3.894   2.904  0.6960  0.6491 -0.2521
  427THF     H4 6682   4.830   4.041   2.748 -0.7698  0.2053  0.9796
  427THF     H5 6683   4.798   3.905   2.633  1.4402 -0.4025 -0.1479
  427THF     H6 6684   4.654   3.960   2.986  0.6159 -1.4487  1.5471
  427THF     H7 6685   4.523   3.857   2.920  0.8170  0.2117 -0.4867
  427THF     C8 6686   4.721   3.780   2.893 -0.0303 -0.2151 -0.5044
  427THF     C9 6687   4.840   3.842   2.826  0.1274  0.2514 -0.2974
  427THF    H10 6688   4.688   3.702   2.824 -0.5165  0.4910 -1.0783
  427THF    H11 6689   4.758   3.739   2.987 -1.6796 -0.9043 -0.1213
  427THF    H12 6690   4.909   3.883   2.901 -1.2470 -0.5385  1.4586
  427THF    H13 6691   4.896   3.762   2.777  1.3392  0.8211  0.1138
  428THF     O1 6692   5.298   4.301   5.362 -0.0874  0.1274 -0.6762
  428THF     C2 6693   5.210   4.392   5.288  0.0447 -0.6596 -0.8436
  428THF     C3 6694   5.256   4.172   5.323  0.0682 -0.7323  0.5599
  428THF     H4 6695   5.242   4.494   5.271 -0.9579 -0.3020 -0.6881
  428THF     H5 6696   5.112   4.384   5.336  0.5646 -0.8199  0.2128
  428THF     H6 6697   5.323   4.088   5.343 -0.4615 -1.5164 -0.7874
  428THF     H7 6698   5.165   4.156   5.381 -0.1763 -0.2308  0.3178
  428THF     C8 6699   5.219   4.183   5.173 -0.2294  0.6159  0.2838
  428THF     C9 6700   5.198   4.327   5.144  0.1487 -0.5577 -0.4125
  428THF    H10 6701   5.123   4.132   5.161 -1.0146  1.5834  1.9882
  428THF    H11 6702   5.284   4.132   5.102 -0.4931  0.8754 -0.1474
  428THF    H12 6703   5.261   4.364   5.063 -0.3437  3.0867  0.6773
  428THF    H13 6704   5.095   4.341   5.112 -0.8832 -1.0939  2.3617
  429THF     O1 6705   4.492   4.853   2.867  0.6727  0.0017  0.5585
  429THF     C2 6706   4.629   4.894   2.855  0.7838 -0.3414 -0.7706
  429THF     C3 6707   4.457   4.843   3.003  0.0820 -0.3075  0.1359
  429THF     H4 6708   4.641   5.002   2.851  2.0189 -0.3000  1.8895
  429THF     H5 6709   4.672   4.862   2.760 -0.6499  1.2652 -2.0277
  429THF     H6 6710   4.445   4.947   3.034  2.1867  0.6232 -1.8318
  429THF     H7 6711   4.372   4.778   3.023  0.2342  0.0063  2.0322
  429THF     C8 6712   4.586   4.792   3.071 -0.0306 -0.0268  0.1924
  429THF     C9 6713   4.702   4.826   2.974 -0.1169 -0.2025  0.3449
  429THF    H10 6714   4.571   4.685   3.085 -0.5953  0.0082 -0.1190
  429THF    H11 6715   4.596   4.846   3.166 -1.2469  0.0209  0.3054
  429THF    H12 6716   4.762   4.898   3.030  0.1388 -1.6357  1.9850
  429THF    H13 6717   4.773   4.750   2.942  0.1204  0.4274 -0.6792
  430THF     O1 6718   0.205   2.532   3.226 -0.2371  0.2446  0.2253
  430THF     C2 6719   0.276   2.638   3.286 -0.0046  0.4232 -0.7785
  430THF     C3 6720   0.081   2.520   3.289 -0.4833 -0.1798  0.1064
  430THF     H4 6721   0.351   2.686   3.223  0.4792 -0.3027 -0.7679
  430THF     H5 6722   0.325   2.589   3.371  2.1407 -1.6341 -3.0143
  430THF     H6 6723   0.003   2.479   3.224  0.2625 -0.2619 -0.7562
  430THF     H7 6724   0.083   2.481   3.390 -0.2154 -2.7133 -0.7963
  430THF     C8 6725   0.044   2.668   3.298  0.4238  0.0548 -0.7886
  430THF     C9 6726   0.170   2.744   3.322  0.2393 -0.3470  0.8221
  430THF    H10 6727  -0.038   2.693   3.366  1.4732  4.1420 -0.8095
  430THF    H11 6728   0.001   2.700   3.203  1.3698 -1.5210 -1.8015
  430THF    H12 6729   0.168   2.829   3.253 -0.8888 -0.7393  0.3576
  430THF    H13 6730   0.178   2.776   3.426  2.3829  0.1529  0.5501
  431THF     O1 6731   3.236   2.456   2.547  0.4671 -0.2821 -0.0720
  431THF     C2 6732   3.120   2.384   2.515  0.1402 -0.1166 -0.4247
  431THF     C3 6733   3.346   2.421   2.471 -0.7070 -0.0340  0.4562
  431THF     H4 6734   3.070   2.439   2.435  0.3012 -1.0449 -1.1837
  431THF     H5 6735   3.052   2.370   2.599 -0.4128 -1.2467 -1.0347
  431THF     H6 6736   3.334   2.455   2.368 -2.2749 -2.7488 -0.3685
  431THF     H7 6737   3.438   2.445   2.524 -0.4650 -2.0002  0.9979
  431THF     C8 6738   3.330   2.275   2.452 -0.1654 -0.1358  0.8572
  431THF     C9 6739   3.182   2.251   2.478  0.2362 -0.3990 -0.4179
  431THF    H10 6740   3.403   2.228   2.519 -0.8461 -1.7813  0.4870
  431THF    H11 6741   3.363   2.250   2.352 -0.8516  1.8350  0.0911
  431THF    H12 6742   3.127   2.217   2.390 -1.2149 -0.8311  0.6285
  431THF    H13 6743   3.166   2.176   2.555 -1.4898 -0.0428 -0.3921
  432THF     O1 6744   1.485   1.771   3.413  1.2989  0.3889  1.1318
  432THF     C2 6745   1.591   1.737   3.322 -0.0405 -0.2523 -0.3011
  432THF     C3 6746   1.530   1.880   3.486 -0.6535 -0.0068 -0.0306
  432THF     H4 6747   1.549   1.669   3.249 -0.6237 -0.2155 -0.0065
  432THF     H5 6748   1.674   1.687   3.373 -0.0576  1.0989  1.1260
  432THF     H6 6749   1.445   1.924   3.537 -0.6881 -0.3540  0.2168
  432THF     H7 6750   1.595   1.848   3.567  0.0246  0.7524 -0.2701
  432THF     C8 6751   1.588   1.970   3.373  0.8448 -0.3830  0.4378
  432THF     C9 6752   1.632   1.874   3.266  0.1889 -0.2839  0.3592
  432THF    H10 6753   1.667   2.039   3.402  0.5395  0.2185 -0.1434
  432THF    H11 6754   1.509   2.030   3.327  1.9281  0.7176 -0.0488
  432THF    H12 6755   1.575   1.898   3.176  2.1388  1.4498 -0.4987
  432THF    H13 6756   1.739   1.887   3.250  0.2538 -0.7746  0.3872
  433THF     O1 6757   1.042   2.370   1.263 -0.2861 -0.2276 -0.0375
  433THF     C2 6758   0.972   2.254   1.288 -0.1352 -0.0523 -0.3595
  433THF     C3 6759   1.168   2.329   1.226  0.2063 -0.5608 -0.5550
  433THF     H4 6760   0.936   2.206   1.196 -1.0047 -1.4057  0.6510
  433THF     H5 6761   0.890   2.279   1.355  0.8158 -1.6865  1.4976
  433THF     H6 6762   1.157   2.274   1.132 -0.1869  0.4693 -1.1241
  433THF     H7 6763   1.248   2.401   1.216  2.0165 -2.5165 -0.9777
  433THF     C8 6764   1.201   2.229   1.333 -0.0264  0.5940 -0.0276
  433THF     C9 6765   1.068   2.166   1.365  0.3363  0.3362 -0.0536
  433THF    H10 6766   1.218   2.280   1.428 -0.2210 -0.8374  0.8056
  433THF    H11 6767   1.278   2.160   1.299 -0.0997  1.1454 -1.3877
  433THF    H12 6768   1.070   2.064   1.324  0.7301  0.1834  0.3427
  433THF    H13 6769   1.060   2.168   1.473  1.1282  2.4220 -0.0004
  434THF     O1 6770   3.925   3.504   3.810 -0.2754  0.4702 -0.3170
  434THF     C2 6771   3.791   3.471   3.829  1.1401  0.7052  0.0259
  434THF     C3 6772   3.952   3.474   3.669  0.2426 -0.3608 -0.6122
  434THF     H4 6773   3.753   3.554   3.889  1.7498  1.2001 -0.2653
  434THF     H5 6774   3.787   3.374   3.879 -0.1404  0.3785 -0.6749
  434THF     H6 6775   4.036   3.536   3.637  0.1019  0.2243  0.1234
  434THF     H7 6776   3.990   3.372   3.661 -1.0296 -0.9087  0.0714
  434THF     C8 6777   3.824   3.510   3.595  0.2878  0.0381  0.4372
  434THF     C9 6778   3.713   3.481   3.695 -0.2047 -0.0111  0.1069
  434THF    H10 6779   3.805   3.470   3.495  1.5912 -0.2901  0.3103
  434THF    H11 6780   3.816   3.616   3.570 -0.6595  0.0543  0.7545
  434THF    H12 6781   3.638   3.560   3.692 -0.2494  0.0430  1.7949
  434THF    H13 6782   3.662   3.387   3.674 -0.9576  0.2853  0.5921
  435THF     O1 6783   2.437   4.648   4.687 -0.2606  0.5099  0.4151
  435THF     C2 6784   2.537   4.583   4.772 -0.4453  0.0201  0.3919
  435THF     C3 6785   2.473   4.789   4.693 -0.2319  0.8223  0.2195
  435THF     H4 6786   2.545   4.475   4.756 -0.5393  0.0102  0.4119
  435THF     H5 6787   2.520   4.579   4.879  0.8173  0.0069  0.6175
  435THF     H6 6788   2.420   4.847   4.617 -0.0795  1.1822  0.3811
  435THF     H7 6789   2.432   4.830   4.786  1.4765 -1.3420  2.0350
  435THF     C8 6790   2.618   4.796   4.681  0.4995  0.3233  0.0214
  435THF     C9 6791   2.669   4.664   4.742  1.0708  0.2151  0.2290
  435THF    H10 6792   2.652   4.880   4.742 -1.6854  1.4516 -0.1992
  435THF    H11 6793   2.642   4.807   4.575  1.7025  1.7131  0.4049
  435THF    H12 6794   2.725   4.604   4.672 -0.0904 -0.0342 -0.5187
  435THF    H13 6795   2.727   4.682   4.833 -1.1114 -2.5938  2.3895
  436THF     O1 6796   3.631   0.210   5.295  0.5267 -0.1284  0.1138
  436THF     C2 6797   3.547   0.149   5.190 -0.3162  0.0053  0.3201
  436THF     C3 6798   3.727   0.115   5.331 -0.0974 -0.1082  0.7988
  436THF     H4 6799   3.596   0.165   5.094  1.2680  0.5211  1.1718
  436THF     H5 6800   3.451   0.198   5.175  0.1452  0.3770 -1.6491
  436THF     H6 6801   3.795   0.123   5.247  0.1768  0.3141  1.0554
  436THF     H7 6802   3.779   0.127   5.427 -1.0824 -0.0496  1.3424
  436THF     C8 6803   3.651  -0.017   5.328 -0.3611  0.6327  0.4684
  436THF     C9 6804   3.544  -0.002   5.221  0.6307 -0.7262  0.4539
  436THF    H10 6805   3.596  -0.030   5.422 -1.2869  0.4773 -0.0869
  436THF    H11 6806   3.712  -0.106   5.311 -1.4401 -0.1220  0.4318
  436THF    H12 6807   3.569  -0.057   5.131  2.4961  0.0229  0.4745
  436THF    H13 6808   3.448  -0.043   5.253  0.9062 -0.9494  1.0062
  437THF     O1 6809   1.378   3.581   4.461  0.0401  0.0136 -0.1402
  437THF     C2 6810   1.303   3.600   4.575 -0.2036  0.0852 -0.2715
  437THF     C3 6811   1.363   3.686   4.373 -0.0216  0.4007 -0.4584
  437THF     H4 6812   1.351   3.585   4.672  0.6264 -0.1636 -0.7155
  437THF     H5 6813   1.221   3.528   4.579 -0.1410 -0.0631 -1.4161
  437THF     H6 6814   1.453   3.711   4.317 -0.1951 -0.6750 -1.2472
  437THF     H7 6815   1.291   3.664   4.294 -0.5920  0.5688  0.0044
  437THF     C8 6816   1.314   3.804   4.452  0.1245  0.1552 -0.1223
  437THF     C9 6817   1.246   3.739   4.574 -0.2867 -0.0575 -0.8647
  437THF    H10 6818   1.256   3.875   4.393  0.0895  2.5817  2.6093
  437THF    H11 6819   1.401   3.857   4.491 -0.9049  0.2896  2.1696
  437THF    H12 6820   1.246   3.799   4.665 -0.9795  1.8269 -2.0389
  437THF    H13 6821   1.141   3.729   4.545  0.5047 -0.5018 -3.8350
  438THF     O1 6822   0.310   4.666   1.015 -0.1963  0.3086  0.0708
  438THF     C2 6823   0.200   4.731   1.087  0.4200  0.1372  0.1585
  438THF     C3 6824   0.294   4.697   0.873 -0.0509 -0.5362 -0.2888
  438THF     H4 6825   0.223   4.740   1.193 -3.7241  1.5728  1.1369
  438THF     H5 6826   0.102   4.688   1.067 -0.4220  2.5236 -1.3683
  438THF     H6 6827   0.394   4.675   0.835  0.6758  0.2287  1.0910
  438THF     H7 6828   0.217   4.636   0.826 -2.0643  1.0353  0.7884
  438THF     C8 6829   0.242   4.839   0.872  0.4831 -0.0607  0.1458
  438THF     C9 6830   0.191   4.863   1.017  0.6075 -0.2145  0.4476
  438THF    H10 6831   0.154   4.837   0.807 -1.4971  1.1611  2.6193
  438THF    H11 6832   0.314   4.917   0.850 -0.8766  0.9038 -1.0936
  438THF    H12 6833   0.253   4.937   1.065 -0.0568  0.6903 -0.0551
  438THF    H13 6834   0.092   4.909   1.005  0.0501 -1.7171 -1.2363
  439THF     O1 6835   0.421   0.014   4.904  0.4565 -0.1204  0.7577
  439THF     C2 6836   0.545   0.057   4.853 -0.1435 -0.6054  0.1608
  439THF     C3 6837   0.404   0.078   5.027 -1.0636 -0.7193 -0.5668
  439THF     H4 6838   0.561   0.036   4.747 -1.2455 -0.6611  0.0003
  439THF     H5 6839   0.632   0.018   4.907 -0.4774  0.7926  1.8080
  439THF     H6 6840   0.297   0.088   5.048 -1.0171 -0.4535 -0.4546
  439THF     H7 6841   0.453   0.009   5.096 -0.0263  0.4243 -0.1202
  439THF     C8 6842   0.477   0.215   5.017  0.3657 -0.3810  0.4707
  439THF     C9 6843   0.543   0.211   4.880 -0.6500  0.0055 -0.0104
  439THF    H10 6844   0.563   0.227   5.083  0.2799 -0.8522  0.6724
  439THF    H11 6845   0.411   0.300   5.031  0.9274 -0.2338  2.5415
  439THF    H12 6846   0.491   0.264   4.800 -0.1430  2.7143  1.3333
  439THF    H13 6847   0.644   0.252   4.872 -0.5354 -0.2484  0.1227
  440THF     O1 6848   0.609   0.493   3.362  0.0816  0.6475  0.0970
  440THF     C2 6849   0.655   0.355   3.386 -0.2591 -0.7501 -0.3418
  440THF     C3 6850   0.697   0.547   3.262  0.6686  0.0510  0.4950
  440THF     H4 6851   0.651   0.283   3.304 -1.7191 -0.2601 -0.7242
  440THF     H5 6852   0.611   0.304   3.472 -1.1628 -0.1387 -0.4288
  440THF     H6 6853   0.681   0.504   3.163  1.5260 -1.3972  0.9489
  440THF     H7 6854   0.679   0.654   3.248 -0.8544 -0.4776 -2.5038
  440THF     C8 6855   0.834   0.499   3.314  0.0870  0.0232 -0.4293
  440THF     C9 6856   0.802   0.392   3.425  0.2785  0.0224 -0.2069
  440THF    H10 6857   0.882   0.582   3.365 -1.1622 -0.5387  1.8195
  440THF    H11 6858   0.896   0.465   3.231  0.9483  0.4420  0.0261
  440THF    H12 6859   0.883   0.320   3.417  2.0220  1.9779 -1.2183
  440THF    H13 6860   0.807   0.440   3.523  0.6083  0.5253 -0.4618
  441THF     O1 6861   3.518   2.714   3.061  0.3614 -0.0367  0.4927
  441THF     C2 6862   3.423   2.730   3.166 -0.4264 -0.4388 -0.3509
  441THF     C3 6863   3.639   2.709   3.121 -0.3437 -0.7423 -0.0527
  441THF     H4 6864   3.416   2.638   3.225 -0.3786  0.4554  1.0847
  441THF     H5 6865   3.326   2.749   3.119 -0.2691 -0.2426 -0.5955
  441THF     H6 6866   3.660   2.613   3.168  1.0444  0.0947  1.1043
  441THF     H7 6867   3.714   2.736   3.046  0.2609 -0.8862  0.5003
  441THF     C8 6868   3.631   2.814   3.231  0.8628  0.0077  0.1122
  441THF     C9 6869   3.484   2.843   3.251 -0.5009 -0.1046  1.1863
  441THF    H10 6870   3.690   2.901   3.203  1.3211 -0.4674 -0.4125
  441THF    H11 6871   3.676   2.783   3.326  1.1824 -0.4391 -0.1857
  441THF    H12 6872   3.450   2.845   3.355 -0.3355 -0.1581  1.2424
  441THF    H13 6873   3.457   2.936   3.201  1.3479 -0.7013 -1.1165
  442THF     O1 6874   0.033   5.062   4.664 -0.9426 -0.2391  1.0104
  442THF     C2 6875   0.042   4.954   4.572 -0.6740 -0.0293 -0.4788
  442THF     C3 6876   0.120   5.169   4.639 -0.3678 -0.8392 -0.2313
  442THF     H4 6877  -0.044   4.889   4.582 -0.5132  0.0236  1.8806
  442THF     H5 6878   0.123   4.886   4.598 -0.6222 -1.2815 -3.5613
  442THF     H6 6879   0.101   5.257   4.702  0.2633 -1.8388  1.4132
  442THF     H7 6880   0.221   5.142   4.668  0.0028  2.2169  1.7906
  442THF     C8 6881   0.086   5.181   4.486 -0.3910 -0.4183 -0.5573
  442THF     C9 6882   0.062   5.036   4.438  0.6100  1.0875  0.5116
  442THF    H10 6883   0.171   5.231   4.439  0.6225 -2.0589 -0.5302
  442THF    H11 6884  -0.004   5.243   4.485  0.5406  0.9639 -0.3521
  442THF    H12 6885  -0.032   5.034   4.382  0.5773  1.3585  0.5522
  442THF    H13 6886   0.136   5.006   4.363  1.6727 -1.0781  2.3177
  443THF     O1 6887   0.984   3.775   0.771  0.4080 -0.3221  0.1047
  443THF     C2 6888   0.935   3.715   0.888 -0.1078  0.1415 -0.0723
  443THF     C3 6889   0.964   3.914   0.796  0.0794  0.1148 -0.0666
  443THF     H4 6890   0.961   3.609   0.886  1.7327  0.5728 -1.2254
  443THF     H5 6891   0.826   3.713   0.887 -0.1014 -1.5255 -0.3492
  443THF     H6 6892   1.016   3.963   0.714  1.6143 -0.1600  0.7193
  443THF     H7 6893   0.856   3.932   0.797  0.2037  0.9591 -0.6682
  443THF     C8 6894   1.021   3.933   0.937 -0.0918  0.4089 -0.3197
  443THF     C9 6895   0.998   3.800   1.001 -0.6066  0.5250  0.3533
  443THF    H10 6896   0.955   4.003   0.987 -0.5319  0.4165 -0.8995
  443THF    H11 6897   1.123   3.969   0.947  1.0872 -3.0469  1.5463
  443THF    H12 6898   1.092   3.761   1.040 -0.8501  0.8273  1.2457
  443THF    H13 6899   0.940   3.821   1.091  1.0476  0.8654  1.3720
  444THF     O1 6900   3.657   3.581   1.284 -0.1536  0.0350  0.0534
  444THF     C2 6901   3.662   3.453   1.336 -0.6227 -0.0680 -0.9974
  444THF     C3 6902   3.586   3.672   1.365 -0.4775  0.7663 -0.1423
  444THF     H4 6903   3.739   3.386   1.298 -0.0215  0.4010 -0.6207
  444THF     H5 6904   3.568   3.403   1.311  0.4188 -1.7072 -1.8185
  444THF     H6 6905   3.620   3.775   1.362  0.3811  0.7223  3.4318
  444THF     H7 6906   3.479   3.671   1.342 -0.3583  1.0233 -0.7225
  444THF     C8 6907   3.620   3.616   1.502 -0.0738  0.0015  0.2292
  444THF     C9 6908   3.690   3.481   1.484  0.1337 -0.0217 -0.4439
  444THF    H10 6909   3.531   3.602   1.563 -1.4235 -2.6020 -2.1310
  444THF    H11 6910   3.686   3.682   1.560  0.1059 -0.8831  1.0479
  444THF    H12 6911   3.795   3.504   1.502  0.2012 -0.2345 -0.5621
  444THF    H13 6912   3.660   3.400   1.551 -0.3019  0.5573  0.0714
  445THF     O1 6913   1.458   1.934   4.774 -0.4836 -0.4053 -0.0281
  445THF     C2 6914   1.502   1.813   4.722  0.0146 -0.0169 -0.8525
  445THF     C3 6915   1.574   2.002   4.818  0.0261  0.3445 -0.2369
  445THF     H4 6916   1.566   1.821   4.634  0.4813  0.7432 -0.4554
  445THF     H5 6917   1.417   1.748   4.702 -0.4850  0.4717 -0.3792
  445THF     H6 6918   1.620   2.045   4.730 -0.1963  0.3666 -0.3424
  445THF     H7 6919   1.554   2.082   4.889 -0.2287  0.7626 -0.7783
  445THF     C8 6920   1.654   1.887   4.885 -0.3203 -0.0337  0.0336
  445THF     C9 6921   1.588   1.759   4.833 -0.2219  0.3703 -0.0181
  445THF    H10 6922   1.633   1.896   4.992 -0.6565  0.1757 -0.0486
  445THF    H11 6923   1.759   1.878   4.857 -0.9123 -0.6510 -2.1983
  445THF    H12 6924   1.658   1.690   4.786 -1.9553  0.3623 -2.8069
  445THF    H13 6925   1.528   1.719   4.915  0.1583  0.2236  0.1892
  446THF     O1 6926   0.244   4.351   0.081  0.3970  0.3548  0.4113
  446THF     C2 6927   0.331   4.450   0.035 -0.4987  0.8808  0.0136
  446THF     C3 6928   0.269   4.336   0.219 -0.0924 -0.3332  0.5818
  446THF     H4 6929   0.294   4.548   0.065  0.2516  1.5785 -1.2748
  446THF     H5 6930   0.346   4.457  -0.073  0.2722 -2.5686 -0.2075
  446THF     H6 6931   0.220   4.419   0.270 -0.8346  0.1989 -0.9305
  446THF     H7 6932   0.214   4.249   0.256 -1.3976  0.4406  0.5401
  446THF     C8 6933   0.421   4.338   0.235  0.5890 -0.8885  0.3261
  446THF     C9 6934   0.464   4.408   0.104 -0.0563  0.1456 -0.1682
  446THF    H10 6935   0.469   4.240   0.232  0.0267 -1.1664 -2.1262
  446THF    H11 6936   0.441   4.387   0.330 -0.9854  0.5761 -0.0531
  446THF    H12 6937   0.529   4.494   0.114 -0.2475  0.3393 -0.5656
  446THF    H13 6938   0.520   4.347   0.033 -0.0077  0.6545 -0.5746
  447THF     O1 6939   3.253   0.642   0.796  0.8214 -0.2100 -0.3569
  447THF     C2 6940   3.240   0.725   0.678 -0.4530 -0.5996  0.2698
  447THF     C3 6941   3.131   0.638   0.872 -0.2013  0.2671  0.9673
  447THF     H4 6942   3.216   0.673   0.585  2.0320  1.4561 -1.6699
  447THF     H5 6943   3.332   0.780   0.657  0.1238 -1.0287  1.5420
  447THF     H6 6944   3.065   0.565   0.826  2.1052 -1.6083  0.4585
  447THF     H7 6945   3.159   0.598   0.970  0.4671 -0.6761  0.4078
  447THF     C8 6946   3.082   0.778   0.852  0.5191 -0.6039 -0.2845
  447THF     C9 6947   3.121   0.826   0.717  0.1159 -0.7290 -0.3092
  447THF    H10 6948   3.123   0.849   0.924 -0.2578  0.4504 -0.8465
  447THF    H11 6949   2.975   0.784   0.868  0.5358  0.6158 -0.5247
  447THF    H12 6950   3.032   0.805   0.656 -0.7713 -1.8791  1.2969
  447THF    H13 6951   3.141   0.931   0.700 -0.7485 -0.4120  0.5347
  448THF     O1 6952   0.606   2.384   1.074  0.5442  0.0375 -0.2746
  448THF     C2 6953   0.485   2.395   1.006  0.5886  0.9779 -0.3527
  448THF     C3 6954   0.570   2.409   1.210  0.3839 -0.3081 -0.1300
  448THF     H4 6955   0.500   2.362   0.903 -0.6477  1.4454 -0.6929
  448THF     H5 6956   0.449   2.497   1.015 -2.1432 -0.0565  1.8809
  448THF     H6 6957   0.658   2.386   1.271  1.1022  2.0349 -0.1918
  448THF     H7 6958   0.548   2.514   1.230  1.4695 -0.3536  1.4693
  448THF     C8 6959   0.457   2.306   1.226  0.0417  0.0286 -0.3513
  448THF     C9 6960   0.396   2.290   1.087 -0.0035  0.2226 -0.2358
  448THF    H10 6961   0.384   2.351   1.293 -1.3608 -3.9013  0.9804
  448THF    H11 6962   0.487   2.213   1.273 -1.2466 -0.7079 -0.9303
  448THF    H12 6963   0.410   2.186   1.058 -0.7300 -0.2255  0.9839
  448THF    H13 6964   0.291   2.317   1.095 -0.0122 -0.2418  1.6881
  449THF     O1 6965   2.227   2.171   2.863  0.4097  0.1792 -0.8549
  449THF     C2 6966   2.308   2.109   2.762  0.0734 -0.0975 -0.7468
  449THF     C3 6967   2.101   2.202   2.806 -0.5610  0.3785  0.6504
  449THF     H4 6968   2.302   2.001   2.778 -1.8045  0.0449 -0.1734
  449THF     H5 6969   2.410   2.146   2.766 -0.2136  0.6217  0.8550
  449THF     H6 6970   2.036   2.115   2.810  2.0430 -1.9231 -1.9902
  449THF     H7 6971   2.062   2.288   2.860 -0.5538  0.7320  0.1079
  449THF     C8 6972   2.140   2.244   2.664 -0.2048 -0.1050  0.1388
  449THF     C9 6973   2.248   2.149   2.630  0.3136  0.0394 -0.6494
  449THF    H10 6974   2.184   2.344   2.656 -2.3605  0.8523 -0.5217
  449THF    H11 6975   2.061   2.237   2.589  0.6604  0.7421 -0.8902
  449THF    H12 6976   2.202   2.058   2.592 -0.0576  0.0884 -0.3237
  449THF    H13 6977   2.316   2.200   2.562  0.5743  0.7955  0.1558
  450THF     O1 6978   1.967   1.049   4.671  0.2134 -0.2999 -0.3638
  450THF     C2 6979   1.891   0.997   4.568  0.6978  0.5070  0.0739
  450THF     C3 6980   2.087   0.975   4.681  0.2353  0.0039  0.5329
  450THF     H4 6981   1.910   1.053   4.476  2.2514 -0.4264 -0.2129
  450THF     H5 6982   1.788   1.008   4.600  0.7547 -1.1719  0.9336
  450THF     H6 6983   2.159   1.005   4.605 -2.1075  3.5296 -0.5286
  450THF     H7 6984   2.126   0.985   4.782  3.0360 -2.0387 -0.2103
  450THF     C8 6985   2.035   0.836   4.649 -0.0576 -0.6897 -0.0366
  450THF     C9 6986   1.928   0.855   4.542  0.5370  0.2450  0.4141
  450THF    H10 6987   1.988   0.805   4.743  0.3982 -0.4098  0.2888
  450THF    H11 6988   2.112   0.766   4.617  0.9862 -0.8242  2.5183
  450THF    H12 6989   1.967   0.853   4.440 -0.0983 -0.6427  0.1654
  450THF    H13 6990   1.844   0.787   4.558 -1.3202  2.8395  2.7085
  451THF     O1 6991   1.357   4.173   3.935  0.5267  0.2022 -0.1087
  451THF     C2 6992   1.246   4.261   3.913 -0.2134 -0.4877 -0.0560
  451THF     C3 6993   1.358   4.127   4.070  0.3911 -0.5806 -0.2450
  451THF     H4 6994   1.222   4.269   3.807  2.7178 -0.6972 -0.8141
  451THF     H5 6995   1.265   4.360   3.953 -2.3377 -1.3462  3.5080
  451THF     H6 6996   1.425   4.046   4.098 -0.1969 -0.6439  1.0566
  451THF     H7 6997   1.391   4.213   4.129 -0.5099 -0.7768  0.5639
  451THF     C8 6998   1.216   4.104   4.105  0.2574 -0.4679 -0.7676
  451THF     C9 6999   1.136   4.194   3.999  0.2023  0.5377 -0.3112
  451THF    H10 7000   1.196   4.129   4.209  0.6629  0.2930 -0.8649
  451THF    H11 7001   1.190   3.998   4.105 -0.5588 -0.2739 -0.5119
  451THF    H12 7002   1.080   4.121   3.941  2.2342 -1.3438 -0.0010
  451THF    H13 7003   1.055   4.261   4.030 -2.2477 -2.0414 -0.6992
  452THF     O1 7004   3.918   3.784   1.759 -0.0851 -0.2296  0.3841
  452THF     C2 7005   3.807   3.786   1.845  0.0336 -0.5422 -0.5506
  452THF     C3 7006   3.975   3.916   1.774  0.0802  0.8378 -0.2300
  452THF     H4 7007   3.832   3.780   1.951  0.0959  2.7280 -0.2888
  452THF     H5 7008   3.741   3.711   1.800 -1.5782  2.4029 -3.5727
  452THF     H6 7009   4.025   3.915   1.871  0.0282  1.2490 -0.2006
  452THF     H7 7010   4.050   3.946   1.701 -1.2272 -2.0726 -3.0001
  452THF     C8 7011   3.855   4.007   1.763 -0.6522  0.4615 -0.4673
  452THF     C9 7012   3.734   3.924   1.811 -0.2951 -0.7027 -0.0293
  452THF    H10 7013   3.832   4.036   1.661  1.4204  2.0838 -0.5361
  452THF    H11 7014   3.868   4.088   1.835  0.5628  0.3480 -0.5381
  452THF    H12 7015   3.696   3.978   1.898  2.7046  0.7811  0.4633
  452THF    H13 7016   3.663   3.927   1.728 -0.7232 -1.6728  0.2875
  453THF     O1 7017   0.755   4.979   5.045 -0.0152  0.7622 -0.7892
  453THF     C2 7018   0.728   5.006   5.184 -0.4483 -0.3524  0.1534
  453THF     C3 7019   0.716   5.091   4.960 -0.5678 -0.4662 -0.0983
  453THF     H4 7020   0.812   4.982   5.250  0.6893  1.5321 -0.5497
  453THF     H5 7021   0.640   4.947   5.211 -0.9578 -1.5112 -3.5151
  453THF     H6 7022   0.812   5.133   4.928 -0.6375  0.9848  1.4452
  453THF     H7 7023   0.666   5.046   4.874 -1.8285  0.1195  0.3092
  453THF     C8 7024   0.635   5.184   5.048  0.4211 -0.4509  0.2404
  453THF     C9 7025   0.691   5.156   5.185  0.0132 -0.0229 -0.6688
  453THF    H10 7026   0.528   5.162   5.045  0.5994 -1.4535 -2.7740
  453THF    H11 7027   0.646   5.287   5.015  1.4337 -0.7924 -0.5588
  453THF    H12 7028   0.775   5.223   5.201  1.2122 -1.5190 -0.3934
  453THF    H13 7029   0.619   5.171   5.265 -1.1143 -0.8243 -1.4974
  454THF     O1 7030   1.952   4.336   3.344  0.2044  0.2750  0.1808
  454THF     C2 7031   1.986   4.381   3.472 -1.1194 -0.2986  0.3481
  454THF     C3 7032   2.013   4.419   3.244  0.1457 -1.1059 -0.0101
  454THF     H4 7033   2.073   4.329   3.513  1.1203  2.9459  0.0913
  454THF     H5 7034   1.902   4.367   3.540 -1.5958  0.7062 -0.0148
  454THF     H6 7035   2.117   4.393   3.223  0.7398  1.0464 -0.0045
  454THF     H7 7036   1.973   4.402   3.144  0.3153 -1.5506 -0.0059
  454THF     C8 7037   2.019   4.558   3.312  0.6549 -0.1161  0.1643
  454THF     C9 7038   2.002   4.538   3.457  0.0794  0.2544  0.5639
  454THF    H10 7039   1.942   4.631   3.284  0.8546  0.9434  2.1784
  454THF    H11 7040   2.114   4.610   3.299  0.2975  0.1595 -1.5335
  454THF    H12 7041   2.079   4.584   3.518 -0.1949 -0.3920  1.4157
  454THF    H13 7042   1.908   4.579   3.495  0.8326 -0.9200  4.0374
  455THF     O1 7043   4.640   0.064   1.532 -0.3502 -0.5971  0.1063
  455THF     C2 7044   4.646   0.205   1.527 -0.5614 -0.9236  0.3157
  455THF     C3 7045   4.753   0.007   1.603  0.2869  0.0049 -0.5226
  455THF     H4 7046   4.544   0.241   1.517 -0.8880 -2.3280 -2.8187
  455THF     H5 7047   4.711   0.253   1.453 -1.2190  1.7944  1.3913
  455THF     H6 7048   4.726  -0.075   1.669  2.6701 -0.3923  0.0091
  455THF     H7 7049   4.822  -0.031   1.527  0.5147  3.1102 -2.0178
  455THF     C8 7050   4.801   0.124   1.691 -0.1413 -0.2734  0.5356
  455THF     C9 7051   4.693   0.227   1.664 -0.0601  0.4982 -0.0733
  455THF    H10 7052   4.898   0.163   1.659  0.5833 -1.9746  0.5943
  455THF    H11 7053   4.801   0.111   1.799  2.1658 -0.4234  0.5716
  455THF    H12 7054   4.601   0.218   1.722 -0.6798 -0.4071 -1.1815
  455THF    H13 7055   4.724   0.332   1.665  0.8485  0.3797 -3.4856
  456THF     O1 7056   1.169   1.882   1.509 -0.0074 -0.3476 -0.2043
  456THF     C2 7057   1.138   1.779   1.422 -0.2633  0.7908 -0.4547
  456THF     C3 7058   1.278   1.842   1.584  0.3107  0.5862  0.3901
  456THF     H4 7059   1.216   1.781   1.346  0.2629 -2.4432 -0.1506
  456THF     H5 7060   1.044   1.807   1.374 -0.4222  1.8112  0.4200
  456THF     H6 7061   1.376   1.831   1.537 -0.4668  1.5910 -1.5881
  456THF     H7 7062   1.292   1.920   1.659 -1.0321 -0.8987  2.2799
  456THF     C8 7063   1.226   1.709   1.640 -0.3036 -0.1513 -0.3300
  456THF     C9 7064   1.143   1.657   1.520  0.2800 -0.3674  0.2361
  456THF    H10 7065   1.170   1.736   1.730 -2.6972  0.5408 -1.9186
  456THF    H11 7066   1.307   1.648   1.681  0.9960  0.5746 -1.7304
  456THF    H12 7067   1.194   1.574   1.471  3.1152  0.8814  0.8944
  456THF    H13 7068   1.037   1.635   1.533 -0.1316 -0.3122 -2.4809
  457THF     O1 7069   1.607   1.516   4.049  0.3649 -0.6608  0.1860
  457THF     C2 7070   1.518   1.620   4.094 -1.1323  0.0044  0.0748
  457THF     C3 7071   1.720   1.570   3.985 -0.0967 -0.0583  0.0734
  457THF     H4 7072   1.517   1.617   4.203 -3.1989  0.7711  0.1179
  457THF     H5 7073   1.415   1.610   4.061 -0.6365  1.1286 -1.9562
  457THF     H6 7074   1.797   1.563   4.062  0.0418  0.6820  0.0131
  457THF     H7 7075   1.743   1.509   3.898 -1.0472  1.1450 -1.0610
  457THF     C8 7076   1.678   1.711   3.939 -0.3060  0.0144 -0.1928
  457THF     C9 7077   1.576   1.757   4.038  0.0903  0.4334 -0.1602
  457THF    H10 7078   1.610   1.705   3.854 -1.9243 -0.7127  1.1020
  457THF    H11 7079   1.762   1.779   3.926 -0.0304  0.0221  1.3923
  457THF    H12 7080   1.634   1.791   4.124 -2.1364  1.5303  0.9863
  457THF    H13 7081   1.506   1.826   3.991  0.4588  1.2345  0.4326
  458THF     O1 7082   5.046   3.851   1.552 -0.3923  0.2096  0.4433
  458THF     C2 7083   4.970   3.815   1.439 -0.1896  0.2244  0.2073
  458THF     C3 7084   5.136   3.746   1.575 -0.1052 -0.0679  0.3661
  458THF     H4 7085   4.921   3.896   1.386  0.1209 -0.4250 -1.1410
  458THF     H5 7086   4.890   3.746   1.464  0.5038 -0.2497  1.2027
  458THF     H6 7087   5.196   3.777   1.661 -1.7381 -0.9468  1.9091
  458THF     H7 7088   5.084   3.653   1.597  1.9344 -0.7851  2.6800
  458THF     C8 7089   5.208   3.725   1.445  0.5537  0.3377 -0.0791
  458THF     C9 7090   5.085   3.750   1.354 -0.4594  0.9960  0.1750
  458THF    H10 7091   5.245   3.622   1.444  0.6172  0.3620 -0.6163
  458THF    H11 7092   5.289   3.796   1.431  1.5002 -0.9138 -1.1845
  458THF    H12 7093   5.117   3.822   1.279 -1.1848  0.5217 -0.6061
  458THF    H13 7094   5.050   3.661   1.303  3.0176 -0.1294 -0.4476
  459THF     O1 7095   1.854   1.672   3.580 -0.5461 -0.3197 -0.2147
  459THF     C2 7096   1.948   1.609   3.502  0.5459  0.3984 -0.3180
  459THF     C3 7097   1.916   1.768   3.664 -0.2827 -0.3046  0.0842
  459THF     H4 7098   1.890   1.558   3.425  1.2753  0.5549 -0.9931
  459THF     H5 7099   2.004   1.528   3.549  0.1421 -0.0945 -0.6890
  459THF     H6 7100   1.843   1.843   3.696  0.9678  0.9584  0.1058
  459THF     H7 7101   1.968   1.723   3.748  0.8341  0.2977 -0.2640
  459THF     C8 7102   2.030   1.820   3.577 -0.0138 -0.1406 -0.6098
  459THF     C9 7103   2.035   1.729   3.462 -0.3443  0.8949  0.3871
  459THF    H10 7104   2.124   1.823   3.632 -0.8709 -0.5773  0.9308
  459THF    H11 7105   2.019   1.922   3.540  0.2019 -0.8622 -2.7891
  459THF    H12 7106   1.990   1.773   3.372  0.2409  0.2272 -0.2452
  459THF    H13 7107   2.124   1.673   3.434 -1.9521 -1.7633  0.2754
  460THF     O1 7108   3.398   3.044   1.967  0.0416 -0.5002 -0.0201
  460THF     C2 7109   3.277   3.066   2.044 -0.2730  0.0350 -0.2089
  460THF     C3 7110   3.438   2.914   1.985  0.5209 -0.0127  0.5242
  460THF     H4 7111   3.235   3.164   2.022  0.6972  0.2871 -1.0084
  460THF     H5 7112   3.289   3.061   2.153  0.7679  2.1019 -0.1873
  460THF     H6 7113   3.514   2.876   1.916 -0.2359 -1.1966  0.3234
  460THF     H7 7114   3.492   2.907   2.080  1.8967 -0.1481 -0.2449
  460THF     C8 7115   3.305   2.835   1.993 -0.3341 -0.1470  0.1798
  460THF     C9 7116   3.198   2.940   2.009 -0.5338 -0.0005 -0.5669
  460THF    H10 7117   3.303   2.776   2.084 -2.1157 -1.3532 -0.5643
  460THF    H11 7118   3.290   2.771   1.905 -0.4381 -0.5539  0.4864
  460THF    H12 7119   3.149   2.960   1.913  0.2843 -0.0636 -0.9997
  460THF    H13 7120   3.122   2.925   2.085 -1.3828  0.5927 -1.2663
  461THF     O1 7121   0.177   3.011   3.896 -0.7881  0.6068 -0.0589
  461THF     C2 7122   0.065   3.067   3.973  0.0160  0.7860  0.0725
  461THF     C3 7123   0.122   2.916   3.804 -0.0005 -0.1688 -0.3893
  461THF     H4 7124   0.089   3.166   4.012  0.0023  1.6914 -2.1033
  461THF     H5 7125   0.053   3.002   4.060 -0.1644  0.0500 -0.4936
  461THF     H6 7126   0.203   2.893   3.735 -0.2138 -0.2846 -0.6037
  461THF     H7 7127   0.087   2.821   3.843  1.3124 -0.2303  0.7128
  461THF     C8 7128   0.003   2.999   3.750 -0.7535 -0.7184  0.1417
  461THF     C9 7129  -0.047   3.077   3.872  0.7279 -0.0960  0.0839
  461THF    H10 7130  -0.070   2.939   3.696 -0.2174 -0.5937 -0.7318
  461THF    H11 7131   0.033   3.083   3.687 -2.5031  0.4833  0.8273
  461THF    H12 7132  -0.090   3.176   3.859 -0.5944 -0.6386  0.1002
  461THF    H13 7133  -0.130   3.029   3.924  0.4798  0.0897 -0.1389
  462THF     O1 7134   0.282   0.237   0.685 -0.0529 -0.0228 -0.1131
  462THF     C2 7135   0.140   0.217   0.710 -0.4302  0.1519 -0.3052
  462THF     C3 7136   0.323   0.247   0.557  0.1599  0.0946  0.0465
  462THF     H4 7137   0.102   0.316   0.736  0.9537  0.7297 -0.3484
  462THF     H5 7138   0.113   0.146   0.788  1.4140 -0.5318 -0.2408
  462THF     H6 7139   0.310   0.348   0.518 -0.9487  0.0191  0.1766
  462THF     H7 7140   0.427   0.218   0.545 -0.2429 -2.7701  2.5237
  462THF     C8 7141   0.221   0.153   0.492  0.2138  0.3827  0.2504
  462THF     C9 7142   0.098   0.179   0.573 -0.0833  0.0086  0.6027
  462THF    H10 7143   0.248   0.049   0.509  2.3926  0.8067 -0.3061
  462THF    H11 7144   0.215   0.164   0.384 -0.2861  0.3671  0.2765
  462THF    H12 7145   0.056   0.267   0.524  1.8761 -0.6614 -2.5792
  462THF    H13 7146   0.020   0.103   0.576 -1.8171  1.5226 -1.9026
  463THF     O1 7147   4.331   2.380   1.472 -0.0586 -0.0736  0.2637
  463THF     C2 7148   4.230   2.436   1.389 -0.2576 -0.0551 -0.1185
  463THF     C3 7149   4.304   2.243   1.478  0.2769 -0.2065 -0.4353
  463THF     H4 7150   4.258   2.537   1.357  1.1024 -0.3020  0.2163
  463THF     H5 7151   4.135   2.440   1.441 -0.2630 -1.2012 -0.0169
  463THF     H6 7152   4.392   2.197   1.524 -0.4546  0.1031  1.3435
  463THF     H7 7153   4.215   2.221   1.536  0.7973 -1.0091  0.0823
  463THF     C8 7154   4.278   2.208   1.334  0.4804  0.0809  0.5988
  463THF     C9 7155   4.219   2.334   1.269  0.1445 -0.4094 -1.1370
  463THF    H10 7156   4.197   2.135   1.328  1.6761 -1.1838 -1.8150
  463THF    H11 7157   4.367   2.172   1.281  0.2928  0.8124 -0.2415
  463THF    H12 7158   4.282   2.375   1.190 -0.7528  2.0546 -0.6799
  463THF    H13 7159   4.113   2.332   1.243 -0.3941 -0.7203  0.9100
  464THF     O1 7160   4.023   2.785   0.213 -0.3924  0.4489  0.1994
  464THF     C2 7161   3.880   2.809   0.199 -0.2560  0.0936  0.4335
  464THF     C3 7162   4.054   2.645   0.192  0.3244  0.5799 -0.3391
  464THF     H4 7163   3.858   2.839   0.096 -0.1545  1.3559  0.7536
  464THF     H5 7164   3.848   2.875   0.280 -0.2950 -0.9819  1.3130
  464THF     H6 7165   4.131   2.637   0.115  1.3566 -2.7199  0.8760
  464THF     H7 7166   4.102   2.611   0.284 -2.3435 -2.1558  0.1835
  464THF     C8 7167   3.923   2.571   0.161  0.0074 -0.0321  0.7094
  464THF     C9 7168   3.823   2.660   0.221 -0.1767  0.0734 -0.1863
  464THF    H10 7169   3.924   2.473   0.209  0.7041 -0.5469 -0.3108
  464THF    H11 7170   3.895   2.553   0.057  0.1112 -1.1983  0.8621
  464THF    H12 7171   3.728   2.640   0.172 -0.3103 -1.1687  0.5309
  464THF    H13 7172   3.813   2.636   0.327 -1.0471 -0.2750 -0.3418
  465THF     O1 7173   1.571   3.588   0.971 -0.8679 -0.1696 -0.5058
  465THF     C2 7174   1.694   3.640   1.028  0.5144 -0.5296  0.1549
  465THF     C3 7175   1.489   3.570   1.087  0.3728 -0.7872 -0.6382
  465THF     H4 7176   1.745   3.679   0.940  0.2763  0.2819  0.3649
  465THF     H5 7177   1.745   3.554   1.071 -1.0864 -1.5057  0.2192
  465THF     H6 7178   1.384   3.561   1.060  0.1767  0.0190 -0.1829
  465THF     H7 7179   1.505   3.481   1.148 -0.9447  1.0291  2.6142
  465THF     C8 7180   1.513   3.685   1.189  0.3637  0.1607  0.0381
  465THF     C9 7181   1.645   3.742   1.129 -0.4305  0.0758  0.3032
  465THF    H10 7182   1.514   3.666   1.296 -1.2618  0.4189  0.1219
  465THF    H11 7183   1.435   3.759   1.166  1.2232  0.0723 -3.8271
  465THF    H12 7184   1.629   3.832   1.069  1.2203  0.9464  1.0994
  465THF    H13 7185   1.725   3.757   1.202  1.8875 -1.4552 -1.7830
  466THF     O1 7186   0.643   2.251   1.780  0.4747 -0.6366  0.8141
  466THF     C2 7187   0.578   2.273   1.652  0.0510  0.0739  0.0759
  466THF     C3 7188   0.705   2.374   1.816  0.4556 -0.7853  0.2675
  466THF     H4 7189   0.472   2.285   1.676  0.5541 -0.2387  2.7043
  466THF     H5 7190   0.582   2.192   1.580 -0.8567  0.5238 -0.5012
  466THF     H6 7191   0.632   2.438   1.866 -1.1009 -0.9077 -1.7219
  466THF     H7 7192   0.795   2.362   1.877  1.4773 -0.5200 -1.1312
  466THF     C8 7193   0.748   2.437   1.681  0.3893  0.6952 -0.2355
  466THF     C9 7194   0.627   2.407   1.605 -0.1011 -0.0516 -0.1439
  466THF    H10 7195   0.839   2.385   1.652  0.1542 -0.3003  0.7605
  466THF    H11 7196   0.765   2.542   1.707  0.9226  0.5214  0.1340
  466THF    H12 7197   0.545   2.478   1.615 -1.0291 -1.3032  1.6239
  466THF    H13 7198   0.645   2.411   1.497 -0.2861  0.4330 -0.1614
  467THF     O1 7199   3.321   3.871   1.528 -0.2022 -0.0846  0.1430
  467THF     C2 7200   3.345   3.812   1.658 -0.4738  0.1777  0.3654
  467THF     C3 7201   3.203   3.817   1.474  0.6621  0.4379  0.2729
  467THF     H4 7202   3.340   3.898   1.725 -1.5055 -0.2359  0.8429
  467THF     H5 7203   3.447   3.775   1.657 -0.7365 -0.5980 -1.2948
  467THF     H6 7204   3.122   3.867   1.527 -0.7498 -1.8801  0.4525
  467THF     H7 7205   3.183   3.828   1.368 -0.1910 -0.2165  0.3530
  467THF     C8 7206   3.188   3.680   1.530  0.9662  0.3130 -0.0497
  467THF     C9 7207   3.234   3.701   1.677  0.3874 -0.7668  0.6031
  467THF    H10 7208   3.243   3.598   1.484 -0.8599 -0.9298 -0.1304
  467THF    H11 7209   3.082   3.655   1.531  0.6859  1.4367 -0.4412
  467THF    H12 7210   3.149   3.736   1.736 -1.5133 -1.8093 -1.3892
  467THF    H13 7211   3.265   3.608   1.725 -0.2418 -0.5179  1.5319
  468THF     O1 7212   2.964   5.186   2.589 -0.5239  0.1201 -0.4494
  468THF     C2 7213   2.825   5.208   2.572  0.2668 -0.6080  0.8605
  468THF     C3 7214   3.046   5.199   2.474  0.7598  0.8214 -0.2714
  468THF     H4 7215   2.772   5.254   2.655 -0.5039  0.6822 -0.3101
  468THF     H5 7216   2.769   5.118   2.544  1.7461 -0.7636 -2.0294
  468THF     H6 7217   3.125   5.269   2.500  0.9548  0.7406 -0.6424
  468THF     H7 7218   3.102   5.108   2.449 -1.2368 -0.4406 -0.3721
  468THF     C8 7219   2.954   5.270   2.376 -0.3181 -0.4061  1.0231
  468THF     C9 7220   2.845   5.318   2.470  0.1898  0.6153  0.2398
  468THF    H10 7221   2.928   5.200   2.297  2.4501 -0.5226  0.1419
  468THF    H11 7222   3.006   5.354   2.329  1.9870 -2.1128  0.3723
  468THF    H12 7223   2.880   5.408   2.520 -0.0290  1.4171 -1.0034
  468THF    H13 7224   2.748   5.338   2.426  1.3682  3.1586 -1.4446
  469THF     O1 7225   4.566   0.400   0.992 -0.1210  0.0817 -0.1060
  469THF     C2 7226   4.582   0.399   1.134  0.2160  0.2826 -0.0172
  469THF     C3 7227   4.556   0.267   0.940  0.4890 -0.0883  0.3863
  469THF     H4 7228   4.483   0.410   1.179 -1.0950 -0.1299 -2.6054
  469THF     H5 7229   4.642   0.484   1.167 -0.5727  2.2490 -3.2755
  469THF     H6 7230   4.456   0.258   0.897  0.3528  1.3381  0.3704
  469THF     H7 7231   4.629   0.264   0.860  1.9547 -1.9025  1.6913
  469THF     C8 7232   4.585   0.161   1.051  0.2523 -0.3925  0.6197
  469THF     C9 7233   4.632   0.252   1.162 -0.4398 -0.8663  0.1828
  469THF    H10 7234   4.665   0.096   1.017  0.5813 -0.9891  2.3995
  469THF    H11 7235   4.491   0.115   1.083 -1.3685  2.6273  0.5972
  469THF    H12 7236   4.593   0.213   1.256  2.9192  1.2061  2.6664
  469THF    H13 7237   4.741   0.249   1.164 -0.4167 -1.4690 -1.0692
  470THF     O1 7238   3.974   4.812   0.589  0.1005 -0.3964 -0.1598
  470THF     C2 7239   4.091   4.775   0.660 -0.7901  0.3352 -0.0814
  470THF     C3 7240   3.966   4.714   0.474  0.0165  0.1471 -0.1284
  470THF     H4 7241   4.069   4.698   0.734 -1.3771  2.2330  1.8355
  470THF     H5 7242   4.127   4.859   0.720  0.3220 -0.9141  1.0692
  470THF     H6 7243   3.911   4.621   0.491 -3.7835  2.2529  0.4028
  470THF     H7 7244   3.923   4.768   0.390  1.2727  1.9882  0.3571
  470THF     C8 7245   4.118   4.683   0.443  0.1887 -0.2721  0.2522
  470THF     C9 7246   4.193   4.731   0.565 -0.1004 -0.0768  0.1897
  470THF    H10 7247   4.150   4.731   0.351  0.6881 -1.9362 -0.4811
  470THF    H11 7248   4.132   4.576   0.429  2.8866 -0.2389  1.8845
  470THF    H12 7249   4.248   4.648   0.610 -2.4213 -1.2882  1.0096
  470THF    H13 7250   4.254   4.813   0.528  0.2680 -0.9000 -1.1054
  471THF     O1 7251   3.879   4.311   5.280  0.7601 -0.0996  0.1458
  471THF     C2 7252   4.004   4.333   5.339 -0.1599  0.0179  0.3334
  471THF     C3 7253   3.886   4.309   5.139  0.2782  0.3522 -0.0008
  471THF     H4 7254   4.044   4.234   5.359 -1.2762 -0.4921  0.1447
  471THF     H5 7255   3.997   4.371   5.441  1.3092  0.2030  0.3859
  471THF     H6 7256   3.891   4.203   5.113  1.3048  0.5002 -0.4844
  471THF     H7 7257   3.802   4.358   5.091 -0.4240  0.7782  1.5917
  471THF     C8 7258   4.016   4.368   5.088  0.4019  0.0469  0.3123
  471THF     C9 7259   4.075   4.406   5.227 -0.1312  0.7398  0.7922
  471THF    H10 7260   3.991   4.451   5.022  2.3066 -0.9115 -1.7363
  471THF    H11 7261   4.071   4.295   5.029 -0.5229  0.5720 -1.2506
  471THF    H12 7262   4.179   4.375   5.225 -1.0116 -2.7086 -2.4072
  471THF    H13 7263   4.064   4.514   5.236 -1.8966  0.9767 -2.5034
  472THF     O1 7264   2.553   0.829   2.468  0.0758  0.2983 -0.4194
  472THF     C2 7265   2.456   0.919   2.412  0.2257 -0.0668  0.0581
  472THF     C3 7266   2.666   0.901   2.495  0.9016 -0.5855  0.1844
  472THF     H4 7267   2.356   0.876   2.409 -0.1350  0.5276  1.8504
  472THF     H5 7268   2.498   0.944   2.315 -0.5604 -1.5020 -0.6799
  472THF     H6 7269   2.735   0.846   2.560  1.1262  0.9920  1.3352
  472THF     H7 7270   2.712   0.925   2.400  0.2832 -0.6667 -0.1372
  472THF     C8 7271   2.613   1.026   2.562 -0.7271  0.0274 -0.3321
  472THF     C9 7272   2.469   1.036   2.512  0.1129 -0.5101 -0.1439
  472THF    H10 7273   2.674   1.115   2.543 -1.7600  0.8847  0.2662
  472THF    H11 7274   2.603   1.008   2.669 -0.3223 -0.0212 -0.2987
  472THF    H12 7275   2.410   1.015   2.601 -0.4876 -0.2649 -0.4688
  472THF    H13 7276   2.443   1.137   2.479 -1.2799 -0.8247 -0.0976
  473THF     O1 7277   1.555   3.476   2.448 -0.2183 -0.7411 -0.0686
  473THF     C2 7278   1.499   3.574   2.358 -0.2646  0.4327 -0.7387
  473THF     C3 7279   1.501   3.352   2.420  0.3287  0.0646 -0.1116
  473THF     H4 7280   1.556   3.667   2.359 -1.3670  1.1469  1.0624
  473THF     H5 7281   1.404   3.599   2.406  0.7328 -1.2104  2.3837
  473THF     H6 7282   1.564   3.268   2.449 -0.7240 -0.2552  1.3694
  473THF     H7 7283   1.403   3.345   2.468 -0.1101 -1.6538 -1.1651
  473THF     C8 7284   1.489   3.349   2.270 -0.1674  0.3110 -0.1573
  473THF     C9 7285   1.507   3.491   2.229  0.2108 -0.3107  0.0460
  473THF    H10 7286   1.394   3.313   2.229 -0.3200 -1.0976  1.3412
  473THF    H11 7287   1.570   3.282   2.239 -0.4807 -0.6846  1.0884
  473THF    H12 7288   1.597   3.516   2.173  0.0416 -0.7776 -0.4342
  473THF    H13 7289   1.425   3.518   2.162  0.3874 -3.2339 -1.4934
  474THF     O1 7290   0.119   3.620   5.180 -0.8932 -0.9046  0.1954
  474THF     C2 7291   0.090   3.685   5.302 -0.5397  0.3484  0.3962
  474THF     C3 7292   0.004   3.569   5.126  0.9286 -0.2069 -0.4062
  474THF     H4 7293   0.165   3.755   5.338 -0.8066  0.0990  1.4576
  474THF     H5 7294   0.073   3.618   5.386 -1.5867  0.5702  0.3793
  474THF     H6 7295   0.006   3.580   5.017 -0.4049 -2.0293 -0.6634
  474THF     H7 7296  -0.016   3.463   5.143 -2.7644  0.5028  0.5707
  474THF     C8 7297  -0.106   3.669   5.177 -0.1001 -0.0732 -0.2124
  474THF     C9 7298  -0.035   3.760   5.274 -0.3178  0.5875  1.1624
  474THF    H10 7299  -0.186   3.611   5.222  0.0014  0.7880  1.1503
  474THF    H11 7300  -0.152   3.720   5.093  0.1646 -3.2513 -2.4752
  474THF    H12 7301  -0.009   3.850   5.218 -1.8723  0.7441  0.6433
  474THF    H13 7302  -0.096   3.780   5.362 -1.3298 -0.8849  0.8238
  475THF     O1 7303   5.237   1.141   1.341  0.3571 -0.4727  0.4769
  475THF     C2 7304   5.224   1.188   1.472 -1.0720  0.1363  0.7515
  475THF     C3 7305   5.115   1.071   1.325  0.4923 -0.2895 -0.1519
  475THF     H4 7306   5.171   1.283   1.466  0.4960  0.9690 -1.7371
  475THF     H5 7307   5.323   1.216   1.509 -0.8064  2.2151 -1.2499
  475THF     H6 7308   5.040   1.149   1.315 -0.2182 -0.5955  2.0912
  475THF     H7 7309   5.118   1.014   1.232 -2.4566  1.2028 -1.3137
  475THF     C8 7310   5.081   0.992   1.454  0.7908  0.3331 -0.2835
  475THF     C9 7311   5.152   1.081   1.555 -0.3740  0.7317  0.6471
  475THF    H10 7312   5.121   0.890   1.449 -2.5140 -1.1821  1.2587
  475THF    H11 7313   4.974   0.975   1.468  1.0051 -0.4222  0.5061
  475THF    H12 7314   5.081   1.136   1.616  0.9061  2.0658  0.9953
  475THF    H13 7315   5.226   1.025   1.612  0.5105  0.4198 -0.7557
  476THF     O1 7316   3.605   2.118   4.760  0.2548 -0.4047 -0.1450
  476THF     C2 7317   3.468   2.148   4.793 -0.0425  0.6592 -0.2494
  476THF     C3 7318   3.681   2.122   4.880 -0.7022 -0.2112  0.4262
  476THF     H4 7319   3.413   2.069   4.845  0.9648 -0.0933 -0.2916
  476THF     H5 7320   3.399   2.167   4.711 -2.1885 -1.5128  0.9054
  476THF     H6 7321   3.653   2.046   4.952 -2.1016 -1.1959 -1.0743
  476THF     H7 7322   3.787   2.118   4.855 -0.9983 -1.3749 -0.7774
  476THF     C8 7323   3.639   2.252   4.936  0.0647  0.8873  0.3284
  476THF     C9 7324   3.488   2.261   4.892 -0.2348  0.0315  0.4759
  476THF    H10 7325   3.692   2.328   4.878 -1.2323 -0.5511 -3.0240
  476THF    H11 7326   3.640   2.266   5.044  1.1992  0.6531  0.3592
  476THF    H12 7327   3.408   2.262   4.965 -0.5041 -2.1514  0.3029
  476THF    H13 7328   3.476   2.355   4.839  1.8064 -1.1436 -2.3972
  477THF     O1 7329   3.448   3.725   0.719  0.0263 -0.0340 -0.3884
  477THF     C2 7330   3.336   3.810   0.726  1.0690 -0.7334  0.1633
  477THF     C3 7331   3.428   3.644   0.603 -0.3087 -0.1638 -0.3393
  477THF     H4 7332   3.358   3.914   0.751 -0.0491 -0.1174 -1.2920
  477THF     H5 7333   3.259   3.780   0.797  0.9937  0.4416  0.6068
  477THF     H6 7334   3.520   3.600   0.564 -0.3477 -0.4338 -0.1306
  477THF     H7 7335   3.374   3.554   0.633 -0.2513 -0.4281 -1.0031
  477THF     C8 7336   3.369   3.730   0.500  0.0336  0.4715  0.3469
  477THF     C9 7337   3.281   3.823   0.582 -0.8111  0.1232  0.2207
  477THF    H10 7338   3.317   3.671   0.424  2.6196  0.6001 -1.6570
  477THF    H11 7339   3.447   3.787   0.450  0.1397 -1.3747 -1.7458
  477THF    H12 7340   3.272   3.920   0.534 -2.9641 -0.0556  0.1699
  477THF    H13 7341   3.175   3.798   0.590 -0.8506 -0.4692 -1.6144
  478THF     O1 7342   1.077   4.823   1.574 -0.1487  0.4770  0.1804
  478THF     C2 7343   1.168   4.799   1.471 -0.3175 -0.2188 -0.0176
  478THF     C3 7344   1.087   4.705   1.656  0.3053  0.5722 -0.5427
  478THF     H4 7345   1.195   4.894   1.425 -0.6054 -0.0383  0.1789
  478THF     H5 7346   1.128   4.732   1.395  0.3058 -0.4662 -0.1325
  478THF     H6 7347   1.057   4.730   1.758 -0.7679  1.1619 -0.9836
  478THF     H7 7348   1.023   4.626   1.617  1.5002 -0.4911 -0.3720
  478THF     C8 7349   1.236   4.663   1.657  0.3734 -0.0159 -0.0391
  478THF     C9 7350   1.298   4.746   1.548  0.2873  0.4399  0.2335
  478THF    H10 7351   1.241   4.558   1.629 -3.3498 -0.2840 -0.1458
  478THF    H11 7352   1.282   4.674   1.755  0.3546  3.2556 -0.2909
  478THF    H12 7353   1.353   4.830   1.592 -0.7038  1.5956 -0.6843
  478THF    H13 7354   1.362   4.692   1.478 -1.0828  0.7643 -1.3214
  479THF     O1 7355   3.798   0.433   3.395  0.3610 -0.6019  0.2219
  479THF     C2 7356   3.921   0.376   3.345  1.1750  1.1286  0.6929
  479THF     C3 7357   3.722   0.337   3.466 -0.5280 -0.3438 -0.8342
  479THF     H4 7358   4.005   0.396   3.412  2.1555  0.7421 -0.3804
  479THF     H5 7359   3.956   0.424   3.254 -0.6367  2.2308  0.5249
  479THF     H6 7360   3.739   0.331   3.574 -2.2429 -2.0852 -0.6079
  479THF     H7 7361   3.616   0.359   3.456 -0.6859 -0.3408  0.6605
  479THF     C8 7362   3.755   0.208   3.399 -0.1555  0.5378 -0.4322
  479THF     C9 7363   3.892   0.223   3.346  0.4232 -0.6017 -0.1758
  479THF    H10 7364   3.673   0.193   3.328 -0.3701 -0.2153 -0.0380
  479THF    H11 7365   3.743   0.130   3.474  2.0460  0.3620 -0.1948
  479THF    H12 7366   3.966   0.178   3.412  1.7246  0.4284 -0.8750
  479THF    H13 7367   3.903   0.174   3.249  1.1815 -0.7788 -0.0078
  480THF     O1 7368   2.449   5.283   4.407  0.0508 -0.0257 -0.0504
  480THF     C2 7369   2.365   5.267   4.524 -0.2851 -0.3818  0.6115
  480THF     C3 7370   2.523   5.167   4.382  0.0715  0.5864  0.1344
  480THF     H4 7371   2.275   5.212   4.498  0.6254 -0.6584 -2.3279
  480THF     H5 7372   2.325   5.360   4.565  0.8632  0.0601  0.7709
  480THF     H6 7373   2.455   5.091   4.344 -0.1469  0.2221  1.1995
  480THF     H7 7374   2.603   5.184   4.310  0.0809 -0.3816 -0.0937
  480THF     C8 7375   2.565   5.126   4.523 -0.0624  0.1120  0.0703
  480THF     C9 7376   2.458   5.184   4.612 -0.0495  1.1088 -1.3818
  480THF    H10 7377   2.666   5.163   4.539 -0.4166  0.0313  2.9780
  480THF    H11 7378   2.574   5.017   4.533  0.5255  0.0098 -1.3819
  480THF    H12 7379   2.402   5.105   4.662  1.5881  0.2705 -0.7717
  480THF    H13 7380   2.510   5.244   4.687 -0.3725  1.1688 -1.2049
  481THF     O1 7381   1.723   0.605   0.452 -0.4056 -0.3330 -0.7778
  481THF     C2 7382   1.859   0.575   0.434 -0.0204  0.5633  0.3370
  481THF     C3 7383   1.648   0.569   0.342 -0.0069 -0.4181  0.8887
  481THF     H4 7384   1.851   0.497   0.509  2.2910 -1.1482 -1.0467
  481THF     H5 7385   1.924   0.658   0.463  0.3090  0.7316 -0.8078
  481THF     H6 7386   1.551   0.528   0.370 -0.2925 -0.0509  0.4414
  481THF     H7 7387   1.624   0.660   0.287  0.4981 -1.2064 -0.6815
  481THF     C8 7388   1.735   0.474   0.261 -0.1619 -0.0077 -0.2969
  481THF     C9 7389   1.877   0.521   0.291  0.1279 -0.3979 -0.1208
  481THF    H10 7390   1.708   0.468   0.155 -1.8570 -3.5681  0.1695
  481THF    H11 7391   1.715   0.375   0.302  0.2770  0.2941  0.6790
  481THF    H12 7392   1.959   0.451   0.272 -0.5495 -1.3488  0.3853
  481THF    H13 7393   1.903   0.604   0.225 -2.9580 -0.9686 -2.2616
  482THF     O1 7394   5.230   0.340   0.158 -0.3518  0.3782 -0.2140
  482THF     C2 7395   5.269   0.409   0.274 -0.4303 -0.3804  0.1271
  482THF     C3 7396   5.336   0.355   0.065 -0.3284  0.3422  0.1841
  482THF     H4 7397   5.249   0.344   0.359 -2.4805 -0.0889 -0.0762
  482THF     H5 7398   5.212   0.501   0.287  0.7283  0.4427 -0.4720
  482THF     H6 7399   5.330   0.284  -0.018  0.5050  0.7082 -0.2057
  482THF     H7 7400   5.347   0.453   0.020  1.2197 -0.8672 -2.3303
  482THF     C8 7401   5.453   0.327   0.148 -0.5564 -0.1977 -0.2787
  482THF     C9 7402   5.427   0.426   0.263  0.1643  0.4654  0.0406
  482THF    H10 7403   5.548   0.326   0.096 -1.6355 -1.7127 -2.4167
  482THF    H11 7404   5.445   0.226   0.188  0.0695  0.0561  0.4928
  482THF    H12 7405   5.483   0.399   0.352 -0.7128 -0.2335  0.3984
  482THF    H13 7406   5.461   0.527   0.243  0.6456  0.1007 -1.0466
  483THF     O1 7407   0.390   0.792   0.385 -0.1762  0.2130  0.1567
  483THF     C2 7408   0.384   0.681   0.286 -0.1971  0.2551 -0.2285
  483THF     C3 7409   0.260   0.848   0.402  0.0180  0.2861  1.0898
  483THF     H4 7410   0.458   0.602   0.302  1.8702  1.9084 -1.2105
  483THF     H5 7411   0.394   0.728   0.189 -1.6686  0.5232 -0.2806
  483THF     H6 7412   0.260   0.886   0.504 -1.5160  1.2095  0.7705
  483THF     H7 7413   0.257   0.931   0.332  0.8284 -0.1378  0.5363
  483THF     C8 7414   0.158   0.738   0.367  0.3653  0.1780  0.3420
  483THF     C9 7415   0.242   0.629   0.297  0.2634  0.3344 -0.2000
  483THF    H10 7416   0.069   0.774   0.316 -1.0935 -1.5600  1.5665
  483THF    H11 7417   0.124   0.685   0.456  1.3402 -0.3303  0.4235
  483THF    H12 7418   0.225   0.532   0.343 -0.6482 -1.2570 -3.5814
  483THF    H13 7419   0.206   0.613   0.195 -0.3976  1.3698 -0.1511
  484THF     O1 7420   0.240   5.457   3.285 -0.1439 -0.0767 -0.0384
  484THF     C2 7421   0.138   5.527   3.353 -0.4804 -0.6104 -0.2105
  484THF     C3 7422   0.350   5.545   3.284  0.3973  0.3547  0.6416
  484THF     H4 7423   0.120   5.473   3.446 -1.1314 -1.4107 -0.7880
  484THF     H5 7424   0.043   5.516   3.301 -0.6718 -1.3239  0.2692
  484THF     H6 7425   0.412   5.530   3.373  1.0768 -0.2847  0.0756
  484THF     H7 7426   0.417   5.515   3.203 -1.0786  2.3364 -1.4131
  484THF     C8 7427   0.291   5.688   3.279  0.2417 -0.0965 -0.6016
  484THF     C9 7428   0.171   5.674   3.377 -0.2635 -0.8693 -0.3163
  484THF    H10 7429   0.269   5.710   3.175 -1.8757  0.2152 -0.1367
  484THF    H11 7430   0.365   5.759   3.317 -0.0829 -0.4236  0.6814
  484THF    H12 7431   0.201   5.694   3.480  1.0422 -0.2007 -0.7994
  484THF    H13 7432   0.085   5.736   3.352  1.6500  1.1504 -2.4631
  485THF     O1 7433   5.302   2.274   4.734 -0.3881  0.1423  1.0991
  485THF     C2 7434   5.187   2.296   4.657  0.1230 -0.1766 -0.0561
  485THF     C3 7435   5.314   2.127   4.752 -0.4834  0.1088  0.0776
  485THF     H4 7436   5.215   2.375   4.587  0.3769  0.2739  0.5480
  485THF     H5 7437   5.107   2.335   4.721  0.9931  1.6728 -0.0410
  485THF     H6 7438   5.394   2.105   4.681 -0.3210  3.3311 -0.9056
  485THF     H7 7439   5.349   2.098   4.852  1.0226 -3.2366 -1.2700
  485THF     C8 7440   5.187   2.065   4.709 -0.0438 -0.5956  0.1187
  485THF     C9 7441   5.142   2.164   4.600  0.3612 -0.7531  0.3377
  485THF    H10 7442   5.115   2.079   4.790  1.1836 -0.2222  1.1608
  485THF    H11 7443   5.191   1.960   4.682 -2.3087 -0.5045 -0.8658
  485THF    H12 7444   5.192   2.140   4.506  0.0673 -2.0831  0.4952
  485THF    H13 7445   5.035   2.150   4.582  0.3690  0.5877 -0.9508
  486THF     O1 7446   0.184   2.238   2.400  0.1315 -0.5202 -0.2189
  486THF     C2 7447   0.258   2.342   2.335 -0.1679 -0.8163  1.0689
  486THF     C3 7448   0.049   2.239   2.348 -0.1480 -0.7952 -0.4726
  486THF     H4 7449   0.258   2.319   2.228 -2.9027 -0.6540  0.9561
  486THF     H5 7450   0.357   2.366   2.374  0.2968  3.4289 -1.9551
  486THF     H6 7451   0.041   2.217   2.241  1.3264 -2.0821 -0.3544
  486THF     H7 7452  -0.027   2.175   2.393  0.2770 -2.7380 -2.3034
  486THF     C8 7453   0.011   2.387   2.371 -0.2060 -0.8493 -0.6880
  486THF     C9 7454   0.151   2.458   2.365 -0.5642 -0.5930 -0.4152
  486THF    H10 7455  -0.042   2.411   2.463 -0.8309 -1.3162 -0.9173
  486THF    H11 7456  -0.046   2.438   2.293  1.1521  3.0730  0.6150
  486THF    H12 7457   0.155   2.532   2.285  1.3231  0.0493  0.2237
  486THF    H13 7458   0.188   2.497   2.459  0.6219 -0.4684 -0.9160
  487THF     O1 7459   2.338   3.424   5.286  0.2064 -0.2003  0.1405
  487THF     C2 7460   2.295   3.299   5.347 -0.5517  0.0079  0.3191
  487THF     C3 7461   2.222   3.470   5.211 -0.0559  0.0946 -0.0561
  487THF     H4 7462   2.242   3.323   5.440  0.5307 -2.0446  1.5410
  487THF     H5 7463   2.383   3.238   5.364  0.5115  1.2068 -0.7248
  487THF     H6 7464   2.147   3.504   5.282  0.6405 -1.2249  1.3722
  487THF     H7 7465   2.240   3.546   5.134 -3.0053  1.5789  0.5781
  487THF     C8 7466   2.165   3.349   5.144 -0.3117  0.1614  0.7772
  487THF     C9 7467   2.217   3.235   5.233  0.8080 -0.2913 -0.1786
  487THF    H10 7468   2.203   3.333   5.043  1.0958  0.4089  1.2514
  487THF    H11 7469   2.056   3.353   5.137 -0.3614 -0.8050  0.9002
  487THF    H12 7470   2.129   3.179   5.264  0.2505  1.0411  0.7465
  487THF    H13 7471   2.290   3.175   5.179  1.3053  0.4471 -0.3363
  488THF     O1 7472   4.045   1.022   1.855 -0.8201  0.5345 -0.4795
  488THF     C2 7473   4.085   0.994   1.721 -0.0316 -0.1089  0.1371
  488THF     C3 7474   4.143   1.118   1.906 -0.1228 -0.4844 -0.4246
  488THF     H4 7475   4.005   0.954   1.659 -2.1816 -0.3970  2.9098
  488THF     H5 7476   4.164   0.919   1.724  0.8073  0.7366 -0.1680
  488THF     H6 7477   4.094   1.174   1.985 -2.1428 -2.2210 -0.3591
  488THF     H7 7478   4.238   1.079   1.945  1.2611  1.7638 -1.3189
  488THF     C8 7479   4.179   1.206   1.791  0.9626 -0.2182 -1.3060
  488THF     C9 7480   4.160   1.116   1.667  0.3399 -0.1712 -0.2315
  488THF    H10 7481   4.279   1.246   1.807  0.9009 -0.0881 -1.2512
  488THF    H11 7482   4.121   1.298   1.799  1.0397 -0.1577 -1.4554
  488THF    H12 7483   4.098   1.179   1.603  1.5572  1.2921 -0.0541
  488THF    H13 7484   4.242   1.083   1.604 -0.2350 -1.1023 -0.4958
  489THF     O1 7485   3.414   0.769   0.266  0.0763  0.4596 -0.1029
  489THF     C2 7486   3.430   0.828   0.137  0.1055 -0.3479 -0.0403
  489THF     C3 7487   3.372   0.865   0.356  0.1929 -0.8032 -0.8338
  489THF     H4 7488   3.348   0.780   0.083 -0.9829  0.1250  1.1398
  489THF     H5 7489   3.524   0.813   0.086 -0.9065 -0.4347 -1.9581
  489THF     H6 7490   3.306   0.821   0.430 -1.0656 -0.5835 -1.7824
  489THF     H7 7491   3.459   0.893   0.415 -0.8759  1.5338 -0.2544
  489THF     C8 7492   3.321   0.978   0.271 -0.1960 -0.7429 -0.2695
  489THF     C9 7493   3.406   0.977   0.148  0.0898 -0.6409 -1.1988
  489THF    H10 7494   3.319   1.072   0.326  1.8546 -0.4367 -0.6451
  489THF    H11 7495   3.216   0.959   0.248 -0.2780 -0.8238  0.1581
  489THF    H12 7496   3.354   1.025   0.065 -0.0014  2.4751  0.4985
  489THF    H13 7497   3.505   1.022   0.164  0.1978 -1.7299  1.7574
  490THF     O1 7498   0.657   4.808   3.423  0.4112 -0.0170  0.4763
  490THF     C2 7499   0.596   4.737   3.536 -0.0546 -0.6248 -0.2577
  490THF     C3 7500   0.795   4.813   3.441  0.3277 -0.3740 -0.7014
  490THF     H4 7501   0.619   4.631   3.529 -0.7469 -0.9493  1.7642
  490THF     H5 7502   0.487   4.742   3.539 -0.1306 -2.2252  1.3870
  490THF     H6 7503   0.824   4.719   3.395 -0.2413 -0.1539 -1.5278
  490THF     H7 7504   0.836   4.898   3.387 -1.3626  1.1695  0.3401
  490THF     C8 7505   0.808   4.810   3.595  0.3470 -0.5540 -0.1699
  490THF     C9 7506   0.667   4.812   3.647  0.3320 -0.4207 -0.3739
  490THF    H10 7507   0.870   4.895   3.623  1.9351 -1.8145  0.3027
  490THF    H11 7508   0.862   4.722   3.632 -0.4410 -0.7889  0.4615
  490THF    H12 7509   0.669   4.774   3.749 -0.1895  0.3151 -0.0804
  490THF    H13 7510   0.639   4.917   3.655 -0.4351 -0.5522 -1.1349
  491THF     O1 7511   1.180   3.815   3.297  0.0949 -0.5780 -0.1425
  491THF     C2 7512   1.311   3.771   3.257  0.7874  0.6001  0.0868
  491THF     C3 7513   1.101   3.816   3.177 -0.4504  0.1683 -0.5388
  491THF     H4 7514   1.382   3.744   3.335 -1.0246 -2.3776  0.8799
  491THF     H5 7515   1.366   3.847   3.203  2.5193 -1.1170 -0.6793
  491THF     H6 7516   0.992   3.823   3.184 -0.6263 -2.4497  0.5574
  491THF     H7 7517   1.142   3.901   3.123  0.0046  0.9239  0.9469
  491THF     C8 7518   1.145   3.684   3.118 -0.2349  1.3448 -0.2245
  491THF     C9 7519   1.288   3.647   3.155 -0.7661  0.4262  0.3237
  491THF    H10 7520   1.127   3.678   3.010 -1.3222  2.2541 -0.1214
  491THF    H11 7521   1.081   3.601   3.145 -0.0311  1.1172 -0.4342
  491THF    H12 7522   1.287   3.552   3.208  2.4341 -0.4653 -0.9936
  491THF    H13 7523   1.364   3.643   3.077 -0.3467 -1.5003  0.7799
  492THF     O1 7524   5.457   1.960   4.259 -0.1787 -0.4959 -0.1017
  492THF     C2 7525   5.553   1.916   4.159  0.0861  0.0159  0.3276
  492THF     C3 7526   5.481   2.096   4.298  0.6438  0.0223 -0.5142
  492THF     H4 7527   5.494   1.909   4.067 -1.4386 -0.8970  1.3230
  492THF     H5 7528   5.610   1.826   4.182  2.0545  1.6265  2.2149
  492THF     H6 7529   5.390   2.153   4.314  0.1181 -1.1399  0.8668
  492THF     H7 7530   5.538   2.099   4.391 -1.3181 -0.8872  0.7994
  492THF     C8 7531   5.557   2.152   4.186 -0.6307 -0.2469 -0.2774
  492THF     C9 7532   5.638   2.038   4.135 -0.5735 -0.4194 -0.0090
  492THF    H10 7533   5.619   2.238   4.210  0.5263  0.2375 -4.2889
  492THF    H11 7534   5.486   2.186   4.111 -0.4204  0.9071  0.0403
  492THF    H12 7535   5.666   2.054   4.031  1.8177  0.1545  0.6627
  492THF    H13 7536   5.729   2.027   4.194 -0.6769 -2.4387 -0.1456
  493THF     O1 7537   2.314   5.246   2.584 -0.6816 -0.5030 -0.7532
  493THF     C2 7538   2.433   5.179   2.562  0.1017 -0.2800 -0.5985
  493THF     C3 7539   2.213   5.149   2.599  0.3426  0.2634 -0.2418
  493THF     H4 7540   2.480   5.172   2.659  0.1103  2.4259 -0.3454
  493THF     H5 7541   2.490   5.245   2.497 -1.4852  1.4983 -0.2722
  493THF     H6 7542   2.218   5.103   2.697  0.7131  2.6508  0.9161
  493THF     H7 7543   2.113   5.185   2.573 -1.3455 -1.8730  2.6662
  493THF     C8 7544   2.250   5.044   2.502 -0.1519  0.1065 -0.1351
  493THF     C9 7545   2.401   5.045   2.496  0.3252 -0.5660  0.3850
  493THF    H10 7546   2.207   5.062   2.403 -0.6007 -2.8069 -0.5873
  493THF    H11 7547   2.219   4.944   2.535  0.3179 -0.5973 -1.6963
  493THF    H12 7548   2.439   4.966   2.561 -0.3937 -1.2264  0.0176
  493THF    H13 7549   2.432   5.034   2.391  0.5059  2.1679  0.0847
  494THF     O1 7550   1.578   3.116   3.205  0.2962  0.5733  0.0940
  494THF     C2 7551   1.669   3.202   3.135  0.5946 -0.9165  0.2690
  494THF     C3 7552   1.443   3.142   3.170 -0.4205  0.2820 -0.1224
  494THF     H4 7553   1.736   3.148   3.068 -0.3806  0.0179 -1.5336
  494THF     H5 7554   1.740   3.244   3.206  0.8036 -0.2431 -0.3348
  494THF     H6 7555   1.427   3.072   3.087  0.3700 -2.3371  1.7957
  494THF     H7 7556   1.378   3.117   3.254 -1.2911  1.4127 -0.4328
  494THF     C8 7557   1.443   3.294   3.139  0.4746  0.3919  0.2192
  494THF     C9 7558   1.574   3.309   3.067  0.3445 -0.3805 -0.2593
  494THF    H10 7559   1.433   3.355   3.229 -1.4502  2.4059 -1.2720
  494THF    H11 7560   1.359   3.325   3.077  0.4450 -1.5134 -0.7695
  494THF    H12 7561   1.554   3.281   2.964  3.1603 -1.5640 -0.5873
  494THF    H13 7562   1.597   3.416   3.074 -0.1578 -0.1255 -2.0219
  495THF     O1 7563   3.237   3.412   3.985 -0.5243  0.3133 -0.1418
  495THF     C2 7564   3.234   3.493   3.873 -0.3799 -0.6822 -0.0467
  495THF     C3 7565   3.333   3.468   4.073 -0.1114 -0.2118 -0.7374
  495THF     H4 7566   3.178   3.584   3.892  1.0833  0.4698 -1.0323
  495THF     H5 7567   3.191   3.443   3.786 -0.7453  1.3568 -1.0882
  495THF     H6 7568   3.295   3.553   4.129 -0.7665 -0.0866 -1.3494
  495THF     H7 7569   3.384   3.409   4.149 -0.8613  2.2529  1.8878
  495THF     C8 7570   3.449   3.507   3.982  0.0855 -0.0880  0.2561
  495THF     C9 7571   3.385   3.536   3.848  0.6853  0.7322  0.0594
  495THF    H10 7572   3.521   3.427   3.964 -1.3397 -1.3383 -0.0378
  495THF    H11 7573   3.516   3.590   4.002  1.6322 -1.3534  0.5281
  495THF    H12 7574   3.381   3.642   3.821  0.4331  0.7595  0.2029
  495THF    H13 7575   3.421   3.474   3.766  1.6066  1.1610  0.1292
  496THF     O1 7576   2.670   2.594   5.132 -0.3749 -0.1220 -0.2985
  496THF     C2 7577   2.622   2.549   5.254 -0.0588  0.0630  0.5050
  496THF     C3 7578   2.805   2.550   5.117 -0.0830  0.0471  0.2882
  496THF     H4 7579   2.596   2.444   5.242  0.5494  0.0182 -0.5791
  496THF     H5 7580   2.530   2.602   5.279  0.2279  1.6379 -1.5393
  496THF     H6 7581   2.825   2.449   5.080  1.9103  0.4585  0.1345
  496THF     H7 7582   2.863   2.619   5.056 -1.1391 -0.0248 -0.8484
  496THF     C8 7583   2.852   2.539   5.258  0.0194 -0.6575  0.2279
  496THF     C9 7584   2.737   2.578   5.346  0.0122 -0.2067 -0.1318
  496THF    H10 7585   2.936   2.606   5.275 -0.6294  1.3967 -3.5720
  496THF    H11 7586   2.869   2.434   5.282 -0.4393 -0.5611  0.9939
  496THF    H12 7587   2.748   2.531   5.444  0.1614 -0.7280 -0.3929
  496THF    H13 7588   2.731   2.684   5.371  1.0759 -0.0625 -0.4056
  497THF     O1 7589   1.242   0.350   4.142 -0.6014  0.2010  0.2748
  497THF     C2 7590   1.257   0.393   4.013  0.3934  0.4387 -0.0127
  497THF     C3 7591   1.352   0.389   4.224  0.1295  0.3350  0.3534
  497THF     H4 7592   1.167   0.453   3.997  0.3051  0.7340  1.4324
  497THF     H5 7593   1.253   0.314   3.939 -0.9545  0.9682 -0.5488
  497THF     H6 7594   1.328   0.404   4.329 -0.2713 -0.2655  0.3504
  497THF     H7 7595   1.430   0.314   4.238  0.2217  0.0241 -1.5041
  497THF     C8 7596   1.410   0.513   4.157  0.4846  0.6756  0.0448
  497THF     C9 7597   1.388   0.480   4.012 -0.0289  0.7555  0.0922
  497THF    H10 7598   1.515   0.526   4.187  0.0378  0.9263  1.6016
  497THF    H11 7599   1.348   0.600   4.178 -1.0066 -0.4616  0.4452
  497THF    H12 7600   1.382   0.568   3.948  1.2141  1.0030  0.3020
  497THF    H13 7601   1.470   0.421   3.970  0.3371  0.6148  0.9926
  498THF     O1 7602   1.620   3.660   2.931 -0.1248 -0.1498  0.3570
  498THF     C2 7603   1.573   3.656   2.800 -1.2099 -0.4612  0.4952
  498THF     C3 7604   1.712   3.772   2.946 -0.6836 -0.0798  0.1418
  498THF     H4 7605   1.483   3.595   2.795 -1.4964 -0.0368  0.4919
  498THF     H5 7606   1.652   3.612   2.739  0.6428  0.3801  2.1674
  498THF     H6 7607   1.695   3.817   3.043 -0.9102 -2.3647  1.2226
  498THF     H7 7608   1.814   3.733   2.939 -0.5040  0.6001 -1.5490
  498THF     C8 7609   1.683   3.862   2.820  0.3307  0.2860  0.0849
  498THF     C9 7610   1.559   3.802   2.756 -0.3516  0.2350  0.0707
  498THF    H10 7611   1.770   3.850   2.755  0.3837  0.5636  0.1042
  498THF    H11 7612   1.668   3.964   2.854  1.6994  1.7610 -3.2504
  498THF    H12 7613   1.466   3.833   2.804 -0.4311  1.3327 -0.7484
  498THF    H13 7614   1.542   3.808   2.649 -0.2648 -3.2393 -0.2402
  499THF     O1 7615   5.466   4.477   3.055  0.5606 -0.1115  0.2004
  499THF     C2 7616   5.517   4.345   3.045  0.0780  0.0114  0.5362
  499THF     C3 7617   5.495   4.553   2.937 -0.1810  0.4160 -0.2960
  499THF     H4 7618   5.441   4.285   2.995 -0.1848  0.7817 -0.0174
  499THF     H5 7619   5.520   4.303   3.145 -2.9880 -0.3599  0.5765
  499THF     H6 7620   5.426   4.547   2.853  0.5132  0.4907 -0.8799
  499THF     H7 7621   5.506   4.659   2.961  1.6120 -0.1600  1.6583
  499THF     C8 7622   5.625   4.488   2.878 -0.4065 -0.4115 -0.0205
  499THF     C9 7623   5.656   4.375   2.979  0.3384  0.1054 -0.4155
  499THF    H10 7624   5.718   4.544   2.870  0.5673 -2.0038 -0.5048
  499THF    H11 7625   5.599   4.443   2.782  0.1931 -1.3149  0.2190
  499THF    H12 7626   5.698   4.291   2.923  0.5148  0.0472 -0.1968
  499THF    H13 7627   5.725   4.415   3.053  0.0725  1.3904 -0.8311
  500THF     O1 7628   3.104   0.189   5.016  0.1870 -0.1960 -0.5334
  500THF     C2 7629   3.146   0.050   4.999 -0.1626 -0.8938 -0.4896
  500THF     C3 7630   3.142   0.253   4.895  0.8552  0.1431  0.4080
  500THF     H4 7631   3.068   0.010   4.936 -2.3512  0.2173  1.3669
  500THF     H5 7632   3.145  -0.006   5.092 -1.0885 -0.9144 -0.5083
  500THF     H6 7633   3.085   0.219   4.808  0.0696  1.3413  0.4290
  500THF     H7 7634   3.128   0.361   4.904 -1.1564  0.1412 -1.7211
  500THF     C8 7635   3.288   0.209   4.884  0.1888  0.0387 -0.4991
  500THF     C9 7636   3.279   0.063   4.924 -0.1664  0.0408 -0.2200
  500THF    H10 7637   3.344   0.262   4.961 -0.9952 -0.6643  0.8747
  500THF    H11 7638   3.336   0.222   4.786 -1.6673  1.4269 -1.2930
  500THF    H12 7639   3.263   0.002   4.834 -0.7353  2.2622 -1.7144
  500THF    H13 7640   3.366   0.036   4.982 -1.0055 -2.5100 -0.0060
  501THF     O1 7641   3.774   3.143   1.292 -0.3940 -0.1196 -0.5011
  501THF     C2 7642   3.874   3.090   1.210 -0.5272 -0.2280 -0.1635
  501THF     C3 7643   3.736   3.052   1.388 -0.0327 -0.2053 -0.2788
  501THF     H4 7644   3.929   3.170   1.160  1.2943 -2.9352 -2.8942
  501THF     H5 7645   3.829   3.037   1.126 -0.8931 -0.0072 -0.1087
  501THF     H6 7646   3.679   3.082   1.476 -1.7942  1.4039 -1.8984
  501THF     H7 7647   3.678   2.973   1.341  0.1161 -0.6584  0.2847
  501THF     C8 7648   3.878   3.009   1.436 -0.0956 -0.2076 -0.4577
  501THF     C9 7649   3.962   3.008   1.305 -0.1537 -0.2830 -0.4186
  501THF    H10 7650   3.875   2.919   1.498 -0.3958  0.8207  1.0768
  501THF    H11 7651   3.907   3.089   1.504 -3.4611  0.1711  0.7543
  501THF    H12 7652   4.065   3.042   1.317 -0.7751  1.3643  0.6090
  501THF    H13 7653   3.953   2.911   1.256 -1.1520  0.1685 -1.1773
  502THF     O1 7654   2.032   3.301   4.111  0.0590  0.7202  0.3490
  502THF     C2 7655   2.067   3.172   4.166  0.5387  0.1913  0.5358
  502THF     C3 7656   1.969   3.274   3.986 -0.4328  0.5242 -0.6593
  502THF     H4 7657   2.087   3.169   4.274  2.5101 -0.7806  0.1987
  502THF     H5 7658   2.160   3.143   4.117 -0.4272 -0.1789 -1.1703
  502THF     H6 7659   1.900   3.355   3.964 -0.0898  1.2810  0.8911
  502THF     H7 7660   2.037   3.283   3.903 -0.2626  0.7623 -0.4950
  502THF     C8 7661   1.910   3.134   3.992  0.0923 -0.6406 -0.1407
  502THF     C9 7662   1.943   3.094   4.130  0.0010  0.6165 -0.0781
  502THF    H10 7663   1.954   3.076   3.911 -0.5420  0.5388 -1.3821
  502THF    H11 7664   1.802   3.143   3.984  0.2224 -0.1568 -1.8766
  502THF    H12 7665   1.868   3.119   4.205 -0.9552  0.3086 -0.9093
  502THF    H13 7666   1.962   2.987   4.142  0.8036  0.6348 -1.0157
  503THF     O1 7667   3.983   2.264   0.040  0.2261  0.4049 -0.2633
  503THF     C2 7668   4.046   2.257  -0.083 -0.1859 -0.2661  0.5670
  503THF     C3 7669   3.893   2.150   0.042  0.0521  0.1002  0.8246
  503THF     H4 7670   4.121   2.177  -0.079 -0.4284 -0.5466 -0.1991
  503THF     H5 7671   4.113   2.340  -0.107  3.1291 -2.9914 -0.4372
  503THF     H6 7672   3.934   2.059   0.086  3.4092  2.7270  3.7277
  503THF     H7 7673   3.808   2.172   0.106 -0.9663 -1.3199  0.0118
  503THF     C8 7674   3.852   2.119  -0.104  0.0407 -1.1714  0.1141
  503THF     C9 7675   3.941   2.209  -0.191 -0.1690 -0.2334 -0.3404
  503THF    H10 7676   3.745   2.141  -0.106 -0.0085 -1.0821  1.9867
  503THF    H11 7677   3.858   2.012  -0.125 -2.4175 -1.4127  0.3061
  503THF    H12 7678   3.991   2.151  -0.268 -0.1815 -0.7426  0.0267
  503THF    H13 7679   3.887   2.295  -0.228  0.5800  0.5452  0.3457
  504THF     O1 7680   1.725   5.305   0.814  0.4981 -0.2281 -0.0664
  504THF     C2 7681   1.649   5.231   0.911  0.2541  0.3414 -0.1884
  504THF     C3 7682   1.844   5.349   0.884  0.8804  0.3469 -0.3181
  504THF     H4 7683   1.697   5.133   0.917 -0.0054  0.1624 -0.9317
  504THF     H5 7684   1.543   5.212   0.894 -0.0380  0.7781  1.0654
  504THF     H6 7685   1.900   5.257   0.900  0.2609  0.0085 -0.0607
  504THF     H7 7686   1.908   5.419   0.829  0.4374  1.6192  0.7259
  504THF     C8 7687   1.790   5.395   1.021 -0.3180  0.5671 -0.0353
  504THF     C9 7688   1.664   5.312   1.039  0.2065 -0.0363  0.0233
  504THF    H10 7689   1.763   5.499   1.006  1.6598  1.8694  4.0327
  504THF    H11 7690   1.849   5.397   1.113  1.0371 -0.9882 -0.8150
  504THF    H12 7691   1.672   5.241   1.122  1.4327  0.9105  0.7470
  504THF    H13 7692   1.581   5.380   1.055  0.6405  0.4460  0.2591
  505THF     O1 7693   4.835   4.492   2.847 -0.1889 -0.8574 -0.7768
  505THF     C2 7694   4.702   4.477   2.786 -0.5960 -0.0441 -0.4092
  505THF     C3 7695   4.925   4.391   2.793  0.1178  0.2435  0.1389
  505THF     H4 7696   4.643   4.569   2.786  0.0216  0.3678  0.4454
  505THF     H5 7697   4.637   4.410   2.844  0.6204 -0.7722  0.1513
  505THF     H6 7698   5.031   4.419   2.794  0.7461 -1.8728  2.3523
  505THF     H7 7699   4.916   4.306   2.861 -1.4274  1.9010  2.1239
  505THF     C8 7700   4.875   4.363   2.650 -0.6782 -0.3787 -0.0241
  505THF     C9 7701   4.745   4.443   2.639 -0.1583  0.8885 -0.2208
  505THF    H10 7702   4.861   4.255   2.647  0.6602 -0.5461 -1.1810
  505THF    H11 7703   4.942   4.392   2.569 -1.2127  1.2926  0.0931
  505THF    H12 7704   4.774   4.532   2.583 -0.6963 -0.4654 -2.7740
  505THF    H13 7705   4.665   4.392   2.587  0.5836 -0.0344 -0.4939
  506THF     O1 7706   5.293   3.680   2.514 -0.2547  0.0128 -0.0357
  506THF     C2 7707   5.272   3.677   2.652  0.1720 -0.0465 -0.1082
  506THF     C3 7708   5.221   3.579   2.445 -0.5358  0.4358  0.9574
  506THF     H4 7709   5.216   3.761   2.692  0.2762 -0.2455  0.4742
  506THF     H5 7710   5.359   3.660   2.715 -0.0535  0.0279  0.2265
  506THF     H6 7711   5.171   3.621   2.358 -2.5975 -0.6718  1.5361
  506THF     H7 7712   5.284   3.491   2.436 -1.9847 -0.6665  1.2008
  506THF     C8 7713   5.107   3.540   2.535 -0.1169  0.5145 -0.7578
  506THF     C9 7714   5.185   3.556   2.672 -0.0102  0.2295 -0.4171
  506THF    H10 7715   5.078   3.435   2.527  2.4402 -0.2760 -0.4686
  506THF    H11 7716   5.029   3.616   2.536 -0.1193  0.5539  1.4510
  506THF    H12 7717   5.117   3.566   2.756  1.4764  2.3956  0.6042
  506THF    H13 7718   5.245   3.467   2.691 -3.7209 -2.6025 -0.7740
  507THF     O1 7719   2.826   2.936   1.642 -0.0546 -0.2738 -0.5928
  507THF     C2 7720   2.708   3.002   1.691  0.1766  0.2026  0.0929
  507THF     C3 7721   2.929   2.952   1.742 -0.0140  0.3048 -0.0688
  507THF     H4 7722   2.655   2.944   1.767 -0.2013  0.4459  0.0197
  507THF     H5 7723   2.643   3.019   1.605 -2.9412 -0.5936  2.0896
  507THF     H6 7724   2.899   2.910   1.838  2.5739 -2.0824 -0.1579
  507THF     H7 7725   3.025   2.915   1.706  0.5198  3.1098 -1.7809
  507THF     C8 7726   2.916   3.105   1.765  0.2317  0.0500  0.5310
  507THF     C9 7727   2.765   3.124   1.763 -0.3029 -0.6783 -0.4530
  507THF    H10 7728   2.965   3.168   1.690 -1.7116  0.3213 -0.5871
  507THF    H11 7729   2.962   3.136   1.859  0.7855  0.6638  0.0709
  507THF    H12 7730   2.722   3.141   1.862  0.6899 -1.4508  0.1306
  507THF    H13 7731   2.745   3.212   1.702 -1.7104  0.0019  0.9280
  508THF     O1 7732   1.105   2.365   1.809  0.4765 -0.4960 -0.2227
  508THF     C2 7733   1.143   2.285   1.920 -0.6993 -0.2042  0.3049
  508THF     C3 7734   1.219   2.375   1.728 -0.0770 -0.2301  0.3197
  508THF     H4 7735   1.055   2.249   1.974 -1.1875  1.7914  0.9490
  508THF     H5 7736   1.198   2.352   1.986 -0.7879  0.3077 -0.1308
  508THF     H6 7737   1.217   2.415   1.627 -2.0248  1.1675  0.8507
  508THF     H7 7738   1.295   2.435   1.778  0.6935 -1.9949  1.3787
  508THF     C8 7739   1.260   2.223   1.719  0.1504 -1.2031  0.4093
  508THF     C9 7740   1.226   2.176   1.857  0.3574  0.3786  0.0543
  508THF    H10 7741   1.359   2.196   1.682 -0.8902 -2.2248 -1.8051
  508THF    H11 7742   1.186   2.179   1.652 -1.2372  3.7588 -1.7448
  508THF    H12 7743   1.170   2.083   1.863 -0.2518  0.3334 -3.7762
  508THF    H13 7744   1.318   2.156   1.913 -0.9359  1.3046  2.6719
  509THF     O1 7745   1.040   1.077   0.164 -0.1115 -0.0388 -0.6366
  509THF     C2 7746   1.177   1.109   0.146 -0.2100  0.1312 -0.0134
  509THF     C3 7747   1.026   0.936   0.186  0.2160  0.6408  0.2821
  509THF     H4 7748   1.195   1.214   0.170  2.4975 -0.3616  0.3988
  509THF     H5 7749   1.217   1.093   0.046  2.5475 -1.3355  1.2004
  509THF     H6 7750   0.927   0.904   0.218  0.8669 -0.1235  1.5954
  509THF     H7 7751   1.059   0.888   0.094  1.3645 -1.5129  1.7406
  509THF     C8 7752   1.130   0.921   0.294 -0.3279 -0.0006  0.5190
  509THF     C9 7753   1.241   1.017   0.246 -0.1543  0.0368 -0.0719
  509THF    H10 7754   1.181   0.826   0.306  1.0942  0.4569 -1.3644
  509THF    H11 7755   1.091   0.954   0.390  0.2267 -1.9454  1.4652
  509THF    H12 7756   1.276   1.075   0.332  0.0259 -2.9451  2.0190
  509THF    H13 7757   1.321   0.958   0.202  0.0125 -0.1910  0.5274
  510THF     O1 7758   2.180   5.371   1.200  0.0994  0.4493 -0.2712
  510THF     C2 7759   2.126   5.323   1.327 -0.4440 -0.0897 -0.8846
  510THF     C3 7760   2.172   5.260   1.114  0.1824 -0.1330 -0.3268
  510THF     H4 7761   2.017   5.312   1.326 -0.3834 -0.9478  0.3470
  510THF     H5 7762   2.154   5.393   1.405  1.7703 -1.3898 -0.4396
  510THF     H6 7763   2.065   5.249   1.097 -0.0549  1.5285 -0.0085
  510THF     H7 7764   2.216   5.276   1.016 -2.7271  1.3740 -1.4938
  510THF     C8 7765   2.228   5.149   1.203 -0.3807  0.4026 -0.6692
  510THF     C9 7766   2.189   5.190   1.341 -0.1621 -0.1747 -0.3196
  510THF    H10 7767   2.336   5.136   1.193 -0.2500  0.1305  0.9426
  510THF    H11 7768   2.193   5.046   1.188  2.6899 -1.1437  1.7725
  510THF    H12 7769   2.107   5.124   1.372 -0.4518  0.1228 -0.4416
  510THF    H13 7770   2.263   5.193   1.421 -1.3307  1.1643  0.7615
  511THF     O1 7771   4.511   2.887   0.309  0.4333  0.4161 -0.0301
  511THF     C2 7772   4.511   2.984   0.414 -0.2040  0.1948 -0.1449
  511THF     C3 7773   4.383   2.838   0.276 -0.4557 -0.4197  0.8939
  511THF     H4 7774   4.534   3.082   0.371  0.4171 -0.4968 -1.4317
  511THF     H5 7775   4.585   2.957   0.490 -0.9694 -2.2680 -0.2127
  511THF     H6 7776   4.374   2.837   0.168 -0.5037 -0.5903  0.8987
  511THF     H7 7777   4.381   2.732   0.304  0.3084 -0.9034 -0.7200
  511THF     C8 7778   4.283   2.938   0.337  0.4489 -0.2387  0.1201
  511THF     C9 7779   4.367   2.988   0.460 -0.2562  0.0980  0.0606
  511THF    H10 7780   4.189   2.889   0.361 -0.6637  2.2252  1.1626
  511THF    H11 7781   4.262   3.024   0.274 -0.8298 -0.9665 -0.4977
  511THF    H12 7782   4.332   3.088   0.483 -1.4728  0.1199 -1.6634
  511THF    H13 7783   4.346   2.922   0.544  0.4966 -1.0790 -0.6494
  512THF     O1 7784   0.350   1.969   2.734 -0.9798 -0.1164 -0.7481
  512THF     C2 7785   0.367   2.087   2.646 -0.5445  0.3439 -0.9452
  512THF     C3 7786   0.404   1.863   2.661  0.1751 -0.1221  0.3599
  512THF     H4 7787   0.361   2.179   2.704 -1.9788 -0.1393 -0.2762
  512THF     H5 7788   0.281   2.091   2.579 -2.0690 -0.3319  0.8829
  512THF     H6 7789   0.415   1.777   2.728 -1.0658  0.9262  1.9977
  512THF     H7 7790   0.334   1.830   2.585 -2.6165  2.1781  1.7442
  512THF     C8 7791   0.528   1.916   2.606  0.9331 -0.0190 -0.1254
  512THF     C9 7792   0.497   2.060   2.573  0.5101  0.2193 -0.3737
  512THF    H10 7793   0.570   1.844   2.536  0.0803 -2.3644  1.6473
  512THF    H11 7794   0.601   1.923   2.687  0.3206  1.0177  0.3549
  512THF    H12 7795   0.568   2.132   2.615  1.4383 -0.7542 -0.2122
  512THF    H13 7796   0.485   2.083   2.468 -1.0305  1.0654 -0.0489
  513THF     O1 7797   2.562   5.348   2.835  0.0485 -0.3697  0.6757
  513THF     C2 7798   2.487   5.460   2.798 -0.0600 -0.0029  0.2826
  513THF     C3 7799   2.590   5.362   2.970 -0.3815 -0.1520 -0.7969
  513THF     H4 7800   2.388   5.426   2.828  0.5500 -0.5721  1.7864
  513THF     H5 7801   2.491   5.464   2.689 -2.0785 -0.9499  0.1333
  513THF     H6 7802   2.501   5.343   3.031 -1.9366  0.2919 -2.8085
  513THF     H7 7803   2.663   5.297   3.018 -0.1402  1.8044  1.7181
  513THF     C8 7804   2.632   5.504   2.985 -0.3381  0.1944 -0.2391
  513THF     C9 7805   2.541   5.574   2.887  0.7227  0.1705  0.3353
  513THF    H10 7806   2.731   5.538   2.954 -1.0182  1.1215 -1.5369
  513THF    H11 7807   2.615   5.526   3.090 -0.7128 -0.1450 -0.2278
  513THF    H12 7808   2.463   5.623   2.946  1.4502 -0.6846  2.0855
  513THF    H13 7809   2.603   5.645   2.833  0.4811 -0.1043 -0.3072
  514THF     O1 7810   0.254   0.840   4.297 -0.4223 -0.1864  0.3051
  514THF     C2 7811   0.357   0.936   4.296  0.2382 -0.2447  0.2866
  514THF     C3 7812   0.130   0.907   4.292  0.1832  0.3415 -0.6131
  514THF     H4 7813   0.454   0.893   4.271  0.3932 -0.0527  0.5478
  514THF     H5 7814   0.370   0.974   4.397  0.2541 -0.8132  0.4982
  514THF     H6 7815   0.059   0.828   4.265  0.2584  0.7756 -2.1996
  514THF     H7 7816   0.112   0.957   4.387  0.6787  0.6131 -0.6586
  514THF     C8 7817   0.158   1.013   4.185 -0.3600 -0.7461  0.1187
  514THF     C9 7818   0.305   1.049   4.206  0.9597 -0.6699  0.3420
  514THF    H10 7819   0.093   1.100   4.199  1.0113  0.4859 -0.8022
  514THF    H11 7820   0.140   0.986   4.081  0.8421 -0.2256 -0.2488
  514THF    H12 7821   0.367   1.051   4.117  1.2110  0.8997  0.5283
  514THF    H13 7822   0.312   1.151   4.244  2.7426 -0.0942 -1.4030
  515THF     O1 7823   3.202   3.351   1.120  0.2004  0.1124 -0.3670
  515THF     C2 7824   3.307   3.442   1.175  0.0968  0.1360  0.5754
  515THF     C3 7825   3.107   3.432   1.051  0.5884 -0.0104  0.7084
  515THF     H4 7826   3.395   3.378   1.171 -0.5653 -0.7745 -3.3149
  515THF     H5 7827   3.283   3.472   1.277  0.2431 -0.2096  0.7107
  515THF     H6 7828   3.023   3.389   0.996  2.0144 -1.6399 -0.2884
  515THF     H7 7829   3.055   3.497   1.121  0.2619 -0.4280  0.8581
  515THF     C8 7830   3.201   3.520   0.974 -0.5506  0.4018  0.1374
  515THF     C9 7831   3.319   3.547   1.072 -0.1029 -0.1236  0.3539
  515THF    H10 7832   3.154   3.596   0.911 -1.8778  0.2688  0.9189
  515THF    H11 7833   3.240   3.445   0.904 -1.7145 -2.1700  2.0672
  515THF    H12 7834   3.414   3.549   1.018  0.0711  2.2899  0.6718
  515THF    H13 7835   3.313   3.644   1.120 -1.1465  0.4027 -0.7826
  516THF     O1 7836   4.713   2.875   0.970  0.2154 -0.1429  0.0153
  516THF     C2 7837   4.696   2.744   0.913 -0.4599 -0.0012  0.7845
  516THF     C3 7838   4.842   2.927   0.929  0.2364 -0.0905 -0.2929
  516THF     H4 7839   4.599   2.747   0.862 -0.5838  2.0297  1.0516
  516THF     H5 7840   4.691   2.665   0.988 -0.1373 -0.4614  0.3310
  516THF     H6 7841   4.837   3.033   0.904  0.1700  0.1858  0.8331
  516THF     H7 7842   4.926   2.917   0.997  1.7231  0.7669 -1.9180
  516THF     C8 7843   4.867   2.871   0.795  0.7967 -0.3056  0.4808
  516THF     C9 7844   4.805   2.727   0.807 -0.7116  0.2751 -0.5722
  516THF    H10 7845   4.975   2.862   0.781  0.5265 -3.0282 -0.4728
  516THF    H11 7846   4.813   2.927   0.719 -0.4469 -0.5293  1.1729
  516THF    H12 7847   4.781   2.681   0.711 -3.1024 -0.1602  0.1707
  516THF    H13 7848   4.885   2.669   0.852  0.5856  0.5345 -2.4212
  517THF     O1 7849   1.649   1.067   4.200 -0.1789  0.0031  0.0081
  517THF     C2 7850   1.630   0.997   4.074  0.4950  0.0006 -0.2142
  517THF     C3 7851   1.660   0.966   4.298  0.1605  0.4925  0.0065
  517THF     H4 7852   1.727   0.985   4.026 -0.0412  0.9499 -1.6070
  517THF     H5 7853   1.567   1.051   4.003  1.4973 -0.3113 -1.3709
  517THF     H6 7854   1.756   0.915   4.294 -0.8809 -1.5965  0.6080
  517THF     H7 7855   1.651   1.007   4.398  1.3558  0.6993  0.0371
  517THF     C8 7856   1.546   0.876   4.257  0.0121 -0.4806 -0.1718
  517THF     C9 7857   1.549   0.865   4.108 -0.7010  0.0204  0.0662
  517THF    H10 7858   1.451   0.918   4.289  0.5646 -0.0497  0.9535
  517THF    H11 7859   1.558   0.774   4.295 -1.5247  0.1237  2.1189
  517THF    H12 7860   1.614   0.783   4.079 -0.2570  0.1717  0.6043
  517THF    H13 7861   1.455   0.857   4.054 -0.4143  0.1161 -0.4532
  518THF     O1 7862   0.308   3.016   5.229 -0.4513  0.1298 -0.2895
  518THF     C2 7863   0.452   2.992   5.216  0.0349 -0.4037  0.0032
  518THF     C3 7864   0.231   2.908   5.167 -0.0215  0.3330 -0.6312
  518THF     H4 7865   0.504   3.010   5.310  0.4405  1.2292 -0.5106
  518THF     H5 7866   0.487   3.055   5.134 -1.4685 -0.5905 -0.8226
  518THF     H6 7867   0.197   2.836   5.242 -0.8357 -1.2857 -2.4655
  518THF     H7 7868   0.145   2.947   5.113  0.9610  0.4926 -2.1429
  518THF     C8 7869   0.331   2.831   5.088  0.2889 -0.2906  0.0031
  518THF     C9 7870   0.451   2.841   5.179 -0.1215 -0.4350 -0.5420
  518THF    H10 7871   0.350   2.884   4.995 -3.6422 -1.1651 -1.4988
  518THF    H11 7872   0.301   2.729   5.064  0.6003 -0.2794 -0.4508
  518THF    H12 7873   0.436   2.778   5.266  1.8971  1.0913  1.0189
  518THF    H13 7874   0.546   2.816   5.132 -0.6149  0.0135 -1.8065
  519THF     O1 7875   4.064   0.869   4.713  0.2574  0.6146  0.0969
  519THF     C2 7876   4.040   1.006   4.719 -1.6114  0.2863  0.2498
  519THF     C3 7877   3.969   0.813   4.803  0.3922  0.7293 -0.0197
  519THF     H4 7878   4.094   1.057   4.639 -2.5466  0.8782 -0.0213
  519THF     H5 7879   4.094   1.042   4.807 -1.6284  2.6161 -0.6374
  519THF     H6 7880   3.975   0.705   4.787  0.6962  0.8411 -0.7067
  519THF     H7 7881   4.003   0.813   4.907 -3.3534 -1.0822  1.4141
  519THF     C8 7882   3.841   0.896   4.766 -0.2173 -0.1735 -0.5188
  519THF     C9 7883   3.897   1.023   4.702  0.4080 -0.4851 -0.2819
  519THF    H10 7884   3.773   0.905   4.851  0.4612 -3.6827  0.5942
  519THF    H11 7885   3.774   0.860   4.688 -2.6979  1.8078  0.5762
  519THF    H12 7886   3.879   1.020   4.595  1.3117 -2.6332 -0.4278
  519THF    H13 7887   3.873   1.121   4.744 -2.7193 -1.7111  1.1220
  520THF     O1 7888   1.969   1.854   2.627  0.1853 -0.0855  0.4135
  520THF     C2 7889   2.079   1.779   2.675 -0.1902  0.9334 -0.6311
  520THF     C3 7890   1.937   1.806   2.492  0.4689  0.7815 -0.0537
  520THF     H4 7891   2.079   1.772   2.784 -2.3247  2.3053 -0.4828
  520THF     H5 7892   2.176   1.823   2.651 -0.5017  2.5728  0.9673
  520THF     H6 7893   1.830   1.799   2.474  0.4188 -1.1741  0.7280
  520THF     H7 7894   1.979   1.875   2.418  1.6181 -0.9830 -1.1665
  520THF     C8 7895   1.996   1.665   2.480  0.0147  0.8871  0.1317
  520THF     C9 7896   2.062   1.643   2.616  0.0935 -0.1773  0.6464
  520THF    H10 7897   2.079   1.665   2.410 -0.6354  3.2434 -0.7589
  520THF    H11 7898   1.920   1.595   2.445  0.4451  0.3462  0.2667
  520THF    H12 7899   2.001   1.578   2.680 -0.8615 -2.1488 -2.0850
  520THF    H13 7900   2.152   1.582   2.610  0.2098 -0.0316  0.9036
  521THF     O1 7901   2.918   4.140   0.119 -0.3223 -0.0382 -0.0270
  521THF     C2 7902   2.991   4.199   0.015  0.2589  0.0562  0.1021
  521THF     C3 7903   2.921   4.218   0.230 -0.5285 -0.8803 -0.3266
  521THF     H4 7904   2.957   4.156  -0.078  1.2194 -2.1892  0.7220
  521THF     H5 7905   3.092   4.160   0.030  1.1831  1.2553 -2.3932
  521THF     H6 7906   2.851   4.190   0.309 -2.1238  2.3640 -0.4338
  521THF     H7 7907   3.021   4.227   0.273  0.3686 -1.4480 -2.2031
  521THF     C8 7908   2.891   4.358   0.174  0.4584 -0.1543  0.2922
  521THF     C9 7909   2.971   4.351   0.044 -0.3729  0.1266 -0.1175
  521THF    H10 7910   2.911   4.442   0.241  3.0584 -1.6189  1.4939
  521THF    H11 7911   2.785   4.374   0.155  0.3057 -0.7916  0.5583
  521THF    H12 7912   2.899   4.397  -0.024 -0.5464  0.3364  0.2054
  521THF    H13 7913   3.066   4.403   0.050 -0.0375 -0.5443  0.5299
  522THF     O1 7914   2.265   4.593   3.945  0.2778 -0.0447  0.6057
  522THF     C2 7915   2.185   4.711   3.930 -0.2181 -0.3090 -0.4919
  522THF     C3 7916   2.179   4.486   3.951  0.2075  0.6133  0.3661
  522THF     H4 7917   2.252   4.792   3.902  2.7428 -2.1425  0.8006
  522THF     H5 7918   2.138   4.739   4.025  1.9536  0.4788  0.4059
  522THF     H6 7919   2.237   4.396   3.934  0.3202  0.8734 -0.7218
  522THF     H7 7920   2.130   4.477   4.048 -0.0908 -3.2299  0.0094
  522THF     C8 7921   2.090   4.525   3.826  0.3009  0.0144 -0.2253
  522THF     C9 7922   2.091   4.679   3.817 -0.5795  0.1844 -0.1862
  522THF    H10 7923   1.987   4.492   3.831  1.0583 -2.5797 -0.4944
  522THF    H11 7924   2.135   4.476   3.740  1.9081  1.2212 -0.1281
  522THF    H12 7925   2.118   4.711   3.716 -0.2493  1.6799  0.3582
  522THF    H13 7926   1.992   4.723   3.825 -1.1178 -0.6416 -1.7486
  523THF     O1 7927   4.939   4.186   2.314 -0.0393  0.2174 -0.1539
  523THF     C2 7928   5.050   4.109   2.340 -0.6701 -0.1646  0.5354
  523THF     C3 7929   4.856   4.104   2.223 -0.2634  0.0076 -0.6721
  523THF     H4 7930   5.090   4.140   2.437  0.8123 -2.4925  0.7383
  523THF     H5 7931   5.129   4.120   2.265 -0.3268 -1.6058  0.6636
  523THF     H6 7932   4.753   4.140   2.216 -0.6179  0.2769  3.3241
  523THF     H7 7933   4.903   4.100   2.125 -0.4057 -0.1321 -0.7345
  523THF     C8 7934   4.871   3.965   2.290 -1.1628 -0.1594 -0.7836
  523THF     C9 7935   5.010   3.966   2.345 -0.3746 -0.2786  0.4284
  523THF    H10 7936   4.858   3.876   2.227  0.4877 -0.7227 -0.3603
  523THF    H11 7937   4.801   3.956   2.373 -1.6952  2.7038 -0.8401
  523THF    H12 7938   5.023   3.935   2.449  0.1731 -1.2631  0.0820
  523THF    H13 7939   5.078   3.905   2.285  0.6041  2.8150 -1.8870
  524THF     O1 7940   4.548   0.353   5.372  0.8928  0.1512 -0.1699
  524THF     C2 7941   4.542   0.484   5.429 -0.0356 -0.5343 -0.1229
  524THF     C3 7942   4.615   0.363   5.251 -0.1949  0.1731  0.8020
  524THF     H4 7943   4.638   0.516   5.467  0.1268 -0.8103 -0.2979
  524THF     H5 7944   4.468   0.487   5.509 -0.2892 -3.1456 -0.1735
  524THF     H6 7945   4.723   0.352   5.267 -0.2152 -0.5442  0.4703
  524THF     H7 7946   4.573   0.290   5.182 -0.4287  0.7082  0.3718
  524THF     C8 7947   4.580   0.501   5.198 -0.1538 -0.1919 -0.3727
  524THF     C9 7948   4.504   0.572   5.310  0.0086 -0.2271 -0.5442
  524THF    H10 7949   4.515   0.505   5.111  1.2149  1.6512 -1.3934
  524THF    H11 7950   4.671   0.551   5.163  1.1824 -1.7099  0.7928
  524THF    H12 7951   4.548   0.670   5.331  1.7033 -0.7498 -1.4343
  524THF    H13 7952   4.396   0.588   5.302 -0.1416 -1.3738 -0.9647
  525THF     O1 7953   3.530   0.448   2.717 -0.0265 -0.4423  0.2662
  525THF     C2 7954   3.394   0.429   2.759 -0.7017 -0.2576 -0.4737
  525THF     C3 7955   3.548   0.341   2.627 -0.1231  0.1073  0.3855
  525THF     H4 7956   3.330   0.460   2.675 -0.8979  0.5024 -0.0566
  525THF     H5 7957   3.358   0.487   2.844  0.9779  0.3828 -0.1544
  525THF     H6 7958   3.486   0.365   2.541  0.7869  2.2619  0.2473
  525THF     H7 7959   3.647   0.315   2.590 -1.2954 -2.7719 -1.0149
  525THF     C8 7960   3.488   0.218   2.699  0.2734 -0.2928  0.6289
  525THF     C9 7961   3.377   0.278   2.783  0.9139  0.1572  0.1079
  525THF    H10 7962   3.560   0.196   2.778  1.0443  1.0673  0.3523
  525THF    H11 7963   3.462   0.134   2.635  1.3314  0.4619 -0.8610
  525THF    H12 7964   3.275   0.244   2.760  0.7644  0.0719  0.8654
  525THF    H13 7965   3.387   0.266   2.891  0.4280  0.0456  0.1480
  526THF     O1 7966   3.299   0.469   3.716  0.3174  0.2116  0.1248
  526THF     C2 7967   3.208   0.574   3.754 -0.6002 -0.5024 -0.6384
  526THF     C3 7968   3.389   0.522   3.617 -0.0493  0.7116 -0.5034
  526THF     H4 7969   3.268   0.644   3.812 -2.0642  1.0310 -0.8968
  526THF     H5 7970   3.126   0.535   3.815  0.0303  0.8326  1.1436
  526THF     H6 7971   3.469   0.572   3.671  0.8691  0.1541 -1.3184
  526THF     H7 7972   3.435   0.452   3.547 -3.3561 -1.6809 -0.5737
  526THF     C8 7973   3.300   0.610   3.525 -0.3109  0.1174  0.0413
  526THF     C9 7974   3.176   0.628   3.614  0.7606 -0.0988 -0.3032
  526THF    H10 7975   3.278   0.555   3.434  0.3790  1.0823 -0.7194
  526THF    H11 7976   3.352   0.702   3.500 -0.2687  0.0742 -0.0305
  526THF    H12 7977   3.132   0.727   3.608 -0.7412 -0.6370  1.0872
  526THF    H13 7978   3.105   0.556   3.572  0.2840  0.7769 -1.0300
  527THF     O1 7979   0.554   0.349   2.149 -0.0193  0.0514  0.2368
  527THF     C2 7980   0.532   0.481   2.141 -0.0915  0.3733  0.0423
  527THF     C3 7981   0.433   0.285   2.165 -0.2748 -0.3139 -0.1200
  527THF     H4 7982   0.500   0.514   2.042  0.1104  1.5431  0.3555
  527THF     H5 7983   0.617   0.545   2.164  0.0126  0.9773 -1.8719
  527THF     H6 7984   0.382   0.276   2.069 -0.1678 -0.2080 -0.1878
  527THF     H7 7985   0.468   0.190   2.206 -0.2445  0.1681  0.9808
  527THF     C8 7986   0.362   0.379   2.264 -0.1319 -0.2431  0.9329
  527THF     C9 7987   0.410   0.517   2.225 -0.6277  0.3398 -0.2830
  527THF    H10 7988   0.399   0.361   2.365 -0.0237 -3.6633  0.3815
  527THF    H11 7989   0.253   0.382   2.258 -0.1231 -0.7397  0.4900
  527THF    H12 7990   0.334   0.565   2.163 -0.3496  0.7310 -0.3263
  527THF    H13 7991   0.414   0.575   2.318  1.2105 -0.8638  0.4456
  528THF     O1 7992   4.020   4.461   1.224 -0.3988 -0.3289 -0.8423
  528THF     C2 7993   4.011   4.587   1.291  0.0712  0.1648  1.0059
  528THF     C3 7994   3.898   4.397   1.245  0.0154  0.2278 -0.2618
  528THF     H4 7995   4.077   4.666   1.256 -0.1941 -0.3755 -0.8087
  528THF     H5 7996   4.014   4.577   1.399 -0.5158  0.4671  1.0588
  528THF     H6 7997   3.888   4.312   1.178  2.9036 -0.3967 -0.0283
  528THF     H7 7998   3.888   4.356   1.346 -0.3456 -1.9896 -1.1587
  528THF     C8 7999   3.797   4.513   1.224  0.0009 -0.0861 -0.4165
  528THF     C9 8000   3.872   4.640   1.258 -0.5333  0.3585 -0.1177
  528THF    H10 8001   3.711   4.503   1.291  0.7009  0.2417  0.5602
  528THF    H11 8002   3.756   4.516   1.124 -1.9607 -0.6263  0.3287
  528THF    H12 8003   3.880   4.697   1.165  2.2496 -0.1835 -0.2813
  528THF    H13 8004   3.837   4.703   1.340  1.0119  1.1932 -0.0620
  529THF     O1 8005   3.009   2.884   2.462 -0.4074 -0.1324 -0.0813
  529THF     C2 8006   2.935   2.939   2.360 -0.0456  0.2843  0.6354
  529THF     C3 8007   2.958   2.938   2.584 -0.3662 -0.1531  0.2884
  529THF     H4 8008   2.951   2.872   2.275  1.3949 -1.9802  2.5659
  529THF     H5 8009   2.976   3.036   2.332 -1.5559  0.9569  0.6341
  529THF     H6 8010   2.992   2.876   2.668  2.6191  2.4444  1.2147
  529THF     H7 8011   2.975   3.046   2.592 -1.2804 -0.0874  1.6985
  529THF     C8 8012   2.806   2.921   2.557  0.6429  0.1852  0.3499
  529THF     C9 8013   2.792   2.943   2.406 -0.3711  0.2008 -0.2268
  529THF    H10 8014   2.734   2.983   2.611 -1.6190  0.9243 -3.1701
  529THF    H11 8015   2.775   2.816   2.564  1.1995  0.1025  2.0985
  529THF    H12 8016   2.733   2.867   2.356  0.2215 -1.5276  1.5836
  529THF    H13 8017   2.755   3.041   2.373  1.5469  1.3268  0.7962
  530THF     O1 8018   1.688   4.587   4.352 -0.6412 -0.2989  0.2891
  530THF     C2 8019   1.696   4.547   4.493 -0.5715  0.2370 -0.8485
  530THF     C3 8020   1.576   4.667   4.333  0.8293  0.1784  0.6385
  530THF     H4 8021   1.798   4.531   4.530 -0.4719  0.3200 -1.0848
  530THF     H5 8022   1.631   4.460   4.503 -0.1249  0.0532  0.7579
  530THF     H6 8023   1.587   4.730   4.244 -1.4957 -1.4917 -0.9529
  530THF     H7 8024   1.486   4.609   4.312  1.2259 -0.9803  2.0151
  530THF     C8 8025   1.571   4.745   4.471  0.1670  0.2481  0.1724
  530THF     C9 8026   1.649   4.665   4.572  0.1762  0.7317  0.2136
  530THF    H10 8027   1.471   4.765   4.511  0.4161  1.3668  0.2743
  530THF    H11 8028   1.629   4.837   4.458 -0.4776  0.5859 -0.3826
  530THF    H12 8029   1.739   4.715   4.607  2.0985 -3.1402  1.3074
  530THF    H13 8030   1.588   4.644   4.660  0.2153 -1.2158 -0.1926
  531THF     O1 8031   1.763   2.389   0.964 -0.3871  0.3684 -0.2967
  531THF     C2 8032   1.832   2.464   0.866  0.2025 -0.0626  0.5976
  531THF     C3 8033   1.817   2.420   1.089 -0.2456  0.3450 -0.2313
  531THF     H4 8034   1.790   2.564   0.855  0.2556 -0.3406 -4.0172
  531THF     H5 8035   1.823   2.427   0.764  1.2227  0.9005  0.1371
  531THF     H6 8036   1.783   2.520   1.118  0.3532  0.5923 -0.3567
  531THF     H7 8037   1.786   2.353   1.169  1.6329 -1.6398 -1.0696
  531THF     C8 8038   1.970   2.418   1.060 -0.4594  0.0576  0.1258
  531THF     C9 8039   1.981   2.467   0.916 -0.3344 -1.0176  0.9652
  531THF    H10 8040   2.007   2.316   1.070 -0.1872 -0.0021 -1.3369
  531THF    H11 8041   2.013   2.493   1.128  0.4223  0.0404 -0.4040
  531THF    H12 8042   2.015   2.569   0.899  0.6564 -1.3642  0.8362
  531THF    H13 8043   2.062   2.405   0.877 -0.5992 -1.4101  1.0351
  532THF     O1 8044   2.417   0.540   0.380  0.8219 -0.1357 -0.0909
  532THF     C2 8045   2.500   0.653   0.349 -0.5575  0.0661  0.1934
  532THF     C3 8046   2.278   0.566   0.351 -0.2271  0.3881 -0.1288
  532THF     H4 8047   2.571   0.636   0.268 -1.8187 -0.2919 -0.8623
  532THF     H5 8048   2.555   0.680   0.439 -0.7038  0.1134  0.2686
  532THF     H6 8049   2.247   0.544   0.249  0.1093 -0.3579 -0.0777
  532THF     H7 8050   2.200   0.527   0.417 -1.3998  0.6373 -1.3302
  532THF     C8 8051   2.264   0.711   0.363  1.0677 -0.4819  0.2055
  532THF     C9 8052   2.393   0.754   0.301 -0.0021 -0.8247  0.6478
  532THF    H10 8053   2.267   0.736   0.469  1.8445  0.3842 -0.0127
  532THF    H11 8054   2.171   0.750   0.322  0.4392 -2.2289 -0.1420
  532THF    H12 8055   2.364   0.737   0.198 -0.4355 -1.9751  0.9388
  532THF    H13 8056   2.416   0.859   0.319 -0.0700 -0.4966 -1.0324
  533THF     O1 8057   1.950   1.556   2.034  0.4276 -0.2235  0.2398
  533THF     C2 8058   1.903   1.501   2.150  0.4588  0.4766  0.1559
  533THF     C3 8059   2.033   1.461   1.982 -0.4482  0.2423 -0.3430
  533THF     H4 8060   1.817   1.561   2.180 -0.2323  0.1199 -1.0253
  533THF     H5 8061   1.984   1.504   2.223 -0.1090  0.7779  0.7948
  533THF     H6 8062   2.050   1.477   1.876  1.2039 -3.1395 -0.7400
  533THF     H7 8063   2.134   1.454   2.021 -0.4661 -0.5220 -0.4056
  533THF     C8 8064   1.977   1.326   2.005 -0.2281 -0.0928 -0.5243
  533THF     C9 8065   1.864   1.364   2.105 -0.4297  0.1061 -0.0659
  533THF    H10 8066   2.042   1.250   2.050 -0.6049  0.0049  0.1960
  533THF    H11 8067   1.917   1.287   1.923 -3.5622  0.3191  1.5450
  533THF    H12 8068   1.767   1.364   2.056 -0.0672 -0.7647 -0.8021
  533THF    H13 8069   1.857   1.300   2.193  0.1980 -1.4779 -1.1219
  534THF     O1 8070   3.366   3.263   4.658  0.0809 -0.6095 -0.1809
  534THF     C2 8071   3.502   3.273   4.651 -0.4747 -0.0862  0.2837
  534THF     C3 8072   3.312   3.357   4.757 -0.1075 -0.5870  0.4833
  534THF     H4 8073   3.541   3.342   4.576  2.6390 -1.6409  0.3338
  534THF     H5 8074   3.565   3.185   4.640  1.9276  1.5122  0.4208
  534THF     H6 8075   3.329   3.458   4.721  1.1527 -1.3210 -1.0684
  534THF     H7 8076   3.210   3.338   4.792 -0.2919  0.3149  0.4682
  534THF     C8 8077   3.403   3.319   4.871  0.1120  0.2521  0.7281
  534THF     C9 8078   3.531   3.316   4.795 -0.4085  0.3641  0.9440
  534THF    H10 8079   3.362   3.224   4.906 -0.7686 -0.7877 -2.7159
  534THF    H11 8080   3.403   3.394   4.951  1.1943 -0.2757  1.2400
  534THF    H12 8081   3.576   3.415   4.805 -0.0054  0.1666  1.0919
  534THF    H13 8082   3.604   3.253   4.847  3.4709  2.1168 -1.8999
  535THF     O1 8083   4.691   4.785   0.435 -0.7256  0.4215 -0.0632
  535THF     C2 8084   4.719   4.711   0.320 -0.7662 -0.0637  0.0305
  535THF     C3 8085   4.592   4.874   0.411 -0.5481  0.2581  0.8641
  535THF     H4 8086   4.648   4.629   0.310 -0.6393 -0.0063 -1.5074
  535THF     H5 8087   4.816   4.663   0.331 -0.5134  0.1238 -1.2802
  535THF     H6 8088   4.497   4.833   0.445 -0.4389  0.1535  1.0412
  535THF     H7 8089   4.610   4.965   0.467 -0.1402  0.0987  0.9972
  535THF     C8 8090   4.594   4.894   0.252 -0.1478 -0.0314  0.2816
  535THF     C9 8091   4.715   4.818   0.203  0.1180  0.4390  0.0872
  535THF    H10 8092   4.596   4.997   0.218  2.0488  0.3236  1.3611
  535THF    H11 8093   4.498   4.856   0.216 -0.4073  1.7934 -1.0935
  535THF    H12 8094   4.705   4.762   0.110  0.7317  0.1852  0.1682
  535THF    H13 8095   4.797   4.889   0.203 -0.4811  1.1528 -0.8218
  536THF     O1 8096   5.477   2.341   5.298 -0.2552 -0.0241 -0.1141
  536THF     C2 8097   5.376   2.243   5.278 -0.0077  0.1732 -0.5281
  536THF     C3 8098   5.582   2.307   5.200  0.6804 -0.6029  0.5607
  536THF     H4 8099   5.299   2.304   5.325  0.6616  1.1500 -0.6659
  536THF     H5 8100   5.410   2.153   5.328  1.3515  1.2143  0.5149
  536THF     H6 8101   5.657   2.385   5.185  0.7715 -0.9909 -1.2074
  536THF     H7 8102   5.644   2.226   5.239 -0.3416 -0.8360  1.7918
  536THF     C8 8103   5.493   2.294   5.073 -0.2052  0.2803 -0.1019
  536THF     C9 8104   5.368   2.227   5.133 -0.6965 -0.0236 -0.1792
  536THF    H10 8105   5.552   2.233   5.005 -1.0118 -0.8727  0.2027
  536THF    H11 8106   5.470   2.390   5.027 -0.0844  0.0342 -0.6746
  536THF    H12 8107   5.276   2.257   5.082 -0.4582 -0.5007 -0.9128
  536THF    H13 8108   5.364   2.120   5.117  0.6880 -0.4321  1.8460
  537THF     O1 8109   3.422   4.042   3.295  0.1299 -0.3724  0.5322
  537THF     C2 8110   3.285   4.076   3.279  0.5203  0.2380 -0.7702
  537THF     C3 8111   3.480   4.051   3.163 -0.1763 -0.1090  0.0018
  537THF     H4 8112   3.236   4.100   3.373  3.5839 -0.6215  1.1793
  537THF     H5 8113   3.224   4.002   3.228 -0.5865  1.2178 -0.9054
  537THF     H6 8114   3.588   4.059   3.180  0.0624 -0.6446 -1.2004
  537THF     H7 8115   3.473   3.967   3.095  1.4445  0.6328 -1.1512
  537THF     C8 8116   3.411   4.171   3.106 -0.1170 -0.1515 -0.0103
  537THF     C9 8117   3.278   4.189   3.178  0.0114  0.1438 -0.0303
  537THF    H10 8118   3.394   4.185   2.999 -1.6666 -1.8577 -0.0357
  537THF    H11 8119   3.479   4.252   3.134  0.5473 -0.4936 -0.5900
  537THF    H12 8120   3.278   4.290   3.220  2.1778 -0.4874  1.6378
  537THF    H13 8121   3.193   4.180   3.109  0.5726  0.6991 -0.8097
  538THF     O1 8122   0.104   1.446   1.646 -0.4890 -0.2226 -0.6138
  538THF     C2 8123   0.214   1.530   1.633 -0.1639  0.1476  0.1054
  538THF     C3 8124   0.038   1.447   1.521 -0.3277  0.6524 -0.0294
  538THF     H4 8125   0.295   1.479   1.581  0.4296  0.1659  0.9999
  538THF     H5 8126   0.252   1.566   1.728  0.8991  1.3901 -0.7627
  538THF     H6 8127   0.079   1.371   1.454  0.6153  1.1889 -0.0826
  538THF     H7 8128  -0.065   1.417   1.539  0.5832 -1.6983  1.7678
  538THF     C8 8129   0.042   1.588   1.476 -0.7136 -0.0703  0.4377
  538THF     C9 8130   0.172   1.641   1.537 -0.3930  0.3935 -0.1860
  538THF    H10 8131  -0.048   1.641   1.506  0.5855  2.0145  0.8851
  538THF    H11 8132   0.063   1.597   1.369  0.2226  0.6292  0.6613
  538THF    H12 8133   0.244   1.679   1.464 -0.1616 -1.0488 -0.7341
  538THF    H13 8134   0.163   1.730   1.600 -0.4426  0.8505 -0.8303
  539THF     O1 8135   4.008   3.204   3.359  0.1029 -0.6388  0.0577
  539THF     C2 8136   4.106   3.104   3.349 -0.2579  0.4100 -0.2417
  539THF     C3 8137   4.075   3.333   3.382 -0.4456  0.3360 -0.8933
  539THF     H4 8138   4.061   3.019   3.297 -0.3432  0.0700  0.3678
  539THF     H5 8139   4.140   3.074   3.448  1.1775 -1.6322 -1.2711
  539THF     H6 8140   4.022   3.427   3.374  1.1840  1.1704 -2.7680
  539THF     H7 8141   4.117   3.341   3.482  2.2279  1.6885 -2.0202
  539THF     C8 8142   4.190   3.338   3.284 -0.7102 -0.4576 -0.5732
  539THF     C9 8143   4.220   3.186   3.277  0.0675 -0.4138  1.0888
  539THF    H10 8144   4.271   3.399   3.324 -1.3347 -0.5573  0.8734
  539THF    H11 8145   4.156   3.388   3.193  0.5868  0.0096 -0.8198
  539THF    H12 8146   4.230   3.162   3.171 -0.0160 -0.1655  1.0244
  539THF    H13 8147   4.317   3.170   3.325  1.0819 -0.6727 -0.9605
  540THF     O1 8148   5.293   1.323   1.955 -0.3856  0.4630 -0.2700
  540THF     C2 8149   5.214   1.401   1.866 -0.0273  0.7461 -0.0927
  540THF     C3 8150   5.400   1.402   2.015  0.5749 -0.4728 -0.8728
  540THF     H4 8151   5.113   1.362   1.849  0.2437  0.0277 -0.0960
  540THF     H5 8152   5.260   1.417   1.768 -1.1219  0.7982 -0.6163
  540THF     H6 8153   5.445   1.340   2.093  2.4030  0.8322 -0.8095
  540THF     H7 8154   5.481   1.419   1.944  0.3689  0.0086 -0.9992
  540THF     C8 8155   5.319   1.529   2.045 -0.5803 -0.3786  0.7249
  540THF     C9 8156   5.209   1.533   1.939  0.1611 -0.3407  0.3322
  540THF    H10 8157   5.379   1.619   2.050 -1.3001  0.1099  0.7544
  540THF    H11 8158   5.272   1.517   2.143 -0.2501 -1.4442  0.7674
  540THF    H12 8159   5.106   1.534   1.975 -0.6147  0.1219 -1.7414
  540THF    H13 8160   5.220   1.609   1.861 -2.2065 -1.2592 -0.9883
  541THF     O1 8161   1.101   2.619   5.329 -0.0809 -0.0878 -0.6452
  541THF     C2 8162   0.961   2.608   5.326 -0.3515 -0.4212 -0.3087
  541THF     C3 8163   1.149   2.730   5.406 -0.0384 -0.0015 -0.4316
  541THF     H4 8164   0.934   2.511   5.368 -0.0704 -0.6669 -0.6859
  541THF     H5 8165   0.924   2.615   5.223 -0.6604 -1.1178 -0.2496
  541THF     H6 8166   1.169   2.700   5.509 -0.2610  0.8016 -0.1461
  541THF     H7 8167   1.234   2.772   5.352 -0.6863  0.5895 -1.0159
  541THF     C8 8168   1.025   2.819   5.426  0.7555  0.0325 -0.1812
  541THF     C9 8169   0.915   2.723   5.409  0.0732 -0.1808  0.5331
  541THF    H10 8170   1.023   2.893   5.346  0.6768  1.4763  1.1170
  541THF    H11 8171   1.018   2.867   5.524 -1.6914  0.2890 -0.4285
  541THF    H12 8172   0.889   2.682   5.507 -0.5887 -0.6949  0.1495
  541THF    H13 8173   0.830   2.768   5.357 -1.4167 -3.3159  0.0560
  542THF     O1 8174   3.257   3.798   3.056  0.9844  0.0866 -0.4064
  542THF     C2 8175   3.237   3.874   2.941  0.1766  0.5920  0.7385
  542THF     C3 8176   3.364   3.714   3.038  0.3500  0.5435 -0.0051
  542THF     H4 8177   3.306   3.958   2.928  0.4925  0.2182 -0.0998
  542THF     H5 8178   3.135   3.909   2.928 -0.2020  0.5084  3.1744
  542THF     H6 8179   3.460   3.757   3.065  0.8527 -0.5091 -0.0568
  542THF     H7 8180   3.357   3.623   3.098  0.5515  1.0528  0.8077
  542THF     C8 8181   3.371   3.671   2.894 -0.0149 -0.0256  0.7416
  542THF     C9 8182   3.278   3.776   2.823  0.3366 -0.9222 -0.0376
  542THF    H10 8183   3.322   3.574   2.893 -1.1643  0.5437  0.0860
  542THF    H11 8184   3.464   3.661   2.839  0.9351  1.3837  2.0249
  542THF    H12 8185   3.337   3.831   2.750  1.2628 -1.1276  0.5337
  542THF    H13 8186   3.193   3.734   2.769  1.4115 -0.7971 -1.8994
  543THF     O1 8187   2.585   1.857   2.242  0.4367  0.2972 -0.6058
  543THF     C2 8188   2.562   1.942   2.135  0.5072 -0.1146 -0.2996
  543THF     C3 8189   2.468   1.874   2.325 -0.4105  0.1985 -0.5669
  543THF     H4 8190   2.618   1.903   2.050  1.5890  1.5431 -0.3942
  543THF     H5 8191   2.585   2.044   2.165  1.1029  0.0007 -1.1193
  543THF     H6 8192   2.440   1.786   2.384  0.2538  0.7085  0.5385
  543THF     H7 8193   2.498   1.952   2.394 -1.4816 -1.0377  1.4066
  543THF     C8 8194   2.351   1.897   2.238  0.0360  0.4696  0.9723
  543THF     C9 8195   2.417   1.932   2.106  0.3467  0.8670  0.4287
  543THF    H10 8196   2.275   1.969   2.267 -0.0378  0.9488 -0.3240
  543THF    H11 8197   2.307   1.799   2.223  0.4580  0.2405  1.2147
  543THF    H12 8198   2.406   1.862   2.023 -0.6897  0.6242  0.7558
  543THF    H13 8199   2.379   2.028   2.068 -1.7513  0.2368  0.7789
  544THF     O1 8200   2.566   4.220   2.477  0.7786 -0.8722  0.1338
  544THF     C2 8201   2.530   4.287   2.592 -0.0064  0.0040  0.2361
  544THF     C3 8202   2.442   4.165   2.420  0.3682 -0.9457 -0.0593
  544THF     H4 8203   2.525   4.395   2.575  1.8870  0.1887  0.6488
  544THF     H5 8204   2.597   4.286   2.678 -1.8459 -0.9724  1.7220
  544THF     H6 8205   2.421   4.196   2.318 -0.4567 -0.9917  0.0892
  544THF     H7 8206   2.440   4.056   2.415 -2.2632 -0.9290 -0.8367
  544THF     C8 8207   2.323   4.216   2.501  0.1231 -0.1488 -0.4894
  544THF     C9 8208   2.385   4.243   2.636 -0.4942 -0.3346  0.0544
  544THF    H10 8209   2.242   4.144   2.513 -1.7440  1.7450 -1.0874
  544THF    H11 8210   2.280   4.307   2.459 -2.4429 -0.5131  1.1144
  544THF    H12 8211   2.326   4.316   2.691 -0.5434  0.2522 -0.7686
  544THF    H13 8212   2.373   4.146   2.685 -2.2867 -0.5780 -0.7988
  545THF     O1 8213   2.087   4.697   0.967 -0.0546 -0.4781 -0.5704
  545THF     C2 8214   2.166   4.815   0.950  0.0839  0.6158  0.4420
  545THF     C3 8215   1.949   4.732   0.928 -0.3296  0.5073 -0.0780
  545THF     H4 8216   2.233   4.789   0.868 -1.4656 -1.3637 -0.2712
  545THF     H5 8217   2.218   4.840   1.043 -0.0239  0.2831  0.5915
  545THF     H6 8218   1.906   4.641   0.886 -0.0150  0.9150 -1.3056
  545THF     H7 8219   1.893   4.763   1.016 -2.2141  1.4089 -1.5234
  545THF     C8 8220   1.959   4.860   0.845 -0.7615 -0.2392  0.4660
  545THF     C9 8221   2.070   4.931   0.905  0.7410  0.5806  0.6425
  545THF    H10 8222   1.880   4.936   0.842  0.4282  1.1039  1.4924
  545THF    H11 8223   1.969   4.828   0.741  2.2446  0.1592  0.5501
  545THF    H12 8224   2.123   4.994   0.833 -0.5203  0.6725 -0.2442
  545THF    H13 8225   2.047   4.994   0.991 -0.8146  0.2599  0.4931
  546THF     O1 8226   3.901   3.978   2.228 -1.1239  0.5653 -0.4629
  546THF     C2 8227   3.918   3.839   2.266 -0.7996 -0.6524 -0.2893
  546THF     C3 8228   3.836   4.044   2.335  0.0415  0.1445 -0.5367
  546THF     H4 8229   4.009   3.827   2.324 -1.4942  2.5562  1.6998
  546THF     H5 8230   3.916   3.770   2.181 -0.5252 -0.7408 -0.2237
  546THF     H6 8231   3.905   4.067   2.416  1.9678  0.2397 -2.1324
  546THF     H7 8232   3.781   4.136   2.314 -1.7898 -1.3843 -3.0626
  546THF     C8 8233   3.737   3.947   2.393  0.2992  0.4185 -0.5623
  546THF     C9 8234   3.787   3.810   2.343  0.0101  0.7258 -1.0559
  546THF    H10 8235   3.635   3.972   2.366  0.4481 -0.2340 -1.7720
  546THF    H11 8236   3.735   3.952   2.502 -0.2031  0.0835 -0.5579
  546THF    H12 8237   3.797   3.732   2.418  1.0701  2.2985  0.5421
  546THF    H13 8238   3.712   3.774   2.272  0.7837 -0.1739 -1.4313
  547THF     O1 8239   2.981   5.236   4.994 -0.2278  0.2245  0.2070
  547THF     C2 8240   2.858   5.289   4.957  0.5344  0.5314  0.2505
  547THF     C3 8241   3.044   5.161   4.888 -0.2908 -0.2175  0.4892
  547THF     H4 8242   2.853   5.394   4.931  1.9542  0.3451 -0.9278
  547THF     H5 8243   2.791   5.273   5.041  1.6027 -2.7139  0.6326
  547THF     H6 8244   3.112   5.225   4.833  1.3615  0.6476  3.3568
  547THF     H7 8245   3.092   5.080   4.941  2.1190  0.4487 -0.5609
  547THF     C8 8246   2.934   5.109   4.804  0.0396 -0.3926  0.2936
  547THF     C9 8247   2.823   5.206   4.832 -0.3663  0.1811  0.1288
  547THF    H10 8248   2.909   5.009   4.839  1.1807 -1.5530 -1.9990
  547THF    H11 8249   2.955   5.103   4.697 -0.0559 -1.1541  0.3140
  547THF    H12 8250   2.810   5.279   4.752 -0.1093  0.8683  0.7054
  547THF    H13 8251   2.727   5.155   4.840 -1.0280  1.4146  0.3800
  548THF     O1 8252   1.447   0.863   1.237 -0.0320  0.6593  0.3738
  548THF     C2 8253   1.573   0.817   1.282  0.3719 -0.2736 -0.6229
  548THF     C3 8254   1.404   0.785   1.126  0.1592  0.2533  0.8532
  548THF     H4 8255   1.566   0.789   1.387  2.0198 -0.9069 -0.6559
  548THF     H5 8256   1.642   0.901   1.279 -0.8042  0.7808  0.8436
  548THF     H6 8257   1.332   0.715   1.168 -0.6180 -0.2334 -1.2040
  548THF     H7 8258   1.351   0.846   1.053  0.4455 -0.8456 -0.2877
  548THF     C8 8259   1.529   0.728   1.063 -0.4348  0.2253 -0.3794
  548THF     C9 8260   1.609   0.705   1.188  0.2034 -0.0632 -0.5098
  548THF    H10 8261   1.579   0.808   1.008  0.6628 -1.4102 -1.8691
  548THF    H11 8262   1.505   0.637   1.008 -0.8453  0.7960 -1.1742
  548THF    H12 8263   1.592   0.607   1.231  1.3214 -0.2749 -0.5216
  548THF    H13 8264   1.715   0.719   1.164  0.0530  1.4356 -0.3883
  549THF     O1 8265   4.581   3.076   4.732 -0.1428  0.0242  0.1747
  549THF     C2 8266   4.527   3.202   4.771  0.5201  0.3541  0.0848
  549THF     C3 8267   4.641   3.092   4.610 -0.4076  0.2143  0.9784
  549THF     H4 8268   4.605   3.271   4.802  2.4655 -1.8555  0.3216
  549THF     H5 8269   4.457   3.195   4.854  0.8835  1.4682  0.5041
  549THF     H6 8270   4.748   3.107   4.621 -0.3858 -0.0258  1.1024
  549THF     H7 8271   4.624   3.004   4.548 -0.1852  1.3839 -0.8006
  549THF     C8 8272   4.562   3.205   4.543  0.4738  0.1835  0.7015
  549THF     C9 8273   4.461   3.249   4.642  0.8505 -0.4247  1.0511
  549THF    H10 8274   4.513   3.178   4.449  1.9021 -0.5328  0.1408
  549THF    H11 8275   4.631   3.285   4.518  0.6511  0.0382  0.7250
  549THF    H12 8276   4.460   3.357   4.657  0.0898 -0.5608  2.1121
  549THF    H13 8277   4.357   3.220   4.633  1.0077 -1.1366  1.3802
  550THF     O1 8278   0.599   1.875   4.286 -0.5687 -0.1628  0.0551
  550THF     C2 8279   0.699   1.917   4.380  0.1926 -0.0772  0.1739
  550THF     C3 8280   0.482   1.851   4.353  0.2325  0.2418  0.6977
  550THF     H4 8281   0.779   1.967   4.325  0.0710 -0.3412 -0.2495
  550THF     H5 8282   0.733   1.828   4.433 -1.4746  0.3037  1.9867
  550THF     H6 8283   0.392   1.838   4.292  0.8166  0.4290 -0.2206
  550THF     H7 8284   0.496   1.761   4.414  1.1455 -1.9262 -2.4422
  550THF     C8 8285   0.477   1.968   4.444  0.4975  1.0210 -0.6405
  550THF     C9 8286   0.625   2.012   4.477  0.3732 -0.2826  0.5741
  550THF    H10 8287   0.412   1.947   4.529  1.2072  0.5755 -0.1950
  550THF    H11 8288   0.432   2.050   4.387  0.4018  1.0703 -0.4940
  550THF    H12 8289   0.638   2.118   4.452  0.9704 -0.2020  1.2045
  550THF    H13 8290   0.660   2.008   4.580  4.3101  1.9391 -0.4966
  551THF     O1 8291   4.085   1.862   2.937  0.3949 -0.2312  0.0026
  551THF     C2 8292   4.085   1.956   3.049  0.3772  0.1025  0.7585
  551THF     C3 8293   4.209   1.792   2.952  0.1922 -0.1282 -0.1179
  551THF     H4 8294   4.061   1.904   3.142  0.5314 -0.4876  0.4770
  551THF     H5 8295   4.017   2.040   3.036  0.4107 -0.0714 -0.7097
  551THF     H6 8296   4.213   1.718   3.032 -1.0483 -0.5341 -0.4082
  551THF     H7 8297   4.207   1.743   2.855 -0.4469  0.5768 -0.4677
  551THF     C8 8298   4.308   1.904   2.967 -0.1192 -0.4981 -0.1569
  551THF     C9 8299   4.223   2.012   3.035  0.6921 -0.1749 -0.9041
  551THF    H10 8300   4.342   1.952   2.875 -3.7000  1.8086 -0.4710
  551THF    H11 8301   4.389   1.870   3.033  0.0308  0.5394  0.2254
  551THF    H12 8302   4.258   2.061   3.125 -1.9135  1.8246 -0.8502
  551THF    H13 8303   4.217   2.086   2.956  0.3577 -0.5960 -1.2833
  552THF     O1 8304   5.203   0.074   5.275 -0.7389 -0.3860  0.3840
  552THF     C2 8305   5.104   0.106   5.367  0.3883 -0.1885 -0.8332
  552THF     C3 8306   5.212   0.193   5.191 -0.1854  0.5722 -0.5567
  552THF     H4 8307   5.133   0.165   5.454 -3.2095  0.0200  0.3959
  552THF     H5 8308   5.063   0.012   5.404  1.4097 -0.7908 -1.1782
  552THF     H6 8309   5.291   0.260   5.224  0.1651 -0.6248  1.1598
  552THF     H7 8310   5.234   0.153   5.092 -3.4330 -1.5619 -0.5832
  552THF     C8 8311   5.079   0.265   5.191  0.1301 -0.2336  0.2906
  552THF     C9 8312   4.999   0.188   5.296  0.4533 -0.0729  0.3632
  552THF    H10 8313   5.027   0.284   5.097  2.7947  1.8785 -0.8981
  552THF    H11 8314   5.093   0.365   5.232 -2.0328  0.3585 -0.3112
  552THF    H12 8315   4.941   0.258   5.356 -0.6810 -0.6518 -0.0352
  552THF    H13 8316   4.922   0.120   5.261 -0.5592  1.0459  0.3629
  553THF     O1 8317   4.462   1.236   3.635 -0.0942  0.3827  0.3828
  553THF     C2 8318   4.547   1.179   3.532  0.1473 -0.3118 -0.1938
  553THF     C3 8319   4.528   1.229   3.759  0.5172  0.1504 -0.0900
  553THF     H4 8320   4.502   1.190   3.433  0.4463  0.5494 -0.2383
  553THF     H5 8321   4.564   1.077   3.566  0.2358 -0.1222  0.3432
  553THF     H6 8322   4.474   1.297   3.823  0.2889  1.2446 -1.3984
  553THF     H7 8323   4.516   1.127   3.795 -0.3512  0.1503 -0.3615
  553THF     C8 8324   4.668   1.279   3.716 -0.5468 -0.1140  0.5640
  553THF     C9 8325   4.678   1.258   3.561 -0.0133  0.7180  0.9294
  553THF    H10 8326   4.750   1.221   3.759  2.4737  0.8852 -3.2100
  553THF    H11 8327   4.698   1.383   3.729  1.6145 -0.8308  1.8348
  553THF    H12 8328   4.673   1.349   3.501 -1.7036  1.3768  1.9961
  553THF    H13 8329   4.763   1.196   3.536 -0.6401  0.5800 -1.0354
  554THF     O1 8330   5.314   2.139   0.312 -0.0532 -0.3086 -0.1242
  554THF     C2 8331   5.414   2.159   0.214  0.3409  0.0339 -0.6037
  554THF     C3 8332   5.255   2.258   0.366 -0.0917 -0.2942  0.3466
  554THF     H4 8333   5.383   2.134   0.113 -0.2421  0.2832 -0.4846
  554THF     H5 8334   5.503   2.104   0.246 -0.8020 -2.6345 -1.6878
  554THF     H6 8335   5.147   2.246   0.370 -0.2967  1.2448  0.0377
  554THF     H7 8336   5.308   2.280   0.459  1.4140 -0.3026 -0.4749
  554THF     C8 8337   5.308   2.362   0.268 -0.1030 -0.1309  0.2866
  554THF     C9 8338   5.439   2.304   0.213  0.2263  0.3944 -0.1983
  554THF    H10 8339   5.314   2.462   0.310  1.9016 -0.0243 -0.1560
  554THF    H11 8340   5.223   2.371   0.200  0.8619  0.6070 -0.8559
  554THF    H12 8341   5.463   2.347   0.116 -1.3043  2.4213  0.2721
  554THF    H13 8342   5.521   2.328   0.281  0.0728 -1.3424  0.6785
  555THF     O1 8343   2.863   4.803   2.963 -0.0766  0.2587 -0.8278
  555THF     C2 8344   2.738   4.729   2.938 -0.0200  0.6217 -0.1968
  555THF     C3 8345   2.861   4.896   2.858  0.1961 -0.2545 -0.2979
  555THF     H4 8346   2.723   4.664   3.024  2.4381  1.4479  0.9452
  555THF     H5 8347   2.745   4.664   2.851  1.2449 -1.9001  1.6402
  555THF     H6 8348   2.942   4.968   2.863 -1.2399  1.6035 -2.0044
  555THF     H7 8349   2.873   4.853   2.758 -2.8154  0.6902 -1.1915
  555THF     C8 8350   2.723   4.958   2.845 -0.0251 -0.0981 -0.4225
  555THF     C9 8351   2.644   4.846   2.918  0.2290 -0.7308 -0.5296
  555THF    H10 8352   2.681   4.951   2.745 -0.9137  0.4381 -0.1039
  555THF    H11 8353   2.706   5.056   2.890 -0.9273 -1.5554  2.7293
  555THF    H12 8354   2.618   4.884   3.017 -0.3006  0.7802 -1.2089
  555THF    H13 8355   2.550   4.817   2.871 -0.5419  0.5862  0.1228
  556THF     O1 8356   1.651   4.468   3.699  0.1781 -0.7969 -0.2754
  556THF     C2 8357   1.693   4.600   3.674  0.1312 -0.1188 -0.4747
  556THF     C3 8358   1.667   4.446   3.842 -0.1313  0.3197  0.5749
  556THF     H4 8359   1.668   4.649   3.580  1.1486  1.2340 -0.0865
  556THF     H5 8360   1.801   4.593   3.689 -0.0420  1.3797  2.0467
  556THF     H6 8361   1.588   4.379   3.877  1.5094 -1.1717  1.5866
  556THF     H7 8362   1.757   4.390   3.866  0.3799  1.3092  1.0262
  556THF     C8 8363   1.669   4.578   3.917  0.0143  0.5283 -0.9125
  556THF     C9 8364   1.638   4.674   3.798 -0.6424  0.3175 -0.4435
  556THF    H10 8365   1.764   4.602   3.963 -0.0312  1.8236 -1.4586
  556THF    H11 8366   1.593   4.574   3.994  1.9941  0.1612  1.1105
  556THF    H12 8367   1.532   4.684   3.779 -0.6480 -1.6628 -1.7035
  556THF    H13 8368   1.687   4.770   3.818  2.7622 -1.5121  0.9151
  557THF     O1 8369   3.052   2.993   4.689 -0.2032 -1.0313 -0.2694
  557THF     C2 8370   3.173   2.953   4.749 -0.7333 -0.4087  0.0211
  557THF     C3 8371   2.948   2.972   4.783  0.1114 -0.4227 -0.2125
  557THF     H4 8372   3.193   3.033   4.820 -0.9984  1.7022 -2.1509
  557THF     H5 8373   3.261   2.957   4.685 -0.1620  3.4631  0.8020
  557THF     H6 8374   2.946   3.037   4.870  0.1793 -1.3608  0.4998
  557THF     H7 8375   2.854   2.965   4.728  0.8125 -0.7795 -1.4127
  557THF     C8 8376   2.980   2.824   4.824 -0.7543 -0.0500  0.2023
  557THF     C9 8377   3.139   2.819   4.807 -0.5571  0.6229 -0.1736
  557THF    H10 8378   2.929   2.756   4.755 -1.2258  1.1509 -0.6604
  557THF    H11 8379   2.960   2.803   4.929  0.9689 -2.1096  0.1752
  557THF    H12 8380   3.204   2.800   4.892 -1.4275 -0.6931  0.2377
  557THF    H13 8381   3.157   2.735   4.740  0.6413  1.1837 -0.5753
  558THF     O1 8382   4.176   4.370   2.127 -0.3619  0.0479 -0.2058
  558THF     C2 8383   4.085   4.433   2.046  0.5575  0.3868  0.0101
  558THF     C3 8384   4.201   4.236   2.084  0.9359 -0.1155 -0.7402
  558THF     H4 8385   4.144   4.509   1.996  0.5994  1.8445  2.1493
  558THF     H5 8386   4.014   4.488   2.107 -1.4915  0.4330 -2.2546
  558THF     H6 8387   4.301   4.199   2.063  0.7920 -2.1627  1.7355
  558THF     H7 8388   4.160   4.173   2.163  1.5402  0.7262  0.2748
  558THF     C8 8389   4.108   4.208   1.968  0.4041 -0.5486  0.2711
  558THF     C9 8390   4.014   4.323   1.971  0.0254  0.6767  0.0574
  558THF    H10 8391   4.041   4.124   1.983 -1.0429  0.4625 -0.3784
  558THF    H11 8392   4.160   4.199   1.872  0.3614  4.2166 -0.4182
  558THF    H12 8393   3.997   4.357   1.869  0.5620  2.6944  0.5952
  558THF    H13 8394   3.930   4.288   2.032  0.2046  1.3554  0.7119
  559THF     O1 8395   1.315   5.214   2.290  0.2722  0.4766  0.1370
  559THF     C2 8396   1.308   5.175   2.161  0.8452 -0.5004  0.0837
  559THF     C3 8397   1.379   5.115   2.357 -0.7574 -0.7628  0.3258
  559THF     H4 8398   1.398   5.191   2.101 -1.0768 -2.5846 -3.7224
  559THF     H5 8399   1.225   5.217   2.103  1.9679  2.9606  0.7257
  559THF     H6 8400   1.487   5.111   2.340 -0.8347 -0.8900 -0.1658
  559THF     H7 8401   1.371   5.140   2.463 -1.4004  1.9444 -0.2898
  559THF     C8 8402   1.311   4.990   2.312  0.4229 -0.1257 -0.3037
  559THF     C9 8403   1.279   5.025   2.166  0.1097 -0.5815 -0.1516
  559THF    H10 8404   1.221   4.965   2.369  0.4044  1.5507  0.4510
  559THF    H11 8405   1.379   4.905   2.322  0.2802 -0.3520 -1.1753
  559THF    H12 8406   1.328   4.967   2.088 -0.9546 -1.9224  0.1239
  559THF    H13 8407   1.173   4.998   2.160 -0.2999 -0.4510  3.8250
  560THF     O1 8408   0.938   2.942   3.953  0.2693 -0.5391  0.1708
  560THF     C2 8409   0.853   3.049   4.004  0.4283  0.1907  0.7567
  560THF     C3 8410   1.074   2.983   3.975 -0.9212  0.1977 -0.2346
  560THF     H4 8411   0.749   3.022   4.022  0.0346  1.1692  0.0464
  560THF     H5 8412   0.857   3.134   3.937  1.6419  0.9578  1.7430
  560THF     H6 8413   1.152   2.913   3.943 -0.2804  1.1581 -0.8414
  560THF     H7 8414   1.103   3.069   3.915  1.9991 -0.7092 -0.3150
  560THF     C8 8415   1.066   3.023   4.126  0.4392  0.0699  0.6667
  560THF     C9 8416   0.924   3.086   4.141  0.1237  0.1056  0.5838
  560THF    H10 8417   1.148   3.090   4.151  0.6573 -0.0369  0.2367
  560THF    H11 8418   1.076   2.931   4.183  0.2419 -0.2624  0.1734
  560THF    H12 8419   0.861   3.063   4.227 -1.4888  0.3429 -0.5032
  560THF    H13 8420   0.934   3.193   4.158  0.6239  0.1863 -0.1811
  561THF     O1 8421   2.079   2.733   3.033  0.3242 -0.2253 -0.2415
  561THF     C2 8422   2.062   2.778   2.901 -0.5305  0.2453 -0.1467
  561THF     C3 8423   2.208   2.676   3.042 -0.5980  0.3152 -0.5955
  561THF     H4 8424   2.124   2.865   2.880  1.1373 -0.2662  2.2580
  561THF     H5 8425   1.958   2.796   2.874 -0.8287  0.0878  0.8500
  561THF     H6 8426   2.286   2.752   3.043 -0.1373 -0.1329 -1.3027
  561THF     H7 8427   2.236   2.610   3.124  0.0300 -1.7215 -2.3523
  561THF     C8 8428   2.209   2.594   2.916 -0.6678 -0.6165  1.6330
  561THF     C9 8429   2.124   2.668   2.825 -0.3872 -0.2739  0.6499
  561THF    H10 8430   2.171   2.492   2.920  3.0062 -2.1272  1.3860
  561THF    H11 8431   2.310   2.598   2.874 -0.4818  2.1221  2.1457
  561THF    H12 8432   2.180   2.687   2.733  1.0406 -2.4054  1.0187
  561THF    H13 8433   2.053   2.595   2.786 -0.6033  0.7463 -0.9652
  562THF     O1 8434   4.684   1.421   4.825 -0.0802  0.0931 -0.6658
  562THF     C2 8435   4.563   1.410   4.774  0.0549 -0.0016  0.8920
  562THF     C3 8436   4.663   1.421   4.969 -0.0594  0.2069 -0.0854
  562THF     H4 8437   4.516   1.312   4.782  0.5265 -0.3107 -0.0221
  562THF     H5 8438   4.554   1.431   4.667 -2.8059 -1.5603  0.7272
  562THF     H6 8439   4.635   1.319   4.995 -3.2734  0.5744 -1.5207
  562THF     H7 8440   4.745   1.457   5.030 -0.0788  2.0173 -1.0687
  562THF     C8 8441   4.533   1.500   4.997  0.4112 -0.0284  0.4856
  562THF     C9 8442   4.479   1.507   4.853 -0.0509 -0.3726 -0.7788
  562THF    H10 8443   4.561   1.601   5.026 -0.6054  0.2493  0.5014
  562THF    H11 8444   4.457   1.447   5.054 -0.2846 -0.8706 -1.1562
  562THF    H12 8445   4.372   1.487   4.851  0.4218 -3.3241 -2.2396
  562THF    H13 8446   4.494   1.604   4.805 -2.0665 -0.0801 -0.9131
  563THF     O1 8447   3.920   2.442   1.043  0.4041  0.2571  0.0430
  563THF     C2 8448   3.927   2.585   1.033  0.3317 -0.3473  0.3326
  563THF     C3 8449   3.823   2.425   1.147  0.2335  0.0360  0.3850
  563THF     H4 8450   3.846   2.619   0.969  1.5317  1.1717 -0.4411
  563THF     H5 8451   4.023   2.614   0.990  1.7073 -2.5312  1.7445
  563THF     H6 8452   3.723   2.435   1.105  0.6352 -0.2484 -0.6653
  563THF     H7 8453   3.830   2.320   1.172 -0.1851 -0.4411 -1.3664
  563THF     C8 8454   3.863   2.526   1.249  0.1160  0.4211 -0.3354
  563THF     C9 8455   3.921   2.641   1.173  0.4811 -0.3267 -0.0842
  563THF    H10 8456   3.945   2.485   1.308  1.2245 -0.0940 -2.1755
  563THF    H11 8457   3.786   2.543   1.325  0.2873  0.3806 -0.1509
  563THF    H12 8458   3.866   2.735   1.172  1.2039  0.1583 -2.8869
  563THF    H13 8459   4.021   2.665   1.210 -0.1097 -0.7966  1.9331
  564THF     O1 8460   2.817   4.155   5.062  0.0163 -0.2704  0.1422
  564THF     C2 8461   2.751   4.220   5.169 -0.6573 -0.7913  0.0015
  564THF     C3 8462   2.795   4.235   4.947  0.0013  1.0019  0.1668
  564THF     H4 8463   2.785   4.184   5.266  0.2484  1.6209  0.6404
  564THF     H5 8464   2.642   4.210   5.166 -1.1396  3.0975 -0.7758
  564THF     H6 8465   2.876   4.216   4.876  0.3178  2.6774  0.0221
  564THF     H7 8466   2.704   4.207   4.894  0.6102 -0.2923 -0.2373
  564THF     C8 8467   2.797   4.380   5.000  0.0032 -0.0563 -0.2184
  564THF     C9 8468   2.792   4.364   5.157 -0.6472  0.6276  0.5177
  564THF    H10 8469   2.708   4.437   4.972  0.6184  1.1774  0.3277
  564THF    H11 8470   2.890   4.435   4.993  0.5876 -0.8749  0.8014
  564THF    H12 8471   2.893   4.375   5.198 -0.1029 -3.6340  0.6800
  564THF    H13 8472   2.730   4.435   5.212 -0.4416  0.0852  1.4619
  565THF     O1 8473   2.894   2.831   0.108  0.2009  0.9626 -0.1653
  565THF     C2 8474   2.964   2.895   0.213  0.2632 -0.2921 -0.2255
  565THF     C3 8475   2.983   2.761   0.024 -0.6302  0.3703  0.3643
  565THF     H4 8476   2.963   2.838   0.306  1.1704  2.6697  1.7621
  565THF     H5 8477   2.920   2.993   0.231 -0.0342 -0.7136  1.4966
  565THF     H6 8478   3.004   2.660   0.061  1.8576  1.0222  0.9060
  565THF     H7 8479   2.943   2.761  -0.077 -1.3803  2.2877  0.6217
  565THF     C8 8480   3.101   2.852   0.023 -0.2746  0.4117  0.1782
  565THF     C9 8481   3.107   2.908   0.167 -0.4790 -0.5293 -0.0242
  565THF    H10 8482   3.083   2.935  -0.046 -0.2821 -0.8366 -1.3804
  565THF    H11 8483   3.193   2.798   0.004 -1.3120 -1.0707 -0.8569
  565THF    H12 8484   3.171   2.844   0.226 -0.2234  0.1092  0.4001
  565THF    H13 8485   3.155   3.005   0.174  1.6640 -1.2134 -3.0956
  566THF     O1 8486   3.664   2.315   1.672  0.1052 -0.1456  0.7848
  566THF     C2 8487   3.722   2.197   1.708  0.1784  0.3909 -0.3456
  566THF     C3 8488   3.623   2.299   1.536 -0.0075 -0.4002  0.1698
  566THF     H4 8489   3.743   2.186   1.814  1.7837 -0.3131 -0.7025
  566THF     H5 8490   3.820   2.186   1.662  0.5635 -1.2791  0.7887
  566THF     H6 8491   3.577   2.388   1.494  1.0499  1.6774  3.0562
  566THF     H7 8492   3.717   2.284   1.482  1.0321  0.1401  1.7506
  566THF     C8 8493   3.558   2.164   1.536  0.2573  0.0833  0.0831
  566THF     C9 8494   3.623   2.093   1.657  0.1646 -0.3223  0.5619
  566THF    H10 8495   3.561   2.097   1.450 -3.9803 -2.6352  1.7292
  566THF    H11 8496   3.449   2.171   1.542  0.1729 -1.1674  0.2769
  566THF    H12 8497   3.555   2.061   1.735 -0.1858  0.8375  0.7519
  566THF    H13 8498   3.680   2.005   1.625  1.2644  1.3258 -2.4834
  567THF     O1 8499   2.043   0.515   4.018  0.1808  0.1952  0.1517
  567THF     C2 8500   2.035   0.520   4.161 -0.0132 -0.0520  0.3178
  567THF     C3 8501   2.060   0.644   3.971 -0.5237  0.0669  0.8826
  567THF     H4 8502   2.130   0.503   4.213 -0.2423 -0.7600  0.5265
  567THF     H5 8503   1.972   0.435   4.186 -1.2420  0.3325 -1.3299
  567THF     H6 8504   2.165   0.672   3.970 -0.3498 -0.5300 -0.6249
  567THF     H7 8505   2.035   0.645   3.865 -0.3239 -0.1623  0.8334
  567THF     C8 8506   1.971   0.733   4.065 -0.1575 -0.3224 -0.2195
  567THF     C9 8507   1.965   0.659   4.193 -0.4873  0.1876  0.4214
  567THF    H10 8508   1.870   0.746   4.024 -0.7085 -2.1048  0.4804
  567THF    H11 8509   2.024   0.827   4.078 -0.2458 -0.4054  0.8522
  567THF    H12 8510   2.031   0.705   4.266  1.0935 -0.7429 -0.3755
  567THF    H13 8511   1.860   0.644   4.220  0.1708 -1.5548  2.2826
  568THF     O1 8512   0.645   2.205   3.961  0.3085  0.2484  0.9097
  568THF     C2 8513   0.536   2.223   3.866 -0.1797 -0.4180 -0.1131
  568THF     C3 8514   0.597   2.255   4.080 -0.7054 -0.5507 -0.0212
  568THF     H4 8515   0.538   2.161   3.776 -2.8305  0.6655 -1.0434
  568THF     H5 8516   0.528   2.327   3.835 -0.8415 -0.7069 -0.9755
  568THF     H6 8517   0.655   2.229   4.168  0.1251 -1.0113 -0.6934
  568THF     H7 8518   0.582   2.363   4.069 -1.0637 -0.4665  1.1796
  568THF     C8 8519   0.462   2.190   4.085 -0.1243  0.0015  0.3182
  568THF     C9 8520   0.412   2.184   3.945 -0.2084 -0.1154 -0.8090
  568THF    H10 8521   0.393   2.247   4.146  0.9486  2.2798 -0.4932
  568THF    H11 8522   0.472   2.087   4.119 -0.4124  0.3007  1.3359
  568THF    H12 8523   0.381   2.087   3.905 -0.0154 -0.7160  0.4549
  568THF    H13 8524   0.336   2.256   3.913  0.8400  1.6420  0.4558
  569THF     O1 8525   3.121   1.588   0.223 -0.4607 -0.4837 -0.0695
  569THF     C2 8526   3.236   1.679   0.229 -0.1105  0.0899 -0.2717
  569THF     C3 8527   3.030   1.637   0.124 -0.5257 -0.3615 -0.0508
  569THF     H4 8528   3.312   1.643   0.160  0.7269  0.3103  0.5111
  569THF     H5 8529   3.288   1.679   0.325 -0.0028 -1.7971 -0.2853
  569THF     H6 8530   3.082   1.605   0.034 -1.5583 -3.1567  0.2249
  569THF     H7 8531   2.930   1.593   0.125 -0.7564  0.0540 -1.6351
  569THF     C8 8532   3.032   1.783   0.137 -0.0429 -0.6879  0.0041
  569THF     C9 8533   3.176   1.813   0.183 -1.1260  0.4019  0.3806
  569THF    H10 8534   2.956   1.816   0.208  0.1503 -0.1780 -0.0180
  569THF    H11 8535   3.011   1.833   0.043 -0.1378 -0.7600 -0.0127
  569THF    H12 8536   3.237   1.858   0.103  0.7151 -0.8287  1.0219
  569THF    H13 8537   3.185   1.887   0.262  0.3701  1.8061 -1.0068
  570THF     O1 8538   0.284   3.427   5.451  0.1353  0.1998  0.4772
  570THF     C2 8539   0.206   3.408   5.569 -0.2041 -0.5629  0.6204
  570THF     C3 8540   0.235   3.336   5.353 -0.2777 -1.1199 -0.7195
  570THF     H4 8541   0.107   3.453   5.560 -0.8664 -1.7521  1.5972
  570THF     H5 8542   0.246   3.467   5.652  0.9689  0.2663 -0.4999
  570THF     H6 8543   0.134   3.365   5.328 -0.7875  0.0901  2.2916
  570THF     H7 8544   0.301   3.319   5.268  1.8038  1.1540  0.3208
  570THF     C8 8545   0.220   3.215   5.439  0.2529  0.0848 -0.0555
  570THF     C9 8546   0.188   3.254   5.582  0.2049  0.1529 -0.4671
  570THF    H10 8547   0.317   3.165   5.448  0.4370  0.3869 -0.3477
  570THF    H11 8548   0.154   3.142   5.393 -0.5991 -0.0996  1.4191
  570THF    H12 8549   0.086   3.230   5.611  0.8391 -1.0327  0.9018
  570THF    H13 8550   0.258   3.226   5.661  0.0622  3.1822  0.8954
  571THF     O1 8551   1.460   5.360   4.359 -0.1253  0.5153  0.0404
  571THF     C2 8552   1.450   5.498   4.326  0.7905  0.1653 -0.1686
  571THF     C3 8553   1.358   5.321   4.454  0.2572 -0.5977  0.5150
  571THF     H4 8554   1.356   5.512   4.273 -0.3322  2.5146  2.2326
  571THF     H5 8555   1.534   5.534   4.267  0.8645 -0.0804 -0.2171
  571THF     H6 8556   1.263   5.300   4.406  0.8717 -3.1602  0.2760
  571THF     H7 8557   1.382   5.230   4.509  1.5954 -0.2808  0.4986
  571THF     C8 8558   1.356   5.445   4.539  0.3183  0.3144  0.0307
  571THF     C9 8559   1.439   5.550   4.466  0.8380 -0.3750  0.1070
  571THF    H10 8560   1.392   5.420   4.639  2.2488  3.4332  0.2521
  571THF    H11 8561   1.252   5.473   4.557 -0.3186 -2.5096  1.2981
  571THF    H12 8562   1.400   5.651   4.473 -1.1838 -1.1246  0.3571
  571THF    H13 8563   1.538   5.556   4.512  1.2913 -0.5017 -0.8180
  572THF     O1 8564   3.221   4.173   5.296  0.5550  0.0258  0.4072
  572THF     C2 8565   3.153   4.192   5.172 -0.0281  0.6827 -0.5781
  572THF     C3 8566   3.336   4.257   5.297 -0.3200  0.1950  0.0477
  572THF     H4 8567   3.110   4.292   5.164 -1.4057  0.1101 -0.6692
  572THF     H5 8568   3.084   4.113   5.141  0.9482 -0.5802  0.3630
  572THF     H6 8569   3.301   4.357   5.325 -0.7027  0.6768 -1.9611
  572THF     H7 8570   3.417   4.218   5.358 -1.9067 -2.2911  0.7354
  572THF     C8 8571   3.382   4.256   5.150  0.5128 -0.2250  0.2457
  572THF     C9 8572   3.271   4.192   5.075 -0.4643 -0.5504  0.0353
  572THF    H10 8573   3.468   4.193   5.129  1.4222  0.3928  1.9065
  572THF    H11 8574   3.396   4.364   5.136  1.7767 -0.5824 -1.4882
  572THF    H12 8575   3.257   4.237   4.976  0.1031 -0.5450 -0.0451
  572THF    H13 8576   3.312   4.096   5.043  1.8841  0.0941  0.9348
  573THF     O1 8577   1.758   2.711   2.692 -0.0392  0.2766 -0.1040
  573THF     C2 8578   1.818   2.698   2.566 -0.1278 -0.0735  0.0274
  573THF     C3 8579   1.646   2.620   2.693 -0.3274 -0.2031 -0.0149
  573THF     H4 8580   1.916   2.745   2.563  0.1997 -0.7382 -0.0075
  573THF     H5 8581   1.757   2.750   2.492 -0.5426 -2.5899 -1.5194
  573THF     H6 8582   1.626   2.602   2.798 -0.4900  1.2899  0.2293
  573THF     H7 8583   1.555   2.664   2.653 -0.1851  0.5272  0.4431
  573THF     C8 8584   1.695   2.497   2.620 -0.3296  0.3347  0.1950
  573THF     C9 8585   1.817   2.551   2.534  0.0516  0.0902 -0.2193
  573THF    H10 8586   1.617   2.462   2.553 -0.0931  1.7563 -0.8697
  573THF    H11 8587   1.740   2.424   2.688  1.1234  0.9591 -0.0515
  573THF    H12 8588   1.903   2.498   2.573 -0.5683 -1.2866 -0.6705
  573THF    H13 8589   1.815   2.518   2.430 -0.5529 -0.7004  0.0338
  574THF     O1 8590   3.082   2.497   1.146 -0.4069  0.1406 -0.3585
  574THF     C2 8591   3.043   2.408   1.250  0.4794  0.0565 -0.2666
  574THF     C3 8592   3.173   2.423   1.061  0.0412 -0.0478  0.2534
  574THF     H4 8593   2.970   2.340   1.207  0.8610 -1.0074  0.7052
  574THF     H5 8594   3.001   2.445   1.344  1.7205  2.3872 -0.5540
  574THF     H6 8595   3.136   2.344   0.997 -0.2995  1.7087 -1.8441
  574THF     H7 8596   3.220   2.485   0.984 -2.6459  2.3806  0.3944
  574THF     C8 8597   3.265   2.371   1.164  0.0052 -0.2466 -0.4373
  574THF     C9 8598   3.171   2.319   1.268 -0.8055 -0.2174 -0.4059
  574THF    H10 8599   3.312   2.463   1.198  0.2012 -0.1471 -0.9644
  574THF    H11 8600   3.340   2.302   1.127 -1.4809 -2.0997 -0.1639
  574THF    H12 8601   3.147   2.215   1.246  0.6059 -0.9275  1.1917
  574THF    H13 8602   3.213   2.317   1.368  1.4760  0.6850 -1.2965
  575THF     O1 8603   1.467   0.506   2.682 -1.1422  0.2516 -0.0383
  575THF     C2 8604   1.508   0.455   2.806  0.1130  0.0139  0.6660
  575THF     C3 8605   1.564   0.470   2.584  0.2099 -0.8075  0.2603
  575THF     H4 8606   1.483   0.349   2.806 -1.5363  0.3732  1.3669
  575THF     H5 8607   1.447   0.515   2.874 -1.3516 -1.7808  0.9934
  575THF     H6 8608   1.545   0.371   2.544  0.1672 -0.3460 -0.9054
  575THF     H7 8609   1.556   0.540   2.501 -1.7023 -1.5364 -0.2047
  575THF     C8 8610   1.698   0.479   2.663  1.3470  0.8510  0.3113
  575THF     C9 8611   1.655   0.478   2.806  0.4030  0.2638  0.4526
  575THF    H10 8612   1.752   0.570   2.641 -0.3135  2.2660  1.7484
  575THF    H11 8613   1.768   0.397   2.649  0.7240  0.1527  1.1396
  575THF    H12 8614   1.694   0.402   2.873 -2.5311 -1.6994  0.1372
  575THF    H13 8615   1.662   0.576   2.853 -2.8994 -0.0686  2.0011
  576THF     O1 8616   2.296   2.483   2.300  0.5024  0.1504  0.3543
  576THF     C2 8617   2.329   2.451   2.164 -0.1393  0.6606  0.2638
  576THF     C3 8618   2.167   2.422   2.328 -0.2004 -0.4138  0.8025
  576THF     H4 8619   2.352   2.345   2.153  1.2315  1.0841 -1.2075
  576THF     H5 8620   2.421   2.492   2.125  0.0085 -1.6876 -2.1248
  576THF     H6 8621   2.182   2.314   2.326 -1.0017 -0.5403  1.1823
  576THF     H7 8622   2.114   2.454   2.417 -1.6120  1.3412 -0.5781
  576THF     C8 8623   2.096   2.444   2.188 -0.1389  0.7194 -0.9264
  576THF     C9 8624   2.201   2.471   2.085 -0.8725  0.1714 -0.4066
  576THF    H10 8625   2.034   2.532   2.206 -0.2344  0.4742 -0.0128
  576THF    H11 8626   2.026   2.366   2.159  2.1021 -1.4829 -0.7601
  576THF    H12 8627   2.196   2.404   2.000  1.0833  1.0862 -1.3004
  576THF    H13 8628   2.197   2.571   2.040 -0.5574  0.6938  0.6956
  577THF     O1 8629   1.426   1.405   3.455  0.0910  0.2362  0.3285
  577THF     C2 8630   1.566   1.369   3.444 -0.2594  0.2467  0.4180
  577THF     C3 8631   1.372   1.347   3.577  0.3405  0.0418 -0.3932
  577THF     H4 8632   1.626   1.435   3.381  2.1820 -2.6619 -0.5303
  577THF     H5 8633   1.575   1.263   3.418  2.0769  0.3831  0.5000
  577THF     H6 8634   1.289   1.405   3.616  1.4056  0.1909  1.7934
  577THF     H7 8635   1.346   1.243   3.557  0.2161 -0.2665  1.2276
  577THF     C8 8636   1.489   1.349   3.678  0.1474  0.0718  0.2492
  577THF     C9 8637   1.609   1.392   3.586  0.1023  0.1824  0.6675
  577THF    H10 8638   1.502   1.247   3.712  0.2237  0.9544  3.1202
  577THF    H11 8639   1.494   1.418   3.763  0.0778 -0.4070  0.6439
  577THF    H12 8640   1.620   1.499   3.608  1.8608 -0.1718  1.6672
  577THF    H13 8641   1.700   1.342   3.615 -0.0080  0.5390  1.6548
  578THF     O1 8642   0.835   5.012   2.483  0.0038  0.1039 -0.3017
  578THF     C2 8643   0.931   4.998   2.385  0.0924 -0.1828 -0.4015
  578THF     C3 8644   0.746   4.900   2.472  0.2327 -0.4067  0.1708
  578THF     H4 8645   1.005   4.922   2.409 -0.9034 -0.4393  2.1844
  578THF     H5 8646   0.969   5.098   2.364 -1.1066  0.2978 -0.3657
  578THF     H6 8647   0.784   4.807   2.515 -2.6901 -1.4203  0.7952
  578THF     H7 8648   0.649   4.913   2.519  0.5261 -0.7756  0.9017
  578THF     C8 8649   0.739   4.873   2.321 -0.2618 -0.0069  1.0232
  578THF     C9 8650   0.848   4.963   2.261 -0.5517 -0.5467 -1.1764
  578THF    H10 8651   0.637   4.883   2.284  0.8059 -0.1137 -2.2069
  578THF    H11 8652   0.767   4.771   2.292  0.6564  0.5595 -0.1448
  578THF    H12 8653   0.908   4.912   2.187  0.6493 -2.2698  0.8821
  578THF    H13 8654   0.806   5.062   2.240  1.3709  0.3755 -0.8504
  579THF     O1 8655   3.192   2.001   1.101  0.5862 -0.0450  0.3903
  579THF     C2 8656   3.092   1.915   1.160  0.0758 -0.1536  0.4009
  579THF     C3 8657   3.165   2.001   0.960 -0.7540  0.0090 -0.5575
  579THF     H4 8658   3.074   1.958   1.259 -1.2191  3.5610 -1.2756
  579THF     H5 8659   3.140   1.819   1.178  0.4267 -0.1378 -0.4111
  579THF     H6 8660   3.198   2.082   0.895 -1.6827  0.3088 -0.6778
  579THF     H7 8661   3.202   1.904   0.928 -0.6809 -0.5559  1.1385
  579THF     C8 8662   3.013   1.995   0.951  0.1025 -0.0831 -0.0482
  579THF     C9 8663   2.970   1.912   1.065  0.4586 -0.2624 -0.4636
  579THF    H10 8664   2.988   1.940   0.860 -1.0483 -1.9493  1.3125
  579THF    H11 8665   2.969   2.095   0.958  0.0736 -0.1529  0.9028
  579THF    H12 8666   2.883   1.960   1.111  1.0433 -0.2590  0.6816
  579THF    H13 8667   2.944   1.808   1.048 -0.0474  0.1055 -2.1075
  580THF     O1 8668   0.923   5.484   2.891  0.0337 -0.9554 -0.0239
  580THF     C2 8669   0.888   5.540   3.019 -0.4587 -0.1076  0.2236
  580THF     C3 8670   0.826   5.531   2.799 -0.0389 -0.0983 -0.6894
  580THF     H4 8671   0.975   5.525   3.082 -0.7985  2.0539  1.2844
  580THF     H5 8672   0.798   5.492   3.059 -2.6150  2.7374 -0.9063
  580THF     H6 8673   0.842   5.522   2.691 -0.1653  2.7818 -1.0273
  580THF     H7 8674   0.734   5.479   2.823  0.1295 -0.0942 -0.0063
  580THF     C8 8675   0.814   5.687   2.832  0.0779  0.5516  0.1891
  580THF     C9 8676   0.867   5.690   2.978 -0.1777 -0.0260  0.7254
  580THF    H10 8677   0.718   5.736   2.815  0.2721  0.9745  0.2957
  580THF    H11 8678   0.891   5.729   2.767  0.9639 -3.2745 -1.4934
  580THF    H12 8679   0.958   5.750   2.974 -0.9788  1.2380  0.9489
  580THF    H13 8680   0.801   5.742   3.048 -0.8752 -1.5158  1.2078
  581THF     O1 8681   1.938   2.519   4.750  0.1637 -0.4258 -0.1496
  581THF     C2 8682   1.862   2.427   4.671 -0.5940  0.2434 -0.5056
  581THF     C3 8683   2.059   2.447   4.780  0.3708 -0.1480  0.2134
  581THF     H4 8684   1.782   2.467   4.608 -2.8013  1.4832  2.8119
  581THF     H5 8685   1.818   2.350   4.735  0.5903  0.3308  0.4443
  581THF     H6 8686   2.142   2.506   4.820  0.2193  0.7680 -0.7757
  581THF     H7 8687   2.044   2.358   4.841 -0.2936 -1.4359 -1.7450
  581THF     C8 8688   2.101   2.398   4.642 -0.3818  0.5138 -0.3395
  581THF     C9 8689   1.967   2.368   4.576  0.1966 -0.2324  0.6133
  581THF    H10 8690   2.163   2.309   4.632 -2.9823 -1.6544  1.2530
  581THF    H11 8691   2.164   2.471   4.591  1.1176 -0.9320 -0.6421
  581THF    H12 8692   1.960   2.410   4.475 -1.2881 -2.3090 -0.2187
  581THF    H13 8693   1.967   2.259   4.568  3.5182 -0.2309 -1.6850
  582THF     O1 8694   1.073   4.326   3.308  0.1637 -0.5946 -0.1626
  582THF     C2 8695   1.161   4.286   3.412 -0.4562  0.4982 -0.3261
  582THF     C3 8696   0.963   4.238   3.300  0.1994  0.2499  0.1545
  582THF     H4 8697   1.114   4.337   3.496  0.8947 -0.1463  0.8718
  582THF     H5 8698   1.260   4.330   3.408 -0.5421  0.8977  1.1784
  582THF     H6 8699   0.871   4.288   3.332 -0.9508 -1.5572 -0.1607
  582THF     H7 8700   0.944   4.208   3.197 -1.9852 -0.7130  0.7758
  582THF     C8 8701   0.993   4.126   3.391 -0.1050  0.4702 -0.4313
  582THF     C9 8702   1.144   4.137   3.411 -0.3002 -0.2480  0.0147
  582THF    H10 8703   0.967   4.027   3.353 -1.1210 -0.3133  2.1395
  582THF    H11 8704   0.946   4.152   3.486 -0.8868  0.6044 -0.8425
  582THF    H12 8705   1.172   4.101   3.509 -1.1014  0.7165  0.6210
  582THF    H13 8706   1.200   4.102   3.325  1.0264  4.0481 -1.1190
  583THF     O1 8707   5.335   0.526   2.445 -0.5274  0.1269  0.0751
  583THF     C2 8708   5.365   0.388   2.434  0.3589  0.6779  0.9844
  583THF     C3 8709   5.403   0.598   2.336  0.4656  1.1218  0.2468
  583THF     H4 8710   5.272   0.349   2.477 -0.0105  0.3897 -0.0393
  583THF     H5 8711   5.445   0.372   2.506 -0.8784  1.6988  2.6615
  583THF     H6 8712   5.355   0.692   2.306 -2.6295 -0.5161 -0.3343
  583THF     H7 8713   5.511   0.604   2.349  0.6261  0.4576 -0.6579
  583THF     C8 8714   5.358   0.511   2.217 -0.4324  0.4498 -0.2896
  583THF     C9 8715   5.370   0.368   2.280 -0.4146 -0.6986 -0.5200
  583THF    H10 8716   5.408   0.529   2.122  0.7579 -1.8771 -0.1842
  583THF    H11 8717   5.253   0.527   2.193 -0.8467 -1.5791 -0.0367
  583THF    H12 8718   5.290   0.300   2.251  0.6199 -2.7873  1.2319
  583THF    H13 8719   5.463   0.323   2.248 -1.0746 -0.9072 -2.2572
  584THF     O1 8720   2.852   3.715   0.539 -0.0197 -0.1812  0.7084
  584THF     C2 8721   2.715   3.693   0.550 -0.3223 -0.1298  1.3208
  584THF     C3 8722   2.876   3.848   0.553  0.1358 -0.5030  0.2504
  584THF     H4 8723   2.686   3.689   0.655  1.1202 -0.3189  1.7379
  584THF     H5 8724   2.689   3.600   0.499 -0.1533  0.3720  0.2803
  584THF     H6 8725   2.879   3.872   0.659  1.0683  0.3131  0.0565
  584THF     H7 8726   2.973   3.877   0.512  0.3936 -1.6295  0.0217
  584THF     C8 8727   2.764   3.920   0.488  0.4208 -0.2699 -0.2275
  584THF     C9 8728   2.654   3.813   0.472  0.2162 -0.2754 -0.8667
  584THF    H10 8729   2.786   3.958   0.388  1.0393 -0.5614 -0.2041
  584THF    H11 8730   2.731   4.002   0.551  1.0974 -0.9848  1.0877
  584THF    H12 8731   2.555   3.838   0.508 -1.0899 -0.3357 -4.0393
  584THF    H13 8732   2.637   3.784   0.368 -1.1725  0.7671 -0.9642
  585THF     O1 8733   4.623   1.686   5.383  0.3572 -0.0517 -0.0259
  585THF     C2 8734   4.747   1.649   5.340  0.2530 -0.3611 -0.5060
  585THF     C3 8735   4.589   1.609   5.503  0.2389  0.2906 -0.3228
  585THF     H4 8736   4.814   1.720   5.387  2.6796 -1.9868 -1.3003
  585THF     H5 8737   4.756   1.668   5.233  2.3182  1.2566 -0.1090
  585THF     H6 8738   4.648   1.630   5.592  0.0252  0.5986 -0.2511
  585THF     H7 8739   4.484   1.605   5.532 -0.2744  0.3888 -2.0562
  585THF     C8 8740   4.639   1.471   5.458 -0.0602  0.5703 -0.5502
  585THF     C9 8741   4.765   1.505   5.379 -0.0637 -0.2922  0.3477
  585THF    H10 8742   4.576   1.413   5.390 -0.4641  0.2022  0.1272
  585THF    H11 8743   4.672   1.406   5.539  1.7859  0.4727 -1.3382
  585THF    H12 8744   4.853   1.489   5.441 -1.6634  0.4759  3.0311
  585THF    H13 8745   4.762   1.438   5.293 -2.5929 -1.5300  1.2763
  586THF     O1 8746   1.684   3.868   2.143  0.8729  0.9363  0.1392
  586THF     C2 8747   1.632   4.002   2.152  0.4326 -0.0289 -0.6293
  586THF     C3 8748   1.769   3.856   2.025  0.2856  0.1430  0.3046
  586THF     H4 8749   1.664   4.053   2.243  1.6024  2.0313 -2.1225
  586THF     H5 8750   1.524   4.012   2.145  0.0841 -2.9026 -0.6417
  586THF     H6 8751   1.854   3.789   2.028  0.2736  0.0581 -0.7320
  586THF     H7 8752   1.706   3.822   1.943  0.4226 -2.1158  1.0746
  586THF     C8 8753   1.820   3.994   2.000 -0.0451 -0.3684 -0.0149
  586THF     C9 8754   1.699   4.078   2.033  0.5326 -0.5994 -0.5427
  586THF    H10 8755   1.859   4.007   1.899  0.3131  1.5024  0.3402
  586THF    H11 8756   1.900   4.008   2.072  1.1820  0.7683 -1.5323
  586THF    H12 8757   1.722   4.182   2.054 -0.9793  0.2170 -2.5976
  586THF    H13 8758   1.638   4.087   1.943  3.2071  1.9131 -2.2868
  587THF     O1 8759   1.697   2.081   0.133 -0.4803 -0.3921  0.6421
  587THF     C2 8760   1.666   1.999   0.022  0.4841  0.2487 -0.1244
  587THF     C3 8761   1.656   2.000   0.244  0.3305 -0.4756 -0.1470
  587THF     H4 8762   1.725   2.035  -0.063 -2.5338  1.4789 -1.9010
  587THF     H5 8763   1.560   1.997  -0.003  0.4778  1.8142 -0.3485
  587THF     H6 8764   1.677   2.052   0.338  0.0688 -0.0913 -0.2998
  587THF     H7 8765   1.549   1.982   0.254 -0.3661  2.5675 -1.1453
  587THF     C8 8766   1.724   1.863   0.205 -0.2541  0.4922 -0.5469
  587THF     C9 8767   1.701   1.852   0.054 -0.0169  0.4290  0.1639
  587THF    H10 8768   1.690   1.781   0.269 -0.8370  1.3871  0.3051
  587THF    H11 8769   1.832   1.871   0.220 -0.1498 -1.7483  0.3023
  587THF    H12 8770   1.780   1.804  -0.002 -0.8353  1.7890 -2.2901
  587THF    H13 8771   1.608   1.797   0.038  1.1364 -2.5732  2.7801
  588THF     O1 8772   2.062   0.344   1.415 -0.1785  0.4772  1.1414
  588THF     C2 8773   2.025   0.443   1.321  0.0979 -0.5851  0.0657
  588THF     C3 8774   2.120   0.239   1.329 -0.0902  0.1401  0.7526
  588THF     H4 8775   2.000   0.537   1.371 -0.1765  0.5063 -2.0378
  588THF     H5 8776   1.939   0.417   1.259 -0.1400 -2.5648  1.1606
  588THF     H6 8777   2.175   0.167   1.390  0.5457 -0.4482 -0.4620
  588THF     H7 8778   2.047   0.184   1.270 -0.7503  1.1560  0.6014
  588THF     C8 8779   2.216   0.320   1.235  0.1978 -0.0574  0.6584
  588THF     C9 8780   2.152   0.458   1.233 -0.1808  0.2188  0.0122
  588THF    H10 8781   2.231   0.266   1.141 -0.1202 -0.5741  0.9023
  588THF    H11 8782   2.312   0.326   1.286 -0.2835 -2.6471  2.0365
  588THF    H12 8783   2.220   0.525   1.285 -0.9397 -0.0176  1.3622
  588THF    H13 8784   2.134   0.485   1.129  1.0451  0.2377 -0.2071
  589THF     O1 8785   2.249   0.182   4.973 -0.1589  0.0082 -0.3030
  589THF     C2 8786   2.169   0.176   4.853  0.2150 -0.2420 -0.0399
  589THF     C3 8787   2.168   0.234   5.078  0.6025 -0.4017 -0.1175
  589THF     H4 8788   2.208   0.095   4.791 -1.3327 -1.2497  0.2716
  589THF     H5 8789   2.180   0.264   4.789 -0.1830  1.1927  1.7460
  589THF     H6 8790   2.208   0.203   5.175 -0.7698 -0.8705  0.3195
  589THF     H7 8791   2.170   0.343   5.079 -0.4376 -0.2187 -3.7525
  589THF     C8 8792   2.028   0.178   5.038  0.6775  0.4227  0.3659
  589THF     C9 8793   2.029   0.145   4.892 -0.2386 -0.1123 -1.2547
  589THF    H10 8794   1.951   0.247   5.073  0.4820  0.7497 -0.6852
  589THF    H11 8795   2.018   0.083   5.091  2.0482 -0.5806 -1.0774
  589THF    H12 8796   1.998   0.043   4.868  0.0388  0.0427 -2.3511
  589THF    H13 8797   1.966   0.217   4.838  0.4609  1.3530 -0.1878
  590THF     O1 8798   5.202   1.803   0.006  0.0288  0.0507 -0.3276
  590THF     C2 8799   5.063   1.791   0.026 -0.1848 -0.8076 -0.5487
  590THF     C3 8800   5.244   1.895   0.103 -0.6484 -0.3246 -0.5537
  590THF     H4 8801   5.027   1.701  -0.024  0.5148 -2.0900  1.1728
  590THF     H5 8802   5.003   1.877  -0.002  0.8286  0.4608  1.0464
  590THF     H6 8803   5.352   1.901   0.098 -0.5882  3.0837  1.4838
  590THF     H7 8804   5.203   1.996   0.094  0.2660  0.0921 -0.2022
  590THF     C8 8805   5.191   1.835   0.232  0.0996  0.5982 -0.4345
  590THF     C9 8806   5.069   1.765   0.180  0.3136  0.5541 -0.1768
  590THF    H10 8807   5.169   1.907   0.311 -2.0171 -0.5276  0.0653
  590THF    H11 8808   5.273   1.770   0.264 -2.0953 -4.3804 -3.7295
  590THF    H12 8809   5.065   1.657   0.198  1.0932  0.5483 -0.0218
  590THF    H13 8810   4.979   1.800   0.231  0.2006 -2.5146  2.0684
  591THF     O1 8811   4.772   3.985   0.579  0.1625 -0.2020 -0.1912
  591THF     C2 8812   4.688   4.005   0.694 -0.1920  0.5447  0.8026
  591THF     C3 8813   4.687   3.962   0.464 -0.3104  0.3457 -0.3230
  591THF     H4 8814   4.624   4.092   0.681 -0.6604  0.2976  1.4212
  591THF     H5 8815   4.740   3.996   0.790 -2.0923  1.9028  2.0272
  591THF     H6 8816   4.661   4.052   0.409  0.1361 -0.9127 -2.6937
  591THF     H7 8817   4.751   3.904   0.398  3.1992  0.9368  2.2384
  591THF     C8 8818   4.570   3.891   0.525 -1.0123 -0.7544  0.5207
  591THF     C9 8819   4.602   3.878   0.676 -0.2005  0.3205 -0.2166
  591THF    H10 8820   4.569   3.791   0.482  0.5567 -0.5687 -0.0116
  591THF    H11 8821   4.473   3.933   0.500 -0.5137 -0.7381 -1.5245
  591THF    H12 8822   4.514   3.866   0.740 -0.1715 -1.5390 -0.4618
  591THF    H13 8823   4.672   3.797   0.700  1.1672  1.3933 -0.4916
  592THF     O1 8824   3.176   0.647   2.827  0.1736  0.0755 -0.2015
  592THF     C2 8825   3.133   0.782   2.798 -0.3197 -0.2419  0.2166
  592THF     C3 8826   3.081   0.564   2.755 -0.2539  0.2862  0.0472
  592THF     H4 8827   3.213   0.854   2.816  0.2179  0.1795 -3.1374
  592THF     H5 8828   3.045   0.799   2.860  1.2152 -1.4396  2.8742
  592THF     H6 8829   3.123   0.464   2.738 -1.8099 -0.2903 -0.5964
  592THF     H7 8830   2.981   0.555   2.797  0.1377 -0.2142  0.8941
  592THF     C8 8831   3.067   0.644   2.622 -0.2103 -0.5742  0.1355
  592THF     C9 8832   3.089   0.790   2.658 -0.0856  0.0297  0.3322
  592THF    H10 8833   2.972   0.619   2.575 -1.0512 -0.2746  1.6066
  592THF    H11 8834   3.142   0.614   2.549 -0.9544  0.2930 -1.0162
  592THF    H12 8835   3.169   0.827   2.595 -0.6120 -3.1361 -2.4577
  592THF    H13 8836   3.005   0.858   2.646  0.3517  0.6665  0.8421
  593THF     O1 8837   2.639   2.468   3.971 -0.3414 -0.0822  0.6429
  593THF     C2 8838   2.527   2.545   3.931 -0.1915 -0.0236  0.0713
  593THF     C3 8839   2.762   2.539   3.947 -0.4198  0.4657  0.1253
  593THF     H4 8840   2.519   2.618   4.011 -0.5862  0.5509 -0.4835
  593THF     H5 8841   2.435   2.487   3.922  0.9047 -1.5300 -2.4826
  593THF     H6 8842   2.785   2.608   4.028 -0.6362  2.0035 -1.0597
  593THF     H7 8843   2.852   2.482   3.924  0.1304  0.2357  2.5888
  593THF     C8 8844   2.727   2.608   3.814  0.7444  0.4198  0.3560
  593THF     C9 8845   2.574   2.596   3.799  0.0221 -0.1584  0.2516
  593THF    H10 8846   2.774   2.571   3.723 -0.3182  0.3830 -0.1889
  593THF    H11 8847   2.748   2.714   3.828 -1.2485  0.8745  0.1856
  593THF    H12 8848   2.525   2.691   3.777 -0.0399  0.0961  1.4481
  593THF    H13 8849   2.537   2.527   3.723 -1.0800 -0.8643  1.3902
  594THF     O1 8850   1.302   4.154   0.185 -0.0503  0.2702  0.1593
  594THF     C2 8851   1.362   4.227   0.073 -0.0503  0.6468 -0.3068
  594THF     C3 8852   1.164   4.174   0.177 -0.1433  0.6744  0.6174
  594THF     H4 8853   1.435   4.159   0.029  0.5418  1.6609 -0.9397
  594THF     H5 8854   1.414   4.316   0.109 -0.5398  0.8040  0.0266
  594THF     H6 8855   1.108   4.087   0.211 -0.2440  0.4371 -0.1271
  594THF     H7 8856   1.138   4.265   0.232 -1.7218 -0.5820  2.0480
  594THF     C8 8857   1.139   4.192   0.031 -0.2399  0.7699 -0.3001
  594THF     C9 8858   1.256   4.272  -0.015 -0.1259 -0.5076 -0.1952
  594THF    H10 8859   1.043   4.234   0.002 -1.1939 -1.7830 -1.0383
  594THF    H11 8860   1.143   4.095  -0.018  3.9709  1.8902 -2.6743
  594THF    H12 8861   1.275   4.270  -0.122  2.5405  2.5895  0.0517
  594THF    H13 8862   1.239   4.376   0.012  0.2023 -0.0739 -1.5849
  595THF     O1 8863   1.924   5.310   1.748  0.6585 -0.7965 -0.3332
  595THF     C2 8864   1.870   5.432   1.707  0.2965  0.0164 -0.4353
  595THF     C3 8865   1.853   5.205   1.692  0.9642 -0.2709 -0.3510
  595THF     H4 8866   1.946   5.480   1.646  1.3449 -1.9864 -0.7867
  595THF     H5 8867   1.866   5.504   1.789  3.1159  0.7962 -0.8827
  595THF     H6 8868   1.896   5.167   1.600  1.4493 -0.5839  0.0007
  595THF     H7 8869   1.852   5.131   1.772 -2.6781 -0.1422 -0.0860
  595THF     C8 8870   1.713   5.268   1.683  0.2566  0.5556  0.2231
  595THF     C9 8871   1.737   5.405   1.630 -0.7134  0.4460  0.1598
  595THF    H10 8872   1.664   5.277   1.780  2.3277  0.3271  1.3330
  595THF    H11 8873   1.650   5.205   1.619 -0.0056  0.6340  0.4016
  595THF    H12 8874   1.759   5.403   1.524  0.4359  1.4447  0.3632
  595THF    H13 8875   1.659   5.477   1.654 -0.1684  1.2222 -0.3668
  596THF     O1 8876   3.932   0.129   1.041  0.3686  0.9622 -0.5147
  596THF     C2 8877   3.985   0.191   1.155  0.3590 -0.2288 -0.2083
  596THF     C3 8878   4.024   0.145   0.929  0.0492  0.8255 -0.1750
  596THF     H4 8879   3.946   0.169   1.255 -1.4096  1.3106 -0.5091
  596THF     H5 8880   3.963   0.297   1.146 -0.6941 -0.3183  0.9587
  596THF     H6 8881   4.007   0.071   0.851  0.4918 -0.9031  1.3014
  596THF     H7 8882   4.006   0.243   0.884 -0.5640  0.3221 -1.0392
  596THF     C8 8883   4.158   0.146   0.989  0.4965 -0.1354 -0.3552
  596THF     C9 8884   4.128   0.157   1.139 -0.5202  0.0526  0.7984
  596THF    H10 8885   4.222   0.222   0.945  1.0505  0.2653  1.0804
  596THF    H11 8886   4.205   0.050   0.968 -2.0002 -1.4122 -0.4985
  596THF    H12 8887   4.147   0.059   1.183 -1.1706 -0.7466 -0.6351
  596THF    H13 8888   4.191   0.228   1.194  0.0525 -0.9961  1.5392
  597THF     O1 8889   5.242   0.091   2.483  0.0928 -0.5385  0.2356
  597THF     C2 8890   5.367   0.064   2.540 -0.3284 -0.5083 -0.1784
  597THF     C3 8891   5.202  -0.004   2.386  0.4632 -0.0794 -0.2614
  597THF     H4 8892   5.379   0.091   2.645 -0.9898  0.3101 -0.2979
  597THF     H5 8893   5.446   0.119   2.488  0.7188 -0.8605  1.0044
  597THF     H6 8894   5.094  -0.013   2.373  0.5732 -3.3773  0.0950
  597THF     H7 8895   5.246   0.006   2.287  0.7047 -2.1099 -0.3958
  597THF     C8 8896   5.256  -0.134   2.457  0.0056 -0.1863 -0.0883
  597THF     C9 8897   5.383  -0.084   2.530 -0.6153  0.3189 -0.4037
  597THF    H10 8898   5.275  -0.208   2.380  3.5388  1.3226 -0.8825
  597THF    H11 8899   5.175  -0.165   2.523 -1.2175 -0.5828 -1.7114
  597THF    H12 8900   5.386  -0.137   2.625 -1.1943  0.6844 -0.1763
  597THF    H13 8901   5.480  -0.110   2.488 -0.2041  1.0686  0.0538
  598THF     O1 8902   3.520   4.719   0.895 -0.1781  0.3290 -0.4528
  598THF     C2 8903   3.424   4.609   0.903 -0.3808 -0.9669  0.4910
  598THF     C3 8904   3.520   4.763   0.754  0.2531  0.2909 -0.8294
  598THF     H4 8905   3.323   4.650   0.899 -0.3100 -0.7792  0.6247
  598THF     H5 8906   3.428   4.558   0.999  1.8448  0.2814  1.1233
  598THF     H6 8907   3.440   4.832   0.728  0.7523  1.1713 -0.0728
  598THF     H7 8908   3.616   4.812   0.737  0.1624  0.6413 -0.3468
  598THF     C8 8909   3.497   4.636   0.672  0.2339 -0.0625 -0.2158
  598THF     C9 8910   3.458   4.528   0.778  0.2393  0.7706  0.1735
  598THF    H10 8911   3.581   4.605   0.610 -0.9135  0.5904 -2.2011
  598THF    H11 8912   3.415   4.654   0.602 -0.3299 -2.1990 -0.1906
  598THF    H12 8913   3.379   4.463   0.741  0.3911  0.8608 -0.3239
  598THF    H13 8914   3.542   4.459   0.784 -0.1968  0.3598  2.1178
  599THF     O1 8915   4.598   1.155   5.453  0.3067  0.3538 -0.1178
  599THF     C2 8916   4.669   1.050   5.520  0.0032 -0.4039  0.7916
  599THF     C3 8917   4.535   1.085   5.341  0.1248 -0.1410 -0.3960
  599THF     H4 8918   4.703   1.081   5.619 -1.6774  0.1259  1.2488
  599THF     H5 8919   4.751   1.007   5.464 -1.5041 -3.0124  0.4057
  599THF     H6 8920   4.460   1.149   5.294  0.5084  0.7846  0.2280
  599THF     H7 8921   4.610   1.070   5.263 -0.2247  0.2221 -0.8114
  599THF     C8 8922   4.476   0.959   5.411  0.0835 -0.1454  0.0380
  599THF     C9 8923   4.571   0.930   5.525  0.2149 -0.0856 -0.2823
  599THF    H10 8924   4.457   0.874   5.345 -2.0542 -1.4236  2.1280
  599THF    H11 8925   4.380   0.978   5.460 -1.4793  1.9821 -3.4831
  599THF    H12 8926   4.527   0.911   5.623 -0.0930  1.0811 -0.1816
  599THF    H13 8927   4.631   0.844   5.495 -1.9113 -1.4538 -0.8538
  600THF     O1 8928   1.303   2.764   4.163 -0.2287 -0.2645 -0.1801
  600THF     C2 8929   1.339   2.688   4.045  0.5518 -0.2358 -0.3819
  600THF     C3 8930   1.370   2.698   4.275  0.4981  0.3888  0.4187
  600THF     H4 8931   1.320   2.756   3.961 -0.9746 -0.9984 -0.6873
  600THF     H5 8932   1.278   2.599   4.034 -1.1316  1.0821 -2.6797
  600THF     H6 8933   1.379   2.768   4.358  3.1663 -0.3325  0.8305
  600THF     H7 8934   1.320   2.610   4.316  1.5305 -0.5233 -0.2335
  600THF     C8 8935   1.506   2.656   4.215  0.2342 -0.2224 -0.0887
  600THF     C9 8936   1.481   2.664   4.059 -0.5759 -0.4430  0.7137
  600THF    H10 8937   1.550   2.565   4.254  1.7536  1.5288  2.5622
  600THF    H11 8938   1.575   2.736   4.242  0.3354 -0.0427 -0.8552
  600THF    H12 8939   1.533   2.750   4.016 -1.2262  0.1405  1.0631
  600THF    H13 8940   1.518   2.581   3.999 -1.3171  2.5425 -4.5334
  601THF     O1 8941   1.838   2.562   4.044  0.2036  0.3215 -0.5048
  601THF     C2 8942   1.824   2.424   4.067 -0.3917 -0.2801 -0.1259
  601THF     C3 8943   1.891   2.635   4.153  0.2789  0.0647 -0.7455
  601THF     H4 8944   1.861   2.370   3.980  3.0336  0.1390  0.9422
  601THF     H5 8945   1.722   2.389   4.082 -1.2939 -0.3095 -4.7824
  601THF     H6 8946   1.935   2.727   4.114  2.3195  0.0205  1.2092
  601THF     H7 8947   1.809   2.646   4.225  0.4170 -1.7126 -0.2691
  601THF     C8 8948   1.994   2.529   4.211  0.0697 -0.2689  0.4302
  601THF     C9 8949   1.910   2.408   4.186  0.0585 -0.0086  0.0609
  601THF    H10 8950   2.024   2.551   4.313  0.9189  1.2175 -0.1127
  601THF    H11 8951   2.076   2.521   4.139 -0.0421  3.0872 -0.2049
  601THF    H12 8952   1.970   2.317   4.183  1.2465  0.7375 -3.6463
  601THF    H13 8953   1.840   2.404   4.270  2.9975 -0.7833  2.6950
  602THF     O1 8954   1.054   5.124   0.504 -0.6241  0.1565  0.3197
  602THF     C2 8955   1.002   5.243   0.449 -0.0486  0.4109 -0.1512
  602THF     C3 8956   0.946   5.031   0.506  0.3021 -0.1385  0.2323
  602THF     H4 8957   1.006   5.239   0.340 -0.7194 -0.0011 -0.1694
  602THF     H5 8958   1.055   5.328   0.490  0.0961 -0.2980  1.1965
  602THF     H6 8959   0.933   4.980   0.411 -0.0138 -1.7356  1.1011
  602THF     H7 8960   0.960   4.959   0.586 -1.3972 -0.4727  0.2605
  602THF     C8 8961   0.827   5.117   0.552  0.6152 -0.1669 -0.4682
  602THF     C9 8962   0.856   5.248   0.488  0.0639 -0.6312 -0.1076
  602THF    H10 8963   0.820   5.111   0.660 -1.9720 -0.7440 -0.5842
  602THF    H11 8964   0.735   5.066   0.522  1.2703 -1.6852  0.0166
  602THF    H12 8965   0.793   5.244   0.400  0.2528 -2.1417 -0.2124
  602THF    H13 8966   0.817   5.339   0.533 -1.0689 -0.9134 -0.4837
  603THF     O1 8967   2.609   4.822   5.178 -0.4240  0.1523 -0.6130
  603THF     C2 8968   2.486   4.888   5.209 -0.8824 -0.2016 -0.8439
  603THF     C3 8969   2.691   4.927   5.131 -0.1421  0.1891  0.2786
  603THF     H4 8970   2.498   4.913   5.315 -0.0562 -1.1228 -0.7111
  603THF     H5 8971   2.396   4.828   5.200 -0.3885 -1.1362  0.2666
  603THF     H6 8972   2.752   4.959   5.215  0.9445  1.6113 -0.9957
  603THF     H7 8973   2.768   4.893   5.062  0.7297  0.3923  1.1252
  603THF     C8 8974   2.601   5.039   5.073  0.1485  0.4167 -0.6657
  603THF     C9 8975   2.461   5.005   5.116  0.1679 -0.1737  0.5761
  603THF    H10 8976   2.603   5.044   4.964 -3.1723 -0.6482 -0.8587
  603THF    H11 8977   2.635   5.134   5.114  2.8469 -1.4503  1.8445
  603THF    H12 8978   2.413   5.094   5.159  0.1638 -0.5019  1.2625
  603THF    H13 8979   2.416   4.978   5.020  0.8529  0.5790  0.0290
  604THF     O1 8980   0.522   4.121   1.852 -0.4884  0.6410 -0.5499
  604THF     C2 8981   0.404   4.178   1.905  0.4067 -0.6696 -0.1306
  604THF     C3 8982   0.522   4.132   1.710 -0.0675 -0.1035 -0.2897
  604THF     H4 8983   0.429   4.258   1.975 -1.7864  0.9904 -1.1390
  604THF     H5 8984   0.345   4.098   1.950 -0.6639  0.0714 -0.1829
  604THF     H6 8985   0.626   4.144   1.680  0.1025 -0.6118  0.0714
  604THF     H7 8986   0.487   4.035   1.674  1.6105 -0.7564 -0.2879
  604THF     C8 8987   0.424   4.251   1.674  0.6854  0.5529 -0.7428
  604THF     C9 8988   0.324   4.247   1.797  0.2843 -0.3055  0.0336
  604THF    H10 8989   0.384   4.245   1.572 -0.6728  0.5667 -0.2363
  604THF    H11 8990   0.472   4.349   1.678 -1.2975  1.5291  0.8813
  604THF    H12 8991   0.292   4.347   1.825  2.4687  0.1029  1.3088
  604THF    H13 8992   0.236   4.189   1.771  0.5046 -0.2703 -0.8227
  605THF     O1 8993   4.629   2.648   4.898  0.3525  0.4325 -0.5661
  605THF     C2 8994   4.508   2.597   4.956 -0.3092  1.0709  0.6933
  605THF     C3 8995   4.738   2.624   4.995 -0.2901  0.7275  0.2380
  605THF     H4 8996   4.429   2.564   4.889 -0.8523  0.8551  1.4242
  605THF     H5 8997   4.468   2.669   5.027  0.9846  2.7951 -0.2555
  605THF     H6 8998   4.843   2.634   4.965 -0.7029  0.3772 -1.4419
  605THF     H7 8999   4.725   2.696   5.075  0.0701 -0.0439  1.0086
  605THF     C8 9000   4.707   2.482   5.035 -0.2247  0.5586 -0.5090
  605THF     C9 9001   4.554   2.477   5.031 -0.7361  0.1738 -0.6317
  605THF    H10 9002   4.745   2.469   5.136 -1.1321 -1.4246 -0.3859
  605THF    H11 9003   4.761   2.422   4.962  1.6626  0.3303  0.9948
  605THF    H12 9004   4.526   2.383   4.985 -0.1455 -0.7079  0.7610
  605THF    H13 9005   4.510   2.473   5.131 -0.4973 -1.2517 -0.5618
  606THF     O1 9006   2.407   2.214   4.237 -0.3459  0.6143 -0.0994
  606THF     C2 9007   2.294   2.235   4.320 -0.0258 -0.1513  0.3860
  606THF     C3 9008   2.500   2.324   4.240  0.0969 -0.2583 -0.4001
  606THF     H4 9009   2.305   2.181   4.414 -0.6598 -1.9269 -0.4939
  606THF     H5 9010   2.201   2.200   4.276 -0.7526  0.1905  1.6119
  606THF     H6 9011   2.566   2.321   4.327  0.0356  2.0927 -0.2088
  606THF     H7 9012   2.576   2.315   4.163  1.1830 -1.5610  0.7867
  606THF     C8 9013   2.413   2.443   4.255 -0.5241 -0.2353  0.4415
  606THF     C9 9014   2.303   2.387   4.355 -0.4563 -0.1002  0.6381
  606THF    H10 9015   2.367   2.464   4.158  0.2277  1.0712  0.3436
  606THF    H11 9016   2.465   2.530   4.295  0.6537 -0.9119  0.4428
  606THF    H12 9017   2.334   2.398   4.459 -1.8795 -0.8748  1.1798
  606THF    H13 9018   2.216   2.451   4.338 -1.3578 -1.8016 -1.6553
  607THF     O1 9019   0.073   4.683   0.605 -0.0869  0.6144  0.2234
  607THF     C2 9020  -0.024   4.789   0.579 -0.1665  0.1271  0.0525
  607THF     C3 9021   0.163   4.670   0.494  0.2048  0.0049  0.7128
  607THF     H4 9022  -0.027   4.860   0.662  1.4340  0.0719  0.1869
  607THF     H5 9023  -0.119   4.738   0.563  0.2057 -0.8468  0.8647
  607THF     H6 9024   0.254   4.618   0.522  0.0563 -0.2196  0.7774
  607THF     H7 9025   0.102   4.622   0.418 -1.3445  0.5945  1.5432
  607THF     C8 9026   0.182   4.811   0.452 -0.3170 -0.3575  0.3179
  607THF     C9 9027   0.037   4.870   0.463  0.0302  0.0700  0.3659
  607THF    H10 9028   0.216   4.815   0.348  1.5620 -1.9248  0.8219
  607THF    H11 9029   0.258   4.867   0.507  2.6402 -1.2029 -2.5621
  607THF    H12 9030   0.048   4.977   0.478 -1.0242  0.0497  1.4875
  607THF    H13 9031  -0.007   4.856   0.365  0.3061  2.8823 -0.2555
  608THF     O1 9032   0.188   0.115   2.119  0.1059 -0.1701  0.2198
  608THF     C2 9033   0.076   0.151   2.041 -0.5053  0.9565  0.4204
  608THF     C3 9034   0.136   0.038   2.227  0.2041  0.2480  1.0044
  608THF     H4 9035   0.121   0.152   1.942 -0.7930 -1.6193  0.1937
  608THF     H5 9036   0.035   0.249   2.067 -2.5150  0.9976 -2.4466
  608THF     H6 9037   0.219  -0.024   2.261  0.3374 -1.0254 -1.3763
  608THF     H7 9038   0.089   0.094   2.307 -3.7978  0.0458 -0.9203
  608THF     C8 9039   0.047  -0.053   2.152  0.4067 -0.3852  0.3155
  608THF     C9 9040  -0.023   0.039   2.067  0.9094  0.6634  0.0850
  608THF    H10 9041  -0.012  -0.126   2.207  0.2116 -3.2908 -3.3624
  608THF    H11 9042   0.105  -0.119   2.088  0.2048 -0.7260  0.4819
  608THF    H12 9043  -0.063  -0.006   1.976 -0.3628  1.8640  0.0134
  608THF    H13 9044  -0.110   0.075   2.122 -2.2850 -3.1292 -1.9425
  609THF     O1 9045   2.051   4.571   2.157  0.0751 -0.2470  0.5921
  609THF     C2 9046   1.995   4.607   2.279 -0.7590 -0.5556 -0.0085
  609THF     C3 9047   2.042   4.432   2.125  0.3468  0.1436 -0.7400
  609THF     H4 9048   1.954   4.707   2.263  0.9719  0.5489  2.0390
  609THF     H5 9049   2.065   4.629   2.358 -0.4956  1.7620 -0.8007
  609THF     H6 9050   1.992   4.402   2.033 -0.1276 -1.0788 -0.1172
  609THF     H7 9051   2.140   4.386   2.132 -1.0526 -2.7930  2.5087
  609THF     C8 9052   1.961   4.381   2.247  0.0371  0.6860  0.6738
  609THF     C9 9053   1.888   4.505   2.299  0.1323  0.3980 -0.4847
  609THF    H10 9054   2.039   4.343   2.312 -0.1004  0.7353  0.8671
  609THF    H11 9055   1.891   4.301   2.224 -2.9557  3.2605  0.1196
  609THF    H12 9056   1.799   4.529   2.241 -1.0346  0.1021  1.1209
  609THF    H13 9057   1.850   4.499   2.401 -0.6814 -0.6241 -0.8294
  610THF     O1 9058   2.554   5.305   2.065  0.2145  0.2261  0.2437
  610THF     C2 9059   2.554   5.236   1.939 -0.1366  0.5461  0.3635
  610THF     C3 9060   2.535   5.206   2.171  0.0997  0.1847  0.0321
  610THF     H4 9061   2.599   5.285   1.853 -2.1579 -0.9137 -1.6304
  610THF     H5 9062   2.454   5.222   1.899 -0.4077  1.9699  0.4983
  610THF     H6 9063   2.603   5.216   2.256  1.4091 -1.4565 -0.7582
  610THF     H7 9064   2.431   5.216   2.203 -0.0231  2.2330 -0.8863
  610THF     C8 9065   2.551   5.065   2.105 -0.1834  0.2067 -0.6028
  610THF     C9 9066   2.609   5.099   1.974 -0.5495 -0.1065 -0.5207
  610THF    H10 9067   2.455   5.014   2.101  1.0310 -2.5536  1.7905
  610THF    H11 9068   2.610   5.007   2.176 -1.9261 -0.3166  0.4815
  610THF    H12 9069   2.716   5.111   1.986 -0.8796  2.4842  0.5081
  610THF    H13 9070   2.588   5.031   1.891 -0.1318  1.1673 -1.6913
  611THF     O1 9071   3.355   2.728   1.444  0.0363  0.0441 -0.4418
  611THF     C2 9072   3.393   2.853   1.499 -0.1158  0.5510  0.0570
  611THF     C3 9073   3.474   2.646   1.446  0.2616 -0.5985  0.3480
  611THF     H4 9074   3.303   2.911   1.520 -1.2712 -0.9536 -0.5572
  611THF     H5 9075   3.460   2.913   1.438  0.8957  0.2958  0.8981
  611THF     H6 9076   3.452   2.540   1.436 -1.7292 -0.2974  1.0708
  611THF     H7 9077   3.555   2.667   1.376 -0.1458  0.8240  0.2582
  611THF     C8 9078   3.534   2.674   1.587  0.8178 -0.9671  0.4794
  611THF     C9 9079   3.470   2.808   1.625 -0.2289 -0.4322  0.6126
  611THF    H10 9080   3.642   2.691   1.588  0.5505  1.4376 -1.2286
  611THF    H11 9081   3.514   2.594   1.658  1.2767 -0.9598  0.6212
  611THF    H12 9082   3.393   2.800   1.702 -0.1326 -0.4033  0.7122
  611THF    H13 9083   3.537   2.888   1.657 -1.3404  0.3008  1.1692
  612THF     O1 9084   4.345   2.309   2.609 -0.0525 -0.0289 -0.1426
  612THF     C2 9085   4.302   2.293   2.743 -0.6037  0.3444 -0.2565
  612THF     C3 9086   4.254   2.394   2.548 -0.5694  0.5060 -0.3311
  612THF     H4 9087   4.322   2.385   2.797  0.9206 -0.4747  0.6366
  612THF     H5 9088   4.339   2.200   2.787  0.4542  0.5616 -0.6651
  612THF     H6 9089   4.267   2.501   2.563 -0.1073  0.7346 -2.1348
  612THF     H7 9090   4.271   2.374   2.442 -0.4916 -0.2571 -0.1817
  612THF     C8 9091   4.116   2.340   2.589 -0.1437  0.0617 -0.2895
  612THF     C9 9092   4.144   2.275   2.723 -0.6670 -0.0092 -0.9084
  612THF    H10 9093   4.101   2.265   2.511 -0.8918  1.7511 -1.8266
  612THF    H11 9094   4.041   2.419   2.580  0.3131  0.5400  0.0716
  612THF    H12 9095   4.100   2.335   2.803  1.3171  1.8556 -1.1237
  612THF    H13 9096   4.107   2.173   2.727  1.1868 -0.6496  1.2476
  613THF     O1 9097   0.578   2.910   4.505  0.2421 -0.1748  0.0730
  613THF     C2 9098   0.564   3.025   4.578  0.5025 -0.4345  0.2640
  613THF     C3 9099   0.593   2.806   4.594 -0.1653  0.7063 -0.1349
  613THF     H4 9100   0.523   3.109   4.521 -1.5579 -0.7058  1.2275
  613THF     H5 9101   0.657   3.065   4.619  1.4013 -0.6266 -1.5133
  613THF     H6 9102   0.607   2.711   4.542  0.8716  0.0175  1.3313
  613THF     H7 9103   0.686   2.798   4.651  1.8813  0.7170 -3.2292
  613THF     C8 9104   0.480   2.824   4.691  0.3001  0.3169 -0.4815
  613THF     C9 9105   0.458   2.977   4.679 -0.5087  0.5365  0.4781
  613THF    H10 9106   0.497   2.783   4.790  0.1347  0.0537 -0.5611
  613THF    H11 9107   0.391   2.771   4.657 -1.0009  1.1004  1.5029
  613THF    H12 9108   0.358   3.002   4.644  0.0799  1.3281 -0.7128
  613THF    H13 9109   0.476   3.035   4.769  1.6561 -2.6808  2.3347
  614THF     O1 9110   2.220   2.618   5.091  0.5813  0.2987  0.0202
  614THF     C2 9111   2.080   2.647   5.092 -0.0614 -0.2531 -0.0793
  614THF     C3 9112   2.295   2.741   5.079  0.4040 -0.3303 -0.0404
  614THF     H4 9113   2.052   2.661   5.196  3.7318  1.4709  0.8798
  614THF     H5 9114   2.032   2.562   5.043  0.3748  1.1784 -3.2479
  614THF     H6 9115   2.346   2.773   5.170 -2.0579 -0.3775  1.4406
  614THF     H7 9116   2.362   2.729   4.994  0.8788  1.5323  0.0191
  614THF     C8 9117   2.191   2.854   5.040 -0.1779  0.7581 -0.9328
  614THF     C9 9118   2.067   2.772   5.010 -0.2995 -0.5474  0.6457
  614THF    H10 9119   2.226   2.889   4.943  0.5921  0.8307 -0.6409
  614THF    H11 9120   2.188   2.940   5.108  0.1790  0.1275 -0.0930
  614THF    H12 9121   1.979   2.829   5.039 -0.8442 -0.1129 -1.6913
  614THF    H13 9122   2.059   2.747   4.904  1.4052  0.0540  0.3349
  615THF     O1 9123   4.163   4.064   3.431 -0.0232  0.3540 -0.4265
  615THF     C2 9124   4.182   4.017   3.560  0.4880  0.1493 -0.7304
  615THF     C3 9125   4.246   4.176   3.421 -0.3991 -0.5175  0.0614
  615THF     H4 9126   4.150   3.913   3.562 -0.8694  0.5483  1.4308
  615THF     H5 9127   4.113   4.071   3.625 -2.2502  0.3505 -3.5781
  615THF     H6 9128   4.271   4.197   3.317  2.2336 -0.5687  0.6107
  615THF     H7 9129   4.196   4.265   3.459  0.4065  0.0987 -0.3091
  615THF     C8 9130   4.373   4.142   3.495 -0.1037 -0.2431 -0.2390
  615THF     C9 9131   4.332   4.034   3.592 -1.0112  0.0625  0.2808
  615THF    H10 9132   4.431   4.223   3.539 -1.0635  1.1906 -1.5281
  615THF    H11 9133   4.437   4.095   3.419 -0.4401 -3.4788  1.3116
  615THF    H12 9134   4.365   3.937   3.556 -0.6439  0.8630 -1.6630
  615THF    H13 9135   4.360   4.057   3.694 -1.7233 -1.4644  0.8393
  616THF     O1 9136   2.858   1.435   0.887  0.4680  0.2789  0.5077
  616THF     C2 9137   2.878   1.551   0.970 -0.0420  0.3331 -0.2519
  616THF     C3 9138   2.969   1.348   0.906  0.2943 -0.1943 -0.4030
  616THF     H4 9139   2.778   1.578   1.003  0.2647 -0.0028  0.9997
  616THF     H5 9140   2.920   1.635   0.915  2.2075 -0.5856 -0.0490
  616THF     H6 9141   2.967   1.242   0.881  1.0149 -0.1551 -0.6472
  616THF     H7 9142   3.052   1.397   0.856  0.5786 -0.4115 -0.1467
  616THF     C8 9143   2.991   1.366   1.051  0.2090 -0.3851  0.0225
  616THF     C9 9144   2.971   1.511   1.084 -0.0185  0.2976 -0.6412
  616THF    H10 9145   3.091   1.336   1.080  0.2847  1.1340  1.4510
  616THF    H11 9146   2.910   1.310   1.098  0.4002 -1.9218 -1.3816
  616THF    H12 9147   2.936   1.521   1.187 -0.3598 -1.0491 -0.5970
  616THF    H13 9148   3.070   1.556   1.077 -0.0613  0.3350 -1.0295
  617THF     O1 9149   0.378   3.496   2.834  0.7692  0.2203  0.1818
  617THF     C2 9150   0.365   3.358   2.856  0.2968 -0.5969  0.1440
  617THF     C3 9151   0.312   3.572   2.925 -0.0147 -0.0173  0.3632
  617THF     H4 9152   0.440   3.293   2.812  0.8435 -0.1527  0.4130
  617THF     H5 9153   0.262   3.341   2.823  0.6987  0.4220 -1.7836
  617THF     H6 9154   0.344   3.676   2.920 -0.1359 -0.0170 -0.7788
  617THF     H7 9155   0.207   3.575   2.895  0.1278 -2.0720 -0.5322
  617THF     C8 9156   0.324   3.496   3.052 -0.5997 -0.2665 -0.1507
  617THF     C9 9157   0.361   3.359   3.011 -0.3501  0.9666 -0.7640
  617THF    H10 9158   0.230   3.502   3.107 -0.0019 -0.8464  0.9565
  617THF    H11 9159   0.411   3.541   3.100  0.7128 -0.7504 -1.9540
  617THF    H12 9160   0.464   3.339   3.040 -0.5231  0.3263 -0.6008
  617THF    H13 9161   0.297   3.283   3.054  0.6046  1.2572  1.2536
  618THF     O1 9162   3.485   2.865   2.622 -0.7831 -0.3427 -0.1694
  618THF     C2 9163   3.437   2.993   2.580  0.6476  0.1420 -0.3093
  618THF     C3 9164   3.490   2.780   2.510  0.7300  0.9699 -0.1775
  618THF     H4 9165   3.514   3.071   2.576 -0.3036  1.2165  1.1237
  618THF     H5 9166   3.364   3.039   2.646  1.0759  1.1464 -0.5222
  618THF     H6 9167   3.588   2.735   2.498 -0.1685 -1.5825  1.1564
  618THF     H7 9168   3.421   2.697   2.523  0.8405  1.2099  2.3370
  618THF     C8 9169   3.456   2.865   2.389  0.0755 -0.0036  0.3875
  618THF     C9 9170   3.367   2.980   2.440  0.0924 -0.0766 -0.4537
  618THF    H10 9171   3.415   2.811   2.303  1.0260 -1.7538  0.9938
  618THF    H11 9172   3.557   2.897   2.360 -0.3417  1.1898  0.2119
  618THF    H12 9173   3.368   3.075   2.388  0.8919  0.2051  0.0597
  618THF    H13 9174   3.263   2.952   2.457 -0.7235  1.0559 -3.0768
  619THF     O1 9175   2.540   1.919   3.100  0.5045  0.4271  0.3182
  619THF     C2 9176   2.441   1.834   3.065 -0.5622  1.2501  0.1262
  619THF     C3 9177   2.488   2.007   3.204 -0.8710 -0.1545  0.4048
  619THF     H4 9178   2.484   1.741   3.026  0.0902  0.3798  2.7301
  619THF     H5 9179   2.378   1.874   2.986  1.3694 -0.0575 -2.2355
  619THF     H6 9180   2.573   2.035   3.267  0.9895 -1.1360 -1.5554
  619THF     H7 9181   2.451   2.101   3.164 -1.8394 -0.8382 -0.3408
  619THF     C8 9182   2.378   1.927   3.279  0.0478  0.1993 -0.3173
  619THF     C9 9183   2.360   1.805   3.184  0.4773  0.5384 -0.1854
  619THF    H10 9184   2.282   1.978   3.281  0.3224  0.7281 -0.3743
  619THF    H11 9185   2.392   1.894   3.382 -0.4380 -1.9007 -0.8724
  619THF    H12 9186   2.398   1.721   3.242  0.4709  1.2362  0.8610
  619THF    H13 9187   2.254   1.780   3.174  0.2149  2.4756 -3.9997
  620THF     O1 9188   0.533   0.651   0.827 -0.1446  0.2292 -0.7504
  620THF     C2 9189   0.470   0.557   0.747  0.1828  0.6206  0.1874
  620THF     C3 9190   0.475   0.770   0.797 -0.5488  0.1318  0.5338
  620THF     H4 9191   0.497   0.452   0.761  1.5399  0.6908 -1.6956
  620THF     H5 9192   0.499   0.572   0.644  0.7572  0.3736  0.3094
  620THF     H6 9193   0.499   0.855   0.861  0.7687  1.3919 -1.5082
  620THF     H7 9194   0.509   0.811   0.702  1.5889 -1.4836  0.5181
  620THF     C8 9195   0.326   0.734   0.793  0.2899 -0.5484  0.2972
  620THF     C9 9196   0.327   0.586   0.764  0.4333 -0.9414 -0.3020
  620THF    H10 9197   0.267   0.799   0.728  0.0490  0.4539  1.4764
  620THF    H11 9198   0.271   0.747   0.886  1.2228  1.9056  0.6094
  620THF    H12 9199   0.287   0.532   0.849  3.0009  0.7069  2.1159
  620THF    H13 9200   0.277   0.559   0.670 -0.1810  0.0733 -0.2897
  621THF     O1 9201   0.252   1.231   0.761  0.9668 -0.0221  0.5330
  621THF     C2 9202   0.321   1.235   0.629 -0.0802  0.5841  0.3197
  621THF     C3 9203   0.116   1.184   0.740 -0.5784  0.8303 -0.4616
  621THF     H4 9204   0.376   1.143   0.608 -0.0692  0.6695 -0.0154
  621THF     H5 9205   0.392   1.316   0.615 -3.8905  3.7307 -2.7705
  621THF     H6 9206   0.109   1.100   0.808 -0.1762  0.1551 -1.2418
  621THF     H7 9207   0.050   1.265   0.773 -1.5495  0.2154 -0.8541
  621THF     C8 9208   0.099   1.152   0.598  0.3779  0.8874  0.0969
  621THF     C9 9209   0.203   1.228   0.530 -0.3701 -0.4102  0.1336
  621THF    H10 9210  -0.003   1.178   0.572  0.5243  1.2516 -0.1087
  621THF    H11 9211   0.114   1.044   0.588 -1.2638  0.5810  0.6078
  621THF    H12 9212   0.215   1.184   0.431  0.1172  1.0744 -0.5031
  621THF    H13 9213   0.171   1.330   0.505  0.1369 -0.4699 -0.8101
  622THF     O1 9214   2.320   2.681   0.080  0.3133 -0.0587 -0.1664
  622THF     C2 9215   2.376   2.757   0.184 -0.6197 -0.1336 -0.7832
  622THF     C3 9216   2.268   2.768  -0.016  1.0270 -0.1610  0.2051
  622THF     H4 9217   2.424   2.701   0.264 -1.6996  1.2881  0.9435
  622THF     H5 9218   2.297   2.817   0.229 -0.4422  0.3592 -1.1281
  622THF     H6 9219   2.252   2.713  -0.108  2.6565  0.7427 -0.6690
  622THF     H7 9220   2.174   2.812   0.018  2.3578  1.3723  2.1588
  622THF     C8 9221   2.388   2.859  -0.027 -0.0596 -0.6615 -0.4319
  622THF     C9 9222   2.451   2.860   0.109 -0.4304  0.3659  0.9646
  622THF    H10 9223   2.356   2.957  -0.062 -0.5821  0.2559  2.3116
  622THF    H11 9224   2.461   2.820  -0.097 -0.7299 -0.1553 -1.4354
  622THF    H12 9225   2.554   2.833   0.085 -1.5962 -1.7123 -2.3355
  622THF    H13 9226   2.459   2.958   0.158 -0.6208  0.6409  0.4539
  623THF     O1 9227   2.945   2.720   4.294 -0.0524  0.3272  0.0228
  623THF     C2 9228   2.980   2.850   4.348  0.2156  0.2759 -0.1258
  623THF     C3 9229   2.810   2.701   4.311 -0.1743 -0.0523 -0.2132
  623THF     H4 9230   3.063   2.895   4.293 -1.7581  0.4923 -3.1711
  623THF     H5 9231   3.010   2.848   4.453 -3.1776 -0.6371  0.9578
  623THF     H6 9232   2.758   2.631   4.246  0.6750  0.8060 -1.8775
  623THF     H7 9233   2.802   2.663   4.413  1.1782  0.4499  0.0970
  623THF     C8 9234   2.750   2.842   4.286  0.6017  0.1094  0.3720
  623THF     C9 9235   2.857   2.934   4.334  0.0188 -0.5555  0.1123
  623THF    H10 9236   2.650   2.859   4.327  0.9155  0.2079  1.1279
  623THF    H11 9237   2.739   2.844   4.178  0.3845 -1.5302  0.3391
  623THF    H12 9238   2.873   3.024   4.275 -1.0491  0.2165  0.9461
  623THF    H13 9239   2.826   2.984   4.426  1.8396  1.5019 -0.3115
  624THF     O1 9240   3.784   2.025   3.208  0.2894  0.3037  0.3153
  624THF     C2 9241   3.707   1.975   3.325 -0.3628  0.2658  0.2291
  624THF     C3 9242   3.693   2.004   3.098  0.2639 -0.7189 -0.0064
  624THF     H4 9243   3.738   2.018   3.421  0.1327  0.0313  0.1728
  624THF     H5 9244   3.732   1.870   3.334 -0.4557  0.0366 -1.7709
  624THF     H6 9245   3.729   2.063   3.014 -0.3460 -1.5432 -0.8728
  624THF     H7 9246   3.701   1.904   3.054  1.4375  0.3825 -2.5510
  624THF     C8 9247   3.551   2.019   3.152  0.8553 -0.4489 -0.6688
  624THF     C9 9248   3.558   1.992   3.296  0.1494 -0.2196 -0.2999
  624THF    H10 9249   3.480   1.953   3.102  0.6531  0.0999 -1.1087
  624THF    H11 9250   3.504   2.117   3.147  1.0361 -0.3062  0.1233
  624THF    H12 9251   3.519   2.078   3.349 -0.5757 -0.4944 -0.3825
  624THF    H13 9252   3.506   1.899   3.318 -1.2901  0.5032 -0.5587
  625THF     O1 9253   3.757   5.424   4.961 -0.3312 -0.9194 -0.3614
  625THF     C2 9254   3.898   5.442   4.949 -0.7997 -0.3478 -0.7804
  625THF     C3 9255   3.703   5.518   4.863 -0.2984 -0.5158 -0.3416
  625THF     H4 9256   3.940   5.351   4.992 -1.1140 -0.5448 -0.8875
  625THF     H5 9257   3.936   5.519   5.016  2.0674 -1.6666 -0.7285
  625THF     H6 9258   3.601   5.481   4.852 -0.0480 -1.7721  1.2323
  625THF     H7 9259   3.716   5.621   4.897  1.8308  0.2991 -3.2700
  625THF     C8 9260   3.794   5.480   4.744  0.4273  0.4105  0.0660
  625THF     C9 9261   3.931   5.479   4.805 -0.5605 -0.5094 -0.1267
  625THF    H10 9262   3.784   5.547   4.659  0.9320 -3.3920 -3.2783
  625THF    H11 9263   3.769   5.385   4.696 -1.2817  1.6568 -1.6786
  625THF    H12 9264   4.011   5.419   4.760  1.0690  0.5430  1.2345
  625THF    H13 9265   3.964   5.583   4.801  2.3598 -1.2674  1.2031
  626THF     O1 9266   3.126   0.746   1.185  0.1332  0.0691 -0.1458
  626THF     C2 9267   3.196   0.695   1.297  0.1743  0.1941  0.4299
  626THF     C3 9268   2.994   0.749   1.230  0.9065  0.2270  0.3349
  626THF     H4 9269   3.242   0.770   1.361  0.4279  0.2744  0.1548
  626THF     H5 9270   3.263   0.623   1.250 -0.7259  1.1124 -2.4340
  626THF     H6 9271   2.983   0.830   1.302  1.0273  0.0132  0.5997
  626THF     H7 9272   2.921   0.759   1.151  1.5644 -0.7464 -0.4232
  626THF     C8 9273   2.967   0.619   1.306  0.2208  0.4881  0.5767
  626THF     C9 9274   3.098   0.614   1.390  1.1199 -0.5787 -0.0947
  626THF    H10 9275   2.969   0.540   1.230  1.5471  2.9898 -2.2030
  626THF    H11 9276   2.876   0.619   1.366 -1.5238 -0.5488 -1.8935
  626THF    H12 9277   3.078   0.667   1.483 -0.6488  0.2951 -0.9208
  626THF    H13 9278   3.137   0.518   1.423 -0.0076 -0.6885  1.0115
  627THF     O1 9279   3.628   3.531   2.623  0.0809 -0.4690 -0.5481
  627THF     C2 9280   3.633   3.398   2.574 -0.3853 -0.0070  0.3819
  627THF     C3 9281   3.537   3.607   2.552  0.0079 -0.3358  0.6890
  627THF     H4 9282   3.670   3.331   2.652 -0.2607  1.1660  1.3502
  627THF     H5 9283   3.703   3.401   2.491 -0.4314 -2.5418  0.1621
  627THF     H6 9284   3.514   3.701   2.602  2.1466 -0.0047  1.1088
  627THF     H7 9285   3.575   3.636   2.454  0.8066  0.8691  1.3384
  627THF     C8 9286   3.423   3.502   2.537  0.9816 -0.2282  0.9203
  627THF     C9 9287   3.489   3.368   2.529 -0.2428 -0.5628 -0.8630
  627THF    H10 9288   3.363   3.514   2.446  1.9171  0.0176  0.3135
  627THF    H11 9289   3.355   3.496   2.621 -0.8281 -0.9175 -0.5195
  627THF    H12 9290   3.440   3.302   2.601 -0.7741  0.7014 -0.0280
  627THF    H13 9291   3.494   3.320   2.432  0.6399  0.3164 -1.2583
  628THF     O1 9292   5.065   0.006   2.866  0.4119  0.0689 -0.3570
  628THF     C2 9293   5.022   0.116   2.788 -0.4338  0.0680  0.5532
  628THF     C3 9294   5.009  -0.111   2.816 -0.2908  0.6953 -1.3458
  628THF     H4 9295   5.108   0.158   2.736 -0.8743  1.1968  0.7019
  628THF     H5 9296   4.971   0.191   2.849 -0.3636  0.9545 -0.4415
  628THF     H6 9297   5.092  -0.161   2.767  2.0240  1.9849  1.0056
  628THF     H7 9298   4.977  -0.184   2.890  0.8114 -1.0825 -2.5468
  628THF     C8 9299   4.891  -0.066   2.733  0.0384  0.7969  0.3167
  628THF     C9 9300   4.942   0.057   2.670  0.1825  0.6749  0.6063
  628THF    H10 9301   4.797  -0.045   2.782 -1.3128 -2.0437 -0.8541
  628THF    H11 9302   4.861  -0.139   2.659 -0.4652  0.1422  1.1597
  628THF    H12 9303   5.017   0.042   2.592  2.1161  1.4047  2.2388
  628THF    H13 9304   4.864   0.123   2.633  0.9532  1.2947  0.0697
  629THF     O1 9305   3.798   2.749   4.253  0.3467 -0.0981 -0.4130
  629THF     C2 9306   3.829   2.771   4.119 -0.1407  0.1485 -0.2850
  629THF     C3 9307   3.848   2.861   4.332  0.2531  0.2952  0.6603
  629THF     H4 9308   3.735   2.796   4.069 -0.6622 -0.8628  0.1690
  629THF     H5 9309   3.859   2.674   4.080  2.2755 -0.4015  2.5640
  629THF     H6 9310   3.780   2.903   4.406 -3.0181 -1.4764 -1.1564
  629THF     H7 9311   3.939   2.844   4.390 -0.8303  2.1580  3.0850
  629THF     C8 9312   3.884   2.972   4.236  0.1266  0.0396  0.4152
  629THF     C9 9313   3.930   2.889   4.114  0.3999 -0.5387  0.5344
  629THF    H10 9314   3.957   3.032   4.289 -1.3308  1.9249  0.3696
  629THF    H11 9315   3.797   3.035   4.220 -0.4353 -0.5950  0.9037
  629THF    H12 9316   3.906   2.943   4.022  0.6861 -0.8266  0.2881
  629THF    H13 9317   4.028   2.841   4.113 -0.2653 -1.9515  0.1437
  630THF     O1 9318   1.923   2.727   1.148 -0.0059  0.6824 -0.1774
  630THF     C2 9319   1.905   2.848   1.073 -0.5072  0.1451 -0.2223
  630THF     C3 9320   1.959   2.757   1.277 -0.1280 -0.1610  0.7660
  630THF     H4 9321   1.828   2.822   1.001 -0.9327  0.5741  0.0702
  630THF     H5 9322   1.998   2.871   1.020  0.4389 -0.8496  0.9326
  630THF     H6 9323   1.940   2.673   1.344  2.9400 -0.6203  1.2014
  630THF     H7 9324   2.066   2.776   1.292 -0.0250  0.3366 -0.5184
  630THF     C8 9325   1.874   2.875   1.314  0.6202 -0.6226  0.0716
  630THF     C9 9326   1.860   2.951   1.176 -0.0223  0.5812 -0.4774
  630THF    H10 9327   1.931   2.932   1.387  0.5293  0.3061 -0.5698
  630THF    H11 9328   1.778   2.850   1.359 -0.5851  2.2338 -0.6615
  630THF    H12 9329   1.767   3.007   1.165 -0.3514 -0.1130 -1.3707
  630THF    H13 9330   1.941   3.024   1.179  1.6375 -1.1245 -1.4586
  631THF     O1 9331   4.071   1.170   5.217 -0.0374 -0.0451 -0.0222
  631THF     C2 9332   4.097   1.311   5.210 -0.7647 -0.0819 -0.0411
  631THF     C3 9333   4.066   1.116   5.084  0.1040 -0.3720  0.2941
  631THF     H4 9334   4.138   1.324   5.310  1.4118  1.0855 -1.0201
  631THF     H5 9335   4.001   1.362   5.207 -1.8674 -2.0654 -1.5229
  631THF     H6 9336   4.113   1.019   5.067 -1.0765 -0.9852  0.4213
  631THF     H7 9337   3.963   1.106   5.048  0.2040 -3.2179  0.5726
  631THF     C8 9338   4.141   1.223   4.994  0.1234  0.5673 -0.2911
  631THF     C9 9339   4.195   1.328   5.094 -0.0715  0.6009  0.0279
  631THF    H10 9340   4.070   1.274   4.928  0.2518  0.5585 -0.4357
  631THF    H11 9341   4.222   1.169   4.945  0.9794 -0.5143  2.1752
  631THF    H12 9342   4.290   1.298   5.138 -0.4327  3.0926  2.7996
  631THF    H13 9343   4.213   1.426   5.051  2.2077  0.1080 -0.3111
  632THF     O1 9344   4.934   4.084   3.842 -0.1370 -0.3017  0.1008
  632THF     C2 9345   4.810   4.037   3.832 -0.4710 -0.0438 -0.2021
  632THF     C3 9346   4.927   4.158   3.966 -0.2791 -0.5016 -0.6238
  632THF     H4 9347   4.776   3.954   3.893 -1.4069 -0.3621 -1.1264
  632THF     H5 9348   4.792   4.007   3.728  0.7129  1.3253 -0.8476
  632THF     H6 9349   4.913   4.091   4.050  0.8568  0.5241  0.4254
  632THF     H7 9350   5.019   4.207   3.999 -0.6855  0.0706 -0.3195
  632THF     C8 9351   4.807   4.249   3.937 -0.6913 -0.9584 -0.5272
  632THF     C9 9352   4.721   4.155   3.858 -0.0478 -0.0864 -0.8897
  632THF    H10 9353   4.844   4.327   3.870 -2.0401  0.9377  0.8368
  632THF    H11 9354   4.750   4.287   4.022 -0.9458 -1.0128 -0.6747
  632THF    H12 9355   4.640   4.121   3.924  0.9687  0.1397  0.5256
  632THF    H13 9356   4.686   4.208   3.770  0.9874  0.9166 -0.7151
  633THF     O1 9357   1.652   4.660   1.239 -0.1604 -0.0514  0.5038
  633THF     C2 9358   1.579   4.726   1.139 -0.2594  0.3554  0.9100
  633THF     C3 9359   1.589   4.528   1.251 -0.5896  0.2786  0.1998
  633THF     H4 9360   1.632   4.815   1.104  2.0218 -0.2195  2.7263
  633THF     H5 9361   1.477   4.739   1.177 -0.9401 -1.8451 -0.0448
  633THF     H6 9362   1.644   4.464   1.320 -3.3832 -2.0023  0.5266
  633THF     H7 9363   1.488   4.535   1.293 -0.9907  0.3875 -0.7668
  633THF     C8 9364   1.595   4.476   1.109  0.1282 -0.0743  0.5101
  633THF     C9 9365   1.568   4.613   1.037  0.5235  0.3453  0.1067
  633THF    H10 9366   1.522   4.396   1.093 -0.4096  0.3653  0.7315
  633THF    H11 9367   1.692   4.439   1.076 -0.4723 -1.8712  0.6562
  633THF    H12 9368   1.630   4.617   0.948 -1.3811  3.4076 -1.2426
  633THF    H13 9369   1.467   4.612   0.996  1.4320  1.3683 -2.3373
  634THF     O1 9370   3.319   1.350   0.787  0.2624 -0.1597  0.2150
  634THF     C2 9371   3.455   1.350   0.752  0.2906 -0.2433 -0.2508
  634THF     C3 9372   3.244   1.244   0.722 -0.1463 -0.6578 -0.4206
  634THF     H4 9373   3.504   1.281   0.820  2.7302 -1.4580 -2.9964
  634THF     H5 9374   3.506   1.446   0.762 -0.1696 -0.2356  2.7640
  634THF     H6 9375   3.240   1.155   0.785 -0.6732 -1.8696 -2.0879
  634THF     H7 9376   3.142   1.275   0.698  0.4613  0.4777 -1.6741
  634THF     C8 9377   3.324   1.219   0.597  0.5224 -0.0464  0.2652
  634THF     C9 9378   3.459   1.278   0.614  0.1077 -0.3169 -0.0647
  634THF    H10 9379   3.277   1.270   0.513 -0.6168 -1.9473 -0.3096
  634THF    H11 9380   3.334   1.115   0.566 -1.7135 -0.1398 -0.2769
  634THF    H12 9381   3.538   1.205   0.633  0.5534  0.0862 -0.3645
  634THF    H13 9382   3.481   1.347   0.533  0.3144  0.5577  0.7241
  635THF     O1 9383   2.188   5.315   2.965  0.2444 -0.1059 -0.0094
  635THF     C2 9384   2.150   5.455   2.946  0.0184  0.2654 -0.8948
  635THF     C3 9385   2.067   5.245   2.972  0.4262  0.4402  0.7462
  635THF     H4 9386   2.110   5.473   2.846  1.7654  1.5903 -1.3909
  635THF     H5 9387   2.241   5.512   2.963 -0.4927  0.8448 -0.0438
  635THF     H6 9388   2.009   5.242   2.879 -2.9057  0.1916  2.6615
  635THF     H7 9389   2.079   5.139   2.995 -1.0427 -0.0112 -0.3926
  635THF     C8 9390   1.985   5.322   3.067 -0.3328 -0.5080  0.3471
  635THF     C9 9391   2.047   5.459   3.058 -0.2817 -0.6137 -0.2816
  635THF    H10 9392   2.001   5.288   3.170 -0.5868 -1.6652  0.0248
  635THF    H11 9393   1.879   5.306   3.049 -0.6294  1.5054  0.0716
  635THF    H12 9394   1.976   5.538   3.034 -1.3911 -0.6731  2.4707
  635THF    H13 9395   2.091   5.490   3.152  0.6977 -0.5775 -0.7367
  636THF     O1 9396   3.285   2.362   0.127  0.7679  0.1778  0.2015
  636THF     C2 9397   3.349   2.480   0.085 -0.0743  0.0341  0.2964
  636THF     C3 9398   3.352   2.263   0.056  0.4166  0.0485  0.6698
  636THF     H4 9399   3.317   2.575   0.128 -2.5848 -1.4719  2.0552
  636THF     H5 9400   3.330   2.492  -0.021  2.5631 -1.0864 -0.3861
  636THF     H6 9401   3.342   2.159   0.087 -0.6624  0.1020  0.5270
  636THF     H7 9402   3.317   2.262  -0.047 -0.9000  2.0425  1.0384
  636THF     C8 9403   3.501   2.306   0.065 -0.5499 -0.6626 -0.0967
  636THF     C9 9404   3.491   2.450   0.101  0.1079 -0.4284  1.2219
  636THF    H10 9405   3.549   2.294  -0.033  1.1531  1.6010  0.3618
  636THF    H11 9406   3.558   2.259   0.145  3.1411  2.9280 -0.2543
  636THF    H12 9407   3.514   2.479   0.204 -0.6208  3.6542  0.4238
  636THF    H13 9408   3.549   2.504   0.026 -3.2018 -1.6169 -2.5426
  637THF     O1 9409   4.219   5.112   4.543  0.3033  0.3064  0.2722
  637THF     C2 9410   4.196   5.208   4.444  0.4209  0.2304  0.2126
  637THF     C3 9411   4.091   5.045   4.569 -0.0641  0.1894 -0.3999
  637THF     H4 9412   4.231   5.165   4.350  0.7928 -1.2982  1.0275
  637THF     H5 9413   4.247   5.304   4.450 -1.7977  1.4007  2.7970
  637THF     H6 9414   4.108   4.939   4.585  0.2664  0.6151  2.6532
  637THF     H7 9415   4.058   5.091   4.662  0.8850  0.5957 -0.2464
  637THF     C8 9416   3.991   5.081   4.460 -0.2761  0.4422 -0.1641
  637THF     C9 9417   4.042   5.223   4.426 -0.1124 -0.7207  0.2317
  637THF    H10 9418   3.887   5.090   4.494 -0.2620 -0.4019  0.1253
  637THF    H11 9419   3.994   5.016   4.373  0.4025 -0.8295  0.7743
  637THF    H12 9420   4.008   5.249   4.325 -0.5372  0.4720  0.6561
  637THF    H13 9421   4.006   5.304   4.490  0.2458  0.6807 -1.2479
  638THF     O1 9422   0.846   1.799   3.795  0.0936 -0.4991 -0.4870
  638THF     C2 9423   0.866   1.920   3.871  0.3050 -0.1770 -0.0508
  638THF     C3 9424   0.779   1.699   3.869  0.3403 -0.2710 -0.3287
  638THF     H4 9425   0.774   1.979   3.869  0.4655  0.1525  1.3177
  638THF     H5 9426   0.946   1.986   3.840  0.5319 -0.0222  0.8465
  638THF     H6 9427   0.671   1.714   3.870  0.5910  1.8655 -0.3058
  638THF     H7 9428   0.810   1.604   3.827  0.8281  0.0381 -0.6854
  638THF     C8 9429   0.833   1.725   4.010 -0.5093 -0.3140  0.2118
  638THF     C9 9430   0.878   1.868   4.018  1.3008  0.4434  0.6353
  638THF    H10 9431   0.908   1.652   4.042 -0.9511 -1.5596 -1.4858
  638THF    H11 9432   0.757   1.709   4.086 -0.5132  1.3290  0.6088
  638THF    H12 9433   0.811   1.926   4.082  1.6086 -0.1221  1.4725
  638THF    H13 9434   0.976   1.876   4.064  0.6383 -1.2057  2.4621
  639THF     O1 9435   3.792   3.599   4.190  0.0744 -0.6850  0.0601
  639THF     C2 9436   3.692   3.642   4.292 -0.4530  0.2457  0.0276
  639THF     C3 9437   3.805   3.461   4.183  0.1990 -0.1986  0.5587
  639THF     H4 9438   3.602   3.686   4.249 -1.2690 -1.9495 -0.6873
  639THF     H5 9439   3.742   3.710   4.360  0.2796  0.7603 -0.9952
  639THF     H6 9440   3.752   3.411   4.102  1.6804  0.1705 -0.6857
  639THF     H7 9441   3.905   3.430   4.151  0.0623 -1.7993  1.5676
  639THF     C8 9442   3.766   3.419   4.327  0.3625 -0.1855  0.7394
  639THF     C9 9443   3.647   3.515   4.355  0.2725 -0.0120  0.1590
  639THF    H10 9444   3.849   3.438   4.394 -0.9099  0.6457  2.1437
  639THF    H11 9445   3.736   3.314   4.332 -0.5502  0.1070  1.8249
  639THF    H12 9446   3.564   3.472   4.299 -0.7648  0.0577  1.5806
  639THF    H13 9447   3.619   3.529   4.459  1.5079  0.0782  0.4948
  640THF     O1 9448   3.375   2.841   0.448  0.5603 -0.2225  0.2889
  640THF     C2 9449   3.516   2.868   0.449  0.2443  0.2628 -0.1572
  640THF     C3 9450   3.358   2.703   0.455 -0.3318 -0.8420  0.4508
  640THF     H4 9451   3.544   2.972   0.466  0.5876  0.2489 -0.6101
  640THF     H5 9452   3.556   2.852   0.348  4.7309 -0.7403  1.5616
  640THF     H6 9453   3.266   2.690   0.513 -1.4056  1.4714 -0.5953
  640THF     H7 9454   3.343   2.666   0.353 -0.2026  2.1059 -0.7468
  640THF     C8 9455   3.490   2.646   0.512  0.3841 -0.1179  0.4974
  640THF     C9 9456   3.575   2.771   0.549  0.1374  0.2742  0.1936
  640THF    H10 9457   3.544   2.587   0.438  0.8394 -0.2930  0.9606
  640THF    H11 9458   3.471   2.574   0.593  1.0860 -1.1761 -0.2489
  640THF    H12 9459   3.552   2.806   0.650  1.5812 -2.4879  1.6186
  640THF    H13 9460   3.679   2.744   0.531 -0.3656 -1.2826 -0.5334
  641THF     O1 9461   0.640   1.554   4.921  0.1348  0.2137 -0.1035
  641THF     C2 9462   0.723   1.591   4.804 -0.0533  0.6722  0.1121
  641THF     C3 9463   0.533   1.661   4.926 -0.5730  0.2422  0.1535
  641THF     H4 9464   0.797   1.515   4.779 -1.4823 -1.0147  0.8132
  641THF     H5 9465   0.773   1.684   4.827 -1.0040  1.3240 -0.3666
  641THF     H6 9466   0.453   1.628   4.992  0.2715  1.1358  1.6703
  641THF     H7 9467   0.579   1.756   4.953  3.1132 -1.1565 -0.6117
  641THF     C8 9468   0.497   1.672   4.777 -0.1564  0.2745  0.2210
  641THF     C9 9469   0.610   1.599   4.708 -0.4733 -0.6680 -0.0784
  641THF    H10 9470   0.490   1.777   4.749 -0.0244  0.4769  0.9084
  641THF    H11 9471   0.408   1.622   4.739  0.5935 -1.0974  0.2128
  641THF    H12 9472   0.594   1.494   4.683  2.5439 -1.5236  1.1443
  641THF    H13 9473   0.655   1.646   4.621 -2.2992 -0.6195 -1.0564
  642THF     O1 9474   1.063   4.804   0.987 -0.9488  0.7541 -0.6246
  642THF     C2 9475   1.090   4.885   1.098 -0.7240 -0.6902  0.0340
  642THF     C3 9476   1.034   4.892   0.880 -0.2556 -0.4392  0.5095
  642THF     H4 9477   1.168   4.840   1.159  0.4462  1.6241  0.3807
  642THF     H5 9478   1.001   4.911   1.155 -0.8200  0.8853 -0.7604
  642THF     H6 9479   1.082   4.863   0.786 -0.4768  1.8582 -0.3732
  642THF     H7 9480   0.930   4.886   0.851 -0.1870 -0.5421  0.2818
  642THF     C8 9481   1.065   5.039   0.925 -0.1155  0.5079  0.2541
  642THF     C9 9482   1.147   5.022   1.044  0.0218  0.1869  0.0815
  642THF    H10 9483   0.974   5.097   0.938  0.6304  1.9181 -0.5737
  642THF    H11 9484   1.121   5.096   0.850  2.2129 -0.6608  1.0048
  642THF    H12 9485   1.245   5.015   0.997  1.6636  1.8085  3.0374
  642THF    H13 9486   1.142   5.105   1.113 -1.1358 -1.0037  1.4941
  643THF     O1 9487   3.552   3.413   0.134 -0.0360  0.0022  0.1596
  643THF     C2 9488   3.459   3.421   0.027  0.8778 -0.1112 -0.5034
  643THF     C3 9489   3.582   3.541   0.189  0.1090 -0.1664  0.9294
  643THF     H4 9490   3.369   3.369   0.060  0.4157  0.2974 -1.0936
  643THF     H5 9491   3.501   3.371  -0.060  0.7522 -0.3065 -0.4524
  643THF     H6 9492   3.595   3.544   0.297  2.6841  4.6787  0.7678
  643THF     H7 9493   3.677   3.585   0.157  1.2537  0.7918  5.0299
  643THF     C8 9494   3.467   3.626   0.135 -0.1928 -0.0353  0.3116
  643THF     C9 9495   3.450   3.571  -0.002 -0.1238  0.0533 -0.4182
  643THF    H10 9496   3.479   3.734   0.136 -1.6346  0.1953 -1.4009
  643THF    H11 9497   3.380   3.608   0.197  0.6573  0.6044  1.7484
  643THF    H12 9498   3.348   3.590  -0.036 -0.2400 -1.4087 -0.9604
  643THF    H13 9499   3.536   3.607  -0.059 -0.2869  3.4550  1.2554
  644THF     O1 9500   0.876   4.331   1.308  0.2179 -0.5485 -0.3639
  644THF     C2 9501   0.832   4.463   1.308  0.2362  0.4668 -0.1760
  644THF     C3 9502   1.017   4.325   1.307 -0.5584  0.1416 -0.6109
  644THF     H4 9503   0.779   4.467   1.403 -1.4348 -0.4341 -1.0261
  644THF     H5 9504   0.764   4.472   1.224  0.8990 -1.1046 -0.9135
  644THF     H6 9505   1.057   4.264   1.387  1.8406  1.5914 -0.5901
  644THF     H7 9506   1.071   4.305   1.215  2.1136 -1.0534  1.0964
  644THF     C8 9507   1.060   4.465   1.344  1.2467 -0.3540 -0.3359
  644THF     C9 9508   0.946   4.558   1.316 -0.9007  0.5121  0.1765
  644THF    H10 9509   1.141   4.510   1.285 -1.2320  0.5661 -3.3042
  644THF    H11 9510   1.075   4.474   1.452 -1.7304  1.1805  0.0521
  644THF    H12 9511   0.939   4.615   1.409 -3.6661  0.6684 -0.0318
  644THF    H13 9512   0.968   4.626   1.233 -0.8171 -0.6511 -0.7752
  645THF     O1 9513   4.848   0.452   1.373  0.2562  0.0609  0.2938
  645THF     C2 9514   4.946   0.526   1.296 -0.0208 -0.5091  0.3875
  645THF     C3 9515   4.782   0.540   1.460 -0.4011  0.3343 -0.0028
  645THF     H4 9516   4.959   0.496   1.192 -0.9529 -1.3705  0.5073
  645THF     H5 9517   5.046   0.518   1.340  0.3533 -0.7540 -0.4823
  645THF     H6 9518   4.683   0.505   1.490  0.0781 -1.1443 -0.0654
  645THF     H7 9519   4.836   0.550   1.554  1.3758 -2.7259 -0.5569
  645THF     C8 9520   4.764   0.667   1.386 -0.2292  0.5726  0.3690
  645THF     C9 9521   4.895   0.668   1.304 -0.0112 -0.3518 -0.0930
  645THF    H10 9522   4.738   0.758   1.440 -1.4446 -0.0731  0.9101
  645THF    H11 9523   4.686   0.646   1.312  1.3230  0.4755 -1.3307
  645THF    H12 9524   4.883   0.709   1.203 -0.1340 -0.6993 -0.2235
  645THF    H13 9525   4.965   0.733   1.357 -0.3427  0.6050 -0.8078
  646THF     O1 9526   4.913   2.888   1.881 -0.0855  0.6602 -0.4046
  646THF     C2 9527   4.951   2.993   1.795  0.2823  0.2017 -0.1444
  646THF     C3 9528   4.953   2.770   1.811  0.5555 -0.2072 -1.0775
  646THF     H4 9529   4.934   3.093   1.836 -0.7242  0.0674 -0.2184
  646THF     H5 9530   4.884   2.982   1.709 -1.8329 -0.0889  1.4756
  646THF     H6 9531   4.944   2.689   1.884 -1.2993  2.2681  1.6823
  646THF     H7 9532   4.882   2.756   1.730  0.1805 -0.8911 -0.6405
  646THF     C8 9533   5.095   2.812   1.765 -0.4173  0.6100  0.0338
  646THF     C9 9534   5.094   2.962   1.759  0.1456 -0.1595  0.2894
  646THF    H10 9535   5.124   2.755   1.678  0.0100 -0.2380  0.7187
  646THF    H11 9536   5.160   2.784   1.848 -0.6482  2.0477  0.7440
  646THF    H12 9537   5.153   3.013   1.836 -0.3733  0.1888  0.4638
  646THF    H13 9538   5.118   3.004   1.662  1.2697  0.0548  0.6364
  647THF     O1 9539   1.277   5.187   1.708 -1.1748 -0.1466 -0.2475
  647THF     C2 9540   1.195   5.251   1.804 -0.2425  0.1545 -0.0114
  647THF     C3 9541   1.329   5.281   1.614  0.0484 -0.8194 -0.4796
  647THF     H4 9542   1.262   5.265   1.888 -2.3371  0.1947  1.7380
  647THF     H5 9543   1.115   5.187   1.840  2.0421 -2.5258  0.6729
  647THF     H6 9544   1.410   5.329   1.669 -1.8741  1.5907  0.4250
  647THF     H7 9545   1.369   5.242   1.520 -0.2546  0.2809 -1.0729
  647THF     C8 9546   1.217   5.382   1.603 -0.1599 -0.0274 -0.0480
  647THF     C9 9547   1.167   5.390   1.748 -0.7502  0.2527 -0.3213
  647THF    H10 9548   1.140   5.360   1.528 -1.0638  1.7804  0.2920
  647THF    H11 9549   1.254   5.484   1.589 -1.1919  0.5983  1.5314
  647THF    H12 9550   1.230   5.457   1.806  0.8779 -0.5701 -1.0693
  647THF    H13 9551   1.063   5.424   1.753 -0.2179  2.2356 -1.5999
  648THF     O1 9552   3.414   5.261   0.975 -0.2092  0.8367  0.4147
  648THF     C2 9553   3.539   5.215   0.910  0.4718 -0.3611 -0.0456
  648THF     C3 9554   3.367   5.370   0.897  1.0526 -0.4173 -0.0326
  648THF     H4 9555   3.580   5.124   0.956 -0.3272 -0.9268 -0.4336
  648THF     H5 9556   3.615   5.292   0.925  0.0511  0.0318  0.0651
  648THF     H6 9557   3.258   5.373   0.901  0.9930  2.1489 -1.5332
  648THF     H7 9558   3.395   5.465   0.943  0.9695  1.0907 -2.8940
  648THF     C8 9559   3.422   5.342   0.757  0.2539  0.4875  0.2175
  648THF     C9 9560   3.497   5.216   0.767 -0.2603  0.0232 -0.8078
  648THF    H10 9561   3.488   5.426   0.734 -2.0220  2.3612  0.1661
  648THF    H11 9562   3.345   5.329   0.682 -0.2136 -0.7401  0.8940
  648THF    H12 9563   3.431   5.133   0.743 -0.0704  0.0773 -1.5489
  648THF    H13 9564   3.585   5.222   0.701  0.2381 -0.1561 -0.1653
  649THF     O1 9565   0.789   1.932   2.117 -0.1203 -0.4771  0.2603
  649THF     C2 9566   0.771   1.836   2.215 -0.0534  0.3195 -0.4609
  649THF     C3 9567   0.923   1.970   2.119 -0.2851 -0.0753  0.2476
  649THF     H4 9568   0.705   1.758   2.175  0.8721 -0.0103 -1.3697
  649THF     H5 9569   0.728   1.877   2.307  1.3177 -2.6617  1.7040
  649THF     H6 9570   0.964   2.013   2.028  1.4564 -1.6166  0.2282
  649THF     H7 9571   0.952   2.035   2.201  0.4733 -0.4263  0.2730
  649THF     C8 9572   0.998   1.839   2.143  0.8208 -0.7494 -0.3382
  649THF     C9 9573   0.907   1.772   2.249  0.0459  0.2701 -0.4421
  649THF    H10 9574   1.101   1.856   2.171  0.6868 -0.3053 -0.1051
  649THF    H11 9575   0.992   1.762   2.066 -0.1392 -0.5689 -0.4567
  649THF    H12 9576   0.903   1.663   2.239 -1.9352  0.1688  0.8949
  649THF    H13 9577   0.934   1.807   2.348  0.1325  2.4628 -1.2013
  650THF     O1 9578   2.086   3.916   4.417  0.1492  0.9911 -0.2504
  650THF     C2 9579   2.051   3.908   4.277 -1.0666 -0.3351  0.0169
  650THF     C3 9580   2.227   3.899   4.425  0.5301  1.3536  0.5045
  650THF     H4 9581   1.953   3.953   4.260 -0.7631  0.4085  0.1888
  650THF     H5 9582   2.038   3.805   4.244  0.3201 -0.8981  1.0968
  650THF     H6 9583   2.260   3.925   4.525  2.5018  0.0136  0.2469
  650THF     H7 9584   2.235   3.791   4.415 -2.1122  1.2595 -2.2139
  650THF     C8 9585   2.283   3.979   4.305 -0.6702 -0.3184 -0.3894
  650THF     C9 9586   2.174   3.963   4.197  0.2531 -0.2981 -0.1570
  650THF    H10 9587   2.377   3.930   4.280 -0.8836 -0.2884 -1.2913
  650THF    H11 9588   2.312   4.081   4.331  2.9085 -1.1451 -0.6308
  650THF    H12 9589   2.141   4.060   4.159 -0.5398  0.1668  1.5949
  650THF    H13 9590   2.204   3.897   4.116 -0.2947 -1.4968  0.5857
  651THF     O1 9591   0.361   0.491   4.034  0.3992  0.7520 -0.7253
  651THF     C2 9592   0.293   0.488   3.910  0.0477 -0.9971  0.6343
  651THF     C3 9593   0.396   0.624   4.061 -0.1276 -0.3269 -0.2952
  651THF     H4 9594   0.225   0.403   3.894  0.2676 -0.8348 -1.3747
  651THF     H5 9595   0.366   0.468   3.832 -1.5811 -1.7412 -0.7771
  651THF     H6 9596   0.405   0.634   4.169 -2.8970  0.0701 -0.0178
  651THF     H7 9597   0.498   0.646   4.029  0.1192  0.2853  0.8668
  651THF     C8 9598   0.294   0.713   3.988  0.0281  0.3605  0.5609
  651THF     C9 9599   0.227   0.624   3.880  0.2782  0.2530  0.0480
  651THF    H10 9600   0.342   0.792   3.930 -0.1264  1.5178  1.9519
  651THF    H11 9601   0.226   0.758   4.060 -0.9484 -2.0428  1.2480
  651THF    H12 9602   0.122   0.620   3.909  0.5022  0.3590  0.9042
  651THF    H13 9603   0.242   0.655   3.776 -0.3057 -0.0201 -0.1226
  652THF     O1 9604   0.858   3.169   2.548  0.5436 -0.8009  0.3097
  652THF     C2 9605   0.736   3.186   2.471  0.0252  0.6833  0.7462
  652THF     C3 9606   0.826   3.163   2.686 -0.0821 -0.5992  0.2948
  652THF     H4 9607   0.750   3.148   2.369  0.3437 -1.8462  1.6577
  652THF     H5 9608   0.693   3.286   2.465 -2.1967 -0.2402 -0.2922
  652THF     H6 9609   0.893   3.099   2.744 -0.8321 -0.1652  1.6844
  652THF     H7 9610   0.839   3.267   2.716 -0.5313 -0.3459 -0.3609
  652THF     C8 9611   0.688   3.105   2.691 -0.6326  0.9960 -0.1442
  652THF     C9 9612   0.647   3.096   2.546  0.2597  0.7192 -0.1403
  652THF    H10 9613   0.631   3.184   2.741 -0.4443  0.0627  1.6145
  652THF    H11 9614   0.672   3.013   2.746 -0.3944 -1.2038 -3.5051
  652THF    H12 9615   0.664   2.993   2.512 -0.4108  0.7796 -0.6829
  652THF    H13 9616   0.540   3.112   2.537 -0.0575 -0.5437  0.9789
  653THF     O1 9617   4.767   4.625   4.250 -0.1136  0.0620  0.0183
  653THF     C2 9618   4.700   4.581   4.128  0.0007  0.4313 -0.1196
  653THF     C3 9619   4.903   4.644   4.219 -0.2219 -0.5422 -0.1166
  653THF     H4 9620   4.605   4.633   4.117  0.9759  2.4198  0.4372
  653THF     H5 9621   4.671   4.477   4.139 -0.0583  0.5290  0.6993
  653THF     H6 9622   4.959   4.694   4.299 -0.3917 -0.6783  0.0888
  653THF     H7 9623   4.944   4.544   4.203 -1.7817 -1.3478  0.6545
  653THF     C8 9624   4.899   4.707   4.081 -0.1992  0.2566  0.5876
  653THF     C9 9625   4.802   4.608   4.015 -0.8514  0.0741  0.0113
  653THF    H10 9626   4.991   4.710   4.023 -0.6078  1.8407 -0.0411
  653THF    H11 9627   4.844   4.802   4.083  0.3456  0.5682  1.5252
  653THF    H12 9628   4.759   4.629   3.917  0.4674  1.1544 -0.3630
  653THF    H13 9629   4.860   4.517   3.999  0.9996  0.7053  2.5199
  654THF     O1 9630   1.239   0.409   2.135  0.4678 -0.2275  0.3632
  654THF     C2 9631   1.298   0.539   2.122  0.6939 -0.0092 -0.1565
  654THF     C3 9632   1.160   0.410   2.253  0.4455  0.2962  0.3104
  654THF     H4 9633   1.226   0.589   2.057  1.3775 -2.2339 -2.8450
  654THF     H5 9634   1.387   0.524   2.062  1.1234  2.3937 -0.2098
  654THF     H6 9635   1.055   0.416   2.225  1.0170  1.4438 -1.7268
  654THF     H7 9636   1.164   0.325   2.322 -0.3773  0.4132  0.5223
  654THF     C8 9637   1.207   0.534   2.335  0.1080  0.3004  0.1461
  654THF     C9 9638   1.329   0.586   2.259  0.7800 -0.2759 -0.3269
  654THF    H10 9639   1.227   0.517   2.440  0.2636  0.7433  0.1858
  654THF    H11 9640   1.127   0.607   2.323  0.3663  0.3516 -1.6085
  654THF    H12 9641   1.347   0.693   2.254  1.0178 -0.3571 -3.1937
  654THF    H13 9642   1.422   0.541   2.294  1.5176  0.9249 -0.6802
  655THF     O1 9643   3.636   5.307   0.418  0.0203 -0.0018  0.6583
  655THF     C2 9644   3.709   5.248   0.309  0.1316  0.5220  0.2175
  655THF     C3 9645   3.522   5.384   0.359 -0.3163 -0.0603 -0.4346
  655THF     H4 9646   3.782   5.170   0.331 -1.1873 -1.2211 -1.2383
  655THF     H5 9647   3.759   5.315   0.239  1.8538  0.9281  1.7558
  655THF     H6 9648   3.451   5.389   0.441  0.0477  0.6447 -0.1564
  655THF     H7 9649   3.559   5.483   0.332  0.5912 -0.3976 -0.4574
  655THF     C8 9650   3.483   5.301   0.243  0.2827 -0.2067  0.2777
  655THF     C9 9651   3.588   5.187   0.234  0.1778 -0.3585 -0.3075
  655THF    H10 9652   3.478   5.369   0.157  0.9765 -0.9024 -0.3350
  655THF    H11 9653   3.386   5.257   0.264 -0.5700  1.6565  0.4222
  655THF    H12 9654   3.556   5.095   0.282 -0.9045  0.1034 -0.1048
  655THF    H13 9655   3.614   5.165   0.131 -1.4315 -3.0184 -0.2236
  656THF     O1 9656   2.891   0.650   0.317  0.1130 -0.2724 -0.0154
  656THF     C2 9657   2.877   0.524   0.382 -0.8008  1.0975  0.1934
  656THF     C3 9658   3.019   0.673   0.263 -0.2468  0.0767 -0.2618
  656THF     H4 9659   2.774   0.494   0.363 -1.1185  2.1192  0.2092
  656THF     H5 9660   2.905   0.514   0.487 -2.0782  1.7074  0.6220
  656THF     H6 9661   3.017   0.716   0.163  0.7318 -0.4019 -0.5012
  656THF     H7 9662   3.067   0.749   0.324 -0.4611  1.2591 -1.4975
  656THF     C8 9663   3.084   0.538   0.264  0.2814 -0.4318 -0.0339
  656THF     C9 9664   2.973   0.441   0.286  0.2335  0.3705 -0.6935
  656THF    H10 9665   3.151   0.521   0.348  0.0504  0.0898  0.2591
  656THF    H11 9666   3.141   0.532   0.171  0.4375  0.2811  0.0108
  656THF    H12 9667   2.919   0.419   0.194 -0.0642  1.6239 -0.8372
  656THF    H13 9668   2.985   0.345   0.335 -5.2459 -0.5873 -0.6234
  657THF     O1 9669   0.931   2.678   4.126 -0.0333  0.0654 -0.8014
  657THF     C2 9670   0.877   2.729   4.243 -0.3609  0.5893  0.4581
  657THF     C3 9671   0.999   2.563   4.176  0.5043  0.3672 -0.1347
  657THF     H4 9672   0.792   2.797   4.231 -2.1200 -1.1899  2.0619
  657THF     H5 9673   0.960   2.782   4.289  0.8078  1.2784 -2.2861
  657THF     H6 9674   1.039   2.496   4.100  2.7930  0.0901  1.2039
  657THF     H7 9675   1.091   2.599   4.222 -0.4325 -1.1887  3.2595
  657THF     C8 9676   0.907   2.493   4.268 -0.1754  0.0790 -0.3184
  657THF     C9 9677   0.831   2.612   4.333  0.4476 -0.0763  0.8466
  657THF    H10 9678   0.969   2.431   4.333  0.3208 -0.8594 -1.6252
  657THF    H11 9679   0.840   2.431   4.209 -0.4665  0.9966 -0.9638
  657THF    H12 9680   0.723   2.603   4.323  0.5677 -0.1693 -0.7527
  657THF    H13 9681   0.842   2.629   4.439 -1.0912 -2.5200  1.5018
  658THF     O1 9682   1.321   1.465   5.344 -0.2649  0.1175  0.2166
  658THF     C2 9683   1.456   1.418   5.348  0.6258  0.2117  0.0497
  658THF     C3 9684   1.327   1.582   5.265  0.0577  0.7842  0.8905
  658THF     H4 9685   1.475   1.358   5.259 -0.7733  1.4373 -1.1347
  658THF     H5 9686   1.464   1.353   5.435 -0.7367 -0.2966 -0.1781
  658THF     H6 9687   1.341   1.569   5.157  0.3330  1.9787  0.7647
  658THF     H7 9688   1.240   1.643   5.291  0.3146  0.5677  2.3002
  658THF     C8 9689   1.450   1.648   5.320  0.0756 -0.5529 -0.3780
  658THF     C9 9690   1.551   1.541   5.343  0.4267 -0.0658  0.7239
  658THF    H10 9691   1.428   1.704   5.411 -0.0068  1.1489 -1.4077
  658THF    H11 9692   1.476   1.719   5.242 -2.6742  0.1295 -0.7757
  658THF    H12 9693   1.617   1.522   5.258 -3.7149  0.7655 -3.0325
  658THF    H13 9694   1.612   1.571   5.428  0.9547  4.9834 -1.0862
  659THF     O1 9695   0.385   2.620   4.309 -0.0052 -0.5628 -0.1230
  659THF     C2 9696   0.287   2.523   4.293 -0.2132  0.0960  0.4260
  659THF     C3 9697   0.325   2.751   4.297  0.2683 -0.0630  0.2483
  659THF     H4 9698   0.221   2.511   4.378 -0.3765  0.0556  0.2956
  659THF     H5 9699   0.332   2.427   4.267  0.8545  0.9427 -0.9990
  659THF     H6 9700   0.314   2.792   4.397  2.8259 -1.7332  1.3227
  659THF     H7 9701   0.380   2.822   4.236  1.6808 -0.3516  1.1304
  659THF     C8 9702   0.196   2.723   4.223 -0.1927 -0.4563 -0.0976
  659THF     C9 9703   0.196   2.577   4.180 -0.3956  0.3794  0.9962
  659THF    H10 9704   0.187   2.779   4.130  0.1290 -1.3713 -0.6953
  659THF    H11 9705   0.102   2.749   4.272 -0.4594 -0.3859 -0.6399
  659THF    H12 9706   0.110   2.511   4.185 -1.0329  1.1749  0.7992
  659THF    H13 9707   0.247   2.577   4.084 -0.2012  1.5694  1.0842
  660THF     O1 9708   3.315   5.114   2.328  0.2938  0.3467 -0.2876
  660THF     C2 9709   3.436   5.045   2.327  0.4656  0.7685 -0.6614
  660THF     C3 9710   3.278   5.143   2.192  0.5810  0.4049  0.5884
  660THF     H4 9711   3.406   4.941   2.346  0.9333  1.2593  3.4972
  660THF     H5 9712   3.490   5.066   2.418 -0.3330 -2.0820  0.6034
  660THF     H6 9713   3.220   5.056   2.161  0.9822 -1.1164  3.6905
  660THF     H7 9714   3.222   5.234   2.173 -1.1368 -0.6185  0.5138
  660THF     C8 9715   3.406   5.153   2.110 -0.1598 -0.0555  0.1613
  660THF     C9 9716   3.505   5.078   2.203  0.0233 -0.4670 -0.6404
  660THF    H10 9717   3.441   5.255   2.100 -0.6266  0.2887  1.7814
  660THF    H11 9718   3.386   5.110   2.012 -0.9859 -1.5339  0.9323
  660THF    H12 9719   3.540   4.980   2.170 -1.4289 -0.7971 -1.3070
  660THF    H13 9720   3.588   5.147   2.217  0.2792 -0.3095 -2.6259
  661THF     O1 9721   3.200   2.716   2.867 -0.0445 -0.3455  0.3384
  661THF     C2 9722   3.115   2.816   2.917  0.7582  0.4694 -0.0161
  661THF     C3 9723   3.121   2.626   2.794  0.2638 -0.2839  0.0513
  661THF     H4 9724   3.098   2.901   2.850 -2.4982  0.3219  0.4767
  661THF     H5 9725   3.151   2.834   3.018 -1.6734 -0.0033  1.0019
  661THF     H6 9726   3.110   2.640   2.686 -1.1396  0.1079  0.2275
  661THF     H7 9727   3.175   2.533   2.815  0.0215 -0.1505  1.3494
  661THF     C8 9728   2.988   2.624   2.863  0.2526  0.6191 -0.1474
  661THF     C9 9729   2.973   2.761   2.930 -0.6929  0.1132  0.0484
  661THF    H10 9730   2.977   2.543   2.936  1.1636  0.7526  0.1465
  661THF    H11 9731   2.904   2.603   2.796 -0.1853  0.3415  0.4735
  661THF    H12 9732   2.906   2.830   2.879 -0.9350  0.2569  0.5609
  661THF    H13 9733   2.932   2.742   3.029  0.5052  1.7625  0.9270
  662THF     O1 9734   3.667   3.128   3.652 -0.2185  0.4716  0.3946
  662THF     C2 9735   3.708   3.098   3.524  0.5397  0.9317  0.1959
  662THF     C3 9736   3.773   3.109   3.746  0.3641  0.4760 -0.1544
  662THF     H4 9737   3.761   3.183   3.481  1.0664  1.4685  1.8095
  662THF     H5 9738   3.625   3.073   3.458  2.0552 -2.2910 -0.7143
  662THF     H6 9739   3.847   3.188   3.734  2.1580 -0.9657  0.9207
  662THF     H7 9740   3.729   3.116   3.845 -3.1483 -0.4233 -1.4865
  662THF     C8 9741   3.832   2.977   3.700 -0.2201  0.1233 -0.0538
  662THF     C9 9742   3.795   2.974   3.551  0.6698  0.5143 -0.2318
  662THF    H10 9743   3.786   2.895   3.755  1.4261 -0.7486  0.0664
  662THF    H11 9744   3.940   2.965   3.700 -0.2154 -0.1238 -1.6134
  662THF    H12 9745   3.880   2.991   3.485 -1.4691  2.8773 -2.6824
  662THF    H13 9746   3.744   2.883   3.520  2.2140 -0.3625 -0.2977
  663THF     O1 9747   5.185   3.504   1.917 -0.5936  0.1504 -0.0829
  663THF     C2 9748   5.257   3.556   2.029 -0.1762 -0.1484  0.4477
  663THF     C3 9749   5.042   3.513   1.938  0.5418  0.2246  0.4557
  663THF     H4 9750   5.360   3.584   2.010 -0.7593  1.6722 -0.2052
  663THF     H5 9751   5.264   3.483   2.110  0.3776 -0.7817 -0.1628
  663THF     H6 9752   4.999   3.532   1.840  0.3146  0.3295  0.5743
  663THF     H7 9753   5.006   3.413   1.963 -1.5114  1.1286  1.3914
  663THF     C8 9754   5.026   3.620   2.049 -0.3380 -0.1824 -0.3550
  663THF     C9 9755   5.168   3.677   2.062 -0.2721 -0.4339 -0.0860
  663THF    H10 9756   5.004   3.561   2.138 -0.4959 -0.9848 -0.9082
  663THF    H11 9757   4.943   3.686   2.023  0.3614  1.0740  0.5425
  663THF    H12 9758   5.180   3.759   1.991  1.7057 -1.4528 -1.0032
  663THF    H13 9759   5.182   3.724   2.159  2.4736 -0.2831 -0.4619
  664THF     O1 9760   4.165   2.489   3.180 -0.2841  0.0750 -0.0559
  664THF     C2 9761   4.199   2.408   3.292 -0.4979 -0.2616  0.6852
  664THF     C3 9762   4.026   2.475   3.153  0.1208 -0.4494 -0.0373
  664THF     H4 9763   4.197   2.466   3.384 -3.6135 -0.9438  1.1368
  664THF     H5 9764   4.302   2.384   3.265 -1.2179 -1.9538 -0.7948
  664THF     H6 9765   3.977   2.533   3.231  0.9586  1.4073 -0.8358
  664THF     H7 9766   4.009   2.510   3.051 -2.6127  2.3900  1.2210
  664THF     C8 9767   4.014   2.327   3.169  0.1745 -0.0251  0.3579
  664THF     C9 9768   4.105   2.289   3.286 -0.0998  0.3291  0.3819
  664THF    H10 9769   4.061   2.291   3.078  0.3160  1.8681 -0.3690
  664THF    H11 9770   3.915   2.283   3.182  0.1574 -0.2262 -0.3830
  664THF    H12 9771   4.052   2.282   3.381 -2.7490  0.4345 -0.9966
  664THF    H13 9772   4.157   2.193   3.278  1.7837  1.2667  0.6201
  665THF     O1 9773   2.018   1.785   5.117  0.2721 -0.2106 -0.1048
  665THF     C2 9774   2.156   1.799   5.146 -0.4361 -0.5776 -0.6890
  665THF     C3 9775   1.958   1.873   5.206  0.5070 -0.3577 -0.2011
  665THF     H4 9776   2.204   1.891   5.112  0.6637 -1.2102 -0.9088
  665THF     H5 9777   2.208   1.708   5.112  0.4239  0.6088 -2.7517
  665THF     H6 9778   1.965   1.979   5.182 -1.8045 -0.5385 -1.9849
  665THF     H7 9779   1.854   1.844   5.214 -0.5995  2.8865 -1.2825
  665THF     C8 9780   2.031   1.858   5.339  0.4308 -0.4131  0.4179
  665THF     C9 9781   2.161   1.792   5.301  0.3504  0.0349  0.2732
  665THF    H10 9782   1.965   1.804   5.407 -2.1741  1.1820 -0.6840
  665THF    H11 9783   2.040   1.954   5.390  3.0138 -0.6939  0.6376
  665THF    H12 9784   2.245   1.850   5.339  0.1224 -0.3355  1.3596
  665THF    H13 9785   2.161   1.690   5.337 -0.9456 -0.0411  0.0981
  666THF     O1 9786   1.054   3.058   4.477 -0.4467  0.1093 -0.1055
  666THF     C2 9787   1.023   3.092   4.616  0.3236  0.2054  0.0291
  666THF     C3 9788   1.192   3.100   4.450 -0.3061  0.2344 -0.3609
  666THF     H4 9789   1.054   3.012   4.682  0.0987 -0.2655 -0.4331
  666THF     H5 9790   0.915   3.102   4.624 -0.5268 -3.0847 -3.8312
  666THF     H6 9791   1.264   3.033   4.496  0.3846  0.2365 -1.3939
  666THF     H7 9792   1.228   3.110   4.347  1.4823  1.3400  0.3187
  666THF     C8 9793   1.203   3.235   4.523  0.1489 -0.0819  0.7507
  666THF     C9 9794   1.103   3.222   4.638  0.5583 -0.7117  0.0670
  666THF    H10 9795   1.165   3.315   4.459 -1.1938 -0.7383  0.6720
  666THF    H11 9796   1.300   3.268   4.558  0.2317 -0.6315  1.0532
  666THF    H12 9797   1.163   3.236   4.728  1.4758  2.3501 -0.8978
  666THF    H13 9798   1.032   3.304   4.653  2.1085  0.4708  1.3140
  667THF     O1 9799   1.749   3.009   5.133  0.3023 -0.1609 -0.3213
  667THF     C2 9800   1.825   3.032   5.251 -0.1400  0.7805 -0.4931
  667THF     C3 9801   1.630   2.946   5.179 -0.1462 -0.1455 -0.2280
  667THF     H4 9802   1.786   3.119   5.304 -0.4191 -0.5006  1.5052
  667THF     H5 9803   1.930   3.041   5.223  0.2051 -1.6848 -0.2154
  667THF     H6 9804   1.565   3.019   5.229  1.7126  0.6646  1.1294
  667THF     H7 9805   1.573   2.896   5.101 -1.9884  2.3783 -0.6594
  667THF     C8 9806   1.672   2.839   5.281 -0.5335  0.1332  0.3255
  667THF     C9 9807   1.803   2.902   5.328  0.1578  0.1988 -0.8603
  667THF    H10 9808   1.674   2.740   5.235  0.4172  0.0545  0.5234
  667THF    H11 9809   1.600   2.839   5.362 -0.2541  1.7553  0.6100
  667THF    H12 9810   1.782   2.932   5.431 -1.2426 -1.5724 -0.5851
  667THF    H13 9811   1.885   2.832   5.314  0.8337  0.7088  0.4101
  668THF     O1 9812   0.250   1.198   1.104  0.1303 -0.5951  0.9632
  668THF     C2 9813   0.216   1.061   1.089  1.5446 -0.3832 -0.9158
  668THF     C3 9814   0.178   1.234   1.219 -0.3671 -0.3081  0.1222
  668THF     H4 9815   0.276   1.011   1.165  2.7119  3.1256  0.6750
  668THF     H5 9816   0.236   1.022   0.989  1.2358 -0.9400 -0.7646
  668THF     H6 9817   0.217   1.182   1.307  1.5124 -0.6924 -0.8924
  668THF     H7 9818   0.181   1.340   1.242  2.4103 -0.2154 -0.2596
  668THF     C8 9819   0.038   1.179   1.185  0.2366  0.1048 -0.0174
  668THF     C9 9820   0.066   1.043   1.132 -0.4806  0.5491  0.5537
  668THF    H10 9821   0.004   1.247   1.107 -1.6209 -0.0723  0.5864
  668THF    H11 9822  -0.024   1.175   1.274  0.3151  1.6193  0.1327
  668THF    H12 9823   0.055   0.970   1.211  0.9234  0.4630  0.6981
  668THF    H13 9824   0.004   1.019   1.045 -1.2472 -0.6858  1.4044
  669THF     O1 9825   3.271   4.691   2.020 -0.1553  0.2543  0.0454
  669THF     C2 9826   3.230   4.707   2.163 -0.2654 -0.1933  0.4004
  669THF     C3 9827   3.398   4.761   2.017 -0.5277  0.3320  0.3504
  669THF     H4 9828   3.149   4.634   2.173 -0.7547 -0.0478 -1.8158
  669THF     H5 9829   3.193   4.807   2.186  0.8611  0.2450  0.3729
  669THF     H6 9830   3.453   4.766   1.923 -0.4194 -0.5421  0.3547
  669THF     H7 9831   3.369   4.865   2.030  0.0142  0.4850  0.3552
  669THF     C8 9832   3.467   4.688   2.136  0.6652  0.0268 -0.1901
  669THF     C9 9833   3.350   4.657   2.240 -0.2776 -0.4525 -0.6667
  669THF    H10 9834   3.532   4.763   2.179 -0.2375  1.8571 -1.8426
  669THF    H11 9835   3.515   4.595   2.105 -1.1490 -1.9223  2.3986
  669THF    H12 9836   3.354   4.549   2.256  0.5475 -0.5369 -1.3528
  669THF    H13 9837   3.362   4.700   2.339 -0.2820 -1.9941  0.0313
  670THF     O1 9838   2.397   4.283   4.911 -0.1861 -0.2599  0.4048
  670THF     C2 9839   2.320   4.327   5.021 -0.3413 -0.2715 -0.0366
  670THF     C3 9840   2.367   4.145   4.880  0.2015  0.1258  0.7805
  670THF     H4 9841   2.220   4.364   4.998 -0.3963  0.9160  1.8696
  670THF     H5 9842   2.370   4.399   5.085 -1.3316  1.2985 -0.9765
  670THF     H6 9843   2.269   4.120   4.838 -0.6329  2.9030  0.8979
  670THF     H7 9844   2.433   4.094   4.809 -0.2724  0.3220  0.1841
  670THF     C8 9845   2.355   4.087   5.022  0.0243 -0.1429  0.6776
  670THF     C9 9846   2.302   4.201   5.108 -0.5727 -0.4001  0.4807
  670THF    H10 9847   2.455   4.069   5.062  1.3580  1.3705 -1.7413
  670THF    H11 9848   2.291   3.999   5.033 -1.0780  0.6440  0.6332
  670THF    H12 9849   2.196   4.191   5.130 -0.2470 -1.0908  1.9197
  670THF    H13 9850   2.354   4.206   5.204 -1.1291  0.8831  0.7313
  671THF     O1 9851   5.473   0.179   3.640 -0.0137  0.1772 -0.0782
  671THF     C2 9852   5.376   0.077   3.645 -0.7700  0.2252 -0.3322
  671THF     C3 9853   5.470   0.257   3.762  0.7297 -0.2333  0.2901
  671THF     H4 9854   5.388   0.009   3.560 -0.9070 -0.8878  0.5162
  671THF     H5 9855   5.281   0.130   3.638 -0.9342 -0.1244 -0.8220
  671THF     H6 9856   5.568   0.305   3.768 -1.3241  4.3292  1.9046
  671THF     H7 9857   5.398   0.339   3.759 -1.5425 -2.1055  0.7277
  671THF     C8 9858   5.432   0.145   3.861  0.6493 -0.3446 -0.7257
  671THF     C9 9859   5.417   0.019   3.774 -0.3533  0.5666  0.5077
  671THF    H10 9860   5.338   0.170   3.911 -0.4408 -2.1526 -1.7535
  671THF    H11 9861   5.512   0.134   3.934 -0.2456 -0.7235  0.2276
  671THF    H12 9862   5.508  -0.040   3.765 -0.9133 -0.0549 -1.4565
  671THF    H13 9863   5.335  -0.042   3.813 -1.2648  0.5027 -1.4081
  672THF     O1 9864   2.812   4.126   2.776  0.0236  0.2754 -0.9288
  672THF     C2 9865   2.833   3.986   2.760  0.5873 -0.5558 -0.8559
  672THF     C3 9866   2.723   4.146   2.881  0.1437 -0.1268  0.0343
  672THF     H4 9867   2.895   3.953   2.843  0.1505  0.3080 -0.1753
  672THF     H5 9868   2.874   3.958   2.663 -1.1373  2.0187 -2.4527
  672THF     H6 9869   2.775   4.132   2.976  0.7666 -0.6981 -0.3839
  672THF     H7 9870   2.679   4.246   2.884  1.8694  0.7059 -1.0928
  672THF     C8 9871   2.623   4.030   2.859  0.0458  0.4091  0.3601
  672THF     C9 9872   2.690   3.936   2.754  0.9934  0.7541 -0.2950
  672THF    H10 9873   2.523   4.067   2.835  0.1449  0.5155  0.1031
  672THF    H11 9874   2.623   3.973   2.951  1.3288  0.2016  0.2556
  672THF    H12 9875   2.681   3.829   2.772  1.3984  0.9759  1.4652
  672THF    H13 9876   2.655   3.946   2.652 -2.2617 -1.9264  0.4042
  673THF     O1 9877   4.123   3.270   0.178 -0.0982  0.4076  0.0760
  673THF     C2 9878   4.124   3.166   0.081 -0.8938 -0.2128  0.1570
  673THF     C3 9879   4.165   3.388   0.111 -0.1177  0.3200 -0.0137
  673THF     H4 9880   4.045   3.096   0.112 -0.0230 -0.8257  1.0532
  673THF     H5 9881   4.213   3.104   0.079 -0.7735 -0.0684  0.7860
  673THF     H6 9882   4.147   3.483   0.161  0.7363 -0.5737  2.1200
  673THF     H7 9883   4.271   3.364   0.106 -0.2101  0.0398 -0.8027
  673THF     C8 9884   4.112   3.378  -0.032 -0.1561 -0.3315 -0.0107
  673THF     C9 9885   4.123   3.225  -0.063 -0.4219 -0.7395 -0.0012
  673THF    H10 9886   4.154   3.443  -0.109  1.9981 -0.5537  0.9065
  673THF    H11 9887   4.004   3.395  -0.031 -0.0596  0.3036  1.2329
  673THF    H12 9888   4.040   3.199  -0.129  0.5186 -0.6863 -1.2488
  673THF    H13 9889   4.216   3.209  -0.118 -1.4304  0.5191 -2.2253
  674THF     O1 9890   2.109   0.818   0.056 -0.0083 -0.5441 -0.3522
  674THF     C2 9891   2.117   0.690   0.000 -0.2143 -0.1809 -0.8967
  674THF     C3 9892   2.115   0.924  -0.045 -0.6731 -0.3310  0.4444
  674THF     H4 9893   2.068   0.613   0.061 -0.2403  0.5673  0.0417
  674THF     H5 9894   2.222   0.662  -0.007 -0.2225 -0.3545 -0.3757
  674THF     H6 9895   2.024   0.978  -0.023  1.1188  3.1601 -0.0419
  674THF     H7 9896   2.202   0.989  -0.033 -0.4619 -0.5983  0.3739
  674THF     C8 9897   2.115   0.847  -0.186 -0.1297 -0.4879  0.1634
  674THF     C9 9898   2.078   0.710  -0.142 -0.1791 -0.2421 -0.5450
  674THF    H10 9899   2.216   0.839  -0.227 -1.0589 -2.2530 -1.9986
  674THF    H11 9900   2.037   0.887  -0.251  1.5324 -0.9842 -2.2905
  674THF    H12 9901   1.969   0.702  -0.144 -0.2435  0.1856  0.5023
  674THF    H13 9902   2.125   0.638  -0.209  2.6277  0.6040  0.3744
  675THF     O1 9903   1.600   1.992   0.754  0.2729 -0.0676  0.1595
  675THF     C2 9904   1.703   1.896   0.724  0.4681  0.4865 -0.5217
  675THF     C3 9905   1.475   1.925   0.755 -0.7416 -0.6286  0.5857
  675THF     H4 9906   1.727   1.850   0.820 -0.6943  2.2449  0.6693
  675THF     H5 9907   1.795   1.937   0.681  0.9177 -0.6935 -0.7284
  675THF     H6 9908   1.478   1.870   0.849  0.6616 -0.0392  0.9044
  675THF     H7 9909   1.387   1.990   0.756 -1.2230 -1.2266 -0.8204
  675THF     C8 9910   1.488   1.853   0.618  0.3110 -0.4721 -0.2098
  675THF     C9 9911   1.631   1.807   0.621 -0.9196 -0.3355  0.6854
  675THF    H10 9912   1.479   1.919   0.532  2.4319 -1.8827 -1.5981
  675THF    H11 9913   1.413   1.775   0.607  0.9972 -1.0770 -0.6654
  675THF    H12 9914   1.626   1.699   0.630 -1.9254 -0.4243 -0.5669
  675THF    H13 9915   1.670   1.828   0.521  0.7589  0.4120  1.4607
  676THF     O1 9916   3.929   0.470   2.272  0.3336  0.5050  0.0742
  676THF     C2 9917   3.911   0.449   2.409 -0.0800  0.2924  0.3219
  676THF     C3 9918   4.023   0.374   2.219 -0.2787  0.1512  0.1664
  676THF     H4 9919   3.855   0.357   2.420  0.8420 -0.2630  0.4437
  676THF     H5 9920   3.847   0.524   2.456  0.1008  0.5315  0.1932
  676THF     H6 9921   3.982   0.274   2.206 -4.2273  1.5632  0.6045
  676THF     H7 9922   4.076   0.416   2.133 -0.1987 -1.5673 -0.6773
  676THF     C8 9923   4.122   0.358   2.332 -0.0911  0.0884 -0.2280
  676THF     C9 9924   4.059   0.432   2.451  0.3255  0.4363 -0.6203
  676THF    H10 9925   4.219   0.400   2.307  0.0039 -0.9338 -1.6388
  676THF    H11 9926   4.153   0.255   2.344 -0.0084  0.0795 -0.5087
  676THF    H12 9927   4.070   0.373   2.541 -0.0936 -0.9717 -1.4583
  676THF    H13 9928   4.106   0.530   2.458 -1.4557  1.3048 -0.0017
  677THF     O1 9929   5.023   4.054   0.962  0.6282  0.1735 -0.4251
  677THF     C2 9930   4.927   4.023   1.061 -0.1764  0.4971 -0.1105
  677THF     C3 9931   5.025   3.958   0.862  0.8334  0.3197  0.3289
  677THF     H4 9932   4.836   4.077   1.036  0.0654  0.7716 -0.4123
  677THF     H5 9933   4.967   4.061   1.156  1.1914  2.3119 -1.3467
  677THF     H6 9934   4.948   3.979   0.788  0.1164 -3.0973 -0.0502
  677THF     H7 9935   5.125   3.945   0.821  0.4501 -1.4745 -0.1059
  677THF     C8 9936   5.005   3.830   0.945 -0.2302 -0.8435  0.3309
  677THF     C9 9937   4.912   3.869   1.056 -0.3302  0.2251  0.0684
  677THF    H10 9938   5.098   3.791   0.987 -0.1602 -0.9269  0.1006
  677THF    H11 9939   4.963   3.743   0.896 -1.7019  0.7731 -1.4513
  677THF    H12 9940   4.810   3.843   1.029 -0.7054  1.8708 -0.2233
  677THF    H13 9941   4.921   3.816   1.150 -0.2751 -2.3413 -1.3157
  678THF     O1 9942   5.187   4.107   1.893 -0.2387 -0.5205  0.0072
  678THF     C2 9943   5.279   4.132   1.996 -0.3952  0.4701 -0.0963
  678THF     C3 9944   5.261   4.082   1.767  0.7980  0.3683  0.2823
  678THF     H4 9945   5.296   4.034   2.043 -1.6390  1.4886  2.6898
  678THF     H5 9946   5.235   4.190   2.077 -0.6963 -0.0236  0.1060
  678THF     H6 9947   5.251   3.978   1.736  0.6342 -0.2565  2.2842
  678THF     H7 9948   5.235   4.150   1.687 -0.7272  1.0043  1.2560
  678THF     C8 9949   5.406   4.114   1.798 -0.3910  0.4014 -0.4170
  678THF     C9 9950   5.404   4.181   1.931 -0.8037 -0.1976  0.2006
  678THF    H10 9951   5.459   4.170   1.721  1.6055 -0.5262  0.1991
  678THF    H11 9952   5.456   4.017   1.797 -0.1080  0.5492 -1.2567
  678THF    H12 9953   5.491   4.162   1.995  1.4263  1.7880 -2.0444
  678THF    H13 9954   5.403   4.289   1.918  1.0329 -0.0872  0.7199
  679THF     O1 9955   0.984   2.855   0.363 -0.7800  0.5369 -1.1522
  679THF     C2 9956   1.077   2.751   0.326  0.4721 -0.3307 -0.0269
  679THF     C3 9957   1.055   2.947   0.444 -0.3703 -0.1152 -0.6138
  679THF     H4 9958   1.141   2.769   0.240  2.5343 -0.1209  1.4726
  679THF     H5 9959   1.024   2.656   0.323 -1.7795  0.8197  0.4422
  679THF     H6 9960   1.112   3.014   0.379  0.8034 -0.0497  0.4389
  679THF     H7 9961   0.980   3.008   0.493 -1.5823 -0.5432 -1.8575
  679THF     C8 9962   1.141   2.860   0.541 -0.1193 -0.7774 -0.1140
  679THF     C9 9963   1.172   2.739   0.451 -0.4137  0.5614  0.1419
  679THF    H10 9964   1.083   2.824   0.625  0.3545  3.0296  2.0523
  679THF    H11 9965   1.229   2.904   0.587  0.4669 -1.5433 -0.4761
  679THF    H12 9966   1.276   2.742   0.416 -0.3246  2.7473  0.4646
  679THF    H13 9967   1.151   2.642   0.494  0.4028  0.8319  1.2008
  680THF     O1 9968   4.887   3.075   3.241  0.4234  0.0221 -0.3361
  680THF     C2 9969   4.751   3.124   3.219 -0.1995 -0.0810 -0.1213
  680THF     C3 9970   4.892   3.022   3.374  0.0046 -0.3562 -0.1423
  680THF     H4 9971   4.723   3.138   3.115 -2.3101  0.3457  0.4725
  680THF     H5 9972   4.740   3.223   3.263 -1.5751 -0.0721 -0.4493
  680THF     H6 9973   4.968   2.943   3.378  0.7094  0.3631  1.7820
  680THF     H7 9974   4.903   3.095   3.454 -0.7919  0.2917 -0.6037
  680THF     C8 9975   4.754   2.968   3.402 -0.9989  0.7546  0.6436
  680THF     C9 9976   4.664   3.021   3.292 -0.6476 -0.3109 -0.4795
  680THF    H10 9977   4.723   3.008   3.498 -0.3356  0.5159  0.9625
  680THF    H11 9978   4.744   2.859   3.408 -0.0777  0.4545 -1.8453
  680THF    H12 9979   4.636   2.944   3.221 -1.7867  0.2219 -0.6373
  680THF    H13 9980   4.575   3.076   3.324  1.6802  3.1013  0.7409
  681THF     O1 9981   3.823   3.484   2.938 -0.0748  0.3883 -0.6075
  681THF     C2 9982   3.855   3.529   3.069  0.0135  0.2045  0.8484
  681THF     C3 9983   3.686   3.484   2.926 -0.6730  0.4645 -0.3250
  681THF     H4 9984   3.850   3.638   3.071 -1.8689  0.1359  1.7176
  681THF     H5 9985   3.952   3.491   3.101 -0.0998 -0.9291 -0.0491
  681THF     H6 9986   3.644   3.584   2.933 -0.8746  0.2598  2.7702
  681THF     H7 9987   3.653   3.428   2.838 -2.0270 -0.1228  0.5261
  681THF     C8 9988   3.645   3.418   3.050 -0.4324 -0.4205 -0.0116
  681THF     C9 9989   3.753   3.453   3.151  0.6865  0.6258 -0.5484
  681THF    H10 9990   3.651   3.311   3.027  0.4679 -0.1702 -1.0136
  681THF    H11 9991   3.545   3.450   3.080 -0.1229  1.3010 -0.7333
  681THF    H12 9992   3.716   3.512   3.234  0.3909 -0.6028  0.2232
  681THF    H13 9993   3.788   3.354   3.180 -0.9047  0.2758  0.3041
  682THF     O1 9994   0.625   4.338   0.896 -0.4056 -0.1364  0.3945
  682THF     C2 9995   0.714   4.254   0.964 -0.5383 -0.0406  0.3198
  682THF     C3 9996   0.570   4.429   0.989 -0.3603 -0.1745 -0.7495
  682THF     H4 9997   0.801   4.308   1.003 -0.0452 -0.2939 -0.4244
  682THF     H5 9998   0.750   4.166   0.912 -1.7847  1.1139 -2.7103
  682THF     H6 9999   0.634   4.497   1.046 -0.1613 -0.1939 -0.9476
  682THF     H710000   0.488   4.489   0.947 -0.3725  1.0391  0.8835
  682THF     C810001   0.515   4.324   1.085  1.0367 -0.7046 -0.0638
  682THF     C910002   0.618   4.217   1.081 -0.1845  0.0438  0.9533
  682THF    H1010003   0.422   4.279   1.051  0.2246  0.1475  0.9728
  682THF    H1110004   0.494   4.365   1.183  0.9269 -1.8825  0.4293
  682THF    H1210005   0.658   4.228   1.182  0.6651  2.0043  0.4517
  682THF    H1310006   0.579   4.117   1.062  2.0226 -0.7506  0.3207
  683THF     O110007   3.557   2.585   2.790 -0.3663 -0.3088 -0.4921
  683THF     C210008   3.545   2.454   2.841  0.1401  0.0699 -0.2078
  683THF     C310009   3.692   2.582   2.727 -0.3442  0.1868  1.0738
  683THF     H410010   3.526   2.397   2.750  0.3604  0.8236 -0.7435
  683THF     H510011   3.461   2.440   2.909  0.7341 -0.0587  0.5194
  683THF     H610012   3.686   2.543   2.626 -0.1442  1.9555  0.3462
  683THF     H710013   3.729   2.682   2.705  0.6059 -0.0698  1.4563
  683THF     C810014   3.773   2.487   2.810  0.4555  0.3735 -0.0801
  683THF     C910015   3.676   2.423   2.903  0.1775  0.5021 -0.6606
  683THF    H1010016   3.853   2.545   2.857  0.4300  0.5486 -0.2535
  683THF    H1110017   3.825   2.415   2.746  1.5556  0.1525  1.0132
  683THF    H1210018   3.699   2.316   2.904  1.2657  0.7154  0.4430
  683THF    H1310019   3.694   2.467   3.001 -0.4591  1.4714 -0.9746
  684THF     O110020   0.800   0.395   1.526 -0.1609 -0.1135  0.1648
  684THF     C210021   0.934   0.452   1.541 -0.8314  0.4398 -0.4896
  684THF     C310022   0.819   0.259   1.476  0.4411 -0.1896 -0.5762
  684THF     H410023   0.915   0.528   1.617  0.9115 -0.4308  0.8892
  684THF     H510024   0.978   0.496   1.452  0.2018  0.8230  0.2027
  684THF     H610025   0.722   0.211   1.491 -0.3411  1.2717 -0.7728
  684THF     H710026   0.859   0.256   1.374  1.7591  0.6788 -0.1139
  684THF     C810027   0.922   0.208   1.572  0.2505 -0.0420 -0.0150
  684THF     C910028   1.016   0.327   1.585  0.2195 -0.1633 -0.0131
  684THF    H1010029   0.973   0.120   1.533 -0.7981 -0.3480 -0.7559
  684THF    H1110030   0.882   0.189   1.671  1.2305  0.3210  0.4569
  684THF    H1210031   1.056   0.329   1.686 -1.1084  1.7683  0.5228
  684THF    H1310032   1.088   0.310   1.505 -0.4154  1.0693 -0.8851
  685THF     O110033   4.544   3.289   2.873 -0.4474 -0.4526 -0.1911
  685THF     C210034   4.545   3.398   2.790  0.9191 -0.5072  0.3219
  685THF     C310035   4.409   3.269   2.918  0.6341 -0.2329 -0.3118
  685THF     H410036   4.503   3.362   2.696  0.9167  1.1813 -0.3676
  685THF     H510037   4.645   3.437   2.770  0.2973  1.1905  0.3755
  685THF     H610038   4.355   3.185   2.875  0.4678 -0.1761 -0.2121
  685THF     H710039   4.408   3.249   3.025 -0.7212  1.5081  0.0499
  685THF     C810040   4.331   3.396   2.897 -0.2603  0.6709 -0.5074
  685THF     C910041   4.446   3.492   2.864 -0.0389  0.6504 -0.1830
  685THF    H1010042   4.267   3.439   2.974 -2.7147  1.4497 -2.7989
  685THF    H1110043   4.276   3.381   2.804 -0.6813 -0.5430 -0.0797
  685THF    H1210044   4.412   3.571   2.797 -0.9930 -0.0629 -0.5639
  685THF    H1310045   4.486   3.526   2.959 -1.6058 -0.5755  0.9878
  686THF     O110046   0.426   5.481   3.955  0.0968  0.0763 -0.5509
  686THF     C210047   0.509   5.459   3.837 -0.3110  0.5025 -0.2827
  686THF     C310048   0.342   5.589   3.929  0.0189  0.1478  0.1557
  686THF     H410049   0.509   5.351   3.821 -2.0124  0.1297  1.8086
  686THF     H510050   0.608   5.495   3.867 -0.8944  1.1968  0.8913
  686THF     H610051   0.238   5.558   3.916 -0.0315 -0.0108  0.9110
  686THF     H710052   0.338   5.667   4.005  0.3957 -0.8893  1.2616
  686THF     C810053   0.395   5.667   3.807 -0.2034  0.0201 -0.4810
  686THF     C910054   0.459   5.552   3.731  0.7465  0.3341  0.5247
  686THF    H1010055   0.479   5.730   3.837 -0.1626  0.8282 -2.1813
  686THF    H1110056   0.318   5.720   3.751  0.4194 -0.2650 -1.6498
  686THF    H1210057   0.385   5.493   3.678  0.5543 -0.2802  1.4435
  686THF    H1310058   0.545   5.567   3.665  0.9243 -1.1446  0.3751
  687THF     O110059   3.336   3.408   3.451  0.1523 -0.1037 -0.1955
  687THF     C210060   3.424   3.308   3.507  0.5951  0.1284 -0.5938
  687THF     C310061   3.234   3.342   3.379  0.8233 -0.2789  0.3123
  687THF     H410062   3.415   3.312   3.615  0.3336 -1.2455 -0.5466
  687THF     H510063   3.523   3.321   3.463 -0.3614  2.3365 -2.3174
  687THF     H610064   3.149   3.408   3.391  2.3487  1.6240  1.2895
  687THF     H710065   3.255   3.345   3.272 -0.4346 -0.3910  0.0554
  687THF     C810066   3.219   3.198   3.436  0.2043 -0.8387  0.6405
  687THF     C910067   3.374   3.178   3.456 -0.3109  0.2480  0.0921
  687THF    H1010068   3.182   3.132   3.357 -3.5219 -1.8320  2.9387
  687THF    H1110069   3.159   3.208   3.527 -0.1622  0.0477  0.3119
  687THF    H1210070   3.395   3.101   3.530  1.3879  0.3807 -0.2131
  687THF    H1310071   3.437   3.159   3.369 -1.0840  2.6181 -1.0778
  688THF     O110072   4.638   2.713   2.511 -0.0337  0.2924 -0.5846
  688THF     C210073   4.542   2.687   2.615  0.1882  0.6450 -0.0149
  688THF     C310074   4.722   2.601   2.480  0.3961 -0.4055 -0.7878
  688THF     H410075   4.452   2.659   2.562 -0.8500  2.3503  0.7718
  688THF     H510076   4.522   2.761   2.692  3.0372 -0.1750  1.7042
  688THF     H610077   4.722   2.577   2.374 -2.2652 -1.2429 -0.6646
  688THF     H710078   4.817   2.629   2.526  1.4284 -0.6086 -2.6957
  688THF     C810079   4.656   2.484   2.557  0.4831  0.1337 -0.3065
  688THF     C910080   4.599   2.560   2.681  0.3007 -0.2799  0.7112
  688THF    H1010081   4.717   2.397   2.582 -2.2472 -1.6476  0.5479
  688THF    H1110082   4.569   2.466   2.494  0.8552  2.7711 -1.7065
  688THF    H1210083   4.527   2.496   2.732  0.5835 -2.7837 -1.8106
  688THF    H1310084   4.678   2.582   2.753  1.8170 -2.0356 -0.3322
  689THF     O110085   1.105   0.783   2.014  0.9453  0.5477 -0.2228
  689THF     C210086   1.010   0.798   2.117 -0.0259 -0.0550 -0.2700
  689THF     C310087   1.097   0.884   1.914 -0.3061 -0.3010  0.4020
  689THF     H410088   1.044   0.855   2.204  1.6853 -1.8024  0.2670
  689THF     H510089   0.985   0.704   2.165  0.4562 -0.9081 -1.6202
  689THF     H610090   1.139   0.977   1.952 -0.6203 -0.9125  2.4181
  689THF     H710091   1.147   0.855   1.822 -2.0244 -1.0369 -0.3263
  689THF     C810092   0.946   0.904   1.907  0.6159  0.5146 -0.6116
  689THF     C910093   0.885   0.862   2.047 -0.3620 -0.1449 -0.0195
  689THF    H1010094   0.903   0.839   1.831 -0.8375  0.1297  0.4819
  689THF    H1110095   0.911   1.003   1.877 -0.1544  0.9175  1.4711
  689THF    H1210096   0.860   0.955   2.098  1.0666 -0.4188  1.2870
  689THF    H1310097   0.804   0.790   2.038 -1.7200  0.9335  2.3712
  690THF     O110098   2.234   0.395   2.157  0.2856 -0.5672  0.5677
  690THF     C210099   2.299   0.499   2.232  0.4958  0.0437 -0.4068
  690THF     C310100   2.246   0.428   2.016 -0.4965 -0.6504  0.1563
  690THF     H410101   2.406   0.482   2.225  0.8646  1.8128  0.4217
  690THF     H510102   2.267   0.500   2.336  0.2931  1.2288 -0.4749
  690THF     H610103   2.345   0.406   1.977 -0.7286 -1.0083 -0.2333
  690THF     H710104   2.168   0.385   1.953  0.1594 -0.9382 -0.4593
  690THF     C810105   2.223   0.582   2.020  0.4403  0.0257 -0.4671
  690THF     C910106   2.254   0.627   2.162 -0.1331  0.0470  0.3638
  690THF    H1010107   2.124   0.612   1.987 -0.0340  1.7636  2.2620
  690THF    H1110108   2.282   0.632   1.944 -0.5505 -0.2432 -1.4378
  690THF    H1210109   2.338   0.696   2.164 -0.7881  0.9573 -1.3632
  690THF    H1310110   2.166   0.673   2.207 -0.4525 -0.9867  0.8137
  691THF     O110111   5.137   3.969   3.221  0.5064  0.2761  0.4914
  691THF     C210112   5.104   4.078   3.137 -0.2593  0.0387 -0.1030
  691THF     C310113   5.185   3.875   3.136 -0.1786  0.3063  0.5358
  691THF     H410114   5.110   4.174   3.189  0.7006 -0.2197  0.2845
  691THF     H510115   5.011   4.074   3.081  0.4027  1.6994 -1.4126
  691THF     H610116   5.279   3.837   3.176  0.2048 -0.9112 -1.4021
  691THF     H710117   5.121   3.790   3.113 -2.1448  1.7337  0.5079
  691THF     C810118   5.223   3.933   3.002  0.4417 -0.5421  0.3520
  691THF     C910119   5.226   4.079   3.032  0.2258  0.6352  0.0424
  691THF    H1010120   5.157   3.908   2.919  2.6285  1.5387 -2.2148
  691THF    H1110121   5.322   3.901   2.969  1.4984  2.2253  0.5839
  691THF    H1210122   5.317   4.118   3.079  0.3674  0.9939 -0.5204
  691THF    H1310123   5.215   4.127   2.935 -0.2525 -1.6966 -1.1424
  692THF     O110124   0.612   0.847   2.574 -0.2036 -0.4819 -0.7767
  692THF     C210125   0.716   0.939   2.598  0.2329  0.4785 -0.0002
  692THF     C310126   0.504   0.906   2.512  0.0114 -0.1169 -0.3483
  692THF     H410127   0.814   0.923   2.554  0.3004 -3.3269  1.1397
  692THF     H510128   0.750   0.930   2.702 -0.0001 -0.3051  0.0159
  692THF     H610129   0.471   0.833   2.438 -0.8035  0.2739 -0.3873
  692THF     H710130   0.431   0.929   2.589 -0.0763 -0.8815 -0.1958
  692THF     C810131   0.561   1.027   2.451 -0.2120  0.1548  0.0584
  692THF     C910132   0.656   1.069   2.567  0.5403 -0.8847  0.1019
  692THF    H1010133   0.478   1.094   2.427  1.1894  2.7952  2.0250
  692THF    H1110134   0.613   0.988   2.364  1.5313 -3.3337  2.4776
  692THF    H1210135   0.718   1.156   2.545 -1.7296  0.7529 -0.1499
  692THF    H1310136   0.600   1.101   2.654  0.4958  1.3818 -0.6952
  693THF     O110137   2.309   1.850   0.093 -0.0547 -0.3853 -0.2606
  693THF     C210138   2.381   1.912   0.200 -0.6024 -0.8754  0.0461
  693THF     C310139   2.212   1.756   0.143 -0.8532 -0.5309 -0.4907
  693THF     H410140   2.448   1.986   0.155 -4.0627  1.9629 -0.8998
  693THF     H510141   2.437   1.831   0.246 -1.6817 -1.9087 -0.4122
  693THF     H610142   2.122   1.767   0.082 -0.4322  0.2849 -0.9876
  693THF     H710143   2.259   1.658   0.135 -1.4125 -0.8548  0.0968
  693THF     C810144   2.186   1.811   0.281  0.3020 -0.0604  0.0134
  693THF     C910145   2.259   1.943   0.288 -0.1784  0.5029  0.4725
  693THF    H1010146   2.213   1.752   0.369 -0.3998  0.1860  0.4000
  693THF    H1110147   2.081   1.834   0.298  0.0855  1.0437 -2.4670
  693THF    H1210148   2.204   2.024   0.242 -1.2439  0.4723  1.6388
  693THF    H1310149   2.269   1.965   0.394 -0.5073  0.6938  0.4630
  694THF     O110150   0.692   4.950   4.580 -0.5235  0.1285 -0.1727
  694THF     C210151   0.592   4.872   4.509  0.4598 -0.0478  0.5098
  694THF     C310152   0.651   5.084   4.559 -0.9890 -0.3893  0.5038
  694THF     H410153   0.582   4.769   4.544 -1.6558 -1.1329 -2.7420
  694THF     H510154   0.618   4.856   4.404 -0.5579  2.3753 -0.1692
  694THF     H610155   0.697   5.168   4.611 -1.2949  0.8511 -1.1356
  694THF     H710156   0.675   5.102   4.454 -2.1583 -0.3464  0.2370
  694THF     C810157   0.496   5.080   4.572  0.2891 -0.1075  0.6293
  694THF     C910158   0.456   4.940   4.534  0.4807 -0.1826 -0.2720
  694THF    H1010159   0.463   5.166   4.513  0.5723 -0.4137  0.0065
  694THF    H1110160   0.478   5.095   4.678 -0.5442  0.2601  0.4424
  694THF    H1210161   0.406   4.900   4.622  0.4562 -0.4189 -0.3925
  694THF    H1310162   0.385   4.936   4.451 -1.5960  1.1362  1.3342
  695THF     O110163   3.155   1.851   4.721 -0.5692  0.4544  0.1752
  695THF     C210164   3.074   1.927   4.628  1.0758  0.3322  0.1685
  695THF     C310165   3.125   1.904   4.847  0.6770 -0.0977 -0.5600
  695THF     H410166   3.039   1.870   4.542 -0.5713  2.4493 -0.6685
  695THF     H510167   3.108   2.026   4.598 -1.8221  0.7994 -2.0763
  695THF     H610168   3.150   1.831   4.924  1.0768 -0.7050 -1.2525
  695THF     H710169   3.190   1.987   4.877  2.9163 -2.0935  0.4431
  695THF     C810170   2.978   1.949   4.847 -0.4938 -0.0094  0.9235
  695THF     C910171   2.940   1.950   4.703  0.1220  0.3570  0.4340
  695THF    H1010172   2.961   2.051   4.879 -1.6170  0.7775 -1.8676
  695THF    H1110173   2.929   1.877   4.913  0.4231 -0.8999  0.6611
  695THF    H1210174   2.873   1.865   4.686 -1.3672  1.8705 -1.7867
  695THF    H1310175   2.886   2.037   4.666  0.2613  0.1204 -0.3467
  696THF     O110176   4.069   5.109   1.144 -0.0625 -0.5199 -0.3140
  696THF     C210177   4.071   5.235   1.081  0.4355 -0.2433 -0.2931
  696THF     C310178   4.089   5.011   1.042  0.2731 -0.5019 -0.0060
  696THF     H410179   4.168   5.283   1.095  0.2678  0.2034 -0.6678
  696THF     H510180   3.990   5.295   1.122 -0.1441 -1.7464  0.9014
  696THF     H610181   4.192   4.976   1.037 -0.3661 -2.3685 -0.7486
  696THF     H710182   4.039   4.919   1.071  0.7047 -0.2566  1.6628
  696THF     C810183   4.028   5.073   0.918  0.2119 -0.3143 -0.6537
  696THF     C910184   4.043   5.222   0.934 -0.2968  0.7723 -0.4367
  696THF    H1010185   3.921   5.049   0.922 -0.8678  3.8427  0.4875
  696THF    H1110186   4.077   5.037   0.829 -0.6212  1.8227 -2.0575
  696THF    H1210187   4.133   5.255   0.883 -1.1417  0.7229 -1.9947
  696THF    H1310188   3.962   5.286   0.899 -0.0638  0.3686 -1.7698
  697THF     O110189   0.724   2.826   0.697  0.1198 -0.3504  0.2250
  697THF     C210190   0.602   2.769   0.736  0.9096 -0.6332 -0.8029
  697THF     C310191   0.753   2.793   0.562  0.3269  0.3370 -0.2103
  697THF     H410192   0.524   2.842   0.716  2.2954  1.2093  0.2415
  697THF     H510193   0.590   2.751   0.843 -1.8976  0.5221 -0.8353
  697THF     H610194   0.767   2.887   0.510  2.0306  0.7729  0.9624
  697THF     H710195   0.844   2.733   0.568 -0.6544 -1.2515 -0.6256
  697THF     C810196   0.638   2.703   0.510 -0.3034  0.0162  0.1310
  697THF     C910197   0.576   2.655   0.641 -0.1676  0.1836  0.6217
  697THF    H1010198   0.670   2.621   0.446 -1.7822 -1.6176  1.3647
  697THF    H1110199   0.556   2.760   0.467 -0.0691  1.9759  2.1136
  697THF    H1210200   0.473   2.620   0.629 -0.8592  1.8993  1.3357
  697THF    H1310201   0.638   2.572   0.673  1.6502  1.9605  1.9325
  698THF     O110202   2.870   3.909   2.212  0.1773 -0.7551  0.3745
  698THF     C210203   2.879   3.773   2.187 -1.1205  0.5576  0.6454
  698THF     C310204   2.843   3.929   2.349  0.3671  0.4295  0.6800
  698THF     H410205   2.970   3.728   2.228 -0.9480  0.3156  0.0114
  698THF     H510206   2.875   3.746   2.081  2.1358  0.7878  0.3433
  698THF     H610207   2.930   3.904   2.410  1.4982  0.7398 -0.7463
  698THF     H710208   2.809   4.029   2.375  0.8223  0.1018  2.6722
  698THF     C810209   2.729   3.831   2.364  1.2833 -0.5669 -0.3067
  698THF     C910210   2.758   3.722   2.262  1.0342  0.3195  0.2432
  698THF    H1010211   2.630   3.870   2.341  0.6239 -0.4685  2.3159
  698THF    H1110212   2.710   3.807   2.469 -0.6275  0.7459 -0.3074
  698THF    H1210213   2.757   3.621   2.303 -0.8090  0.4274  0.5879
  698THF    H1310214   2.671   3.725   2.197 -0.1664 -1.7936  1.6392
  699THF     O110215   2.100   3.741   0.246 -0.5102 -0.3663 -0.1783
  699THF     C210216   2.183   3.696   0.142 -0.1131 -0.0500  0.4546
  699THF     C310217   1.970   3.678   0.246  0.3811  0.3087 -0.1723
  699THF     H410218   2.281   3.725   0.178 -0.3652  0.5263  0.6910
  699THF     H510219   2.154   3.750   0.052  1.7281 -2.4012 -1.7088
  699THF     H610220   1.931   3.683   0.348 -3.0919  1.0828 -1.4088
  699THF     H710221   1.909   3.738   0.179  1.5183  4.5035  2.1742
  699THF     C810222   2.005   3.533   0.182 -0.0752 -0.5276 -0.1341
  699THF     C910223   2.147   3.547   0.124  0.2006 -0.3492 -0.2281
  699THF    H1010224   1.930   3.498   0.111 -1.0924  0.6124  0.3409
  699THF    H1110225   1.995   3.470   0.271 -2.6728  0.5481  0.4572
  699THF    H1210226   2.220   3.491   0.184  0.8523  0.2710 -0.4323
  699THF    H1310227   2.165   3.524   0.019  2.5434 -0.2805  0.1124
  700THF     O110228   1.554   2.081   2.436 -0.4051  0.2261 -0.1383
  700THF     C210229   1.538   2.076   2.294 -0.1000  0.1022 -0.6948
  700THF     C310230   1.695   2.101   2.466 -0.2310  0.3082  0.3838
  700THF     H410231   1.450   2.127   2.255 -1.4456 -1.1915  0.5413
  700THF     H510232   1.530   1.972   2.264 -0.4612 -0.6870  1.8631
  700THF     H610233   1.718   2.137   2.566 -1.6759  0.0021  0.8537
  700THF     H710234   1.754   2.010   2.455 -0.7903  0.1651 -1.7950
  700THF     C810235   1.736   2.196   2.356  0.4426 -0.1038  0.6571
  700THF     C910236   1.673   2.127   2.235  0.4359 -0.0008 -0.3383
  700THF    H1010237   1.845   2.205   2.360  0.3903  0.5599  0.6170
  700THF    H1110238   1.704   2.299   2.367  3.2334  1.0391 -0.9515
  700THF    H1210239   1.666   2.199   2.153 -0.6689  0.2743 -0.0189
  700THF    H1310240   1.738   2.042   2.218  0.0094 -1.0716  2.8294
  701THF     O110241   1.795   1.471   0.678 -0.0384  0.3739 -0.0462
  701THF     C210242   1.862   1.551   0.783  0.6067 -0.0044 -0.1903
  701THF     C310243   1.903   1.393   0.624 -0.2699  0.1608 -0.0950
  701THF     H410244   1.782   1.586   0.849 -0.1578 -0.7915 -0.6747
  701THF     H510245   1.907   1.641   0.742 -3.0594  1.9917 -0.2779
  701THF     H610246   1.871   1.291   0.602  0.7985 -0.6004  1.7158
  701THF     H710247   1.946   1.431   0.531  2.4618 -1.0227  0.5969
  701THF     C810248   2.009   1.384   0.730 -0.1414 -0.3029  0.0575
  701THF     C910249   1.952   1.451   0.853 -0.4335 -0.6303  1.0572
  701THF    H1010250   2.096   1.442   0.699  0.3469  1.2733  3.8710
  701THF    H1110251   2.039   1.281   0.753  0.9276  0.1908  1.0058
  701THF    H1210252   1.891   1.383   0.912  0.1332  1.0572  3.7482
  701THF    H1310253   2.029   1.500   0.911  0.3733  1.3199 -1.4786
  702THF     O110254   0.103   4.080   2.213 -0.1789 -0.4998 -0.2990
  702THF     C210255   0.005   4.144   2.296  0.0112  0.0016  0.3813
  702THF     C310256   0.089   3.939   2.229 -0.0818 -0.6176 -0.3778
  702THF     H410257  -0.051   4.224   2.247  0.8143 -0.2609 -1.0114
  702THF     H510258   0.065   4.180   2.379 -0.2012  0.0417  0.5179
  702THF     H610259   0.034   3.889   2.149 -1.4257  1.9709 -1.1667
  702THF     H710260   0.188   3.895   2.244 -0.3673 -0.3919  2.8525
  702THF     C810261   0.013   3.918   2.359 -0.8161  0.0896  0.1690
  702THF     C910262  -0.086   4.041   2.357  0.3162 -0.4338 -0.5169
  702THF    H1010263   0.078   3.898   2.445 -2.0349 -1.0327  0.8602
  702THF    H1110264  -0.051   3.830   2.354 -0.9496 -0.0179  2.6434
  702THF    H1210265  -0.168   4.011   2.291 -0.5090  2.6970 -1.0475
  702THF    H1310266  -0.128   4.069   2.453 -2.6186 -1.6301 -1.3275
  703THF     O110267   3.567   2.267   3.993  0.7377 -0.0013 -0.3657
  703THF     C210268   3.526   2.381   3.922 -0.8501 -0.4469 -0.0756
  703THF     C310269   3.709   2.267   3.995 -0.3203 -0.0159 -1.2406
  703THF     H410270   3.423   2.409   3.941 -0.6376  1.3492 -1.2935
  703THF     H510271   3.529   2.355   3.816 -1.2568  0.1419 -0.2403
  703THF     H610272   3.750   2.213   4.081 -0.9268 -0.1449 -1.0273
  703THF     H710273   3.752   2.213   3.910  1.2725  0.0725 -0.5386
  703THF     C810274   3.752   2.418   4.008 -0.0338  0.5493  0.3873
  703THF     C910275   3.625   2.492   3.964 -0.0129  0.0768  0.5348
  703THF    H1010276   3.839   2.443   3.946 -1.0681  0.6801 -1.0467
  703THF    H1110277   3.776   2.437   4.113  0.6145  0.7888  0.2046
  703THF    H1210278   3.587   2.557   4.044 -3.9087 -0.3402 -0.7585
  703THF    H1310279   3.639   2.557   3.878  2.6776 -0.5223  0.4340
  704THF     O110280   1.348   1.234   5.005  0.2370  0.1425 -0.3572
  704THF     C210281   1.283   1.333   4.926 -0.2283  0.8968  0.3216
  704THF     C310282   1.410   1.139   4.923  0.6134 -0.2216  0.3517
  704THF     H410283   1.270   1.420   4.990 -0.6975 -0.1396  1.6888
  704THF     H510284   1.191   1.295   4.880 -0.8674  3.6239 -0.8281
  704THF     H610285   1.487   1.082   4.973  2.1360  1.9925  0.6600
  704THF     H710286   1.331   1.078   4.878 -1.6816  2.8735 -0.1811
  704THF     C810287   1.454   1.224   4.806  0.1434 -0.3351 -0.0825
  704THF     C910288   1.397   1.363   4.828  1.1373  0.1878 -0.4150
  704THF    H1010289   1.405   1.191   4.714  1.3300 -2.0095 -0.1615
  704THF    H1110290   1.560   1.216   4.782  0.3897 -4.6503  1.5684
  704THF    H1210291   1.476   1.419   4.878  0.8041 -1.2766  1.8542
  704THF    H1310292   1.363   1.405   4.733 -1.2595 -4.2586 -1.8212
  705THF     O110293   5.166   1.717   3.280  0.3891 -1.0285  0.4006
  705THF     C210294   5.223   1.597   3.226 -0.8051 -0.8567 -0.3272
  705THF     C310295   5.215   1.729   3.409  0.6430 -0.0455  0.0807
  705THF     H410296   5.296   1.620   3.148  0.5144  0.6983  1.2717
  705THF     H510297   5.137   1.550   3.179  0.6311 -2.3773 -1.5747
  705THF     H610298   5.313   1.775   3.414  0.3726  1.0107 -2.5012
  705THF     H710299   5.148   1.797   3.461  0.9404  0.0070  0.3945
  705THF     C810300   5.224   1.581   3.453 -0.3195  0.0928 -0.3894
  705THF     C910301   5.300   1.525   3.335  0.3585  0.1280 -0.0362
  705THF    H1010302   5.125   1.539   3.468  0.4140 -1.7623 -0.4625
  705THF    H1110303   5.274   1.575   3.550 -1.4408 -2.8054  0.1065
  705THF    H1210304   5.406   1.547   3.344  1.2137 -3.2504 -0.5050
  705THF    H1310305   5.291   1.417   3.322 -1.4586  0.3737 -1.1668
  706THF     O110306   1.173   4.638   0.426 -0.9450 -0.6769  0.4149
  706THF     C210307   1.262   4.638   0.310  0.3698 -0.0435 -0.0281
  706THF     C310308   1.134   4.765   0.451  0.0828  0.7418 -0.7142
  706THF     H410309   1.200   4.656   0.222 -0.2727  1.4395  0.6821
  706THF     H510310   1.318   4.547   0.288 -1.4390 -1.7630  2.0545
  706THF     H610311   1.040   4.784   0.398  0.2857  4.8535  0.0695
  706THF     H710312   1.123   4.788   0.557  1.6952  1.9644 -0.7847
  706THF     C810313   1.235   4.865   0.399  0.1882 -0.1606 -0.1165
  706THF     C910314   1.336   4.767   0.339 -0.2582  0.5723  0.3928
  706THF    H1010315   1.282   4.924   0.478  1.4904  0.4569 -1.2981
  706THF    H1110316   1.190   4.934   0.327 -1.4178 -0.3860  0.6548
  706THF    H1210317   1.383   4.814   0.253 -1.8758  0.5329 -0.5491
  706THF    H1310318   1.415   4.756   0.414 -0.7330 -1.1737  0.6928
  707THF     O110319   1.518   5.091   3.970 -0.1892  0.2398 -0.2928
  707THF     C210320   1.649   5.107   4.019 -0.6589 -0.1994 -0.6939
  707THF     C310321   1.433   5.090   4.082  0.7580 -0.1669 -0.5372
  707THF     H410322   1.654   5.214   4.040  0.1002 -0.2662 -0.5063
  707THF     H510323   1.730   5.095   3.946  0.4336  2.8280 -0.1619
  707THF     H610324   1.420   5.190   4.123 -1.7756 -1.3897  1.9939
  707THF     H710325   1.340   5.040   4.056  0.5414 -0.8212  1.3389
  707THF     C810326   1.507   5.009   4.183 -0.3428  0.7025 -0.5374
  707THF     C910327   1.653   5.036   4.152 -0.0561  0.2982  0.0381
  707THF    H1010328   1.489   4.902   4.178  0.7339  0.4807  0.0496
  707THF    H1110329   1.473   5.030   4.284 -3.0742  1.3541 -1.4989
  707THF    H1210330   1.704   5.099   4.226  2.2669 -0.8225 -0.5264
  707THF    H1310331   1.712   4.945   4.156  0.0297  0.3850  1.8873
  708THF     O110332   1.024   3.731   3.970  0.1834 -0.8335  0.4165
  708THF     C210333   1.010   3.588   3.981  0.4627  0.2842 -0.1181
  708THF     C310334   0.970   3.772   3.840 -0.3854  0.3469  0.3100
  708THF     H410335   1.027   3.557   4.084  1.5387 -2.0637 -0.9280
  708THF     H510336   1.089   3.555   3.913 -0.0992 -0.6400 -0.3332
  708THF     H610337   0.963   3.879   3.817  1.0778  0.4193  0.0872
  708THF     H710338   1.032   3.748   3.754 -0.9108 -1.7401  0.4653
  708THF     C810339   0.838   3.688   3.841  0.2571  0.2323  0.0246
  708THF     C910340   0.873   3.563   3.914  0.2327 -0.4605  0.1806
  708THF    H1010341   0.800   3.670   3.740  1.9359  1.3332 -0.8571
  708THF    H1110342   0.763   3.746   3.895 -1.4460 -1.3537 -0.5280
  708THF    H1210343   0.798   3.523   3.982 -1.4232  1.4508 -0.4381
  708THF    H1310344   0.892   3.481   3.844 -1.6094  0.1091 -1.0530
  709THF     O110345   1.373   4.061   2.586 -0.1254  0.5716 -0.3478
  709THF     C210346   1.412   4.050   2.449  0.6346 -0.2952  0.3294
  709THF     C310347   1.287   4.167   2.593  0.3651  0.4398 -0.3862
  709THF     H410348   1.328   4.010   2.393  1.0498  0.3459 -0.7824
  709THF     H510349   1.493   3.981   2.423  1.4287  1.3183 -1.7967
  709THF     H610350   1.188   4.145   2.552  0.8416 -0.7154 -0.9651
  709THF     H710351   1.272   4.207   2.694 -0.6102 -1.5329  0.3121
  709THF     C810352   1.355   4.277   2.507 -0.2246 -0.3544 -0.0971
  709THF     C910353   1.430   4.197   2.405  0.2563  0.4965  0.3894
  709THF    H1010354   1.423   4.328   2.574 -2.1890  1.3588  0.6941
  709THF    H1110355   1.294   4.355   2.461 -0.2697  0.8996  1.9856
  709THF    H1210356   1.407   4.210   2.300  0.3824  0.8605  0.4033
  709THF    H1310357   1.533   4.230   2.415  0.1466  1.3647 -1.0399
  710THF     O110358   5.438   1.182   0.105  0.6140  0.0562  0.4156
  710THF     C210359   5.565   1.155   0.159 -0.0733  0.8338 -0.1009
  710THF     C310360   5.399   1.307   0.151 -0.9054 -0.5900 -0.4134
  710THF     H410361   5.594   1.064   0.105 -0.8324  0.3084  0.3692
  710THF     H510362   5.559   1.122   0.263  0.2579 -2.4062 -0.9743
  710THF     H610363   5.327   1.363   0.092 -0.5797  1.4492  1.0313
  710THF     H710364   5.341   1.298   0.243 -1.1577 -1.7967 -0.6648
  710THF     C810365   5.538   1.382   0.162 -0.3877  0.1086  0.3588
  710THF     C910366   5.645   1.283   0.132  0.3742 -0.1973  0.0444
  710THF    H1010367   5.559   1.417   0.263 -1.2892 -0.9089  0.9184
  710THF    H1110368   5.529   1.470   0.099 -0.4121  0.3155  0.6518
  710THF    H1210369   5.683   1.282   0.030  0.1850  1.7474 -0.0750
  710THF    H1310370   5.738   1.295   0.187  1.0801  0.9225 -1.3538
  711THF     O110371   3.119   0.540   4.747  0.4591  0.2469  0.3425
  711THF     C210372   3.110   0.529   4.606 -0.6798  0.3437  0.0056
  711THF     C310373   3.052   0.659   4.782  0.6012 -0.0874 -0.4502
  711THF     H410374   3.020   0.478   4.572 -0.1943 -0.2597 -0.4011
  711THF     H510375   3.195   0.474   4.566 -0.5194  2.2779 -2.4985
  711THF     H610376   2.944   0.646   4.780  0.3969 -0.1101  3.3678
  711THF     H710377   3.085   0.688   4.882 -3.1012  0.4438  0.7891
  711THF     C810378   3.105   0.752   4.678 -0.3237  0.3929  0.1303
  711THF     C910379   3.102   0.671   4.546 -0.1464 -0.1298 -0.4434
  711THF    H1010380   3.206   0.779   4.709 -0.7731 -0.4580  2.5607
  711THF    H1110381   3.035   0.835   4.670  1.0977  1.6629  0.3407
  711THF    H1210382   3.010   0.683   4.488 -1.0592  3.2668  1.4345
  711THF    H1310383   3.190   0.703   4.489  0.9656  0.0027  1.2673
  712THF     O110384   4.598   2.564   1.801 -0.0681  0.0352  0.3343
  712THF     C210385   4.454   2.560   1.791  0.2435  0.1816  0.2396
  712THF     C310386   4.654   2.571   1.670  0.4768  0.4581  0.0629
  712THF     H410387   4.408   2.607   1.878  0.8422  0.5934  0.3435
  712THF     H510388   4.405   2.465   1.771  0.3149  0.5350 -1.7737
  712THF     H610389   4.751   2.617   1.690  0.6059  0.2459 -0.0652
  712THF     H710390   4.668   2.478   1.615 -1.6457  1.3041 -2.0751
  712THF     C810391   4.553   2.670   1.603  0.5622  0.1115 -0.3218
  712THF     C910392   4.417   2.644   1.667 -0.5317  0.6490 -0.4321
  712THF    H1010393   4.541   2.651   1.496 -2.6757 -1.4572  0.2037
  712THF    H1110394   4.575   2.774   1.625 -0.7417  0.3579 -0.1214
  712THF    H1210395   4.363   2.734   1.696 -1.3341  0.6638 -1.8940
  712THF    H1310396   4.356   2.588   1.597  0.3364 -0.5190 -0.2797
  713THF     O110397   3.836   4.041   4.916 -0.4742  0.0670 -0.1480
  713THF     C210398   3.901   4.100   4.808 -0.4409 -0.3729 -0.5375
  713THF     C310399   3.702   4.082   4.909  0.0088  0.4803  0.2218
  713THF     H410400   3.991   4.039   4.798  0.0271 -0.9378  4.5234
  713THF     H510401   3.935   4.203   4.820  2.1011 -1.2297  0.1739
  713THF     H610402   3.637   4.026   4.975  0.4823 -1.4821 -0.8888
  713THF     H710403   3.693   4.186   4.940  1.6226  0.4392  0.9716
  713THF     C810404   3.675   4.053   4.758 -0.5807 -0.3012 -0.6648
  713THF     C910405   3.810   4.094   4.699  0.1083  0.0302 -0.4148
  713THF    H1010406   3.589   4.102   4.712 -1.2000  1.5441  2.1721
  713THF    H1110407   3.663   3.946   4.743  2.8536 -1.0470  0.9132
  713THF    H1210408   3.838   4.026   4.619 -0.5879  0.4128 -1.0009
  713THF    H1310409   3.801   4.194   4.656  2.1720  0.6817  0.5279
  714THF     O110410   1.487   2.450   1.381  0.4821 -0.3680 -0.0679
  714THF     C210411   1.599   2.433   1.462  0.1390 -0.0915  0.7502
  714THF     C310412   1.493   2.581   1.323  0.2284  0.6055 -0.8536
  714THF     H410413   1.676   2.404   1.391 -0.9060  3.1490 -1.9865
  714THF     H510414   1.572   2.351   1.528 -0.5427  0.2439  0.8912
  714THF     H610415   1.569   2.578   1.246  0.8887 -3.9220 -0.2786
  714THF     H710416   1.396   2.611   1.282 -0.2994  1.1646  0.6897
  714THF     C810417   1.538   2.664   1.451  0.0998 -0.1952  0.2286
  714THF     C910418   1.633   2.570   1.524 -0.9267 -0.3985 -0.3178
  714THF    H1010419   1.443   2.683   1.502  0.3193  0.2281  0.4834
  714THF    H1110420   1.583   2.754   1.411  0.6468 -0.9613 -0.9528
  714THF    H1210421   1.736   2.594   1.498  0.6030 -3.7790  2.0623
  714THF    H1310422   1.620   2.583   1.631 -0.3962 -0.1536 -0.2822
  715THF     O110423   4.096   0.299   1.717  0.0496 -0.5938  0.4264
  715THF     C210424   4.030   0.305   1.846  0.6024  0.2489 -0.0069
  715THF     C310425   4.046   0.410   1.645  0.4770 -0.9145 -0.1438
  715THF     H410426   4.066   0.384   1.912  0.3167  1.0694 -0.8097
  715THF     H510427   4.037   0.203   1.884 -1.1897  0.3387  0.6503
  715THF     H610428   4.105   0.494   1.683 -1.5275  0.3171  0.4242
  715THF     H710429   4.053   0.409   1.536 -0.9408  0.2566 -0.2923
  715THF     C810430   3.899   0.434   1.693 -0.1213  0.5477  0.2653
  715THF     C910431   3.884   0.340   1.805 -0.2100  0.1350  0.4905
  715THF    H1010432   3.824   0.405   1.619 -0.6469  3.3174 -0.4046
  715THF    H1110433   3.872   0.537   1.715  0.8581  0.5532  1.4941
  715THF    H1210434   3.827   0.394   1.881  1.1727 -0.0196  1.6994
  715THF    H1310435   3.838   0.244   1.784  0.1378 -0.3011  1.6343
  716THF     O110436   3.146   2.033   1.877 -0.3183  0.2691  0.6515
  716THF     C210437   3.283   2.057   1.903 -0.0073 -0.0422  0.0281
  716THF     C310438   3.075   2.156   1.896  0.7866 -0.6095  0.2906
  716THF     H410439   3.327   2.095   1.810 -0.1076 -0.2768 -0.1151
  716THF     H510440   3.343   1.973   1.938  0.6966  0.1622 -0.6564
  716THF     H610441   3.069   2.220   1.808  0.5586 -0.8610  0.1246
  716THF     H710442   2.972   2.128   1.918  0.5485 -1.4178 -1.6294
  716THF     C810443   3.150   2.237   1.995  0.7773 -0.2176 -0.0057
  716THF     C910444   3.284   2.175   2.003 -0.1829  0.2864  0.2336
  716THF    H1010445   3.110   2.242   2.097 -1.4824  2.2400 -0.9025
  716THF    H1110446   3.154   2.345   1.978  1.6312 -0.1427  0.6146
  716THF    H1210447   3.370   2.232   1.967  0.4343 -0.6249  0.2419
  716THF    H1310448   3.301   2.126   2.099  0.2190 -1.2094 -0.5601
  717THF     O110449   1.016   3.328   0.534  0.5403  0.1193 -0.0153
  717THF     C210450   0.909   3.417   0.544 -0.4365  0.0103 -0.6405
  717THF     C310451   1.045   3.284   0.661 -0.8855  0.1658  0.6156
  717THF     H410452   0.856   3.417   0.449 -0.7024 -1.4890 -0.5195
  717THF     H510453   0.956   3.515   0.555 -0.8609  0.2428 -0.8467
  717THF     H610454   1.086   3.184   0.670 -0.0401  0.3023 -1.2493
  717THF     H710455   1.124   3.345   0.704 -1.7543  2.1499 -0.4260
  717THF     C810456   0.920   3.292   0.748 -0.4475  0.1022  0.7411
  717THF     C910457   0.824   3.377   0.662 -0.6613 -0.4285  0.4419
  717THF    H1010458   0.950   3.343   0.839  1.5657 -0.5833  0.5067
  717THF    H1110459   0.875   3.198   0.782 -1.9766 -0.0582 -1.5428
  717THF    H1210460   0.746   3.314   0.618 -0.3437 -1.5094  1.3572
  717THF    H1310461   0.769   3.456   0.714 -2.8360 -0.2644 -1.8960
  718THF     O110462   3.075   0.132   1.116  0.2386 -0.0040 -0.2837
  718THF     C210463   3.183   0.046   1.141 -0.0676 -0.1505 -0.0762
  718THF     C310464   3.116   0.262   1.153 -0.1767  0.2589  0.1518
  718THF     H410465   3.256   0.061   1.061 -1.9592 -0.3847 -1.9378
  718THF     H510466   3.154  -0.059   1.147 -0.6904  0.0688  0.9491
  718THF     H610467   3.179   0.312   1.079 -1.4087  1.0062 -0.4216
  718THF     H710468   3.025   0.323   1.151 -1.0694 -1.0504 -1.3581
  718THF     C810469   3.178   0.241   1.284 -0.2177 -0.4577 -0.7458
  718THF     C910470   3.234   0.094   1.278  0.2544  0.4304 -0.2612
  718THF    H1010471   3.114   0.264   1.369  0.0099 -0.5034 -0.5611
  718THF    H1110472   3.268   0.302   1.291 -0.4192 -0.3523  2.5173
  718THF    H1210473   3.340   0.087   1.302 -0.0011 -1.2459  0.4530
  718THF    H1310474   3.188   0.039   1.360  1.9860 -0.9290 -0.1559
  719THF     O110475   2.409   0.509   3.023 -0.3356  0.0214  0.1820
  719THF     C210476   2.394   0.372   3.006  0.6414  0.0541 -0.1505
  719THF     C310477   2.541   0.538   3.058 -0.2074 -0.2646 -0.4191
  719THF     H410478   2.430   0.332   2.912 -2.1379 -0.3581 -1.1241
  719THF     H510479   2.291   0.337   3.014  0.7793 -0.6404 -1.1990
  719THF     H610480   2.592   0.534   2.962 -1.3683  1.1726 -1.1372
  719THF     H710481   2.545   0.639   3.098  2.4563 -0.9451  1.2702
  719THF     C810482   2.577   0.422   3.157 -0.4046 -0.3062  0.5750
  719THF     C910483   2.470   0.322   3.130 -0.5966 -0.3207 -0.0981
  719THF    H1010484   2.572   0.444   3.264  2.6594  0.7516  0.5891
  719THF    H1110485   2.673   0.378   3.132  0.2414  1.0660  0.5925
  719THF    H1210486   2.530   0.233   3.112 -0.7703 -0.2901 -0.8931
  719THF    H1310487   2.419   0.303   3.224  1.5107 -1.0548  0.9599
  720THF     O110488   1.113   2.058   0.019 -0.7553  0.0894 -0.0110
  720THF     C210489   1.216   1.959  -0.005 -0.3379 -0.1898  0.1108
  720THF     C310490   0.989   1.991   0.052  0.1157 -0.2370 -0.0339
  720THF     H410491   1.319   1.994   0.006 -0.5215  0.3758  0.1002
  720THF     H510492   1.201   1.912  -0.102  2.5219  0.3742 -0.7067
  720THF     H610493   0.926   2.065   0.100  0.7785 -0.5947  1.4387
  720THF     H710494   0.942   1.944  -0.035 -1.3888 -1.1554  1.2355
  720THF     C810495   1.036   1.878   0.138  0.0278  0.2174  0.5551
  720THF     C910496   1.179   1.845   0.097 -0.1516  0.9695 -0.3706
  720THF    H1010497   0.962   1.799   0.127 -0.9095  1.0128  0.9814
  720THF    H1110498   1.036   1.899   0.245  1.3527  0.1029  0.6011
  720THF    H1210499   1.241   1.852   0.186  0.0600 -1.4845 -0.2642
  720THF    H1310500   1.188   1.744   0.059 -1.7293  0.3992  0.6421
  721THF     O110501   4.939   1.141   1.048 -0.3244 -0.4910 -0.4069
  721THF     C210502   4.814   1.115   1.120 -0.3042  0.0599 -0.1092
  721THF     C310503   4.917   1.262   0.971 -0.8692 -0.3560  0.0326
  721THF     H410504   4.826   1.158   1.220  3.6538 -1.7015  0.3596
  721THF     H510505   4.794   1.008   1.128 -0.8392  0.1636 -0.0614
  721THF     H610506   4.908   1.349   1.036  2.4411 -1.8135  2.7761
  721THF     H710507   5.003   1.299   0.914 -1.0640  0.9325  0.5543
  721THF     C810508   4.785   1.222   0.906  0.8524 -0.0277  0.1607
  721THF     C910509   4.707   1.170   1.028 -1.1575  0.2241  0.2409
  721THF    H1010510   4.799   1.134   0.844  0.6710 -2.1114  2.9107
  721THF    H1110511   4.730   1.292   0.843  0.3904 -0.0894  0.4930
  721THF    H1210512   4.659   1.251   1.082  0.9704  1.3640  0.5141
  721THF    H1310513   4.630   1.099   0.999 -0.6297  0.1401 -1.0346
  722THF     O110514   1.166   2.755   1.496 -0.2772  0.1724 -0.1962
  722THF     C210515   1.118   2.643   1.430  1.2891 -0.0466 -0.0014
  722THF     C310516   1.053   2.835   1.524  0.3096  0.1140 -0.4222
  722THF     H410517   1.196   2.567   1.423  1.1962 -0.1609  0.1997
  722THF     H510518   1.083   2.672   1.331 -1.7362 -2.1738  0.3020
  722THF     H610519   1.074   2.890   1.616  2.8181 -1.2167 -0.1126
  722THF     H710520   1.035   2.911   1.448 -1.7252  0.6204  0.4939
  722THF     C810521   0.939   2.739   1.539 -0.0477  0.3266 -0.1910
  722THF     C910522   0.994   2.605   1.511 -0.7888  0.2033 -0.3546
  722THF    H1010523   0.864   2.760   1.463 -1.1509 -1.0759  0.4558
  722THF    H1110524   0.886   2.736   1.634  0.5403  0.7329  0.1523
  722THF    H1210525   1.014   2.557   1.606 -1.9338  1.6677  0.6701
  722THF    H1310526   0.932   2.533   1.458  0.5804 -1.4259  0.1813
  723THF     O110527   5.214   2.478   0.811 -0.0584  0.1888 -0.1014
  723THF     C210528   5.255   2.459   0.678 -0.1754 -0.0603 -0.6644
  723THF     C310529   5.192   2.617   0.841  0.1786  0.7779  0.3930
  723THF     H410530   5.178   2.410   0.619 -0.2639 -0.3499 -0.3152
  723THF     H510531   5.335   2.385   0.680  0.1971  0.3532  0.2769
  723THF     H610532   5.096   2.639   0.794  0.0033 -1.6079 -0.5015
  723THF     H710533   5.199   2.628   0.949  0.7857  1.3257  0.3026
  723THF     C810534   5.303   2.679   0.758 -0.1409 -0.1760 -0.4436
  723THF     C910535   5.301   2.597   0.637 -0.1425 -0.7076 -0.2063
  723THF    H1010536   5.395   2.699   0.813 -0.8596 -0.9384  1.0893
  723THF    H1110537   5.275   2.782   0.735  1.6722  0.4428 -0.0365
  723THF    H1210538   5.238   2.649   0.564 -1.1880 -2.8948 -0.9354
  723THF    H1310539   5.402   2.599   0.596 -0.3676  0.1489 -0.7457
  724THF     O110540   3.960   2.800   5.099 -0.3875 -0.2819  0.5331
  724THF     C210541   4.051   2.800   5.200  0.1435  0.3601 -0.3711
  724THF     C310542   3.833   2.758   5.145 -0.3876  1.1382 -0.1868
  724THF     H410543   4.116   2.887   5.203  0.4118  0.1363  1.0110
  724THF     H510544   4.109   2.710   5.179  1.9894  1.5329 -0.5307
  724THF     H610545   3.765   2.844   5.148 -0.2439  1.2155  1.0252
  724THF     H710546   3.775   2.683   5.091 -1.1153  1.5687 -0.0264
  724THF     C810547   3.852   2.699   5.289 -0.3198  0.0338 -0.6030
  724THF     C910548   3.971   2.788   5.330  0.4966  0.6326  1.1951
  724THF    H1010549   3.877   2.593   5.287  0.9728  0.2471  1.3444
  724THF    H1110550   3.770   2.719   5.358 -0.8351 -2.1529 -0.5022
  724THF    H1210551   3.945   2.890   5.358  2.7187  2.0443 -1.3931
  724THF    H1310552   4.044   2.746   5.399  1.2517  0.6742  0.4341
  725THF     O110553   2.876   1.138   5.457 -0.6025 -0.1040  0.1521
  725THF     C210554   2.930   1.272   5.431 -0.2681  0.2490 -0.6248
  725THF     C310555   2.918   1.106   5.588 -0.2452 -0.0398 -0.3496
  725THF     H410556   2.873   1.336   5.499 -2.4137  0.3729 -2.4053
  725THF     H510557   2.920   1.298   5.326 -0.9257 -0.2342 -0.6879
  725THF     H610558   2.860   1.168   5.655 -1.7093 -1.6079 -0.0978
  725THF     H710559   2.891   1.004   5.616 -0.2669 -0.1436 -0.7385
  725THF     C810560   3.066   1.158   5.585  0.2859  0.0273  1.0825
  725THF     C910561   3.076   1.265   5.476  0.9417 -0.1004  0.4561
  725THF    H1010562   3.139   1.082   5.559  1.5228  1.1453  1.2073
  725THF    H1110563   3.102   1.186   5.684 -0.1366  0.3265  1.1533
  725THF    H1210564   3.098   1.365   5.514 -1.0004  0.8413 -0.7333
  725THF    H1310565   3.145   1.251   5.393 -1.2610  1.5020 -1.8050
  726THF     O110566   5.336   2.751   5.031  0.0070 -0.2021 -0.0049
  726THF     C210567   5.316   2.625   5.106 -0.3201 -0.9402  0.5152
  726THF     C310568   5.215   2.785   4.958 -0.1163  0.1623  0.6195
  726THF     H410569   5.308   2.633   5.214 -0.9566 -2.1071  0.5620
  726THF     H510570   5.416   2.581   5.098  0.3005  0.5004 -0.1236
  726THF     H610571   5.179   2.882   4.993  0.4168  0.9617 -0.9543
  726THF     H710572   5.247   2.788   4.854  2.2950  0.8066  1.3002
  726THF     C810573   5.113   2.680   4.979 -0.3690  0.0689  0.0068
  726THF     C910574   5.199   2.557   5.033 -0.6282  0.1401 -0.5117
  726THF    H1010575   5.048   2.641   4.900 -1.4367 -1.6435  1.6419
  726THF    H1110576   5.049   2.697   5.065  1.6512 -0.4774  1.6834
  726THF    H1210577   5.139   2.477   5.076  1.3588 -2.3726 -2.0780
  726THF    H1310578   5.233   2.509   4.941  3.1336  0.1076  0.7103
  727THF     O110579   4.181   1.884   2.448  0.7286  0.4728 -0.2932
  727THF     C210580   4.260   1.790   2.522  0.1150 -0.3157 -0.2039
  727THF     C310581   4.252   2.006   2.450 -0.6813 -0.2447 -0.3687
  727THF     H410582   4.231   1.685   2.524  1.2579 -0.6672 -1.0076
  727THF     H510583   4.275   1.819   2.626  2.6690  2.0373 -1.0984
  727THF     H610584   4.214   2.087   2.387 -0.5229 -1.1439 -1.6619
  727THF     H710585   4.256   2.038   2.554  1.4701  0.4357 -0.6171
  727THF     C810586   4.386   1.955   2.399 -0.2493 -0.0378  0.3617
  727THF     C910587   4.402   1.813   2.460 -0.3516 -0.6233  0.5791
  727THF    H1010588   4.469   2.022   2.423  2.0024 -2.8873  1.2546
  727THF    H1110589   4.373   1.960   2.291  2.2342  2.3601  0.0653
  727THF    H1210590   4.441   1.748   2.382 -2.1163  0.9976 -1.7989
  727THF    H1310591   4.479   1.808   2.537  0.0147 -1.0775  0.1897
  728THF     O110592   1.348   0.132   2.683 -0.1270  0.4216 -0.2057
  728THF     C210593   1.390   0.106   2.545  0.2390  0.3463 -0.1520
  728THF     C310594   1.203   0.149   2.675 -1.1803 -0.4274  0.3081
  728THF     H410595   1.476   0.038   2.545  0.7445  0.9167 -1.8718
  728THF     H510596   1.417   0.201   2.498  1.2346  0.3216  0.3400
  728THF     H610597   1.157   0.146   2.774 -3.3706  4.5735 -0.2517
  728THF     H710598   1.178   0.244   2.628  0.5724  0.2438  0.6337
  728THF     C810599   1.162   0.036   2.584  0.1382  0.6923  0.0653
  728THF     C910600   1.263   0.054   2.467 -0.0716  0.7373 -0.0688
  728THF    H1010601   1.059   0.057   2.554 -0.7692 -0.5759  2.0708
  728THF    H1110602   1.176  -0.060   2.634 -0.4233 -0.0955 -1.2211
  728THF    H1210603   1.283  -0.037   2.410 -3.4885 -0.1636 -0.0382
  728THF    H1310604   1.228   0.126   2.393 -1.0973  0.1679 -0.1521
  729THF     O110605   4.725   0.738   0.763  0.3224  0.7373  0.2847
  729THF     C210606   4.834   0.676   0.713 -0.0644 -0.0877  0.3616
  729THF     C310607   4.751   0.771   0.898 -0.6047  0.0471  0.6857
  729THF     H410608   4.843   0.690   0.605  0.1192 -1.8045  0.1202
  729THF     H510609   4.824   0.569   0.730  2.9893 -0.7436 -1.1370
  729THF     H610610   4.666   0.829   0.936 -1.5102  0.0310 -1.2308
  729THF     H710611   4.750   0.682   0.962  0.9738 -1.5992 -1.4229
  729THF     C810612   4.893   0.830   0.886  0.0657  0.2247 -0.2681
  729THF     C910613   4.958   0.726   0.788  0.1462 -0.0426 -0.0820
  729THF    H1010614   4.942   0.834   0.983  0.4954  0.2314 -0.4798
  729THF    H1110615   4.901   0.931   0.846 -0.2784  0.0340 -0.8342
  729THF    H1210616   5.027   0.766   0.714 -1.0793  0.1203 -1.1628
  729THF    H1310617   5.003   0.653   0.856  2.0554 -2.2280 -3.4185
  730THF     O110618   5.272   4.691   0.790  0.2647 -0.2791  0.5238
  730THF     C210619   5.152   4.659   0.848  0.2653  0.2414 -0.5513
  730THF     C310620   5.363   4.731   0.893  0.0102  0.0528  0.2120
  730THF     H410621   5.096   4.594   0.781  0.2029  0.4107 -0.6644
  730THF     H510622   5.093   4.750   0.865 -0.6054 -0.5134  0.6476
  730THF     H610623   5.454   4.682   0.857 -0.2890 -0.6801  0.4232
  730THF     H710624   5.381   4.838   0.892 -3.4432  0.8962 -4.6184
  730THF     C810625   5.312   4.674   1.021  0.6918 -0.0661 -0.5587
  730THF     C910626   5.190   4.594   0.982  0.2385 -0.4812 -0.9278
  730THF    H1010627   5.281   4.760   1.079 -1.7723 -1.0954 -0.2443
  730THF    H1110628   5.394   4.614   1.060  1.7583  0.4621 -1.8814
  730THF    H1210629   5.214   4.489   0.967 -0.0596 -0.5760 -0.7439
  730THF    H1310630   5.117   4.608   1.061  0.2174 -1.6798 -0.7223
  731THF     O110631   2.285   3.697   2.451 -0.1902 -0.5495 -0.0867
  731THF     C210632   2.278   3.565   2.503 -0.3888  0.9951  0.2416
  731THF     C310633   2.387   3.766   2.533  0.9156 -0.5742  0.2904
  731THF     H410634   2.229   3.492   2.440 -0.2232  1.7548 -0.7876
  731THF     H510635   2.225   3.561   2.598 -0.4942  0.7848  0.1746
  731THF     H610636   2.435   3.852   2.487  0.5877 -0.3194  0.4245
  731THF     H710637   2.328   3.818   2.608  0.6017 -0.6974  0.1304
  731THF     C810638   2.475   3.657   2.595  0.6294 -0.3954  0.1816
  731THF     C910639   2.423   3.526   2.539  0.8856  0.0068  0.4696
  731THF    H1010640   2.453   3.653   2.702  0.2711 -0.6923  0.1023
  731THF    H1110641   2.583   3.661   2.580  0.6880 -2.1576 -0.0988
  731THF    H1210642   2.479   3.492   2.452 -0.5286 -2.1318  0.3233
  731THF    H1310643   2.431   3.454   2.621  0.3592  1.7040  2.0749
  732THF     O110644   0.079   5.080   1.623  0.5603 -0.1361  0.8423
  732THF     C210645   0.130   4.957   1.682  0.5813 -0.2861 -0.3013
  732THF     C310646   0.171   5.132   1.525 -0.4577  0.2614 -0.3734
  732THF     H410647   0.056   4.878   1.668  0.0823  0.5495 -3.0780
  732THF     H510648   0.153   4.975   1.787 -1.6820  1.1283  0.0240
  732THF     H610649   0.116   5.189   1.450 -0.5746 -1.4428 -1.6428
  732THF     H710650   0.250   5.194   1.567  0.7967 -1.9395  0.7497
  732THF     C810651   0.236   5.006   1.469  0.1728  0.3202 -0.8408
  732THF     C910652   0.256   4.934   1.606 -0.2992  0.1153 -0.6643
  732THF    H1010653   0.331   5.027   1.421  0.8748  0.2687  0.4757
  732THF    H1110654   0.164   4.939   1.423 -0.9217  0.0637  1.0999
  732THF    H1210655   0.273   4.826   1.604 -0.3696  0.0567  0.8538
  732THF    H1310656   0.339   4.988   1.651 -1.5665  2.2416 -0.7657
  733THF     O110657   1.400   2.740   1.053 -0.1392 -0.8161 -0.1546
  733THF     C210658   1.535   2.722   1.009  0.5091  0.5403 -0.3666
  733THF     C310659   1.304   2.722   0.954  0.4481 -0.3234  0.2138
  733THF     H410660   1.579   2.625   1.032 -3.7761 -1.7830 -0.9695
  733THF     H510661   1.594   2.805   1.049 -0.3871  1.8071 -1.5882
  733THF     H610662   1.276   2.617   0.947  0.2423 -0.2003 -1.0151
  733THF     H710663   1.218   2.776   0.993  0.0441 -1.1956  0.5423
  733THF     C810664   1.372   2.771   0.824 -0.6654 -0.8942  0.3861
  733THF     C910665   1.521   2.733   0.854 -1.2325  0.5020  0.0314
  733THF    H1010666   1.348   2.877   0.819  1.1306 -0.4959 -0.6257
  733THF    H1110667   1.332   2.727   0.733 -2.0733  1.1702 -0.0348
  733THF    H1210668   1.553   2.642   0.803  1.4795  2.3722 -1.8641
  733THF    H1310669   1.587   2.809   0.812  0.8890 -0.8823  0.6863
  734THF     O110670   1.273   4.502   4.886 -0.0884  0.1983 -0.0772
  734THF     C210671   1.405   4.547   4.881  0.7907  0.4776 -0.0701
  734THF     C310672   1.230   4.495   5.025 -0.1411  0.2704 -0.1891
  734THF     H410673   1.393   4.650   4.846  1.5370  0.7905  0.5725
  734THF     H510674   1.461   4.480   4.816  0.8480 -1.3345  1.7357
  734THF     H610675   1.123   4.515   5.032 -0.4071  1.2680 -4.1636
  734THF     H710676   1.247   4.395   5.063  1.4171  1.1005  1.4980
  734THF     C810677   1.327   4.583   5.101  0.2776  0.5408  0.2785
  734THF     C910678   1.457   4.558   5.020  0.0220 -0.6574  0.4364
  734THF    H1010679   1.342   4.561   5.207 -0.3213 -2.5548 -0.1793
  734THF    H1110680   1.290   4.686   5.103 -0.4186  0.3109 -0.4155
  734THF    H1210681   1.536   4.633   5.015  0.9589 -1.3901  2.8993
  734THF    H1310682   1.491   4.457   5.041 -2.6899 -1.2388  2.5430
  735THF     O110683   1.503   3.323   3.812  0.3401 -0.1276  0.2862
  735THF     C210684   1.512   3.407   3.923 -0.3067  0.2431  0.8480
  735THF     C310685   1.426   3.206   3.841  0.1267 -0.7916 -0.6240
  735THF     H410686   1.538   3.506   3.887  0.0879 -1.2111 -3.3833
  735THF     H510687   1.554   3.373   4.018 -2.4523 -1.8275  1.1569
  735THF     H610688   1.384   3.160   3.751 -0.7888  0.9341 -1.1141
  735THF     H710689   1.497   3.136   3.884  0.8955 -0.0821 -0.6960
  735THF     C810690   1.324   3.264   3.931  0.5630 -0.0039 -0.3118
  735THF     C910691   1.365   3.403   3.961 -0.0674  0.5354 -0.2162
  735THF    H1010692   1.306   3.202   4.019 -1.8152 -0.0385 -0.7636
  735THF    H1110693   1.230   3.260   3.877 -0.0193 -2.0675  0.7623
  735THF    H1210694   1.302   3.458   3.890 -2.3206 -1.2525  0.2909
  735THF    H1310695   1.343   3.437   4.062 -0.0300 -2.2594  0.7981
  736THF     O110696   5.231   4.887   1.588  0.0410 -0.1421 -0.2177
  736THF     C210697   5.100   4.880   1.530 -0.2280  0.2132 -0.4925
  736THF     C310698   5.258   4.765   1.648 -0.7147 -0.2376  0.3268
  736THF     H410699   5.089   4.953   1.449 -1.0220 -1.4048 -1.9082
  736THF     H510700   5.017   4.911   1.593 -2.1442 -0.6004 -2.4683
  736THF     H610701   5.364   4.745   1.668 -0.0053  1.3715 -1.5173
  736THF     H710702   5.207   4.756   1.744 -0.5536 -2.4873  0.2762
  736THF     C810703   5.189   4.660   1.557  0.3796 -1.0020 -0.1251
  736THF     C910704   5.080   4.733   1.482 -0.6835 -0.3464 -0.4547
  736THF    H1010705   5.154   4.572   1.610  0.9270 -0.7313  0.7051
  736THF    H1110706   5.272   4.630   1.492  2.0270 -1.1443  1.9344
  736THF    H1210707   5.109   4.735   1.377  0.3698  1.6909 -0.1703
  736THF    H1310708   4.980   4.694   1.499 -0.4722  0.6632  5.5234
  737THF     O110709   3.788   1.052   0.066  0.4248  0.6121  0.1555
  737THF     C210710   3.909   1.121   0.058 -0.0340  0.2321  0.4813
  737THF     C310711   3.765   1.006   0.201 -0.0672  0.1630  0.1510
  737THF     H410712   3.902   1.219   0.105  0.4088  0.2784  0.4497
  737THF     H510713   3.954   1.127  -0.042 -2.0461  0.2582 -0.4770
  737THF     H610714   3.727   1.089   0.261  0.2785  0.7909 -0.4815
  737THF     H710715   3.693   0.926   0.182 -0.0316 -0.0550  0.9143
  737THF     C810716   3.905   0.960   0.240 -0.0833  0.3554 -0.4276
  737THF     C910717   3.997   1.040   0.154  0.0989 -0.0052  0.0890
  737THF    H1010718   3.910   0.852   0.236 -0.9512  0.2556  0.7616
  737THF    H1110719   3.930   0.977   0.345  1.9522 -0.2628 -0.7694
  737THF    H1210720   4.050   1.106   0.222  0.7539 -1.0609  0.6202
  737THF    H1310721   4.072   0.979   0.104  1.1867 -1.1526  2.9180
  738THF     O110722   3.768   4.569   2.431 -0.1204  0.5476 -0.5261
  738THF     C210723   3.635   4.609   2.440 -0.2039 -0.1912  0.0561
  738THF     C310724   3.768   4.457   2.346 -0.6756 -0.1984 -0.1481
  738THF     H410725   3.612   4.658   2.345  0.1171  0.4972  0.3214
  738THF     H510726   3.629   4.676   2.525  5.1610  0.4268  0.3032
  738THF     H610727   3.768   4.493   2.243  0.6867  0.4763  0.0652
  738THF     H710728   3.865   4.412   2.367 -0.8074 -0.1587  0.5545
  738THF     C810729   3.651   4.374   2.387 -0.5766  0.5316 -0.3494
  738THF     C910730   3.565   4.475   2.468  0.0180  1.2020  0.1240
  738THF    H1010731   3.677   4.290   2.452  1.0622  1.1664 -0.1463
  738THF    H1110732   3.600   4.329   2.301  0.4232 -1.9981  0.2780
  738THF    H1210733   3.457   4.470   2.455 -0.2932 -2.7100  2.5231
  738THF    H1310734   3.591   4.440   2.568 -0.6143 -0.1354 -0.1449
  739THF     O110735   3.704   0.463   1.061  0.2807 -0.2333 -0.5277
  739THF     C210736   3.728   0.371   0.958  0.4712  0.8062  0.4514
  739THF     C310737   3.564   0.489   1.048 -0.6274  0.0945  0.0157
  739THF     H410738   3.706   0.270   0.993 -1.3352  1.1451  0.4059
  739THF     H510739   3.830   0.382   0.924  0.2480  0.8337 -0.2171
  739THF     H610740   3.501   0.404   1.078 -1.0638  0.8909  1.4789
  739THF     H710741   3.530   0.573   1.108 -1.1008  0.7896 -1.1964
  739THF     C810742   3.550   0.508   0.897 -1.1985  0.0740  0.2948
  739THF     C910743   3.628   0.396   0.838  0.0424 -0.0255 -0.5466
  739THF    H1010744   3.580   0.606   0.862 -0.8534  1.4342  3.9384
  739THF    H1110745   3.446   0.505   0.864 -1.2252  0.4297  0.3511
  739THF    H1210746   3.565   0.308   0.829 -1.6637  1.2448 -1.3666
  739THF    H1310747   3.685   0.406   0.746  1.3732 -0.4971  0.1881
  740THF     O110748   4.914   0.857   2.798  0.0409  0.0523 -0.2755
  740THF     C210749   5.036   0.898   2.858  0.5715  0.2713 -0.3490
  740THF     C310750   4.915   0.908   2.664 -0.2651 -0.0255 -0.1126
  740THF     H410751   5.110   0.829   2.816  1.5972  1.0605  0.1142
  740THF     H510752   5.020   0.880   2.964  1.7171  0.0884 -0.1892
  740THF     H610753   4.989   0.856   2.602  0.9257  0.8110  0.5669
  740THF     H710754   4.815   0.898   2.623  0.2964 -1.4260 -1.2570
  740THF     C810755   4.962   1.051   2.673  0.0051  0.6421 -0.6660
  740THF     C910756   5.055   1.036   2.802  0.0850 -0.2957  0.8069
  740THF    H1010757   4.888   1.125   2.702  0.9207  1.0137  0.8464
  740THF    H1110758   5.015   1.085   2.584 -0.8179  0.4159 -1.2525
  740THF    H1210759   5.162   1.038   2.786 -0.0327 -3.5892 -1.5107
  740THF    H1310760   5.029   1.112   2.875  1.6940  0.2155  0.8676
  741THF     O110761   2.806   0.415   0.724 -0.1795 -0.8311  0.1196
  741THF     C210762   2.740   0.305   0.782 -0.3107 -0.3753 -0.3000
  741THF     C310763   2.739   0.531   0.767  0.3812  0.4879 -0.4763
  741THF     H410764   2.779   0.293   0.883  4.0993 -0.8944 -1.8345
  741THF     H510765   2.764   0.213   0.728 -1.0067 -1.0385  0.4832
  741THF     H610766   2.763   0.538   0.873 -1.5326  1.2390 -0.0482
  741THF     H710767   2.763   0.624   0.716  1.2941 -0.0652 -1.0811
  741THF     C810768   2.598   0.493   0.723  0.5229 -0.4171 -0.3020
  741THF     C910769   2.593   0.353   0.782 -0.0361  0.0973 -0.1315
  741THF    H1010770   2.594   0.485   0.615  0.6486 -1.9494 -0.2228
  741THF    H1110771   2.512   0.555   0.746 -0.5261 -1.1812 -2.0413
  741THF    H1210772   2.559   0.352   0.885  0.2609 -1.6738 -0.0185
  741THF    H1310773   2.532   0.281   0.727  1.0244 -0.1003 -1.1040
  742THF     O110774   3.716   0.906   2.110 -0.5831  0.3970 -0.8018
  742THF     C210775   3.820   0.808   2.083  0.6777 -0.5170 -0.0602
  742THF     C310776   3.688   0.981   1.991  0.0082 -0.9485 -0.1127
  742THF     H410777   3.831   0.741   2.168 -1.0886  1.1070  1.5694
  742THF     H510778   3.913   0.857   2.054 -1.2528  2.4704 -1.7941
  742THF     H610779   3.590   1.030   1.986 -0.0152 -0.9181  0.5922
  742THF     H710780   3.759   1.058   1.962 -1.5759 -0.0504 -1.8099
  742THF     C810781   3.699   0.859   1.892 -0.1145  0.2552 -0.2372
  742THF     C910782   3.756   0.742   1.969 -0.1209  0.4190  0.5224
  742THF    H1010783   3.766   0.868   1.807  0.6461 -1.0904  0.1912
  742THF    H1110784   3.601   0.832   1.852 -1.0089  0.3992  1.7588
  742THF    H1210785   3.674   0.680   2.006 -1.7430  1.1539 -1.5747
  742THF    H1310786   3.808   0.664   1.913 -1.9557 -2.2670  2.2897
  743THF     O110787   3.173   3.352   1.646 -0.2386 -0.1868  0.2293
  743THF     C210788   3.236   3.313   1.766  0.5567 -0.1904 -0.6245
  743THF     C310789   3.235   3.280   1.537 -0.2477 -0.2875  0.3459
  743THF     H410790   3.193   3.219   1.798  0.4013 -0.3740 -1.3554
  743THF     H510791   3.222   3.387   1.845 -2.7670  0.7377 -1.9392
  743THF     H610792   3.205   3.176   1.547 -0.3067 -0.2489  0.5652
  743THF     H710793   3.210   3.328   1.442  2.4158 -0.5520 -0.5631
  743THF     C810794   3.379   3.311   1.581  0.0685  0.3468 -0.0469
  743THF     C910795   3.377   3.294   1.734  0.3751 -0.5300  0.4688
  743THF    H1010796   3.405   3.416   1.569  0.3208  0.3516  0.4754
  743THF    H1110797   3.462   3.260   1.532 -1.2176 -0.5530 -1.3494
  743THF    H1210798   3.415   3.201   1.776  0.1426 -1.1324 -0.6171
  743THF    H1310799   3.440   3.372   1.776  1.5855 -0.7157 -0.9143
  744THF     O110800   0.737   4.084   0.538 -0.6925 -0.1186 -0.0536
  744THF     C210801   0.805   4.194   0.603 -0.0450 -0.1681 -0.0328
  744THF     C310802   0.688   4.140   0.419 -0.1687 -0.4556  0.3691
  744THF     H410803   0.878   4.172   0.681  0.9756  3.6764  0.3119
  744THF     H510804   0.734   4.254   0.660  1.6339  0.8499  1.0836
  744THF     H610805   0.646   4.077   0.341  0.2330  0.1762 -0.3740
  744THF     H710806   0.598   4.194   0.448 -1.2536 -1.9661 -0.0169
  744THF     C810807   0.787   4.238   0.370 -0.4787 -0.2316  0.7383
  744THF     C910808   0.862   4.273   0.489 -0.5693  0.0909  0.7038
  744THF    H1010809   0.735   4.324   0.328  0.1834 -0.3585 -0.3776
  744THF    H1110810   0.842   4.194   0.287 -1.3421 -0.7617  0.4231
  744THF    H1210811   0.958   4.223   0.475 -0.4210  0.6198 -0.2614
  744THF    H1310812   0.884   4.379   0.505 -1.6839  0.3916  0.2845
  745THF     O110813   2.924   2.197   5.400  0.1558 -0.3692  0.4729
  745THF     C210814   2.803   2.120   5.414 -0.1544  0.4503  0.4815
  745THF     C310815   2.977   2.185   5.271  0.9225  0.0551 -0.3325
  745THF     H410816   2.719   2.182   5.384  0.2770  0.6047 -0.4412
  745THF     H510817   2.787   2.093   5.518 -4.0624 -1.0438 -0.3299
  745THF     H610818   2.922   2.248   5.201  3.6699  2.3089 -0.6416
  745THF     H710819   3.083   2.207   5.268  1.0830 -0.6564  0.0061
  745THF     C810820   2.947   2.033   5.241 -0.6571  0.2549 -0.1741
  745THF     C910821   2.825   1.996   5.326 -0.5537  0.0647 -0.1311
  745THF    H1010822   3.035   1.976   5.274  0.2430  2.1884  0.9594
  745THF    H1110823   2.926   2.016   5.136 -0.3844 -1.8147  0.0562
  745THF    H1210824   2.738   1.961   5.271  0.4093 -1.8750 -0.4902
  745THF    H1310825   2.869   1.917   5.387  0.1515  0.6654  0.1630
  746THF     O110826   0.213   3.614   1.774  0.3974 -0.5932 -0.1450
  746THF     C210827   0.167   3.657   1.905 -0.3162  0.3754  0.2701
  746THF     C310828   0.342   3.678   1.765 -0.5111  0.1083 -0.2759
  746THF     H410829   0.239   3.608   1.970 -0.5954  0.2452  0.4855
  746THF     H510830   0.061   3.638   1.921 -0.4954  0.8493 -0.3326
  746THF     H610831   0.421   3.633   1.825  0.8823 -1.2662 -2.9593
  746THF     H710832   0.376   3.682   1.662 -3.3477 -0.9793 -1.3404
  746THF     C810833   0.320   3.818   1.810  0.3945 -0.3732 -0.2074
  746THF     C910834   0.203   3.803   1.904 -0.0519  0.6247  0.6802
  746THF    H1010835   0.299   3.887   1.728  0.0236  0.2931  0.4362
  746THF    H1110836   0.410   3.852   1.861  0.1852 -0.7366  0.4150
  746THF    H1210837   0.238   3.834   2.003  2.0253 -0.1648  0.2259
  746THF    H1310838   0.123   3.867   1.867  0.7521 -0.2128 -2.8501
  747THF     O110839   4.754   1.445   1.393  0.4293  1.0547 -0.0496
  747THF     C210840   4.878   1.448   1.458 -0.3914 -0.5933 -0.2755
  747THF     C310841   4.647   1.448   1.493 -0.1642  0.3525 -0.1415
  747THF     H410842   4.952   1.473   1.381 -0.7248 -0.7065 -0.6368
  747THF     H510843   4.898   1.356   1.513  0.4317 -1.2419 -1.6044
  747THF     H610844   4.568   1.504   1.441 -0.3082 -0.2947 -0.6318
  747THF     H710845   4.608   1.351   1.521 -0.8383  0.5985 -0.2081
  747THF     C810846   4.720   1.517   1.613  0.0340 -0.3441  0.3302
  747THF     C910847   4.854   1.555   1.564 -0.2660  0.2324  0.6610
  747THF    H1010848   4.727   1.457   1.703  0.7701  1.2156  1.3645
  747THF    H1110849   4.667   1.609   1.641 -0.8792  0.1462 -2.6687
  747THF    H1210850   4.845   1.652   1.515  1.1068  1.2066  2.2303
  747THF    H1310851   4.929   1.561   1.643  0.4167  0.3472  0.0066
  748THF     O110852   0.735   3.072   5.028 -0.2816 -0.6161 -0.8591
  748THF     C210853   0.807   3.161   5.116  0.7184 -0.0459  0.2342
  748THF     C310854   0.766   3.105   4.900 -0.1566 -0.4250 -0.2735
  748THF     H410855   0.912   3.135   5.131  0.8573  1.7779  3.3026
  748THF     H510856   0.762   3.166   5.216  1.3058  2.7868  0.4282
  748THF     H610857   0.855   3.043   4.887  0.0539 -0.1943  0.0443
  748THF     H710858   0.683   3.086   4.833 -1.6714  1.8102  0.8257
  748THF     C810859   0.804   3.258   4.905  0.6798  0.0172  0.6743
  748THF     C910860   0.800   3.298   5.048 -0.3942  0.0196 -0.2120
  748THF    H1010861   0.742   3.326   4.846  3.2434  2.0936  0.2111
  748THF    H1110862   0.904   3.262   4.863  1.2472 -3.1118  1.4772
  748THF    H1210863   0.875   3.364   5.092 -1.4593  1.2900 -0.2405
  748THF    H1310864   0.704   3.345   5.067 -0.7450 -0.4973 -0.6638
  749THF     O110865   2.977   3.305   2.070 -0.1192  1.0148  0.0906
  749THF     C210866   2.885   3.292   2.177  0.0175 -0.1952  0.2374
  749THF     C310867   2.934   3.408   1.980  0.0452  0.3236 -0.5926
  749THF     H410868   2.905   3.368   2.253  2.1554  1.0458 -1.4310
  749THF     H510869   2.883   3.195   2.226 -1.9904 -0.2274  0.1593
  749THF     H610870   2.992   3.497   2.007  1.3328 -0.6408 -0.0965
  749THF     H710871   2.948   3.392   1.873 -0.2095  1.4484 -0.8167
  749THF     C810872   2.786   3.428   2.012  0.1441 -0.2184  0.0830
  749THF     C910873   2.756   3.319   2.105 -0.4624  0.3225 -0.3816
  749THF    H1010874   2.732   3.419   1.918 -0.0906  0.0793  0.1889
  749THF    H1110875   2.754   3.523   2.054 -1.7989  0.0519 -1.8326
  749THF    H1210876   2.700   3.351   2.193  0.8909  1.6418  0.0603
  749THF    H1310877   2.724   3.230   2.052  2.3101 -0.5532 -0.7813
  750THF     O110878   2.909   4.721   2.104 -0.7439  0.6906 -0.2522
  750THF     C210879   2.934   4.618   2.008  0.7363 -0.0539  0.4681
  750THF     C310880   2.824   4.818   2.040 -0.3117  0.2090  0.0857
  750THF     H410881   2.979   4.533   2.059  0.8688 -0.9891 -1.1357
  750THF     H510882   3.013   4.645   1.939  0.4074 -0.6527 -0.1530
  750THF     H610883   2.764   4.858   2.122  1.3935  0.8373  1.0752
  750THF     H710884   2.883   4.890   1.982  0.1585 -2.1939 -2.6722
  750THF     C810885   2.734   4.738   1.939 -0.3368  0.8166 -0.5497
  750THF     C910886   2.791   4.596   1.944  0.0055 -0.3720  0.0006
  750THF    H1010887   2.727   4.790   1.843  1.5947  3.4415  0.5966
  750THF    H1110888   2.635   4.737   1.984  0.0420 -1.0367  0.3310
  750THF    H1210889   2.733   4.529   2.007 -0.0103 -0.0628  0.3173
  750THF    H1310890   2.791   4.556   1.842 -0.0463  1.7238 -0.8668
  751THF     O110891   3.587   1.403   5.162  0.1888  0.6005  0.8064
  751THF     C210892   3.501   1.286   5.177 -0.3640 -0.4364  0.3538
  751THF     C310893   3.703   1.364   5.089  0.0778 -0.7549 -0.1571
  751THF     H410894   3.394   1.307   5.176 -0.3256 -0.2532  0.0524
  751THF     H510895   3.545   1.250   5.270 -0.4917  0.4497  0.7626
  751THF     H610896   3.739   1.452   5.037  0.3892 -0.9991 -0.3535
  751THF     H710897   3.778   1.324   5.157 -1.2192 -1.8875  0.6678
  751THF     C810898   3.649   1.271   4.989  0.2708  0.0253  0.5646
  751THF     C910899   3.537   1.192   5.065  0.8913 -0.7429  0.5181
  751THF    H1010900   3.735   1.211   4.961 -1.0649 -0.4650 -3.0606
  751THF    H1110901   3.610   1.317   4.898 -1.5245 -2.5810 -0.0945
  751THF    H1210902   3.448   1.175   5.005 -0.5951  2.3066  1.6126
  751THF    H1310903   3.587   1.100   5.094  2.1719 -0.9801 -2.1023
  752THF     O110904   4.766   2.366   3.840 -0.1540 -0.1846 -0.1638
  752THF     C210905   4.660   2.414   3.759 -0.0119 -0.4834  0.0535
  752THF     C310906   4.702   2.307   3.948  0.7883  0.0531  0.4718
  752THF     H410907   4.693   2.454   3.663  1.2136 -2.3708 -0.3695
  752THF     H510908   4.640   2.503   3.819  3.1202 -1.0241  2.1580
  752THF     H610909   4.753   2.250   4.025 -0.9173  0.2868  1.8567
  752THF     H710910   4.655   2.387   4.007 -0.8724  1.3617 -2.3834
  752THF     C810911   4.593   2.223   3.886 -0.4217  0.2442 -0.0148
  752THF     C910912   4.554   2.300   3.760  0.1079  0.2770 -0.4976
  752THF    H1010913   4.513   2.198   3.956  0.0689 -0.2814  0.3612
  752THF    H1110914   4.615   2.127   3.840 -1.8938  0.6560 -1.7252
  752THF    H1210915   4.566   2.227   3.680  0.3073 -0.8842  0.5613
  752THF    H1310916   4.453   2.340   3.769  0.1029  0.1211  0.1651
  753THF     O110917   3.111   0.362   2.319  0.1007 -0.1223 -0.4326
  753THF     C210918   3.012   0.312   2.416  0.2108 -0.0394  0.0591
  753THF     C310919   3.214   0.266   2.319 -0.0581 -0.5810 -0.0653
  753THF     H410920   2.947   0.247   2.358  0.5246  0.8204 -1.3201
  753THF     H510921   2.956   0.395   2.458 -1.5880 -2.4945  2.8870
  753THF     H610922   3.210   0.208   2.226 -0.8930 -0.4811 -0.1004
  753THF     H710923   3.309   0.317   2.310 -0.6847  0.6524  0.1566
  753THF     C810924   3.202   0.170   2.441 -0.0103 -0.0641 -0.4014
  753THF     C910925   3.098   0.240   2.524  0.2639  0.3920  0.2211
  753THF    H1010926   3.290   0.157   2.504  0.6001  4.9127  0.1290
  753THF    H1110927   3.168   0.070   2.414 -0.9728 -0.4223  1.8860
  753THF    H1210928   3.043   0.178   2.595  1.1006  0.1721  0.6892
  753THF    H1310929   3.148   0.304   2.596  0.8733 -0.4949  0.6054
  754THF     O110930   5.348   3.245   5.053  1.2002 -0.1877 -0.4161
  754THF     C210931   5.392   3.111   5.013 -0.1847 -0.2396  0.0681
  754THF     C310932   5.321   3.328   4.935 -0.4060  0.3840  0.0438
  754THF     H410933   5.330   3.037   5.064 -1.8020  1.7771  1.1919
  754THF     H510934   5.495   3.084   5.038 -0.3650 -2.3944 -1.2149
  754THF     H610935   5.246   3.406   4.945 -0.0421  0.8102 -0.4906
  754THF     H710936   5.414   3.373   4.900 -0.6120  0.1053 -0.8896
  754THF     C810937   5.274   3.225   4.836 -0.9106 -0.3249 -0.2067
  754THF     C910938   5.362   3.108   4.856 -0.4327 -0.0032  0.1814
  754THF    H1010939   5.266   3.254   4.731 -1.4585 -2.0124 -0.6618
  754THF    H1110940   5.168   3.218   4.860 -0.4593  0.7011  2.4666
  754THF    H1210941   5.311   3.018   4.823 -2.5433  0.2833  2.4181
  754THF    H1310942   5.460   3.116   4.808 -0.9382 -2.1070 -1.3410
  755THF     O110943   2.740   5.320   5.291  0.0082 -0.3283 -0.1674
  755THF     C210944   2.795   5.259   5.410  0.3920 -0.3305  0.2976
  755THF     C310945   2.731   5.463   5.320  0.6133 -0.7009  0.1781
  755THF     H410946   2.889   5.207   5.392  0.7584 -0.6320  2.7482
  755THF     H510947   2.721   5.196   5.458  0.3572 -0.4970  0.0305
  755THF     H610948   2.828   5.507   5.301 -0.1721  0.5582 -1.0926
  755THF     H710949   2.648   5.518   5.276  0.4449 -0.5801  0.6383
  755THF     C810950   2.735   5.481   5.468  0.3879  0.1262  0.1141
  755THF     C910951   2.830   5.373   5.512 -0.1606  0.1858 -0.4099
  755THF    H1010952   2.631   5.488   5.502 -0.2326  0.1589 -1.6942
  755THF    H1110953   2.760   5.584   5.493  3.2401 -0.8280  1.6084
  755THF    H1210954   2.931   5.413   5.504 -0.5443  1.2280 -0.1832
  755THF    H1310955   2.809   5.340   5.613  0.4973 -0.9058 -0.6053
  756THF     O110956   2.927   1.134   3.496 -0.1950  0.2604 -0.0792
  756THF     C210957   2.883   1.211   3.382 -0.5716 -0.2900 -0.1751
  756THF     C310958   2.899   1.217   3.606 -0.2039 -0.2687 -0.2806
  756THF     H410959   2.866   1.156   3.289  1.6208  0.1268 -0.8886
  756THF     H510960   2.947   1.296   3.357 -0.0139 -0.7492 -0.3302
  756THF     H610961   2.887   1.165   3.701  1.3251  0.1994  0.1937
  756THF     H710962   2.982   1.287   3.614  1.4329 -2.1755  0.1959
  756THF     C810963   2.768   1.289   3.570  0.8144 -0.2644 -0.1741
  756THF     C910964   2.746   1.265   3.421 -0.3702 -0.4881  0.2593
  756THF    H1010965   2.786   1.396   3.581  1.1482 -0.2554 -0.7753
  756THF    H1110966   2.678   1.251   3.617  0.0735 -0.3611 -1.6210
  756THF    H1210967   2.678   1.181   3.406 -0.7433 -0.2305  0.5191
  756THF    H1310968   2.717   1.353   3.364 -1.2085 -0.9165  0.0043
  757THF     O110969   2.811   1.673   3.225  0.1295  0.6029 -0.3037
  757THF     C210970   2.887   1.681   3.113 -0.0693 -0.2753  0.2041
  757THF     C310971   2.811   1.795   3.295  0.4937 -0.0273  0.6197
  757THF     H410972   2.858   1.601   3.045  1.9886  0.5491 -1.7691
  757THF     H510973   2.985   1.639   3.138  0.0238  0.4083  1.0272
  757THF     H610974   2.707   1.816   3.320  0.3289 -0.1921  0.0885
  757THF     H710975   2.870   1.787   3.386  0.0371  1.1152  1.0350
  757THF     C810976   2.856   1.905   3.196 -0.7433  0.2332 -0.0639
  757THF     C910977   2.869   1.821   3.066  0.0708 -0.2402 -0.0088
  757THF    H1010978   2.959   1.930   3.220 -0.0067 -0.4656 -2.3079
  757THF    H1110979   2.793   1.992   3.174 -0.6942  0.2444 -0.1610
  757THF    H1210980   2.778   1.828   3.007 -0.5539  0.9025  1.0431
  757THF    H1310981   2.949   1.835   2.994  1.0963  0.2218  1.1637
  758THF     O110982   1.677   5.080   5.172 -0.0153 -0.0067 -0.2736
  758THF     C210983   1.593   4.978   5.226 -0.5965  0.3024 -0.5068
  758THF     C310984   1.731   5.030   5.053  0.1732  0.6515 -0.2104
  758THF     H410985   1.502   4.984   5.165 -0.0440 -0.8197 -1.4633
  758THF     H510986   1.575   5.006   5.330  1.8421  0.7795 -0.1597
  758THF     H610987   1.662   5.042   4.969 -0.0575 -2.3763 -0.5467
  758THF     H710988   1.818   5.085   5.018 -0.7002  1.2785 -1.5031
  758THF     C810989   1.747   4.876   5.080  0.0158 -0.0674  0.6509
  758THF     C910990   1.659   4.845   5.203 -0.2653  0.8008  0.0708
  758THF    H1010991   1.848   4.855   5.114  0.8325  0.8794 -1.0229
  758THF    H1110992   1.719   4.814   4.994  1.3119  0.4155 -0.1449
  758THF    H1210993   1.585   4.766   5.188 -1.4403  2.2140 -2.1846
  758THF    H1310994   1.732   4.823   5.281  0.6404 -0.4000 -1.0786
  759THF     O110995   2.041   1.506   0.056  0.4495  0.1191 -0.7506
  759THF     C210996   1.921   1.462   0.121  0.3293 -0.2983 -0.1640
  759THF     C310997   2.055   1.446  -0.075  0.2654 -0.1064 -0.3839
  759THF     H410998   1.833   1.509   0.077  1.6508  1.6993 -0.8222
  759THF     H510999   1.919   1.469   0.229 -0.5526  0.7026 -0.2334
  759THF     H611000   1.984   1.493  -0.144 -0.1000 -0.3789 -0.1976
  759THF     H711001   2.152   1.465  -0.120 -0.0301 -0.9519 -1.4222
  759THF     C811002   2.024   1.303  -0.044  0.5622 -0.0581  0.0145
  759THF     C911003   1.917   1.320   0.070 -0.3188 -0.0764 -0.0767
  759THF    H1011004   2.117   1.255  -0.013 -0.2361 -2.1546 -0.6835
  759THF    H1111005   1.989   1.237  -0.123 -0.0395 -1.9667  1.7891
  759THF    H1211006   1.816   1.304   0.030 -0.0897 -1.3370 -0.1834
  759THF    H1311007   1.943   1.259   0.157  0.9598  0.7261  0.1333
  760THF     O111008   3.222   3.701   5.015  0.1221 -0.3126 -0.5456
  760THF     C211009   3.331   3.769   4.966 -0.5380 -0.3021 -0.1342
  760THF     C311010   3.184   3.764   5.141 -0.1577  0.3871  0.2286
  760THF     H411011   3.304   3.868   4.930 -1.0993 -0.2223  0.5068
  760THF     H511012   3.391   3.716   4.891 -0.9618  0.5964 -1.1303
  760THF     H611013   3.126   3.852   5.113  0.9376  1.0246 -0.0859
  760THF     H711014   3.125   3.697   5.204 -2.2529 -0.2890 -2.2861
  760THF     C811015   3.314   3.805   5.207  0.6887  0.3314  0.5682
  760THF     C911016   3.408   3.786   5.091  0.5008 -0.6702  0.7013
  760THF    H1011017   3.349   3.750   5.295  2.8603  0.9067  0.1254
  760THF    H1111018   3.315   3.911   5.230  1.7688  0.5155 -0.2681
  760THF    H1211019   3.471   3.875   5.098  1.7530 -1.6090  1.6913
  760THF    H1311020   3.466   3.695   5.108  0.4287 -0.9622 -0.4835
  761THF     O111021   3.508   4.242   0.355  0.9003  0.2091  0.1164
  761THF     C211022   3.489   4.102   0.369 -0.0273 -1.0523 -1.0993
  761THF     C311023   3.466   4.286   0.487 -0.7281  0.0942 -0.6624
  761THF     H411024   3.532   4.045   0.287  0.3737 -0.6995 -1.1392
  761THF     H511025   3.385   4.071   0.381 -1.4215  2.4238 -2.8522
  761THF     H611026   3.505   4.386   0.505  1.5057 -0.7154 -0.7313
  761THF     H711027   3.357   4.293   0.482 -0.7520 -0.4590 -0.9288
  761THF     C811028   3.526   4.186   0.583  0.7231  0.4460 -0.4248
  761THF     C911029   3.562   4.071   0.497  0.3092 -0.0394 -0.0413
  761THF    H1011030   3.455   4.149   0.657  0.4216 -1.9281 -1.8070
  761THF    H1111031   3.611   4.227   0.637  1.2128 -1.1151  0.0198
  761THF    H1211032   3.665   4.073   0.461 -0.0997  2.1801 -1.3004
  761THF    H1311033   3.530   3.975   0.537  0.2577 -0.0098 -0.0114
  762THF     O111034   4.390   3.932   4.689 -0.5401 -0.4667 -0.4012
  762THF     C211035   4.378   3.870   4.818  0.2755 -0.5197  0.0863
  762THF     C311036   4.528   3.967   4.673  0.2136 -0.4220  0.1417
  762THF     H411037   4.281   3.821   4.817 -0.2065  0.3783  0.8505
  762THF     H511038   4.383   3.942   4.900  1.4254  1.1475 -1.3738
  762THF     H611039   4.555   3.939   4.571  4.1847 -0.4351  1.0403
  762THF     H711040   4.545   4.074   4.683 -1.1582 -0.2818  1.2127
  762THF     C811041   4.603   3.889   4.789 -0.1441 -0.3463 -0.1794
  762THF     C911042   4.502   3.789   4.839  0.8157  0.8057 -0.6740
  762THF    H1011043   4.628   3.953   4.874  1.7262  0.0479 -0.9599
  762THF    H1111044   4.690   3.836   4.750 -0.6492 -0.0775 -1.7379
  762THF    H1211045   4.505   3.698   4.779  0.0635 -0.4483  1.0865
  762THF    H1311046   4.502   3.749   4.941 -0.6412 -3.3382 -2.1027
  763THF     O111047   4.474   4.165   3.104  0.0341  0.7390  0.8408
  763THF     C211048   4.583   4.232   3.169  0.5847  0.3865 -0.6351
  763THF     C311049   4.416   4.256   3.014 -0.1015  0.6670  0.4410
  763THF     H411050   4.678   4.220   3.117  0.2455 -1.4849 -0.9061
  763THF     H511051   4.605   4.186   3.266 -2.5073  0.6094  0.2808
  763THF     H611052   4.466   4.259   2.917 -1.4962  0.8501 -0.2907
  763THF     H711053   4.314   4.237   2.982 -0.4042  2.5063  0.1588
  763THF     C811054   4.416   4.398   3.076 -0.5863 -0.3745 -0.5576
  763THF     C911055   4.531   4.373   3.174  0.0409 -0.2530  0.3331
  763THF    H1011056   4.323   4.422   3.127  0.6628  0.0126  1.6647
  763THF    H1111057   4.436   4.468   2.995 -0.8904  1.2416  0.7000
  763THF    H1211058   4.610   4.447   3.169 -1.1342  1.0290  0.0569
  763THF    H1311059   4.492   4.380   3.276  0.8047  1.3932  0.5389
  764THF     O111060   3.109   0.100   0.656 -0.0053  0.0699 -0.1249
  764THF     C211061   3.184   0.165   0.554  0.3332  0.6685  0.4968
  764THF     C311062   3.115   0.193   0.761 -0.2571  0.7333 -0.0663
  764THF     H411063   3.114   0.225   0.495 -1.9024 -0.4194  1.8679
  764THF     H511064   3.215   0.089   0.483 -2.2879  0.4217 -0.5149
  764THF     H611065   3.044   0.271   0.732 -0.4443  0.3412 -0.6673
  764THF     H711066   3.092   0.133   0.849 -1.0726  0.7700 -0.2501
  764THF     C811067   3.254   0.253   0.767 -0.4432  0.3496 -0.5468
  764THF     C911068   3.293   0.238   0.618 -0.5504 -0.0100  0.4303
  764THF    H1011069   3.325   0.200   0.831  0.6342  0.8322 -1.3004
  764THF    H1111070   3.255   0.355   0.804 -0.8306  0.7749 -1.6877
  764THF    H1211071   3.299   0.335   0.569  0.9115  0.0636  0.6941
  764THF    H1311072   3.391   0.190   0.610 -0.4079  0.2897  0.3826
  765THF     O111073   1.137   0.989   3.299 -0.5478 -0.0616  0.5798
  765THF     C211074   0.998   0.998   3.278  0.5034  0.0228 -0.2786
  765THF     C311075   1.176   1.013   3.435 -0.3218  0.0965  0.3158
  765THF     H411076   0.950   0.912   3.231 -1.4014  0.5673  0.5776
  765THF     H511077   0.985   1.080   3.207  2.7968  0.3393 -0.3862
  765THF     H611078   1.204   0.927   3.495 -0.7466 -1.1705 -1.2377
  765THF     H711079   1.266   1.075   3.426 -0.4460  0.5550  1.9177
  765THF     C811080   1.057   1.081   3.499 -0.9431  0.2426 -0.4102
  765THF     C911081   0.933   1.039   3.409 -0.1160  0.1404  0.0977
  765THF    H1011082   1.074   1.187   3.478 -1.5624  0.1727 -1.3017
  765THF    H1111083   1.035   1.069   3.605 -2.8587  1.1995 -0.6577
  765THF    H1211084   0.891   0.948   3.450  0.9747  0.5147  2.1561
  765THF    H1311085   0.861   1.121   3.405  0.7640  0.9022 -0.5506
  766THF     O111086   1.159   2.238   4.979  0.3702 -0.0319  0.8729
  766THF     C211087   1.266   2.318   5.031  0.5489 -0.4281 -0.5063
  766THF     C311088   1.064   2.206   5.082  0.4741 -0.6521  0.3899
  766THF     H411089   1.305   2.387   4.957 -0.2150  0.0666 -0.4662
  766THF     H511090   1.351   2.262   5.070  1.2442 -0.4041 -1.9169
  766THF     H611091   0.961   2.181   5.052  0.2629 -0.3454  0.8658
  766THF     H711092   1.105   2.117   5.129  1.0061 -0.2682  0.6624
  766THF     C811093   1.077   2.316   5.189  0.6167 -0.2754  0.3955
  766THF     C911094   1.199   2.398   5.150  0.1227 -0.2320  0.1610
  766THF    H1011095   1.077   2.277   5.291  1.8072 -1.7989 -0.1350
  766THF    H1111096   0.989   2.378   5.175  0.7539 -0.0618  0.4783
  766THF    H1211097   1.168   2.495   5.110  0.2340 -0.4087 -0.3556
  766THF    H1311098   1.284   2.422   5.214  0.8454  3.5912 -1.9487
  767THF     O111099   2.895   3.268   2.498 -0.1886 -0.2597 -0.7387
  767THF     C211100   2.789   3.364   2.531  0.6708  0.2943 -0.4648
  767THF     C311101   3.021   3.323   2.522  0.5362 -0.1053 -1.4545
  767THF     H411102   2.728   3.325   2.613  0.1549 -0.2671 -1.1077
  767THF     H511103   2.725   3.383   2.445 -2.9353  2.1193  2.3691
  767THF     H611104   3.060   3.289   2.618 -0.8412  2.7441  0.2523
  767THF     H711105   3.088   3.282   2.447  1.6528  2.0422 -1.7259
  767THF     C811106   2.998   3.474   2.517  0.6064 -0.0915 -0.4431
  767THF     C911107   2.868   3.485   2.590  0.1435 -0.9323  0.4989
  767THF    H1011108   2.981   3.512   2.416  0.8457 -0.1543 -0.5069
  767THF    H1111109   3.082   3.533   2.554 -0.4134  0.9427  0.3091
  767THF    H1211110   2.896   3.469   2.694  0.2069  1.1453  0.8297
  767THF    H1311111   2.815   3.579   2.578 -1.2959 -1.7576  0.0818
  768THF     O111112   2.796   1.733   0.525  0.6609 -0.1250 -0.2445
  768THF     C211113   2.712   1.694   0.417 -0.5947  0.0256 -0.0159
  768THF     C311114   2.758   1.658   0.637 -0.6456 -0.3039  0.2737
  768THF     H411115   2.767   1.717   0.326  0.8323 -2.3853  0.1595
  768THF     H511116   2.614   1.742   0.414 -0.0003  1.3205  0.4280
  768THF     H611117   2.847   1.638   0.697  0.3686  0.7158 -0.8327
  768THF     H711118   2.684   1.714   0.693  0.0563 -0.4704  1.4049
  768THF     C811119   2.707   1.523   0.579 -0.0932 -0.4507  0.4561
  768THF     C911120   2.694   1.546   0.428  0.0972 -0.6185 -0.5220
  768THF    H1011121   2.609   1.497   0.619  0.2555 -0.7095  1.1666
  768THF    H1111122   2.780   1.445   0.600 -0.8967 -1.3786 -0.1227
  768THF    H1211123   2.772   1.493   0.374  0.9958  0.5260 -0.3888
  768THF    H1311124   2.602   1.503   0.389  0.0623  0.1179 -1.2927
  769THF     O111125   1.504   1.268   0.928 -0.1576  0.4213 -0.5385
  769THF     C211126   1.618   1.247   1.002  0.0529  0.1040 -0.2340
  769THF     C311127   1.485   1.157   0.839 -0.2031  0.2662  0.6488
  769THF     H411128   1.589   1.261   1.106  1.9339  0.1827  0.3160
  769THF     H511129   1.689   1.328   0.987  0.2590  0.0198  0.2827
  769THF     H611130   1.415   1.084   0.880 -0.9825  0.3965 -0.4179
  769THF     H711131   1.437   1.180   0.745  0.5640 -1.2701 -0.1709
  769THF     C811132   1.628   1.097   0.820 -0.2026  0.7112  0.5978
  769THF     C911133   1.680   1.117   0.969 -0.5478  0.8305  0.3323
  769THF    H1011134   1.681   1.149   0.740 -0.2893  0.7458  0.5626
  769THF    H1111135   1.636   0.992   0.790  1.1249  1.4663 -2.0767
  769THF    H1211136   1.626   1.047   1.033  3.4506 -2.8255  0.2018
  769THF    H1311137   1.787   1.109   0.987 -0.5400 -0.6928 -0.2756
  770THF     O111138   1.294   1.126   2.889  0.5367  0.4774  0.3011
  770THF     C211139   1.373   1.247   2.882 -0.5102  0.2719  0.2372
  770THF     C311140   1.264   1.091   3.022 -0.3362 -0.1418  0.3889
  770THF     H411141   1.347   1.312   2.799  0.8957  2.0350  1.0944
  770THF     H511142   1.476   1.215   2.867 -0.2304  1.1468  0.2217
  770THF     H611143   1.175   1.029   3.031 -0.4567 -0.0751 -0.3168
  770THF     H711144   1.351   1.037   3.060 -0.1236  0.0070  0.1188
  770THF     C811145   1.251   1.233   3.085  0.2984 -0.2165 -0.3223
  770THF     C911146   1.363   1.310   3.020 -0.1090  0.3739 -0.7009
  770THF    H1011147   1.258   1.233   3.194  3.7416  0.7629 -0.4112
  770THF    H1111148   1.154   1.279   3.066  0.2162 -0.2026  0.1245
  770THF    H1211149   1.370   1.419   3.021  1.4384  0.3127  1.2792
  770THF    H1311150   1.458   1.287   3.067 -0.4827  0.7086  0.2424
  771THF     O111151   3.340   4.598   2.730 -0.9344 -0.3930 -0.0239
  771THF     C211152   3.365   4.550   2.860  0.4115 -0.2107 -0.1600
  771THF     C311153   3.228   4.687   2.732 -0.1044  0.1583 -0.2860
  771THF     H411154   3.460   4.502   2.884 -0.3062 -0.6417  2.0012
  771THF     H511155   3.290   4.474   2.881 -1.1864  0.5173 -2.7586
  771THF     H611156   3.231   4.738   2.636 -2.2788  0.8694 -0.0333
  771THF     H711157   3.144   4.617   2.721 -0.0695  0.3318 -1.9789
  771THF     C811158   3.257   4.773   2.856  0.1027 -0.1002  0.9487
  771THF     C911159   3.339   4.674   2.945  0.4655 -0.0437  0.0796
  771THF    H1011160   3.162   4.791   2.906 -0.9673 -0.0646 -0.9993
  771THF    H1111161   3.315   4.862   2.833  0.4459 -0.7628 -0.9436
  771THF    H1211162   3.431   4.720   2.981  1.0971 -0.9804 -0.2824
  771THF    H1311163   3.287   4.652   3.038  0.5129 -0.3133  0.0437
  772THF     O111164   1.892   2.210   1.490 -0.0045  0.2206 -0.3866
  772THF     C211165   1.914   2.279   1.616  0.1889 -0.1777  0.7404
  772THF     C311166   1.978   2.269   1.395 -0.0687 -0.3357  0.5619
  772THF     H411167   1.868   2.238   1.706 -1.9682 -2.1874 -1.1703
  772THF     H511168   1.879   2.381   1.599 -3.2599 -1.3946 -0.0869
  772THF     H611169   2.000   2.206   1.309  0.4805  1.2611 -0.5294
  772THF     H711170   1.943   2.370   1.372  1.3125  0.4853  1.8805
  772THF     C811171   2.113   2.290   1.477 -0.0889  0.0483 -0.5794
  772THF     C911172   2.066   2.267   1.630 -0.1397 -0.1367  0.1027
  772THF    H1011173   2.164   2.387   1.470  1.8704 -0.9341 -0.7784
  772THF    H1111174   2.185   2.217   1.442 -0.0105  0.7394 -1.9226
  772THF    H1211175   2.082   2.163   1.658 -0.9121 -0.3519 -0.2325
  772THF    H1311176   2.115   2.339   1.696 -0.3425  1.5349 -1.4789
  773THF     O111177   2.245   4.452   3.003 -0.0904  0.1495 -0.1194
  773THF     C211178   2.350   4.442   3.096 -0.8010 -0.3710 -0.1645
  773THF     C311179   2.286   4.548   2.902  0.2689  0.7057  0.1377
  773THF     H411180   2.341   4.364   3.172 -2.6918  1.1586  1.2766
  773THF     H511181   2.360   4.532   3.158  0.7061 -0.3773 -0.3566
  773THF     H611182   2.238   4.531   2.806  0.2306 -1.3300  0.4913
  773THF     H711183   2.263   4.653   2.923  2.8330  1.2726  0.4362
  773THF     C811184   2.447   4.521   2.894 -0.0039 -0.1705 -0.3532
  773THF     C911185   2.476   4.432   3.009  0.1694  0.2203 -0.0275
  773THF    H1011186   2.495   4.619   2.891 -0.6126  0.1692  0.4586
  773THF    H1111187   2.471   4.465   2.804  1.3955 -0.8108  0.3866
  773THF    H1211188   2.484   4.327   2.982  2.3826 -0.1201  1.6670
  773THF    H1311189   2.571   4.454   3.057 -0.7547  2.1956  1.0244
  774THF     O111190   0.360   2.826   2.241  0.6781  0.1971  0.0575
  774THF     C211191   0.422   2.702   2.264 -0.0151  0.5885  0.3058
  774THF     C311192   0.267   2.845   2.349  0.3058  0.1824  0.5572
  774THF     H411193   0.506   2.690   2.196 -0.3853 -0.0547 -0.0516
  774THF     H511194   0.365   2.610   2.250  0.8343 -0.0866  1.1734
  774THF     H611195   0.243   2.947   2.376  0.3709  0.3619 -0.0478
  774THF     H711196   0.169   2.799   2.344 -0.8251  2.3780  1.4636
  774THF     C811197   0.334   2.785   2.472  0.3659  0.4223  0.1966
  774THF     C911198   0.450   2.715   2.411  0.5545  0.1540  0.6751
  774THF    H1011199   0.274   2.710   2.524  1.0065  0.5760  1.1999
  774THF    H1111200   0.372   2.867   2.533 -0.0883  0.4001  0.5157
  774THF    H1211201   0.544   2.763   2.438  0.4610 -0.0633  1.4128
  774THF    H1311202   0.459   2.619   2.462 -1.6968 -0.6334 -0.3210
  775THF     O111203   0.307   3.849   4.866  0.2413 -0.0213 -0.6623
  775THF     C211204   0.318   3.855   5.005 -0.5253  0.1496  0.1225
  775THF     C311205   0.437   3.840   4.820 -0.2792 -0.0389 -0.2797
  775THF     H411206   0.235   3.800   5.049  1.3699 -1.8732  1.3633
  775THF     H511207   0.314   3.960   5.035 -0.6601 -0.1496  1.1901
  775THF     H611208   0.445   3.756   4.752 -1.1280  0.2071 -0.7019
  775THF     H711209   0.464   3.934   4.770 -0.8912  0.3724  0.1504
  775THF     C811210   0.539   3.818   4.938 -0.2096 -0.3611  0.0831
  775THF     C911211   0.449   3.793   5.054  0.8496  0.1187  0.4159
  775THF    H1011212   0.601   3.903   4.967  0.9037 -0.8039 -0.9234
  775THF    H1111213   0.604   3.732   4.924  1.0713  0.1649  2.2147
  775THF    H1211214   0.433   3.686   5.067 -0.0635  0.2901  0.7610
  775THF    H1311215   0.488   3.834   5.147  4.2122 -2.1418  0.1803
  776THF     O111216   2.951   4.491   0.584  0.0118 -0.7532  0.4363
  776THF     C211217   3.032   4.539   0.480  0.1508  0.6358 -0.4251
  776THF     C311218   2.916   4.608   0.657  0.2880  0.0576 -0.1162
  776THF     H411219   2.970   4.558   0.392  0.2228 -1.0589 -0.8773
  776THF     H511220   3.100   4.458   0.455  0.1599  0.6295 -0.3799
  776THF     H611221   2.841   4.665   0.603 -0.4576 -0.2941  0.5300
  776THF     H711222   2.869   4.575   0.750 -1.1093 -0.7629 -1.0760
  776THF     C811223   3.046   4.683   0.673 -0.0347 -0.1133 -0.8268
  776THF     C911224   3.111   4.669   0.528 -0.0078  0.2054 -0.4912
  776THF    H1011225   3.114   4.642   0.747  0.2109  2.2966  0.3834
  776THF    H1111226   3.019   4.784   0.704  1.1742  0.3646 -1.2873
  776THF    H1211227   3.088   4.752   0.460 -1.2691 -0.0835 -0.4465
  776THF    H1311228   3.218   4.651   0.538 -0.1036  0.1197  0.5565
  777THF     O111229   1.619   4.541   0.656  0.1675 -0.3704  0.6231
  777THF     C211230   1.606   4.402   0.617  0.2081  0.0349 -0.5509
  777THF     C311231   1.723   4.604   0.578  0.8082 -0.1602 -0.2368
  777THF     H411232   1.566   4.397   0.516 -0.9964 -2.4107 -0.0308
  777THF     H511233   1.539   4.336   0.672 -0.0998 -3.4490 -4.6212
  777THF     H611234   1.695   4.639   0.479 -0.8086  0.0688  0.2747
  777THF     H711235   1.763   4.688   0.635 -0.1611  0.0624  0.1333
  777THF     C811236   1.817   4.486   0.551  0.0334  0.3807 -0.4776
  777THF     C911237   1.754   4.363   0.619 -0.1077 -0.1664  0.8442
  777THF    H1011238   1.914   4.503   0.598 -0.4597  1.1465  0.3033
  777THF    H1111239   1.836   4.471   0.445  2.4416  1.4268 -0.2602
  777THF    H1211240   1.774   4.282   0.549 -1.4525 -0.1348  0.3939
  777THF    H1311241   1.809   4.345   0.711 -1.3452  0.6199  1.7767
  778THF     O111242   0.849   3.696   2.830 -0.5256  0.3853 -0.3509
  778THF     C211243   0.796   3.761   2.942  0.4665  0.4483  0.0597
  778THF     C311244   0.874   3.555   2.854 -0.1122 -0.2222 -0.3233
  778THF     H411245   0.753   3.859   2.918 -3.1599 -0.9140  0.4005
  778THF     H511246   0.864   3.770   3.027  1.4887 -2.5780 -0.3225
  778THF     H611247   0.879   3.503   2.759  0.7573  1.4834 -1.2408
  778THF     H711248   0.957   3.530   2.920 -0.1362  1.8721  0.5829
  778THF     C811249   0.740   3.519   2.922 -0.3848  0.6313 -0.7632
  778THF     C911250   0.699   3.655   2.986  0.1201 -0.5142 -0.2600
  778THF    H1011251   0.764   3.442   2.996  0.8269  0.2317 -1.5340
  778THF    H1111252   0.675   3.465   2.853  1.0247 -1.4671 -0.5619
  778THF    H1211253   0.597   3.677   2.954 -0.1665  0.2263  1.0723
  778THF    H1311254   0.686   3.651   3.094  0.8491  0.0059 -0.1456
  779THF     O111255   2.652   3.132   3.509  0.0160  0.0822 -0.1436
  779THF     C211256   2.702   3.017   3.577  0.2603 -0.3416 -0.3689
  779THF     C311257   2.755   3.173   3.421 -1.0854  0.4584  0.7606
  779THF     H411258   2.626   2.950   3.617  0.3413 -0.4576 -0.4095
  779THF     H511259   2.757   3.058   3.662  1.0181 -0.0345 -0.9895
  779THF     H611260   2.726   3.251   3.351 -0.3353  0.2681  0.2218
  779THF     H711261   2.835   3.222   3.476 -1.1003  2.1567 -0.6365
  779THF     C811262   2.812   3.041   3.363 -0.4484 -0.4811 -0.1751
  779THF     C911263   2.789   2.940   3.479  0.1280  0.5694 -0.1548
  779THF    H1011264   2.917   3.063   3.343 -0.2529 -1.1076  0.1447
  779THF    H1111265   2.766   3.017   3.267  1.6722  0.1644 -1.4361
  779THF    H1211266   2.738   2.848   3.452 -0.9240  0.9966  0.3450
  779THF    H1311267   2.875   2.921   3.544 -2.2660  0.2680  3.1639
  780THF     O111268   4.301   4.386   5.459 -0.1958 -0.0525 -0.1646
  780THF     C211269   4.432   4.353   5.516 -0.8207  0.0972  0.2706
  780THF     C311270   4.245   4.487   5.539 -0.4936 -0.1529 -0.2475
  780THF     H411271   4.497   4.296   5.449 -1.5739 -1.3639  0.7288
  780THF     H511272   4.418   4.280   5.596  1.0759  0.5534  1.0713
  780THF     H611273   4.167   4.549   5.495 -0.9790  0.8836  1.9578
  780THF     H711274   4.193   4.435   5.619 -0.7298  0.6517  0.1289
  780THF     C811275   4.369   4.573   5.582  0.4826 -0.0007 -0.9353
  780THF     C911276   4.491   4.482   5.573  0.6728 -0.2003  0.1090
  780THF    H1011277   4.370   4.598   5.688  2.0915 -0.3626 -0.8368
  780THF    H1111278   4.378   4.667   5.528 -0.2579  0.6892  0.1104
  780THF    H1211279   4.564   4.518   5.501  0.9158 -2.0695 -0.6416
  780THF    H1311280   4.548   4.466   5.665 -0.2227  0.4641  0.7964
  781THF     O111281   2.383   2.201   5.469  0.9701 -0.0257  0.1934
  781THF     C211282   2.379   2.334   5.430 -0.0904  0.0645  0.0255
  781THF     C311283   2.254   2.140   5.457  0.0050 -0.4219  0.4169
  781THF     H411284   2.485   2.359   5.429 -0.0712  0.1213  1.6283
  781THF     H511285   2.336   2.400   5.506  1.1617 -0.9301  1.6662
  781THF     H611286   2.278   2.036   5.434 -0.2840 -0.5233  0.5774
  781THF     H711287   2.209   2.146   5.555 -0.1281 -0.5713  0.3658
  781THF     C811288   2.193   2.221   5.338  0.5673  0.1886  0.8116
  781THF     C911289   2.293   2.331   5.306  0.3414  0.3970  0.0612
  781THF    H1011290   2.105   2.275   5.373 -0.2892 -1.4316  1.2345
  781THF    H1111291   2.167   2.163   5.249  1.1535  0.2731  0.5845
  781THF    H1211292   2.347   2.323   5.212 -0.8592  2.8664 -0.9302
  781THF    H1311293   2.235   2.423   5.302 -0.9488 -0.2978  1.3613
  782THF     O111294   5.009   0.381   0.686 -0.0538  0.3646 -0.4500
  782THF     C211295   5.067   0.378   0.819  0.1707  0.3705  0.0467
  782THF     C311296   5.103   0.431   0.600  0.1258  0.2365 -0.1607
  782THF     H411297   5.001   0.325   0.888  0.2479  0.7094  0.3783
  782THF     H511298   5.079   0.476   0.864 -0.2499 -0.2432  1.5435
  782THF     H611299   5.066   0.412   0.500  2.0184 -1.5338 -0.5948
  782THF     H711300   5.116   0.536   0.625  0.0898 -0.1383  1.5636
  782THF     C811301   5.226   0.359   0.639 -0.2153 -0.1796 -0.0259
  782THF     C911302   5.208   0.316   0.785 -0.0405 -0.6189  0.1666
  782THF    H1011303   5.312   0.425   0.623  0.8574 -1.7014 -0.6943
  782THF    H1111304   5.242   0.272   0.575 -1.7003 -0.5684  0.1001
  782THF    H1211305   5.202   0.208   0.793 -0.5662 -0.4876  1.9113
  782THF    H1311306   5.279   0.345   0.862 -0.6224 -0.6978  0.7404
  783THF     O111307   3.496   2.852   4.327 -0.0620  0.0214 -0.3398
  783THF     C211308   3.435   2.944   4.420  0.7095  0.8238 -0.2946
  783THF     C311309   3.473   2.903   4.196 -0.2857 -0.0013 -0.1464
  783THF     H411310   3.482   2.956   4.518 -0.8496  1.2868  0.4244
  783THF     H511311   3.336   2.910   4.450  0.7289 -0.0311 -1.1635
  783THF     H611312   3.557   2.918   4.128 -0.4896 -1.1674 -0.6781
  783THF     H711313   3.407   2.828   4.154 -0.4183  0.3167 -0.5142
  783THF     C811314   3.392   3.031   4.206  0.0743  0.3871  0.3161
  783THF     C911315   3.430   3.079   4.348 -0.5970  0.2018  0.4241
  783THF    H1011316   3.286   3.008   4.207  0.1018  0.2187 -0.3215
  783THF    H1111317   3.421   3.110   4.135 -0.3231  1.7676  1.6378
  783THF    H1211318   3.529   3.126   4.350 -2.0740  3.5792  0.5385
  783THF    H1311319   3.357   3.148   4.390  0.5753  1.1852  0.9262
  784THF     O111320   1.368   5.494   2.040  0.2012 -0.4360 -0.6040
  784THF     C211321   1.469   5.466   1.947  0.4420 -0.1047 -0.6519
  784THF     C311322   1.393   5.619   2.101  0.0113 -0.2265 -0.8107
  784THF     H411323   1.447   5.375   1.893 -0.4044 -1.8263  2.3264
  784THF     H511324   1.561   5.432   1.994  0.5615  0.8007 -0.2061
  784THF     H611325   1.310   5.658   2.160  0.2868 -1.2857  0.3279
  784THF     H711326   1.472   5.616   2.176  0.1130 -1.1053 -0.9378
  784THF     C811327   1.439   5.703   1.982 -0.6288 -0.2487  0.5633
  784THF     C911328   1.490   5.601   1.879  0.3315 -0.1894  0.2262
  784THF    H1011329   1.515   5.774   2.014 -2.5584  2.3248 -0.1890
  784THF    H1111330   1.355   5.765   1.950  0.7945  1.2431 -0.4603
  784THF    H1211331   1.443   5.609   1.781  1.9078 -1.1878 -0.6604
  784THF    H1311332   1.598   5.617   1.870  0.1960  0.7533  0.1254
  785THF     O111333   1.155   0.354   0.470 -0.0781  0.0738  0.2002
  785THF     C211334   1.096   0.307   0.347  0.6337  0.1846  0.1264
  785THF     C311335   1.071   0.299   0.582 -0.2988 -1.0210  0.1152
  785THF     H411336   1.166   0.303   0.263  0.0483 -0.9284 -0.3210
  785THF     H511337   1.023   0.381   0.314 -1.5618 -1.2468  1.5911
  785THF     H611338   1.123   0.239   0.656 -1.2006 -0.2208  1.4514
  785THF     H711339   1.017   0.386   0.620 -1.0235  0.2413 -3.4132
  785THF     C811340   0.967   0.201   0.516 -0.8510 -0.4609  0.2496
  785THF     C911341   1.034   0.171   0.380  0.0596 -0.1503 -0.3017
  785THF    H1011342   0.879   0.261   0.494  1.5150  2.6647 -1.7101
  785THF    H1111343   0.956   0.108   0.571 -1.4313 -0.3503  0.3241
  785THF    H1211344   1.111   0.097   0.399  0.7217 -0.0917 -2.4402
  785THF    H1311345   0.966   0.137   0.301 -0.3052  0.5330 -0.2869
  786THF     O111346   3.979   0.987   2.832  0.0245  0.4404  0.2561
  786THF     C211347   4.117   1.001   2.814 -0.4793 -0.5945 -0.0550
  786THF     C311348   3.913   1.111   2.827  0.2788 -0.3913  0.1238
  786THF     H411349   4.150   0.941   2.729 -0.2474 -1.0056  0.3220
  786THF     H511350   4.176   0.985   2.904  0.1763  0.5228 -0.2676
  786THF     H611351   3.814   1.095   2.786  0.4039 -1.4696  0.2278
  786THF     H711352   3.907   1.149   2.928 -0.2225 -0.0296 -0.0417
  786THF     C811353   4.002   1.197   2.742 -0.8161 -0.2630 -0.0019
  786THF     C911354   4.144   1.137   2.760  0.1416 -0.8036 -0.3124
  786THF    H1011355   3.997   1.301   2.773  1.6292  0.7037 -2.3853
  786THF    H1111356   3.975   1.199   2.636  0.4591  1.2610 -0.3389
  786THF    H1211357   4.198   1.129   2.666  0.7883 -0.8462  0.0567
  786THF    H1311358   4.196   1.190   2.841  1.0261 -1.1200 -0.6674
  787THF     O111359   2.490   1.955   1.165  0.1673  0.8073 -0.9439
  787THF     C211360   2.371   2.021   1.198 -0.0848 -0.8220  0.1860
  787THF     C311361   2.580   2.044   1.109  0.4960 -0.2889  0.3009
  787THF     H411362   2.387   2.086   1.284 -2.0683  2.5337 -1.7479
  787THF     H511363   2.279   1.966   1.219 -1.5298  1.2378 -0.4346
  787THF     H611364   2.640   2.095   1.184  0.7253  2.6289 -1.7199
  787THF     H711365   2.651   1.990   1.046  1.6784  1.7316 -0.1831
  787THF     C811366   2.491   2.140   1.020 -0.8924  0.3403  0.0226
  787THF     C911367   2.352   2.121   1.079  0.3053 -0.0415 -0.0914
  787THF    H1011368   2.489   2.099   0.919 -0.2662 -0.5570  0.3644
  787THF    H1111369   2.519   2.245   1.031 -0.3328  0.1691  0.2507
  787THF    H1211370   2.317   2.217   1.116 -0.1931 -0.6467  1.0620
  787THF    H1311371   2.283   2.092   1.001 -0.5624  0.5279  0.4475
  788THF     O111372   5.283   5.045   1.835 -0.3331  0.1419  0.7842
  788THF     C211373   5.370   5.027   1.947  0.3750  0.1034  0.2459
  788THF     C311374   5.147   5.037   1.888  0.2029  0.0355  0.4908
  788THF     H411375   5.436   5.114   1.954  0.2778  0.3087 -1.0950
  788THF     H511376   5.439   4.943   1.939  0.7727  0.3818  0.7156
  788THF     H611377   5.078   5.096   1.827  0.0292 -1.4420 -0.8070
  788THF     H711378   5.124   4.931   1.879  4.7233 -1.1040  0.0410
  788THF     C811379   5.160   5.073   2.034  1.0804 -0.6877  0.4850
  788THF     C911380   5.285   5.000   2.071 -0.5640  0.5253  0.4067
  788THF    H1011381   5.072   5.062   2.098  0.3761  1.5586 -0.0098
  788THF    H1111382   5.184   5.179   2.047  1.0022 -0.8308  1.9461
  788THF    H1211383   5.336   5.040   2.158  0.6748  1.4484 -0.6993
  788THF    H1311384   5.268   4.893   2.085 -0.9821  0.4023 -0.9231
  789THF     O111385   4.233   2.408   0.695  0.0051 -0.2329  0.6347
  789THF     C211386   4.266   2.510   0.783  0.3454  0.5836  0.0270
  789THF     C311387   4.209   2.462   0.566 -0.4660 -0.2846 -0.3075
  789THF     H411388   4.364   2.505   0.831  0.1389  0.9362  0.5025
  789THF     H511389   4.199   2.507   0.870  0.5570  0.0068  0.1753
  789THF     H611390   4.310   2.461   0.524 -0.4710  1.2238 -0.4220
  789THF     H711391   4.142   2.416   0.493 -2.2560  1.6359  0.0302
  789THF     C811392   4.171   2.614   0.589 -0.7507  0.0604  0.7708
  789THF     C911393   4.264   2.647   0.710  0.2492 -0.5025 -0.0957
  789THF    H1011394   4.067   2.619   0.619 -1.0176 -1.4631  0.1700
  789THF    H1111395   4.198   2.680   0.506  0.7351 -0.6604  0.6524
  789THF    H1211396   4.362   2.682   0.675 -0.7941  3.7477  0.5856
  789THF    H1311397   4.210   2.720   0.771 -0.7212 -0.2490 -1.2101
  790THF     O111398   5.480   1.832   0.614 -0.0208  0.1848  0.0404
  790THF     C211399   5.547   1.886   0.504 -0.1183 -0.0477 -0.1157
  790THF     C311400   5.438   1.698   0.582 -0.1226 -0.0407  0.0729
  790THF     H411401   5.616   1.969   0.525  1.1759 -1.4724  1.6688
  790THF     H511402   5.473   1.921   0.433 -0.2633 -1.9786 -0.9631
  790THF     H611403   5.426   1.643   0.675  0.9738 -0.7181 -0.1590
  790THF     H711404   5.353   1.704   0.515  0.1681  0.7398 -0.2461
  790THF     C811405   5.562   1.648   0.503 -0.5124 -0.1207 -0.2444
  790THF     C911406   5.626   1.768   0.448  0.1353 -0.2642 -0.0283
  790THF    H1011407   5.531   1.570   0.434  1.2468 -1.0583 -0.0190
  790THF    H1111408   5.629   1.599   0.574 -1.0660  0.5918  0.7978
  790THF    H1211409   5.730   1.765   0.479  0.2385 -2.5657 -0.4037
  790THF    H1311410   5.610   1.765   0.340  1.1845 -0.0316 -0.1982
  791THF     O111411   4.387   5.285   4.006  0.1612 -0.4306 -0.2186
  791THF     C211412   4.507   5.344   4.057 -0.0702 -0.4309  0.6222
  791THF     C311413   4.377   5.330   3.869  0.2358  0.1943 -0.2625
  791THF     H411414   4.591   5.288   4.018 -0.7236 -1.0235  0.0371
  791THF     H511415   4.520   5.357   4.164  1.4026 -1.0397  0.5340
  791THF     H611416   4.417   5.257   3.799  2.4090  1.5995 -0.5852
  791THF     H711417   4.272   5.352   3.851  0.5587  2.0099 -0.1315
  791THF     C811418   4.449   5.461   3.853 -0.0073 -0.1788 -0.0180
  791THF     C911419   4.506   5.481   3.991  0.1536  0.0907  0.2942
  791THF    H1011420   4.384   5.537   3.809 -2.0170 -0.4752  2.2567
  791THF    H1111421   4.532   5.434   3.789 -0.3868  0.5104 -0.8172
  791THF    H1211422   4.602   5.531   3.989  0.3374 -0.2701 -0.0585
  791THF    H1311423   4.438   5.538   4.054  1.7659  0.4210  1.8371
  792THF     O111424   2.364   0.787   4.254  0.5320 -0.8720 -0.2607
  792THF     C211425   2.426   0.896   4.187  0.4413  0.5702 -0.1988
  792THF     C311426   2.280   0.845   4.354  0.7945 -0.0971  0.3283
  792THF     H411427   2.446   0.880   4.081  0.3800  0.6523 -0.2227
  792THF     H511428   2.522   0.912   4.236  0.6192  0.4972 -0.5129
  792THF     H611429   2.205   0.777   4.394 -0.4236 -0.1570 -1.8546
  792THF     H711430   2.342   0.883   4.434  0.6648 -1.3008  1.0163
  792THF     C811431   2.214   0.969   4.286  0.1398  0.1481 -0.1010
  792THF     C911432   2.329   1.017   4.203  0.4205  0.4753 -0.3767
  792THF    H1011433   2.184   1.043   4.360  1.1400 -1.5059  2.0598
  792THF    H1111434   2.133   0.943   4.217  0.2287  1.1685 -0.6143
  792THF    H1211435   2.293   1.062   4.111  0.6856 -0.9950 -1.2436
  792THF    H1311436   2.384   1.087   4.265  0.4490  0.4664 -0.3918
  793THF     O111437   2.397   2.745   3.370  0.3869 -1.1086 -0.2290
  793THF     C211438   2.336   2.870   3.420  0.3936 -0.1637  0.1513
  793THF     C311439   2.341   2.634   3.443 -0.2556  0.2897 -0.3339
  793THF     H411440   2.338   2.946   3.343 -0.1560  1.0198  1.2674
  793THF     H511441   2.393   2.902   3.507 -0.3113  1.9133 -0.1063
  793THF     H611442   2.322   2.557   3.368  0.3583 -1.1639  0.9460
  793THF     H711443   2.410   2.600   3.520 -0.1995 -1.2430 -1.0165
  793THF     C811444   2.217   2.690   3.522  0.5817  0.3691  0.0389
  793THF     C911445   2.199   2.827   3.460  0.1175  0.1510 -0.5164
  793THF    H1011446   2.237   2.688   3.630  0.0564 -2.1173  0.1599
  793THF    H1111447   2.128   2.626   3.517  0.8429  0.1235 -2.3713
  793THF    H1211448   2.146   2.811   3.366 -0.9662  1.9644 -0.2667
  793THF    H1311449   2.148   2.899   3.525  0.7952 -0.6756  0.9911
  794THF     O111450   0.949   3.293   0.044  0.0539 -0.1467  0.1008
  794THF     C211451   1.059   3.219  -0.014 -0.0512 -0.2990 -0.5340
  794THF     C311452   0.983   3.327   0.181  0.5109 -0.2302 -0.5243
  794THF     H411453   1.106   3.287  -0.084 -0.9488  2.8810  1.7219
  794THF     H511454   1.036   3.121  -0.057 -0.7731 -1.1510  1.6368
  794THF     H611455   0.951   3.424   0.219  0.5604  0.0436 -1.1630
  794THF     H711456   0.936   3.248   0.239 -1.2262 -2.1317 -4.1621
  794THF     C811457   1.137   3.308   0.186  0.0719  0.7728  0.2117
  794THF     C911458   1.153   3.191   0.103 -0.1982  0.3696  0.1020
  794THF    H1011459   1.172   3.298   0.289  1.4734  1.2848 -0.2001
  794THF    H1111460   1.198   3.395   0.160  1.9223 -0.7787 -0.8205
  794THF    H1211461   1.257   3.195   0.070 -0.5462  0.7006 -0.9862
  794THF    H1311462   1.135   3.095   0.152 -0.2277 -0.3916 -1.3476
  795THF     O111463   2.769   0.620   4.126  0.1058 -0.2478  0.1421
  795THF     C211464   2.669   0.627   4.223 -0.7378 -0.1128 -0.2739
  795THF     C311465   2.787   0.480   4.088  0.2409 -0.3189  0.4821
  795THF     H411466   2.627   0.721   4.257 -2.2164 -0.9516  0.3204
  795THF     H511467   2.709   0.581   4.314 -2.6526 -2.3609 -0.4628
  795THF     H611468   2.825   0.460   3.988  0.5956 -0.2293  0.5970
  795THF     H711469   2.861   0.432   4.151  2.6163 -1.1367 -2.6686
  795THF     C811470   2.650   0.418   4.103  0.0254 -0.0261 -0.1719
  795THF     C911471   2.569   0.534   4.157  0.8082  0.0400 -0.0735
  795THF    H1011472   2.649   0.345   4.184  0.9521 -1.0270 -1.0340
  795THF    H1111473   2.607   0.376   4.012  1.5596  1.2908 -1.5522
  795THF    H1211474   2.517   0.578   4.072 -2.3088 -2.5841  0.2597
  795THF    H1311475   2.488   0.499   4.222  1.0461 -1.4108 -0.5248
  796THF     O111476   4.032   1.661   2.291  0.2050 -0.0483  0.0377
  796THF     C211477   4.129   1.678   2.189 -0.1873 -0.4423  0.0407
  796THF     C311478   4.043   1.517   2.328 -0.8737 -0.2777  0.7491
  796THF     H411479   4.216   1.721   2.240  0.1979  1.4651 -2.0727
  796THF     H511480   4.099   1.750   2.114 -0.3459  0.0910  0.6089
  796THF     H611481   4.078   1.505   2.430  0.7157  3.1826  0.7229
  796THF     H711482   3.943   1.474   2.324 -0.2000 -2.3086  3.2802
  796THF     C811483   4.135   1.437   2.225  0.5616 -0.1072  0.1189
  796THF     C911484   4.161   1.541   2.116  0.4359 -0.3424 -0.2102
  796THF    H1011485   4.075   1.355   2.186  0.2740 -0.5229  1.3923
  796THF    H1111486   4.225   1.387   2.264  2.0032  1.8986 -0.4664
  796THF    H1211487   4.265   1.544   2.085  0.8902  3.0250  1.1466
  796THF    H1311488   4.088   1.525   2.037 -0.5239 -0.9531  0.7771
  797THF     O111489   3.820   1.694   4.463  0.1359 -1.0321  0.1542
  797THF     C211490   3.911   1.755   4.369  0.0943  0.9529  0.7197
  797THF     C311491   3.868   1.744   4.588 -0.6240  0.1103  0.2817
  797THF     H411492   3.872   1.755   4.267  1.1817 -0.2261  0.2746
  797THF     H511493   4.003   1.698   4.356 -0.0929  0.8330 -0.1323
  797THF     H611494   3.801   1.725   4.672 -2.4219  3.2320 -0.2673
  797THF     H711495   3.971   1.712   4.597 -1.1064 -1.6592 -0.1549
  797THF     C811496   3.877   1.892   4.554 -0.1624 -0.2824 -0.9686
  797THF     C911497   3.922   1.897   4.412 -0.0817 -0.0818 -0.3164
  797THF    H1011498   3.936   1.948   4.628 -0.3250 -2.0812  0.6050
  797THF    H1111499   3.777   1.934   4.561 -0.5287 -1.1573 -0.7885
  797THF    H1211500   3.857   1.956   4.347  1.3563  1.0533 -0.7874
  797THF    H1311501   4.022   1.932   4.386  0.3518  0.0621  1.3905
  798THF     O111502   1.316   2.510   2.608  0.2763 -0.2165  0.3085
  798THF     C211503   1.341   2.372   2.643 -0.4334 -0.5959 -0.3692
  798THF     C311504   1.208   2.507   2.517 -0.8774 -0.4321 -0.3186
  798THF     H411505   1.267   2.317   2.701  0.8238 -0.4916  1.4155
  798THF     H511506   1.435   2.363   2.698 -0.7114  1.1951  0.4770
  798THF     H611507   1.120   2.468   2.569 -0.1250  0.2890  1.5742
  798THF     H711508   1.196   2.603   2.466  1.9643  0.2394  0.1055
  798THF     C811509   1.254   2.391   2.422  0.1421 -0.0966 -0.5387
  798THF     C911510   1.347   2.307   2.507 -0.4340 -0.3424  0.1948
  798THF    H1011511   1.306   2.428   2.333 -0.7326  1.1457 -0.5556
  798THF    H1111512   1.160   2.344   2.393 -0.5555  1.4603 -0.9045
  798THF    H1211513   1.314   2.204   2.496  0.8175 -0.6510 -1.0449
  798THF    H1311514   1.448   2.319   2.466 -0.1889  2.3210  1.3415
  799THF     O111515   3.583   3.126   5.373 -0.5001 -0.0030 -0.0074
  799THF     C211516   3.658   3.102   5.491 -0.7838  0.0666 -0.2169
  799THF     C311517   3.504   3.014   5.346  0.0263 -0.7297 -0.1681
  799THF     H411518   3.674   3.194   5.548  2.1478 -0.3913 -0.1221
  799THF     H511519   3.754   3.059   5.463 -0.0660  2.1814 -1.2628
  799THF     H611520   3.404   3.029   5.306 -0.6478  0.3190  1.7841
  799THF     H711521   3.557   2.956   5.270 -2.0099 -1.4067 -1.1444
  799THF     C811522   3.489   2.935   5.475 -0.4737  0.0073 -1.4540
  799THF     C911523   3.579   2.997   5.575 -0.8023 -0.0524  0.2669
  799THF    H1011524   3.509   2.831   5.450  1.9742  0.1531 -0.3292
  799THF    H1111525   3.387   2.945   5.512  0.1132 -0.2807  0.3394
  799THF    H1211526   3.528   3.056   5.652  0.0079  1.1535 -0.0942
  799THF    H1311527   3.646   2.927   5.625  0.7873  3.6256  3.9285
  800THF     O111528   5.336   5.083   3.546 -0.3390 -0.1319 -0.0271
  800THF     C211529   5.325   4.969   3.637 -0.3193  0.1846 -0.3526
  800THF     C311530   5.263   5.192   3.603 -0.1467  0.2844 -0.9072
  800THF     H411531   5.421   4.923   3.657 -1.3101 -2.9920 -2.2542
  800THF     H511532   5.256   4.893   3.599  0.4498 -0.7041 -0.0060
  800THF     H611533   5.323   5.282   3.585  2.3654 -0.9667  0.6479
  800THF     H711534   5.172   5.201   3.544  0.1019  2.0796 -1.0623
  800THF     C811535   5.243   5.167   3.759 -0.2189 -0.4428  0.0094
  800THF     C911536   5.277   5.019   3.777  0.0493  0.2289  0.4466
  800THF    H1011537   5.144   5.186   3.798  0.9577  1.0919  2.4729
  800THF    H1111538   5.308   5.234   3.815 -3.1128  0.5425  2.4390
  800THF    H1211539   5.359   5.004   3.848 -2.1450 -2.7936  2.6179
  800THF    H1311540   5.192   4.957   3.807  0.4044 -1.2601 -1.4075
  801THF     O111541   2.900   0.794   3.166  0.4098  0.5375  0.1271
  801THF     C211542   3.007   0.874   3.186  0.3563  0.2966  0.3707
  801THF     C311543   2.821   0.791   3.289 -0.5162  0.5772  0.7217
  801THF     H411544   2.969   0.976   3.183 -0.3298  0.0496  0.4234
  801THF     H511545   3.073   0.855   3.102  0.3679  1.7950  0.0176
  801THF     H611546   2.757   0.879   3.295 -0.5992  0.4894  1.1551
  801THF     H711547   2.747   0.711   3.299 -4.0266  3.6178  1.2092
  801THF     C811548   2.926   0.792   3.402 -0.7429  0.6521 -0.4593
  801THF     C911549   3.051   0.843   3.326  0.1141 -0.4168  0.2626
  801THF    H1011550   2.935   0.692   3.446  1.1922  1.5724  1.3798
  801THF    H1111551   2.898   0.866   3.476 -1.0823  1.4865 -1.3965
  801THF    H1211552   3.089   0.929   3.382  1.6826 -0.8236 -0.1156
  801THF    H1311553   3.126   0.764   3.323 -0.1098 -0.6286  0.1962
  802THF     O111554   2.585   0.107   0.369 -0.2796 -0.1331  0.2057
  802THF     C211555   2.566   0.043   0.494  0.4956 -0.8212  0.0139
  802THF     C311556   2.729   0.126   0.362  0.1661 -0.2480 -0.0056
  802THF     H411557   2.478  -0.020   0.478 -0.6082  0.3154  1.3287
  802THF     H511558   2.542   0.107   0.579 -1.2128 -1.1177 -0.2139
  802THF     H611559   2.753   0.150   0.259 -1.5890 -0.1765 -0.4388
  802THF     H711560   2.757   0.215   0.418  0.3613 -1.7186  2.3594
  802THF     C811561   2.773  -0.014   0.412 -0.9339 -0.1460  0.3808
  802THF     C911562   2.691  -0.034   0.534  0.7154  0.3875  0.1596
  802THF    H1011563   2.880  -0.013   0.432 -0.8725  1.4422  0.1205
  802THF    H1111564   2.754  -0.083   0.330  1.9067 -0.7056  0.0915
  802THF    H1211565   2.667  -0.140   0.544 -2.6901  0.7495 -2.5249
  802THF    H1311566   2.748   0.005   0.619 -0.8579  1.1591  0.9009
  803THF     O111567   2.070   0.810   2.873  0.0312 -0.1983  0.6466
  803THF     C211568   2.028   0.836   2.739  0.0193 -0.2102  0.1383
  803THF     C311569   2.184   0.724   2.859  0.6218  0.1987  0.7053
  803THF     H411570   1.966   0.925   2.734  0.8853  0.3811 -0.3271
  803THF     H511571   1.977   0.744   2.710  1.3019 -1.4559  1.6525
  803THF     H611572   2.250   0.730   2.946  0.1843  0.9903  0.9894
  803THF     H711573   2.148   0.623   2.838 -0.4488  1.1934 -3.2142
  803THF     C811574   2.265   0.774   2.739  1.0610 -0.0501 -0.7579
  803THF     C911575   2.159   0.854   2.664  0.5287  0.4771 -0.5850
  803THF    H1011576   2.313   0.695   2.680  3.1627  0.8400 -0.3348
  803THF    H1111577   2.338   0.849   2.770  0.4703  0.0886  0.3561
  803THF    H1211578   2.188   0.958   2.680  0.7740  0.0695  2.1127
  803THF    H1311579   2.153   0.822   2.560 -0.9310  2.9909 -1.3689
  804THF     O111580   2.591   1.577   4.893 -0.0582 -0.0225 -0.0838
  804THF     C211581   2.464   1.586   4.948  0.5493  0.4328 -0.0763
  804THF     C311582   2.582   1.567   4.748 -0.5054  0.5418  0.4503
  804THF     H411583   2.476   1.634   5.045  1.5520 -0.8537  0.4694
  804THF     H511584   2.425   1.486   4.968  0.3716  0.3457 -0.8053
  804THF     H611585   2.674   1.587   4.693  0.4911 -1.1588  1.4283
  804THF     H711586   2.535   1.471   4.725  0.8497 -0.2901  1.0495
  804THF     C811587   2.480   1.675   4.720 -0.0535  0.3583 -0.4955
  804THF     C911588   2.386   1.664   4.843 -0.1371 -0.5468 -0.6802
  804THF    H1011589   2.424   1.678   4.627  2.7998  0.7262 -2.3270
  804THF    H1111590   2.534   1.770   4.721  4.6577 -1.9831 -0.4363
  804THF    H1211591   2.344   1.755   4.885 -1.3420 -0.0045 -2.9108
  804THF    H1311592   2.304   1.600   4.811 -0.1327 -1.4427  1.0138
  805THF     O111593   4.444   0.070   5.085  0.4518 -0.2600  0.1464
  805THF     C211594   4.373   0.089   4.959 -0.6361 -0.7951 -0.4952
  805THF     C311595   4.341   0.090   5.191 -0.2032 -0.2054 -0.0632
  805THF     H411596   4.332  -0.010   4.937 -2.6855 -0.0917 -0.0222
  805THF     H511597   4.434   0.124   4.876  2.7862 -1.2358  1.6372
  805THF     H611598   4.322   0.004   5.255 -1.1792  0.5742  0.7263
  805THF     H711599   4.370   0.175   5.252 -0.6925  0.0986 -0.2534
  805THF     C811600   4.213   0.144   5.120 -0.0394 -0.3357 -0.2439
  805THF     C911601   4.261   0.190   4.983 -0.1916 -0.0096 -0.0708
  805THF    H1011602   4.181   0.235   5.172  3.2145 -0.4992  2.3546
  805THF    H1111603   4.138   0.067   5.106  0.7201 -1.1236 -0.0447
  805THF    H1211604   4.178   0.176   4.913 -1.0309  0.4413  0.8069
  805THF    H1311605   4.293   0.295   4.981 -0.0277 -0.0563  0.0871
  806THF     O111606   3.066   5.299   1.969 -0.6724 -0.3762  0.1809
  806THF     C211607   2.934   5.277   1.913 -0.0601  0.0888  0.2051
  806THF     C311608   3.058   5.424   2.035 -0.2808 -0.6782 -0.2388
  806THF     H411609   2.865   5.245   1.992 -3.0018 -1.5479 -2.7788
  806THF     H511610   2.930   5.195   1.841 -2.6552 -1.1226  1.5956
  806THF     H611611   2.982   5.406   2.112 -1.8084 -1.4069 -1.8472
  806THF     H711612   3.149   5.464   2.080 -2.0536  2.3724  0.9536
  806THF     C811613   2.996   5.510   1.928  0.4979 -0.3361  0.3911
  806THF     C911614   2.887   5.418   1.863 -0.4363  0.3932 -0.1307
  806THF    H1011615   3.074   5.531   1.855 -0.3753  0.2127 -0.4192
  806THF    H1111616   2.945   5.604   1.950 -1.6898 -0.0120 -4.5664
  806THF    H1211617   2.782   5.429   1.893 -1.0497  0.4309 -2.1269
  806THF    H1311618   2.892   5.411   1.754 -0.3117 -0.4569 -0.0822
  807THF     O111619   4.321   4.213   2.434  0.0955  0.4472 -0.4005
  807THF     C211620   4.215   4.130   2.472  0.1651  0.0481  0.1333
  807THF     C311621   4.414   4.120   2.380 -0.7253 -0.3394 -0.3591
  807THF     H411622   4.158   4.091   2.387 -1.2218  1.3240  0.4261
  807THF     H511623   4.149   4.187   2.538  0.9729  2.0679 -0.7014
  807THF     H611624   4.386   4.093   2.279  1.6620  1.0039 -1.4676
  807THF     H711625   4.513   4.167   2.381 -0.7814 -0.1688 -1.7077
  807THF     C811626   4.412   4.005   2.482  0.5208  0.4758  0.3200
  807THF     C911627   4.278   4.016   2.551  0.0584  0.3811 -1.1648
  807THF    H1011628   4.484   3.994   2.563 -0.6245 -2.1103  1.0822
  807THF    H1111629   4.428   3.908   2.436  2.5289 -0.4091  2.6551
  807THF    H1211630   4.226   3.921   2.536  0.9328 -0.5683  1.3002
  807THF    H1311631   4.285   4.044   2.655 -0.4300  0.0589 -1.0407
  808THF     O111632   4.842   1.429   4.142  0.2705  0.0787 -0.3767
  808THF     C211633   4.852   1.479   4.274  0.4534  0.4749  0.3244
  808THF     C311634   4.701   1.412   4.100 -0.6154  0.2777  1.1939
  808THF     H411635   4.938   1.545   4.284  0.3881  0.5169  0.6131
  808THF     H511636   4.876   1.386   4.326 -1.2322 -1.5925 -2.3058
  808THF     H611637   4.679   1.485   4.022 -0.8816  0.5049  1.4791
  808THF     H711638   4.676   1.314   4.058 -0.2931  0.1065  1.3947
  808THF     C811639   4.627   1.445   4.231  0.3566  0.6413  0.3659
  808THF     C911640   4.719   1.536   4.302  0.1371 -0.8223  0.2932
  808THF    H1011641   4.612   1.359   4.296  0.3715 -0.4970 -1.0721
  808THF    H1111642   4.533   1.498   4.216  0.2856  1.1010  2.2077
  808THF    H1211643   4.706   1.635   4.257 -1.0065 -1.5311 -1.0032
  808THF    H1311644   4.698   1.552   4.408  0.0619  1.5926 -0.0190
  809THF     O111645   0.556   4.957   1.218 -0.4327 -0.3417 -0.3787
  809THF     C211646   0.534   4.820   1.259  0.1057  0.5232  0.0832
  809THF     C311647   0.697   4.977   1.217 -0.3365  0.9129  0.3610
  809THF     H411648   0.434   4.783   1.237  0.3415  1.3605 -2.7987
  809THF     H511649   0.553   4.805   1.366 -2.8943 -0.6705  0.5430
  809THF     H611650   0.726   5.046   1.138  0.1479  0.6908  0.3434
  809THF     H711651   0.728   5.013   1.315 -2.5709 -0.5315  1.7013
  809THF     C811652   0.757   4.837   1.176  0.2985  0.2294 -0.1085
  809THF     C911653   0.632   4.757   1.159 -0.2088  0.5678 -0.8581
  809THF    H1011654   0.829   4.815   1.254 -1.1115  0.3839  1.2903
  809THF    H1111655   0.801   4.822   1.078  0.7616  0.1628  0.1087
  809THF    H1211656   0.594   4.752   1.056  0.3665  0.2458 -1.0619
  809THF    H1311657   0.647   4.655   1.196  0.8179  1.1845  0.4877
  810THF     O111658   0.192   0.022   1.128 -0.4396  0.3576  0.0301
  810THF     C211659   0.281  -0.025   1.026  0.0471  1.0675 -0.2721
  810THF     C311660   0.098  -0.080   1.152  0.1667  0.3980  0.1179
  810THF     H411661   0.380   0.019   1.037  0.3645  0.6086 -1.1499
  810THF     H511662   0.250   0.007   0.926  1.1216  0.0875 -0.9376
  810THF     H611663   0.064  -0.079   1.256  1.4439  0.6133  0.5551
  810THF     H711664   0.027  -0.060   1.072  1.2183  2.5487 -0.3433
  810THF     C811665   0.166  -0.214   1.143 -0.2311 -0.0896  0.4848
  810THF     C911666   0.269  -0.178   1.033 -0.1809 -0.1035  0.2794
  810THF    H1011667   0.093  -0.292   1.117 -2.7105  2.3380 -0.3455
  810THF    H1111668   0.214  -0.229   1.239 -1.1087 -0.9720  0.8119
  810THF    H1211669   0.366  -0.224   1.051 -0.0013 -0.2883 -1.0550
  810THF    H1311670   0.232  -0.223   0.941 -0.0776 -0.3097  0.3379
  811THF     O111671   3.455   5.011   5.376  0.8141 -0.5857 -0.1339
  811THF     C211672   3.326   4.967   5.334 -0.3130  0.2870 -0.2306
  811THF     C311673   3.479   5.143   5.333  0.3483 -0.1274 -0.2506
  811THF     H411674   3.267   4.989   5.423  0.8617  2.8450  0.0209
  811THF     H511675   3.314   4.862   5.306  0.0692  0.4057 -0.8654
  811THF     H611676   3.506   5.212   5.413 -2.0487  0.1907  0.3685
  811THF     H711677   3.552   5.134   5.253 -1.9065 -2.0385 -2.2182
  811THF     C811678   3.347   5.193   5.272 -0.2591 -0.4228  0.6141
  811THF     C911679   3.285   5.066   5.223 -0.0897  0.5387  0.1085
  811THF    H1011680   3.376   5.256   5.187 -0.0195 -1.1611  0.1376
  811THF    H1111681   3.280   5.241   5.343 -2.2921  0.1487 -1.5610
  811THF    H1211682   3.176   5.065   5.217 -0.0795 -1.8902 -0.9850
  811THF    H1311683   3.322   5.035   5.125  0.1694  0.6478  0.1717
  812THF     O111684   4.451   0.691   3.217 -0.0303  0.1875  0.2577
  812THF     C211685   4.368   0.579   3.224  0.2366 -0.1551 -0.1890
  812THF     C311686   4.377   0.790   3.146 -0.4075  0.2243 -0.3332
  812THF     H411687   4.304   0.580   3.312  0.3484  1.5759 -0.0944
  812THF     H511688   4.429   0.489   3.235  0.3970 -0.3888 -2.3880
  812THF     H611689   4.313   0.844   3.216  0.2001 -1.2397  1.4485
  812THF     H711690   4.442   0.870   3.110 -1.8569  1.7389  0.2813
  812THF     C811691   4.305   0.717   3.042  0.1974 -0.3484 -0.1059
  812THF     C911692   4.281   0.580   3.096  0.7548  0.1894  0.1202
  812THF    H1011693   4.375   0.717   2.958  0.6608  0.1413  0.2723
  812THF    H1111694   4.219   0.766   2.996  1.3596  0.2756 -1.7333
  812THF    H1211695   4.176   0.565   3.124  0.2354  4.0697  0.8292
  812THF    H1311696   4.299   0.507   3.017 -0.9919  0.5703 -0.6807
  813THF     O111697   0.688   4.598   3.167 -0.1745  0.0126 -0.0890
  813THF     C211698   0.552   4.617   3.121 -0.1864 -0.6395  0.2917
  813THF     C311699   0.783   4.650   3.070  0.0208  0.2215  0.1433
  813THF     H411700   0.472   4.595   3.192 -1.5109  0.6835 -0.7214
  813THF     H511701   0.535   4.557   3.031 -1.2453  3.4986 -2.5801
  813THF     H611702   0.878   4.688   3.108 -0.2202  3.0746 -1.8080
  813THF     H711703   0.815   4.583   2.991  0.6966  1.8296 -1.0020
  813THF     C811704   0.702   4.766   2.998 -0.1033  1.0250  0.1464
  813THF     C911705   0.561   4.757   3.062 -0.7681 -0.1485  0.3536
  813THF    H1011706   0.697   4.742   2.892  1.0194  0.4609  0.2079
  813THF    H1111707   0.752   4.863   3.002  0.5130  0.7519 -0.6927
  813THF    H1211708   0.559   4.834   3.139 -1.0061  1.8538 -1.5308
  813THF    H1311709   0.485   4.787   2.990  1.0135  1.6758 -0.8855
  814THF     O111710   0.275   0.567   4.764  0.0434  0.2005  0.2780
  814THF     C211711   0.192   0.626   4.668 -0.1499 -0.0455 -0.5075
  814THF     C311712   0.404   0.611   4.741  0.4664  0.4912 -0.0060
  814THF     H411713   0.156   0.714   4.720 -0.6023 -1.0136  0.8931
  814THF     H511714   0.102   0.570   4.643  0.9785 -0.9768 -2.7378
  814THF     H611715   0.413   0.709   4.788 -0.7435  0.5955  0.0171
  814THF     H711716   0.478   0.548   4.792  2.3917  2.9616  0.4619
  814THF     C811717   0.412   0.621   4.590 -0.1735  0.2231 -0.7997
  814THF     C911718   0.269   0.656   4.545  0.3423  0.2362  0.2016
  814THF    H1011719   0.450   0.528   4.549 -0.7781 -0.6324  0.5192
  814THF    H1111720   0.487   0.698   4.568  0.2531  0.3551  0.9610
  814THF    H1211721   0.251   0.761   4.519 -0.1306  0.4462  1.3332
  814THF    H1311722   0.259   0.596   4.455  1.4790  0.8530 -0.3629
  815THF     O111723   4.553   2.355   2.216  0.2473  0.9586 -0.3240
  815THF     C211724   4.648   2.249   2.233  0.1376  0.4003 -0.7091
  815THF     C311725   4.559   2.394   2.076 -0.1719 -0.2843 -0.4741
  815THF     H411726   4.611   2.160   2.181 -1.9834  2.2089 -2.4774
  815THF     H511727   4.650   2.227   2.340 -3.1260 -0.2061 -0.6542
  815THF     H611728   4.505   2.311   2.030 -1.4506  0.5623 -0.5582
  815THF     H711729   4.507   2.489   2.063 -2.3777 -1.3620 -0.0319
  815THF     C811730   4.701   2.384   2.042 -0.5591 -0.5067  0.0162
  815THF     C911731   4.767   2.309   2.156  0.2157  0.3740 -0.5815
  815THF    H1011732   4.750   2.481   2.035  3.2776 -2.3662 -1.6015
  815THF    H1111733   4.710   2.331   1.947  3.4384 -0.3906  0.1573
  815THF    H1211734   4.842   2.237   2.125 -0.9131 -0.4260 -1.5921
  815THF    H1311735   4.811   2.380   2.225 -0.3640 -0.4032  0.6140
  816THF     O111736   2.149   0.255   0.546  0.1580  0.0275  0.0303
  816THF     C211737   2.224   0.191   0.445  0.4542 -0.1426  0.1893
  816THF     C311738   2.171   0.190   0.662 -0.9774  0.3795 -0.2436
  816THF     H411739   2.327   0.225   0.433  0.1621  0.4731 -0.6362
  816THF     H511740   2.178   0.198   0.347 -1.3854 -2.2537  0.8274
  816THF     H611741   2.247   0.252   0.710 -0.4603 -0.0112 -0.5463
  816THF     H711742   2.081   0.185   0.723 -0.6757 -2.6508  0.1042
  816THF     C811743   2.224   0.048   0.627  0.0334 -0.1119 -0.7588
  816THF     C911744   2.204   0.045   0.479 -0.4359  0.1822  0.5372
  816THF    H1011745   2.170  -0.032   0.677  0.5303  0.0689  0.0926
  816THF    H1111746   2.331   0.041   0.645 -0.0627  0.0116 -0.0851
  816THF    H1211747   2.269  -0.022   0.423  0.9844  0.8025  1.4017
  816THF    H1311748   2.100   0.039   0.447 -0.0657 -1.1584 -0.5141
  817THF     O111749   5.346   4.649   2.602  0.1040  0.0760  0.6356
  817THF     C211750   5.371   4.508   2.573  0.7155  0.0666  0.3157
  817THF     C311751   5.311   4.722   2.483  1.0871 -0.0594  0.0545
  817THF     H411752   5.295   4.460   2.635 -0.3213  0.0523 -0.9213
  817THF     H511753   5.470   4.472   2.600  2.2345  2.0947 -2.1556
  817THF     H611754   5.244   4.808   2.493  1.7125  0.8754 -2.8915
  817THF     H711755   5.396   4.760   2.427  1.2440  0.4527  0.6279
  817THF     C811756   5.241   4.611   2.402 -0.8995  0.4874 -0.6733
  817THF     C911757   5.336   4.494   2.425 -0.5547  0.5703 -0.4430
  817THF    H1011758   5.221   4.630   2.296  0.9910 -1.0512 -1.3719
  817THF    H1111759   5.141   4.598   2.442 -0.1400 -0.9745  0.8488
  817THF    H1211760   5.286   4.398   2.417 -1.7671  1.2025 -0.6917
  817THF    H1311761   5.417   4.497   2.352  0.2208  1.1275  0.4184
  818THF     O111762   1.442   0.804   4.701  0.1011 -0.6049 -0.0895
  818THF     C211763   1.354   0.834   4.591  0.9966 -0.0024  0.0747
  818THF     C311764   1.520   0.684   4.662  0.3742 -0.3547 -0.6176
  818THF     H411765   1.399   0.900   4.517  1.5877 -0.5706 -0.0787
  818THF     H511766   1.258   0.878   4.621  0.3032 -0.7104 -1.0453
  818THF     H611767   1.617   0.720   4.628  0.2763 -0.1421 -0.6777
  818THF     H711768   1.538   0.607   4.737  0.9497  1.2154  0.9303
  818THF     C811769   1.441   0.609   4.548  0.5265 -0.0215  0.6957
  818THF     C911770   1.321   0.700   4.529 -0.1051 -0.2307  0.3646
  818THF    H1011771   1.413   0.509   4.582  1.0605  0.3609  2.3353
  818THF    H1111772   1.506   0.614   4.460  1.3087  0.8819  1.3028
  818THF    H1211773   1.275   0.704   4.430 -0.6756  2.0143  0.6480
  818THF    H1311774   1.242   0.661   4.593  2.0957 -1.2258  2.6238
  819THF     O111775   4.581   4.436   1.317  0.0984  0.6057  0.2541
  819THF     C211776   4.622   4.326   1.241  0.3759 -0.8534  0.0349
  819THF     C311777   4.696   4.513   1.346  0.0671 -0.2218  0.1915
  819THF     H411778   4.545   4.265   1.194  0.6569  0.2722 -2.0333
  819THF     H511779   4.689   4.265   1.301  0.7046  0.9172  1.5700
  819THF     H611780   4.680   4.619   1.365  0.5257 -0.1001 -0.0680
  819THF     H711781   4.758   4.473   1.426 -0.3983  0.1498  0.7471
  819THF     C811782   4.786   4.498   1.217  0.4482  0.7800 -0.2715
  819THF     C911783   4.715   4.392   1.137  0.3249  0.4589 -0.5423
  819THF    H1011784   4.884   4.466   1.255  0.3900  0.4041 -0.4364
  819THF    H1111785   4.788   4.594   1.166  1.6475  0.2252 -1.3252
  819THF    H1211786   4.665   4.434   1.050 -1.2610 -1.1415 -0.4681
  819THF    H1311787   4.786   4.318   1.099  0.2480  0.2115 -0.2135
  820THF     O111788   0.262   4.264   3.520  0.3391  0.1800  1.0138
  820THF     C211789   0.353   4.159   3.491 -0.4900  0.6274  0.0092
  820THF     C311790   0.223   4.304   3.393  0.1393  0.2182  0.4777
  820THF     H411791   0.308   4.072   3.442  0.8103  1.0978 -2.1984
  820THF     H511792   0.398   4.131   3.586 -0.7703 -0.6554 -0.2190
  820THF     H611793   0.151   4.236   3.347  2.1308 -0.7708 -1.3544
  820THF     H711794   0.178   4.403   3.402  2.3846  1.6360 -2.2858
  820THF     C811795   0.347   4.305   3.300 -0.1180 -0.0243 -0.3270
  820THF     C911796   0.448   4.229   3.385  0.4452  0.3473  0.0166
  820THF    H1011797   0.381   4.405   3.275  1.6909 -1.1836 -2.9576
  820THF    H1111798   0.332   4.271   3.198  0.4288 -1.0974 -0.0634
  820THF    H1211799   0.516   4.168   3.326 -1.5000  0.0951 -2.1210
  820THF    H1311800   0.514   4.299   3.435  0.3965  1.6214 -1.5981
  821THF     O111801   5.088   3.790   5.353  0.2065 -0.1484  0.0141
  821THF     C211802   5.084   3.852   5.222  0.2291 -0.4657 -1.2210
  821THF     C311803   4.990   3.841   5.445  0.1743 -0.1950  0.3606
  821THF     H411804   5.079   3.771   5.149 -2.7934 -2.0812  0.5999
  821THF     H511805   5.176   3.909   5.211  0.5620 -0.7203  0.0720
  821THF     H611806   4.948   3.780   5.525 -2.4256  2.9200  1.6145
  821THF     H711807   5.028   3.926   5.503 -0.8613 -0.6893  1.8211
  821THF     C811808   4.879   3.875   5.346 -0.2881  0.3789 -0.4645
  821THF     C911809   4.945   3.925   5.219  0.4267 -1.2324  0.3796
  821THF    H1011810   4.813   3.948   5.392 -0.6622  0.4270 -1.0618
  821THF    H1111811   4.808   3.793   5.336 -1.0507  1.1187 -1.3238
  821THF    H1211812   4.882   3.892   5.136  2.0096 -3.2340 -0.1091
  821THF    H1311813   4.947   4.034   5.223 -0.8032 -1.2323  2.6666
  822THF     O111814   5.220   4.652   3.843  0.2964  0.3995 -0.1424
  822THF     C211815   5.256   4.540   3.930  0.5206  0.2074  0.2163
  822THF     C311816   5.174   4.597   3.719 -0.4963  0.6208 -0.4190
  822THF     H411817   5.264   4.555   4.038 -1.8770 -2.1660  0.8324
  822THF     H511818   5.352   4.495   3.905 -0.1782 -0.4450 -1.4553
  822THF     H611819   5.096   4.645   3.659 -0.4986  0.4833 -0.5260
  822THF     H711820   5.264   4.576   3.662  0.2965 -2.9996  1.8344
  822THF     C811821   5.116   4.464   3.745 -0.0028 -0.1837 -0.2747
  822THF     C911822   5.151   4.435   3.892 -0.3123  0.3677 -0.6912
  822THF    H1011823   5.152   4.386   3.678 -2.1886 -1.2354 -0.3091
  822THF    H1111824   5.009   4.468   3.724 -0.1848  3.7766  0.5504
  822THF    H1211825   5.067   4.452   3.959  1.1381 -0.9124  1.5856
  822THF    H1311826   5.187   4.333   3.900 -1.5514 -0.1038 -0.9911
  823THF     O111827   4.211   0.207   4.121 -0.2714 -0.1661  0.0134
  823THF     C211828   4.155   0.095   4.050 -0.2018 -1.3421 -0.3840
  823THF     C311829   4.130   0.218   4.241  0.0053 -0.0451  1.0593
  823THF     H411830   4.232   0.073   3.976  1.7898  3.1331  0.0264
  823THF     H511831   4.060   0.127   4.008 -1.1081 -0.1366  2.3785
  823THF     H611832   4.193   0.265   4.317  0.3850 -0.9467  1.3188
  823THF     H711833   4.047   0.283   4.215  1.0642 -0.1079 -3.2906
  823THF     C811834   4.086   0.076   4.277 -0.4992  0.4128  0.0386
  823THF     C911835   4.142  -0.004   4.158  0.1885 -0.6251  0.0630
  823THF    H1011836   3.978   0.076   4.292 -0.5258  0.9786 -0.1210
  823THF    H1111837   4.113   0.034   4.374  0.8563 -1.3659 -1.0505
  823THF    H1211838   4.240  -0.044   4.184 -0.2247 -1.1770  0.8102
  823THF    H1311839   4.082  -0.093   4.139  0.6100 -0.8308 -0.3499
  824THF     O111840   0.956   4.600   4.876 -0.4264  0.3452  0.1811
  824THF     C211841   0.836   4.594   4.809 -0.0509  0.1750  0.7677
  824THF     C311842   1.022   4.718   4.828 -0.0066 -0.1827 -0.0913
  824THF     H411843   0.770   4.522   4.859 -1.5632  1.2387  0.3926
  824THF     H511844   0.866   4.563   4.709  1.6933  0.4806  1.1619
  824THF     H611845   1.114   4.734   4.884  0.7079 -2.2124 -0.5716
  824THF     H711846   1.053   4.716   4.723 -0.3415  0.0682 -0.1949
  824THF     C811847   0.903   4.814   4.857 -0.7824  0.4386  0.3750
  824THF     C911848   0.781   4.732   4.819  0.1579  0.1941 -0.1261
  824THF    H1011849   0.922   4.906   4.801 -0.4923  0.8114  1.0781
  824THF    H1111850   0.904   4.834   4.964  1.2550 -1.3879  0.7495
  824THF    H1211851   0.698   4.735   4.890  1.3067 -1.1120  1.3270
  824THF    H1311852   0.744   4.756   4.719  2.2908  0.9171 -0.7755
  825THF     O111853   0.902   5.276   1.342  0.1069 -0.6811 -0.0934
  825THF     C211854   0.867   5.319   1.472 -0.2984  0.4767 -0.4768
  825THF     C311855   0.850   5.380   1.263 -0.3187  0.3300 -0.5165
  825THF     H411856   0.935   5.400   1.499  0.6247  0.1379 -1.7107
  825THF     H511857   0.892   5.249   1.552  0.7008  3.0620  1.6296
  825THF     H611858   0.905   5.473   1.280  0.0896  0.2369 -1.3214
  825THF     H711859   0.852   5.357   1.157 -1.4690  1.0902 -0.7324
  825THF     C811860   0.710   5.394   1.321 -0.6459  0.0306 -0.5940
  825THF     C911861   0.726   5.370   1.469 -0.0839 -0.1034 -0.5225
  825THF    H1011862   0.653   5.314   1.274  0.3568 -0.6132 -0.7381
  825THF    H1111863   0.666   5.493   1.306  0.6034  0.5230 -1.1164
  825THF    H1211864   0.717   5.461   1.528 -0.8270 -0.5748  0.1065
  825THF    H1311865   0.657   5.299   1.515  0.3076  0.5119  1.0784
  826THF     O111866   0.927   2.504   3.846  0.2714 -0.0481  0.2228
  826THF     C211867   0.850   2.415   3.773  0.4667 -0.0563  0.5627
  826THF     C311868   1.063   2.482   3.811  0.6132 -0.1257 -0.2592
  826THF     H411869   0.742   2.430   3.785  0.4365 -0.1239  0.3729
  826THF     H511870   0.870   2.314   3.810 -2.4133 -1.2407 -0.8436
  826THF     H611871   1.129   2.560   3.848 -0.7405  0.6766  0.5268
  826THF     H711872   1.095   2.388   3.855  3.6820  1.1505  0.4784
  826THF     C811873   1.066   2.446   3.658  0.4706  0.1849 -0.4752
  826THF     C911874   0.916   2.435   3.633  1.3037 -1.0192 -0.3486
  826THF    H1011875   1.114   2.349   3.644 -0.0397  0.0178 -1.0975
  826THF    H1111876   1.129   2.510   3.597  2.5562 -0.4222  0.9277
  826THF    H1211877   0.890   2.536   3.601  1.5229 -0.9154 -0.2037
  826THF    H1311878   0.883   2.368   3.554  0.5688 -0.9491 -0.1035
  827THF     O111879   0.349   0.472   1.228  0.0818 -0.3237  0.1555
  827THF     C211880   0.442   0.519   1.128 -0.0224 -0.2625 -0.9777
  827THF     C311881   0.341   0.334   1.210 -0.0740  0.2477  0.3261
  827THF     H411882   0.449   0.626   1.148  1.6914 -0.1612 -1.8988
  827THF     H511883   0.405   0.501   1.027 -1.5142 -1.9839 -0.1881
  827THF     H611884   0.304   0.278   1.295 -2.3153 -2.0751 -1.9979
  827THF     H711885   0.279   0.312   1.123  1.0522 -1.9625  0.0212
  827THF     C811886   0.483   0.291   1.191 -0.8366 -0.3083 -0.0392
  827THF     C911887   0.561   0.423   1.159  0.0706 -0.3540 -0.3183
  827THF    H1011888   0.495   0.210   1.119 -0.6979 -2.3122  2.0975
  827THF    H1111889   0.526   0.251   1.283  3.0451 -0.3438 -1.6845
  827THF    H1211890   0.631   0.455   1.236  2.6887  0.4956 -2.8391
  827THF    H1311891   0.617   0.409   1.067 -0.4973 -1.0041 -0.5689
  828THF     O111892   2.747   3.477   0.193 -0.3496  0.2851 -0.8275
  828THF     C211893   2.637   3.560   0.151 -0.2017  0.2566  0.5826
  828THF     C311894   2.788   3.408   0.078 -0.3050 -0.3551 -0.5881
  828THF     H411895   2.673   3.652   0.104  0.6661 -1.9394 -3.4662
  828THF     H511896   2.577   3.579   0.240  0.3865  0.5402  0.9318
  828THF     H611897   2.852   3.484   0.034  0.0201  0.2872  0.9384
  828THF     H711898   2.840   3.316   0.107 -1.8556 -1.0259  0.2081
  828THF     C811899   2.663   3.377  -0.004 -0.1683  0.4409  0.1123
  828THF     C911900   2.565   3.483   0.040 -0.4740  0.1175 -0.4684
  828THF    H1011901   2.631   3.273   0.003 -0.4896  0.3955 -1.5176
  828THF    H1111902   2.681   3.398  -0.110  2.6196  1.9585  0.7659
  828THF    H1211903   2.532   3.550  -0.040 -0.2098  1.0462  0.1787
  828THF    H1311904   2.473   3.434   0.073  0.5702 -2.3790 -1.0918
  829THF     O111905   2.097   1.006   2.179  0.3181  0.0403  0.3892
  829THF     C211906   1.996   0.903   2.166  0.1015 -0.0922 -0.2149
  829THF     C311907   2.076   1.079   2.296  0.0774 -0.5175  0.1539
  829THF     H411908   2.027   0.817   2.106 -2.3463 -0.4211 -1.1636
  829THF     H511909   1.905   0.943   2.121  2.0328  2.8176 -1.8005
  829THF     H611910   2.171   1.085   2.349 -0.2605  2.2591  0.5602
  829THF     H711911   2.035   1.176   2.268 -0.1641 -0.8914 -0.8332
  829THF     C811912   1.969   0.993   2.385  0.6171  0.3022  0.6319
  829THF     C911913   1.972   0.859   2.310 -0.3193 -0.4937  0.1679
  829THF    H1011914   1.875   1.049   2.378  0.7227  0.5803  1.3449
  829THF    H1111915   1.978   0.986   2.493 -1.9089 -1.3983  0.8117
  829THF    H1211916   2.058   0.801   2.342  0.5501  0.7157  0.0908
  829THF    H1311917   1.875   0.811   2.324 -1.0153  1.3840  2.4484
  830THF     O111918   4.850   1.586   3.821 -0.0216 -0.0799 -0.1161
  830THF     C211919   4.918   1.673   3.914 -0.3798 -0.4063 -0.1158
  830THF     C311920   4.803   1.675   3.722 -0.0391 -0.2335  0.8759
  830THF     H411921   5.012   1.708   3.870  1.1017 -2.0825  1.5386
  830THF     H511922   4.953   1.631   4.009  0.0746 -1.0673 -0.5611
  830THF     H611923   4.891   1.688   3.658 -1.0250  0.9264 -0.2996
  830THF     H711924   4.723   1.628   3.665 -0.2854  1.0120  0.1584
  830THF     C811925   4.746   1.806   3.792 -0.7837 -0.0886 -0.1648
  830THF     C911926   4.821   1.792   3.929  0.5465  0.9798  0.1719
  830THF    H1011927   4.637   1.813   3.800 -0.6420  0.3979  2.2489
  830THF    H1111928   4.786   1.898   3.749 -1.6438  0.3132 -0.1359
  830THF    H1211929   4.866   1.886   3.961 -0.1329  1.5626 -0.5507
  830THF    H1311930   4.745   1.776   4.006  0.5007  2.3737  0.4396
  831THF     O111931   1.546   1.301   2.643  0.1944 -0.5891  0.0015
  831THF     C211932   1.687   1.303   2.658  0.4590  0.2975 -0.2639
  831THF     C311933   1.514   1.290   2.504 -0.3001 -0.4143  0.4677
  831THF     H411934   1.721   1.199   2.660  2.9297  0.8986 -3.2385
  831THF     H511935   1.715   1.350   2.752  1.7452 -3.6680  1.5762
  831THF     H611936   1.513   1.187   2.468  1.3568  0.1609 -1.4216
  831THF     H711937   1.424   1.343   2.473 -1.9412 -0.9684  3.8219
  831THF     C811938   1.635   1.360   2.432  0.0231 -0.3572  0.3224
  831THF     C911939   1.737   1.385   2.533  0.3370  0.3778 -0.9802
  831THF    H1011940   1.598   1.444   2.374 -2.8632 -0.3553  1.9892
  831THF    H1111941   1.673   1.297   2.351 -1.6973 -0.6923 -0.2662
  831THF    H1211942   1.838   1.351   2.508 -0.1303 -1.3971 -0.6114
  831THF    H1311943   1.748   1.493   2.541 -1.0841  0.5481 -1.0271
  832THF     O111944   0.509   3.288   1.038 -0.5290  0.7231 -0.0500
  832THF     C211945   0.642   3.258   0.989  0.0491 -0.3534  0.0361
  832THF     C311946   0.410   3.218   0.965 -0.0646  0.2144 -0.1910
  832THF     H411947   0.696   3.237   1.081  1.9565  1.0712 -0.6947
  832THF     H511948   0.685   3.336   0.926 -0.8442  1.2942  1.3751
  832THF     H611949   0.325   3.216   1.033 -0.2459  0.4806 -0.4041
  832THF     H711950   0.372   3.268   0.875 -2.2278 -1.3306 -0.2149
  832THF     C811951   0.479   3.084   0.941  0.2813 -0.0344  0.2910
  832THF     C911952   0.620   3.123   0.919  0.0973 -0.2434 -0.1159
  832THF    H1011953   0.429   3.010   0.878  0.4524 -0.9736  1.2298
  832THF    H1111954   0.485   3.027   1.033 -2.1694  2.0886  1.8884
  832THF    H1211955   0.682   3.035   0.934 -0.6839 -1.0678 -1.4942
  832THF    H1311956   0.619   3.145   0.812 -4.3609  1.6690  0.0829
  833THF     O111957   5.378   0.355   4.093 -0.1043  0.2872 -0.1245
  833THF     C211958   5.416   0.268   4.201 -0.2007  0.2926 -0.5361
  833THF     C311959   5.401   0.490   4.127 -0.4134 -0.0303  0.3215
  833THF     H411960   5.420   0.164   4.170 -0.1698 -1.0806  3.4957
  833THF     H511961   5.341   0.274   4.281  0.2926  0.4626 -0.0755
  833THF     H611962   5.401   0.544   4.032 -1.9107  2.8397  1.8180
  833THF     H711963   5.316   0.514   4.191 -1.1763  0.4527 -0.8297
  833THF     C811964   5.528   0.483   4.208  0.7316 -0.1657 -0.2022
  833THF     C911965   5.550   0.331   4.238  0.2604 -0.2773 -0.5887
  833THF    H1011966   5.525   0.539   4.301  2.5683 -0.6423  0.1771
  833THF    H1111967   5.613   0.526   4.155 -0.1161 -0.0964 -1.5722
  833THF    H1211968   5.637   0.300   4.181  0.5659  0.0338 -0.2952
  833THF    H1311969   5.579   0.315   4.342 -0.0702  2.8777  0.1111
  834THF     O111970   0.558   0.841   3.120  0.2503  0.0211  0.2804
  834THF     C211971   0.653   0.867   3.019 -0.4126 -0.5127 -0.2435
  834THF     C311972   0.450   0.935   3.116 -0.3844  0.3218  0.1390
  834THF     H411973   0.642   0.822   2.920  0.8731  1.8654 -1.5683
  834THF     H511974   0.751   0.832   3.053 -0.0807  0.6186  0.0195
  834THF     H611975   0.362   0.878   3.087 -0.9084  1.9251 -1.6481
  834THF     H711976   0.431   0.989   3.209 -0.9792 -0.3737  0.4341
  834THF     C811977   0.492   1.036   3.010  0.8367  0.1906 -0.0765
  834THF     C911978   0.642   1.017   2.998  0.2492 -0.4352 -0.0898
  834THF    H1011979   0.457   1.139   3.016  1.6846  0.4576  0.3732
  834THF    H1111980   0.448   1.012   2.913 -0.1124  2.2452 -0.2038
  834THF    H1211981   0.685   1.067   2.911 -0.0249 -0.4821 -0.2514
  834THF    H1311982   0.691   1.069   3.081 -0.1236 -3.0604  1.8961
  835THF     O111983   0.819   1.377   1.962 -0.5384 -0.4595 -0.3071
  835THF     C211984   0.956   1.425   1.974 -0.7106  0.1146 -0.1081
  835THF     C311985   0.807   1.344   1.824 -0.5802  0.7213 -0.4572
  835THF     H411986   1.020   1.337   1.976 -2.4931 -1.3012 -1.4609
  835THF     H511987   0.959   1.478   2.069 -2.7021 -0.7727  0.5225
  835THF     H611988   0.847   1.245   1.803  0.5806  1.0446  0.1507
  835THF     H711989   0.701   1.340   1.802 -0.2572  0.0838 -2.0538
  835THF     C811990   0.873   1.451   1.746  0.1769 -0.2967  0.6751
  835THF     C911991   0.968   1.512   1.849  0.2574  0.1340 -0.2416
  835THF    H1011992   0.809   1.536   1.721  1.8190  1.0002  0.6706
  835THF    H1111993   0.923   1.412   1.658  1.1198  0.1845  0.9866
  835THF    H1211994   1.072   1.507   1.816 -0.4806  2.8238 -3.4360
  835THF    H1311995   0.937   1.613   1.874 -0.9378  0.0688 -1.3978
  836THF     O111996   2.560   3.052   5.036  0.2567  0.0205 -0.5473
  836THF     C211997   2.614   2.931   5.092  0.0439  0.2942  0.4352
  836THF     C311998   2.629   3.169   5.085 -0.6374  0.1233 -0.4856
  836THF     H411999   2.676   2.883   5.016 -1.3614  1.8165 -1.8019
  836THF     H512000   2.538   2.870   5.141 -0.6197 -0.1741 -1.1129
  836THF     H612001   2.711   3.202   5.021  0.7574  1.8653  2.0477
  836THF     H712002   2.567   3.258   5.092  0.4317  0.8865 -0.3827
  836THF     C812003   2.686   3.128   5.221 -0.4474  0.3020  0.1597
  836THF     C912004   2.716   2.974   5.199 -0.2906 -0.9164  0.6495
  836THF    H1012005   2.620   3.144   5.306 -1.6312  0.7461 -0.8066
  836THF    H1112006   2.779   3.183   5.233 -0.9907  1.9155 -2.2820
  836THF    H1212007   2.821   2.970   5.170 -0.5475 -1.9886 -0.2053
  836THF    H1312008   2.706   2.920   5.293  1.2450 -0.1580  1.2724
  837THF     O112009   0.651   2.644   2.850 -0.0190 -0.1452 -0.0100
  837THF     C212010   0.695   2.520   2.908 -0.3938  0.2470  0.1171
  837THF     C312011   0.699   2.646   2.715  0.1197  0.2623 -0.4009
  837THF     H412012   0.616   2.486   2.976 -1.3086  0.1538 -0.9673
  837THF     H512013   0.789   2.528   2.962  2.5496 -0.8995 -4.2742
  837THF     H612014   0.644   2.701   2.639  0.5458 -1.0435 -1.7103
  837THF     H712015   0.796   2.694   2.718 -0.1318  0.7346  0.3421
  837THF     C812016   0.707   2.511   2.672  0.1826  1.1583  0.2446
  837THF     C912017   0.704   2.421   2.796  0.0971  0.1507 -0.5010
  837THF    H1012018   0.804   2.494   2.625  0.0023 -1.9030  0.7512
  837THF    H1112019   0.629   2.467   2.609  0.5285 -0.4798  0.8964
  837THF    H1212020   0.617   2.355   2.789 -0.3724  0.7897 -0.8977
  837THF    H1312021   0.797   2.367   2.809 -0.3589 -0.7628 -0.9261
  838THF     O112022   3.400   1.558   4.705  0.5013 -0.1530  0.1060
  838THF     C212023   3.430   1.653   4.597  0.2915  0.7457 -0.1903
  838THF     C312024   3.510   1.582   4.795 -0.2012  0.1092  0.0762
  838THF     H412025   3.334   1.665   4.547  0.1262 -0.8560 -0.2796
  838THF     H512026   3.498   1.615   4.522  1.2326  1.6291  0.1807
  838THF     H612027   3.474   1.547   4.891 -0.5218 -0.2758 -0.1794
  838THF     H712028   3.591   1.519   4.758  0.6375 -0.0074  2.0255
  838THF     C812029   3.536   1.735   4.787 -0.0972 -0.0790  1.6027
  838THF     C912030   3.490   1.776   4.648  0.2560 -0.1668 -0.3795
  838THF    H1012031   3.638   1.770   4.803 -0.0636  0.3935  0.4747
  838THF    H1112032   3.456   1.782   4.843  0.1800  1.1193  1.0325
  838THF    H1212033   3.420   1.859   4.659  0.9986  0.1598  2.9147
  838THF    H1312034   3.571   1.793   4.578  2.3027 -0.1673  1.8438
  839THF     O112035   2.634   4.956   1.644 -0.3083 -0.1338 -0.2823
  839THF     C212036   2.550   4.883   1.561  0.0269  0.3551  0.3986
  839THF     C312037   2.643   5.088   1.590  0.3820  0.5468  0.3310
  839THF     H412038   2.452   4.911   1.601  0.8140  1.2150  1.7938
  839THF     H512039   2.557   4.775   1.571 -0.6576  0.0182 -2.0579
  839THF     H612040   2.571   5.159   1.628 -0.4990  0.6163 -1.3707
  839THF     H712041   2.742   5.131   1.607  0.7035 -0.1940  0.4095
  839THF     C812042   2.619   5.076   1.440  0.1486  0.5081  0.9960
  839THF     C912043   2.592   4.933   1.424 -0.3073  0.5461 -0.9907
  839THF    H1012044   2.701   5.122   1.383  0.8530  0.9587  2.3284
  839THF    H1112045   2.529   5.133   1.418 -0.5387 -0.6180  0.8336
  839THF    H1212046   2.520   4.905   1.346 -0.6438  0.4677 -0.6532
  839THF    H1312047   2.682   4.875   1.404 -1.5905 -1.6664 -0.6211
  840THF     O112048   3.792   2.479   3.416 -0.2082 -0.6052  0.4788
  840THF     C212049   3.728   2.376   3.351 -0.3567  0.3626  0.0791
  840THF     C312050   3.718   2.504   3.532 -0.4002 -0.4185  0.3249
  840THF     H412051   3.772   2.283   3.386  1.3119  1.2238  0.3911
  840THF     H512052   3.738   2.377   3.242  2.2198 -0.5688  0.2392
  840THF     H612053   3.768   2.468   3.622  0.1786 -1.4773 -0.3996
  840THF     H712054   3.707   2.611   3.548  1.1145  0.1600 -2.1044
  840THF     C812055   3.579   2.441   3.511 -0.5825  0.2369 -0.3482
  840THF     C912056   3.582   2.391   3.373 -0.3499  0.6291  0.1948
  840THF    H1012057   3.486   2.495   3.528 -0.8216 -0.5558  0.9727
  840THF    H1112058   3.573   2.346   3.564  0.3644 -0.0409 -0.7142
  840THF    H1212059   3.523   2.300   3.360  0.5000  0.1752 -0.6677
  840THF    H1312060   3.542   2.470   3.309  1.9945  1.2915 -0.5673
  841THF     O112061   3.715   3.425   2.006  0.3562  0.1524 -0.0264
  841THF     C212062   3.668   3.290   2.019 -0.4518  0.3753 -0.6522
  841THF     C312063   3.798   3.441   2.117  0.4390  0.9774  0.4315
  841THF     H412064   3.745   3.216   1.995  0.6011  1.7333 -1.6123
  841THF     H512065   3.584   3.269   1.952 -2.7337  0.8165  1.8805
  841THF     H612066   3.897   3.397   2.102  0.2106  1.0520 -1.4955
  841THF     H712067   3.815   3.544   2.147 -1.7502  1.4554  0.1364
  841THF     C812068   3.730   3.371   2.232  0.2515  0.1248  0.1807
  841THF     C912069   3.646   3.267   2.165  0.2028 -0.2573  0.6008
  841THF    H1012070   3.659   3.438   2.281  0.9220  0.5610  0.5819
  841THF    H1112071   3.797   3.337   2.311  2.5810 -0.4893 -1.9137
  841THF    H1212072   3.674   3.166   2.196  2.4935  0.9819  2.9005
  841THF    H1312073   3.542   3.292   2.183  0.4798  0.8202  0.7500
  842THF     O112074   4.972   0.949   2.321 -0.7065 -0.3614 -0.2333
  842THF     C212075   4.861   0.865   2.320  0.2082  0.2392 -0.3756
  842THF     C312076   5.085   0.862   2.316 -0.1301  0.4428 -0.3891
  842THF     H412077   4.763   0.909   2.301 -0.6362 -0.7943  1.3197
  842THF     H512078   4.849   0.813   2.415 -1.5342  0.7833 -0.2656
  842THF     H612079   5.167   0.910   2.262  1.9914 -1.5606  0.9026
  842THF     H712080   5.110   0.819   2.412  0.5097  0.8771 -0.3512
  842THF     C812081   5.038   0.751   2.217  0.1518 -0.9221 -0.2626
  842THF     C912082   4.885   0.758   2.214 -0.7278  0.5745 -0.2787
  842THF    H1012083   5.055   0.655   2.265 -1.7718 -0.5264  1.3658
  842THF    H1112084   5.078   0.761   2.116 -1.7430 -0.3118 -0.9850
  842THF    H1212085   4.858   0.787   2.112 -2.7475 -0.5831 -0.1174
  842THF    H1312086   4.840   0.662   2.239  0.4705  0.0595 -0.0016
  843THF     O112087   1.430   1.361   0.232 -0.0883 -0.3724 -0.6034
  843THF     C212088   1.359   1.475   0.192  1.3307 -1.2254 -0.5708
  843THF     C312089   1.463   1.367   0.374  0.3193  0.4432  0.3011
  843THF     H412090   1.254   1.455   0.171  0.8358 -0.4605  0.9870
  843THF     H512091   1.411   1.516   0.106  0.2980 -0.4200 -0.8308
  843THF     H612092   1.374   1.330   0.426  0.2759 -0.7940 -0.6222
  843THF     H712093   1.559   1.321   0.394  0.0589 -0.2356  0.0248
  843THF     C812094   1.460   1.516   0.402 -0.6771 -0.3371  0.2707
  843THF     C912095   1.350   1.569   0.319 -0.1318  0.2525  0.5566
  843THF    H1012096   1.554   1.559   0.368 -0.4196 -0.5824  0.6599
  843THF    H1112097   1.453   1.542   0.508  0.0313 -0.7373  0.4199
  843THF    H1212098   1.255   1.552   0.370 -0.5686 -1.6605 -0.7704
  843THF    H1312099   1.346   1.674   0.291  0.0779 -0.3123 -1.8316
  844THF     O112100   1.016   4.289   4.934  0.3237 -0.1508 -0.1348
  844THF     C212101   1.028   4.144   4.937  0.5461 -0.3578  0.3714
  844THF     C312102   0.901   4.315   5.017 -0.0951 -0.2516  0.1737
  844THF     H412103   1.125   4.104   4.906  0.3662 -1.8022  1.5267
  844THF     H512104   0.949   4.101   4.876 -1.2621  2.0006  0.9215
  844THF     H612105   0.898   4.421   5.043  0.3272  0.2474 -1.6739
  844THF     H712106   0.808   4.287   4.969 -0.3379  0.2328  0.3550
  844THF     C812107   0.928   4.236   5.137  0.1987 -0.0268 -1.0456
  844THF     C912108   0.998   4.111   5.081  0.0144 -0.0411  0.3239
  844THF    H1012109   0.837   4.219   5.195  1.0859 -4.0214 -0.5873
  844THF    H1112110   1.000   4.283   5.205 -0.6204  0.2955 -0.3777
  844THF    H1212111   1.091   4.098   5.136 -0.2418 -1.5834  0.4326
  844THF    H1312112   0.935   4.022   5.076 -1.7642  1.1723 -0.0194
  845THF     O112113   0.310   1.493   0.943 -0.5542  0.2039  0.6172
  845THF     C212114   0.330   1.591   1.043 -0.6594  0.1512  0.2777
  845THF     C312115   0.233   1.547   0.833  0.2013 -0.5189  0.3340
  845THF     H412116   0.432   1.629   1.032 -0.9589  1.2097  1.0794
  845THF     H512117   0.317   1.538   1.138  0.7892 -0.3824  0.2130
  845THF     H612118   0.285   1.530   0.739 -0.2636  2.0603 -0.4735
  845THF     H712119   0.129   1.516   0.829 -0.6705  2.1414  0.5824
  845THF     C812120   0.222   1.703   0.861 -0.1056  0.1884 -0.4381
  845THF     C912121   0.226   1.703   1.015  0.1654  0.2504  0.0606
  845THF    H1012122   0.125   1.741   0.829 -0.2297 -0.0531 -0.3471
  845THF    H1112123   0.309   1.759   0.828 -0.4349  2.0842  1.6345
  845THF    H1212124   0.263   1.798   1.053  3.1893 -1.2050  1.0628
  845THF    H1312125   0.135   1.671   1.066 -0.2206 -0.2614 -0.9158
  846THF     O112126   2.341   0.139   3.982 -0.1727  0.0066 -0.2784
  846THF     C212127   2.281   0.264   3.965 -0.4510 -0.1472 -0.8448
  846THF     C312128   2.391   0.107   3.856 -0.3143 -0.4539  0.4990
  846THF     H412129   2.346   0.349   3.946 -1.4040  0.4865 -1.3890
  846THF     H512130   2.209   0.281   4.046  1.5213 -1.1972  1.2301
  846THF     H612131   2.487   0.159   3.862 -0.0963 -0.7968  0.0770
  846THF     H712132   2.384  -0.001   3.845 -0.1043 -0.4877  0.6858
  846THF     C812133   2.297   0.167   3.753 -0.6285  0.0720 -0.0054
  846THF     C912134   2.198   0.248   3.837 -0.4701  0.2012  0.1389
  846THF    H1012135   2.247   0.084   3.704 -1.7447  1.2538 -0.9230
  846THF    H1112136   2.347   0.221   3.673  0.5745  0.2991  0.8692
  846THF    H1212137   2.149   0.338   3.800 -1.9247 -1.1424 -1.3564
  846THF    H1312138   2.114   0.181   3.851 -0.0688 -0.1033  1.2184
  847THF     O112139   2.059   0.969   1.265  0.7284 -0.4794 -0.3531
  847THF     C212140   2.107   0.840   1.228  0.0311  0.3353  0.8469
  847THF     C312141   1.952   1.002   1.174 -0.5364  0.3188  0.2901
  847THF     H412142   2.064   0.754   1.279  0.9676 -0.6622 -0.0125
  847THF     H512143   2.213   0.843   1.250  0.3243  1.0128 -0.5520
  847THF     H612144   1.863   0.957   1.217 -0.3112  1.0949  1.6278
  847THF     H712145   1.944   1.111   1.174 -0.3578  0.3463  1.4304
  847THF     C812146   2.004   0.940   1.042  0.0144  0.3425 -0.6275
  847THF     C912147   2.097   0.828   1.076 -0.2783 -0.6608 -0.6894
  847THF    H1012148   2.048   1.024   0.988 -1.8794  1.3339 -0.7220
  847THF    H1112149   1.911   0.915   0.990 -1.3860 -0.3521  2.0546
  847THF    H1212150   2.045   0.734   1.058  1.4901 -1.4189 -2.1420
  847THF    H1312151   2.191   0.836   1.022 -1.2952 -0.8371 -2.5729
  848THF     O112152   3.521   1.478   1.054  0.2893 -0.2424  0.2478
  848THF     C212153   3.604   1.527   1.161  0.1218  0.6758  0.2124
  848THF     C312154   3.401   1.428   1.110  0.6203 -0.5300  0.1465
  848THF     H412155   3.692   1.583   1.129  1.7885 -2.0842 -0.3806
  848THF     H512156   3.653   1.443   1.211 -1.7705 -0.5588  0.1147
  848THF     H612157   3.326   1.427   1.030 -0.5032  2.1750  1.0308
  848THF     H712158   3.395   1.327   1.149 -1.0244  0.0892  1.6171
  848THF     C812159   3.375   1.521   1.227  0.4288  0.3754 -0.2736
  848THF     C912160   3.493   1.601   1.239  0.4017  0.2675 -0.1004
  848THF    H1012161   3.352   1.482   1.326 -0.5648  2.3361  0.3154
  848THF    H1112162   3.285   1.581   1.211 -1.0988 -2.2587 -2.3351
  848THF    H1212163   3.455   1.689   1.188 -2.0123 -1.2703 -1.1577
  848THF    H1312164   3.523   1.618   1.342 -0.8190 -2.1509  0.7434
  849THF     O112165   4.651   3.718   1.268 -0.2501 -0.0538  0.2272
  849THF     C212166   4.562   3.810   1.198 -0.1369  0.3650 -0.4383
  849THF     C312167   4.559   3.644   1.339  0.3279 -0.7257  0.2085
  849THF     H412168   4.537   3.758   1.105 -0.0207  0.1742 -0.3635
  849THF     H512169   4.621   3.896   1.167  0.0652 -0.4553 -2.5189
  849THF     H612170   4.501   3.578   1.276  0.1013  0.2912 -0.6739
  849THF     H712171   4.606   3.583   1.416 -0.1521 -0.6272  0.5839
  849THF     C812172   4.473   3.752   1.405  0.1624 -0.4766  0.2533
  849THF     C912173   4.450   3.850   1.296  0.0085 -0.5435  0.7541
  849THF    H1012174   4.534   3.815   1.469 -0.4241 -0.1128  0.4658
  849THF    H1112175   4.380   3.710   1.444 -0.0314 -1.1561 -0.8944
  849THF    H1212176   4.354   3.846   1.245  0.2511  0.2849  0.2123
  849THF    H1312177   4.454   3.952   1.335  0.2018  0.3595 -1.4656
  850THF     O112178   1.648   2.263   2.996  0.0727  0.6817  0.3220
  850THF     C212179   1.511   2.242   3.028  0.6219  0.6517 -0.8166
  850THF     C312180   1.691   2.139   2.943 -0.5557  0.0494  0.3536
  850THF     H412181   1.458   2.338   3.033  1.5991  1.1871 -0.4045
  850THF     H512182   1.521   2.224   3.135 -0.0048  0.5814 -0.7675
  850THF     H612183   1.784   2.146   2.886 -0.3031 -2.1848  0.4048
  850THF     H712184   1.725   2.064   3.014  1.4888  0.0101 -0.6130
  850THF     C812185   1.572   2.085   2.860  0.0947  0.1006 -0.2669
  850THF     C912186   1.451   2.126   2.946  0.8243 -0.2012 -0.2975
  850THF    H1012187   1.568   1.978   2.841  4.5318 -0.3023  0.1002
  850THF    H1112188   1.576   2.119   2.756  0.0729  2.5918  0.4873
  850THF    H1212189   1.369   2.156   2.881 -0.5981  0.8610  1.8907
  850THF    H1312190   1.431   2.040   3.010  0.5528 -0.5170 -0.8013
  851THF     O112191   1.328   0.823   0.729 -0.1318  0.0160 -0.0478
  851THF     C212192   1.206   0.770   0.667  0.1835 -0.0261  0.2627
  851THF     C312193   1.417   0.811   0.616 -0.0405  0.6051  0.4048
  851THF     H412194   1.166   0.838   0.591 -1.3706 -1.6606 -0.4668
  851THF     H512195   1.126   0.764   0.741 -0.3335  0.6626 -0.2280
  851THF     H612196   1.413   0.896   0.548  0.0786  0.5316  0.3051
  851THF     H712197   1.516   0.798   0.660 -0.3328 -0.3108  0.8224
  851THF     C812198   1.377   0.681   0.541  0.5434 -0.1995 -0.6223
  851THF     C912199   1.241   0.642   0.594  0.7605  0.1041  0.0961
  851THF    H1012200   1.449   0.605   0.568  1.3534  0.7516 -0.0348
  851THF    H1112201   1.379   0.690   0.433  0.5672 -2.2852 -0.8322
  851THF    H1212202   1.166   0.615   0.519 -0.3771 -0.5751  1.4158
  851THF    H1312203   1.244   0.568   0.674  0.4558  2.7836  2.7975
  852THF     O112204   2.063   1.230   3.334  0.7994 -0.2425  0.8380
  852THF     C212205   2.112   1.101   3.375  0.1926 -0.3088  0.6368
  852THF     C312206   2.161   1.295   3.254 -0.3506 -0.2735 -0.1082
  852THF     H412207   2.033   1.028   3.358  0.3291 -0.3511  0.1441
  852THF     H512208   2.134   1.100   3.481 -0.1793  1.1912  0.7523
  852THF     H612209   2.124   1.306   3.152  0.7454 -0.6541 -0.5530
  852THF     H712210   2.188   1.396   3.285 -4.1602  0.7648  0.3613
  852THF     C812211   2.283   1.203   3.254 -0.6215 -0.6929  0.3327
  852THF     C912212   2.232   1.065   3.287  0.1724 -0.1813 -0.5219
  852THF    H1012213   2.350   1.237   3.333 -0.6590 -0.8257  0.4214
  852THF    H1112214   2.337   1.216   3.160 -0.0345 -0.8323  0.6485
  852THF    H1212215   2.204   1.015   3.195  0.1637 -0.2316 -0.4916
  852THF    H1312216   2.296   0.995   3.340 -1.0727 -2.3013 -1.7028
  853THF     O112217   4.426   0.508   1.599  0.2160  0.0119  0.2594
  853THF     C212218   4.373   0.476   1.468  0.0918  0.5630 -0.3923
  853THF     C312219   4.440   0.649   1.627  0.2799 -0.1286 -0.1465
  853THF     H412220   4.308   0.390   1.482  0.5152  0.2640 -0.2672
  853THF     H512221   4.451   0.452   1.395  0.5485  1.5550 -0.2426
  853THF     H612222   4.369   0.675   1.705  1.3685  1.1715  0.4516
  853THF     H712223   4.537   0.689   1.658 -0.6179  1.3508  0.9023
  853THF     C812224   4.400   0.714   1.488 -0.0234 -0.0645  0.1216
  853THF     C912225   4.304   0.609   1.429 -0.2401 -0.6861 -0.3105
  853THF    H1012226   4.485   0.723   1.420 -0.5071  1.0259 -0.3625
  853THF    H1112227   4.371   0.818   1.499 -1.3946 -0.3306 -0.6573
  853THF    H1212228   4.209   0.626   1.479  0.1918 -2.1374  1.0747
  853THF    H1312229   4.273   0.617   1.324 -0.3110  0.3390 -0.2243
  854THF     O112230   3.170   3.426   0.468 -0.1150 -0.0073  0.3021
  854THF     C212231   3.071   3.428   0.568 -0.1102 -0.9022  0.1160
  854THF     C312232   3.106   3.359   0.360  0.3203 -0.2011  0.4574
  854THF     H412233   2.990   3.496   0.543 -0.3344 -1.4052 -0.5577
  854THF     H512234   3.116   3.449   0.666  0.6904 -1.4336 -0.1223
  854THF     H612235   3.039   3.428   0.309 -0.7430 -0.1290  1.8974
  854THF     H712236   3.167   3.310   0.283  0.6355  2.0316 -0.7956
  854THF     C812237   3.031   3.241   0.420 -0.1342 -0.4149 -0.6999
  854THF     C912238   2.998   3.300   0.554  0.3102  0.2965  0.3216
  854THF    H1012239   3.098   3.155   0.428  0.1130 -0.3657 -2.0150
  854THF    H1112240   2.940   3.216   0.365 -0.5969  0.7906 -0.5005
  854THF    H1212241   2.890   3.309   0.569  0.1865 -0.2053 -0.1861
  854THF    H1312242   3.029   3.228   0.630 -0.3230 -1.6636 -1.1813
  855THF     O112243   3.387   2.207   0.594 -0.3593 -0.3465 -0.4529
  855THF     C212244   3.325   2.268   0.485 -0.4278  0.0570 -0.6987
  855THF     C312245   3.336   2.273   0.704 -0.2945  0.0264  0.2998
  855THF     H412246   3.311   2.196   0.405  0.4357  0.0106 -0.8145
  855THF     H512247   3.400   2.333   0.440 -1.3567 -0.2537 -2.8349
  855THF     H612248   3.339   2.223   0.801 -3.0915  0.5533  0.7324
  855THF     H712249   3.390   2.367   0.706 -0.4362  0.1065  0.3242
  855THF     C812250   3.187   2.285   0.677 -0.0345 -0.1051  0.5306
  855THF     C912251   3.194   2.339   0.536 -0.6461  0.2865 -0.0567
  855THF    H1012252   3.138   2.360   0.739 -0.6366  0.1006 -0.1774
  855THF    H1112253   3.138   2.188   0.675  0.3450 -0.2982 -0.7770
  855THF    H1212254   3.102   2.305   0.487 -0.6964  0.8593 -0.3683
  855THF    H1312255   3.195   2.448   0.536 -1.0420  0.3071  0.9186
  856THF     O112256   4.053   1.695   5.146 -0.2044  0.3670 -0.6509
  856THF     C212257   4.173   1.765   5.127 -0.7652  1.1223 -0.0994
  856THF     C312258   3.989   1.673   5.020  0.0904  0.2831  0.5732
  856THF     H412259   4.253   1.694   5.106 -0.6850  1.6512 -1.6792
  856THF     H512260   4.206   1.813   5.220  0.3606  0.4828 -0.1491
  856THF     H612261   4.017   1.587   4.960  0.5927  1.1399 -0.4533
  856THF     H712262   3.882   1.654   5.036  0.1024  0.8996  1.5125
  856THF     C812263   4.033   1.787   4.932  0.3383 -0.0519  0.1858
  856THF     C912264   4.137   1.863   5.020  0.4083  0.0093  0.0906
  856THF    H1012265   3.952   1.854   4.904  2.6529  2.9822  0.2906
  856THF    H1112266   4.070   1.738   4.841 -2.8297 -2.5883  0.0530
  856THF    H1212267   4.217   1.901   4.957  0.7593 -1.8597 -0.6839
  856THF    H1312268   4.082   1.947   5.060  2.6124  0.6000  2.1212
  857THF     O112269   1.638   0.159   1.388 -0.6222 -0.5698  0.5778
  857THF     C212270   1.644   0.133   1.246 -0.0559 -0.0078  0.2156
  857THF     C312271   1.507   0.130   1.430  0.2467 -0.4417  0.6358
  857THF     H412272   1.679   0.030   1.234 -0.3348 -0.2171  1.1721
  857THF     H512273   1.712   0.194   1.186 -0.5561 -2.0494 -2.6838
  857THF     H612274   1.497   0.022   1.442 -0.4752 -0.4683 -0.0888
  857THF     H712275   1.494   0.173   1.530 -1.6396  2.3513 -0.6575
  857THF     C812276   1.420   0.173   1.317 -0.3814 -0.8546  0.8940
  857THF     C912277   1.504   0.167   1.191 -0.4862  0.3446  0.4435
  857THF    H1012278   1.400   0.278   1.340  1.3483 -0.6358  1.4973
  857THF    H1112279   1.327   0.121   1.295  0.1705 -0.3642 -3.2675
  857THF    H1212280   1.472   0.088   1.122 -1.2728 -0.0291  1.2066
  857THF    H1312281   1.518   0.265   1.146 -0.7931  0.5227  0.7292
  858THF     O112282   4.317   3.579   0.493 -0.2008  0.0655  0.2748
  858THF     C212283   4.223   3.602   0.594  0.1264 -0.2108  0.4672
  858THF     C312284   4.313   3.441   0.467 -0.1268  0.5114 -0.1483
  858THF     H412285   4.125   3.588   0.549  1.3217  0.4486 -2.6215
  858THF     H512286   4.223   3.700   0.642  1.6558  0.2892 -0.4527
  858THF     H612287   4.222   3.416   0.411 -0.0615  1.3161 -0.6288
  858THF     H712288   4.399   3.409   0.409  1.0210  0.0033  1.7674
  858THF     C812289   4.295   3.383   0.605 -0.3301  0.0815 -0.1753
  858THF     C912290   4.264   3.497   0.695 -0.1987  0.5415  0.3425
  858THF    H1012291   4.377   3.317   0.632 -0.8164 -1.4272 -2.1901
  858THF    H1112292   4.202   3.326   0.603 -0.4608  0.3064 -0.8173
  858THF    H1212293   4.194   3.463   0.772  0.8685 -3.1058 -0.1138
  858THF    H1312294   4.355   3.517   0.751  0.0445 -1.5518  0.7898
  859THF     O112295   3.066   3.244   5.074  0.2627 -0.1171  0.6274
  859THF     C212296   3.113   3.377   5.102  0.0002  0.2431 -0.6379
  859THF     C312297   3.101   3.168   5.183  0.1210  0.7873  0.2099
  859THF     H412298   3.070   3.455   5.040  1.5994  1.7857  0.0628
  859THF     H512299   3.221   3.373   5.088 -0.2251 -3.5037 -2.4023
  859THF     H612300   3.053   3.070   5.191  1.4571  0.0447 -0.3911
  859THF     H712301   3.208   3.148   5.185  0.2212  1.3234  0.3874
  859THF     C812302   3.072   3.250   5.306 -0.5094 -0.4456 -0.4089
  859THF     C912303   3.073   3.390   5.250  0.1827  0.0843 -1.1650
  859THF    H1012304   3.150   3.241   5.381  0.2890  0.6609 -1.0836
  859THF    H1112305   2.977   3.224   5.353 -0.2776  0.4268  0.5579
  859THF    H1212306   2.978   3.439   5.269 -0.1644 -0.0090 -2.5721
  859THF    H1312307   3.151   3.441   5.306  1.4193 -2.2020 -0.6809
  860THF     O112308   0.383   4.667   5.056  0.0956 -0.1330 -0.0089
  860THF     C212309   0.424   4.549   4.990 -0.2778 -0.2114 -0.3928
  860THF     C312310   0.492   4.715   5.132  0.1409 -0.3111  0.9534
  860THF     H412311   0.489   4.578   4.907 -1.8965  2.3393 -0.8817
  860THF     H512312   0.355   4.477   4.947  1.0832 -1.5247 -0.4815
  860THF     H612313   0.551   4.772   5.060 -0.4192 -1.8527 -0.8407
  860THF     H712314   0.459   4.781   5.212 -0.0091  0.9710 -0.1334
  860THF     C812315   0.559   4.589   5.178 -0.4788  0.5953 -0.3685
  860THF     C912316   0.519   4.478   5.087 -0.5002  0.0504 -0.7905
  860THF    H1012317   0.517   4.563   5.275 -0.5951  1.1790 -0.2530
  860THF    H1112318   0.667   4.597   5.190 -0.3529 -1.2739 -0.0932
  860THF    H1212319   0.606   4.434   5.037  0.4802 -0.7522  1.4642
  860THF    H1312320   0.474   4.395   5.142 -0.0523  0.2722 -0.0687
  861THF     O112321   5.435   2.489   1.541  0.0487 -0.1056 -0.1234
  861THF     C212322   5.329   2.583   1.553  1.0179 -0.1935 -0.0318
  861THF     C312323   5.380   2.382   1.458  0.5118  0.3496 -0.3586
  861THF     H412324   5.370   2.680   1.527  2.2596 -1.0923 -1.5398
  861THF     H512325   5.293   2.591   1.656  1.7749  1.2606  0.1457
  861THF     H612326   5.464   2.338   1.403  1.0747  1.3960 -0.3641
  861THF     H712327   5.331   2.305   1.517 -0.3552  0.9103 -0.3256
  861THF     C812328   5.287   2.449   1.355  0.7086  0.4576 -0.2873
  861THF     C912329   5.221   2.554   1.443  0.3444 -0.2937 -0.2318
  861THF    H1012330   5.215   2.374   1.320  1.1591 -0.4898  0.7434
  861THF    H1112331   5.346   2.498   1.278 -1.0417 -0.9677 -2.6506
  861THF    H1212332   5.189   2.639   1.382  2.4472  0.1951 -0.7341
  861THF    H1312333   5.134   2.501   1.481  0.1765 -0.1381 -0.3988
  862THF     O112334   2.115   1.877   4.826 -0.1750 -0.2580  0.5561
  862THF     C212335   2.050   1.992   4.782 -0.3013  0.5283 -0.2429
  862THF     C312336   2.032   1.768   4.788 -0.5162  0.1495 -0.4838
  862THF     H412337   2.124   2.071   4.770  0.2057  0.0490 -0.3953
  862THF     H512338   1.985   2.018   4.865 -0.1615 -1.7951  0.6681
  862THF     H612339   2.078   1.671   4.805 -1.3794 -0.6432 -2.3792
  862THF     H712340   1.938   1.776   4.843  1.5007  0.2012  3.2604
  862THF     C812341   1.986   1.794   4.648 -0.3529  0.4708 -0.1322
  862THF     C912342   1.980   1.946   4.653  0.1100  0.3379 -0.1349
  862THF    H1012343   1.891   1.746   4.624  0.4819 -0.2079 -2.3143
  862THF    H1112344   2.066   1.765   4.580 -1.2590 -2.4594 -0.0582
  862THF    H1212345   2.036   1.989   4.570  0.7163 -0.7490 -0.3153
  862THF    H1312346   1.876   1.976   4.656 -0.1494 -0.2645 -2.0861
  863THF     O112347   0.191   2.451   0.843  0.1361  0.0040  0.3170
  863THF     C212348   0.187   2.546   0.743  0.0256 -0.0187  0.5700
  863THF     C312349   0.227   2.329   0.794 -0.4509 -0.0707 -0.0879
  863THF     H412350   0.271   2.616   0.743  0.5903 -0.6618 -0.9087
  863THF     H512351   0.098   2.606   0.762 -0.2810 -0.0270 -0.7464
  863THF     H612352   0.336   2.325   0.789 -0.3594  2.1295 -0.6420
  863THF     H712353   0.190   2.256   0.866  0.2502 -0.0729  0.2775
  863THF     C812354   0.161   2.327   0.656  0.3122  0.9611  0.3335
  863THF     C912355   0.167   2.470   0.611  1.4378  0.4992 -0.8415
  863THF    H1012356   0.058   2.294   0.667  0.5138 -0.7119 -2.0145
  863THF    H1112357   0.196   2.258   0.579  0.0538  0.4169  0.6981
  863THF    H1212358   0.263   2.488   0.563  1.8663 -0.1933 -0.2735
  863THF    H1312359   0.078   2.510   0.564  1.6596  1.1203 -0.7425
  864THF     O112360   3.947   3.783   0.719 -0.4848  0.0493 -0.2816
  864THF     C212361   3.996   3.730   0.840  0.0795  0.0290 -0.3395
  864THF     C312362   3.818   3.830   0.738 -0.2688  0.0937  0.5965
  864THF     H412363   4.095   3.769   0.867 -1.0780  2.0208  1.3002
  864THF     H512364   3.999   3.622   0.825  0.4224 -0.0814  0.5019
  864THF     H612365   3.795   3.901   0.659  0.9430  1.8496  1.7574
  864THF     H712366   3.740   3.755   0.725 -1.8838  1.6880  0.7417
  864THF     C812367   3.817   3.885   0.884  0.5223 -0.4093  0.6321
  864THF     C912368   3.887   3.766   0.946 -0.1450  0.1749 -0.2726
  864THF    H1012369   3.719   3.910   0.926  0.0293 -1.4441  0.1455
  864THF    H1112370   3.883   3.972   0.884  0.0174 -0.0157  0.9739
  864THF    H1212371   3.936   3.780   1.042  1.4181 -0.0282 -1.0049
  864THF    H1312372   3.833   3.672   0.956  1.2300 -0.6176 -0.0042
  865THF     O112373   3.191   4.182   0.759 -0.2086  0.6197 -0.0158
  865THF     C212374   3.082   4.126   0.682  1.1087  0.2877 -0.6669
  865THF     C312375   3.143   4.292   0.829  0.6719 -0.1519  0.6048
  865THF     H412376   3.097   4.021   0.655 -0.8069  0.0435 -0.8806
  865THF     H512377   3.078   4.181   0.588  2.6043  0.7777 -0.4741
  865THF     H612378   3.180   4.281   0.931 -2.6383 -0.4992  1.9154
  865THF     H712379   3.170   4.388   0.785  1.1874  0.0320  1.3084
  865THF     C812380   2.996   4.268   0.848  0.1126  0.6438 -0.3032
  865THF     C912381   2.962   4.133   0.782 -0.6947  0.1021 -0.0851
  865THF    H1012382   2.940   4.346   0.797 -0.0819  1.4430  1.0793
  865THF    H1112383   2.965   4.270   0.953 -1.0976 -3.3517 -0.3937
  865THF    H1212384   2.976   4.053   0.855  0.3871  1.3072  1.0877
  865THF    H1312385   2.858   4.137   0.749 -2.2975  1.5463  4.3831
  866THF     O112386   3.479   0.951   1.126 -0.3238  0.0040  0.7113
  866THF     C212387   3.399   0.875   1.032 -0.2682 -0.5586 -0.3773
  866THF     C312388   3.529   1.072   1.063 -0.1861  0.2897 -0.4511
  866THF     H412389   3.294   0.888   1.058  0.3865  2.0036  1.2644
  866THF     H512390   3.418   0.768   1.041 -1.3064 -0.6820  0.5850
  866THF     H612391   3.460   1.155   1.048  1.1301  1.4894 -0.1204
  866THF     H712392   3.616   1.108   1.118  0.5555  0.1729 -1.4990
  866THF     C812393   3.567   1.010   0.929 -0.2683 -0.1448  0.1755
  866THF     C912394   3.437   0.932   0.900 -0.1204 -0.0322 -0.2132
  866THF    H1012395   3.652   0.942   0.928  0.2206  0.4558  0.5119
  866THF    H1112396   3.583   1.084   0.850 -2.7287 -1.1542 -1.4156
  866THF    H1212397   3.357   0.997   0.866 -0.1525  0.2219  0.3391
  866THF    H1312398   3.468   0.860   0.823  1.7643  1.5533 -1.0261
  867THF     O112399   1.124   4.989   4.272  0.3209  0.1953  0.0135
  867THF     C212400   1.020   5.086   4.235  0.3492 -0.4994  0.0836
  867THF     C312401   1.095   4.959   4.407  0.2195  0.3915  0.0598
  867THF     H412402   0.923   5.047   4.205  0.0838 -0.5971  1.0499
  867THF     H512403   1.053   5.147   4.150  2.7827 -1.3627  0.3377
  867THF     H612404   1.013   4.887   4.410  0.8459 -0.2913  1.1863
  867THF     H712405   1.179   4.910   4.454  0.1237 -0.3711 -0.5487
  867THF     C812406   1.058   5.096   4.470 -0.9432  0.4130 -0.2214
  867THF     C912407   1.002   5.174   4.361  0.3685 -0.2353  0.8660
  867THF    H1012408   1.145   5.148   4.511  0.1853  0.2413 -2.2908
  867THF    H1112409   0.990   5.088   4.555 -0.2541 -1.5103  0.2002
  867THF    H1212410   0.897   5.193   4.384  0.5311  2.5289 -0.3087
  867THF    H1312411   1.052   5.269   4.349  0.5747 -0.5030 -0.5934
  868THF     O112412   3.135   4.713   4.734  0.4212  0.2598  0.4667
  868THF     C212413   3.157   4.758   4.860  0.2682  0.3191 -0.8275
  868THF     C312414   3.262   4.688   4.676  0.8945 -0.5452  0.0713
  868THF     H412415   3.070   4.744   4.923  0.3236 -0.9045 -0.9969
  868THF     H512416   3.207   4.855   4.863  2.0512 -0.5850  1.6576
  868THF     H612417   3.237   4.627   4.589  0.1291 -0.5209  0.2641
  868THF     H712418   3.314   4.780   4.649  0.8869 -0.9001 -1.2309
  868THF     C812419   3.334   4.615   4.789 -0.5726  0.7952  0.1032
  868THF     C912420   3.261   4.665   4.911 -1.0385  0.4624  0.3917
  868THF    H1012421   3.441   4.632   4.788 -0.5539  0.7336 -1.8996
  868THF    H1112422   3.325   4.507   4.773 -0.7737  0.4701  2.1059
  868THF    H1212423   3.203   4.585   4.957 -2.0210  0.1754 -1.2651
  868THF    H1312424   3.324   4.714   4.986 -1.9008  0.2181  1.2974
  869THF     O112425   0.778   0.336   2.361 -0.2401  0.3321 -0.2937
  869THF     C212426   0.756   0.302   2.495 -0.1511 -0.2374 -0.4301
  869THF     C312427   0.828   0.469   2.365 -0.5159  0.0704 -0.3831
  869THF     H412428   0.851   0.276   2.542 -0.1086 -1.0610 -0.9710
  869THF     H512429   0.673   0.233   2.511  0.9845 -1.4771  0.3644
  869THF     H612430   0.931   0.469   2.399 -0.4606 -0.7508 -0.5352
  869THF     H712431   0.816   0.525   2.272  1.0725  2.8407  0.9514
  869THF     C812432   0.732   0.542   2.456 -0.0597 -0.3979  0.0319
  869THF     C912433   0.718   0.438   2.570 -0.4537  0.3374 -0.2612
  869THF    H1012434   0.638   0.557   2.402 -1.7195 -2.2024  2.2267
  869THF    H1112435   0.756   0.643   2.487 -2.0682  0.6832 -1.6389
  869THF    H1212436   0.786   0.454   2.653  1.7363  0.1765 -1.9443
  869THF    H1312437   0.615   0.434   2.607 -0.2169 -1.0547  0.2821
  870THF     O112438   1.996   3.274   1.397  0.3311  0.3319  0.2285
  870THF     C212439   2.055   3.196   1.496  0.0880 -0.7426  0.0564
  870THF     C312440   1.859   3.274   1.414  0.3577  0.1692 -0.9440
  870THF     H412441   2.147   3.242   1.531 -0.6576 -0.1197  1.2305
  870THF     H512442   2.080   3.104   1.442  1.2107  0.8460 -2.3511
  870THF     H612443   1.812   3.366   1.378  0.5205  0.7097  0.1711
  870THF     H712444   1.803   3.194   1.366 -1.9171  1.3633 -0.4606
  870THF     C812445   1.837   3.276   1.567  0.2474 -0.0275  0.2675
  870THF     C912446   1.945   3.176   1.606  0.4104 -0.6266  0.2642
  870THF    H1012447   1.735   3.254   1.598  1.1234 -0.3981  3.1552
  870THF    H1112448   1.855   3.376   1.607  0.4572  0.2112 -0.3979
  870THF    H1212449   1.983   3.203   1.704 -1.3171  0.5270  0.6597
  870THF    H1312450   1.901   3.077   1.614  0.6667 -0.7412  0.2580
  871THF     O112451   3.315   0.083   3.369 -0.3392 -0.2524  0.3437
  871THF     C212452   3.337   0.159   3.489  0.3227  0.4161 -0.6107
  871THF     C312453   3.205  -0.001   3.366 -0.1254 -0.0329  0.0018
  871THF     H412454   3.356   0.264   3.464 -0.0499  0.3067 -1.3721
  871THF     H512455   3.411   0.126   3.563  1.2562  2.2216 -0.6513
  871THF     H612456   3.157   0.006   3.269  1.2061 -1.4406 -0.8110
  871THF     H712457   3.254  -0.092   3.402  2.1220  1.0382 -0.1919
  871THF     C812458   3.118   0.047   3.481 -0.0041 -0.1118 -0.9117
  871THF     C912459   3.211   0.129   3.569 -0.0565 -0.8829 -0.3779
  871THF    H1012460   3.066  -0.031   3.536 -4.2635  2.0656 -1.4123
  871THF    H1112461   3.035   0.104   3.439 -0.3931 -1.0782 -1.4858
  871THF    H1212462   3.155   0.220   3.589 -0.2326 -1.0811  0.0645
  871THF    H1312463   3.246   0.073   3.657 -2.3821 -0.6524  0.7778
  872THF     O112464   0.049   3.091   1.963 -0.7444 -0.1748  0.0811
  872THF     C212465   0.003   3.202   2.036 -0.9034  0.5389  0.3084
  872THF     C312466  -0.005   2.972   2.017  0.6974 -0.3053  0.2150
  872THF     H412467  -0.078   3.254   1.986 -0.5949  1.0400  0.3246
  872THF     H512468   0.087   3.270   2.049  0.1788 -1.1025  2.5429
  872THF     H612469  -0.108   2.955   1.985  0.5255  0.0127  0.5848
  872THF     H712470   0.044   2.877   1.996 -1.3368 -1.0904 -1.2066
  872THF     C812471  -0.004   3.008   2.168 -0.4002 -0.8100 -0.0145
  872THF     C912472  -0.037   3.153   2.175  0.4214 -0.4113  0.3327
  872THF    H1012473   0.099   3.011   2.203  0.1647 -0.4928 -1.6169
  872THF    H1112474  -0.067   2.939   2.224  0.0492 -1.2345 -0.0185
  872THF    H1212475  -0.145   3.161   2.181 -0.0474 -1.2368 -3.8842
  872THF    H1312476   0.013   3.195   2.262  0.9891 -1.4528  0.5333
  873THF     O112477   2.495   0.495   1.693 -0.3792 -0.0583  0.7319
  873THF     C212478   2.502   0.631   1.682 -0.4033  0.7789  0.3423
  873THF     C312479   2.367   0.458   1.633 -0.2811 -0.0838  0.6725
  873THF     H412480   2.580   0.656   1.609 -2.2332  1.4504 -1.5021
  873THF     H512481   2.540   0.658   1.781  1.7977 -0.4089 -0.1013
  873THF     H612482   2.378   0.394   1.546 -1.1202  1.1357 -0.3758
  873THF     H712483   2.318   0.394   1.707  1.9354 -2.8327 -0.0800
  873THF     C812484   2.287   0.586   1.600  0.1696  0.3981 -0.0247
  873THF     C912485   2.368   0.701   1.643 -0.4179 -0.0374  0.7840
  873THF    H1012486   2.193   0.595   1.654 -0.6134 -0.1103 -1.2427
  873THF    H1112487   2.267   0.587   1.493  0.9251  1.0082 -0.1703
  873THF    H1212488   2.376   0.779   1.567 -2.0019 -0.9841 -0.4181
  873THF    H1312489   2.326   0.737   1.736 -0.6087 -1.8966  1.4683
  874THF     O112490   0.111   2.435   2.001  0.2584 -0.0055  0.5309
  874THF     C212491   0.229   2.390   1.938  0.4917  0.9033 -0.7239
  874THF     C312492   0.101   2.581   1.982  0.3021  0.1096 -1.0267
  874THF     H412493   0.227   2.284   1.911 -0.2227  1.0300 -1.1849
  874THF     H512494   0.310   2.392   2.011 -0.9917  1.0503  0.9990
  874THF     H612495  -0.002   2.614   1.998  0.0322 -0.9318 -0.5093
  874THF     H712496   0.169   2.642   2.042  0.7823  0.4447 -1.8980
  874THF     C812497   0.135   2.587   1.840 -0.0129 -0.1579 -0.0770
  874THF     C912498   0.243   2.479   1.818 -0.3347  0.5763 -0.1278
  874THF    H1012499   0.184   2.679   1.807 -2.8590  0.1807 -4.0538
  874THF    H1112500   0.047   2.581   1.776 -1.1005 -0.0847  1.3842
  874THF    H1212501   0.226   2.426   1.724 -0.9527  1.5751 -0.5960
  874THF    H1312502   0.345   2.517   1.813  0.0947 -0.7208 -2.4808
  875THF     O112503   0.121   0.988   4.720 -0.3589  1.0995  0.3706
  875THF     C212504   0.092   1.128   4.695  0.1284  0.3226 -0.4823
  875THF     C312505   0.122   0.987   4.863  0.4688 -0.1749 -0.1670
  875THF     H412506   0.071   1.144   4.590 -0.9744  0.1810 -0.3009
  875THF     H512507   0.181   1.185   4.721  0.2584 -0.6366  1.4234
  875THF     H612508   0.121   0.882   4.891 -0.2374 -0.3473 -0.8006
  875THF     H712509   0.216   1.018   4.908 -0.3234  0.4110  1.1551
  875THF     C812510   0.003   1.072   4.912  0.5918 -0.4318 -0.2365
  875THF     C912511  -0.019   1.169   4.799  0.1994  0.0898 -0.5303
  875THF    H1012512   0.033   1.122   5.004 -0.2951 -0.7083  0.2139
  875THF    H1112513  -0.086   1.014   4.937 -2.0764  0.9514 -5.1456
  875THF    H1212514  -0.120   1.143   4.765  0.3037  1.0991 -1.6974
  875THF    H1312515  -0.018   1.275   4.826 -2.5454 -0.5355  2.7373
  876THF     O112516   3.714   0.666   4.191 -0.2588 -0.2234 -0.3113
  876THF     C212517   3.802   0.771   4.233 -0.8154  0.6765 -0.4338
  876THF     C312518   3.763   0.619   4.068  0.1244 -0.3637  0.5602
  876THF     H412519   3.791   0.779   4.342  0.0132  1.4536 -0.3899
  876THF     H512520   3.765   0.866   4.194 -1.2415  1.5158  1.8518
  876THF     H612521   3.736   0.516   4.049 -1.9627 -0.1448  1.9588
  876THF     H712522   3.707   0.668   3.988  1.4527  1.3859  0.6441
  876THF     C812523   3.911   0.659   4.050 -0.1240 -0.2569  0.6938
  876THF     C912524   3.935   0.730   4.181  0.1762 -0.6751 -0.2385
  876THF    H1012525   3.926   0.734   3.972  1.5128 -0.7425  0.5046
  876THF    H1112526   3.960   0.562   4.039  2.1928  0.6781  1.9693
  876THF    H1212527   3.981   0.655   4.246 -0.7380  1.4025  3.0365
  876THF    H1312528   3.991   0.824   4.177 -1.1912  0.1268 -1.1661
  877THF     O112529   0.453   2.090   0.141  0.9888 -0.0812  1.0357
  877THF     C212530   0.389   2.098   0.013 -0.0607  0.0504  0.0054
  877THF     C312531   0.368   2.162   0.230 -0.0689  0.0297  0.2872
  877THF     H412532   0.315   2.020  -0.005 -0.5203 -0.2224  2.7016
  877THF     H512533   0.463   2.081  -0.066  1.3578  1.4393  0.9596
  877THF     H612534   0.280   2.099   0.246 -0.8474  0.9720 -0.1627
  877THF     H712535   0.416   2.171   0.327  0.2467 -0.3334  0.1637
  877THF     C812536   0.352   2.291   0.143  0.2620  0.7221 -0.3541
  877THF     C912537   0.317   2.232   0.009 -0.0689  0.1378  0.6390
  877THF    H1012538   0.439   2.354   0.127  0.2102  0.9040  0.0776
  877THF    H1112539   0.274   2.352   0.188 -1.2537 -1.3482 -0.0609
  877THF    H1212540   0.211   2.205   0.012  0.1364 -0.6396  1.1534
  877THF    H1312541   0.346   2.288  -0.080 -0.5130  3.6489  2.5446
  878THF     O112542   3.290   1.918   5.181 -0.1886 -0.5075 -0.0016
  878THF     C212543   3.309   1.967   5.315  0.3665  0.4833  0.6378
  878THF     C312544   3.420   1.904   5.127 -0.3188 -0.0043  0.0533
  878THF     H412545   3.233   1.945   5.391  1.4267 -1.9527  1.0588
  878THF     H512546   3.324   2.074   5.296 -0.3491  0.4412 -0.2443
  878THF     H612547   3.424   1.844   5.036 -0.0784  2.6092 -1.7699
  878THF     H712548   3.464   1.998   5.095  2.3655 -1.2891 -0.3680
  878THF     C812549   3.508   1.849   5.239  0.1929 -0.6419 -0.7369
  878THF     C912550   3.446   1.904   5.366 -0.4038  0.3641 -0.4958
  878THF    H1012551   3.611   1.885   5.243  0.2551 -0.8940  0.1705
  878THF    H1112552   3.513   1.740   5.235 -0.5791 -0.6680 -0.9723
  878THF    H1212553   3.434   1.819   5.434  0.1622  2.1596  2.0043
  878THF    H1312554   3.500   1.975   5.430 -1.0175  1.1677 -0.8549
  879THF     O112555   2.632   2.719   0.574 -0.2192  0.0241  0.2407
  879THF     C212556   2.613   2.819   0.679  0.6967 -0.3046 -0.0371
  879THF     C312557   2.663   2.796   0.456 -0.2659 -1.1739 -0.1320
  879THF     H412558   2.709   2.851   0.721  1.0416 -0.3200 -0.7963
  879THF     H512559   2.554   2.781   0.762 -0.5465  0.0074 -0.7489
  879THF     H612560   2.766   2.834   0.459 -1.0406  1.1977 -1.1247
  879THF     H712561   2.647   2.733   0.369  1.2025  0.7680 -1.9168
  879THF     C812562   2.567   2.917   0.470  0.5360 -0.1329 -0.6276
  879THF     C912563   2.539   2.931   0.614 -0.4633 -0.3466 -0.1222
  879THF    H1012564   2.472   2.897   0.420 -0.0634  0.7284  0.1115
  879THF    H1112565   2.613   3.006   0.429  2.1571 -0.7862 -0.3138
  879THF    H1212566   2.585   3.029   0.631  0.9152 -1.1013  0.6019
  879THF    H1312567   2.433   2.930   0.637 -0.4352  0.7457  0.1095
  880THF     O112568   1.304   1.539   1.980 -0.2028  0.0017  0.1443
  880THF     C212569   1.368   1.414   1.993 -0.0400 -0.6978 -0.1055
  880THF     C312570   1.272   1.588   2.109 -0.4895  0.0040  0.1860
  880THF     H412571   1.429   1.392   1.905  2.5553  1.0162  1.1478
  880THF     H512572   1.294   1.335   2.000  0.2482 -0.8984  0.7120
  880THF     H612573   1.280   1.697   2.113  0.1168 -0.0187 -0.2996
  880THF     H712574   1.168   1.569   2.135 -1.1361 -0.6041 -2.5309
  880THF     C812575   1.369   1.516   2.208  0.5447 -0.2948  0.9449
  880THF     C912576   1.448   1.425   2.119 -0.0268  0.4398  0.0224
  880THF    H1012577   1.324   1.457   2.287 -1.4557  0.1396  0.1791
  880THF    H1112578   1.434   1.580   2.267  1.1273 -1.8586  2.0690
  880THF    H1212579   1.532   1.491   2.097  0.5315  0.1223  1.1009
  880THF    H1312580   1.484   1.332   2.164 -0.4392  0.4096  0.2956
  881THF     O112581   1.428   0.175   4.960  0.4415  0.2924 -0.6240
  881THF     C212582   1.542   0.104   5.004  0.2034 -0.1496  0.2582
  881THF     C312583   1.433   0.179   4.824  0.1028 -0.0285  0.2582
  881THF     H412584   1.516   0.000   4.985  1.5555 -0.7983  1.7333
  881THF     H512585   1.563   0.115   5.111  0.7589 -3.5410  0.5908
  881THF     H612586   1.373   0.101   4.777 -1.0521  0.7258  0.4599
  881THF     H712587   1.398   0.276   4.789  1.4977  0.4591  0.1384
  881THF     C812588   1.580   0.167   4.785 -0.3434 -0.0047  1.0888
  881THF     C912589   1.655   0.148   4.915  0.9133 -0.0617  0.3771
  881THF    H1012590   1.617   0.258   4.738  1.0393 -0.3069  1.5402
  881THF    H1112591   1.594   0.076   4.728 -0.9809  0.7769 -0.3583
  881THF    H1212592   1.730   0.069   4.917  0.7770 -0.1890  0.5305
  881THF    H1312593   1.694   0.245   4.945  1.2548 -0.1871  0.3350
  882THF     O112594   2.799   0.858   2.182 -0.2979  0.1000  0.4353
  882THF     C212595   2.894   0.768   2.241  0.4419 -0.4583 -0.3961
  882THF     C312596   2.706   0.782   2.107  0.0782  0.0434 -0.6410
  882THF     H412597   2.896   0.789   2.348 -0.0786  1.2465 -0.6914
  882THF     H512598   2.999   0.778   2.215  0.7154  0.7799  1.0309
  882THF     H612599   2.609   0.831   2.104 -0.6994 -1.3406  0.4307
  882THF     H712600   2.745   0.766   2.007  0.6650  0.6486 -0.5145
  882THF     C812601   2.703   0.647   2.181 -0.0985  0.0769  0.1249
  882THF     C912602   2.848   0.625   2.210  0.1683 -0.1387 -0.4478
  882THF    H1012603   2.663   0.566   2.121 -0.4545 -1.1197  1.9059
  882THF    H1112604   2.644   0.657   2.273  0.7090  1.8169  0.5092
  882THF    H1212605   2.881   0.542   2.272  0.9556  0.7336  0.3207
  882THF    H1312606   2.898   0.605   2.115 -0.2024  2.6331 -1.3116
  883THF     O112607   2.465   1.122   4.547 -0.3538  0.4689  0.2805
  883THF     C212608   2.589   1.112   4.469  0.0433  0.0660 -0.9198
  883THF     C312609   2.505   1.101   4.684 -0.1366  0.0089 -0.4995
  883THF     H412610   2.638   1.203   4.505 -2.7353  1.5594 -0.6128
  883THF     H512611   2.571   1.109   4.361 -0.4919 -0.8689 -0.8123
  883THF     H612612   2.540   1.196   4.725  0.1358  0.7916 -2.4560
  883THF     H712613   2.410   1.063   4.722 -0.0302  0.1293 -0.1055
  883THF     C812614   2.618   0.994   4.674 -0.0529 -0.9004 -0.3894
  883THF     C912615   2.648   0.990   4.529  0.3151  0.5305  0.0703
  883THF    H1012616   2.571   0.906   4.718  1.1395 -1.1459  0.4429
  883THF    H1112617   2.711   1.017   4.727 -0.7462  0.2424  0.3566
  883THF    H1212618   2.753   0.981   4.503  0.5509  2.0136  0.3868
  883THF    H1312619   2.595   0.903   4.489  1.1166  0.9003 -1.9062
  884THF     O112620   5.356   0.817   4.427  0.0579 -0.6409  0.2007
  884THF     C212621   5.303   0.686   4.461 -0.5195 -0.6606  0.4111
  884THF     C312622   5.317   0.903   4.530 -0.1784 -0.5539 -0.5357
  884THF     H412623   5.356   0.603   4.415  1.5332 -0.1172  1.6437
  884THF     H512624   5.201   0.687   4.423 -0.4651  0.0205  0.2658
  884THF     H612625   5.376   0.993   4.515 -0.6779 -0.4770 -2.1714
  884THF     H712626   5.209   0.914   4.533 -0.0605  0.4902  0.4625
  884THF     C812627   5.344   0.815   4.657  0.3790 -0.0521  0.6642
  884THF     C912628   5.298   0.675   4.614 -0.4983  0.1586 -0.3257
  884THF    H1012629   5.294   0.859   4.743  0.7059  1.5276  0.0746
  884THF    H1112630   5.452   0.821   4.673  0.4426  1.1056 -0.0753
  884THF    H1212631   5.359   0.595   4.655  0.2707  0.7008 -0.4098
  884THF    H1312632   5.193   0.656   4.638 -0.8590  1.9360 -0.4189
  885THF     O112633   1.125   4.970   2.838 -0.0351  0.3471  0.8869
  885THF     C212634   0.982   4.967   2.848 -0.4345 -0.7149 -0.0628
  885THF     C312635   1.160   5.092   2.776 -1.6896 -0.0459  0.1960
  885THF     H412636   0.955   4.895   2.925  2.3969 -0.6457  1.1220
  885THF     H512637   0.934   4.951   2.751  1.2153  1.3907 -1.3119
  885THF     H612638   1.268   5.107   2.787 -1.6655  1.1885 -1.3928
  885THF     H712639   1.131   5.094   2.671 -0.8935  0.6337 -0.0277
  885THF     C812640   1.073   5.190   2.843 -0.2361 -0.1432 -0.1774
  885THF     C912641   0.954   5.105   2.895 -0.8599 -0.6833 -0.3677
  885THF    H1012642   1.036   5.270   2.778  0.0005 -1.2023 -1.6590
  885THF    H1112643   1.133   5.244   2.916 -1.3340  1.3148 -0.3025
  885THF    H1212644   0.944   5.115   3.003  0.8449  0.4835 -0.2789
  885THF    H1312645   0.868   5.145   2.842 -0.9056  1.1936  1.0420
  886THF     O112646   1.115   5.447   0.959 -0.0179  0.5029  0.3316
  886THF     C212647   1.079   5.437   0.824  0.8597  0.4765 -0.5091
  886THF     C312648   1.242   5.392   0.967  0.1538 -0.1112  0.0276
  886THF     H412649   1.020   5.522   0.792  0.4342  0.7219  0.8730
  886THF     H512650   1.015   5.350   0.811  0.4064  0.8211 -0.5879
  886THF     H612651   1.291   5.420   1.060 -0.9044  4.4199 -0.5789
  886THF     H712652   1.224   5.284   0.965 -1.3050  0.1219 -1.5032
  886THF     C812653   1.315   5.435   0.838  0.1882  0.7115 -0.2148
  886THF     C912654   1.205   5.413   0.742  0.1474  0.5590 -0.6588
  886THF    H1012655   1.410   5.391   0.809  0.6010  1.7146 -0.4258
  886THF    H1112656   1.342   5.539   0.860  2.5561 -0.3362  2.3061
  886THF    H1212657   1.204   5.476   0.653 -0.8276 -1.8611 -2.4856
  886THF    H1312658   1.201   5.317   0.690  1.0939  0.4746 -0.5950
  887THF     O112659   5.299   0.154   3.324  0.7363  0.8190  0.3641
  887THF     C212660   5.170   0.104   3.284  1.0922 -0.0361 -0.6133
  887THF     C312661   5.287   0.285   3.372 -0.3366  0.1985  0.4120
  887THF     H412662   5.161  -0.002   3.308 -0.1351  0.6132  2.2507
  887THF     H512663   5.153   0.107   3.176  0.3772 -0.2319 -0.5072
  887THF     H612664   5.369   0.310   3.439  2.5875 -1.7606 -2.1827
  887THF     H712665   5.288   0.357   3.291  1.3353  0.2857  0.4831
  887THF     C812666   5.151   0.297   3.435  1.0271  0.5738  0.4073
  887THF     C912667   5.071   0.187   3.363  0.2147 -0.3657 -0.1855
  887THF    H1012668   5.094   0.389   3.429 -1.7016 -0.8953  1.6615
  887THF    H1112669   5.150   0.265   3.539 -3.0725  1.2154  0.7415
  887THF    H1212670   5.007   0.125   3.426  0.5413 -0.2695  0.2461
  887THF    H1312671   4.996   0.226   3.294 -0.0586 -0.6301 -0.0439
  888THF     O112672   5.365   3.656   0.646 -0.5410 -0.0360  0.1495
  888THF     C212673   5.345   3.796   0.648  0.5091  0.0189  0.5086
  888THF     C312674   5.243   3.595   0.600  0.5393 -0.2918 -0.0817
  888THF     H412675   5.443   3.841   0.635  1.5056 -2.3940 -0.9512
  888THF     H512676   5.298   3.828   0.741 -0.6540 -1.9887  0.6760
  888THF     H612677   5.271   3.521   0.525  0.4418  0.0793 -0.4926
  888THF     H712678   5.204   3.540   0.685  0.8374  0.2284  0.4007
  888THF     C812679   5.154   3.700   0.537 -0.2851 -0.3867  0.5905
  888THF     C912680   5.240   3.821   0.537  0.3981 -0.1213  0.3510
  888THF    H1012681   5.059   3.705   0.590 -1.6868 -1.2444 -1.6887
  888THF    H1112682   5.114   3.680   0.438  0.0543  4.1462 -0.6988
  888THF    H1212683   5.312   3.832   0.456  1.3175 -1.3264  0.9791
  888THF    H1312684   5.176   3.909   0.542  0.1930 -0.3285  1.8883
  889THF     O112685   3.962   2.287   4.837  0.2792  0.8839  0.8790
  889THF     C212686   4.024   2.398   4.775  0.9501  0.3292  0.3655
  889THF     C312687   4.037   2.249   4.947 -0.1078  1.1045 -0.3817
  889THF     H412688   3.953   2.451   4.712 -0.9245 -2.1111  0.2850
  889THF     H512689   4.113   2.365   4.721 -0.0501  0.0591 -1.1857
  889THF     H612690   3.975   2.191   5.016 -0.7606  0.2469 -1.6470
  889THF     H712691   4.123   2.194   4.910 -0.4912  1.1200 -1.3496
  889THF     C812692   4.091   2.379   5.010 -0.8489 -0.3918 -0.0681
  889THF     C912693   4.055   2.477   4.902 -0.2366 -0.4134 -1.3608
  889THF    H1012694   4.197   2.390   5.030 -0.2470  0.8421 -3.4637
  889THF    H1112695   4.050   2.391   5.110  2.3180  1.6642  1.1410
  889THF    H1212696   3.970   2.541   4.927  1.5281  1.9468 -1.0522
  889THF    H1312697   4.136   2.544   4.874  2.3257 -2.3949  0.7936
  890THF     O112698   3.094   0.215   4.163 -0.4892  0.0095 -0.2987
  890THF     C212699   3.218   0.283   4.173  0.2900  0.2662  0.5162
  890THF     C312700   3.057   0.208   4.025  0.1718 -0.3903 -0.1421
  890THF     H412701   3.268   0.271   4.269  1.7063 -0.4317 -0.2727
  890THF     H512702   3.201   0.390   4.166  1.1354  0.3140 -1.4464
  890THF     H612703   2.981   0.129   4.021 -1.2703  0.9875 -1.1605
  890THF     H712704   3.014   0.302   3.990 -2.2882 -1.0318  0.9613
  890THF     C812705   3.191   0.168   3.962  0.7386  0.0937  0.4769
  890THF     C912706   3.298   0.230   4.055  0.9056 -0.2387  0.4050
  890THF    H1012707   3.209   0.213   3.864  1.8175 -1.7158 -0.1896
  890THF    H1112708   3.205   0.060   3.956  1.0796  0.2081 -1.6305
  890THF    H1212709   3.373   0.162   4.096 -0.5583 -1.2861  1.4320
  890THF    H1312710   3.344   0.319   4.012 -0.4291 -0.9559 -2.8380
  891THF     O112711   0.824   4.756   0.653  0.0456  0.2692 -0.0186
  891THF     C212712   0.738   4.749   0.542  0.4195  0.2655 -0.2883
  891THF     C312713   0.797   4.633   0.724 -0.2761 -0.1176  0.5251
  891THF     H412714   0.767   4.685   0.459 -3.0490 -0.3690 -1.1612
  891THF     H512715   0.738   4.850   0.501 -0.7839 -0.2796 -1.6962
  891THF     H612716   0.838   4.547   0.670  1.8382  0.0495  1.7651
  891THF     H712717   0.834   4.632   0.826  0.3034  0.1940  0.3213
  891THF     C812718   0.650   4.635   0.732  0.5485 -0.1403 -1.4375
  891THF     C912719   0.608   4.697   0.602 -0.0048 -0.7673  0.3541
  891THF    H1012720   0.625   4.694   0.819  1.4934 -1.7817  0.0156
  891THF    H1112721   0.603   4.537   0.747  1.7552 -0.6499 -0.8362
  891THF    H1212722   0.555   4.634   0.531  1.0890 -0.8787 -0.3999
  891THF    H1312723   0.547   4.786   0.617 -0.1679 -0.8734  0.3183
  892THF     O112724   1.453   4.961   0.788  0.2984  0.4423 -0.5919
  892THF     C212725   1.539   4.887   0.699 -0.0024 -0.1006 -0.6297
  892THF     C312726   1.379   5.045   0.710  0.6356 -0.1748  0.2791
  892THF     H412727   1.482   4.806   0.653 -3.7736  1.5716  0.6257
  892THF     H512728   1.615   4.834   0.756 -1.1285 -0.5956  0.4728
  892THF     H612729   1.288   4.999   0.671 -0.7365  2.4808  0.0833
  892THF     H712730   1.345   5.138   0.755  1.1793  0.2765 -0.2248
  892THF     C812731   1.476   5.086   0.587 -0.0846 -0.4796  0.4577
  892THF     C912732   1.590   4.987   0.592  0.0310  0.0424 -0.0983
  892THF    H1012733   1.514   5.185   0.609  0.3385 -0.1657 -1.4656
  892THF    H1112734   1.427   5.088   0.489  1.5800 -1.8063 -0.4688
  892THF    H1212735   1.622   4.937   0.500  2.1735  0.6325  0.2663
  892THF    H1312736   1.682   5.035   0.625 -0.9088  0.4163  2.1660
  893THF     O112737   3.085   2.075   3.009 -0.6609 -0.4756 -0.0762
  893THF     C212738   3.045   2.200   2.953 -0.4387 -0.2094  0.5476
  893THF     C312739   3.211   2.091   3.065 -0.9685  0.1977  0.1816
  893THF     H412740   2.987   2.251   3.030 -0.4779 -1.0171  1.0622
  893THF     H512741   2.980   2.165   2.873 -0.8215  0.2567  0.6500
  893THF     H612742   3.183   2.124   3.165 -2.1042 -0.2680  0.0320
  893THF     H712743   3.260   1.994   3.069  2.1806  1.5856 -1.0006
  893THF     C812744   3.276   2.187   2.964  0.3840 -0.7999 -0.5624
  893THF     C912745   3.169   2.282   2.918 -0.2201  0.0263 -0.0193
  893THF    H1012746   3.315   2.149   2.869  0.3276  0.5638 -1.1511
  893THF    H1112747   3.343   2.256   3.014 -2.5972  1.8720  0.0784
  893THF    H1212748   3.179   2.373   2.976 -0.3522  0.3315 -0.4754
  893THF    H1312749   3.168   2.308   2.812 -1.7472  0.6577  0.1229
  894THF     O112750   2.523   4.723   5.492 -0.6067 -0.0807  0.4781
  894THF     C212751   2.587   4.615   5.432  0.4414 -0.4859 -0.9405
  894THF     C312752   2.390   4.694   5.509  0.3883  0.2416  0.4042
  894THF     H412753   2.693   4.614   5.460  0.1193  2.9896  1.0378
  894THF     H512754   2.575   4.613   5.324  2.0164  1.6589 -1.2145
  894THF     H612755   2.343   4.754   5.587  1.0781  1.3388  0.0038
  894THF     H712756   2.334   4.701   5.415 -1.0296  0.6220  1.2424
  894THF     C812757   2.388   4.550   5.558 -0.3391  0.2505  0.8041
  894THF     C912758   2.514   4.492   5.492 -0.5725 -0.0922  0.6304
  894THF    H1012759   2.297   4.502   5.522  0.2031  1.0726 -1.9025
  894THF    H1112760   2.392   4.549   5.667  2.2947  2.2979  0.8258
  894THF    H1212761   2.562   4.429   5.567 -0.5974  0.0847  0.7955
  894THF    H1312762   2.489   4.420   5.414  0.2500 -0.5930  0.8190
  895THF     O112763   0.986   2.134   4.717  0.0856  0.1698  0.0349
  895THF     C212764   0.904   2.252   4.738 -0.2743 -0.3470  0.3695
  895THF     C312765   0.952   2.083   4.590  0.4956 -0.3717  0.0072
  895THF     H412766   0.958   2.315   4.809  0.4112 -0.3183 -0.1675
  895THF     H512767   0.812   2.227   4.790 -0.4725  4.2690  2.7760
  895THF     H612768   1.037   2.029   4.549  1.4806 -0.4447  2.0183
  895THF     H712769   0.881   2.002   4.601  0.2993 -0.1946  0.0448
  895THF     C812770   0.922   2.211   4.505  0.3928  0.5137 -0.0338
  895THF     C912771   0.888   2.317   4.601 -0.4947  0.3948  0.3507
  895THF    H1012772   0.842   2.192   4.434  0.9784  0.0704 -0.5934
  895THF    H1112773   1.007   2.243   4.443  0.4956 -0.4514 -0.4010
  895THF    H1212774   0.960   2.398   4.599 -0.5992  0.4754 -0.1697
  895THF    H1312775   0.786   2.354   4.586  0.1590  2.2622  0.2519
  896THF     O112776   2.597   1.353   1.879  0.1508  0.6051 -0.0635
  896THF     C212777   2.730   1.403   1.861  0.3799 -0.1371  0.0454
  896THF     C312778   2.602   1.218   1.921  0.2204 -0.4060  0.3436
  896THF     H412779   2.727   1.510   1.878 -2.0432 -0.3612  1.5401
  896THF     H512780   2.757   1.367   1.761  1.5432 -2.6537  1.1627
  896THF     H612781   2.512   1.185   1.973  0.0379 -0.1877  0.1665
  896THF     H712782   2.613   1.161   1.828  0.3035 -0.2835  0.2785
  896THF     C812783   2.730   1.205   1.998  0.3526  0.1534 -0.0002
  896THF     C912784   2.810   1.332   1.966 -0.1833  0.1470 -0.0843
  896THF    H1012785   2.780   1.114   1.965  0.9524  0.5489 -0.2070
  896THF    H1112786   2.727   1.195   2.106 -0.8001  0.5556  0.0176
  896THF    H1212787   2.813   1.390   2.058 -1.3199  1.0475 -0.5842
  896THF    H1312788   2.911   1.304   1.937 -0.1962 -0.4206  0.4036
  897THF     O112789   3.881   0.998   2.420 -0.0295  0.3096 -0.2476
  897THF     C212790   3.998   0.934   2.468  0.1366  0.3208 -0.3021
  897THF     C312791   3.914   1.112   2.344  0.4255  0.5569  0.2424
  897THF     H412792   3.993   0.826   2.481 -3.9887  0.3166 -0.6719
  897THF     H512793   4.018   0.993   2.558 -0.3513  3.3558 -2.0318
  897THF     H612794   3.866   1.127   2.247  0.3288  3.0667  0.6209
  897THF     H712795   3.894   1.204   2.398  0.6103 -0.2349  1.6864
  897THF     C812796   4.064   1.112   2.322  0.4085  0.6282  0.2108
  897THF     C912797   4.102   0.966   2.362  0.5523 -0.0412  0.6027
  897THF    H1012798   4.103   1.189   2.388  0.7384 -1.3299  2.4318
  897THF    H1112799   4.099   1.126   2.220 -0.2386 -3.0159 -0.6913
  897THF    H1212800   4.097   0.895   2.279 -0.4614  1.4286 -0.6364
  897THF    H1312801   4.201   0.958   2.408  0.7648 -0.8511  0.0499
  898THF     O112802   2.469   1.595   3.724  0.0880 -0.4222 -0.0151
  898THF     C212803   2.393   1.479   3.751  0.0544  0.5469  0.6377
  898THF     C312804   2.466   1.634   3.591  0.1549 -0.0367  0.3731
  898THF     H412805   2.307   1.484   3.816 -2.3581  0.5281 -2.3256
  898THF     H512806   2.457   1.399   3.789 -2.2086 -1.7722 -0.1789
  898THF     H612807   2.399   1.717   3.570 -2.4675 -1.7484  1.3447
  898THF     H712808   2.563   1.656   3.548 -1.1359  0.2660 -2.6683
  898THF     C812809   2.411   1.510   3.517  0.1848  0.1277 -0.8103
  898THF     C912810   2.329   1.436   3.619  0.0786  0.4738  0.1227
  898THF    H1012811   2.486   1.436   3.489 -0.5640 -0.8543 -0.2920
  898THF    H1112812   2.356   1.537   3.427 -0.1820  0.1007 -0.5958
  898THF    H1212813   2.226   1.462   3.596 -0.2624  2.1927  3.0853
  898THF    H1312814   2.331   1.327   3.609  1.1197  0.4522  0.3860
  899THF     O112815   0.214   3.959   1.263  0.5154  0.2517  0.1176
  899THF     C212816   0.112   3.880   1.320 -0.7228  0.0972  0.1306
  899THF     C312817   0.206   4.088   1.322 -0.7189  0.3318 -0.2024
  899THF     H412818   0.138   3.777   1.296 -1.3438 -0.5033  1.8812
  899THF     H512819   0.011   3.896   1.281 -1.9071 -3.1053  1.5701
  899THF     H612820   0.303   4.130   1.298 -1.3604  0.7855 -2.2550
  899THF     H712821   0.138   4.151   1.265 -2.8474 -0.9025  0.8108
  899THF     C812822   0.153   4.062   1.470 -0.8914 -0.8989 -0.6017
  899THF     C912823   0.115   3.918   1.471 -0.2558  0.4859  0.1524
  899THF    H1012824   0.069   4.130   1.488  0.6286  0.4797  1.8280
  899THF    H1112825   0.231   4.074   1.544 -0.7299  1.9630 -1.1013
  899THF    H1212826   0.167   3.845   1.532  0.6172  0.1098 -1.0004
  899THF    H1312827   0.012   3.907   1.503 -0.7895 -0.2236 -1.6610
  900THF     O112828   0.800   0.313   4.104 -0.2414 -0.0259 -0.3810
  900THF     C212829   0.702   0.391   4.043  0.0364  0.2773 -0.6507
  900THF     C312830   0.929   0.349   4.037  0.1588 -1.0600 -0.0193
  900THF     H412831   0.707   0.496   4.072  2.7785  0.0801 -0.1451
  900THF     H512832   0.606   0.353   4.078  0.0463 -0.2321 -1.1645
  900THF     H612833   0.957   0.450   4.068 -0.8875 -0.2178 -1.7094
  900THF     H712834   1.002   0.274   4.069 -0.8197 -1.9706  0.1275
  900THF     C812835   0.886   0.353   3.891 -0.0712  0.1640 -0.0200
  900THF     C912836   0.731   0.375   3.896  0.1579  0.0598 -0.6348
  900THF    H1012837   0.906   0.259   3.838 -1.0202  0.6775 -1.3490
  900THF    H1112838   0.945   0.431   3.844  0.0481  0.8182  1.1882
  900THF    H1212839   0.694   0.454   3.831  1.6442 -0.8281 -2.6829
  900THF    H1312840   0.679   0.286   3.859  1.0735 -0.2336 -1.2549
  901THF     O112841   3.097   2.387   1.629 -0.3547 -0.0722  0.1602
  901THF     C212842   2.970   2.459   1.650  0.3973  0.6228  0.1929
  901THF     C312843   3.207   2.474   1.640 -0.2986 -0.4820  0.1348
  901THF     H412844   2.907   2.397   1.712  0.0517  0.2920 -0.4783
  901THF     H512845   2.917   2.488   1.560  2.1563 -1.1626 -1.5381
  901THF     H612846   3.304   2.427   1.650 -0.0720 -0.0966 -0.1922
  901THF     H712847   3.207   2.522   1.542  1.1466 -1.9874 -0.6513
  901THF     C812848   3.167   2.580   1.740 -0.6685  0.0949  0.1359
  901THF     C912849   3.012   2.583   1.718 -0.5186 -0.0755 -0.3103
  901THF    H1012850   3.211   2.677   1.719 -1.0319  0.6607  1.8756
  901THF    H1112851   3.187   2.551   1.843 -2.2159 -1.6212  0.0197
  901THF    H1212852   2.961   2.585   1.814 -0.9460  0.0192 -0.5398
  901THF    H1312853   2.978   2.674   1.669  0.3767  1.5373  1.9020
  902THF     O112854   2.656   3.561   3.211 -0.1232 -0.3549 -0.4602
  902THF     C212855   2.548   3.654   3.190 -0.4429 -0.7140  0.4167
  902THF     C312856   2.775   3.630   3.181 -0.5120  0.2256 -0.7315
  902THF     H412857   2.544   3.746   3.250 -2.0415 -0.5563  0.1193
  902THF     H512858   2.449   3.610   3.197 -0.4898 -0.7076 -0.2204
  902THF     H612859   2.802   3.698   3.262 -2.3057  0.3032 -0.1487
  902THF     H712860   2.855   3.563   3.152 -0.7901  0.6103 -2.5304
  902THF     C812861   2.739   3.707   3.056  0.2302 -0.3766  0.0667
  902THF     C912862   2.584   3.701   3.051  0.1546  0.1369  0.3247
  902THF    H1012863   2.776   3.663   2.963  0.4736 -1.7533  0.7916
  902THF    H1112864   2.765   3.812   3.066 -1.4979  0.0375  0.5453
  902THF    H1212865   2.532   3.795   3.033  0.5760  0.2303 -0.4811
  902THF    H1312866   2.536   3.619   2.998 -0.3947 -1.9643  3.7809
  903THF     O112867   0.225   2.025   3.199 -0.4646  0.1593 -0.6782
  903THF     C212868   0.094   2.074   3.218 -0.5944  0.1772  0.3719
  903THF     C312869   0.281   1.951   3.312 -0.3487 -0.0982 -0.3966
  903THF     H412870   0.023   2.053   3.138  0.4681  0.8037 -0.7702
  903THF     H512871   0.103   2.179   3.245 -2.8103  0.2733  0.8843
  903THF     H612872   0.345   1.871   3.275 -0.4232 -0.9181  1.1806
  903THF     H712873   0.330   2.024   3.377 -2.2328  0.5937  0.3193
  903THF     C812874   0.161   1.902   3.382  0.6293  0.4346 -0.5858
  903THF     C912875   0.047   1.992   3.337  0.1172 -0.5782  0.1243
  903THF    H1012876   0.184   1.896   3.488 -1.2624 -0.7213 -0.1769
  903THF    H1112877   0.134   1.801   3.350  1.9827  0.0626 -0.6087
  903THF    H1212878  -0.044   1.936   3.317  0.6275 -1.1840 -0.5235
  903THF    H1312879   0.024   2.054   3.424  1.6324  0.4302 -0.1580
  904THF     O112880   5.385   1.619   1.076  0.5045  0.5154 -0.3707
  904THF     C212881   5.308   1.625   0.956  0.9023 -0.2853 -0.5049
  904THF     C312882   5.334   1.514   1.158 -0.1825 -0.3519  0.3899
  904THF     H412883   5.338   1.546   0.887  3.1920  0.2652 -0.2200
  904THF     H512884   5.322   1.722   0.910  0.5351  0.5698  1.0976
  904THF     H612885   5.396   1.426   1.142  2.3091  0.8092  2.7586
  904THF     H712886   5.330   1.549   1.261 -2.0820  0.4553  0.0700
  904THF     C812887   5.195   1.497   1.106  0.2230  0.1337  0.1382
  904THF     C912888   5.168   1.611   1.008 -0.3117  0.7408 -0.8957
  904THF    H1012889   5.123   1.505   1.187  2.7418  3.2455  2.3136
  904THF    H1112890   5.179   1.401   1.056  0.4316  0.1110  0.1144
  904THF    H1212891   5.095   1.589   0.931 -1.2375 -1.1407  0.4258
  904THF    H1312892   5.132   1.700   1.059  0.1405 -0.1475  1.1045
  905THF     O112893   5.436   2.724   4.470 -0.2148  0.2038 -0.4984
  905THF     C212894   5.441   2.817   4.578  0.8042  0.5743 -0.1059
  905THF     C312895   5.424   2.593   4.530 -0.3518  0.3191  0.6226
  905THF     H412896   5.341   2.838   4.616  0.6161 -0.0717 -0.2408
  905THF     H512897   5.478   2.914   4.543  2.0085  0.4220  0.6927
  905THF     H612898   5.322   2.579   4.565 -1.1651  1.4267 -1.1601
  905THF     H712899   5.441   2.506   4.467 -0.6777 -1.2802  2.6253
  905THF     C812900   5.525   2.602   4.645  0.6691  0.3353  0.4196
  905THF     C912901   5.529   2.751   4.684  0.7193  0.9306  0.7075
  905THF    H1012902   5.626   2.586   4.608  0.2585 -0.8368 -0.2210
  905THF    H1112903   5.496   2.531   4.722  0.7299 -0.0346  0.1010
  905THF    H1212904   5.507   2.781   4.786  0.5311 -0.6431  1.1688
  905THF    H1312905   5.631   2.781   4.664  1.3320  0.2528  2.5968
  906THF     O112906   4.902   1.077   4.368 -0.0484  0.2422 -0.1928
  906THF     C212907   4.947   1.125   4.493 -0.0121 -0.3318  0.4329
  906THF     C312908   4.761   1.099   4.358  0.2878 -0.5348  0.3604
  906THF     H412909   5.022   1.204   4.489 -0.9997  0.6019 -0.4478
  906THF     H512910   4.975   1.039   4.553  1.4991  1.3600  2.2778
  906THF     H612911   4.750   1.178   4.284 -1.5301 -0.5330  0.5841
  906THF     H712912   4.724   1.009   4.308  2.4787 -1.0218 -0.5092
  906THF     C812913   4.708   1.111   4.499  0.1348 -0.3983  0.1816
  906THF     C912914   4.822   1.175   4.571 -0.6272  0.1405  0.3104
  906THF    H1012915   4.687   1.010   4.534 -1.7026  0.1758  0.8501
  906THF    H1112916   4.618   1.172   4.507  1.2120  1.0405  2.0803
  906THF    H1212917   4.822   1.284   4.568 -0.7450  0.1596  0.9267
  906THF    H1312918   4.829   1.157   4.678  0.6016  0.5117  0.3092
  907THF     O112919   5.121   5.239   4.240 -0.2031  0.2548  0.1288
  907THF     C212920   5.060   5.359   4.282  0.4451  0.1688 -0.3986
  907THF     C312921   5.024   5.151   4.177 -0.6743 -0.2639 -0.4015
  907THF     H412922   5.112   5.448   4.244  0.8997  0.3460  0.6037
  907THF     H512923   5.057   5.377   4.389 -1.1985  3.3003 -0.8581
  907THF     H612924   5.062   5.103   4.087 -1.2883  0.6434 -1.1710
  907THF     H712925   4.998   5.075   4.251  1.1179 -0.4608  0.0586
  907THF     C812926   4.915   5.238   4.134  0.1451 -0.2608  0.1452
  907THF     C912927   4.914   5.353   4.237 -0.1614 -0.4064  0.7305
  907THF    H1012928   4.826   5.176   4.124  1.8683 -2.7116 -1.3188
  907THF    H1112929   4.938   5.282   4.037 -2.1526  1.8358  0.4477
  907THF    H1212930   4.897   5.453   4.196  2.6000  0.3747  1.2670
  907THF    H1312931   4.852   5.321   4.320  1.1133 -0.4843  1.6867
  908THF     O112932   2.569   0.288   2.187 -0.2806  0.3296  0.0388
  908THF     C212933   2.683   0.224   2.141 -0.2864  0.2734 -0.3432
  908THF     C312934   2.475   0.187   2.202  0.3816 -0.1511  0.1268
  908THF     H412935   2.767   0.281   2.181 -0.4761  0.0168  0.4458
  908THF     H512936   2.681   0.218   2.032  1.1151 -1.4016 -0.3135
  908THF     H612937   2.393   0.216   2.267  2.5616  3.8703  1.3758
  908THF     H712938   2.446   0.150   2.103 -0.0679  0.1185  0.1538
  908THF     C812939   2.543   0.071   2.271  0.1968 -0.1325  0.5156
  908THF     C912940   2.681   0.087   2.208 -0.6742  0.5906  0.0100
  908THF    H1012941   2.492  -0.025   2.257  0.0997 -0.1585  1.0182
  908THF    H1112942   2.544   0.083   2.379  1.3667 -1.4107  0.6697
  908THF    H1212943   2.763   0.095   2.279  0.6050 -0.6351 -1.2521
  908THF    H1312944   2.714   0.003   2.147 -1.5440 -1.7304  2.5619
  909THF     O112945   0.721   4.990   1.844  0.8494  0.1576  0.8360
  909THF     C212946   0.823   4.992   1.754 -0.1405  0.6259  0.0704
  909THF     C312947   0.607   4.922   1.799  0.1674 -0.3886 -0.3733
  909THF     H412948   0.898   4.923   1.790  1.2202  2.4659  0.9096
  909THF     H512949   0.876   5.085   1.736  1.0573 -0.1750 -0.6769
  909THF     H612950   0.557   4.864   1.877 -1.9735  0.3297 -1.1430
  909THF     H712951   0.537   4.999   1.767  0.0722 -0.5550 -0.5746
  909THF     C812952   0.643   4.841   1.678 -0.3180 -0.4054 -0.3265
  909THF     C912953   0.757   4.940   1.623  0.3355 -0.2029  0.7112
  909THF    H1012954   0.568   4.841   1.600  1.1539 -2.3059 -1.8339
  909THF    H1112955   0.672   4.741   1.709  0.1321 -0.1480  0.1002
  909THF    H1212956   0.824   4.874   1.568  0.8458  0.7730  0.1289
  909THF    H1312957   0.718   5.010   1.548 -0.1732 -0.0485  1.1118
  910THF     O112958   3.655   4.520   5.178 -0.2853  0.2245  0.0404
  910THF     C212959   3.700   4.630   5.094  0.9631  0.2537 -0.4845
  910THF     C312960   3.648   4.570   5.312  0.0028  1.0604  0.7797
  910THF     H412961   3.626   4.664   5.021  0.2323 -1.9337 -0.8361
  910THF     H512962   3.781   4.605   5.025  0.3805 -0.8406 -0.7969
  910THF     H612963   3.572   4.509   5.360  0.5496 -1.2659 -1.1288
  910THF     H712964   3.744   4.553   5.360 -0.3008  0.8503  1.3216
  910THF     C812965   3.613   4.715   5.297  0.4306 -0.2944 -0.2330
  910THF     C912966   3.712   4.745   5.192  0.4903  0.6372  0.0968
  910THF    H1012967   3.617   4.771   5.390  1.2073 -1.8555  0.7074
  910THF    H1112968   3.517   4.729   5.246  0.6960  0.8133 -0.4585
  910THF    H1212969   3.697   4.842   5.143 -0.2521  1.9833  2.8116
  910THF    H1312970   3.813   4.755   5.231  0.5462  1.7288 -0.2936
  911THF     O112971   5.271   2.638   2.904 -0.3613  0.0871 -0.1091
  911THF     C212972   5.408   2.602   2.919 -0.3693 -0.2742  0.6055
  911THF     C312973   5.273   2.709   2.779 -0.6493  0.2101 -0.2547
  911THF     H412974   5.421   2.524   2.995  2.1107 -0.3449  0.1694
  911THF     H512975   5.461   2.692   2.950 -1.2778  1.0997 -1.5984
  911THF     H612976   5.169   2.729   2.751 -0.4698  3.0441  0.7799
  911THF     H712977   5.321   2.806   2.791  1.6622 -1.1848  3.2110
  911THF     C812978   5.358   2.617   2.692  0.4409 -0.2604 -0.2049
  911THF     C912979   5.461   2.552   2.783 -0.4493 -0.3294 -0.4674
  911THF    H1012980   5.402   2.662   2.603 -1.5048  0.6056 -0.7712
  911THF    H1112981   5.292   2.544   2.644 -0.7325  0.8927 -0.3928
  911THF    H1212982   5.463   2.445   2.763  1.8579 -0.1720 -1.4327
  911THF    H1312983   5.563   2.588   2.766  0.2163 -1.1851  1.3906
  912THF     O112984   1.078   2.396   0.852 -0.1437  0.0724  0.3951
  912THF     C212985   0.950   2.363   0.903  0.3481 -0.1591 -0.1897
  912THF     C312986   1.069   2.504   0.753 -0.1797 -0.0782  0.0170
  912THF     H412987   0.903   2.455   0.939 -0.5971  0.2598 -2.3275
  912THF     H512988   0.944   2.277   0.969 -0.3581 -1.6259 -2.0921
  912THF     H612989   1.050   2.600   0.799  0.6919 -0.8885  2.1717
  912THF     H712990   1.164   2.496   0.700  0.1658  1.9432  0.2635
  912THF     C812991   0.957   2.443   0.674  0.2478 -0.4499  0.4885
  912THF     C912992   0.878   2.358   0.768  0.3294 -0.1110  0.2826
  912THF    H1012993   0.998   2.380   0.595  0.1284 -0.1843  0.2092
  912THF    H1112994   0.899   2.519   0.620  0.0318 -0.8727  0.1226
  912THF    H1212995   0.773   2.386   0.780  0.5310  0.6106  0.3777
  912THF    H1312996   0.876   2.255   0.731 -0.3637 -0.4954  1.3255
  913THF     O112997   3.229   4.550   4.231 -0.2184 -0.0555 -0.4771
  913THF     C212998   3.358   4.567   4.288  0.8500  0.0961 -0.4323
  913THF     C312999   3.249   4.517   4.101  0.3003  0.1614  0.0619
  913THF     H413000   3.403   4.472   4.314  1.4778  0.3212 -0.6849
  913THF     H513001   3.341   4.634   4.373 -0.1006  0.4934 -0.9184
  913THF     H613002   3.250   4.409   4.091 -0.1359  0.1082  0.5030
  913THF     H713003   3.168   4.538   4.030 -0.1692 -1.1799  0.1882
  913THF     C813004   3.372   4.589   4.050 -0.0809  0.0263 -0.1318
  913THF     C913005   3.429   4.654   4.172  0.1413  1.3107  0.0239
  913THF    H1013006   3.351   4.670   3.980 -0.2286 -0.8514 -1.1354
  913THF    H1113007   3.448   4.524   4.006 -3.2408 -3.5878 -0.8155
  913THF    H1213008   3.537   4.650   4.166  0.0415 -1.9947 -1.5753
  913THF    H1313009   3.403   4.759   4.188  1.4698  1.3730  2.1508
  914THF     O113010   3.590   4.434   1.568  0.0167  0.2831 -0.0256
  914THF     C213011   3.658   4.311   1.612 -0.0582 -0.1841 -0.2088
  914THF     C313012   3.647   4.549   1.639 -0.2459 -0.0745  0.5912
  914THF     H413013   3.758   4.307   1.569  0.4803 -1.2292  1.0813
  914THF     H513014   3.605   4.217   1.604 -0.0598 -0.5126  2.5530
  914THF     H613015   3.719   4.600   1.575  0.2674 -1.2252  0.2291
  914THF     H713016   3.568   4.620   1.665 -1.9152 -1.9687  0.9919
  914THF     C813017   3.729   4.487   1.759 -0.1398  0.2248  0.5582
  914THF     C913018   3.680   4.342   1.759 -0.4158 -0.6636 -0.6240
  914THF    H1013019   3.715   4.536   1.855  2.1558  1.9786  0.0861
  914THF    H1113020   3.834   4.496   1.732 -0.5253 -1.0092 -1.6175
  914THF    H1213021   3.762   4.284   1.802  0.1264  0.1889 -0.4569
  914THF    H1313022   3.584   4.340   1.811 -1.3079  0.6381 -2.1370
  915THF     O113023   1.550   2.862   4.718 -0.3374 -0.2551 -0.2371
  915THF     C213024   1.477   2.746   4.731 -0.0471  0.7371  0.2507
  915THF     C313025   1.674   2.863   4.795 -0.2717  0.8424 -0.2688
  915THF     H413026   1.493   2.674   4.651 -2.7215  0.3899 -0.0799
  915THF     H513027   1.370   2.768   4.740 -0.4209 -1.2112  1.1894
  915THF     H613028   1.754   2.900   4.732 -0.7439  2.0585 -0.1941
  915THF     H713029   1.660   2.934   4.877 -4.0303  1.0788 -0.9500
  915THF     C813030   1.685   2.719   4.849 -0.6679  0.1280  0.1912
  915THF     C913031   1.535   2.681   4.857  0.4475  0.1614  0.2721
  915THF    H1013032   1.732   2.710   4.947 -0.7869 -2.4311  0.0955
  915THF    H1113033   1.736   2.657   4.776  0.6354  0.9375  0.3908
  915THF    H1213034   1.520   2.573   4.862  0.6962  0.1695  2.7040
  915THF    H1313035   1.484   2.719   4.946 -1.0772  1.4293 -1.0969
  916THF     O113036   3.956   4.429   0.262 -0.4653 -0.2168  0.2797
  916THF     C213037   3.824   4.474   0.248  0.5950  0.5684 -0.4708
  916THF     C313038   3.949   4.288   0.259 -0.4373  0.0259  0.3682
  916THF     H413039   3.829   4.576   0.210 -3.3971  0.4538 -1.8214
  916THF     H513040   3.761   4.463   0.337 -1.7341 -1.1086 -2.1827
  916THF     H613041   4.048   4.246   0.240 -0.2598 -0.6761  2.5437
  916THF     H713042   3.929   4.259   0.363  0.1597 -1.4847  0.1015
  916THF     C813043   3.835   4.248   0.167 -0.6783  0.2122 -0.5005
  916THF     C913044   3.758   4.376   0.147  0.2998 -0.0651  0.2530
  916THF    H1013045   3.773   4.173   0.217 -1.0783 -0.1721 -1.5629
  916THF    H1113046   3.867   4.216   0.068  1.0498 -1.4707  0.5262
  916THF    H1213047   3.771   4.408   0.043  1.4451 -1.2620  0.0027
  916THF    H1313048   3.650   4.363   0.149  0.2626 -0.1041 -1.1626
  917THF     O113049   2.098   2.189   3.825 -0.3370 -0.6534  0.3911
  917THF     C213050   2.169   2.307   3.878  0.0903  0.2964  0.2202
  917THF     C313051   2.073   2.210   3.689  0.0447  0.0367  0.4984
  917THF     H413052   2.261   2.291   3.934 -0.0816  1.5537  0.9105
  917THF     H513053   2.094   2.345   3.947 -0.6357 -2.3927  1.0316
  917THF     H613054   2.149   2.167   3.625 -0.3115  0.6084 -0.3168
  917THF     H713055   1.982   2.159   3.658  0.0155 -0.5213  1.4423
  917THF     C813056   2.071   2.359   3.668 -0.8307  0.2370 -0.2625
  917THF     C913057   2.187   2.398   3.757  0.2573  0.0506 -1.0716
  917THF    H1013058   1.976   2.401   3.699 -0.7269  3.4114 -3.5269
  917THF    H1113059   2.080   2.388   3.563 -0.1205  1.2249  0.0546
  917THF    H1213060   2.278   2.365   3.707 -0.6610 -0.4084 -2.4847
  917THF    H1313061   2.216   2.502   3.767 -0.9832  0.3982 -0.9062
  918THF     O113062   5.108   3.952   4.724 -0.3069  0.3856  0.3410
  918THF     C213063   4.984   3.996   4.660 -0.6179  0.2425 -1.0535
  918THF     C313064   5.088   3.976   4.865  0.1902 -0.3064 -0.0116
  918THF     H413065   4.918   3.909   4.654 -0.4704  0.2214 -2.5265
  918THF     H513066   5.006   4.019   4.556  0.9265  3.0171 -0.1936
  918THF     H613067   5.041   3.886   4.907 -0.9080 -0.0191 -0.6015
  918THF     H713068   5.178   3.995   4.924 -1.0478  3.2438  1.0013
  918THF     C813069   4.989   4.098   4.874  0.5182 -0.1328  0.7005
  918THF     C913070   4.921   4.111   4.739 -0.5902  0.2496 -0.0075
  918THF    H1013071   5.039   4.188   4.910  0.9841  0.1944 -0.6903
  918THF    H1113072   4.912   4.088   4.951  0.3670  0.9934  0.7070
  918THF    H1213073   4.812   4.111   4.740 -0.6066 -1.0841 -0.1080
  918THF    H1313074   4.955   4.203   4.692 -0.1525  0.0239 -0.1443
  919THF     O113075   2.000   4.795   2.710  0.2021  0.0141 -0.1416
  919THF     C213076   1.879   4.783   2.633 -0.4612  0.2070  0.1979
  919THF     C313077   1.982   4.892   2.816  0.7637 -0.2207  0.2072
  919THF     H413078   1.836   4.685   2.650  0.0700 -0.2709 -1.1096
  919THF     H513079   1.898   4.792   2.526  2.2320  0.3955  0.6302
  919THF     H613080   2.051   4.871   2.898  1.7352  0.8573 -0.3061
  919THF     H713081   2.030   4.986   2.787 -0.7446  0.8848  1.1458
  919THF     C813082   1.840   4.932   2.826 -0.6755  0.3053 -0.3099
  919THF     C913083   1.805   4.904   2.677  0.2370  0.0196  0.0100
  919THF    H1013084   1.820   5.037   2.847  2.7722  1.1221 -0.4898
  919THF    H1113085   1.776   4.865   2.883  1.1823 -1.5158 -0.2566
  919THF    H1213086   1.700   4.889   2.652 -0.3628 -0.3773  2.5048
  919THF    H1313087   1.847   4.979   2.610  0.7458  0.8544  1.2260
  920THF     O113088   4.838   3.287   5.258  0.5769 -0.0449  0.1352
  920THF     C213089   4.731   3.386   5.270 -0.3275  0.3342 -0.0322
  920THF     C313090   4.946   3.338   5.180 -0.2038  0.1131  1.0825
  920THF     H413091   4.722   3.424   5.372 -0.4611 -1.1092  0.5172
  920THF     H513092   4.635   3.341   5.247 -0.3493  0.2962  0.1328
  920THF     H613093   5.040   3.290   5.207 -0.5080  0.2833  2.5300
  920THF     H713094   4.932   3.309   5.076  0.5447 -1.1660  1.3212
  920THF     C813095   4.927   3.498   5.180 -0.1750 -0.6224 -0.0245
  920THF     C913096   4.774   3.497   5.174 -0.1441 -0.4015  0.5857
  920THF    H1013097   4.975   3.544   5.093  0.0770  0.1047  0.4842
  920THF    H1113098   4.973   3.524   5.276  1.0558 -0.4134 -0.6408
  920THF    H1213099   4.726   3.595   5.179 -1.6746 -1.0892 -0.1796
  920THF    H1313100   4.739   3.465   5.076 -0.7462  2.6132 -0.2948
  921THF     O113101   1.156   0.834   2.766 -0.3791  0.2205 -0.3090
  921THF     C213102   1.054   0.782   2.678 -0.3138 -0.0827 -0.2066
  921THF     C313103   1.167   0.748   2.872  0.2364  0.7760 -0.5703
  921THF     H413104   1.077   0.801   2.574  0.1783  2.1765  0.2730
  921THF     H513105   0.961   0.833   2.705  0.9329  0.5187  3.5801
  921THF     H613106   1.258   0.759   2.931  0.6829 -1.4510 -0.7373
  921THF     H713107   1.092   0.765   2.949 -0.1165 -3.2934  0.1834
  921THF     C813108   1.152   0.609   2.813  0.7491 -0.4608  0.0992
  921THF     C913109   1.044   0.633   2.709 -0.5114  0.0956  0.2530
  921THF    H1013110   1.124   0.548   2.899  2.5529 -0.0850  0.9954
  921THF    H1113111   1.243   0.571   2.768  0.3547 -0.0226 -1.0947
  921THF    H1213112   1.067   0.570   2.622 -0.4393  0.3420  0.0920
  921THF    H1313113   0.946   0.611   2.750 -1.0777 -0.7113 -1.4126
  922THF     O113114   4.386   4.041   0.882  0.1758 -0.0467  0.4695
  922THF     C213115   4.456   4.148   0.935 -0.3176 -0.0180 -0.6542
  922THF     C313116   4.261   4.033   0.950  0.0783  0.3755 -0.2187
  922THF     H413117   4.539   4.172   0.869 -0.6035 -0.7835 -1.3004
  922THF     H513118   4.494   4.102   1.026  0.6525 -2.1219 -2.0661
  922THF     H613119   4.181   3.994   0.888  0.8050 -2.6242  0.5957
  922THF     H713120   4.265   3.952   1.023 -1.7026 -1.2509 -1.8184
  922THF     C813121   4.240   4.173   1.014 -0.0679  0.6221  0.5960
  922THF     C913122   4.350   4.260   0.960  1.0749  0.2001  0.4715
  922THF    H1013123   4.265   4.172   1.121 -0.9092  1.4875  0.8126
  922THF    H1113124   4.146   4.224   0.995 -1.3431 -2.1487 -1.0434
  922THF    H1213125   4.310   4.297   0.866 -0.2035  0.7005  1.1904
  922THF    H1313126   4.384   4.341   1.024  1.5392 -2.0161  3.2565
  923THF     O113127   4.162   4.883   4.860 -0.5020  0.1062  0.5378
  923THF     C213128   4.099   4.846   4.986 -0.1344 -0.4852  0.5940
  923THF     C313129   4.263   4.790   4.816 -0.1491  0.3287  0.3291
  923THF     H413130   3.990   4.840   4.979 -0.2408  2.0429 -1.5030
  923THF     H513131   4.120   4.918   5.065  2.7101 -0.3549 -0.1918
  923THF     H613132   4.226   4.717   4.744  0.4963  1.0484 -0.7661
  923THF     H713133   4.353   4.833   4.771 -0.0594  1.2874  1.3874
  923THF     C813134   4.296   4.721   4.948  0.0479  0.3097  0.8689
  923THF     C913135   4.160   4.710   5.010  1.3594  0.6201 -0.7427
  923THF    H1013136   4.357   4.793   5.003  0.4334  1.3664 -0.8577
  923THF    H1113137   4.352   4.628   4.941  0.7325  0.8340 -4.1578
  923THF    H1213138   4.096   4.635   4.965  0.2531 -0.9342  3.0262
  923THF    H1313139   4.164   4.674   5.113 -0.5981 -2.3065 -1.5826
  924THF     O113140   2.727   1.567   5.355  0.2465 -0.7406  0.4108
  924THF     C213141   2.672   1.679   5.288  0.3267 -0.4412 -0.6891
  924THF     C313142   2.710   1.599   5.497  0.0074 -0.0017  0.3825
  924THF     H413143   2.644   1.670   5.183 -1.8642  2.4575 -0.4888
  924THF     H513144   2.742   1.761   5.303 -0.3086 -0.3199  2.1045
  924THF     H613145   2.738   1.513   5.557  0.0804 -1.4426 -1.6187
  924THF     H713146   2.766   1.690   5.522  0.2932  0.1165 -0.6565
  924THF     C813147   2.563   1.642   5.498 -0.5612 -0.3664  0.4480
  924THF     C913148   2.544   1.704   5.365  1.1828 -0.3710  0.3895
  924THF    H1013149   2.541   1.704   5.585  1.9030  0.7233  0.3894
  924THF    H1113150   2.503   1.551   5.506 -0.2920 -0.4874  1.2103
  924THF    H1213151   2.453   1.668   5.317 -1.6658  3.9192  1.9099
  924THF    H1313152   2.542   1.812   5.382 -0.2860 -0.2868 -0.1184
  925THF     O113153   4.031   4.517   2.714  0.4463 -0.2744 -0.4676
  925THF     C213154   3.926   4.419   2.702  0.6495  0.6294 -0.4513
  925THF     C313155   4.114   4.470   2.815  0.5130  0.2416 -0.3504
  925THF     H413156   3.949   4.317   2.670 -1.1695 -0.0479  0.2404
  925THF     H513157   3.853   4.458   2.631  0.3625 -1.1018 -1.1504
  925THF     H613158   4.180   4.392   2.779 -2.9715 -1.0844 -4.8423
  925THF     H713159   4.162   4.550   2.870 -0.8039 -1.3336  3.4260
  925THF     C813160   4.014   4.408   2.913  0.1450  0.8858  0.1050
  925THF     C913161   3.881   4.393   2.846 -0.0900 -0.0705  0.4466
  925THF    H1013162   4.002   4.460   3.009  2.1192  0.3958  0.6588
  925THF    H1113163   4.045   4.306   2.936 -0.2790  1.5062  4.2842
  925THF    H1213164   3.837   4.294   2.860 -1.5351  0.4102 -0.4418
  925THF    H1313165   3.806   4.465   2.879  0.8832  0.1588  2.2850
  926THF     O113166   1.198   3.452   3.414 -0.8590 -0.0048 -0.3033
  926THF     C213167   1.087   3.504   3.490  0.1158  0.0406  0.1474
  926THF     C313168   1.266   3.362   3.502  0.2665 -0.0156  0.1199
  926THF     H413169   1.000   3.541   3.436 -0.6865  2.4412  2.8433
  926THF     H513170   1.128   3.584   3.552 -0.4903  0.7582 -0.3707
  926THF     H613171   1.343   3.300   3.455 -0.8211 -0.5837 -0.9604
  926THF     H713172   1.318   3.429   3.570 -1.6642  0.7419  0.9245
  926THF     C813173   1.164   3.281   3.577  1.0526  0.2375 -0.2517
  926THF     C913174   1.047   3.387   3.583 -0.2046 -0.2417 -0.1254
  926THF    H1013175   1.214   3.251   3.669  2.3116 -1.2673 -1.3511
  926THF    H1113176   1.140   3.197   3.512 -0.2048  0.1926  0.2400
  926THF    H1213177   0.949   3.342   3.567 -0.5682  0.8483 -1.1354
  926THF    H1313178   1.056   3.427   3.684  2.0970  1.3030 -0.8703
  927THF     O113179   0.806   3.477   4.559 -0.5645  0.7202  0.3328
  927THF     C213180   0.780   3.363   4.468  0.1581  0.2631  0.2606
  927THF     C313181   0.816   3.599   4.484 -0.3171 -0.1753  0.0158
  927THF     H413182   0.697   3.297   4.494 -0.6354  0.6990 -1.0472
  927THF     H513183   0.874   3.312   4.447  1.1527  2.1465  0.0080
  927THF     H613184   0.786   3.687   4.541 -0.8524  0.1449 -0.7376
  927THF     H713185   0.916   3.619   4.447 -0.6716  0.0636 -0.8364
  927THF     C813186   0.718   3.579   4.373  0.4602  0.7698 -0.1686
  927THF     C913187   0.746   3.431   4.333  0.5723 -0.3733 -0.5180
  927THF    H1013188   0.744   3.642   4.288 -0.6595  1.5210  0.0102
  927THF    H1113189   0.618   3.590   4.416  0.2885 -1.1307 -0.0355
  927THF    H1213190   0.657   3.390   4.286  0.5002  0.4742 -1.1459
  927THF    H1313191   0.837   3.428   4.272  1.5792  0.1446  0.8985
  928THF     O113192   4.163   4.123   1.570 -0.1775  0.2712 -0.0733
  928THF     C213193   4.304   4.119   1.584  0.0783  0.5529  0.1720
  928THF     C313194   4.117   4.258   1.555  0.8881  0.5044 -0.5213
  928THF     H413195   4.340   4.028   1.536  0.7831 -0.0186  1.6967
  928THF     H513196   4.339   4.121   1.688 -0.6594  0.7014  0.4240
  928THF     H613197   4.020   4.251   1.506 -0.4721  1.3252  1.8826
  928THF     H713198   4.112   4.292   1.658  0.1460  1.3333 -0.8174
  928THF     C813199   4.221   4.318   1.459 -0.2914 -0.2163 -0.8216
  928THF     C913200   4.353   4.246   1.517 -0.2639  0.0165  1.1465
  928THF    H1013201   4.218   4.427   1.452 -1.4352 -0.3190 -2.3843
  928THF    H1113202   4.201   4.296   1.354 -0.4782  0.0384 -0.8409
  928THF    H1213203   4.432   4.238   1.442  0.3959 -0.3185  1.8529
  928THF    H1313204   4.395   4.310   1.595  1.6612 -0.9518  0.9610
  929THF     O113205   1.579   0.954   3.124 -0.6564 -0.5850 -0.3565
  929THF     C213206   1.641   1.040   3.220  0.1149  0.5013 -0.8074
  929THF     C313207   1.693   0.895   3.048  0.2808 -0.6750 -0.4430
  929THF     H413208   1.657   0.983   3.311  1.6916  1.2101 -0.6020
  929THF     H513209   1.576   1.122   3.250 -2.3365 -1.8391  0.7348
  929THF     H613210   1.731   0.816   3.112  0.7320 -0.2955 -0.2383
  929THF     H713211   1.668   0.865   2.946 -1.2090 -0.9136 -0.0390
  929THF     C813212   1.785   1.011   3.027 -0.1930 -0.3296  0.1640
  929THF     C913213   1.764   1.101   3.152 -0.3998 -0.2894  0.5607
  929THF    H1013214   1.764   1.068   2.937  0.7885  1.1582  0.8365
  929THF    H1113215   1.887   0.977   3.004 -0.4698 -0.7275 -0.5253
  929THF    H1213216   1.847   1.103   3.223  0.0726  1.0313  0.0069
  929THF    H1313217   1.749   1.204   3.122 -0.1564 -0.8806 -1.7621
  930THF     O113218   4.313   1.420   0.033 -0.0729 -0.1426  0.1485
  930THF     C213219   4.215   1.510   0.076 -0.5048 -0.5318  0.0401
  930THF     C313220   4.353   1.324   0.131 -1.1198 -0.1560  0.0488
  930THF     H413221   4.115   1.466   0.070 -1.0420  0.4626  1.2177
  930THF     H513222   4.218   1.602   0.018 -0.4203  0.1891  1.1520
  930THF     H613223   4.290   1.235   0.134  0.6215 -1.4712 -0.7555
  930THF     H713224   4.456   1.298   0.107 -2.0225 -2.5703 -1.5635
  930THF     C813225   4.340   1.408   0.259  0.2023 -0.2741 -0.1786
  930THF     C913226   4.253   1.525   0.221  0.5621  0.5471  0.6313
  930THF    H1013227   4.435   1.453   0.286 -0.1972 -1.0148  2.7074
  930THF    H1113228   4.294   1.345   0.334 -0.3988 -0.2909 -0.5521
  930THF    H1213229   4.161   1.538   0.280  0.1596 -0.9223  0.3756
  930THF    H1313230   4.310   1.618   0.221 -0.1079  1.0349  3.0161
  931THF     O113231   3.881   4.841   2.730  0.4455  0.1378 -0.8175
  931THF     C213232   3.813   4.968   2.734  0.1562  0.5302  0.0768
  931THF     C313233   3.950   4.828   2.857  0.7848 -0.3232  0.1227
  931THF     H413234   3.715   4.948   2.690 -0.1473  2.1552 -0.0470
  931THF     H513235   3.861   5.040   2.668  1.3948  0.2071  0.6057
  931THF     H613236   3.950   4.719   2.869 -0.7632 -0.2738  0.8502
  931THF     H713237   4.057   4.852   2.860  0.9695 -0.9989 -0.7917
  931THF     C813238   3.859   4.895   2.960 -0.0273  0.3841  0.0857
  931THF     C913239   3.803   5.011   2.881  1.0012  0.0293 -0.4902
  931THF    H1013240   3.918   4.928   3.045 -0.3419  3.5715 -0.8309
  931THF    H1113241   3.777   4.827   2.987 -1.1984  1.7971  0.2175
  931THF    H1213242   3.702   5.043   2.907  0.2531 -3.6486  1.8427
  931THF    H1313243   3.874   5.093   2.896 -1.4056  2.6032 -2.2541
  932THF     O113244   0.290   1.562   2.097 -0.5816  0.1915 -0.5624
  932THF     C213245   0.335   1.456   2.008 -0.3551  0.0403 -0.1265
  932THF     C313246   0.297   1.516   2.231  0.0365 -0.1416 -0.0950
  932THF     H413247   0.400   1.500   1.932 -1.3936  1.8643 -0.0269
  932THF     H513248   0.248   1.417   1.955 -0.0321 -0.2128 -0.4753
  932THF     H613249   0.310   1.594   2.307  1.2538 -1.0987  0.7249
  932THF     H713250   0.201   1.467   2.243 -1.1470  1.9737 -0.5543
  932THF     C813251   0.417   1.425   2.227  0.4513  0.2583 -0.5561
  932THF     C913252   0.409   1.346   2.097  0.4010  0.2578 -0.3712
  932THF    H1013253   0.416   1.351   2.307 -0.3610  0.7570 -0.0868
  932THF    H1113254   0.514   1.474   2.233 -0.0512  1.2251  0.1301
  932THF    H1213255   0.508   1.335   2.052  1.3063  0.5627  1.4309
  932THF    H1313256   0.349   1.259   2.121 -0.5151  1.2768  1.1343
  933THF     O113257   1.173   1.899   0.518 -0.2612  0.2191 -0.0648
  933THF     C213258   1.056   1.829   0.524 -0.5503 -0.2031 -0.6663
  933THF     C313259   1.140   2.032   0.482  0.1609 -0.2472  0.8245
  933THF     H413260   1.074   1.752   0.599  2.1041  2.1788  1.3341
  933THF     H513261   1.032   1.784   0.427 -1.3610  1.4193 -1.2632
  933THF     H613262   1.213   2.095   0.533 -0.1217  1.4344 -0.7337
  933THF     H713263   1.134   2.049   0.374 -2.3245 -3.4637  0.3011
  933THF     C813264   1.001   2.054   0.556 -0.3010 -0.1368 -0.1663
  933THF     C913265   0.947   1.919   0.579 -0.4707 -0.3627 -0.2667
  933THF    H1013266   0.934   2.102   0.484 -1.7514 -0.3018  1.0152
  933THF    H1113267   1.007   2.108   0.650 -0.9389  0.2534 -0.3427
  933THF    H1213268   0.903   1.905   0.678  0.4037  1.2571  0.3988
  933THF    H1313269   0.863   1.907   0.511  0.7879 -0.1124 -1.9138
  934THF     O113270   0.209   0.418   5.429 -0.0013 -0.0946 -0.1064
  934THF     C213271   0.308   0.364   5.518 -0.5828 -0.2526  0.0284
  934THF     C313272   0.267   0.455   5.303  0.8234 -0.2483 -0.7627
  934THF     H413273   0.291   0.256   5.522 -2.5463 -0.0511 -1.2498
  934THF     H513274   0.292   0.402   5.618 -2.7504 -0.1246 -0.3070
  934THF     H613275   0.244   0.370   5.238 -1.2478 -2.4004  2.4880
  934THF     H713276   0.230   0.548   5.259  2.4620  0.5139 -0.5963
  934THF     C813277   0.419   0.454   5.316  0.1743 -0.3149 -0.0621
  934THF     C913278   0.441   0.400   5.455 -0.3109  0.0831  0.3871
  934THF    H1013279   0.455   0.555   5.298 -1.7706  0.5066  0.3444
  934THF    H1113280   0.460   0.396   5.234  2.3627  1.0928 -0.0551
  934THF    H1213281   0.494   0.306   5.441 -0.4226  0.0605  0.1157
  934THF    H1313282   0.488   0.475   5.519  1.4720 -0.8774  0.2799
  935THF     O113283   0.052   2.132   1.096 -0.4879  0.2363 -0.1081
  935THF     C213284   0.028   2.018   1.018  0.4572 -0.5622 -0.6069
  935THF     C313285  -0.048   2.233   1.088 -0.5259 -0.1480  0.5302
  935THF     H413286  -0.005   1.945   1.092 -0.7425 -0.7749 -1.3228
  935THF     H513287   0.122   1.993   0.969  0.4316 -2.4698  0.2404
  935THF     H613288  -0.117   2.203   1.167 -1.0646 -0.1369  0.0713
  935THF     H713289  -0.012   2.332   1.113  1.3272 -0.3284 -1.1901
  935THF     C813290  -0.109   2.215   0.946 -0.1718 -0.2890 -0.0263
  935THF     C913291  -0.091   2.060   0.926  0.1374  0.2261  0.5548
  935THF    H1013292  -0.046   2.270   0.876 -0.0707  1.0960  1.0943
  935THF    H1113293  -0.208   2.260   0.940  0.7144  1.5345 -2.2918
  935THF    H1213294  -0.179   2.002   0.953 -0.3329  0.7553  0.1909
  935THF    H1313295  -0.066   2.051   0.821 -0.4227 -0.5830  0.4859
  936THF     O113296   0.371   3.800   0.787  0.1287 -0.7238  0.1202
  936THF     C213297   0.326   3.845   0.909 -0.5473  0.3055 -0.2546
  936THF     C313298   0.507   3.765   0.802 -0.5723 -0.1331  0.5274
  936THF     H413299   0.323   3.750   0.962  0.6517 -0.0254 -0.7437
  936THF     H513300   0.229   3.892   0.899 -3.1305 -3.9468  2.0414
  936THF     H613301   0.522   3.668   0.850  2.0845  0.5172  1.1644
  936THF     H713302   0.542   3.773   0.699  0.8195  1.0486  1.0553
  936THF     C813303   0.562   3.874   0.894  0.1900 -0.6123 -0.2367
  936THF     C913304   0.439   3.934   0.956  0.2868  0.2215  0.6421
  936THF    H1013305   0.619   3.949   0.839 -1.4609  2.2445  1.6829
  936THF    H1113306   0.634   3.850   0.971  0.4557  1.1878  0.1314
  936THF    H1213307   0.448   3.937   1.065  0.8040 -1.5035  0.6860
  936THF    H1313308   0.416   4.027   0.905 -0.7645 -0.5847 -0.4305
  937THF     O113309   3.496   0.044   1.786  0.6005  0.2665  0.1298
  937THF     C213310   3.414  -0.050   1.719  0.1409  0.4641  0.6448
  937THF     C313311   3.517   0.150   1.696  0.3757 -0.3502  0.3444
  937THF     H413312   3.352  -0.101   1.791  0.4252  1.7114  1.8200
  937THF     H513313   3.482  -0.122   1.673  2.0797  0.9804  2.5142
  937THF     H613314   3.554   0.242   1.741 -1.6833  0.7870 -0.1601
  937THF     H713315   3.587   0.108   1.625 -0.6888  0.8061 -1.4792
  937THF     C813316   3.375   0.172   1.638 -0.0565 -0.3900  0.6855
  937THF     C913317   3.327   0.030   1.628 -0.7948 -0.1742 -0.2292
  937THF    H1013318   3.382   0.233   1.548  0.9536  0.6582  1.4497
  937THF    H1113319   3.324   0.239   1.708  1.7022  0.2499  1.4164
  937THF    H1213320   3.222   0.018   1.655 -0.2575 -0.7396  1.8590
  937THF    H1313321   3.344  -0.002   1.526  1.8058 -2.2148  0.7482
  938THF     O113322   0.053   1.304   3.864 -0.3768 -0.8697 -0.2463
  938THF     C213323   0.030   1.348   3.730 -0.2899 -0.6451  0.5648
  938THF     C313324   0.147   1.199   3.881  0.1778  0.1747  0.1447
  938THF     H413325   0.088   1.439   3.711 -2.9732  0.6953 -2.0713
  938THF     H513326  -0.074   1.366   3.704 -0.4281 -1.4335  0.5768
  938THF     H613327   0.215   1.213   3.966  1.4219 -2.1833 -0.3800
  938THF     H713328   0.095   1.106   3.903 -0.4398  0.5501  0.2933
  938THF     C813329   0.216   1.193   3.749  1.4550 -0.4370 -0.0814
  938THF     C913330   0.105   1.247   3.651  0.3002 -0.2131 -0.1631
  938THF    H1013331   0.244   1.092   3.720 -0.6466 -1.1178  0.1349
  938THF    H1113332   0.306   1.255   3.752  1.1598 -0.0169  2.3497
  938THF    H1213333   0.147   1.283   3.557 -0.3617 -0.7954 -0.6915
  938THF    H1313334   0.036   1.166   3.627 -1.3087  1.6812 -2.4551
  939THF     O113335   0.940   2.873   1.184  0.2238 -0.1860  0.1968
  939THF     C213336   0.866   2.816   1.077 -0.1160 -0.4439  0.2214
  939THF     C313337   0.989   3.002   1.146 -1.1482  0.2243 -0.1288
  939THF     H413338   0.768   2.865   1.080  0.1038 -0.0228  1.4926
  939THF     H513339   0.839   2.711   1.081 -2.3213  0.0343 -0.4616
  939THF     H613340   0.920   3.069   1.197  0.6605  1.5945  0.6460
  939THF     H713341   1.093   3.009   1.178 -0.0225 -3.7006 -2.1856
  939THF     C813342   0.983   3.008   1.000  0.5130 -0.0829  0.5885
  939THF     C913343   0.939   2.865   0.955 -0.2041 -0.0823  0.6330
  939THF    H1013344   1.070   3.047   0.947 -1.1542  1.0610 -1.4228
  939THF    H1113345   0.909   3.082   0.972  0.6652 -0.9183 -2.3037
  939THF    H1213346   0.888   2.869   0.859  0.2321  1.4489  0.4361
  939THF    H1313347   1.023   2.798   0.938 -0.3447  0.3599 -2.1650
  940THF     O113348   4.194   1.704   1.826 -0.0255  0.0774  0.4968
  940THF     C213349   4.239   1.674   1.697  0.2591 -0.1218 -0.1040
  940THF     C313350   4.054   1.741   1.804 -0.3387  0.7338  0.9448
  940THF     H413351   4.195   1.580   1.663 -0.5255  0.9783 -2.2791
  940THF     H513352   4.348   1.680   1.703  0.1086  2.9478  2.6470
  940THF     H613353   3.994   1.651   1.793  0.7394 -0.0041  0.8995
  940THF     H713354   4.009   1.799   1.884  0.0887  1.2232  0.8370
  940THF     C813355   4.053   1.824   1.677 -0.2981 -0.6714 -0.7229
  940THF     C913356   4.183   1.784   1.611 -0.1570 -0.9777 -0.0739
  940THF    H1013357   4.053   1.931   1.698 -0.8306 -0.8439  0.1971
  940THF    H1113358   3.965   1.801   1.617 -0.0113 -1.3618 -0.8893
  940THF    H1213359   4.156   1.745   1.513 -0.2327 -0.5688 -0.2203
  940THF    H1313360   4.245   1.874   1.612  0.9889 -1.7392 -0.4513
  941THF     O113361   2.660   4.968   0.306  0.0786  0.0079 -0.2982
  941THF     C213362   2.640   4.829   0.287 -0.0731 -0.0068  0.0407
  941THF     C313363   2.796   4.999   0.333  0.4475  0.0150  0.4688
  941THF     H413364   2.544   4.819   0.236 -0.0989  0.5949 -0.0387
  941THF     H513365   2.643   4.775   0.381  0.3333 -0.1848 -0.0741
  941THF     H613366   2.816   5.104   0.315  0.7558 -0.0344  0.5188
  941THF     H713367   2.819   4.988   0.439 -0.9919  0.9536  0.9104
  941THF     C813368   2.870   4.896   0.250 -0.3216 -0.0693  0.5755
  941THF     C913369   2.761   4.798   0.199  0.2817  0.0226  0.1706
  941THF    H1013370   2.944   4.857   0.319 -0.0456  2.0848  1.5858
  941THF    H1113371   2.903   4.947   0.159 -0.6914 -0.5026  0.1910
  941THF    H1213372   2.738   4.826   0.096 -0.0024  1.0474  0.5011
  941THF    H1313373   2.783   4.693   0.214  0.6968  0.4444  3.3334
  942THF     O113374   3.326   4.763   0.334  0.0667 -0.3206  0.0238
  942THF     C213375   3.309   4.643   0.263 -0.2745 -0.2097  0.6840
  942THF     C313376   3.362   4.854   0.240  0.3802  0.0924  0.2020
  942THF     H413377   3.207   4.632   0.225 -0.1631  2.0715 -0.4783
  942THF     H513378   3.322   4.555   0.326 -1.2619 -1.2714 -0.5278
  942THF     H613379   3.278   4.855   0.170 -0.6768  2.4198  1.3935
  942THF     H713380   3.379   4.953   0.282 -0.9526  0.9770 -1.1941
  942THF     C813381   3.476   4.779   0.178 -0.3897  0.4460 -0.5586
  942THF     C913382   3.426   4.644   0.171  0.6574 -0.0694  0.0196
  942THF    H1013383   3.568   4.777   0.237 -0.9756 -1.1769  0.3348
  942THF    H1113384   3.506   4.823   0.082 -0.2076  0.6437 -0.4136
  942THF    H1213385   3.390   4.624   0.071  1.9639 -2.4325 -0.0467
  942THF    H1313386   3.505   4.575   0.202  0.4410 -0.2920  0.0714
  943THF     O113387   3.420   2.781   3.926  0.1373 -0.2308 -0.3475
  943THF     C213388   3.474   2.887   3.848  0.2989 -0.4506  0.5151
  943THF     C313389   3.331   2.704   3.843  0.0132 -0.8574 -0.7359
  943THF     H413390   3.575   2.914   3.880  0.6133  1.4560 -1.7803
  943THF     H513391   3.414   2.977   3.860 -0.2108 -0.7838  0.5056
  943THF     H613392   3.371   2.603   3.840 -1.1100 -1.3011 -0.9791
  943THF     H713393   3.230   2.703   3.882  0.1889 -0.6501 -0.2650
  943THF     C813394   3.340   2.750   3.700 -0.4387 -0.1625  0.0417
  943THF     C913395   3.467   2.844   3.701  0.7020  0.3608  0.4649
  943THF    H1013396   3.253   2.807   3.668  0.0475  0.1559 -0.7266
  943THF    H1113397   3.362   2.669   3.630  4.1217  1.3176 -0.5547
  943THF    H1213398   3.544   2.773   3.671  0.4891  0.4767 -0.3984
  943THF    H1313399   3.456   2.926   3.630  0.3164  0.0021  0.1005
  944THF     O113400   3.965   4.454   0.714 -0.6078  0.5127  0.0296
  944THF     C213401   3.837   4.398   0.757 -0.1479  0.4365 -0.5734
  944THF     C313402   4.060   4.346   0.697 -0.5759 -1.0102  0.0081
  944THF     H413403   3.770   4.393   0.671 -1.4639  2.0260  0.2951
  944THF     H513404   3.791   4.469   0.826  1.1898 -1.7725  2.8511
  944THF     H613405   4.112   4.365   0.603  0.4489  0.4049  0.8277
  944THF     H713406   4.122   4.354   0.786  0.8011 -0.5830 -0.9455
  944THF     C813407   3.981   4.220   0.712  0.2377  0.5236 -0.3611
  944THF     C913408   3.866   4.257   0.806 -0.3731  0.3322  0.0982
  944THF    H1013409   4.031   4.130   0.750  0.9278  1.5863  1.4006
  944THF    H1113410   3.940   4.190   0.616  2.8204 -0.2354 -1.3222
  944THF    H1213411   3.787   4.185   0.790  1.7406 -2.1573  0.1294
  944THF    H1313412   3.904   4.261   0.909 -0.2160  0.8030  0.0261
  945THF     O113413   4.367   4.348   0.609 -0.9984 -0.3864  0.3020
  945THF     C213414   4.356   4.241   0.515  0.0008  0.7902 -0.1739
  945THF     C313415   4.509   4.367   0.615 -0.5873 -0.3248 -0.0025
  945THF     H413416   4.255   4.232   0.477  0.0480  0.5193 -0.2383
  945THF     H513417   4.377   4.152   0.575  0.1069 -0.1010 -1.4898
  945THF     H613418   4.523   4.466   0.657 -1.0931 -0.1790 -0.1703
  945THF     H713419   4.559   4.303   0.688  2.7866  2.0249 -0.0337
  945THF     C813420   4.566   4.351   0.473 -0.3339 -0.1869  0.7117
  945THF     C913421   4.462   4.265   0.401  0.5354 -0.7673  0.2656
  945THF    H1013422   4.670   4.317   0.470  0.6344  2.5184  0.8720
  945THF    H1113423   4.559   4.446   0.421 -0.5069 -1.4989 -1.8380
  945THF    H1213424   4.412   4.326   0.325 -1.6483  0.4574  2.5273
  945THF    H1313425   4.494   4.171   0.356 -0.7061 -0.6020 -1.0375
  946THF     O113426   2.651   0.869   5.130 -0.5929 -0.0043  0.0914
  946THF     C213427   2.561   0.781   5.190 -0.2972  0.0816 -0.6767
  946THF     C313428   2.728   0.793   5.034  0.3016 -0.9320  0.1589
  946THF     H413429   2.490   0.837   5.251 -0.6007 -0.0359 -0.9201
  946THF     H513430   2.612   0.704   5.249  0.9652  0.8440 -0.7447
  946THF     H613431   2.761   0.861   4.955 -2.3212 -0.6801 -0.8277
  946THF     H713432   2.810   0.741   5.083 -0.4699 -2.4914 -0.1441
  946THF     C813433   2.629   0.695   4.973  0.0846 -0.5943 -0.0807
  946THF     C913434   2.506   0.708   5.063 -0.9486  0.6872  0.5488
  946THF    H1013435   2.678   0.597   4.972  0.8425 -0.2239 -1.1866
  946THF    H1113436   2.606   0.707   4.867  2.4090  0.0269 -0.5648
  946THF    H1213437   2.447   0.785   5.013  1.5798  2.2340 -0.2685
  946THF    H1313438   2.449   0.615   5.064 -0.2850  0.2785  1.0413
  947THF     O113439   1.222   4.114   1.760  0.1152 -0.5148  0.0026
  947THF     C213440   1.247   4.243   1.789 -0.1231  0.5429  0.1731
  947THF     C313441   1.093   4.101   1.705 -0.0927  0.1667  0.1059
  947THF     H413442   1.265   4.308   1.703 -4.2026 -0.8257 -1.9948
  947THF     H513443   1.324   4.249   1.866 -2.4577  1.0910  2.6501
  947THF     H613444   1.085   4.147   1.607  2.8601  0.3210 -0.1379
  947THF     H713445   1.056   3.999   1.692  1.8840 -0.7025  0.9468
  947THF     C813446   1.013   4.178   1.807  0.4937  0.6092  0.4444
  947THF     C913447   1.103   4.291   1.839 -0.4047  0.0121 -0.4933
  947THF    H1013448   1.011   4.126   1.903 -1.0485  0.8127  0.5497
  947THF    H1113449   0.910   4.208   1.788  0.6682 -0.1038 -1.8989
  947THF    H1213450   1.077   4.383   1.786  0.7143  0.0101 -1.0893
  947THF    H1313451   1.103   4.308   1.946 -1.7434 -0.1128 -0.4567
  948THF     O113452   3.163   3.826   0.291 -0.0963 -0.2708 -0.1738
  948THF     C213453   3.085   3.707   0.284 -0.2658 -0.0016  0.3371
  948THF     C313454   3.158   3.884   0.162  0.6533 -0.1948  0.2454
  948THF     H413455   3.072   3.665   0.384 -1.5381 -0.9980 -0.2085
  948THF     H513456   3.141   3.637   0.223  0.9149 -0.5980  2.0586
  948THF     H613457   3.153   3.993   0.170 -0.6823 -0.1873 -0.3488
  948THF     H713458   3.248   3.859   0.107  0.8928 -0.2596  0.6604
  948THF     C813459   3.031   3.831   0.093 -0.2268 -0.3019  0.4512
  948THF     C913460   2.964   3.746   0.201  0.6377 -0.3400 -0.3869
  948THF    H1013461   3.051   3.778   0.000 -0.7350  1.2957 -0.6198
  948THF    H1113462   2.960   3.909   0.065 -0.1094 -0.7396 -1.1257
  948THF    H1213463   2.888   3.800   0.258  1.8448  0.6861  0.3153
  948THF    H1313464   2.919   3.659   0.153 -2.4372  1.6727 -1.4140
  949THF     O113465   5.228   3.081   3.277  0.0787  0.2819 -0.0367
  949THF     C213466   5.250   3.119   3.415 -0.0887  0.2129  0.1745
  949THF     C313467   5.337   3.007   3.237 -0.8988 -0.6249 -0.0480
  949THF     H413468   5.217   3.040   3.483  0.3519 -0.6093 -0.5607
  949THF     H513469   5.197   3.208   3.449 -0.6963 -0.0057 -0.1898
  949THF     H613470   5.310   2.902   3.246 -2.0700 -0.2811  0.7306
  949THF     H713471   5.364   3.026   3.133  1.2800  0.1134  0.6016
  949THF     C813472   5.449   3.041   3.335 -0.3470  0.4414  0.1557
  949THF     C913473   5.395   3.148   3.425 -0.3709 -0.6693  0.0400
  949THF    H1013474   5.522   3.082   3.266  1.5758  0.2882  1.9767
  949THF    H1113475   5.485   2.954   3.391 -0.0420  0.0609 -0.6221
  949THF    H1213476   5.449   3.162   3.518  1.0413  0.0878 -0.8656
  949THF    H1313477   5.419   3.242   3.375  1.4063 -1.6194 -0.9642
  950THF     O113478   4.542   0.271   2.692  0.2233 -0.7103 -0.5261
  950THF     C213479   4.545   0.151   2.616 -0.1153 -0.2727  0.4286
  950THF     C313480   4.407   0.287   2.734 -0.7702 -0.0799 -0.4483
  950THF     H413481   4.646   0.112   2.610  0.2711  0.5373  1.4754
  950THF     H513482   4.524   0.175   2.511 -0.7283  0.5911  0.7395
  950THF     H613483   4.401   0.346   2.826  0.2612 -1.6427  0.6694
  950THF     H713484   4.338   0.323   2.657 -0.2418  2.2080  0.0638
  950THF     C813485   4.365   0.147   2.771  0.1386  0.7389 -0.1968
  950THF     C913486   4.431   0.062   2.663 -0.6082 -0.4419  0.0715
  950THF    H1013487   4.257   0.132   2.771  0.2422 -0.0870 -0.3837
  950THF    H1113488   4.401   0.118   2.869 -1.7160 -1.1499  0.0071
  950THF    H1213489   4.467  -0.029   2.712  0.3413 -0.2854 -0.3192
  950THF    H1313490   4.364   0.034   2.582  0.5583  0.1645 -1.1258
  951THF     O113491   0.292   1.413   3.184  0.6045 -0.5730 -0.1331
  951THF     C213492   0.256   1.540   3.240 -0.1583  0.0694  0.7693
  951THF     C313493   0.406   1.368   3.257  0.0718  0.4174 -0.1604
  951THF     H413494   0.157   1.581   3.221 -1.3244 -1.9541  2.0490
  951THF     H513495   0.319   1.616   3.195 -1.2006 -0.5461 -1.9276
  951THF     H613496   0.411   1.262   3.230 -0.9747  0.2004  0.3900
  951THF     H713497   0.498   1.408   3.216  0.1818  1.7772  1.3023
  951THF     C813498   0.383   1.410   3.401 -0.5808 -0.2288 -0.5126
  951THF     C913499   0.272   1.514   3.394 -0.1824 -0.1614  0.5669
  951THF    H1013500   0.475   1.448   3.445  1.5285 -2.4353 -2.6781
  951THF    H1113501   0.350   1.330   3.469 -1.9383 -0.7902 -1.7710
  951THF    H1213502   0.171   1.474   3.408 -0.9628  1.1466 -0.8840
  951THF    H1313503   0.289   1.611   3.441 -0.4072  0.5896 -0.8166
  952THF     O113504   0.762   4.317   4.704 -0.0351  0.0213  0.7560
  952THF     C213505   0.624   4.330   4.697 -0.1652 -0.0077  0.0790
  952THF     C313506   0.798   4.193   4.635 -0.2915 -0.1982  0.1550
  952THF     H413507   0.595   4.368   4.598  1.0898  2.3880  0.5367
  952THF     H513508   0.584   4.410   4.759 -2.2569 -2.4285  2.0690
  952THF     H613509   0.806   4.209   4.528 -0.7872  1.7139  0.3603
  952THF     H713510   0.891   4.141   4.662  0.4368  0.3674 -1.1589
  952THF     C813511   0.668   4.103   4.671  0.6908  0.0368 -0.1754
  952THF     C913512   0.574   4.198   4.742 -0.4285  0.2752 -0.0138
  952THF    H1013513   0.694   4.021   4.738 -1.1553 -1.5555 -1.2919
  952THF    H1113514   0.626   4.061   4.580  1.5537 -2.5139  0.4893
  952THF    H1213515   0.468   4.191   4.717 -0.6346  0.3612  0.8094
  952THF    H1313516   0.576   4.185   4.850  2.0697 -0.3803 -0.0867
  953THF     O113517   3.473   0.567   1.561  0.2945 -0.1646  0.3020
  953THF     C213518   3.549   0.662   1.633  0.0532  0.0086  0.5319
  953THF     C313519   3.557   0.506   1.465  1.0346  0.5463  0.4707
  953THF     H413520   3.617   0.612   1.702  0.4419  2.1852  1.8130
  953THF     H513521   3.491   0.722   1.704  0.0287  0.3619  0.2120
  953THF     H613522   3.611   0.421   1.507  1.8082  0.8270  0.0658
  953THF     H713523   3.494   0.463   1.387 -1.4010  2.8227  1.0480
  953THF     C813524   3.639   0.618   1.422 -0.4112  0.2724  0.4432
  953THF     C913525   3.626   0.734   1.519  0.1453  0.1030 -0.3428
  953THF    H1013526   3.612   0.655   1.323  2.2936 -0.5221 -0.6682
  953THF    H1113527   3.745   0.596   1.411  0.0825  2.6595 -0.2836
  953THF    H1213528   3.720   0.761   1.568  0.4224 -0.4915 -0.5389
  953THF    H1313529   3.569   0.818   1.479 -1.5952 -1.1579 -0.5813
  954THF     O113530   1.493   3.225   1.415  0.1406 -0.1783  0.0670
  954THF     C213531   1.352   3.257   1.399  0.1953  0.1246  0.4585
  954THF     C313532   1.513   3.081   1.398 -0.4214 -0.1985  0.3626
  954THF     H413533   1.336   3.283   1.294 -0.4475  0.0394  0.5296
  954THF     H513534   1.334   3.342   1.466  1.0873  1.5793 -1.0624
  954THF     H613535   1.574   3.050   1.313  2.5827 -1.3777  2.7633
  954THF     H713536   1.573   3.029   1.473 -0.8438 -1.2769 -0.0256
  954THF     C813537   1.377   3.017   1.384  0.7124 -0.4317 -0.7001
  954THF     C913538   1.281   3.121   1.439  0.6203 -0.4683 -0.4362
  954THF    H1013539   1.382   2.922   1.437 -1.5513  0.0263  0.4456
  954THF    H1113540   1.354   3.008   1.277 -0.6906  0.2563 -0.4841
  954THF    H1213541   1.179   3.123   1.400  1.1526  1.2850 -1.8429
  954THF    H1313542   1.278   3.119   1.548 -0.2098  0.2394 -0.4403
  955THF     O113543   4.701   4.191   4.474 -0.0278 -0.1406 -1.0805
  955THF     C213544   4.705   4.319   4.538 -0.0837 -0.2220 -0.2118
  955THF     C313545   4.816   4.177   4.396 -0.4203 -0.7905  0.0523
  955THF     H413546   4.728   4.316   4.644  1.9948  0.8589 -0.5676
  955THF     H513547   4.609   4.367   4.520 -0.8709 -2.2761 -1.9110
  955THF     H613548   4.899   4.150   4.461  0.6465  1.7825 -0.1196
  955THF     H713549   4.810   4.098   4.321  0.9779 -2.8212  1.9909
  955THF     C813550   4.829   4.321   4.345 -0.2822  0.5081  0.7131
  955THF     C913551   4.814   4.397   4.469 -0.0823 -0.1384 -0.3391
  955THF    H1013552   4.746   4.340   4.276 -1.6329 -2.3913  1.3747
  955THF    H1113553   4.923   4.346   4.295 -0.2152 -1.0227  0.0326
  955THF    H1213554   4.904   4.392   4.531  0.9740  0.3988 -1.7862
  955THF    H1313555   4.769   4.495   4.454 -2.1348 -1.3034 -2.3284
  956THF     O113556   5.499   3.011   2.612 -0.4853  0.3487 -0.0284
  956THF     C213557   5.500   3.083   2.730 -0.1703  0.7702  0.3160
  956THF     C313558   5.368   3.015   2.554 -0.0440  0.1620 -0.2886
  956THF     H413559   5.598   3.112   2.769  0.7589 -0.9004 -0.6776
  956THF     H513560   5.457   3.015   2.803  0.3753  0.4654  0.3608
  956THF     H613561   5.359   2.976   2.452 -2.2982  0.2217 -0.1630
  956THF     H713562   5.301   2.958   2.618  0.8824 -1.2575 -0.5156
  956THF     C813563   5.348   3.173   2.561  0.6963 -0.3485 -0.3836
  956THF     C913564   5.424   3.210   2.693  0.2859 -0.0601 -0.0816
  956THF    H1013565   5.243   3.203   2.569  1.3962  2.0842  0.7813
  956THF    H1113566   5.389   3.223   2.473 -3.4504  0.4492 -2.1076
  956THF    H1213567   5.492   3.287   2.660  0.6702 -1.0426 -1.6843
  956THF    H1313568   5.359   3.237   2.777 -1.5652 -2.1572 -0.7253
  957THF     O113569   3.831   3.048   2.966 -0.1641  0.0537  0.7908
  957THF     C213570   3.814   3.116   2.846 -0.3985 -0.3343  0.1887
  957THF     C313571   3.948   3.096   3.027 -0.3181  0.3938  0.1103
  957THF     H413572   3.740   3.194   2.864  0.3040  0.7200 -1.2500
  957THF     H513573   3.772   3.056   2.766 -0.8918  0.1728  0.0617
  957THF     H613574   3.939   3.123   3.132 -0.2501 -0.9550  0.4689
  957THF     H713575   4.016   3.012   3.034 -0.4312  0.4249  2.2256
  957THF     C813576   4.011   3.200   2.938 -0.8200  0.0153  0.3916
  957THF     C913577   3.944   3.174   2.802 -0.8885  0.4062  0.2160
  957THF    H1013578   4.120   3.195   2.937 -0.7819  0.6996  0.4752
  957THF    H1113579   3.994   3.299   2.980 -0.0110  0.5969 -0.6113
  957THF    H1213580   3.938   3.263   2.739 -0.4843  0.5802  0.4227
  957THF    H1313581   4.011   3.111   2.743  0.2089  2.7776 -1.2096
  958THF     O113582   0.214   2.773   1.268  0.7489  0.0793  0.7312
  958THF     C213583   0.265   2.768   1.133 -0.0093  0.0919 -0.0438
  958THF     C313584   0.083   2.706   1.272 -0.2076  0.1738 -0.7007
  958THF     H413585   0.360   2.714   1.131 -0.3119 -0.4980  0.9666
  958THF     H513586   0.281   2.869   1.095  0.1924 -0.4314 -1.3957
  958THF     H613587   0.099   2.599   1.279  1.5402  0.1901 -3.1020
  958THF     H713588   0.022   2.744   1.354  1.6438  0.5562  0.5800
  958THF     C813589   0.022   2.729   1.138  0.1874  0.0862 -0.0290
  958THF     C913590   0.149   2.713   1.051  0.2414  0.0322  0.3265
  958THF    H1013591  -0.009   2.833   1.134  1.2948  0.4007 -0.7317
  958THF    H1113592  -0.057   2.662   1.103  1.0531  0.2619 -2.4619
  958THF    H1213593   0.167   2.606   1.048  0.2207  0.0324 -2.0703
  958THF    H1313594   0.141   2.753   0.949 -1.7631 -2.1890 -0.4894
  959THF     O113595   5.435   1.318   4.446 -0.9996  0.4041 -0.0113
  959THF     C213596   5.551   1.345   4.365 -0.2330 -0.0565 -0.9484
  959THF     C313597   5.330   1.265   4.365  0.3974  0.0030 -0.0306
  959THF     H413598   5.611   1.254   4.370 -0.4367 -0.1628  3.5712
  959THF     H513599   5.628   1.411   4.405  0.4287 -0.3048 -1.7690
  959THF     H613600   5.336   1.157   4.377 -3.0901 -0.4275 -1.2098
  959THF     H713601   5.226   1.291   4.379  0.9369  3.7067 -1.6962
  959THF     C813602   5.365   1.307   4.220 -0.5694 -0.6341  0.1232
  959THF     C913603   5.487   1.395   4.238  0.2427 -0.4754  0.0973
  959THF    H1013604   5.281   1.350   4.167 -1.4104  1.1135  2.6957
  959THF    H1113605   5.402   1.221   4.165 -0.0707 -0.3976  0.0782
  959THF    H1213606   5.552   1.396   4.150  0.5528 -0.4991  0.3207
  959THF    H1313607   5.457   1.497   4.261  3.7006  0.6998  0.0924
  960THF     O113608   5.261   0.838   3.679  0.0130 -0.2059 -0.6621
  960THF     C213609   5.140   0.768   3.672 -0.6036  0.6553 -0.2182
  960THF     C313610   5.344   0.804   3.568  0.3702  0.3899 -0.0559
  960THF     H413611   5.076   0.810   3.594  1.0666  1.1777 -1.3601
  960THF     H513612   5.089   0.785   3.767  0.5148  1.5834  0.2328
  960THF     H613613   5.328   0.857   3.474  1.1695 -0.8575 -0.9318
  960THF     H713614   5.450   0.820   3.588  0.2577  0.4859  0.4753
  960THF     C813615   5.310   0.661   3.538  0.1659  0.0647  0.6256
  960THF     C913616   5.184   0.631   3.622 -0.4071 -0.0248 -0.0670
  960THF    H1013617   5.392   0.594   3.564  0.8052  0.3150 -0.6652
  960THF    H1113618   5.286   0.637   3.434  1.2643  1.3301  0.0546
  960THF    H1213619   5.105   0.583   3.564  0.2312 -2.7642  1.1708
  960THF    H1313620   5.200   0.578   3.716 -0.9294  0.5970  0.3824
  961THF     O113621   0.961   3.663   4.793  0.2091  0.1488 -0.0668
  961THF     C213622   0.955   3.573   4.898  0.1243  0.2747 -0.1731
  961THF     C313623   0.966   3.794   4.855  0.9164 -0.0675 -0.0277
  961THF     H413624   0.968   3.466   4.882  0.7547  0.2224  0.5951
  961THF     H513625   0.866   3.584   4.960 -1.1289  0.9852 -2.0216
  961THF     H613626   1.009   3.856   4.776 -0.7438 -0.5893 -1.3958
  961THF     H713627   0.861   3.812   4.878  1.1998  0.7137  0.6887
  961THF     C813628   1.050   3.772   4.971 -0.4536  0.0820  1.0605
  961THF     C913629   1.067   3.617   4.973  0.6386 -0.3200 -0.1625
  961THF    H1013630   0.999   3.804   5.062 -2.4806 -1.2961  0.4769
  961THF    H1113631   1.154   3.802   4.964  0.0042 -1.6822 -0.2955
  961THF    H1213632   1.152   3.574   4.919 -0.5359 -1.1930 -1.3808
  961THF    H1313633   1.079   3.577   5.074  0.5217 -1.0481 -0.4301
  962THF     O113634   2.297   4.098   2.952  0.4176 -0.3153 -0.2739
  962THF     C213635   2.300   4.054   3.091  0.3708  0.6189 -0.1000
  962THF     C313636   2.161   4.072   2.908 -0.7674  0.7959 -0.8438
  962THF     H413637   2.356   4.128   3.149  0.7637  1.2360 -1.2333
  962THF     H513638   2.354   3.960   3.099 -0.7868 -0.1104 -0.6731
  962THF     H613639   2.130   4.148   2.836 -1.2721  0.8771 -0.5459
  962THF     H713640   2.146   3.979   2.853  0.0596 -0.6607  1.2675
  962THF     C813641   2.071   4.073   3.034 -0.3872 -0.8916  0.2444
  962THF     C913642   2.162   4.053   3.150 -0.1751  0.1428  0.6906
  962THF    H1013643   1.993   3.998   3.031 -1.7636  0.5354 -0.5719
  962THF    H1113644   2.016   4.167   3.042 -0.4953 -0.9728  0.4728
  962THF    H1213645   2.144   4.132   3.224  1.9505 -0.5256  2.0327
  962THF    H1313646   2.137   3.958   3.196  0.6593 -0.6126 -0.3721
  963THF     O113647   4.131   1.257   1.238 -0.1724  0.4520  0.6116
  963THF     C213648   4.130   1.389   1.298 -0.4284  0.2431 -0.3320
  963THF     C313649   4.258   1.196   1.245 -0.1025  0.6191 -0.9430
  963THF     H413650   4.039   1.407   1.355 -0.1375 -2.0070  0.9809
  963THF     H513651   4.132   1.462   1.218  0.3639 -1.0715 -1.5667
  963THF     H613652   4.257   1.106   1.307 -2.2870 -0.6886 -2.7084
  963THF     H713653   4.295   1.176   1.145  1.6003  1.0876 -0.4394
  963THF     C813654   4.342   1.307   1.301 -0.5888  0.2225  0.0630
  963THF     C913655   4.254   1.400   1.384  0.2599  0.4417 -0.5554
  963THF    H1013656   4.391   1.367   1.225 -0.2739  0.1327  0.1946
  963THF    H1113657   4.416   1.250   1.357  0.4790 -0.6808 -2.1626
  963THF    H1213658   4.241   1.358   1.484 -1.2397  2.3242  0.1239
  963THF    H1313659   4.275   1.507   1.380  1.9601  0.0979 -1.4880
  964THF     O113660   4.283   2.837   4.384  0.2321  0.7622  0.1714
  964THF     C213661   4.282   2.705   4.331 -0.6796  0.7518  0.3216
  964THF     C313662   4.370   2.903   4.296  0.5300  0.7952 -0.3461
  964THF     H413663   4.191   2.659   4.368 -1.1824  0.3632 -1.2918
  964THF     H513664   4.371   2.657   4.372 -1.4662 -0.3305  0.8110
  964THF     H613665   4.365   3.011   4.312 -1.0491  1.2415 -3.1712
  964THF     H713666   4.470   2.867   4.317 -0.2192 -0.0429  2.1484
  964THF     C813667   4.316   2.870   4.165  0.8927 -0.1262 -0.5743
  964THF     C913668   4.287   2.722   4.181  0.3961  0.2738 -0.0253
  964THF    H1013669   4.383   2.882   4.080  0.2269 -1.2629 -1.2812
  964THF    H1113670   4.232   2.934   4.139  0.8092  0.7821  1.6389
  964THF    H1213671   4.185   2.702   4.149  0.6313 -1.1886  0.0467
  964THF    H1313672   4.342   2.651   4.119 -1.8590 -1.3933 -0.2414
  965THF     O113673   1.601   4.078   0.925 -0.5454 -0.1509  0.2289
  965THF     C213674   1.636   4.105   1.062 -0.3341 -0.1222 -0.2298
  965THF     C313675   1.490   4.168   0.899  0.1040 -0.3510 -0.0411
  965THF     H413676   1.707   4.187   1.070  0.7700 -1.2316  2.5710
  965THF     H513677   1.692   4.026   1.112 -0.2801 -0.2860 -0.5464
  965THF     H613678   1.536   4.267   0.894 -0.6172 -0.0638 -1.5016
  965THF     H713679   1.442   4.130   0.809 -0.2320 -0.1368  0.0456
  965THF     C813680   1.401   4.151   1.021  0.0478 -0.9542 -0.7308
  965THF     C913681   1.498   4.118   1.132  0.4474 -0.1879  1.1086
  965THF    H1013682   1.321   4.078   1.007  0.4552 -2.0091  1.8884
  965THF    H1113683   1.360   4.251   1.033 -0.5906 -1.0808 -1.6953
  965THF    H1213684   1.506   4.195   1.209 -0.2087 -0.4771  1.4787
  965THF    H1313685   1.467   4.020   1.169  0.9168 -0.8601 -0.2380
  966THF     O113686   1.149   0.765   3.694  0.6673  0.1918 -0.3065
  966THF     C213687   1.077   0.658   3.756 -0.4151 -0.1366 -0.4831
  966THF     C313688   1.211   0.837   3.803  0.4594 -0.2862 -0.1076
  966THF     H413689   1.142   0.575   3.784 -0.3151 -0.0101 -0.3337
  966THF     H513690   0.994   0.623   3.696  0.2354 -0.8419 -0.9980
  966THF     H613691   1.318   0.819   3.815  0.8769 -0.3191 -3.1464
  966THF     H713692   1.196   0.941   3.775 -0.7912 -0.4354 -0.0398
  966THF     C813693   1.143   0.786   3.931  0.1122 -0.3003  0.3374
  966THF     C913694   1.016   0.715   3.888 -0.1281 -0.7660  0.0810
  966THF    H1013695   1.125   0.874   3.993  1.6538  0.0166  0.3787
  966THF    H1113696   1.206   0.726   3.996  2.2453  1.1121 -0.3150
  966THF    H1213697   0.973   0.642   3.956 -0.0846 -0.0558  0.8748
  966THF    H1313698   0.938   0.783   3.856 -0.1572 -2.1946 -3.3385
  967THF     O113699   3.181   1.695   3.514 -0.5566 -0.2102 -0.7118
  967THF     C213700   3.244   1.809   3.454 -0.5289  0.2594 -0.6745
  967THF     C313701   3.252   1.575   3.463 -0.1534 -0.0829 -0.2704
  967THF     H413702   3.348   1.808   3.485 -0.7959 -1.6885  0.3301
  967THF     H513703   3.200   1.905   3.479 -1.2711 -0.3997  0.6905
  967THF     H613704   3.353   1.568   3.505  0.1298  1.1934 -0.6780
  967THF     H713705   3.191   1.487   3.483 -0.9502  0.6997  0.8937
  967THF     C813706   3.255   1.609   3.313  0.5722 -0.6149 -0.1881
  967THF     C913707   3.238   1.762   3.309 -0.6491 -0.5689  0.0434
  967THF    H1013708   3.175   1.567   3.252  1.9267 -1.8381 -1.1952
  967THF    H1113709   3.351   1.593   3.265  0.7371  0.3582 -0.2130
  967THF    H1213710   3.298   1.821   3.239 -0.7022  0.5530  0.9170
  967THF    H1313711   3.141   1.789   3.269 -0.9088 -2.1546 -0.4756
  968THF     O113712   1.043   1.070   4.600 -0.4229 -0.3933 -0.4436
  968THF     C213713   1.124   1.167   4.538  0.3573  0.2220 -0.2041
  968THF     C313714   0.949   1.138   4.684 -0.3690  0.8177  0.0771
  968THF     H413715   1.111   1.160   4.430  0.4190 -0.4627 -0.1712
  968THF     H513716   1.232   1.160   4.551  0.4501  0.4699 -0.7981
  968THF     H613717   0.854   1.085   4.694 -0.3983  0.4177 -1.8913
  968THF     H713718   0.992   1.149   4.784 -1.8202  0.6451  0.7403
  968THF     C813719   0.940   1.282   4.623  0.1229  0.9954 -0.0903
  968THF     C913720   1.084   1.305   4.581 -0.1748  0.1359  0.4160
  968THF    H1013721   0.911   1.362   4.692 -0.9058 -0.9617  1.8456
  968THF    H1113722   0.871   1.287   4.538 -1.1680 -1.7812  0.6992
  968THF    H1213723   1.078   1.375   4.498  0.6855  0.9825  1.0500
  968THF    H1313724   1.149   1.339   4.662  0.0191 -0.9330  0.7283
  969THF     O113725   0.046   4.406   1.425 -0.7078  0.0521 -0.2194
  969THF     C213726   0.128   4.489   1.334  1.1013 -0.0890  0.0628
  969THF     C313727   0.075   4.435   1.562 -0.0066 -0.0301  0.2030
  969THF     H413728   0.067   4.576   1.309 -0.6390 -0.9863  1.0078
  969THF     H513729   0.138   4.439   1.237  0.5840 -1.0691  0.4982
  969THF     H613730  -0.006   4.480   1.619  1.5497  2.2218  0.7627
  969THF     H713731   0.095   4.337   1.607 -1.3880 -0.7980 -0.7913
  969THF     C813732   0.196   4.520   1.562 -0.1187 -0.1229 -0.6229
  969THF     C913733   0.254   4.511   1.422 -0.0858  0.1211 -0.2889
  969THF    H1013734   0.275   4.488   1.629 -1.3520  1.0042  1.4890
  969THF    H1113735   0.169   4.624   1.582  1.1076 -0.1126  1.2204
  969THF    H1213736   0.307   4.601   1.393 -0.4670  0.8096  1.0954
  969THF    H1313737   0.321   4.425   1.416 -1.9526 -1.3709 -0.6179
  970THF     O113738   2.054   1.151   2.753  0.3995  0.4417  0.3043
  970THF     C213739   2.113   1.165   2.886 -0.6590  0.3834  0.1546
  970THF     C313740   2.085   1.268   2.678 -0.2035  0.2176  0.0373
  970THF     H413741   2.178   1.084   2.917 -1.1455 -0.4385 -0.9254
  970THF     H513742   2.034   1.172   2.961 -1.5832  2.5773 -0.9418
  970THF     H613743   2.083   1.241   2.573  2.8311 -0.1689 -0.0050
  970THF     H713744   2.014   1.350   2.680 -0.5023 -0.0391  0.0457
  970THF     C813745   2.223   1.308   2.730  0.7397  0.6635  0.5638
  970THF     C913746   2.202   1.290   2.879  0.1198 -0.7899  0.1016
  970THF    H1013747   2.239   1.415   2.712 -3.9625  1.7102  1.2500
  970THF    H1113748   2.294   1.230   2.701 -1.0320 -0.8420  0.1144
  970THF    H1213749   2.295   1.276   2.935 -0.4814 -0.3606  1.2441
  970THF    H1313750   2.154   1.382   2.912  2.2207  0.6735 -0.6683
  971THF     O113751   0.897   0.837   0.624 -0.6857 -0.2485 -0.1013
  971THF     C213752   0.844   0.764   0.519 -0.3868 -0.9146 -0.8027
  971THF     C313753   0.798   0.923   0.684  0.6203  0.6495 -0.3026
  971THF     H413754   0.816   0.664   0.550 -2.6671  0.2573  1.2986
  971THF     H513755   0.925   0.748   0.447  2.8542  1.1636  2.0985
  971THF     H613756   0.734   0.862   0.747  1.8145  2.1191  2.5189
  971THF     H713757   0.852   1.000   0.740  1.2906  1.4163 -1.9408
  971THF     C813758   0.721   0.977   0.559  0.3056 -0.0022  0.4478
  971THF     C913759   0.718   0.839   0.480 -0.0032  0.8039  0.4662
  971THF    H1013760   0.796   1.038   0.510  0.2329 -1.7627 -2.0186
  971THF    H1113761   0.626   1.029   0.575 -1.1609 -2.3980  0.0275
  971THF    H1213762   0.626   0.786   0.503 -0.3175 -0.6150 -3.2670
  971THF    H1313763   0.718   0.855   0.372  1.0500  0.9717  0.4839
  972THF     O113764   0.703   2.266   5.176 -0.0822 -0.1024 -0.3745
  972THF     C213765   0.606   2.181   5.131  0.2427  0.2317  0.5830
  972THF     C313766   0.662   2.396   5.133  0.1692 -0.2002 -0.3810
  972THF     H413767   0.605   2.087   5.185  0.1914 -0.3334 -0.3739
  972THF     H513768   0.622   2.150   5.028 -0.6364  0.3757  0.3913
  972THF     H613769   0.711   2.470   5.196  0.1633  0.5206 -1.2057
  972THF     H713770   0.702   2.413   5.034  0.1103 -2.8642 -0.9435
  972THF     C813771   0.510   2.398   5.144  0.0841  0.4312  0.5172
  972THF     C913772   0.472   2.256   5.125  0.1232  0.1902 -0.1495
  972THF    H1013773   0.456   2.448   5.063  0.7869 -2.1335 -1.6822
  972THF    H1113774   0.484   2.429   5.245  1.1582  0.8877  0.6693
  972THF    H1213775   0.407   2.222   5.206  0.1707  2.3875  0.8770
  972THF    H1313776   0.420   2.227   5.033  2.1365  0.2379 -1.3497
  973THF     O113777   4.575   3.439   4.101 -0.0811  0.0740  0.9110
  973THF     C213778   4.716   3.452   4.084 -0.1568 -0.1100 -0.6571
  973THF     C313779   4.547   3.295   4.101  0.4567  0.1070  0.1179
  973THF     H413780   4.742   3.543   4.139 -1.1345 -0.1320 -0.1307
  973THF     H513781   4.736   3.474   3.979 -2.3454 -1.1251 -1.3353
  973THF     H613782   4.486   3.248   4.179  1.7906 -0.8348  0.6357
  973THF     H713783   4.494   3.279   4.008  1.0627  0.4738 -0.2950
  973THF     C813784   4.677   3.216   4.091  1.2085  0.7830  0.0270
  973THF     C913785   4.772   3.322   4.137  0.1100 -0.4096 -0.1130
  973THF    H1013786   4.698   3.181   3.989  1.2808 -1.7464  0.8283
  973THF    H1113787   4.660   3.120   4.140 -1.5074  1.4481  0.5567
  973THF    H1213788   4.780   3.335   4.245 -0.2521  0.3068 -0.1619
  973THF    H1313789   4.871   3.314   4.093  0.7358  0.4439  1.0697
  974THF     O113790   1.109   4.292   2.962 -0.6240 -0.0598  1.0283
  974THF     C213791   1.229   4.358   3.004  0.2405 -0.2582  0.6635
  974THF     C313792   1.126   4.153   2.957  0.3065  0.0260 -0.4707
  974THF     H413793   1.212   4.417   3.095 -1.3834  0.5025 -0.0777
  974THF     H513794   1.252   4.436   2.931 -1.0539  0.5653  1.0820
  974THF     H613795   1.051   4.102   3.018  0.2250 -2.5297 -2.5457
  974THF     H713796   1.128   4.111   2.856 -3.1993 -0.0486 -0.6398
  974THF     C813797   1.264   4.125   3.011 -0.2591  0.2140 -1.2793
  974THF     C913798   1.341   4.256   3.007  0.2490  0.8099  0.1673
  974THF    H1013799   1.300   4.043   2.949 -1.2230  0.1607 -1.8018
  974THF    H1113800   1.258   4.085   3.111  1.3973  0.1328 -1.1980
  974THF    H1213801   1.408   4.281   3.090  0.2025  0.8904  0.1802
  974THF    H1313802   1.402   4.251   2.917  0.5023 -0.3716  0.3873
  975THF     O113803   3.670   1.622   3.092 -0.3322  0.1350 -0.0481
  975THF     C213804   3.794   1.549   3.116  0.2486 -0.0600 -0.7569
  975THF     C313805   3.569   1.524   3.111  0.1760 -1.0186  0.2320
  975THF     H413806   3.784   1.529   3.223 -4.3306 -1.0802 -1.1426
  975THF     H513807   3.887   1.597   3.086 -0.2353  0.8922 -0.7849
  975THF     H613808   3.553   1.495   3.215 -0.4659  0.3100  0.5266
  975THF     H713809   3.471   1.558   3.078  0.2107 -1.5299 -0.4310
  975THF     C813810   3.625   1.398   3.029 -0.3566 -0.0556 -0.3188
  975THF     C913811   3.774   1.420   3.038 -0.2219 -0.3686  0.2776
  975THF    H1013812   3.581   1.415   2.931 -2.1888 -0.4355  0.3955
  975THF    H1113813   3.593   1.302   3.070  0.8598 -0.0237  0.7658
  975THF    H1213814   3.819   1.340   3.096  1.0179  0.3020  0.2754
  975THF    H1313815   3.819   1.422   2.939 -0.7635  0.8046  0.0438
  976THF     O113816   3.199   4.256   1.975  0.1449 -0.1223 -0.1249
  976THF     C213817   3.297   4.158   1.946 -0.0130  0.3446  0.2434
  976THF     C313818   3.267   4.372   2.021 -0.2361  0.1468 -0.0586
  976THF     H413819   3.369   4.179   1.866  0.0284 -0.1502  0.1433
  976THF     H513820   3.259   4.057   1.930  1.1990 -0.2254  0.8639
  976THF     H613821   3.290   4.438   1.937 -0.3669 -0.5634 -0.6588
  976THF     H713822   3.203   4.428   2.088 -1.0989  1.1892 -1.6846
  976THF     C813823   3.391   4.323   2.086 -0.8860 -0.2688 -0.0112
  976THF     C913824   3.378   4.172   2.077  0.1677  0.2587  0.6466
  976THF    H1013825   3.414   4.341   2.190  0.2677  0.7880 -0.4276
  976THF    H1113826   3.483   4.345   2.033 -1.7702 -1.1456 -2.0236
  976THF    H1213827   3.481   4.136   2.069  1.4145  3.8888 -2.2443
  976THF    H1313828   3.316   4.140   2.161  0.3063  1.6359  1.3004
  977THF     O113829   4.942   5.307   0.558 -0.4768 -0.2586  0.0531
  977THF     C213830   4.828   5.344   0.481  0.0353  0.0739 -0.1530
  977THF     C313831   4.926   5.374   0.681 -1.0395 -0.3777  0.0137
  977THF     H413832   4.742   5.291   0.522  0.0053  0.9196  0.9506
  977THF     H513833   4.829   5.315   0.376  3.3139 -0.4111 -0.0995
  977THF     H613834   4.859   5.320   0.749 -0.2592 -0.7503  0.5045
  977THF     H713835   5.017   5.374   0.741 -1.1122  1.5238  0.1693
  977THF     C813836   4.878   5.515   0.650 -0.0118  0.2078 -0.1263
  977THF     C913837   4.822   5.494   0.506  0.0250  0.1171  0.4749
  977THF    H1013838   4.957   5.590   0.647 -2.1135  2.7308  1.9732
  977THF    H1113839   4.802   5.556   0.717  0.7785 -0.5529  1.2671
  977THF    H1213840   4.719   5.527   0.507 -0.3152 -0.9372  1.6367
  977THF    H1313841   4.890   5.548   0.439  1.0695  0.3492  1.6921
  978THF     O113842   3.613   4.287   4.235 -1.0198 -0.3066  0.4738
  978THF     C213843   3.511   4.223   4.152 -0.0514 -0.7675 -0.5065
  978THF     C313844   3.636   4.199   4.341 -0.0395 -0.7450  0.4617
  978THF     H413845   3.529   4.216   4.045  0.7065 -2.0762 -0.3075
  978THF     H513846   3.418   4.276   4.173  0.4520 -1.2351  3.8465
  978THF     H613847   3.733   4.223   4.385 -0.6920  0.8980  1.1054
  978THF     H713848   3.561   4.221   4.418  0.5038  2.3805  0.2233
  978THF     C813849   3.628   4.056   4.280 -0.4960 -0.7080 -0.2133
  978THF     C913850   3.503   4.079   4.208  0.7529 -0.7135 -0.1645
  978THF    H1013851   3.627   3.981   4.359 -1.5957 -0.5976 -0.1095
  978THF    H1113852   3.709   4.029   4.213 -1.0938 -1.9392 -0.4758
  978THF    H1213853   3.478   4.016   4.124 -0.9323 -0.7940  0.3653
  978THF    H1313854   3.411   4.080   4.267  0.2893  0.4563 -0.8787
  979THF     O113855   0.125   4.065   3.187 -0.4288 -0.2877  0.5518
  979THF     C213856   0.077   3.938   3.225 -0.1186  0.3905  0.2667
  979THF     C313857   0.218   4.040   3.078 -0.0968  0.8933 -0.1018
  979THF     H413858   0.023   3.905   3.136  0.0693  0.4311  0.1365
  979THF     H513859   0.007   3.927   3.308 -2.0840  1.8056 -1.1056
  979THF     H613860   0.171   4.029   2.980  2.3814  4.4413 -1.8855
  979THF     H713861   0.284   4.122   3.050  1.3504  0.9349  3.0642
  979THF     C813862   0.289   3.916   3.128 -1.1241  0.3615  0.6649
  979THF     C913863   0.203   3.862   3.237  0.0537 -0.3406  0.3732
  979THF    H1013864   0.391   3.938   3.161 -1.1423  0.9893  0.3226
  979THF    H1113865   0.303   3.854   3.039 -2.5125 -0.1772  0.8014
  979THF    H1213866   0.184   3.756   3.220 -2.3329 -0.3064  2.3298
  979THF    H1313867   0.251   3.889   3.332 -0.1511  2.3136 -0.2136
  980THF     O113868   4.609   1.914   1.646 -0.2850 -0.0684  0.4444
  980THF     C213869   4.646   1.962   1.520 -0.8679  0.6895  0.1012
  980THF     C313870   4.622   2.017   1.735 -0.8296 -0.4011 -0.4129
  980THF     H413871   4.558   1.989   1.461  0.2762  2.3367 -0.9323
  980THF     H513872   4.693   1.883   1.461 -1.8894  0.1871 -0.0686
  980THF     H613873   4.539   2.086   1.742 -0.5374 -0.0148 -0.7631
  980THF     H713874   4.640   1.969   1.832 -0.0063  1.3572  0.3324
  980THF     C813875   4.753   2.082   1.688  0.8225  0.1358  0.3447
  980THF     C913876   4.733   2.083   1.543  0.0640 -0.1588 -0.4387
  980THF    H1013877   4.834   2.014   1.717  1.8578  1.1156 -0.1921
  980THF    H1113878   4.768   2.181   1.729 -3.6901  2.0228 -1.9150
  980THF    H1213879   4.678   2.169   1.506  1.1914  0.3514 -0.9954
  980THF    H1313880   4.819   2.075   1.476 -2.3899  0.7133 -4.0087
  981THF     O113881   0.425   1.399   4.376 -0.7907 -0.1869 -0.1140
  981THF     C213882   0.559   1.365   4.400  0.3744 -0.1672  0.3187
  981THF     C313883   0.415   1.435   4.237  0.6427 -0.2749  0.3562
  981THF     H413884   0.575   1.269   4.351 -1.1231 -0.5181  0.4671
  981THF     H513885   0.586   1.345   4.503  0.7654 -2.1340 -0.1167
  981THF     H613886   0.389   1.350   4.175  1.2699 -0.6664  0.6224
  981THF     H713887   0.335   1.508   4.226 -0.5027 -1.5710 -0.2166
  981THF     C813888   0.557   1.487   4.200  0.1132 -0.0631  0.3375
  981THF     C913889   0.638   1.479   4.329  0.4805  0.1685  0.1062
  981THF    H1013890   0.575   1.587   4.160 -0.8936 -0.6730 -1.7330
  981THF    H1113891   0.594   1.421   4.122 -2.1522 -0.3867 -0.5192
  981THF    H1213892   0.739   1.452   4.300  0.2224  0.1405 -0.7802
  981THF    H1313893   0.634   1.572   4.385 -1.6344  0.6442 -0.7270
  982THF     O113894   3.116   3.820   3.641  0.1324  0.1988  0.2189
  982THF     C213895   2.998   3.741   3.667 -0.3795 -0.0020  0.5999
  982THF     C313896   3.139   3.826   3.506 -0.1738  0.1618 -0.0881
  982THF     H413897   2.911   3.806   3.659  1.1520  2.2057  0.9976
  982THF     H513898   2.995   3.685   3.760 -0.8962 -0.3341  0.3862
  982THF     H613899   3.065   3.893   3.462 -0.9846 -0.8635 -0.3208
  982THF     H713900   3.240   3.859   3.485  1.3045 -3.7501  0.0735
  982THF     C813901   3.125   3.676   3.466 -0.2500  0.5082 -0.0647
  982THF     C913902   3.009   3.636   3.554 -0.8533 -0.2595 -0.1982
  982THF    H1013903   3.214   3.618   3.486  0.4121  0.5400 -2.5895
  982THF    H1113904   3.099   3.682   3.360  0.6818 -0.0112 -0.3352
  982THF    H1213905   2.911   3.623   3.507 -0.3946  0.1280 -1.2754
  982THF    H1313906   3.025   3.539   3.601 -1.2989  0.9886  2.8003
  983THF     O113907   3.837   0.515   3.021 -0.5665  0.0450  0.4537
  983THF     C213908   3.808   0.602   2.912  0.5753  0.0675 -0.0089
  983THF     C313909   3.839   0.385   2.962 -0.0035 -0.3312 -0.5452
  983THF     H413910   3.844   0.703   2.931 -0.2211 -0.2382  4.0316
  983THF     H513911   3.701   0.622   2.903  0.8277  0.9263 -1.4690
  983THF     H613912   3.882   0.315   3.033  1.1920 -0.0030 -0.9307
  983THF     H713913   3.738   0.347   2.943  0.0554 -2.2928  2.3337
  983THF     C813914   3.912   0.401   2.828 -0.2793  0.2504 -0.7851
  983THF     C913915   3.862   0.539   2.779  0.1001 -0.6040 -0.3325
  983THF    H1013916   3.881   0.328   2.753 -1.1032 -2.0536  1.6865
  983THF    H1113917   4.021   0.401   2.828 -0.2759 -0.6407 -0.6381
  983THF    H1213918   3.940   0.604   2.739 -0.0992  0.7195  1.3101
  983THF    H1313919   3.790   0.536   2.696  1.8689 -0.8592 -1.9159
  984THF     O113920   0.760   3.667   5.389 -0.6149 -0.7134  0.2750
  984THF     C213921   0.769   3.539   5.441  0.0037 -0.7347 -0.1212
  984THF     C313922   0.724   3.665   5.254 -0.0169 -0.0553  0.0766
  984THF     H413923   0.746   3.545   5.548  1.8574  1.0441  0.2344
  984THF     H513924   0.871   3.512   5.415  0.4336  0.7148 -0.0233
  984THF     H613925   0.692   3.763   5.217 -3.7627 -0.9281  0.6599
  984THF     H713926   0.805   3.632   5.188 -0.5316 -0.0336 -0.5759
  984THF     C813927   0.610   3.566   5.254 -0.4096  0.1091 -0.2275
  984THF     C913928   0.670   3.468   5.357 -0.0501  0.7140  0.1839
  984THF    H1013929   0.606   3.535   5.150  1.3845 -1.8731  0.2152
  984THF    H1113930   0.522   3.624   5.283  0.3018 -0.0899  2.5867
  984THF    H1213931   0.584   3.432   5.414 -0.0001 -1.3822 -0.9998
  984THF    H1313932   0.722   3.384   5.311  1.3766  2.3282 -1.3171
  985THF     O113933   1.509   3.858   3.865  0.2349  0.3457 -0.3775
  985THF     C213934   1.533   3.918   3.736 -0.0342 -0.0297 -0.1719
  985THF     C313935   1.375   3.802   3.851 -0.2058  0.1319 -0.0776
  985THF     H413936   1.637   3.948   3.722 -0.3776  1.2102 -0.1937
  985THF     H513937   1.489   4.016   3.720  2.5910  1.3971  0.8125
  985THF     H613938   1.363   3.709   3.908 -0.9614  0.1205 -0.2463
  985THF     H713939   1.295   3.868   3.885 -0.4060 -0.8162  1.4253
  985THF     C813940   1.356   3.766   3.702 -0.4349  0.2408  0.1342
  985THF     C913941   1.480   3.816   3.635 -0.4203 -0.0090  0.6668
  985THF    H1013942   1.263   3.808   3.662  0.1049  0.4093 -0.9931
  985THF    H1113943   1.373   3.659   3.691 -0.4187  0.2917 -0.3823
  985THF    H1213944   1.562   3.750   3.609  0.7566  1.5524  0.3095
  985THF    H1313945   1.458   3.855   3.536 -0.4362  1.9233  1.3888
  986THF     O113946   3.933   1.639   2.565 -0.0248 -0.2440 -0.2182
  986THF     C213947   3.987   1.683   2.692  0.1439 -0.5248 -0.1095
  986THF     C313948   3.828   1.548   2.598 -0.1590  0.3091 -0.3014
  986THF     H413949   4.053   1.770   2.682  0.1735 -0.5689 -0.3049
  986THF     H513950   4.040   1.602   2.741  0.2527 -1.1937 -1.2925
  986THF     H613951   3.776   1.525   2.505  3.0139 -0.7325 -1.9676
  986THF     H713952   3.859   1.451   2.638  0.6179  0.9770  0.7601
  986THF     C813953   3.749   1.628   2.699  0.1703  1.2208  0.2483
  986THF     C913954   3.860   1.711   2.768  0.0220  0.3069  0.3029
  986THF    H1013955   3.694   1.554   2.758 -0.7797  1.1118 -0.7539
  986THF    H1113956   3.682   1.691   2.642  0.2270  0.1010 -1.1075
  986THF    H1213957   3.834   1.816   2.756 -1.3290 -0.0712 -0.4246
  986THF    H1313958   3.854   1.690   2.875  1.7299  2.4122  0.8564
  987THF     O113959   4.831   1.861   4.917 -0.3432  0.3841  0.2371
  987THF     C213960   4.792   1.959   4.817  0.7612  0.3749  0.3781
  987THF     C313961   4.862   1.740   4.848 -0.1494 -0.3061  0.1275
  987THF     H413962   4.851   2.050   4.830 -4.0497  3.8591  0.3224
  987THF     H513963   4.692   1.991   4.845  1.9741  3.2360  1.8118
  987THF     H613964   4.934   1.674   4.897 -0.6250 -0.8974  0.0551
  987THF     H713965   4.765   1.690   4.848 -0.2979 -0.0341 -1.0354
  987THF     C813966   4.894   1.775   4.711 -0.0920 -0.3508  0.6856
  987THF     C913967   4.793   1.887   4.689  0.1858 -1.2322  0.1454
  987THF    H1013968   4.879   1.694   4.640  0.7080  0.7964 -0.8589
  987THF    H1113969   4.998   1.806   4.715 -0.0254 -0.4839  0.0643
  987THF    H1213970   4.834   1.954   4.614 -2.2191 -0.5817 -0.6771
  987THF    H1313971   4.689   1.856   4.675 -0.0150 -1.3547  1.7661
  988THF     O113972   2.113   0.735   3.335 -0.2803  0.6059  0.1626
  988THF     C213973   2.069   0.682   3.465 -0.8408  0.6065 -0.4768
  988THF     C313974   2.242   0.688   3.301  0.2472  1.0029 -0.4742
  988THF     H413975   1.971   0.634   3.456 -0.0885 -1.0092 -0.3243
  988THF     H513976   2.045   0.761   3.537 -0.1958 -0.0120  0.4367
  988THF     H613977   2.240   0.659   3.196 -0.3354 -0.9185  0.0341
  988THF     H713978   2.322   0.760   3.318 -0.5267  2.6846 -3.2453
  988THF     C813979   2.252   0.554   3.382  0.0040 -0.1289  0.3139
  988THF     C913980   2.165   0.577   3.504 -0.8230  0.1964  0.4769
  988THF    H1013981   2.351   0.530   3.420  1.0671 -1.5027 -2.9728
  988THF    H1113982   2.220   0.467   3.325  1.0202 -0.4086  0.1506
  988THF    H1213983   2.110   0.497   3.553  0.4441  0.3935  2.2938
  988THF    H1313984   2.232   0.600   3.586  1.3155 -3.0931 -0.1370
  989THF     O113985   4.435   3.034   1.348  0.1107 -0.1781  0.3843
  989THF     C213986   4.359   2.928   1.401  0.3756  0.3493  0.4711
  989THF     C313987   4.469   3.119   1.456  0.8848 -0.3528  0.2836
  989THF     H413988   4.419   2.844   1.437  0.7789  1.0172  1.3932
  989THF     H513989   4.289   2.905   1.320 -0.8103 -0.0386  1.5689
  989THF     H613990   4.549   3.087   1.524  0.8162  0.3425  0.7020
  989THF     H713991   4.499   3.217   1.419 -0.9648 -0.0380 -0.4704
  989THF     C813992   4.337   3.131   1.529  0.0311  0.1194 -0.0159
  989THF     C913993   4.295   2.991   1.528  1.1795  0.1798 -0.0240
  989THF    H1013994   4.264   3.189   1.474 -0.5877 -0.5945  0.0345
  989THF    H1113995   4.338   3.176   1.629  0.6058 -1.2314  0.6147
  989THF    H1213996   4.332   2.935   1.614 -0.0694 -1.1713 -0.3299
  989THF    H1313997   4.186   2.993   1.523  1.1129  0.8810  1.2188
  990THF     O113998   0.164   3.520   0.365  0.4568  0.2467  0.3987
  990THF     C213999   0.273   3.456   0.440 -0.5032  0.7750 -0.1495
  990THF     C314000   0.106   3.626   0.446 -0.0503  0.2179 -0.4648
  990THF     H414001   0.364   3.502   0.400  1.0951 -4.1930 -3.1384
  990THF     H514002   0.289   3.351   0.417  1.3533  0.5775  1.6874
  990THF     H614003   0.117   3.723   0.397 -3.1763  1.1743  0.4469
  990THF     H714004  -0.003   3.615   0.451 -0.1658  1.4457  0.1599
  990THF     C814005   0.184   3.626   0.583  0.1242  0.5337  0.2243
  990THF     C914006   0.241   3.485   0.591  0.5530  0.5089 -0.2825
  990THF    H1014007   0.126   3.665   0.668  1.4088 -0.0343  1.3915
  990THF    H1114008   0.262   3.702   0.583  0.3467  0.3513  1.9628
  990THF    H1214009   0.331   3.471   0.652 -0.3322 -1.8462  0.5934
  990THF    H1314010   0.163   3.415   0.620 -0.0944  1.1030 -0.5771
  991THF     O114011   5.176   1.773   4.177 -0.1270  0.7374 -0.0467
  991THF     C214012   5.066   1.858   4.204 -0.1295 -0.0468  0.1954
  991THF     C314013   5.213   1.700   4.290  0.1690  0.6652 -0.5944
  991THF     H414014   4.974   1.800   4.211 -0.8208  0.6369 -2.3248
  991THF     H514015   5.057   1.932   4.125  1.1601 -0.0870 -0.0101
  991THF     H614016   5.163   1.606   4.268 -1.8183  0.9668  2.1861
  991THF     H714017   5.322   1.695   4.291  0.2893  2.6162 -0.8266
  991THF     C814018   5.150   1.781   4.403 -0.3904  0.2937 -0.1465
  991THF     C914019   5.106   1.910   4.334  0.1593 -0.1637 -0.3366
  991THF    H1014020   5.225   1.787   4.482  2.2953  1.1351 -2.5934
  991THF    H1114021   5.064   1.729   4.445  0.2000 -0.8864 -0.3611
  991THF    H1214022   5.031   1.967   4.387  1.6048  2.2326 -0.7294
  991THF    H1314023   5.192   1.975   4.317  0.3336 -0.0414  0.9660
  992THF     O114024   2.355   1.546   2.168  0.3575  0.0363  0.3628
  992THF     C214025   2.492   1.553   2.138  0.3219  0.0721  0.0275
  992THF     C314026   2.327   1.447   2.262  0.7444 -0.0964 -0.3410
  992THF     H414027   2.531   1.654   2.144 -2.6482  1.2226  1.4147
  992THF     H514028   2.521   1.515   2.039 -2.3436 -2.2542  0.0162
  992THF     H614029   2.306   1.492   2.359 -1.1561  1.8397 -1.5601
  992THF     H714030   2.237   1.389   2.237  1.5415 -0.7275 -1.8422
  992THF     C814031   2.447   1.352   2.255  0.5803  0.7006  0.2797
  992THF     C914032   2.549   1.457   2.240  0.4636  0.9280 -0.0120
  992THF    H1014033   2.449   1.276   2.176 -0.1552 -0.1919  1.0929
  992THF    H1114034   2.459   1.295   2.347 -0.0370  0.7326  0.3834
  992THF    H1214035   2.573   1.512   2.332  0.8817  1.6543 -0.5365
  992THF    H1314036   2.647   1.416   2.217  0.5619 -0.7010  2.8649
  993THF     O114037   3.100   1.248   2.324 -0.3749 -0.5372 -0.0865
  993THF     C214038   2.979   1.180   2.349  0.6246 -0.2552  0.6310
  993THF     C314039   3.201   1.192   2.409 -0.6600 -0.5371 -0.4910
  993THF     H414040   2.986   1.087   2.293  2.5504  0.2367 -0.0231
  993THF     H514041   2.892   1.243   2.327  1.3255  0.6714  0.4485
  993THF     H614042   3.241   1.092   2.392  1.1150  0.0923 -0.2431
  993THF     H714043   3.285   1.261   2.417 -0.6721 -0.6995  1.8457
  993THF     C814044   3.127   1.181   2.532  0.8014 -0.1564 -0.1922
  993THF     C914045   2.978   1.151   2.495  0.8230 -0.3861 -0.5766
  993THF    H1014046   3.129   1.273   2.591  1.1071  1.5813 -2.7178
  993THF    H1114047   3.165   1.102   2.597 -0.9189  0.3675  1.5498
  993THF    H1214048   2.951   1.047   2.515  0.7670 -0.0205  1.4214
  993THF    H1314049   2.916   1.211   2.562  0.6304 -3.3142  2.1049
  994THF     O114050   1.519   0.942   1.921  0.3616 -0.2615  0.2114
  994THF     C214051   1.497   1.068   1.998 -0.2663  0.2321 -0.0474
  994THF     C314052   1.514   0.837   2.012 -0.4275 -0.2560  0.3464
  994THF     H414053   1.394   1.089   1.971 -0.1986 -2.9642 -3.7786
  994THF     H514054   1.568   1.139   1.956  1.5813 -1.9672 -0.8745
  994THF     H614055   1.411   0.808   2.029 -0.0384 -1.2561  1.1004
  994THF     H714056   1.572   0.750   1.978 -0.7045 -0.3850  0.1965
  994THF     C814057   1.558   0.891   2.141  0.4683  0.3658 -0.7584
  994THF     C914058   1.503   1.031   2.150 -0.3292 -0.6623 -0.6472
  994THF    H1014059   1.667   0.890   2.140  0.4770  0.3103 -2.3074
  994THF    H1114060   1.529   0.814   2.212  3.0887  0.2963  0.3650
  994THF    H1214061   1.405   1.040   2.198  0.4086 -0.1347  0.8008
  994THF    H1314062   1.584   1.094   2.187 -1.2878  0.6398 -0.7045
  995THF     O114063   4.993   2.030   0.651 -0.4616 -0.0363  0.3530
  995THF     C214064   5.095   1.946   0.584 -0.0951  0.0747 -0.5938
  995THF     C314065   4.919   1.949   0.737 -0.4398 -0.0446  0.5538
  995THF     H414066   5.175   2.018   0.566 -2.4278  3.1374  0.3198
  995THF     H514067   5.056   1.901   0.493 -1.5881 -2.1448  1.0339
  995THF     H614068   4.876   2.012   0.814  1.3336 -0.3635  1.8822
  995THF     H714069   4.846   1.893   0.678 -1.0228  1.7581 -0.5314
  995THF     C814070   5.031   1.868   0.800  0.0709 -0.2704 -0.7003
  995THF     C914071   5.132   1.840   0.687 -0.4296 -0.4956 -0.1781
  995THF    H1014072   4.990   1.774   0.839 -0.8875  1.8385  4.0392
  995THF    H1114073   5.078   1.927   0.879  0.1599 -3.1293  1.5702
  995THF    H1214074   5.232   1.861   0.724  0.0703 -0.6562 -1.3813
  995THF    H1314075   5.139   1.740   0.645  1.2627 -1.1714  1.5754
  996THF     O114076   0.206   0.674   1.893 -0.0240 -0.2907  0.2173
  996THF     C214077   0.087   0.751   1.912  0.2566  0.2791 -0.2592
  996THF     C314078   0.160   0.537   1.893  0.8190  0.7575  0.4059
  996THF     H414079   0.108   0.854   1.884  0.3425 -0.3599 -2.6975
  996THF     H514080   0.062   0.752   2.019  1.6076 -1.4501  0.1187
  996THF     H614081   0.232   0.470   1.846 -0.8109  0.0958 -1.2890
  996THF     H714082   0.129   0.496   1.988  0.5971 -1.7485 -0.6809
  996THF     C814083   0.031   0.548   1.807  0.0259  0.2751 -0.0028
  996THF     C914084  -0.024   0.692   1.821 -0.8650 -0.3721  0.1803
  996THF    H1014085  -0.046   0.474   1.831  0.0797  0.2716  0.1571
  996THF    H1114086   0.060   0.521   1.706  0.1281  0.0946  0.0756
  996THF    H1214087  -0.030   0.735   1.721 -1.2842  0.0422  0.3796
  996THF    H1314088  -0.125   0.685   1.861 -0.4016  0.3945  1.5316
  997THF     O114089   4.003   2.768   3.833  0.6300  0.0839 -0.0228
  997THF     C214090   4.137   2.828   3.813 -0.0251  0.0808 -0.7838
  997THF     C314091   4.004   2.651   3.750  0.0216  0.4515 -0.4682
  997THF     H414092   4.175   2.896   3.889 -2.3543  0.8640 -0.2387
  997THF     H514093   4.132   2.890   3.724 -0.7794  0.6772 -0.3383
  997THF     H614094   3.925   2.577   3.765  2.2159 -1.9860 -0.1496
  997THF     H714095   3.993   2.688   3.648 -2.1447  1.6029  0.1185
  997THF     C814096   4.143   2.590   3.775  0.1825 -0.7114 -0.1544
  997THF     C914097   4.236   2.706   3.806 -1.3988 -1.0091  0.2026
  997THF    H1014098   4.180   2.551   3.680  1.5235  0.1707 -0.0239
  997THF    H1114099   4.141   2.523   3.860  0.3205 -2.1144 -1.2218
  997THF    H1214100   4.283   2.696   3.903 -1.6273 -2.2759  0.2091
  997THF    H1314101   4.313   2.718   3.730 -1.4113 -0.4058  0.2799
  998THF     O114102   5.080   1.824   1.465  0.4282  0.0371 -0.1610
  998THF     C214103   5.180   1.868   1.557 -0.5789  0.1997  0.0922
  998THF     C314104   5.140   1.795   1.345 -0.2678 -0.2917 -0.2367
  998THF     H414105   5.257   1.799   1.592  0.8876  1.2080 -1.0170
  998THF     H514106   5.137   1.911   1.647  1.0460 -0.0275  1.0073
  998THF     H614107   5.165   1.689   1.351 -0.7895 -0.5371 -1.8400
  998THF     H714108   5.071   1.812   1.262  0.4306  0.8625 -0.6106
  998THF     C814109   5.252   1.900   1.336 -0.4906 -0.0451 -0.0731
  998THF     C914110   5.243   1.970   1.466 -0.6540 -0.5149 -0.3899
  998THF    H1014111   5.246   1.970   1.253  0.8135 -0.2402 -0.3653
  998THF    H1114112   5.346   1.844   1.336 -1.2441 -1.3647  0.5356
  998THF    H1214113   5.337   1.995   1.515 -1.1199 -0.0941  0.3122
  998THF    H1314114   5.180   2.058   1.466  1.2473  0.9150 -1.4061
  999THF     O114115   2.383   0.670   4.671 -0.4713 -0.1815  0.0425
  999THF     C214116   2.288   0.579   4.724 -0.0594 -0.1968 -0.4700
  999THF     C314117   2.459   0.588   4.576  0.2491 -0.2980  0.1374
  999THF     H414118   2.203   0.620   4.778  1.1945 -0.7837  2.1208
  999THF     H514119   2.357   0.525   4.789  1.9316 -0.5001 -2.7197
  999THF     H614120   2.505   0.659   4.507 -1.0451  0.6735  0.2348
  999THF     H714121   2.534   0.530   4.631  1.9166  1.6344  0.0134
  999THF     C814122   2.368   0.499   4.506  0.1491 -0.0430  0.8171
  999THF     C914123   2.250   0.498   4.599 -0.3120  0.0884 -0.2725
  999THF    H1014124   2.423   0.406   4.496  0.1186  0.0188 -0.0367
  999THF    H1114125   2.345   0.542   4.408  1.4665 -1.7268 -0.2798
  999THF    H1214126   2.167   0.547   4.548 -0.2197 -1.3439 -1.8978
  999THF    H1314127   2.222   0.396   4.625  1.3756 -0.6436 -1.1248
 1000THF     O114128   3.963   3.943   0.256  0.2524 -0.6313 -0.1297
 1000THF     C214129   3.948   3.941   0.397 -0.4765  0.0014  1.3107
 1000THF     C314130   4.105   3.924   0.235 -0.1049 -0.4971 -0.0978
 1000THF     H414131   3.910   3.845   0.431  1.7523 -0.7465  1.8502
 1000THF     H514132   3.865   4.004   0.426 -0.1198  0.4386  1.3883
 1000THF     H614133   4.118   3.832   0.178  2.0358 -2.8385  3.7282
 1000THF     H714134   4.147   4.008   0.178  0.9273 -0.0929  1.2014
 1000THF     C814135   4.175   3.910   0.373  0.0946 -0.1441 -1.0283
 1000THF     C914136   4.075   3.984   0.465  0.8409 -0.1792 -0.2619
 1000THF    H1014137   4.271   3.961   0.376 -0.7195  1.4161  0.7545
 1000THF    H1114138   4.177   3.805   0.402  0.1239  0.2743  0.5962
 1000THF    H1214139   4.070   3.959   0.571  0.2960  1.5776  0.1695
 1000THF    H1314140   4.070   4.092   0.450 -1.2705 -0.0166  1.2581
 1001THF     O114141   0.449   4.153   2.479  0.5412 -0.0232  0.3960
 1001THF     C214142   0.336   4.184   2.398 -0.1424  0.2990 -0.4325
 1001THF     C314143   0.566   4.156   2.403 -0.2204  0.1093  0.0884
 1001THF     H414144   0.285   4.277   2.422  2.6373  2.2255 -1.4420
 1001THF     H514145   0.280   4.091   2.400  0.8556 -0.3145 -0.1560
 1001THF     H614146   0.652   4.199   2.453  1.3315 -1.5711 -1.0032
 1001THF     H714147   0.603   4.060   2.367  1.0984  0.7282 -0.2514
 1001THF     C814148   0.536   4.255   2.292 -0.5116 -0.0236 -0.5527
 1001THF     C914149   0.403   4.203   2.260  0.3815  0.4170  0.0193
 1001THF    H1014150   0.608   4.244   2.211 -0.6408  1.0858 -0.8323
 1001THF    H1114151   0.539   4.354   2.337  0.1297 -0.4767  0.4484
 1001THF    H1214152   0.338   4.269   2.202  2.0376  1.1926 -1.0153
 1001THF    H1314153   0.412   4.110   2.204  2.3854  0.5695  0.0356
 1002THF     O114154   3.186   4.961   3.134  0.1711 -0.3155 -0.2975
 1002THF     C214155   3.281   4.989   3.240 -0.7153  0.0849 -0.3929
 1002THF     C314156   3.054   4.951   3.191 -0.4590 -0.4353 -0.4330
 1002THF     H414157   3.364   5.053   3.210  1.7233 -2.3542  0.6942
 1002THF     H514158   3.325   4.895   3.273 -0.0886  0.5974  0.2661
 1002THF     H614159   2.994   5.038   3.165  1.3665  1.3222  0.9148
 1002THF     H714160   3.003   4.860   3.159 -0.9001 -0.1839 -0.4529
 1002THF     C814161   3.083   4.957   3.344  0.5235  0.4308  0.5236
 1002THF     C914162   3.206   5.041   3.357 -0.4567  0.2714  0.1791
 1002THF    H1014163   3.110   4.855   3.371 -1.1971 -0.3109 -0.3892
 1002THF    H1114164   3.004   4.978   3.416  0.0678  1.7646 -0.3380
 1002THF    H1214165   3.186   5.147   3.341  0.4607  0.6115  1.1565
 1002THF    H1314166   3.265   5.033   3.448 -1.2085 -0.3989  0.6273
 1003THF     O114167   4.094   2.090   3.569  0.3676 -0.1012  0.5003
 1003THF     C214168   4.040   2.072   3.694  0.0224  0.4357 -0.3737
 1003THF     C314169   4.228   2.147   3.580  0.4750 -0.6151 -0.3179
 1003THF     H414170   3.950   2.012   3.681  1.6314 -2.3470  0.4036
 1003THF     H514171   4.013   2.170   3.734  0.5785  0.7761 -0.8288
 1003THF     H614172   4.279   2.107   3.492 -0.1805  1.0732 -1.5227
 1003THF     H714173   4.221   2.256   3.578 -0.8068 -0.6750 -0.0184
 1003THF     C814174   4.279   2.092   3.708  0.5683  0.3066 -0.3162
 1003THF     C914175   4.166   2.013   3.759 -0.7570  0.3645 -0.1112
 1003THF    H1014176   4.295   2.178   3.772  0.6020  0.7831 -0.9479
 1003THF    H1114177   4.368   2.032   3.688  0.3229  0.0149 -0.5415
 1003THF    H1214178   4.172   1.909   3.730 -0.5754  0.2160  0.4412
 1003THF    H1314179   4.160   1.999   3.867  0.1331 -0.9308 -0.2220
 1004THF     O114180   0.416   3.009   2.950 -0.0413  0.1485 -0.0172
 1004THF     C214181   0.467   2.873   2.939  0.0491 -0.2072  0.5835
 1004THF     C314182   0.274   3.000   2.939 -0.0099  0.4403 -0.0782
 1004THF     H414183   0.478   2.822   3.035 -2.3673 -1.8467  0.0769
 1004THF     H514184   0.559   2.872   2.881 -0.9468  1.3767 -1.0947
 1004THF     H614185   0.244   2.951   3.032  2.6156  0.1051  0.6797
 1004THF     H714186   0.232   3.099   2.921 -0.5477  0.3767  0.7474
 1004THF     C814187   0.250   2.902   2.832  0.5528 -0.6148 -0.3982
 1004THF     C914188   0.351   2.798   2.859  0.4175 -0.0986  0.3558
 1004THF    H1014189   0.272   2.950   2.736 -2.0226  0.4440 -0.5569
 1004THF    H1114190   0.149   2.861   2.837  0.0881  0.4556 -0.7117
 1004THF    H1214191   0.302   2.725   2.923  1.3674  0.3293  1.6212
 1004THF    H1314192   0.387   2.739   2.775  1.2977 -0.1204  0.7316
 1005THF     O114193   0.504   4.300   2.901 -0.2075 -0.1415 -0.0125
 1005THF     C214194   0.556   4.292   2.763 -0.0642 -0.1524  0.3743
 1005THF     C314195   0.620   4.274   2.984 -0.1656 -0.2338  0.0145
 1005THF     H414196   0.610   4.379   2.726 -0.1275 -0.0776  0.4588
 1005THF     H514197   0.477   4.290   2.688  2.2713  0.8153 -2.3161
 1005THF     H614198   0.667   4.370   3.001 -1.6169  0.7018 -1.0030
 1005THF     H714199   0.592   4.244   3.085 -0.2839 -1.7281 -0.4352
 1005THF     C814200   0.702   4.167   2.915 -0.1916 -0.3102  0.2174
 1005THF     C914201   0.646   4.168   2.772 -0.0748  0.7364  0.0681
 1005THF    H1014202   0.689   4.074   2.972 -1.8043  0.3789  1.0282
 1005THF    H1114203   0.810   4.182   2.917  0.4333 -3.9027 -0.2118
 1005THF    H1214204   0.722   4.162   2.695  1.1768 -0.0352  1.3123
 1005THF    H1314205   0.586   4.077   2.763 -2.6952  2.1190  2.2162
 1006THF     O114206   3.766   4.594   4.468 -0.1038 -0.1049  0.5811
 1006THF     C214207   3.770   4.711   4.549  0.1537  0.5238  0.1762
 1006THF     C314208   3.702   4.497   4.550  0.3526  0.2777 -0.2571
 1006THF     H414209   3.669   4.749   4.563 -0.5120 -1.9729  3.2296
 1006THF     H514210   3.838   4.783   4.503  1.1164 -0.4228  0.0597
 1006THF     H614211   3.594   4.500   4.562  0.5564  0.4151  2.1349
 1006THF     H714212   3.722   4.403   4.498 -0.1945  0.3859 -0.6610
 1006THF     C814213   3.770   4.522   4.689 -0.1818  0.8077  0.0881
 1006THF     C914214   3.820   4.664   4.680 -0.5352  0.0206 -0.2596
 1006THF    H1014215   3.853   4.453   4.701 -0.5165  0.3125 -0.3932
 1006THF    H1114216   3.692   4.510   4.765 -0.4729 -1.7021 -0.5237
 1006THF    H1214217   3.773   4.724   4.759  3.6159 -0.7798  3.2031
 1006THF    H1314218   3.928   4.676   4.676 -0.5905  0.6853  0.0524
 1007THF     O114219   0.209   2.730   0.031  0.2804 -0.0945 -0.1692
 1007THF     C214220   0.316   2.828   0.044  0.3752  0.7529  0.1455
 1007THF     C314221   0.262   2.602   0.061  0.3610 -0.6054 -0.5242
 1007THF     H414222   0.277   2.929   0.058 -3.3621 -0.6535  0.9472
 1007THF     H514223   0.384   2.820  -0.041  0.6376 -0.0036  0.4142
 1007THF     H614224   0.176   2.536   0.075 -1.2296  1.7503  1.7172
 1007THF     H714225   0.342   2.568  -0.005  0.7388  2.5209 -1.8236
 1007THF     C814226   0.330   2.639   0.193  0.5847 -0.0912  0.2842
 1007THF     C914227   0.398   2.769   0.160  0.0095 -0.6182 -0.7165
 1007THF    H1014228   0.410   2.569   0.217  0.7147 -0.2516 -0.6075
 1007THF    H1114229   0.260   2.665   0.273  0.6054  0.7374  0.0431
 1007THF    H1214230   0.412   2.832   0.248  2.4790 -0.6699 -1.0011
 1007THF    H1314231   0.503   2.751   0.140  0.7739  1.7815  0.7124
 1008THF     O114232   5.451   1.711   3.782 -0.1066 -0.3568 -0.2382
 1008THF     C214233   5.450   1.835   3.710  0.5574 -0.5934  0.1221
 1008THF     C314234   5.322   1.688   3.830 -0.3480  0.4672 -0.4381
 1008THF     H414235   5.403   1.819   3.613 -0.7208 -2.3460  0.9751
 1008THF     H514236   5.549   1.878   3.696  0.3069 -0.2362 -0.5812
 1008THF     H614237   5.282   1.621   3.754  1.5149 -0.4440 -0.6616
 1008THF     H714238   5.329   1.649   3.931  0.4543 -1.6062 -1.2423
 1008THF     C814239   5.249   1.823   3.825  0.0249  0.3642  0.4417
 1008THF     C914240   5.358   1.924   3.788  0.1269 -0.4880 -0.1956
 1008THF    H1014241   5.193   1.847   3.915  0.9868 -0.0585  1.1686
 1008THF    H1114242   5.181   1.824   3.740 -0.1366  2.0538  0.5701
 1008THF    H1214243   5.324   2.017   3.744  1.1344 -0.1547 -0.2901
 1008THF    H1314244   5.398   1.960   3.883 -0.9467  2.6281 -0.8009
 1009THF     O114245   0.211   0.170   4.563  0.0330  0.1757  0.2110
 1009THF     C214246   0.126   0.066   4.607  1.1774  0.1398  0.0884
 1009THF     C314247   0.155   0.290   4.610 -0.2028 -0.2407  0.5624
 1009THF     H414248   0.186  -0.024   4.621  2.0534  0.4522 -1.4447
 1009THF     H514249   0.038   0.048   4.544  0.3525  2.5298  0.4653
 1009THF     H614250   0.228   0.370   4.606 -1.9511  1.5975  2.5672
 1009THF     H714251   0.074   0.317   4.543  0.0544  1.4360  0.8941
 1009THF     C814252   0.106   0.266   4.750 -0.1405 -0.7576  0.1499
 1009THF     C914253   0.089   0.113   4.750  0.0760 -0.1511 -1.0565
 1009THF    H1014254   0.010   0.316   4.766  0.9520  0.6851  2.7872
 1009THF    H1114255   0.179   0.293   4.826  0.9440  1.0865 -1.4529
 1009THF    H1214256   0.160   0.070   4.821 -0.2359  0.3512 -0.4377
 1009THF    H1314257  -0.016   0.094   4.770  0.2350  0.1904  0.1599
 1010THF     O114258   0.621   3.252   0.381  0.2979  0.9387 -0.0773
 1010THF     C214259   0.697   3.127   0.398  0.1009  0.6570 -0.7737
 1010THF     C314260   0.529   3.241   0.278  0.4100 -0.2564  0.2228
 1010THF     H414261   0.649   3.088   0.488  0.1541  0.4281 -0.8428
 1010THF     H514262   0.801   3.155   0.416 -0.4259  2.3268 -0.2187
 1010THF     H614263   0.441   3.192   0.321 -1.6970 -0.3807 -3.7242
 1010THF     H714264   0.485   3.328   0.230  0.7996 -0.7819 -1.1307
 1010THF     C814265   0.604   3.158   0.178  0.3189  0.0430  0.5955
 1010THF     C914266   0.672   3.052   0.265  0.5890 -0.4527  0.3499
 1010THF    H1014267   0.692   3.212   0.141 -0.6787 -0.0450 -2.1476
 1010THF    H1114268   0.548   3.114   0.096 -0.0747  1.2480  0.1867
 1010THF    H1214269   0.614   2.961   0.278  0.9004 -0.6333  0.4708
 1010THF    H1314270   0.765   3.029   0.214  0.3523  0.9853 -0.8252
 1011THF     O114271   1.238   4.350   0.778 -0.2850  0.6159 -0.4451
 1011THF     C214272   1.147   4.356   0.890 -0.1577 -0.6369 -0.5099
 1011THF     C314273   1.237   4.464   0.697  0.3149  0.3145  0.1310
 1011THF     H414274   1.162   4.292   0.977  1.3814 -1.7253 -1.5149
 1011THF     H514275   1.045   4.353   0.851  0.0126 -0.0464 -1.0261
 1011THF     H614276   1.331   4.497   0.654 -0.2296  0.9854 -0.5963
 1011THF     H714277   1.163   4.455   0.617  1.3489  2.1964 -1.1336
 1011THF     C814278   1.177   4.569   0.787  0.4060  0.2948  0.2872
 1011THF     C914279   1.164   4.502   0.924  0.3863 -0.1258 -0.9273
 1011THF    H1014280   1.082   4.596   0.740  0.5375  0.5751  0.1760
 1011THF    H1114281   1.239   4.659   0.785 -0.6062  1.0043 -0.5423
 1011THF    H1214282   1.255   4.519   0.982  0.3249 -0.1989 -0.8077
 1011THF    H1314283   1.076   4.535   0.980 -0.4405  0.7894 -2.6863
 1012THF     O114284   1.649   0.696   5.107 -0.1490 -0.3014  0.2060
 1012THF     C214285   1.650   0.824   5.050  0.5538  0.0268 -0.6556
 1012THF     C314286   1.692   0.614   5.002 -0.1290  0.2236 -0.4966
 1012THF     H414287   1.638   0.898   5.129  0.4925 -1.1026  0.4184
 1012THF     H514288   1.569   0.837   4.978  0.5455  3.0380 -0.2242
 1012THF     H614289   1.734   0.525   5.047  0.9397  0.2537 -1.3865
 1012THF     H714290   1.610   0.587   4.935 -0.4077 -0.6043  0.1693
 1012THF     C814291   1.803   0.693   4.930 -0.7469 -0.1890  0.2724
 1012THF     C914292   1.786   0.838   4.974  0.4343 -0.3464 -1.1884
 1012THF    H1014293   1.784   0.675   4.824 -0.8328  0.2478  0.2106
 1012THF    H1114294   1.900   0.648   4.949 -1.0946 -1.7461 -1.3532
 1012THF    H1214295   1.867   0.863   5.042 -1.3307  1.1630  0.4543
 1012THF    H1314296   1.779   0.914   4.896  0.7759 -1.2344 -2.1148
 1013THF     O114297   3.244   3.751   2.036 -1.1261  0.1083  0.0939
 1013THF     C214298   3.271   3.821   2.157 -0.1332  0.0063  0.4660
 1013THF     C314299   3.298   3.622   2.059  0.0922  0.0450 -0.6790
 1013THF     H414300   3.200   3.798   2.236 -0.1409 -0.2510  0.3862
 1013THF     H514301   3.253   3.927   2.143  0.7306  0.2965  1.3994
 1013THF     H614302   3.226   3.571   2.124 -0.3060  1.4457  0.0321
 1013THF     H714303   3.306   3.569   1.964  0.3100 -1.3695  0.0934
 1013THF     C814304   3.423   3.639   2.135 -0.5486  0.6972 -0.0468
 1013THF     C914305   3.420   3.780   2.183  0.5576  0.0176 -0.2785
 1013THF    H1014306   3.506   3.624   2.067 -0.3175  0.0250  0.3845
 1013THF    H1114307   3.438   3.566   2.214  1.0233  1.2122  0.1706
 1013THF    H1214308   3.450   3.788   2.288 -0.9957  0.7874  0.1344
 1013THF    H1314309   3.481   3.846   2.122 -2.0985  0.8263 -2.2174
 1014THF     O114310   2.035   3.925   2.412 -0.3828  0.2018 -0.4358
 1014THF     C214311   1.943   4.016   2.360  0.1329 -0.9514 -0.2774
 1014THF     C314312   2.000   3.905   2.550 -0.9757  0.0714 -0.3511
 1014THF     H414313   1.845   3.976   2.336 -1.4081  2.9672 -1.4015
 1014THF     H514314   1.986   4.069   2.274 -0.8424  0.7595  0.2378
 1014THF     H614315   1.928   3.824   2.560  0.2793 -1.3141 -1.9126
 1014THF     H714316   2.082   3.883   2.619  0.0343  0.3387 -1.4340
 1014THF     C814317   1.937   4.032   2.596 -0.0332 -0.1449  0.4219
 1014THF     C914318   1.922   4.120   2.472 -0.0996  0.6322  0.1991
 1014THF    H1014319   1.974   4.072   2.690  0.7938  0.9168 -0.3399
 1014THF    H1114320   1.833   4.010   2.622 -0.4599  0.4778 -0.7068
 1014THF    H1214321   1.830   4.177   2.465 -0.4205  0.2698  1.2610
 1014THF    H1314322   2.012   4.182   2.466  1.5575 -1.4259  1.9055
 1015THF     O114323   3.243   4.016   2.407 -0.3775  0.0602  0.2038
 1015THF     C214324   3.157   4.129   2.434 -0.2361 -0.3633  0.3347
 1015THF     C314325   3.367   4.041   2.477  0.3808 -0.7879 -0.5682
 1015THF     H414326   3.070   4.089   2.486  0.1942 -0.9827  0.5987
 1015THF     H514327   3.134   4.180   2.340  3.3767 -0.4787 -0.7741
 1015THF     H614328   3.405   3.945   2.510 -0.2565 -0.8365  0.0487
 1015THF     H714329   3.432   4.086   2.402  1.4563  0.0580  0.8345
 1015THF     C814330   3.329   4.139   2.590 -0.2803 -1.0061 -0.2476
 1015THF     C914331   3.236   4.229   2.526 -0.7614 -0.9615 -0.1020
 1015THF    H1014332   3.423   4.191   2.608  0.1127 -1.8025  0.0415
 1015THF    H1114333   3.286   4.086   2.675 -3.8033 -1.1936 -1.9516
 1015THF    H1214334   3.168   4.271   2.599 -2.1763 -0.3190 -1.7155
 1015THF    H1314335   3.281   4.304   2.460 -1.7011 -0.2225  0.0808
 1016THF     O114336   1.630   1.544   2.934  0.3894  0.4775  0.7309
 1016THF     C214337   1.627   1.680   2.902  0.4137  0.0896 -0.5011
 1016THF     C314338   1.742   1.527   3.015  0.0925 -0.2510 -0.4340
 1016THF     H414339   1.586   1.737   2.985  1.4092  1.4324 -0.9047
 1016THF     H514340   1.564   1.701   2.816  1.7533  1.9322 -1.0998
 1016THF     H614341   1.728   1.555   3.119  1.8969 -0.2966 -0.1609
 1016THF     H714342   1.781   1.426   3.022  0.2533 -0.3546 -2.2624
 1016THF     C814343   1.844   1.624   2.950  0.4387 -0.3311  0.1618
 1016THF     C914344   1.770   1.723   2.865  0.5735 -0.4326  0.1120
 1016THF    H1014345   1.920   1.575   2.889  0.3894 -1.3995  0.9122
 1016THF    H1114346   1.895   1.683   3.026  0.3045  0.7186 -0.5570
 1016THF    H1214347   1.795   1.827   2.889 -1.0085  0.4066 -1.5897
 1016THF    H1314348   1.788   1.713   2.758  0.5300  0.2227  0.0368
 1017THF     O114349   5.409   3.651   1.146 -0.1818  0.4468  0.1284
 1017THF     C214350   5.494   3.654   1.033  0.0844 -0.8950 -0.0451
 1017THF     C314351   5.448   3.532   1.212  0.0255  0.2661  0.2326
 1017THF     H414352   5.592   3.691   1.065 -0.4838  0.5095  0.1216
 1017THF     H514353   5.461   3.724   0.957 -0.4341  1.4726  2.2166
 1017THF     H614354   5.530   3.565   1.275  0.5199 -0.7072  0.1275
 1017THF     H714355   5.373   3.484   1.276  0.0309 -1.2786 -0.8639
 1017THF     C814356   5.491   3.434   1.105  0.0908  0.0818  0.5987
 1017THF     C914357   5.501   3.520   0.980 -0.0990  0.2186  0.1838
 1017THF    H1014358   5.417   3.357   1.085  2.2062 -1.8087 -0.4214
 1017THF    H1114359   5.588   3.396   1.138  0.5753  0.5095 -0.2946
 1017THF    H1214360   5.585   3.498   0.914 -1.2624 -2.0884 -0.6349
 1017THF    H1314361   5.412   3.513   0.918  1.0633  1.4695 -1.7194
 1018THF     O114362   3.030   0.378   3.013  0.3230  0.1722 -0.2281
 1018THF     C214363   2.995   0.492   3.092  0.2078 -0.0021  0.2681
 1018THF     C314364   3.127   0.303   3.093 -0.0024 -0.4433  0.2762
 1018THF     H414365   2.903   0.544   3.064  0.1775  0.5332  1.2848
 1018THF     H514366   3.072   0.567   3.108  0.4386  0.0393 -0.9758
 1018THF     H614367   3.125   0.199   3.061 -2.0085 -0.5664  0.6569
 1018THF     H714368   3.230   0.338   3.091 -0.0382  0.3277  4.1372
 1018THF     C814369   3.075   0.309   3.231  0.0644  0.2934  0.6065
 1018THF     C914370   2.969   0.409   3.224  0.4779  0.0554 -0.2581
 1018THF    H1014371   3.154   0.335   3.301  0.8204  0.3197 -0.2455
 1018THF    H1114372   3.024   0.213   3.239  0.5111 -0.1664 -1.5424
 1018THF    H1214373   2.871   0.364   3.214 -0.8076  2.5306  0.4041
 1018THF    H1314374   2.974   0.477   3.309 -0.2513 -1.4530  1.0374
 1019THF     O114375   3.413   5.155   4.456 -0.2384 -0.7432  0.1871
 1019THF     C214376   3.477   5.280   4.410 -0.1564 -0.0537 -0.1126
 1019THF     C314377   3.459   5.059   4.366  0.4015 -0.4289 -0.5482
 1019THF     H414378   3.465   5.353   4.491  0.3737  1.5180 -1.3965
 1019THF     H514379   3.427   5.332   4.328 -0.4189  2.0917  1.3271
 1019THF     H614380   3.447   4.962   4.414  2.2108 -0.7331 -0.6398
 1019THF     H714381   3.414   5.058   4.267 -0.4639 -1.9892 -0.1684
 1019THF     C814382   3.610   5.088   4.346 -0.2552 -0.3225  0.4985
 1019THF     C914383   3.621   5.231   4.390  0.2091  0.2422 -0.0602
 1019THF    H1014384   3.643   5.077   4.243 -1.2442  1.9522 -0.1393
 1019THF    H1114385   3.677   5.029   4.408 -0.2587 -1.4409 -0.5321
 1019THF    H1214386   3.664   5.233   4.490  0.1169  1.7117 -0.0343
 1019THF    H1314387   3.678   5.301   4.330  0.3062  1.1185  1.0289
 1020THF     O114388   2.634   5.119   3.513  0.2703 -0.2642 -0.3574
 1020THF     C214389   2.654   5.031   3.402 -0.4916  0.4978  0.6093
 1020THF     C314390   2.511   5.081   3.564 -0.7421  0.5051 -0.1848
 1020THF     H414391   2.688   4.937   3.444  2.6149  0.6530 -1.2744
 1020THF     H514392   2.744   5.055   3.346  1.0388  0.2059  2.8288
 1020THF     H614393   2.520   4.987   3.619 -0.2359 -0.1510 -1.3337
 1020THF     H714394   2.460   5.157   3.622 -0.5560  1.2813 -1.0002
 1020THF     C814395   2.430   5.051   3.428 -0.1006  0.3212 -0.5159
 1020THF     C914396   2.529   5.038   3.314 -0.5008  0.0658  0.5180
 1020THF    H1014397   2.355   5.124   3.397 -1.8458  0.1072  2.7490
 1020THF    H1114398   2.382   4.953   3.435 -0.0754 -0.0795 -3.9700
 1020THF    H1214399   2.513   4.952   3.249  0.2542 -1.5738  2.4000
 1020THF    H1314400   2.542   5.129   3.256 -0.0610 -1.0311 -1.1664
 1021THF     O114401   1.359   5.449   0.121  0.6685  0.1218 -0.1081
 1021THF     C214402   1.302   5.423   0.248 -0.1061  1.1181  0.2226
 1021THF     C314403   1.385   5.326   0.053 -0.2467 -0.0208 -0.4142
 1021THF     H414404   1.195   5.413   0.232 -0.0668  1.4581 -0.2894
 1021THF     H514405   1.325   5.508   0.313 -1.5716  2.1695 -0.5726
 1021THF     H614406   1.294   5.289   0.006  1.0004 -2.9756 -0.7141
 1021THF     H714407   1.454   5.343  -0.029  0.0714  0.9313  0.0437
 1021THF     C814408   1.437   5.240   0.167  0.2333  0.4336 -0.2415
 1021THF     C914409   1.360   5.286   0.291  0.5856 -0.5084  0.0944
 1021THF    H1014410   1.543   5.260   0.181  0.1351  1.0495 -0.3658
 1021THF    H1114411   1.423   5.132   0.156  0.9570  0.0860  1.7697
 1021THF    H1214412   1.288   5.214   0.330  1.1120 -2.0813 -1.6918
 1021THF    H1314413   1.423   5.305   0.379 -0.1887  0.5443  0.4516
 1022THF     O114414   1.454   2.130   4.013  0.1096  0.1070  0.0078
 1022THF     C214415   1.434   2.197   4.137  0.5738 -0.6326  0.7067
 1022THF     C314416   1.328   2.056   3.994  0.4594 -0.1675  0.0481
 1022THF     H414417   1.510   2.266   4.173  0.1320 -0.1501  0.7331
 1022THF     H514418   1.418   2.121   4.214  0.6767 -1.3530  0.0382
 1022THF     H614419   1.327   2.020   3.891 -0.2318 -0.5749  0.1875
 1022THF     H714420   1.317   1.967   4.057 -1.1757 -0.4094 -0.5456
 1022THF     C814421   1.220   2.155   4.027  0.2119  0.1266  0.0592
 1022THF     C914422   1.300   2.252   4.117  0.4796 -0.0191 -0.1684
 1022THF    H1014423   1.146   2.100   4.086  0.1505 -1.0054 -1.0398
 1022THF    H1114424   1.176   2.212   3.946  0.9535  0.5217 -0.0773
 1022THF    H1214425   1.303   2.345   4.061 -2.1229  0.7325  0.7901
 1022THF    H1314426   1.248   2.280   4.209 -1.0986 -1.9054 -0.4121
 1023THF     O114427   2.071   2.793   0.637  0.1918  0.3372 -0.0667
 1023THF     C214428   1.959   2.714   0.618  0.1939 -0.1968 -0.0785
 1023THF     C314429   2.037   2.920   0.672 -0.1912 -0.4742 -0.1575
 1023THF     H414430   1.934   2.640   0.693  0.0062  1.0421  1.1316
 1023THF     H514431   1.953   2.660   0.524 -1.2104 -0.0201 -0.1183
 1023THF     H614432   2.092   2.928   0.766  1.3710 -0.1069 -1.0643
 1023THF     H714433   2.093   2.993   0.614 -0.6854 -0.1212 -0.1918
 1023THF     C814434   1.891   2.929   0.696  0.6037 -0.2518  0.1239
 1023THF     C914435   1.839   2.812   0.611 -0.3706 -0.2780 -1.1908
 1023THF    H1014436   1.841   3.017   0.656  0.1507  0.1040  1.4285
 1023THF    H1114437   1.850   2.929   0.797 -0.4578  0.0071 -0.2921
 1023THF    H1214438   1.750   2.778   0.664 -0.5428  1.4707 -0.2866
 1023THF    H1314439   1.814   2.842   0.509 -2.5124 -2.2912 -1.3489
 1024THF     O114440   0.650   2.762   4.013 -0.5303 -0.1511  0.9205
 1024THF     C214441   0.558   2.862   3.951  0.5719  0.1770  0.1630
 1024THF     C314442   0.598   2.633   4.027 -0.5253 -0.1492  0.3159
 1024THF     H414443   0.596   2.920   3.867  1.3619  1.1380  1.1727
 1024THF     H514444   0.541   2.934   4.030 -0.6368 -1.4520  1.4689
 1024THF     H614445   0.680   2.562   4.014 -1.6013 -1.4901  0.5899
 1024THF     H714446   0.544   2.624   4.122  0.0863  0.5762  0.7413
 1024THF     C814447   0.493   2.631   3.908 -0.6500  0.3556  0.2049
 1024THF     C914448   0.438   2.769   3.920 -0.2551 -0.2003  0.1790
 1024THF    H1014449   0.426   2.546   3.917 -1.9814  1.1101 -1.9250
 1024THF    H1114450   0.550   2.601   3.820 -1.9696 -2.4279  0.2025
 1024THF    H1214451   0.395   2.807   3.827 -0.7090  1.4681  1.0274
 1024THF    H1314452   0.367   2.766   4.003  0.2209 -2.5081  0.5571
 1025THF     O114453   1.380   3.283   4.944 -0.3221 -0.6469  0.2094
 1025THF     C214454   1.347   3.311   5.078  0.1445 -0.5991  0.9883
 1025THF     C314455   1.403   3.145   4.930 -0.1409 -0.2359  0.6353
 1025THF     H414456   1.298   3.407   5.093 -0.6444 -0.5684 -1.3594
 1025THF     H514457   1.443   3.321   5.129  0.0116  0.9598  0.9760
 1025THF     H614458   1.401   3.111   4.827  1.5694 -0.7038  0.7224
 1025THF     H714459   1.498   3.101   4.959  0.7685  0.6813 -0.8186
 1025THF     C814460   1.301   3.080   5.019 -0.2649  0.2673  0.3061
 1025THF     C914461   1.280   3.183   5.130  0.5399  0.8736  0.5664
 1025THF    H1014462   1.334   2.985   5.061 -1.8694 -0.5046 -0.0577
 1025THF    H1114463   1.207   3.062   4.966 -0.0611  1.5219 -0.5225
 1025THF    H1214464   1.171   3.192   5.135  0.3243  0.5651 -2.0102
 1025THF    H1314465   1.316   3.144   5.224 -0.6544  0.7014  0.9727
 1026THF     O114466   4.927   2.868   0.035 -0.1253 -0.4537  0.0133
 1026THF     C214467   5.063   2.913   0.025  0.7382  0.2236  0.2697
 1026THF     C314468   4.869   2.895  -0.095 -0.3320  0.1199  0.7064
 1026THF     H414469   5.123   2.861   0.100  1.1136 -0.7916 -0.7236
 1026THF     H514470   5.074   3.018   0.053  1.6896  0.3980 -0.7180
 1026THF     H614471   4.779   2.835  -0.108  0.4104 -1.0626  0.8405
 1026THF     H714472   4.844   3.001  -0.099 -0.5627  0.0402 -3.0395
 1026THF     C814473   4.977   2.859  -0.198 -0.0617  0.1001 -0.3269
 1026THF     C914474   5.110   2.877  -0.122  0.3090 -0.1801 -0.1227
 1026THF    H1014475   4.981   2.915  -0.291  0.7211 -1.3951 -1.2426
 1026THF    H1114476   4.963   2.755  -0.231  0.5413 -0.6709  1.6955
 1026THF    H1214477   5.175   2.789  -0.123 -0.9049 -1.1175  0.3284
 1026THF    H1314478   5.165   2.962  -0.162 -1.5572  0.1712 -2.1188
 1027PF6-    P114479   4.278   4.762   3.362 -0.5033  0.2610 -0.5153
 1027PF6-    F214480   4.137   4.829   3.391 -0.3285  0.0729  0.3436
 1027PF6-    F314481   4.415   4.679   3.349  0.0180  0.7767  0.3764
 1027PF6-    F414482   4.232   4.719   3.218  0.4114 -0.5520 -0.1227
 1027PF6-    F514483   4.317   4.812   3.512  0.3674  0.4689  0.1090
 1027PF6-    F614484   4.212   4.634   3.431 -0.3623 -0.2133  0.2902
 1027PF6-    F714485   4.344   4.895   3.313 -0.2238  0.1531  0.1080
 1028PF6-    P114486   1.807   0.354   4.467 -0.0846 -0.3638  0.1743
 1028PF6-    F214487   1.851   0.205   4.508 -0.5492 -0.1328 -0.7739
 1028PF6-    F314488   1.768   0.503   4.419  0.3115 -0.1109 -0.1314
 1028PF6-    F414489   1.650   0.322   4.497  0.5957  0.6631  0.6301
 1028PF6-    F514490   1.964   0.389   4.438 -0.4613 -0.1876 -0.5775
 1028PF6-    F614491   1.784   0.300   4.317  0.2998 -0.1559  0.4675
 1028PF6-    F714492   1.818   0.408   4.615  0.2428  0.0880  0.2873
 1029PF6-    P114493   0.062   1.077   3.271  0.4939 -0.3564  0.1834
 1029PF6-    F214494   0.172   1.146   3.365  0.0671 -0.5823 -0.0822
 1029PF6-    F314495  -0.046   1.008   3.174  0.2313  0.2985  0.1068
 1029PF6-    F414496   0.159   1.101   3.140  0.5134  0.3614 -0.3098
 1029PF6-    F514497  -0.031   1.048   3.397  0.0738 -0.5322  0.1585
 1029PF6-    F614498  -0.002   1.221   3.252 -0.1900 -0.0310 -0.0179
 1029PF6-    F714499   0.136   0.936   3.301  0.2721  0.2026 -0.2235
 1030PF6-    P114500   5.208   0.890   0.405 -0.3377  0.0313 -0.2716
 1030PF6-    F214501   5.273   0.765   0.480  0.3189 -0.7337  0.1548
 1030PF6-    F314502   5.139   0.999   0.310  0.1934 -0.2933  0.2526
 1030PF6-    F414503   5.073   0.803   0.389 -0.7192 -0.0113  0.5485
 1030PF6-    F514504   5.340   0.981   0.422  0.7546  0.0171  0.0089
 1030PF6-    F614505   5.278   0.822   0.275 -0.5860 -0.1952  0.3485
 1030PF6-    F714506   5.141   0.951   0.542 -0.0095 -0.4759  0.5355
 1031PF6-    P114507   4.963   0.957   4.930  0.3906  0.1210 -0.3355
 1031PF6-    F214508   4.827   0.899   4.868  0.3275 -0.0697 -0.0031
 1031PF6-    F314509   5.099   1.016   4.991  0.5534  0.2057 -0.1296
 1031PF6-    F414510   5.020   0.970   4.783  0.0910  0.6527  0.0790
 1031PF6-    F514511   4.903   0.933   5.079  0.1375 -0.5244  0.2716
 1031PF6-    F614512   5.028   0.812   4.943 -0.3344 -0.0837  0.5791
 1031PF6-    F714513   4.893   1.102   4.926 -0.5086  0.1476  0.2801
 1032PF6-    P114514   1.180   1.802   3.099  0.1124  0.5399  0.0256
 1032PF6-    F214515   1.236   1.648   3.121  0.1582 -0.1000  0.3852
 1032PF6-    F314516   1.131   1.953   3.080  0.6121 -0.0072  0.4053
 1032PF6-    F414517   1.143   1.811   3.253  0.1946 -0.1188  0.2835
 1032PF6-    F514518   1.219   1.791   2.938 -0.5048  0.0083 -0.0035
 1032PF6-    F614519   1.032   1.750   3.066  0.0451  0.7288  0.4397
 1032PF6-    F714520   1.326   1.860   3.136  0.4186 -0.6264  0.4889
 1033PF6-    P114521   4.566   5.145   2.442  0.3831 -0.0881 -0.0171
 1033PF6-    F214522   4.518   5.253   2.327 -0.1801 -0.3244 -0.0575
 1033PF6-    F314523   4.612   5.041   2.555  0.0542  0.5393  0.3895
 1033PF6-    F414524   4.496   5.030   2.358 -0.3675 -0.3598 -0.0122
 1033PF6-    F514525   4.623   5.262   2.536  0.2610 -0.6331  0.1020
 1033PF6-    F614526   4.423   5.167   2.519  0.3728 -0.2728  0.0011
 1033PF6-    F714527   4.707   5.126   2.365 -0.1424 -0.1492 -0.3083
 1034PF6-    P114528   1.342   2.309   4.585 -0.0313 -0.1636  0.3376
 1034PF6-    F214529   1.258   2.174   4.562 -0.2314 -0.0936  0.1464
 1034PF6-    F314530   1.426   2.445   4.617  0.1807  0.3254  0.2225
 1034PF6-    F414531   1.441   2.269   4.466 -0.0601 -0.0249  0.2718
 1034PF6-    F514532   1.239   2.342   4.697  0.0348 -0.1986  0.3516
 1034PF6-    F614533   1.441   2.231   4.684 -0.3072 -0.1065  0.3373
 1034PF6-    F714534   1.250   2.392   4.481  0.4889  0.3239  0.4437
 1035PF6-    P114535   0.554   1.408   1.380  0.4476 -0.0574 -0.0763
 1035PF6-    F214536   0.700   1.473   1.361  0.1366  0.1578 -0.3901
 1035PF6-    F314537   0.406   1.348   1.402  0.1739  0.3167 -0.3330
 1035PF6-    F414538   0.547   1.388   1.221 -0.1301 -0.3972  0.4224
 1035PF6-    F514539   0.552   1.430   1.538 -0.2500  0.3170 -0.1032
 1035PF6-    F614540   0.493   1.556   1.356  0.1665 -0.2592 -0.0819
 1035PF6-    F714541   0.618   1.266   1.410  0.1903  0.6071 -0.1250
 1036PF6-    P114542   2.297   3.990   2.001 -0.4035  0.1825  0.4402
 1036PF6-    F214543   2.204   3.901   2.101  0.3498 -0.5835  0.5935
 1036PF6-    F314544   2.387   4.082   1.906  0.0432 -0.6887 -0.2209
 1036PF6-    F414545   2.182   4.003   1.891 -0.0131 -0.2386  0.5856
 1036PF6-    F514546   2.429   3.985   2.099  0.0966 -0.4691 -0.0825
 1036PF6-    F614547   2.357   3.857   1.926 -0.1661  0.4583  0.3309
 1036PF6-    F714548   2.239   4.118   2.071  0.1829  0.4257  0.2308
 1037PF6-    P114549   1.308   2.822   3.580 -0.3802 -0.3357  0.1825
 1037PF6-    F214550   1.195   2.938   3.581  0.2467 -0.3157  0.2771
 1037PF6-    F314551   1.416   2.703   3.580  1.0048  0.3325 -0.1699
 1037PF6-    F414552   1.225   2.735   3.474 -0.4534 -0.2991 -0.3363
 1037PF6-    F514553   1.398   2.904   3.688  0.2206  0.0042 -0.1179
 1037PF6-    F614554   1.227   2.749   3.707 -0.3800  0.0993  0.0571
 1037PF6-    F714555   1.378   2.899   3.459 -0.3904 -0.0839 -0.2314
 1038PF6-    P114556   1.063   1.141   2.383  0.1904 -0.0864 -0.2907
 1038PF6-    F214557   0.996   1.284   2.351  0.5357 -0.1782  0.2668
 1038PF6-    F314558   1.125   0.997   2.419  0.3659 -0.3235 -0.6582
 1038PF6-    F414559   1.124   1.137   2.242  0.1346  0.2875  0.0732
 1038PF6-    F514560   0.996   1.146   2.528  0.4740  0.2084  0.2863
 1038PF6-    F614561   0.933   1.073   2.332  0.2355 -0.0396  0.1634
 1038PF6-    F714562   1.196   1.208   2.440  0.0806 -0.6150  1.3129
 1039PF6-    P114563   5.284   4.265   4.333  0.3929  0.0428 -0.1221
 1039PF6-    F214564   5.361   4.299   4.199  0.4007 -0.2710 -0.1516
 1039PF6-    F314565   5.200   4.241   4.465  0.1579 -0.7046 -0.2053
 1039PF6-    F414566   5.169   4.196   4.246 -0.3710 -0.2918  0.0747
 1039PF6-    F514567   5.398   4.345   4.414 -0.2263  0.0480  0.1716
 1039PF6-    F614568   5.204   4.402   4.316  0.0797 -0.5542  0.1261
 1039PF6-    F714569   5.371   4.124   4.357  0.2170  0.2033 -0.0170
 1040PF6-    P114570   0.859   5.336   3.516  0.0025 -0.1492  0.1960
 1040PF6-    F214571   0.900   5.462   3.601 -0.5799 -0.3830  0.4411
 1040PF6-    F314572   0.823   5.210   3.417 -0.4066 -0.4388  0.2043
 1040PF6-    F414573   0.962   5.249   3.609 -0.0637 -0.4161  0.6541
 1040PF6-    F514574   0.748   5.422   3.441 -0.3369 -0.4425  0.1748
 1040PF6-    F614575   0.969   5.374   3.410 -0.6304  0.7554  0.3965
 1040PF6-    F714576   0.746   5.298   3.621  0.2797 -0.2823 -0.4744
 1041PF6-    P114577   4.449   3.134   3.689 -0.0054  0.1047 -0.2514
 1041PF6-    F214578   4.455   3.083   3.842 -0.0047  0.5692 -0.2394
 1041PF6-    F314579   4.447   3.182   3.541  0.1624 -0.1039 -0.4845
 1041PF6-    F414580   4.475   2.980   3.643  0.3899 -0.2383 -0.3530
 1041PF6-    F514581   4.412   3.283   3.731 -0.8513  0.5645  0.3090
 1041PF6-    F614582   4.605   3.159   3.698  0.1479 -0.2862 -0.5291
 1041PF6-    F714583   4.296   3.108   3.678 -0.0624 -0.1969 -0.1693
 1042PF6-    P114584   4.361   4.479   3.858  0.3852  0.0764 -0.3132
 1042PF6-    F214585   4.478   4.362   3.847  0.1750 -0.0907  0.6475
 1042PF6-    F314586   4.251   4.593   3.860 -0.3834  0.3543 -0.3098
 1042PF6-    F414587   4.347   4.454   4.014 -0.3321 -0.4318 -0.1479
 1042PF6-    F514588   4.373   4.498   3.699  0.0367  0.1276  0.2817
 1042PF6-    F614589   4.251   4.367   3.828  0.1839 -0.3389 -0.0122
 1042PF6-    F714590   4.471   4.585   3.885 -0.6862 -0.1034  0.4400
 1043PF6-    P114591   2.050   2.186   0.597 -1.0281  0.2104  0.4029
 1043PF6-    F214592   2.199   2.201   0.531  0.5312 -0.2356 -0.2760
 1043PF6-    F314593   1.912   2.170   0.665 -0.2989  0.0866 -0.3252
 1043PF6-    F414594   2.025   2.341   0.583 -0.2920  0.7412 -1.0754
 1043PF6-    F514595   2.081   2.025   0.605 -0.0339 -0.5476 -0.2372
 1043PF6-    F614596   2.114   2.208   0.736 -0.3491 -0.2617 -0.3804
 1043PF6-    F714597   1.987   2.161   0.453  0.4567 -0.3425  0.5224
 1044PF6-    P114598   0.044   2.440   3.773 -0.2915 -0.0137  0.5049
 1044PF6-    F214599   0.012   2.594   3.812  0.3242  0.3455  0.2757
 1044PF6-    F314600   0.076   2.289   3.729  0.1268 -0.1201 -0.6058
 1044PF6-    F414601   0.044   2.399   3.930 -0.3685  0.1257  0.3774
 1044PF6-    F514602   0.042   2.486   3.616  0.4167  0.0175  0.1159
 1044PF6-    F614603   0.203   2.471   3.784 -0.4646 -0.4657 -0.3273
 1044PF6-    F714604  -0.108   2.406   3.762 -0.1895 -0.7733  0.3303
 1045PF6-    P114605   4.701   2.197   4.374  0.1129 -0.1644 -0.0861
 1045PF6-    F214606   4.594   2.285   4.453 -0.1210 -0.0285  0.1259
 1045PF6-    F314607   4.816   2.113   4.298  0.3802 -0.5993  0.0347
 1045PF6-    F414608   4.734   2.324   4.277  0.0519  0.0426 -0.2776
 1045PF6-    F514609   4.659   2.072   4.465 -0.0551 -0.0329 -0.2439
 1045PF6-    F614610   4.592   2.150   4.265  0.0008  0.2910 -0.6521
 1045PF6-    F714611   4.814   2.243   4.484 -0.4500 -0.0506 -0.1493
 1046PF6-    P114612   1.274   4.562   2.154 -0.6701 -0.0772  0.0659
 1046PF6-    F214613   1.189   4.428   2.166  0.3971 -0.2087 -0.0953
 1046PF6-    F314614   1.352   4.699   2.134  0.2990 -0.4268  0.3860
 1046PF6-    F414615   1.378   4.485   2.062 -0.4576  0.3771  0.0618
 1046PF6-    F514616   1.176   4.642   2.252  0.0602  0.8502  0.4755
 1046PF6-    F614617   1.367   4.524   2.279  0.5221 -0.0911  0.2625
 1046PF6-    F714618   1.187   4.597   2.025  0.0302  0.2750  0.4155
 1047PF6-    P114619   5.115   0.318   1.885 -0.1579 -0.0165 -0.2058
 1047PF6-    F214620   4.958   0.324   1.857 -0.5927  0.1804 -0.3946
 1047PF6-    F314621   5.273   0.308   1.922 -0.0159 -0.3995 -0.3255
 1047PF6-    F414622   5.091   0.432   1.993 -0.0071 -0.2354  0.1402
 1047PF6-    F514623   5.126   0.198   1.787  0.3446  0.2434 -0.0867
 1047PF6-    F614624   5.155   0.429   1.774  0.0387 -0.3668  0.0324
 1047PF6-    F714625   5.084   0.214   2.003  0.3046 -0.0529  0.4299
 1048PF6-    P114626   1.964   1.224   4.000  0.1252  0.0521 -0.6608
 1048PF6-    F214627   1.968   1.369   3.939 -0.2568  0.4232  0.2080
 1048PF6-    F314628   1.962   1.072   4.057  0.3338  0.0553  0.0025
 1048PF6-    F414629   1.894   1.272   4.141  0.1845 -0.5395 -0.2640
 1048PF6-    F514630   2.023   1.165   3.862 -0.0677  0.3869  0.2067
 1048PF6-    F614631   2.107   1.244   4.062  0.4155  0.2710  0.2241
 1048PF6-    F714632   1.817   1.196   3.936 -0.3237  0.1587  0.2387
 1049PF6-    P114633   3.755   0.738   3.589 -0.7173  0.1933 -0.1241
 1049PF6-    F214634   3.870   0.818   3.674  0.2567  0.4005  0.0998
 1049PF6-    F314635   3.643   0.667   3.499 -0.2423  0.0233  0.5505
 1049PF6-    F414636   3.865   0.715   3.476  0.0173 -0.5277  0.1591
 1049PF6-    F514637   3.652   0.765   3.706 -0.3015 -0.0561  0.2408
 1049PF6-    F614638   3.715   0.875   3.514 -0.3747 -0.7161 -0.4421
 1049PF6-    F714639   3.790   0.599   3.663  0.4122 -0.4466  0.4542
 1050PF6-    P114640   3.539   1.345   2.156 -0.4905 -0.4265  0.1742
 1050PF6-    F214641   3.459   1.220   2.214 -0.8330  0.2580  0.3191
 1050PF6-    F314642   3.615   1.474   2.094 -0.1977  0.3244  0.5881
 1050PF6-    F414643   3.398   1.412   2.127  0.1914 -0.3712 -0.5453
 1050PF6-    F514644   3.678   1.273   2.183  0.3602 -0.8292 -0.7402
 1050PF6-    F614645   3.525   1.284   2.005  0.0599  0.5407 -0.2285
 1050PF6-    F714646   3.546   1.406   2.301  0.3740 -0.8066 -0.6438
 1051PF6-    P114647   5.018   3.784   4.155 -0.1616  0.2399 -0.0044
 1051PF6-    F214648   5.140   3.688   4.147  0.2993 -0.1949 -0.4566
 1051PF6-    F314649   4.886   3.877   4.166  0.4191  0.3515  0.0573
 1051PF6-    F414650   5.073   3.860   4.021  0.2694 -0.1418  0.2436
 1051PF6-    F514651   4.972   3.702   4.285 -0.2824  0.3594  0.3197
 1051PF6-    F614652   5.101   3.885   4.244 -0.1033  0.2669 -0.6806
 1051PF6-    F714653   4.935   3.685   4.059  0.5320  0.4457  0.0050
 1052PF6-    P114654   0.633   4.061   5.417  0.1509 -0.0384 -0.1742
 1052PF6-    F214655   0.708   4.017   5.553  0.2688  0.2480 -0.7595
 1052PF6-    F314656   0.556   4.097   5.278 -0.0159 -0.2552  0.1636
 1052PF6-    F414657   0.565   3.918   5.413 -0.2208  0.2916  0.1552
 1052PF6-    F514658   0.701   4.204   5.423 -0.1191 -0.5873  0.0218
 1052PF6-    F614659   0.757   4.000   5.334  0.3899  0.1765  0.3977
 1052PF6-    F714660   0.503   4.109   5.503  0.3917  0.1380 -0.0394
 1053PF6-    P114661   3.765   3.978   2.843 -0.1102  0.1447  0.1609
 1053PF6-    F214662   3.827   3.845   2.913 -0.5435 -0.2843  0.1017
 1053PF6-    F314663   3.704   4.108   2.768 -0.2527  0.3383  0.0114
 1053PF6-    F414664   3.698   3.888   2.734 -0.6326  0.0760  0.4978
 1053PF6-    F514665   3.822   4.068   2.963 -0.5058 -0.0922  0.1665
 1053PF6-    F614666   3.903   3.996   2.765  0.1888 -0.2947  0.7373
 1053PF6-    F714667   3.632   3.962   2.923 -0.3832 -0.0400  0.1603
 1054PF6-    P114668   3.332   4.372   3.647  0.3598  0.1422  0.4425
 1054PF6-    F214669   3.375   4.270   3.766 -0.0493 -0.4896 -0.1404
 1054PF6-    F314670   3.283   4.469   3.525 -0.2740  0.0747 -0.5267
 1054PF6-    F414671   3.293   4.486   3.752  0.2753 -0.1732 -0.5730
 1054PF6-    F514672   3.380   4.264   3.540  0.1816  0.0692 -0.3648
 1054PF6-    F614673   3.186   4.309   3.651  0.5148 -0.2755  0.3213
 1054PF6-    F714674   3.475   4.432   3.640 -0.2675 -0.0574  0.0115
 1055PF6-    P114675   2.772   2.480   0.871  0.0034  0.2451  0.1904
 1055PF6-    F214676   2.630   2.558   0.880  0.8324  0.3709 -0.2406
 1055PF6-    F314677   2.908   2.395   0.864  0.5188 -0.0515  0.4372
 1055PF6-    F414678   2.799   2.552   0.729 -0.0035  0.2719  0.4412
 1055PF6-    F514679   2.734   2.412   1.016  0.5064 -0.1055  0.1916
 1055PF6-    F614680   2.695   2.364   0.781  0.3813 -0.0426 -0.4155
 1055PF6-    F714681   2.851   2.587   0.953 -0.2450 -0.6528 -0.1092
 1056PF6-    P114682   3.955   3.154   4.676  0.1229 -0.4305  0.3919
 1056PF6-    F214683   4.099   3.091   4.631 -0.1150 -0.1780  0.0940
 1056PF6-    F314684   3.814   3.219   4.720  0.1287  0.4459 -0.6268
 1056PF6-    F414685   3.901   3.143   4.525  0.0400  0.0518 -0.0034
 1056PF6-    F514686   4.006   3.165   4.828  0.1952 -0.2334 -0.2186
 1056PF6-    F614687   4.010   3.305   4.657 -0.5747 -0.2424 -0.2943
 1056PF6-    F714688   3.898   3.012   4.699 -0.2705  0.0265  0.6529
 1057PF6-    P114689   2.948   4.585   1.193 -0.6546 -0.2973 -0.0968
 1057PF6-    F214690   3.073   4.539   1.103  0.1360 -0.2922  0.2148
 1057PF6-    F314691   2.826   4.622   1.288  0.1235 -0.0415 -0.4656
 1057PF6-    F414692   2.997   4.474   1.302  0.1318  0.4193  0.5736
 1057PF6-    F514693   2.905   4.693   1.082  0.5834 -0.4278 -0.0050
 1057PF6-    F614694   2.848   4.476   1.120 -0.0866 -0.3361  0.0689
 1057PF6-    F714695   3.036   4.695   1.270  0.1591  0.1301 -0.1641
 1058PF6-    P114696   2.801   0.986   1.531 -0.0929 -0.0963 -0.1405
 1058PF6-    F214697   2.824   1.026   1.376  0.4423  0.2081 -0.9544
 1058PF6-    F314698   2.777   0.952   1.692  0.2524  0.1534 -0.2358
 1058PF6-    F414699   2.638   0.995   1.512  0.2979  0.1900 -0.0590
 1058PF6-    F514700   2.956   0.976   1.551  0.7323  0.6249 -0.2121
 1058PF6-    F614701   2.806   1.145   1.571  0.6327 -0.2456  0.2493
 1058PF6-    F714702   2.798   0.833   1.490 -0.1062  0.3009 -0.3956
 1059PF6-    P114703   2.104   3.779   1.063  0.3383 -0.6545 -0.1124
 1059PF6-    F214704   2.235   3.785   1.148  0.2393  0.3731  0.1552
 1059PF6-    F314705   1.971   3.781   0.980  0.0512 -0.4131 -0.1457
 1059PF6-    F414706   2.158   3.895   0.970 -0.1666 -0.3233 -0.0712
 1059PF6-    F514707   2.055   3.655   1.157  0.2407 -0.5457 -0.3251
 1059PF6-    F614708   2.041   3.886   1.162  0.3182 -0.1012 -0.2808
 1059PF6-    F714709   2.171   3.673   0.956  0.0327  0.5352  0.5192
 1060PF6-    P114710   3.950   5.461   2.575  0.4295  0.4205 -0.2171
 1060PF6-    F214711   3.830   5.434   2.470  0.6353 -0.1095  0.2652
 1060PF6-    F314712   4.081   5.479   2.661  0.2452 -0.1803  0.2307
 1060PF6-    F414713   4.023   5.344   2.495  0.1382  0.4011  0.4721
 1060PF6-    F514714   3.867   5.575   2.653 -0.2730  0.1104 -0.1289
 1060PF6-    F614715   3.888   5.355   2.685 -0.2767  0.2231  0.8643
 1060PF6-    F714716   4.011   5.569   2.473  0.3804  0.0071  0.6970
 1061PF6-    P114717   1.830   0.484   2.229  0.1458 -0.0325 -0.0792
 1061PF6-    F214718   1.820   0.354   2.328 -0.4477 -0.8840 -0.2470
 1061PF6-    F314719   1.837   0.608   2.132  0.2685 -0.2291  0.2342
 1061PF6-    F414720   1.914   0.398   2.127 -0.0703 -0.1410  0.5972
 1061PF6-    F514721   1.741   0.572   2.326  0.1688 -0.5453 -0.1562
 1061PF6-    F614722   1.962   0.534   2.299  0.4770  0.2707  0.5100
 1061PF6-    F714723   1.693   0.435   2.158 -0.2014  0.2983  0.0197
 1062PF6-    P114724   1.566   3.359   5.500  0.1767  0.1517  0.2415
 1062PF6-    F214725   1.722   3.307   5.517  0.1489 -0.1263 -0.6288
 1062PF6-    F314726   1.416   3.412   5.473 -0.2523  0.1769 -0.1815
 1062PF6-    F414727   1.608   3.506   5.548  0.9494  0.3793  0.3188
 1062PF6-    F514728   1.521   3.215   5.451  0.2314  0.4581 -0.8165
 1062PF6-    F614729   1.532   3.324   5.653  0.4325 -0.1521 -0.0840
 1062PF6-    F714730   1.601   3.391   5.347  0.2163  0.2224 -0.1169
 1063PF6-    P114731   0.737   2.373   2.221 -0.3140 -0.2489  0.1249
 1063PF6-    F214732   0.830   2.478   2.304  0.0824 -0.1459  0.1915
 1063PF6-    F314733   0.646   2.268   2.143 -0.1364  0.1557  0.7073
 1063PF6-    F414734   0.612   2.429   2.307 -0.6407  0.0836 -0.4387
 1063PF6-    F514735   0.863   2.316   2.147 -0.2609  0.5218  0.2387
 1063PF6-    F614736   0.765   2.264   2.339  0.2244  0.1385  0.1096
 1063PF6-    F714737   0.716   2.484   2.103  0.2189  0.4009  0.6375
 1064PF6-    P114738   3.859   1.919   1.314 -0.0315  0.1271  0.4486
 1064PF6-    F214739   3.965   1.953   1.194  0.2073 -0.1434 -0.4661
 1064PF6-    F314740   3.769   1.877   1.434 -0.1277 -0.4516  0.3222
 1064PF6-    F414741   3.964   1.981   1.417 -0.2566  0.3292 -0.2953
 1064PF6-    F514742   3.760   1.848   1.212  0.5894  0.0012  0.2685
 1064PF6-    F614743   3.937   1.775   1.327 -0.0312  0.4735  0.9222
 1064PF6-    F714744   3.782   2.066   1.299 -0.5245  0.4952  0.1193
 1065PF6-    P114745   1.519   1.602   1.222 -0.4549 -0.5608  0.5487
 1065PF6-    F214746   1.373   1.574   1.271 -0.4892 -0.2406 -0.3852
 1065PF6-    F314747   1.671   1.621   1.169 -0.5556 -0.0167  0.1658
 1065PF6-    F414748   1.469   1.722   1.124  0.2128 -0.0709 -0.6608
 1065PF6-    F514749   1.575   1.483   1.314 -0.6953  0.1827 -0.1294
 1065PF6-    F614750   1.500   1.506   1.101 -0.6570  0.2910 -0.4461
 1065PF6-    F714751   1.539   1.707   1.348  0.2403  0.0285  0.6507
 1066PF6-    P114752   4.112   2.251   4.136 -0.4218 -0.1015 -0.6327
 1066PF6-    F214753   4.170   2.110   4.200 -0.2678  0.2593  0.3425
 1066PF6-    F314754   4.050   2.385   4.070 -0.5515  0.4192  0.3996
 1066PF6-    F414755   4.023   2.165   4.036 -0.9561  0.2206  0.2233
 1066PF6-    F514756   4.205   2.331   4.243 -0.0020 -0.1007  0.2596
 1066PF6-    F614757   4.237   2.254   4.037  0.3165  0.0975  0.2639
 1066PF6-    F714758   3.989   2.236   4.244  0.4106  0.0892  0.3187
 1067PF6-    P114759   3.313   3.784   4.538 -0.2409 -0.1417  0.0166
 1067PF6-    F214760   3.197   3.830   4.442 -0.0336  0.1768  0.8330
 1067PF6-    F314761   3.443   3.753   4.635 -0.1367  0.3191 -0.1439
 1067PF6-    F414762   3.313   3.932   4.599 -0.0250  0.6139 -0.0411
 1067PF6-    F514763   3.308   3.633   4.484  0.2973  0.0390 -0.0083
 1067PF6-    F614764   3.410   3.828   4.422 -0.4493 -0.5001 -0.1924
 1067PF6-    F714765   3.209   3.740   4.657  0.1367  0.0536  0.4695
 1068PF6-    P114766   2.705   3.386   0.841  0.3821 -0.0898  0.0619
 1068PF6-    F214767   2.763   3.298   0.958 -0.3620 -0.1275  0.2867
 1068PF6-    F314768   2.644   3.475   0.723 -0.3596 -0.2116 -0.7152
 1068PF6-    F414769   2.550   3.369   0.894 -0.0117 -0.0745  0.0246
 1068PF6-    F514770   2.851   3.410   0.777 -0.3974  0.5262  0.5123
 1068PF6-    F614771   2.685   3.253   0.753 -0.3427  0.2501 -0.1604
 1068PF6-    F714772   2.712   3.513   0.938  0.0371  0.5763 -0.0572
 1069PF6-    P114773   1.086   1.772   4.932 -0.1021  0.0809 -0.2688
 1069PF6-    F214774   1.002   1.638   4.886  0.1745  0.2580 -0.0354
 1069PF6-    F314775   1.175   1.902   4.976  0.2795 -0.2968  0.2966
 1069PF6-    F414776   1.220   1.700   4.895  0.2463 -0.3030  0.3043
 1069PF6-    F514777   0.946   1.853   4.967 -0.1223  0.2001 -0.0135
 1069PF6-    F614778   1.094   1.708   5.074 -0.7833 -0.4077  0.0449
 1069PF6-    F714779   1.079   1.831   4.787 -0.7256  0.1057 -0.4833
 1070PF6-    P114780   3.213   1.235   2.953 -0.0566  0.3681 -0.0669
 1070PF6-    F214781   3.255   1.136   2.834  0.0498 -0.4799  0.8569
 1070PF6-    F314782   3.170   1.331   3.073 -0.1379  0.1088 -0.2023
 1070PF6-    F414783   3.296   1.353   2.895  0.6689 -0.2419  0.1129
 1070PF6-    F514784   3.130   1.116   3.024 -0.5295 -0.3313 -0.1013
 1070PF6-    F614785   3.344   1.190   3.034  0.0603 -0.2146  0.5328
 1070PF6-    F714786   3.080   1.282   2.873  0.1463  0.2224 -0.6169
 1071PF6-    P114787   0.673   1.518   0.710 -0.0158 -0.3852 -0.1459
 1071PF6-    F214788   0.801   1.461   0.792  0.0868  0.1162 -0.3339
 1071PF6-    F314789   0.542   1.576   0.640  0.1842 -0.2041  0.1632
 1071PF6-    F414790   0.579   1.432   0.816 -0.5630  0.8869 -0.2454
 1071PF6-    F514791   0.764   1.595   0.609 -0.5713 -0.4578 -0.3247
 1071PF6-    F614792   0.675   1.389   0.617 -0.0112  0.4029 -0.2446
 1071PF6-    F714793   0.671   1.641   0.814  0.1411  0.2618 -0.5770
 1072PF6-    P114794   0.124   1.693   2.883  0.1471 -0.2716 -0.0791
 1072PF6-    F214795  -0.012   1.659   2.806 -0.4610 -0.4945  0.3644
 1072PF6-    F314796   0.256   1.729   2.962 -0.0044 -0.3745  0.4558
 1072PF6-    F414797   0.140   1.543   2.940 -0.1356  0.0292  0.1384
 1072PF6-    F514798   0.127   1.841   2.826  0.1809  0.2347  0.3586
 1072PF6-    F614799   0.039   1.747   3.010 -0.3581  0.2032  0.0014
 1072PF6-    F714800   0.210   1.633   2.753 -0.2478  0.8266  0.7190
 1073PF6-    P114801   1.044   3.362   2.267  0.0370  0.3281  0.1422
 1073PF6-    F214802   1.164   3.304   2.357  0.0285  0.5724 -0.0718
 1073PF6-    F314803   0.932   3.426   2.171  0.2456  0.1597 -0.1721
 1073PF6-    F414804   1.137   3.326   2.135 -0.2952  0.8406  0.2005
 1073PF6-    F514805   0.960   3.394   2.395  0.1358 -0.3502  0.0232
 1073PF6-    F614806   1.116   3.502   2.278  0.5061 -0.3109 -0.2952
 1073PF6-    F714807   0.977   3.213   2.252  0.0513  0.3415  0.3116
 1074PF6-    P114808   3.051   1.516   1.548 -0.1319 -0.0576 -0.2390
 1074PF6-    F214809   2.894   1.551   1.523  0.2684  0.3696  0.1495
 1074PF6-    F314810   3.200   1.477   1.575 -0.9323  0.1367 -0.4093
 1074PF6-    F414811   3.090   1.576   1.403 -0.6686  0.0819 -0.1013
 1074PF6-    F514812   3.012   1.463   1.697 -0.5546 -0.1209 -0.0675
 1074PF6-    F614813   3.026   1.369   1.488  0.6808 -0.5305  0.3123
 1074PF6-    F714814   3.086   1.653   1.612  0.0548  0.0578 -0.5974
 1075PF6-    P114815   4.647   0.884   3.989 -0.1099  0.2414  0.1314
 1075PF6-    F214816   4.613   1.031   4.023  0.5435  0.0721 -0.3706
 1075PF6-    F314817   4.682   0.734   3.954 -0.2165  0.1514  0.7123
 1075PF6-    F414818   4.602   0.842   4.136 -0.4861  0.7726  0.5400
 1075PF6-    F514819   4.704   0.926   3.847 -0.2520 -0.1796 -0.7115
 1075PF6-    F614820   4.799   0.907   4.049 -0.1065 -0.4824  0.2379
 1075PF6-    F714821   4.507   0.860   3.927 -0.3881  0.5210  0.1827
 1076PF6-    P114822   2.112   3.272   0.926  0.0427 -0.2188 -0.4428
 1076PF6-    F214823   2.183   3.396   0.856 -0.1243 -0.6135 -0.4620
 1076PF6-    F314824   2.037   3.150   1.001 -0.0930  0.1605 -0.0872
 1076PF6-    F414825   2.102   3.204   0.782 -0.0378  0.5862  0.0784
 1076PF6-    F514826   2.133   3.351   1.065  0.0149 -0.5728 -0.0267
 1076PF6-    F614827   1.975   3.346   0.902  0.0985  0.1904  0.0082
 1076PF6-    F714828   2.251   3.200   0.956  0.0656 -0.1743  0.1895
 1077PF6-    P114829   5.181   0.221   4.565 -0.4539  0.1135  0.2259
 1077PF6-    F214830   5.287   0.325   4.517  1.0511 -0.2989 -0.5401
 1077PF6-    F314831   5.082   0.115   4.622 -0.0156  0.1872 -0.3774
 1077PF6-    F414832   5.224   0.247   4.716  0.3214 -0.1934 -0.3571
 1077PF6-    F514833   5.132   0.185   4.411 -0.3507 -0.1398 -0.0069
 1077PF6-    F614834   5.295   0.108   4.555 -0.3696 -0.2227  0.0265
 1077PF6-    F714835   5.072   0.337   4.578 -0.4674 -0.4703  0.3731
 1078PF6-    P114836   4.160   1.419   4.525  0.2289 -0.6031 -0.4690
 1078PF6-    F214837   4.316   1.390   4.495  0.4156 -0.1792  0.1781
 1078PF6-    F314838   4.006   1.442   4.558  0.0322 -0.2927  0.2165
 1078PF6-    F414839   4.162   1.317   4.648 -0.1130 -0.5740  0.2500
 1078PF6-    F514840   4.145   1.515   4.407 -0.1905 -0.2040 -0.8140
 1078PF6-    F614841   4.113   1.299   4.424 -0.4954  0.0514  0.1463
 1078PF6-    F714842   4.199   1.544   4.619  0.7233 -0.2858  0.1246
 1079PF6-    P114843   0.922   5.482   4.669  0.0345  0.0069  0.0538
 1079PF6-    F214844   1.005   5.514   4.538  0.0472 -0.0422 -0.1108
 1079PF6-    F314845   0.835   5.457   4.800 -0.2413 -0.2763  0.0403
 1079PF6-    F414846   0.827   5.609   4.623 -0.4946  0.1103 -0.2248
 1079PF6-    F514847   1.017   5.359   4.708  0.5207 -0.5285 -0.1776
 1079PF6-    F614848   1.023   5.578   4.752  0.0744  0.6084  0.4670
 1079PF6-    F714849   0.824   5.387   4.585  0.1917  0.7795  0.1736
 1080PF6-    P114850   1.024   3.427   1.222  0.1816  0.0648  0.3122
 1080PF6-    F214851   1.016   3.422   1.066  0.0093 -0.3355 -0.3607
 1080PF6-    F314852   1.031   3.436   1.382 -0.0588  0.0321  0.6421
 1080PF6-    F414853   0.970   3.579   1.223  0.1768  0.3139  0.2141
 1080PF6-    F514854   1.083   3.276   1.224 -0.2089 -0.3759  0.0113
 1080PF6-    F614855   1.175   3.492   1.216 -0.2861 -0.5516  0.3772
 1080PF6-    F714856   0.870   3.370   1.240  0.1339  0.3193  0.2473
 1081PF6-    P114857   5.343   5.221   0.768  0.1645 -0.0663 -0.3781
 1081PF6-    F214858   5.331   5.307   0.906  0.0375  0.2048  0.5475
 1081PF6-    F314859   5.359   5.129   0.638 -0.0144 -0.1761  0.1146
 1081PF6-    F414860   5.194   5.174   0.773 -0.0249  0.0101  0.1915
 1081PF6-    F514861   5.504   5.267   0.758  0.5784 -0.2790 -0.0852
 1081PF6-    F614862   5.387   5.090   0.851 -0.1457 -0.3190 -0.1095
 1081PF6-    F714863   5.305   5.353   0.679  0.6028 -0.4052  0.6270
 1082PF6-    P114864   2.414   3.534   4.170 -0.2805  0.2906 -0.2399
 1082PF6-    F214865   2.505   3.653   4.116 -0.0032  0.1703  0.8805
 1082PF6-    F314866   2.314   3.428   4.231  0.4662  0.1937 -0.3752
 1082PF6-    F414867   2.375   3.499   4.020 -0.6714 -0.3541 -0.4587
 1082PF6-    F514868   2.458   3.573   4.316 -0.2139 -0.1272 -0.1040
 1082PF6-    F614869   2.288   3.633   4.180 -0.4835 -0.7720 -0.5961
 1082PF6-    F714870   2.532   3.427   4.164 -0.0151 -0.1227  0.3647
 1083PF6-    P114871   3.764   4.930   1.897  0.1248  0.0052  0.3507
 1083PF6-    F214872   3.646   5.038   1.887 -0.4993  0.2174 -0.4868
 1083PF6-    F314873   3.883   4.820   1.886 -0.2707  0.5116 -0.3610
 1083PF6-    F414874   3.859   5.033   1.977  0.2073 -0.5843 -0.2074
 1083PF6-    F514875   3.668   4.823   1.817 -0.0535  0.3094 -0.4167
 1083PF6-    F614876   3.820   4.990   1.759  0.3446 -0.0475 -0.0114
 1083PF6-    F714877   3.703   4.876   2.031 -0.7130  0.4442 -0.0802
 1084PF6-    P114878   2.477   2.213   1.728  0.2275 -0.0431 -0.0053
 1084PF6-    F214879   2.515   2.239   1.880 -0.6822 -0.0503 -0.1381
 1084PF6-    F314880   2.439   2.190   1.570  0.2785 -0.2721  0.2867
 1084PF6-    F414881   2.634   2.241   1.685  0.3296  0.2183  0.0341
 1084PF6-    F514882   2.333   2.187   1.767  0.3955 -0.2608  0.1618
 1084PF6-    F614883   2.447   2.364   1.712 -0.7768 -0.4877  0.5251
 1084PF6-    F714884   2.508   2.055   1.744 -0.4617  0.1624 -0.3217
 1085PF6-    P114885   3.746   4.869   3.973 -0.0849 -0.4204 -0.0404
 1085PF6-    F214886   3.742   4.892   4.131 -0.0769  0.4766  0.1154
 1085PF6-    F314887   3.734   4.852   3.812  0.1398 -0.0816 -0.5013
 1085PF6-    F414888   3.909   4.889   3.966 -0.2787 -0.0567 -0.0266
 1085PF6-    F514889   3.590   4.845   3.974 -0.1206 -0.1036  0.1128
 1085PF6-    F614890   3.724   5.027   3.948  0.3223  0.0032 -0.1227
 1085PF6-    F714891   3.769   4.712   3.995 -0.3455 -0.0937  0.0723
 1086PF6-    P114892   2.298   5.156   3.981  0.1119  0.4704  0.5790
 1086PF6-    F214893   2.332   5.090   3.838  0.0211 -0.3436  0.2144
 1086PF6-    F314894   2.258   5.215   4.120 -0.1491 -0.3867  0.4006
 1086PF6-    F414895   2.352   5.016   4.049  0.0619 -0.5688  0.8302
 1086PF6-    F514896   2.256   5.292   3.910 -0.3306  0.0048  0.2835
 1086PF6-    F614897   2.151   5.096   3.966 -0.0393 -0.6322  0.3973
 1086PF6-    F714898   2.449   5.213   3.991  0.3032 -0.2233 -0.7713
 1087PF6-    P114899   2.130   3.596   3.001 -0.0703 -0.1487 -0.0874
 1087PF6-    F214900   2.264   3.676   2.971  0.0569  0.3040  0.5998
 1087PF6-    F314901   1.989   3.521   3.033 -0.1011 -0.8220 -0.0590
 1087PF6-    F414902   2.060   3.729   3.052 -0.0815  1.0506  0.5765
 1087PF6-    F514903   2.198   3.461   2.945 -0.0989  0.3922 -0.1240
 1087PF6-    F614904   2.181   3.572   3.151 -0.0139  0.2999 -0.4272
 1087PF6-    F714905   2.075   3.627   2.853 -1.0533  0.6468  0.2724
 1088PF6-    P114906   3.930   1.369   0.453 -0.2620 -0.0317 -0.0439
 1088PF6-    F214907   3.949   1.507   0.378 -0.3012 -0.6113 -0.3925
 1088PF6-    F314908   3.920   1.233   0.532  0.2477 -0.1206 -0.5720
 1088PF6-    F414909   4.022   1.423   0.571  0.0120  0.0614 -0.1723
 1088PF6-    F514910   3.832   1.312   0.340 -0.2838  0.1411  0.4492
 1088PF6-    F614911   4.056   1.314   0.381 -0.4865  0.6999  0.0828
 1088PF6-    F714912   3.798   1.429   0.525  0.1938 -0.1044 -0.2181
 1089PF6-    P114913   3.139   0.949   5.126 -0.2962  0.3222 -0.1650
 1089PF6-    F214914   3.221   0.971   5.266  0.2085  0.4885 -0.2503
 1089PF6-    F314915   3.055   0.931   4.991  0.2564  0.4004 -0.1799
 1089PF6-    F414916   3.155   0.791   5.141 -0.1348  0.2482  0.4519
 1089PF6-    F514917   3.125   1.111   5.112 -0.5929  0.5155 -0.1290
 1089PF6-    F614918   3.275   0.955   5.048 -0.5467  0.0846  0.4862
 1089PF6-    F714919   2.996   0.936   5.205 -0.0314 -0.5461 -0.5563
 1090PF6-    P114920   4.640   2.137   3.329  0.1502  0.3272 -0.1779
 1090PF6-    F214921   4.593   2.036   3.216 -0.2896  0.1691 -0.1727
 1090PF6-    F314922   4.688   2.241   3.443 -0.1229 -0.0769 -0.4343
 1090PF6-    F414923   4.784   2.092   3.306  0.2193  0.7466 -0.4322
 1090PF6-    F514924   4.487   2.181   3.354  0.0955  0.0979  0.3816
 1090PF6-    F614925   4.623   2.019   3.438 -0.5859 -0.1019 -0.1197
 1090PF6-    F714926   4.659   2.251   3.219  0.0956 -0.3765  0.1023
 1091PF6-    P114927   0.352   0.160   2.719  0.0338  0.4627 -0.3817
 1091PF6-    F214928   0.324   0.162   2.876  0.1582  0.3148  0.4671
 1091PF6-    F314929   0.376   0.166   2.566  0.0187 -0.1549 -0.0373
 1091PF6-    F414930   0.387   0.002   2.726  0.4633 -0.4102 -0.7357
 1091PF6-    F514931   0.309   0.320   2.718 -0.6185  0.3012  0.4801
 1091PF6-    F614932   0.502   0.194   2.745 -0.1500  0.0309  0.0397
 1091PF6-    F714933   0.196   0.128   2.695 -0.3125  0.0687 -0.4729
 1092PF6-    P114934   4.244   0.102   3.173 -0.3240  0.0133 -0.0062
 1092PF6-    F214935   4.100   0.073   3.109 -0.2807  0.1833 -0.3260
 1092PF6-    F314936   4.382   0.127   3.255 -0.5718  0.3678 -0.2590
 1092PF6-    F414937   4.268   0.227   3.081  0.4562  0.1494 -0.0270
 1092PF6-    F514938   4.222  -0.029   3.260 -0.1145  0.3521  0.3320
 1092PF6-    F614939   4.316   0.015   3.061  0.1400 -0.0066  0.3684
 1092PF6-    F714940   4.168   0.192   3.279  0.3548 -0.2228  0.3108
 1093PF6-    P114941   0.164   1.840   5.114  0.1000  0.1012  0.0111
 1093PF6-    F214942   0.013   1.867   5.074 -0.4103 -0.2281 -0.1022
 1093PF6-    F314943   0.320   1.820   5.155 -0.3407  0.4818 -0.4359
 1093PF6-    F414944   0.189   1.758   4.981  0.2743 -0.0031  0.0326
 1093PF6-    F514945   0.139   1.923   5.251 -0.1144  0.3864  0.3593
 1093PF6-    F614946   0.119   1.703   5.188 -0.2313 -0.3789  0.0661
 1093PF6-    F714947   0.212   1.974   5.046 -0.2902 -0.0771 -0.2482
 1094PF6-    P114948   1.330   4.210   4.545 -0.1002  0.0184 -0.3095
 1094PF6-    F214949   1.317   4.083   4.642  0.0314  0.1999  0.4045
 1094PF6-    F314950   1.345   4.335   4.441 -0.3082 -0.3075  0.8062
 1094PF6-    F414951   1.469   4.150   4.488  0.2041  0.0667 -0.4972
 1094PF6-    F514952   1.187   4.264   4.601 -0.0830 -0.6237  0.1922
 1094PF6-    F614953   1.413   4.295   4.658  0.0275  0.4077 -0.2494
 1094PF6-    F714954   1.244   4.126   4.439  0.0056  0.1437 -0.0286
 1095PF6-    P114955   4.577   5.253   5.401 -0.4356  0.2835  0.1940
 1095PF6-    F214956   4.422   5.238   5.418 -0.1142 -0.3890 -0.6311
 1095PF6-    F314957   4.736   5.262   5.378 -0.1566  0.5500 -0.0581
 1095PF6-    F414958   4.581   5.369   5.508  0.2897  0.3685  0.0258
 1095PF6-    F514959   4.574   5.136   5.295  0.2323  0.2144  0.0563
 1095PF6-    F614960   4.562   5.357   5.280  0.5795 -0.0954  0.6950
 1095PF6-    F714961   4.599   5.143   5.512 -0.1648 -0.3909 -0.0202
 1096PF6-    P114962   4.183   1.340   3.204  0.1722 -0.5534  0.2590
 1096PF6-    F214963   4.327   1.384   3.149 -0.0158  0.0593  0.5417
 1096PF6-    F314964   4.038   1.289   3.256  0.0623 -0.1429  0.5238
 1096PF6-    F414965   4.139   1.492   3.239 -0.0040 -0.3662 -0.4921
 1096PF6-    F514966   4.226   1.186   3.177  0.0441 -0.4105 -0.3272
 1096PF6-    F614967   4.239   1.332   3.353  0.0256  0.1498 -0.3952
 1096PF6-    F714968   4.119   1.358   3.055  0.1240  0.1378 -0.6459
 1097PF6-    P114969   4.474   5.281   0.864 -0.2148  0.1064  0.6941
 1097PF6-    F214970   4.358   5.389   0.889  0.0151 -0.2247 -0.1482
 1097PF6-    F314971   4.592   5.181   0.833 -0.3611 -0.2870  0.0938
 1097PF6-    F414972   4.385   5.153   0.901 -0.4395 -0.2057 -0.4748
 1097PF6-    F514973   4.565   5.405   0.815  0.5864  0.9410  0.7349
 1097PF6-    F614974   4.528   5.294   1.012 -0.3202 -0.2249  0.0485
 1097PF6-    F714975   4.419   5.267   0.710 -0.1766  0.3316 -0.0923
 1098PF6-    P114976   3.344   3.192   2.953 -0.2001  0.4978 -0.3659
 1098PF6-    F214977   3.250   3.176   2.821  0.3431  0.1961 -0.1734
 1098PF6-    F314978   3.435   3.194   3.087  0.1059 -0.3873  0.4112
 1098PF6-    F414979   3.405   3.043   2.924  0.1092 -0.5002  0.0950
 1098PF6-    F514980   3.273   3.326   2.990 -0.2857 -0.0127 -0.3645
 1098PF6-    F614981   3.234   3.108   3.038  0.1765  0.2882 -0.3767
 1098PF6-    F714982   3.451   3.261   2.864  0.1597  0.5213 -0.2540
 1099PF6-    P114983   3.617   1.866   0.343 -0.1862 -0.1358  0.2055
 1099PF6-    F214984   3.555   1.725   0.379  0.2412  0.0919 -0.7540
 1099PF6-    F314985   3.672   2.006   0.304 -0.6841 -0.5362 -0.1766
 1099PF6-    F414986   3.630   1.900   0.499  0.1715  0.7781  0.8634
 1099PF6-    F514987   3.606   1.827   0.191 -0.1664 -0.1827 -0.3650
 1099PF6-    F614988   3.467   1.928   0.339  0.0597  0.0432 -0.1778
 1099PF6-    F714989   3.765   1.795   0.338  0.2228  0.5179 -0.2393
 1100PF6-    P114990   0.206   4.560   4.584  0.1488  0.0198 -0.0418
 1100PF6-    F214991   0.183   4.454   4.462 -0.3903  0.1613  0.3983
 1100PF6-    F314992   0.209   4.668   4.699  0.0297  0.3249 -0.8638
 1100PF6-    F414993   0.050   4.593   4.566  0.2772 -0.4833  0.3570
 1100PF6-    F514994   0.359   4.526   4.601 -0.5168 -0.3212 -0.2247
 1100PF6-    F614995   0.247   4.670   4.481 -0.7758 -0.2755  0.2326
 1100PF6-    F714996   0.163   4.452   4.694  0.0366  0.0178  0.6134
 1101PF6-    P114997   4.836   5.043   5.006  0.1659  0.1860 -0.1586
 1101PF6-    F214998   4.925   5.125   5.108 -0.1464 -0.0438 -0.2859
 1101PF6-    F314999   4.748   4.969   4.900 -0.0662 -0.5128 -0.2435
 1101PF6-    F415000   4.732   5.159   5.015 -0.3867  0.3867 -0.0275
 1101PF6-    F515001   4.947   4.929   5.002 -0.0918 -0.2949 -0.2424
 1101PF6-    F615002   4.770   4.971   5.128  0.6333  0.2922  0.5534
 1101PF6-    F715003   4.907   5.126   4.887  0.9519  0.1268 -0.0548
 1102PF6-    P115004   5.028   3.155   2.287 -0.0813 -0.1548  0.1152
 1102PF6-    F215005   5.103   3.085   2.408  0.2687  0.1061 -0.1862
 1102PF6-    F315006   4.947   3.224   2.164  0.4906  0.1722  0.3003
 1102PF6-    F415007   4.930   3.029   2.278  0.8386  0.1573  0.6878
 1102PF6-    F515008   5.131   3.277   2.291 -0.7738  0.0784 -0.3445
 1102PF6-    F615009   5.125   3.083   2.188  0.0339  0.2062  0.8305
 1102PF6-    F715010   4.925   3.227   2.387  0.0910  0.3556 -0.0984
 1103PF6-    P115011   4.731   4.994   1.744  0.2837  0.0688  0.0720
 1103PF6-    F215012   4.785   5.143   1.712 -0.0863  0.1393 -0.4368
 1103PF6-    F315013   4.686   4.845   1.776  0.2284  0.4096 -0.5689
 1103PF6-    F415014   4.700   5.030   1.895 -0.3277 -0.1733 -0.0098
 1103PF6-    F515015   4.763   4.947   1.587 -0.5994 -0.0452 -0.4518
 1103PF6-    F615016   4.880   4.951   1.789  0.0797  0.1688 -0.3642
 1103PF6-    F715017   4.584   5.035   1.704 -0.3122  0.0812  0.5112
 1104PF6-    P115018   0.023   4.576   1.983  0.0714  0.5180 -0.3263
 1104PF6-    F215019  -0.082   4.500   2.073  0.4500  0.4607 -0.1701
 1104PF6-    F315020   0.129   4.662   1.896 -0.0551  0.2693  0.6164
 1104PF6-    F415021  -0.083   4.576   1.864 -0.4674 -0.1192 -0.0368
 1104PF6-    F515022   0.130   4.566   2.098  0.2327 -0.5865  0.0878
 1104PF6-    F615023   0.087   4.443   1.921  0.6132 -0.1079  0.0646
 1104PF6-    F715024  -0.046   4.707   2.032  0.3258 -0.8558 -0.0662
 1105PF6-    P115025   4.536   2.611   5.456  0.1834 -0.2546  0.0797
 1105PF6-    F215026   4.435   2.624   5.329  0.1944 -0.4468  0.1450
 1105PF6-    F315027   4.630   2.589   5.584 -0.6078  0.1001  0.0781
 1105PF6-    F415028   4.666   2.626   5.366  0.0865  0.0599  0.2836
 1105PF6-    F515029   4.409   2.591   5.548  0.5066 -0.1723  0.2139
 1105PF6-    F615030   4.544   2.457   5.426 -0.1205  0.4267 -0.2226
 1105PF6-    F715031   4.536   2.772   5.480  0.1790 -0.2012  0.2193
 1106PF6-    P115032   1.815   4.199   5.304  0.0608  0.2005 -0.4077
 1106PF6-    F215033   1.869   4.336   5.366 -0.0203 -0.2554 -0.1152
 1106PF6-    F315034   1.765   4.061   5.245 -0.1824  0.0662 -0.5056
 1106PF6-    F415035   1.698   4.198   5.412 -0.1602 -0.1225  0.0375
 1106PF6-    F515036   1.932   4.198   5.197 -0.0592  0.6512 -0.5216
 1106PF6-    F615037   1.909   4.123   5.406 -0.3685  0.1275  0.6288
 1106PF6-    F715038   1.719   4.288   5.205  0.4867 -0.0080 -0.3474
 1107PF6-    P115039   4.294   3.063   0.887  0.1998 -0.3147  0.1041
 1107PF6-    F215040   4.241   3.216   0.912 -0.4428 -0.5946  0.1638
 1107PF6-    F315041   4.339   2.916   0.861 -0.0718  0.2105 -0.4757
 1107PF6-    F415042   4.386   3.077   1.016 -0.4471  0.1044 -0.2511
 1107PF6-    F515043   4.199   3.056   0.756 -0.2647  0.3318  0.1781
 1107PF6-    F615044   4.419   3.113   0.796 -0.1858 -0.7110 -0.0555
 1107PF6-    F715045   4.169   3.018   0.976 -0.5718  0.3745 -0.5713
 1108PF6-    P115046   2.317   3.159   1.895  0.2670 -0.0684  0.0208
 1108PF6-    F215047   2.211   3.049   1.930 -0.5870  0.3634  0.3324
 1108PF6-    F315048   2.430   3.266   1.874 -0.1066  0.1733  0.4641
 1108PF6-    F415049   2.204   3.268   1.854  0.1369 -0.0304  0.3213
 1108PF6-    F515050   2.439   3.059   1.929  0.0000  0.2226  0.3646
 1108PF6-    F615051   2.323   3.117   1.739 -0.0319 -0.2562  0.7286
 1108PF6-    F715052   2.309   3.206   2.047  0.1034  0.1161  0.1339
 1109PF6-    P115053   3.889   0.436   5.045  0.0976  0.1547 -0.1802
 1109PF6-    F215054   3.898   0.361   5.185 -0.0398  0.5718  0.2585
 1109PF6-    F315055   3.868   0.521   4.916  0.1824 -0.2900  0.1949
 1109PF6-    F415056   3.868   0.568   5.132 -0.4727 -0.4029  0.2508
 1109PF6-    F515057   3.904   0.296   4.966 -0.1761  0.6134 -0.1604
 1109PF6-    F615058   3.733   0.413   5.054 -0.3793 -0.2317 -0.0782
 1109PF6-    F715059   4.042   0.460   5.042  0.4293 -0.0722  0.2255
 1110PF6-    P115060   4.795   5.406   3.603  0.0610 -0.2622  0.0801
 1110PF6-    F215061   4.712   5.539   3.631 -0.0630 -0.3586 -0.2022
 1110PF6-    F315062   4.872   5.275   3.565  0.2468 -0.4265 -0.2570
 1110PF6-    F415063   4.656   5.322   3.581 -0.1227  0.4739  0.0117
 1110PF6-    F515064   4.937   5.480   3.619 -0.1963  0.5223 -0.2547
 1110PF6-    F615065   4.801   5.360   3.755  0.8598 -0.5056 -0.1987
 1110PF6-    F715066   4.791   5.446   3.451 -0.0854 -0.1751 -0.0587
 1111PF6-    P115067   0.361   0.948   5.239  0.1794 -0.4354  0.0588
 1111PF6-    F215068   0.227   0.916   5.159  0.5217 -0.0687  0.1001
 1111PF6-    F315069   0.493   0.972   5.331 -0.1774 -0.2051 -0.3833
 1111PF6-    F415070   0.411   1.060   5.129  0.2350 -0.3488 -0.2067
 1111PF6-    F515071   0.315   0.840   5.349  0.5586 -0.8635  0.4250
 1111PF6-    F615072   0.442   0.837   5.157  0.1994  0.9260  0.7071
 1111PF6-    F715073   0.283   1.067   5.326 -0.0873 -0.4898  0.4485
 1112PF6-    P115074   3.068   2.394   4.809  0.0328 -0.2729 -0.1020
 1112PF6-    F215075   2.915   2.342   4.814  0.4502  0.3604  0.4260
 1112PF6-    F315076   3.220   2.433   4.805  0.2716  0.1404  0.0479
 1112PF6-    F415077   3.105   2.271   4.720  0.4103 -0.1103  0.3011
 1112PF6-    F515078   3.036   2.517   4.909 -0.1277 -0.1397  0.5111
 1112PF6-    F615079   3.093   2.301   4.944 -0.4835  0.0774  0.2740
 1112PF6-    F715080   3.033   2.482   4.677 -0.0451  0.5075 -0.0040
 1113PF6-    P115081   0.026   1.006   2.318  0.0869 -0.6575  0.0456
 1113PF6-    F215082  -0.061   1.139   2.299 -0.1280 -0.7435  0.0804
 1113PF6-    F315083   0.102   0.868   2.329 -0.2202 -0.3072 -0.5831
 1113PF6-    F415084  -0.079   0.954   2.432  0.3214 -0.0676  0.2274
 1113PF6-    F515085   0.124   1.050   2.197  0.0107  0.5062  0.2329
 1113PF6-    F615086   0.124   1.073   2.422 -0.1615 -0.3174  0.0082
 1113PF6-    F715087  -0.080   0.945   2.208  0.6026  0.2890 -0.1013
 1114PF6-    P115088   5.374   3.464   3.064  0.6272 -0.0388  0.1481
 1114PF6-    F215089   5.301   3.338   3.128 -0.1713  0.4877  0.2613
 1114PF6-    F315090   5.444   3.594   2.992 -0.1363  0.3217 -0.4634
 1114PF6-    F415091   5.491   3.455   3.171 -0.1658  0.0138 -0.1303
 1114PF6-    F515092   5.257   3.469   2.957 -0.2144 -0.4855  0.0845
 1114PF6-    F615093   5.288   3.564   3.158  0.1054 -0.5036 -0.3148
 1114PF6-    F715094   5.457   3.362   2.972 -0.2060 -0.2132 -0.5798
 1115PF6-    P115095   4.322   3.439   5.082 -0.0195  0.3421  0.3702
 1115PF6-    F215096   4.282   3.337   4.965  0.0569 -0.2387  0.2943
 1115PF6-    F315097   4.355   3.553   5.194  0.3517 -0.3338 -0.1974
 1115PF6-    F415098   4.371   3.326   5.178 -0.2714  0.6187  0.2514
 1115PF6-    F515099   4.269   3.556   4.981 -0.1374  0.0530  0.7407
 1115PF6-    F615100   4.174   3.421   5.150  0.2475 -0.0920 -0.4836
 1115PF6-    F715101   4.471   3.448   5.020  0.9835  0.0847  0.1353
 1116PF6-    P115102   2.137   4.731   0.394 -0.2117 -0.1677 -0.6199
 1116PF6-    F215103   2.118   4.648   0.261  0.5217 -0.0322 -0.1295
 1116PF6-    F315104   2.158   4.816   0.529  0.1810  0.0145  0.0132
 1116PF6-    F415105   2.146   4.597   0.475 -0.3060  0.4132 -0.3158
 1116PF6-    F515106   2.128   4.860   0.306  0.5743 -0.4652  0.4013
 1116PF6-    F615107   1.978   4.730   0.408 -1.2639 -0.6161 -0.5509
 1116PF6-    F715108   2.293   4.727   0.371 -0.2345  0.3041  0.4598
 1117PF6-    P115109   2.950   1.504   4.459  0.0429  0.0383 -0.3395
 1117PF6-    F215110   2.847   1.612   4.507 -0.4911  0.0204  0.0683
 1117PF6-    F315111   3.058   1.397   4.411 -0.3729  0.5575 -0.4800
 1117PF6-    F415112   3.068   1.611   4.492 -0.0872  0.3583 -0.3298
 1117PF6-    F515113   2.826   1.404   4.425  0.0912 -0.6599 -0.0739
 1117PF6-    F615114   2.941   1.564   4.317  0.0013 -0.8558  0.4755
 1117PF6-    F715115   2.960   1.440   4.609 -0.6808  0.3053 -0.1074
 1118PF6-    P115116   4.384   1.758   0.563 -0.1917 -0.3025 -0.1975
 1118PF6-    F215117   4.289   1.649   0.634 -0.1845  0.3035 -0.1438
 1118PF6-    F315118   4.476   1.865   0.494  0.1292  0.4659 -0.4037
 1118PF6-    F415119   4.446   1.648   0.465  0.0484 -0.1588 -0.3166
 1118PF6-    F515120   4.319   1.872   0.664  0.1554 -0.3631  0.1712
 1118PF6-    F615121   4.501   1.725   0.667  0.1089  0.0663 -0.1176
 1118PF6-    F715122   4.269   1.793   0.461 -0.6957 -0.1097  0.2199
 1119PF6-    P115123   1.254   1.199   4.044 -0.0833 -0.1750 -0.6929
 1119PF6-    F215124   1.329   1.069   3.995 -0.1253 -0.0867  0.2902
 1119PF6-    F315125   1.167   1.327   4.081 -0.1274 -0.2383 -0.3252
 1119PF6-    F415126   1.271   1.262   3.899 -0.3308  0.0092 -0.1179
 1119PF6-    F515127   1.238   1.139   4.192 -0.3107 -1.7513  0.1969
 1119PF6-    F615128   1.383   1.273   4.090 -0.6035  0.0727  0.2634
 1119PF6-    F715129   1.110   1.130   4.005  0.2288 -0.1542  0.4288
 1120PF6-    P115130   3.429   2.748   0.998  0.3408 -0.7067 -0.3914
 1120PF6-    F215131   3.409   2.664   0.866 -0.4325 -0.3306  0.5130
 1120PF6-    F315132   3.461   2.842   1.129 -0.4414 -0.1945 -0.3287
 1120PF6-    F415133   3.491   2.624   1.069 -0.3461  0.2841  0.3440
 1120PF6-    F515134   3.363   2.873   0.916 -0.4219 -0.6447 -0.3359
 1120PF6-    F615135   3.281   2.716   1.050 -0.6393 -0.2424 -0.4819
 1120PF6-    F715136   3.579   2.778   0.943  0.3032  0.3878  0.6455
 1121PF6-    P115137   4.602   1.031   1.669  0.5402 -0.0281 -0.3386
 1121PF6-    F215138   4.482   0.922   1.708  0.3095 -0.6513 -0.3582
 1121PF6-    F315139   4.716   1.135   1.635  0.3637 -0.6400  0.0233
 1121PF6-    F415140   4.697   0.910   1.610 -0.1476 -0.4020  0.6690
 1121PF6-    F515141   4.512   1.151   1.734 -0.8780 -0.6358  0.3977
 1121PF6-    F615142   4.672   1.016   1.814  0.1517  0.0228 -0.7724
 1121PF6-    F715143   4.534   1.056   1.522 -0.0610 -0.4523  0.1658
 1122PF6-    P115144   3.769   2.133   2.549  0.1889 -0.3754  0.0710
 1122PF6-    F215145   3.726   2.147   2.393  0.1323 -0.1445  0.0794
 1122PF6-    F315146   3.821   2.125   2.699  0.1241 -0.3451 -0.4526
 1122PF6-    F415147   3.731   1.978   2.556  0.0959 -0.0358 -0.6375
 1122PF6-    F515148   3.809   2.286   2.538 -0.0956 -0.2447 -0.2619
 1122PF6-    F615149   3.625   2.177   2.609 -0.1861 -0.0233 -0.4718
 1122PF6-    F715150   3.909   2.083   2.492  0.1303 -0.7044 -0.0597
 1123PF6-    P115151   4.887   4.303   0.104  0.1264  0.3218  0.1900
 1123PF6-    F215152   4.827   4.322  -0.042  0.1994 -0.0878  0.1082
 1123PF6-    F315153   4.954   4.278   0.252 -0.1641  0.1492  0.2832
 1123PF6-    F415154   4.975   4.181   0.051 -0.0504 -0.2997 -0.4062
 1123PF6-    F515155   4.792   4.415   0.163  0.4831  0.0290  0.5038
 1123PF6-    F615156   4.767   4.194   0.136 -0.3426  0.2129  0.3170
 1123PF6-    F715157   4.997   4.409   0.067 -0.2127 -0.3362 -0.0341
 1124PF6-    P115158   0.048   4.816   0.016  0.1063  0.1637 -0.0238
 1124PF6-    F215159   0.103   4.716   0.129  0.1675 -0.2654 -0.6025
 1124PF6-    F315160  -0.005   4.906  -0.103  0.1106 -0.2793 -0.0550
 1124PF6-    F415161   0.103   4.940   0.095  0.3025 -0.3193  0.8061
 1124PF6-    F515162  -0.009   4.689  -0.068  0.7414 -0.3222  0.1029
 1124PF6-    F615163  -0.092   4.836   0.091  0.0599  0.5434 -0.3664
 1124PF6-    F715164   0.191   4.799  -0.060  0.4275 -0.2367 -0.6535
 1125PF6-    P115165   4.083   3.505   2.499  0.6830  0.1433  0.2177
 1125PF6-    F215166   4.064   3.463   2.653 -0.0444 -0.5139  0.8430
 1125PF6-    F315167   4.087   3.530   2.344 -0.0819 -0.1994 -0.4628
 1125PF6-    F415168   4.242   3.485   2.506 -0.1821  0.2099  0.2722
 1125PF6-    F515169   3.924   3.521   2.488 -0.5431  0.7330  0.3578
 1125PF6-    F615170   4.103   3.664   2.534  0.3079  0.3731 -0.3307
 1125PF6-    F715171   4.065   3.346   2.473  0.1874 -0.4942 -0.5048
 1126PF6-    P115172   4.817   2.804   1.346 -0.2539  0.3803  0.0712
 1126PF6-    F215173   4.704   2.718   1.287  0.5557 -0.0353 -0.5186
 1126PF6-    F315174   4.936   2.892   1.405 -0.1079  0.4642 -0.0577
 1126PF6-    F415175   4.835   2.695   1.467 -0.4815  0.5732  0.0193
 1126PF6-    F515176   4.799   2.913   1.231 -0.1055  0.3974 -0.4104
 1126PF6-    F615177   4.716   2.892   1.434 -0.4298  0.5192  0.3065
 1126PF6-    F715178   4.924   2.722   1.254 -0.4335  0.2331 -0.2330
 1127Na+     N115179   0.658   2.088   1.959 -0.2517  0.6990 -0.5011
 1128Na+     N115180   3.534   1.204   4.149 -0.1524  0.0513 -0.0542
 1129Na+     N115181   2.102   3.755   2.266  0.2428  0.8283 -0.1512
 1130Na+     N115182   0.282   1.979   2.971 -0.3068 -0.3088 -0.4353
 1131Na+     N115183   1.087   4.418   4.741 -0.1876 -0.0613  0.1085
 1132Na+     N115184   3.230   4.869   1.396 -0.5178  0.1450 -0.0712
 1133Na+     N115185   1.756   3.884   5.050 -0.1675 -0.0632  0.0627
 1134Na+     N115186   4.377   2.938   2.208  0.1721  0.1144  0.4228
 1135Na+     N115187   2.457   4.453   3.979 -0.4016  0.2542 -0.1187
 1136Na+     N115188   5.238   1.035   0.068  0.4245  0.9368  0.1588
 1137Na+     N115189   2.997   3.689   4.541 -0.0825  0.0599  0.4642
 1138Na+     N115190   2.115   3.475   1.345  0.0695  0.3907 -0.1658
 1139Na+     N115191   1.034   0.669   5.123  0.5062  0.5014 -0.2821
 1140Na+     N115192   0.424   1.288   0.936  0.1631 -0.4503 -0.0025
 1141Na+     N115193   4.436   4.750   3.703  0.3718 -0.0935 -0.3304
 1142Na+     N115194   4.893   0.331   2.124 -0.0193 -0.3009  0.1896
 1143Na+     N115195   0.198   1.297   3.005 -0.2128 -0.7223 -0.1057
 1144Na+     N115196   1.719   2.185   0.832 -0.0416 -0.0198 -0.1830
 1145Na+     N115197   3.839   3.611   2.724  0.0206  0.2661 -0.0393
 1146Na+     N115198   4.586   5.346   5.034 -0.3178 -0.1221  0.0057
 1147Na+     N115199   4.590   5.491   3.297  0.6816  0.2111  0.0166
 1148Na+     N115200   2.506   2.752   1.228 -0.4926 -0.5000  0.1866
 1149Na+     N115201   4.349   3.574   4.127  0.4165  0.0075 -0.5056
 1150Na+     N115202   3.938   1.863   2.394  0.0837 -0.3649 -0.0484
 1151Na+     N115203   3.729   0.641   3.254  0.2994 -0.2504  0.5687
 1152Na+     N115204   2.574   1.703   4.012 -0.0134  0.0006 -0.0202
 1153Na+     N115205   2.755   1.014   5.303 -0.2335 -0.5885  0.4252
 1154Na+     N115206   1.966   4.557   0.043 -0.3141 -0.0872 -0.0144
 1155Na+     N115207   0.258   5.220   3.214  0.3003 -0.3028 -0.2176
 1156Na+     N115208   1.623   2.898   3.312 -0.3247 -0.0068 -0.0179
 1157Na+     N115209   3.583   4.101   3.453  0.1168  0.0405 -0.1928
 1158Na+     N115210   4.620   0.765   4.799  0.0284 -0.0535  0.1291
 1159Na+     N115211   4.505   5.016   1.059 -0.6536 -0.2332 -0.0491
 1160Na+     N115212   2.348   5.446   4.123 -0.0852 -0.4370 -0.1570
 1161Na+     N115213   3.609   4.635   3.728 -0.0514  0.5309 -0.5108
 1162Na+     N115214   3.757   1.575   0.254  0.0133  0.0615  0.7353
 1163Na+     N115215   1.038   3.743   2.153 -0.2269  0.3576  0.3564
 1164Na+     N115216   4.035   5.414   2.907 -0.1910 -0.7305  0.4200
 1165Na+     N115217   3.175   1.785   2.598  0.4554  0.4125  0.5730
 1166Na+     N115218   1.629   1.291   4.150  0.5387  0.0208 -0.2953
 1167Na+     N115219   4.044   5.203   1.870 -0.1493 -0.3962  0.2636
 1168Na+     N115220   5.425   5.041   4.868  0.3932 -0.5520 -0.5000
 1169Na+     N115221   4.990   1.062   4.131  0.3813  0.0854  0.4322
 1170Na+     N115222   5.488   4.567   4.315 -0.4399 -0.0605 -0.3481
 1171Na+     N115223   3.686   3.220   0.609 -0.0149  0.0074 -0.2224
 1172Na+     N115224   4.946   2.501   3.935 -0.0034 -0.5912 -0.2214
 1173Na+     N115225   1.269   1.364   0.982 -0.2884  0.4956 -0.0190
 1174Na+     N115226   1.199   2.080   4.806 -0.2115 -0.0589  0.8322
 1175Na+     N115227   5.476   1.581   4.981 -0.0484 -0.1758  0.0853
 1176Na+     N115228   0.724   0.186   2.180 -0.0199  0.2130  0.2025
 1177Na+     N115229   5.226   1.132   2.174  0.2301 -0.5380 -0.2032
 1178Na+     N115230   0.805   3.785   0.090  0.0557 -0.3135 -0.1044
 1179Na+     N115231   3.086   1.164   1.601 -0.0976  0.3244 -0.3830
 1180Na+     N115232   4.993   2.146   2.773 -0.3553 -0.1863 -0.0998
 1181Na+     N115233   4.683   4.744   1.995 -0.1647 -0.1180 -0.0286
 1182Na+     N115234   5.286   4.027   4.590 -0.3708 -0.7075  0.4487
 1183Na+     N115235   3.056   2.702   1.032  0.0932 -0.0760  0.0956
 1184Na+     N115236   2.229   4.490   0.976 -0.2617 -0.1267  0.3939
 1185Na+     N115237   4.364   2.121   4.357 -0.1144 -0.3152 -0.0444
 1186Na+     N115238   0.854   0.163   4.317 -0.0754  0.0800  0.1889
 1187Na+     N115239   3.991   4.696   2.565 -0.3979  0.4369 -0.6140
 1188Na+     N115240   4.036   3.418   4.927 -0.0570  0.1674  0.2258
 1189Na+     N115241   2.387   3.520   0.804  0.1041 -0.0087 -0.2839
 1190Na+     N115242   0.026   4.289   5.488 -0.3454 -0.2324  0.5357
 1191Na+     N115243   1.227   1.041   2.657  0.3736 -0.3206  0.0502
 1192Na+     N115244   0.111   0.539   2.939  0.0267  0.0842  0.0140
 1193Na+     N115245   3.603   2.625   4.381 -0.3969  0.1499 -0.2098
 1194Na+     N115246   0.344   0.865   1.797 -0.1134 -0.1573  0.1729
 1195Na+     N115247   1.577   3.559   0.729 -0.3201 -0.0922 -0.0085
 1196Na+     N115248   5.158   3.999   3.778  0.1947  0.0933  0.1812
 1197Na+     N115249   3.426   2.795   2.846 -0.2888 -0.0335 -0.5599
 1198Na+     N115250   4.507   0.381   0.240 -0.0202 -0.5050  0.2209
 1199Na+     N115251   3.681   0.455   5.308 -0.5192  0.2053 -0.2300
 1200Na+     N115252   4.768   4.953   5.376  0.5818  0.2094  0.5961
 1201Na+     N115253   0.662   1.526   5.495  0.1424  0.2602  0.1851
 1202Na+     N115254   1.486   4.933   3.388 -0.3340 -0.5483 -0.0968
 1203Na+     N115255   5.135   5.194   0.492  0.1328  0.3413 -0.2492
 1204Na+     N115256   1.092   3.129   2.523  0.4278 -0.3122  0.4156
 1205Na+     N115257   4.477   0.647   3.805  0.6632  0.1478  0.4459
 1206Na+     N115258   4.134   1.520   0.768  0.0600  0.5531  0.2175
 1207Na+     N115259   3.168   1.566   4.731 -0.0931 -0.2489  0.2461
 1208Na+     N115260   4.572   2.981   1.132 -0.0486 -0.0424 -0.3878
 1209Na+     N115261   2.065   0.274   2.294 -0.2593  0.0227 -0.4171
 1210Na+     N115262   2.137   1.551   1.541 -0.1471  0.1483 -0.1109
 1211Na+     N115263   3.077   1.871   1.739  0.0605 -0.3549  0.8099
 1212Na+     N115264   1.280   1.608   3.396  0.3412  0.0131 -0.1740
 1213Na+     N115265   2.066   3.531   4.159 -0.3212 -0.0801  0.1808
 1214Na+     N115266   0.616   3.095   1.780  0.2674 -0.5293 -0.7696
 1215Na+     N115267   4.706   2.834   0.170  0.4447  0.0427  0.5141
 1216Na+     N115268   2.623   2.476   0.560  0.2832  0.1585  0.2615
 1217Na+     N115269   5.069   3.229   3.161 -0.6842 -0.1495 -0.0933
 1218Na+     N115270   4.263   2.188   0.604  0.1450 -0.0237 -0.5628
 1219Na+     N115271   3.421   1.967   0.600 -0.1020 -0.0668  0.3153
 1220Na+     N115272   3.610   0.977   2.315 -0.3479  0.1981 -0.5538
 1221Na+     N115273   4.570   2.864   4.819  0.3961  0.0354  0.2596
 1222Na+     N115274   4.047   1.463   3.495  0.3427  0.1473  0.1704
 1223Na+     N115275   0.852   2.733   3.893 -0.0755  0.0041 -0.3092
 1224Na+     N115276   5.353   5.087   1.592  0.0163 -0.1515 -0.1950
 1225Na+     N115277   4.236   4.418   4.233 -0.1408 -0.4811  0.0432
 1226Na+     N115278   2.596   4.037   1.786 -0.2967  0.0392 -0.3785
   5.50001   5.50001   5.50001
