DG-THF-PF6-Na    Amber RESP
15278
    1DG      C1    1   4.947   1.309   3.695 -0.3258  0.3002 -0.1468
    1DG      C2    2   4.458   1.491   4.162 -0.0482 -0.2799  0.0933
    1DG      H3    3   4.991   1.409   3.703  1.4998 -0.5139  0.7034
    1DG      H4    4   4.860   1.311   3.630 -0.3531 -3.0338 -0.3949
    1DG      H5    5   5.019   1.239   3.652 -1.3676  0.0669 -1.5497
    1DG      H6    6   4.433   1.401   4.218 -1.1235  1.3269  2.3316
    1DG      H7    7   4.455   1.581   4.223  2.8148 -1.3727  2.0527
    1DG      H8    8   4.381   1.496   4.084  0.7178 -4.1528 -1.1255
    1DG      O9    9   4.898   1.256   3.818 -0.4535 -0.5762  0.5423
    1DG     O10   10   4.591   1.471   4.110 -0.6916  0.0656  0.6796
    1DG     C11   11   4.991   1.263   3.926 -0.0741 -0.4493 -0.0521
    1DG     C12   12   4.696   1.462   4.207  0.3224 -0.0681 -0.2128
    1DG     H13   13   5.020   1.367   3.942  1.2417 -0.7937 -0.1470
    1DG     H14   14   5.084   1.211   3.906  1.5579  2.7070 -1.4344
    1DG     H15   15   4.669   1.396   4.290  0.4210  0.5695  0.3319
    1DG     H16   16   4.700   1.565   4.241  1.1047 -0.7138  1.7911
    1DG     C17   17   4.927   1.206   4.055 -0.3128 -0.6839  0.6442
    1DG     C18   18   4.826   1.413   4.137 -0.2961  0.3680 -0.0202
    1DG     O19   19   4.810   1.281   4.088  0.3346  0.4634  0.7524
    1DG     H20   20   4.988   1.198   4.145  0.8682 -0.7072 -0.1345
    1DG     H21   21   4.902   1.102   4.032  1.4663 -0.6639 -1.7462
    1DG     H22   22   4.827   1.476   4.048  0.3266 -0.0672 -0.3226
    1DG     H23   23   4.908   1.440   4.203  0.5486 -0.4154 -0.7406
    2DG      C1   24   4.872   0.763   0.201 -0.1086 -0.5647 -0.6996
    2DG      C2   25   5.347   0.356   0.083  0.4126  0.0424 -0.2328
    2DG      H3   26   4.942   0.819   0.263  0.0474  0.8291 -2.0715
    2DG      H4   27   4.769   0.785   0.232  0.5154 -1.3176  2.2989
    2DG      H5   28   4.898   0.787   0.098  1.0099 -2.2732 -0.8567
    2DG      H6   29   5.291   0.323  -0.005  0.3109  1.6174 -0.7769
    2DG      H7   30   5.391   0.455   0.068 -2.2329  1.4155  0.5439
    2DG      H8   31   5.430   0.289   0.108  0.4399  0.7762  1.7736
    2DG      O9   32   4.898   0.621   0.211 -0.1927  0.3105 -0.0605
    2DG     O10   33   5.264   0.361   0.198  0.0732 -0.0224  0.0874
    2DG     C11   34   4.877   0.582   0.348  0.0425  0.7416  0.5475
    2DG     C12   35   5.184   0.246   0.212 -0.1637  0.0682 -0.2464
    2DG     H13   36   4.768   0.585   0.361 -0.0467  0.0147  0.0412
    2DG     H14   37   4.917   0.647   0.426  0.0936 -0.6683  1.7478
    2DG     H15   38   5.236   0.152   0.232 -0.7285  0.0004  0.9832
    2DG     H16   39   5.139   0.231   0.114  1.2066 -1.6289 -0.6840
    2DG     C17   40   4.911   0.435   0.373  0.3277 -0.4763  0.4097
    2DG     C18   41   5.078   0.278   0.321  0.2511 -0.2730 -0.1281
    2DG     O19   42   5.036   0.411   0.304  0.2880 -0.2189  0.6640
    2DG     H20   43   4.833   0.367   0.340  0.4593 -0.5780  0.3108
    2DG     H21   44   4.918   0.427   0.482 -0.4116  0.5750  0.5545
    2DG     H22   45   4.992   0.212   0.309 -0.3466  0.2635  0.9599
    2DG     H23   46   5.126   0.278   0.419 -0.0780  1.4204  0.0753
    3DG      C1   47   2.047   4.863   4.280 -0.3238 -0.1597 -0.3767
    3DG      C2   48   1.434   4.578   4.240  0.8257 -0.2831 -0.2836
    3DG      H3   49   2.060   4.792   4.362 -2.0852 -0.5364 -0.3796
    3DG      H4   50   2.121   4.942   4.272 -0.3006 -0.1087  0.3401
    3DG      H5   51   2.051   4.815   4.182 -1.0595  1.0562 -1.0302
    3DG      H6   52   1.483   4.511   4.169  1.4695 -2.3840  2.0012
    3DG      H7   53   1.429   4.527   4.336 -0.2122  1.3840  0.6013
    3DG      H8   54   1.329   4.586   4.212  0.8120  1.1205  0.0920
    3DG      O9   55   1.919   4.920   4.276  0.6230  0.5909 -0.1815
    3DG     O10   56   1.503   4.699   4.250  0.1225 -0.6063  0.2661
    3DG     C11   57   1.888   4.984   4.400  0.4455  0.2889  0.3320
    3DG     C12   58   1.443   4.787   4.340  0.1995  0.2502 -0.6074
    3DG     H13   59   1.954   5.070   4.407  1.0615 -0.2157  0.8408
    3DG     H14   60   1.908   4.914   4.481  1.2756 -0.1078 -0.2028
    3DG     H15   61   1.449   4.733   4.435  0.1582 -0.8291 -1.2058
    3DG     H16   62   1.337   4.796   4.318  0.1999 -0.0567 -0.7367
    3DG     C17   63   1.737   5.017   4.390  0.7914  0.0269 -0.0113
    3DG     C18   64   1.515   4.919   4.363 -0.7316 -0.1601  0.2960
    3DG     O19   65   1.659   4.899   4.349 -0.8035 -0.3684 -0.3290
    3DG     H20   66   1.722   5.100   4.321 -1.1048  1.3320  1.8380
    3DG     H21   67   1.705   5.060   4.484  0.6552  2.5987 -1.1553
    3DG     H22   68   1.487   5.000   4.296 -0.9968 -0.9159 -0.5265
    3DG     H23   69   1.493   4.955   4.463 -0.7979  2.1518 -0.5013
    4DG      C1   70   3.130   3.058   0.736  0.6270 -0.3367  0.2266
    4DG      C2   71   3.096   3.746   0.735 -0.5602  0.3636  0.1221
    4DG      H3   72   3.210   3.088   0.668  0.7202  0.0255  0.4870
    4DG      H4   73   3.032   3.063   0.689  1.7991 -0.6028 -2.4358
    4DG      H5   74   3.144   2.955   0.768  0.3174 -0.9170 -1.4082
    4DG      H6   75   3.078   3.839   0.789 -0.0205 -0.3470  1.5824
    4DG      H7   76   3.148   3.768   0.641 -0.1070  0.7209  0.4525
    4DG      H8   77   3.000   3.698   0.713 -0.6264  0.0537  1.0500
    4DG      O9   78   3.122   3.160   0.844  0.4001 -0.0781  0.1882
    4DG     O10   79   3.171   3.655   0.810  0.5654 -0.8087 -0.3425
    4DG     C11   80   3.252   3.190   0.896  0.3285  0.3478 -0.3801
    4DG     C12   81   3.107   3.623   0.931  0.2294 -0.4219  0.5268
    4DG     H13   82   3.318   3.224   0.816 -1.2736  3.2302 -0.6230
    4DG     H14   83   3.301   3.099   0.929  0.8780 -0.5716 -3.4536
    4DG     H15   84   3.015   3.567   0.914 -0.6575  1.0140  0.4340
    4DG     H16   85   3.092   3.717   0.984 -0.0865  0.3104 -0.8219
    4DG     C17   86   3.238   3.299   1.001 -0.1092  0.1626 -0.5096
    4DG     C18   87   3.192   3.535   1.009 -0.6147 -0.6241  0.3367
    4DG     O19   88   3.211   3.418   0.933 -0.6718 -0.3785 -0.5121
    4DG     H20   89   3.324   3.309   1.068 -0.6826 -0.9121  0.4293
    4DG     H21   90   3.151   3.284   1.065  1.4495 -1.8704  1.2949
    4DG     H22   91   3.293   3.574   1.022 -0.3865 -1.6649  1.9995
    4DG     H23   92   3.144   3.527   1.106 -1.4727  1.0108  0.0769
    5DG      C1   93   0.427   5.091   2.291 -0.3063  0.1679  0.9169
    5DG      C2   94  -0.051   5.209   2.037 -0.3448 -0.7305 -0.1909
    5DG      H3   95   0.364   5.018   2.343 -0.9199  1.7482  2.5183
    5DG      H4   96   0.451   5.170   2.362  1.5038  0.9159 -0.4499
    5DG      H5   97   0.523   5.047   2.266  0.7961  3.2103 -0.6933
    5DG      H6   98  -0.138   5.253   1.988  0.2650  0.3354 -0.3515
    5DG      H7   99  -0.076   5.110   2.075  0.7144 -1.8950 -2.3431
    5DG      H8  100  -0.044   5.275   2.124  0.2377 -1.4095  0.2802
    5DG      O9  101   0.368   5.141   2.172 -0.6266  0.3720 -0.0376
    5DG     O10  102   0.058   5.201   1.957  0.0222  0.4226 -0.3035
    5DG     C11  103   0.454   5.228   2.101 -0.2179  0.0459  0.1128
    5DG     C12  104   0.092   5.309   1.868 -0.1673  0.6519  0.2864
    5DG     H13  105   0.533   5.170   2.053 -1.2881 -1.9339  0.6222
    5DG     H14  106   0.498   5.308   2.161 -1.1259  2.6557 -2.4691
    5DG     H15  107   0.082   5.407   1.916 -0.6197  0.0683  1.4178
    5DG     H16  108   0.020   5.318   1.787  0.2815 -1.6921 -0.4540
    5DG     C17  109   0.373   5.305   2.000  0.0776 -0.0712 -0.4147
    5DG     C18  110   0.232   5.285   1.815 -0.6678  0.0961  0.3384
    5DG     O19  111   0.313   5.215   1.910  0.1902 -0.1420  0.1645
    5DG     H20  112   0.447   5.363   1.946  2.0742 -2.9236 -0.9947
    5DG     H21  113   0.304   5.374   2.048  0.8684  1.2315 -1.0961
    5DG     H22  114   0.232   5.238   1.717 -1.8724 -1.0835  0.8636
    5DG     H23  115   0.282   5.381   1.801 -1.0557  0.3404  0.6314
    6DG      C1  116   2.913   1.059   2.244  1.1327  0.6406  1.0321
    6DG      C2  117   3.214   0.726   1.813 -0.2119 -1.2501  0.4683
    6DG      H3  118   2.823   1.007   2.211  3.5167 -4.5744  1.6882
    6DG      H4  119   2.888   1.136   2.317 -0.5713  1.3922 -0.2811
    6DG      H5  120   2.989   0.990   2.281  1.4410  0.3896 -0.0196
    6DG      H6  121   3.317   0.692   1.822  0.2882  0.6074  2.6669
    6DG      H7  122   3.156   0.650   1.866 -1.9776  1.0621  2.0524
    6DG      H8  123   3.180   0.723   1.709 -1.2203  2.7380  0.5015
    6DG      O9  124   2.967   1.114   2.130 -0.1323 -0.1398 -0.2230
    6DG     O10  125   3.194   0.853   1.871 -0.2253 -0.1623  0.2219
    6DG     C11  126   3.079   1.197   2.152 -0.2052 -0.0244 -0.5709
    6DG     C12  127   3.316   0.928   1.872 -0.1969 -0.0077  0.5435
    6DG     H13  128   3.155   1.147   2.212 -0.8605 -1.8964 -1.2081
    6DG     H14  129   3.058   1.289   2.206  1.3361 -0.5832  1.0591
    6DG     H15  130   3.351   0.947   1.771  0.3448 -1.9974  0.3306
    6DG     H16  131   3.400   0.881   1.923 -0.2800  1.1925  1.8930
    6DG     C17  132   3.134   1.237   2.020 -0.6268 -0.0921  0.2621
    6DG     C18  133   3.290   1.054   1.961  0.1063 -0.4873  0.3722
    6DG     O19  134   3.163   1.115   1.942  0.5963  0.1614 -0.1227
    6DG     H20  135   3.218   1.306   2.023 -1.0275  0.3590  2.0370
    6DG     H21  136   3.052   1.273   1.958 -0.1960 -1.1439 -0.9662
    6DG     H22  137   3.294   1.017   2.064 -0.0989  0.9183  0.8998
    6DG     H23  138   3.369   1.128   1.965 -1.8101  1.7027 -0.3059
    7DG      C1  139   3.294   0.999   5.082 -0.2913 -0.3249  0.1475
    7DG      C2  140   2.849   0.576   5.487  0.2036 -1.1516 -0.1093
    7DG      H3  141   3.329   0.897   5.064  2.2368  0.5404 -0.2197
    7DG      H4  142   3.372   1.051   5.138  0.4517 -1.2789  0.0321
    7DG      H5  143   3.285   1.054   4.988  1.5526  1.6795  1.0770
    7DG      H6  144   2.896   0.484   5.453  0.7038 -1.7182  1.9651
    7DG      H7  145   2.873   0.583   5.593  3.7463 -1.9676 -0.7241
    7DG      H8  146   2.743   0.553   5.475  0.0466 -0.3948 -0.2143
    7DG      O9  147   3.170   0.983   5.146 -0.3458 -0.1291 -0.0192
    7DG     O10  148   2.871   0.692   5.408  0.0906 -0.1911 -0.3918
    7DG     C11  149   3.105   1.103   5.183  0.7995 -0.5376  0.4364
    7DG     C12  150   2.802   0.807   5.450 -0.0418 -0.0347  0.2773
    7DG     H13  151   3.104   1.175   5.101  1.9503  2.1402  2.6088
    7DG     H14  152   3.162   1.143   5.267  0.8422 -1.5886  0.9226
    7DG     H15  153   2.829   0.856   5.543  0.2204  0.1898  0.0850
    7DG     H16  154   2.696   0.782   5.460  0.0673  0.3609  3.0832
    7DG     C17  155   2.959   1.064   5.222  0.4654  0.3487  0.2388
    7DG     C18  156   2.810   0.923   5.344 -0.3301 -0.0428 -0.2164
    7DG     O19  157   2.944   0.960   5.318  0.2930 -0.1278  0.3075
    7DG     H20  158   2.902   1.040   5.132  1.8241 -1.5604 -0.1706
    7DG     H21  159   2.915   1.152   5.269 -1.1585 -1.3324  2.0679
    7DG     H22  160   2.773   0.882   5.250  0.6513  0.8035 -1.0121
    7DG     H23  161   2.746   1.005   5.376 -1.9331 -0.9674 -0.9400
    8DG      C1  162   2.091   0.968   0.068  0.0799  0.2390  0.0569
    8DG      C2  163   1.714   1.517  -0.113 -0.2006  0.0454 -0.1313
    8DG      H3  164   2.178   1.014   0.115 -1.7756  1.2070  2.7647
    8DG      H4  165   2.135   0.932  -0.025 -1.2679 -1.1564 -0.0812
    8DG      H5  166   2.054   0.883   0.125 -0.5490  0.3235 -0.2141
    8DG      H6  167   1.761   1.504  -0.210  1.1218  0.3685  0.4364
    8DG      H7  168   1.621   1.574  -0.107  0.2554  0.8331 -0.2801
    8DG      H8  169   1.796   1.579  -0.074  0.4071 -0.4036 -0.6785
    8DG      O9  170   1.991   1.071   0.056  0.2316  0.4079  0.3672
    8DG     O10  171   1.700   1.401  -0.048  0.1474  0.3819  0.1576
    8DG     C11  172   1.938   1.113   0.185 -0.3747 -0.0433 -0.2346
    8DG     C12  173   1.632   1.414   0.072 -0.0189 -0.1561 -0.0030
    8DG     H13  174   2.016   1.140   0.255 -0.6734  2.4191 -0.7408
    8DG     H14  175   1.880   1.029   0.222 -0.3789  0.0764  0.0298
    8DG     H15  176   1.530   1.450   0.059 -0.1669 -1.1302 -1.8573
    8DG     H16  177   1.694   1.482   0.129  0.1602  0.5084 -0.9726
    8DG     C17  178   1.837   1.233   0.185 -0.4484  0.1844 -0.1951
    8DG     C18  179   1.613   1.277   0.128  0.7851 -0.5038 -0.0928
    8DG     O19  180   1.720   1.185   0.121  0.0206  0.1608 -0.3954
    8DG     H20  181   1.881   1.326   0.149 -1.0522  0.0588 -1.3051
    8DG     H21  182   1.815   1.260   0.288  3.1263 -0.3815  0.8545
    8DG     H22  183   1.572   1.295   0.228 -1.3532  1.5440 -1.2345
    8DG     H23  184   1.534   1.225   0.074 -0.5873 -0.7851  2.0735
    9DG      C1  185   0.510   1.292   1.436 -0.2518  0.3955  0.0788
    9DG      C2  186   0.702   1.946   1.177  0.2279  0.9725 -0.3760
    9DG      H3  187   0.474   1.189   1.437  2.2939 -0.5518  0.3267
    9DG      H4  188   0.491   1.341   1.532  2.4071 -0.1218  0.9374
    9DG      H5  189   0.618   1.285   1.435 -0.1911  1.0185 -2.2134
    9DG      H6  190   0.709   1.959   1.069  2.2307 -1.7824 -0.6818
    9DG      H7  191   0.649   2.032   1.218 -0.3054  0.4064  0.1465
    9DG      H8  192   0.804   1.931   1.212  0.3047 -0.2721 -1.0890
    9DG      O9  193   0.477   1.376   1.331  0.3036 -0.3597  0.2883
    9DG     O10  194   0.623   1.828   1.186 -0.2129  0.2849 -0.1391
    9DG     C11  195   0.342   1.420   1.328  0.3814 -0.2394  0.4510
    9DG     C12  196   0.489   1.859   1.153  0.4877  0.6636 -0.3543
    9DG     H13  197   0.308   1.475   1.415 -0.6227  0.9494 -0.6444
    9DG     H14  198   0.278   1.335   1.306 -0.0494  0.3316 -0.5742
    9DG     H15  199   0.489   1.911   1.057 -0.5045 -1.0158 -1.2965
    9DG     H16  200   0.446   1.928   1.227  3.3016  2.2801 -0.0362
    9DG     C17  201   0.336   1.513   1.211  0.5347  0.3262 -0.6673
    9DG     C18  202   0.413   1.728   1.124 -0.3583  0.5798 -0.2878
    9DG     O19  203   0.411   1.632   1.231 -0.0444 -0.2203  0.3350
    9DG     H20  204   0.231   1.540   1.204  0.5656  0.6904  0.1967
    9DG     H21  205   0.368   1.465   1.119  0.4410  1.1407 -1.1410
    9DG     H22  206   0.311   1.762   1.104 -1.1841 -1.4553  0.2305
    9DG     H23  207   0.455   1.693   1.030  2.1005 -2.3914  1.7269
   10DG      C1  208   0.554   5.243   3.778  0.2765 -0.4506 -0.2226
   10DG      C2  209   0.037   5.591   3.981 -1.2370  0.1159 -0.6584
   10DG      H3  210   0.595   5.143   3.766  1.1079 -0.0350 -0.9322
   10DG      H4  211   0.605   5.301   3.855 -0.6336 -0.2425  0.2436
   10DG      H5  212   0.553   5.289   3.680 -2.2789 -0.5631 -0.3042
   10DG      H6  213   0.101   5.650   3.915 -2.6356 -0.1413 -2.3069
   10DG      H7  214  -0.063   5.621   3.951 -0.7080  1.0131 -1.5816
   10DG      H8  215   0.063   5.621   4.083 -0.0423  2.1526 -1.4946
   10DG      O9  216   0.418   5.230   3.809 -0.1270 -0.2179 -0.1000
   10DG     O10  217   0.080   5.458   3.951  0.2004 -0.2200 -0.5455
   10DG     C11  218   0.383   5.106   3.873  0.3740 -0.2623  0.2752
   10DG     C12  219  -0.006   5.360   4.010 -0.2271 -0.2513  0.1853
   10DG     H13  220   0.439   5.091   3.965  0.1214 -1.8126  0.1937
   10DG     H14  221   0.413   5.032   3.799  0.8199  0.8267 -0.6805
   10DG     H15  222  -0.110   5.374   3.980  0.0476 -1.6767 -1.5620
   10DG     H16  223  -0.005   5.370   4.119 -0.2236  1.0009  0.0872
   10DG     C17  224   0.231   5.097   3.895  0.0546 -0.4633 -0.0528
   10DG     C18  225   0.037   5.223   3.950  0.3647  0.8057 -0.0314
   10DG     O19  226   0.180   5.221   3.950  0.2750 -0.1937 -0.4518
   10DG     H20  227   0.215   5.013   3.963 -0.8319 -0.1083  0.1968
   10DG     H21  228   0.180   5.072   3.802 -1.7752 -0.3016  0.8419
   10DG     H22  229  -0.015   5.141   3.999  3.2994  0.7937  3.4682
   10DG     H23  230   0.009   5.230   3.845 -1.4180  1.3927  0.4577
   11DG      C1  231   3.980   4.782   0.701 -0.1868 -0.4827 -0.6184
   11DG      C2  232   3.927   4.662   0.016  0.5586  0.3559  0.5897
   11DG      H3  233   3.987   4.727   0.795 -2.6296  1.9460  1.1085
   11DG      H4  234   3.875   4.811   0.696  0.7398  3.6602  0.6662
   11DG      H5  235   4.031   4.878   0.705  2.4385 -1.5949 -3.4618
   11DG      H6  236   3.979   4.757   0.007  2.6610 -0.8642 -1.0501
   11DG      H7  237   3.935   4.603  -0.075  2.1931 -2.8384  2.6354
   11DG      H8  238   3.825   4.681   0.049  0.8978 -0.4524  2.2262
   11DG      O9  239   4.029   4.720   0.581 -0.1799  0.3437  0.3383
   11DG     O10  240   3.989   4.596   0.125  0.8344 -0.2161  0.0756
   11DG     C11  241   4.173   4.696   0.581 -0.5387 -0.1476  0.5908
   11DG     C12  242   4.127   4.605   0.113  0.1459  0.4446  0.5384
   11DG     H13  243   4.207   4.660   0.678  0.3256  1.4458  0.9210
   11DG     H14  244   4.216   4.795   0.569  0.7303 -0.7583 -0.1136
   11DG     H15  245   4.162   4.708   0.113 -0.3412  0.6107  0.7965
   11DG     H16  246   4.155   4.541   0.029 -0.6263  0.5308  0.2088
   11DG     C17  247   4.220   4.594   0.470  0.5633 -0.5264 -0.1494
   11DG     C18  248   4.184   4.545   0.240  0.3623 -0.5391 -0.9873
   11DG     O19  249   4.160   4.632   0.348 -0.3306 -0.9637 -0.6676
   11DG     H20  250   4.193   4.490   0.491  0.3000 -0.1598  1.3605
   11DG     H21  251   4.328   4.603   0.456  0.2697  1.4672 -1.4870
   11DG     H22  252   4.136   4.455   0.279 -0.0789  0.8666  1.9629
   11DG     H23  253   4.288   4.515   0.227  0.9526  0.6719  0.6932
   12DG      C1  254   2.068   4.961   2.340 -0.2831  0.0569 -0.1498
   12DG      C2  255   1.817   5.574   2.163  0.0529  0.6831 -0.4984
   12DG      H3  256   1.992   4.919   2.274 -0.1696  0.5989 -0.6401
   12DG      H4  257   2.042   4.995   2.440 -0.9526  2.1008 -0.9598
   12DG      H5  258   2.144   4.884   2.325  0.5163  0.7802  0.0799
   12DG      H6  259   1.818   5.659   2.095  0.5354  0.1788 -1.1391
   12DG      H7  260   1.728   5.514   2.143 -0.9832  1.7804  0.6279
   12DG      H8  261   1.800   5.620   2.260 -2.5056 -0.6924 -0.2042
   12DG      O9  262   2.110   5.071   2.266  0.1923 -0.4074  0.3345
   12DG     O10  263   1.931   5.491   2.163  0.1221 -0.3590 -0.4178
   12DG     C11  264   2.224   5.141   2.301  0.4425  0.2662 -0.2598
   12DG     C12  265   2.045   5.566   2.163  0.0736  0.0924  0.0657
   12DG     H13  266   2.304   5.068   2.313  0.8049  0.8566  1.1131
   12DG     H14  267   2.204   5.193   2.395 -2.0334 -1.8926  0.5411
   12DG     H15  268   2.060   5.621   2.256  3.7401  1.2899 -1.0691
   12DG     H16  269   2.041   5.639   2.082  0.0995 -0.5847 -0.5528
   12DG     C17  270   2.253   5.253   2.194  0.0755  0.5386  0.0786
   12DG     C18  271   2.155   5.464   2.129 -0.3933 -0.8555 -0.2894
   12DG     O19  272   2.142   5.342   2.201  0.3566  0.3257  0.1899
   12DG     H20  273   2.270   5.214   2.094  1.0963 -0.0526  0.4700
   12DG     H21  274   2.336   5.311   2.234 -0.6410  0.8740  1.1305
   12DG     H22  275   2.154   5.443   2.022 -1.0034 -3.0239  0.0980
   12DG     H23  276   2.251   5.504   2.160 -0.4744 -0.4581 -0.5374
   13DG      C1  277   5.052   1.591   1.722 -0.3659 -0.0262 -0.0493
   13DG      C2  278   5.705   1.430   1.850 -0.7206  0.4131  0.4132
   13DG      H3  279   5.028   1.541   1.628 -2.6380 -1.4215  1.1785
   13DG      H4  280   5.087   1.692   1.699 -1.4466  0.2366 -0.6407
   13DG      H5  281   4.951   1.600   1.764 -0.2580  0.8125  0.0563
   13DG      H6  282   5.712   1.494   1.762 -2.5231  0.1057  0.0046
   13DG      H7  283   5.770   1.486   1.916 -0.8740  0.9568  0.1056
   13DG      H8  284   5.741   1.330   1.824 -2.5018  0.5768 -3.3434
   13DG      O9  285   5.135   1.517   1.807 -0.2428  0.4700 -0.5821
   13DG     O10  286   5.573   1.422   1.882  0.0980 -0.0343  0.6562
   13DG     C11  287   5.113   1.556   1.945  0.1310  0.2650 -0.0860
   13DG     C12  288   5.557   1.436   2.021 -1.0810  0.2518  0.1524
   13DG     H13  289   5.009   1.567   1.977 -0.1317 -2.5127  0.2523
   13DG     H14  290   5.157   1.656   1.946  0.2244  0.2281 -0.5007
   13DG     H15  291   5.581   1.538   2.049 -2.4096  1.1398 -1.7312
   13DG     H16  292   5.619   1.352   2.052 -0.6721  0.6180  0.3294
   13DG     C17  293   5.195   1.473   2.041 -0.0933 -0.5759 -0.1972
   13DG     C18  294   5.417   1.408   2.074  0.3326  0.4592 -0.1844
   13DG     O19  295   5.331   1.476   1.992  0.2179  0.0212  0.1480
   13DG     H20  296   5.162   1.369   2.046  0.1787 -0.6004  1.8740
   13DG     H21  297   5.190   1.514   2.142  0.6293  0.3766 -0.5390
   13DG     H22  298   5.392   1.302   2.074 -0.8607  0.7123 -1.2991
   13DG     H23  299   5.407   1.449   2.175 -1.0988 -1.0630  0.3451
   14DG      C1  300   4.658   3.958   2.514 -0.5197  0.6792  0.2323
   14DG      C2  301   4.481   3.421   2.947  0.7705 -0.0464  0.2072
   14DG      H3  302   4.571   3.935   2.453  0.4294 -0.9854 -0.5642
   14DG      H4  303   4.735   3.919   2.448 -0.3745 -0.5848  1.1157
   14DG      H5  304   4.664   4.067   2.523  1.6798  0.7067 -0.9765
   14DG      H6  305   4.455   3.419   3.053 -0.5753 -1.8548 -0.0978
   14DG      H7  306   4.392   3.411   2.885 -0.3164  0.0214  1.6838
   14DG      H8  307   4.549   3.342   2.914  0.3799  0.0900 -0.9721
   14DG      O9  308   4.659   3.893   2.641 -0.6006 -0.1015 -0.0193
   14DG     O10  309   4.551   3.539   2.921  0.1970  0.5420  0.2434
   14DG     C11  310   4.768   3.934   2.726 -0.1111  0.6357 -0.7802
   14DG     C12  311   4.672   3.554   2.998 -0.3452  0.1538  0.0109
   14DG     H13  312   4.779   4.043   2.724 -1.8053  0.8599  0.1008
   14DG     H14  313   4.852   3.887   2.674 -0.5979  0.6377 -1.5999
   14DG     H15  314   4.752   3.502   2.948 -0.5529 -0.9975  0.8401
   14DG     H16  315   4.674   3.505   3.095  1.6204  2.9192  1.5023
   14DG     C17  316   4.746   3.885   2.869  0.3325 -0.0894 -0.5142
   14DG     C18  317   4.715   3.702   3.015 -0.2407 -0.4062 -0.7605
   14DG     O19  318   4.723   3.748   2.882 -0.3672  0.2731 -0.2225
   14DG     H20  319   4.657   3.932   2.912  1.4600  0.4479  1.3742
   14DG     H21  320   4.835   3.915   2.924  0.3299  0.2751 -0.7086
   14DG     H22  321   4.641   3.766   3.064  0.4377 -1.3318  1.6011
   14DG     H23  322   4.812   3.704   3.063  0.4953  1.4421 -2.1896
   15DG      C1  323   2.316   0.468   4.549  0.3743  0.2631  0.0938
   15DG      C2  324   1.877   0.830   4.243  0.4840 -0.4522  0.6370
   15DG      H3  325   2.349   0.365   4.567  2.1959  0.1697 -3.1034
   15DG      H4  326   2.279   0.516   4.640 -1.5603 -0.8314 -0.0402
   15DG      H5  327   2.399   0.528   4.515  0.3127  0.6240  0.5634
   15DG      H6  328   1.824   0.875   4.159  2.0567  0.0606 -0.1256
   15DG      H7  329   1.805   0.838   4.324  1.8688  2.9196  1.7143
   15DG      H8  330   1.963   0.892   4.269  0.1823 -0.2462  1.1464
   15DG      O9  331   2.211   0.456   4.446  0.2148  0.1390 -0.4575
   15DG     O10  332   1.920   0.702   4.213  0.2718 -0.0096 -0.1067
   15DG     C11  333   2.254   0.385   4.335 -0.1234 -0.0052  0.5226
   15DG     C12  334   1.979   0.693   4.086 -0.0084  1.3384  0.1292
   15DG     H13  335   2.272   0.280   4.361 -3.1479 -0.7297  0.0780
   15DG     H14  336   2.346   0.432   4.301 -0.5689  0.9128  0.5794
   15DG     H15  337   2.070   0.750   4.065  2.2073 -2.3666 -1.4288
   15DG     H16  338   1.903   0.707   4.009 -1.7046  0.7234  1.6237
   15DG     C17  339   2.154   0.395   4.215 -0.1286  0.1322  0.5235
   15DG     C18  340   2.019   0.543   4.086  0.1683 -0.4192 -0.3467
   15DG     O19  341   2.113   0.530   4.203  0.1946  0.0872  0.1123
   15DG     H20  342   2.064   0.336   4.226 -0.9668  0.4263 -3.2043
   15DG     H21  343   2.212   0.364   4.127  1.6327 -0.4381  1.8310
   15DG     H22  344   1.930   0.481   4.100 -1.8350  2.4260  0.6130
   15DG     H23  345   2.068   0.511   3.995  0.6927  0.1802 -0.2825
   16DG      C1  346   3.462   2.838   1.400  0.0557  0.0025 -0.0758
   16DG      C2  347   3.064   2.651   1.332  0.3545 -0.1995 -0.5063
   16DG      H3  348   3.538   2.885   1.462 -1.0526  2.1046 -0.2039
   16DG      H4  349   3.483   2.732   1.386  0.5262  0.2907 -1.7353
   16DG      H5  350   3.371   2.846   1.460  0.4165 -0.8459  0.6068
   16DG      H6  351   3.035   2.683   1.432  1.5199 -0.4357 -0.0747
   16DG      H7  352   2.994   2.583   1.283 -0.9814  0.9738 -0.3031
   16DG      H8  353   3.152   2.589   1.346 -0.0427 -0.4297  1.2017
   16DG      O9  354   3.459   2.886   1.264 -0.1656  0.4889 -0.3549
   16DG     O10  355   3.090   2.751   1.229 -0.0434 -0.4405 -0.6321
   16DG     C11  356   3.413   3.016   1.255  0.2410  0.4632 -0.0168
   16DG     C12  357   2.999   2.864   1.229  0.0680  0.2602  0.3372
   16DG     H13  358   3.451   3.056   1.160  1.0074  0.5530  0.3216
   16DG     H14  359   3.449   3.075   1.339 -0.9430 -0.9665  1.5545
   16DG     H15  360   2.981   2.921   1.320 -0.7437 -0.3404  0.5633
   16DG     H16  361   2.901   2.841   1.188  0.2712  1.5462 -0.9832
   16DG     C17  362   3.261   3.017   1.269  0.2168 -0.3826 -0.2510
   16DG     C18  363   3.070   2.966   1.141 -0.0004  0.1869 -0.4720
   16DG     O19  364   3.217   2.957   1.151 -0.0233 -0.2403  0.0732
   16DG     H20  365   3.224   3.120   1.267  0.7633 -0.1797 -0.0657
   16DG     H21  366   3.226   2.968   1.360  1.6685  0.6585  0.9290
   16DG     H22  367   3.043   2.937   1.039 -0.4494  1.5683 -0.7653
   16DG     H23  368   3.050   3.071   1.162 -0.0052  0.6383 -2.4763
   17DG      C1  369   0.151   0.275   1.113 -0.3474  0.2073 -0.3498
   17DG      C2  370  -0.080   0.211   0.515 -0.2575  0.5456 -0.0960
   17DG      H3  371   0.150   0.306   1.218  0.9812  0.5635 -0.4263
   17DG      H4  372   0.237   0.211   1.098 -2.7806 -2.6858 -3.5013
   17DG      H5  373   0.057   0.221   1.097 -1.1991  1.9236 -1.4316
   17DG      H6  374  -0.172   0.165   0.551 -0.3506 -0.2248 -1.2646
   17DG      H7  375  -0.086   0.243   0.411  1.1851  1.2673  0.0170
   17DG      H8  376  -0.018   0.122   0.512 -0.9834 -0.0189  1.0132
   17DG      O9  377   0.147   0.391   1.021  0.0826 -0.0838  0.7432
   17DG     O10  378  -0.020   0.309   0.589 -0.3430 -0.6943 -0.6985
   17DG     C11  379   0.032   0.471   1.039  0.4701  0.8169 -0.3409
   17DG     C12  380  -0.088   0.432   0.592  0.2094  0.3419  0.6154
   17DG     H13  381   0.043   0.539   1.124  2.4793 -0.0152  0.1203
   17DG     H14  382  -0.059   0.411   1.047  0.6623  0.6441  0.7457
   17DG     H15  383  -0.189   0.411   0.628 -0.2154 -0.9709 -1.1887
   17DG     H16  384  -0.092   0.476   0.492  1.4682 -1.0749 -0.1020
   17DG     C17  385   0.006   0.554   0.918 -0.4304  0.3356 -0.4318
   17DG     C18  386  -0.010   0.528   0.679  0.2101  0.0464 -0.0299
   17DG     O19  387   0.001   0.469   0.803 -0.3217 -0.0500  0.1459
   17DG     H20  388   0.075   0.637   0.898 -0.2007  0.2985  0.1880
   17DG     H21  389  -0.093   0.599   0.923 -1.5031 -1.9922  1.3666
   17DG     H22  390   0.085   0.556   0.632  0.0901 -1.5069 -1.2772
   17DG     H23  391  -0.073   0.616   0.689 -1.0096 -0.8406  0.2824
   18DG      C1  392   5.098   5.487   2.811 -0.0706 -0.2835 -0.1684
   18DG      C2  393   5.278   6.065   3.144 -0.8200  0.5402 -0.0829
   18DG      H3  394   5.009   5.438   2.772  0.7595 -3.5802  1.6677
   18DG      H4  395   5.175   5.409   2.813  0.0939 -0.1115  0.3570
   18DG      H5  396   5.125   5.568   2.744 -1.5179 -0.0232 -0.4670
   18DG      H6  397   5.374   6.054   3.093  0.2685 -1.4140  2.2119
   18DG      H7  398   5.216   6.131   3.082 -0.2047 -0.6605 -2.0858
   18DG      H8  399   5.308   6.109   3.239 -1.5182  1.2168 -0.1683
   18DG      O9  400   5.080   5.547   2.937  0.4118  0.2259  0.0773
   18DG     O10  401   5.217   5.937   3.154 -0.0846  0.7218  0.0590
   18DG     C11  402   4.991   5.657   2.936 -0.2058  0.1983  0.4561
   18DG     C12  403   5.092   5.941   3.205  0.5807  0.1267 -0.2129
   18DG     H13  404   4.899   5.627   2.886 -0.8936  2.7428  0.0766
   18DG     H14  405   5.031   5.748   2.892  0.2424 -0.1838  0.0620
   18DG     H15  406   5.027   5.968   3.122 -0.1208 -1.4089 -0.2094
   18DG     H16  407   5.078   6.012   3.286  0.2715 -1.3595  1.0928
   18DG     C17  408   4.961   5.694   3.084 -0.4468  0.0199 -0.4171
   18DG     C18  409   5.055   5.804   3.266 -0.7669 -0.2548  0.4835
   18DG     O19  410   5.080   5.710   3.163  0.2592  0.2558  0.1306
   18DG     H20  411   4.908   5.610   3.129 -0.9946 -0.2882 -1.5979
   18DG     H21  412   4.902   5.784   3.101  1.8347  1.3763  0.8728
   18DG     H22  413   5.133   5.784   3.339  1.5561  1.9582 -1.2064
   18DG     H23  414   4.959   5.806   3.317  0.1572  1.1380  2.3061
   19DG      C1  415   2.900   3.503   2.817  0.3747  0.3036 -0.0500
   19DG      C2  416   3.287   3.763   3.282  0.6314  0.1418  0.1898
   19DG      H3  417   2.854   3.491   2.719  0.5142  0.2103 -0.1040
   19DG      H4  418   2.834   3.552   2.889  2.3004 -0.5818  2.4920
   19DG      H5  419   2.904   3.401   2.856  0.0255 -0.8097 -2.7312
   19DG      H6  420   3.284   3.856   3.340  2.8016  0.4909 -0.1900
   19DG      H7  421   3.228   3.688   3.335  0.4109 -0.3801 -0.7909
   19DG      H8  422   3.386   3.718   3.270  0.1622 -1.6069  2.2270
   19DG      O9  423   3.028   3.559   2.818  0.1635 -0.1370  0.7886
   19DG     O10  424   3.222   3.774   3.154  0.4684 -0.1923  0.5156
   19DG     C11  425   3.039   3.673   2.739 -0.7904  0.2312  0.4388
   19DG     C12  426   3.291   3.865   3.071 -1.2243 -0.1691  0.5821
   19DG     H13  427   2.974   3.749   2.783 -3.2015 -2.2215  1.4496
   19DG     H14  428   3.010   3.647   2.637 -1.6022 -1.4482  1.0442
   19DG     H15  429   3.391   3.822   3.063 -0.2935  2.0992 -1.4276
   19DG     H16  430   3.296   3.966   3.113  1.8980 -0.3631  0.9605
   19DG     C17  431   3.191   3.712   2.743 -0.5929  0.8412  0.1745
   19DG     C18  432   3.231   3.866   2.928  0.2860  0.6034 -0.6252
   19DG     O19  433   3.237   3.733   2.876 -0.2496 -0.3018 -0.2191
   19DG     H20  434   3.208   3.803   2.684 -0.5681  1.4233  1.0516
   19DG     H21  435   3.248   3.628   2.704 -0.2201  1.0796  0.2012
   19DG     H22  436   3.125   3.892   2.930 -0.1188 -0.9652  1.2887
   19DG     H23  437   3.283   3.937   2.864  0.3291 -1.5347 -3.0931
   20DG      C1  438   4.139   1.092   3.183 -0.0633  0.2702  0.0360
   20DG      C2  439   4.209   1.760   2.949  0.0974  0.6390  0.2711
   20DG      H3  440   4.177   0.990   3.181 -1.2818 -0.1896 -0.6512
   20DG      H4  441   4.048   1.084   3.124  1.0004 -1.3658 -1.4624
   20DG      H5  442   4.117   1.116   3.288 -1.0651 -0.1165 -0.0768
   20DG      H6  443   4.269   1.839   2.903  0.3895  0.5894  0.5600
   20DG      H7  444   4.125   1.744   2.882 -0.5169 -0.4014  1.2704
   20DG      H8  445   4.166   1.804   3.039 -1.1506  3.7202 -1.6826
   20DG      O9  446   4.213   1.196   3.127  0.1641  0.3416 -0.3974
   20DG     O10  447   4.286   1.646   2.947  0.1700  0.1827 -0.3977
   20DG     C11  448   4.346   1.199   3.181  0.4932 -0.1230  0.0062
   20DG     C12  449   4.398   1.648   3.030  0.4434  0.4109  0.2290
   20DG     H13  450   4.385   1.098   3.172 -2.8112 -1.4844 -0.6641
   20DG     H14  451   4.332   1.240   3.281  2.2411 -0.8318  0.5840
   20DG     H15  452   4.365   1.668   3.132  0.9842 -1.7201  0.8628
   20DG     H16  453   4.466   1.730   3.006 -0.3486  0.5489 -1.7492
   20DG     C17  454   4.439   1.295   3.107 -0.1478  0.4207 -0.1047
   20DG     C18  455   4.472   1.515   3.034  0.7305 -0.2317  0.3026
   20DG     O19  456   4.398   1.426   3.114 -0.0940  0.5050 -0.1133
   20DG     H20  457   4.423   1.265   3.003  0.6992 -0.8644  0.1058
   20DG     H21  458   4.541   1.269   3.133  0.0309  1.0887 -0.1314
   20DG     H22  459   4.463   1.472   2.935 -2.4217  1.3823 -0.2467
   20DG     H23  460   4.578   1.512   3.058  1.0172 -0.7453 -0.9384
   21DG      C1  461   0.258   3.386   3.395 -0.1835  0.0663 -0.2965
   21DG      C2  462  -0.171   2.919   3.127 -0.6617 -0.0816 -0.0192
   21DG      H3  463   0.221   3.476   3.346  1.0588  0.4155 -0.6390
   21DG      H4  464   0.366   3.396   3.406 -0.4467  2.3383  0.8006
   21DG      H5  465   0.210   3.375   3.492 -0.4459 -1.3668 -0.5583
   21DG      H6  466  -0.243   2.969   3.193 -0.5823  0.0673 -0.0454
   21DG      H7  467  -0.194   2.944   3.024 -0.6244  0.7428  0.1705
   21DG      H8  468  -0.207   2.818   3.149 -3.3591  0.6574 -0.6484
   21DG      O9  469   0.238   3.265   3.328 -0.5803 -0.1090  0.2086
   21DG     O10  470  -0.037   2.949   3.173 -0.4887 -0.3253  0.2222
   21DG     C11  471   0.323   3.257   3.210  0.0694  0.3334  0.3540
   21DG     C12  472   0.050   2.901   3.079 -0.5411  0.5876 -0.3233
   21DG     H13  473   0.428   3.281   3.229  0.7769 -3.1002  1.5227
   21DG     H14  474   0.282   3.314   3.127 -0.8760 -0.3992  0.2982
   21DG     H15  475   0.039   2.935   2.976  0.5904  0.2199 -0.5770
   21DG     H16  476   0.043   2.793   3.075  1.3575  0.4208  0.0696
   21DG     C17  477   0.335   3.109   3.167  0.3045 -0.4060 -0.5730
   21DG     C18  478   0.189   2.932   3.127 -0.2456  0.2180 -0.0816
   21DG     O19  479   0.205   3.067   3.138  0.7984 -0.5264  0.2955
   21DG     H20  480   0.388   3.045   3.238  2.2700  0.7946 -0.8766
   21DG     H21  481   0.397   3.103   3.078 -1.5901 -0.3705 -1.9411
   21DG     H22  482   0.214   2.900   3.228  2.4245  1.1900 -0.3495
   21DG     H23  483   0.262   2.897   3.054 -1.0408  0.2535 -0.9124
   22DG      C1  484   0.338   2.689   0.164  0.1780 -0.2457 -0.4532
   22DG      C2  485   0.144   2.090   0.327  0.3843  0.3515  0.0161
   22DG      H3  486   0.257   2.734   0.221  0.8611  0.9348 -0.4028
   22DG      H4  487   0.392   2.774   0.123 -2.0842  1.1970 -0.5975
   22DG      H5  488   0.398   2.639   0.240 -1.5926  0.0207  1.1941
   22DG      H6  489   0.168   1.985   0.345 -0.4657  0.3377  1.1275
   22DG      H7  490   0.201   2.154   0.394 -0.6227  1.4349 -0.1249
   22DG      H8  491   0.036   2.092   0.341  0.4296 -0.7176  0.6242
   22DG      O9  492   0.298   2.592   0.064 -0.6448 -0.0417 -0.0276
   22DG     O10  493   0.151   2.139   0.195  0.1345  0.2442  0.6478
   22DG     C11  494   0.401   2.550  -0.024 -0.8220  0.0972 -0.2261
   22DG     C12  495   0.283   2.119   0.148  0.5013  0.0758  0.1921
   22DG     H13  496   0.500   2.553   0.021 -1.3025 -2.7023  1.2796
   22DG     H14  497   0.404   2.617  -0.110 -1.0120  1.4238  0.7803
   22DG     H15  498   0.310   2.014   0.137  1.6243  0.5959 -2.7749
   22DG     H16  499   0.355   2.170   0.211 -0.3221  2.4050 -0.6461
   22DG     C17  500   0.358   2.413  -0.073 -0.0028 -0.6572  0.3094
   22DG     C18  501   0.300   2.195   0.010 -0.2498 -0.3466 -0.0136
   22DG     O19  502   0.311   2.339   0.036  0.0866 -0.6046 -0.5053
   22DG     H20  503   0.443   2.357  -0.112  0.1696 -0.6139  0.6132
   22DG     H21  504   0.284   2.418  -0.152  1.6097  0.6767 -1.1974
   22DG     H22  505   0.391   2.157  -0.037  2.4066  2.6079  2.2762
   22DG     H23  506   0.221   2.182  -0.063  0.0313 -0.4956 -0.2946
   23DG      C1  507   0.540   1.671   1.534 -0.1415 -0.1975  0.0008
   23DG      C2  508   0.875   1.306   1.267  0.5276  0.5952  0.0546
   23DG      H3  509   0.480   1.580   1.532 -1.2909  0.5554 -0.5614
   23DG      H4  510   0.474   1.733   1.475  0.6641 -1.4135 -2.2984
   23DG      H5  511   0.550   1.717   1.633  0.0797  0.1730 -0.1925
   23DG      H6  512   0.778   1.258   1.268  0.8243 -0.0075 -0.1470
   23DG      H7  513   0.933   1.253   1.192 -1.9593 -0.9606 -0.8796
   23DG      H8  514   0.923   1.284   1.363 -1.2015  2.9372  1.5912
   23DG      O9  515   0.670   1.645   1.481  0.7047  1.0839  0.1927
   23DG     O10  516   0.874   1.442   1.239 -0.5691 -0.2130 -0.0095
   23DG     C11  517   0.761   1.749   1.495  0.3756  0.4310 -0.1379
   23DG     C12  518   1.005   1.500   1.235  0.2656  0.2955 -0.6051
   23DG     H13  519   0.771   1.783   1.598  0.1896  0.5377 -0.1548
   23DG     H14  520   0.717   1.831   1.439 -1.9071  0.1680  1.1349
   23DG     H15  521   1.073   1.453   1.163  1.6633 -0.0611  0.8887
   23DG     H16  522   1.057   1.481   1.329 -1.3315  5.0806  1.5101
   23DG     C17  523   0.907   1.725   1.444  0.5321 -0.1397  0.3963
   23DG     C18  524   0.992   1.660   1.228  0.8450  0.1903 -0.3288
   23DG     O19  525   0.875   1.699   1.306 -0.6446 -0.2803  0.2232
   23DG     H20  526   0.969   1.646   1.487  0.4558 -0.4697 -0.0859
   23DG     H21  527   0.957   1.821   1.448  0.2835  0.1350 -1.7741
   23DG     H22  528   1.086   1.709   1.253  0.6036  1.0900 -1.1187
   23DG     H23  529   0.954   1.675   1.127 -2.2395 -0.1694  0.6601
   24DG      C1  530   3.949   2.584   3.416 -0.6182  0.1024  0.3357
   24DG      C2  531   4.213   2.034   3.301  0.0429 -0.5179 -0.1390
   24DG      H3  532   3.915   2.489   3.457  0.6401 -0.0915  1.0199
   24DG      H4  533   3.912   2.603   3.316  0.9264 -0.0144 -0.2806
   24DG      H5  534   3.926   2.661   3.489  1.3949 -0.9750  2.2515
   24DG      H6  535   4.169   2.054   3.203  0.8314  1.3046 -0.1694
   24DG      H7  536   4.320   2.048   3.284 -0.0963 -0.4486 -1.0332
   24DG      H8  537   4.197   1.929   3.325  1.8572 -0.9069 -0.4274
   24DG      O9  538   4.090   2.562   3.398 -0.2306 -0.0351  0.1411
   24DG     O10  539   4.171   2.119   3.408  0.0039  0.0469  0.4064
   24DG     C11  540   4.174   2.572   3.513 -0.3427  0.0820  0.0921
   24DG     C12  541   4.250   2.110   3.524 -0.1392 -0.2472  0.4871
   24DG     H13  542   4.159   2.667   3.566  0.1792 -0.6599  1.6320
   24DG     H14  543   4.278   2.571   3.481 -0.0339  1.3177  0.9367
   24DG     H15  544   4.356   2.132   3.511 -0.2728  1.0069  1.4180
   24DG     H16  545   4.236   2.014   3.574  0.2763 -0.3237  0.4618
   24DG     C17  546   4.155   2.456   3.609 -0.9026  0.4369 -0.3360
   24DG     C18  547   4.186   2.212   3.616 -0.3826 -0.2128  0.0386
   24DG     O19  548   4.166   2.327   3.542 -0.0991 -0.2412  0.3073
   24DG     H20  549   4.062   2.469   3.665 -1.2900  1.6470 -1.2277
   24DG     H21  550   4.227   2.467   3.690 -1.2343  3.0133 -0.3020
   24DG     H22  551   4.092   2.180   3.661 -0.0224 -1.3259  0.0398
   24DG     H23  552   4.251   2.227   3.703  1.5822  0.1331 -1.4348
   25DG      C1  553   3.579   2.769   4.914  0.6236  0.2811 -0.2309
   25DG      C2  554   3.352   2.540   5.502  0.7772  0.2714  0.0731
   25DG      H3  555   3.560   2.775   4.807  0.1825 -3.4669 -0.5049
   25DG      H4  556   3.650   2.688   4.933  0.5245 -0.3134 -2.1290
   25DG      H5  557   3.618   2.867   4.940  0.5796  1.2997 -3.5080
   25DG      H6  558   3.387   2.438   5.493  3.0000  0.8139  1.7993
   25DG      H7  559   3.434   2.607   5.527  0.8367  0.9878 -1.8550
   25DG      H8  560   3.270   2.541   5.573  0.1112  0.2646 -0.6783
   25DG      O9  561   3.458   2.740   4.989  0.1091 -0.0960 -0.2660
   25DG     O10  562   3.308   2.590   5.374  0.0235  0.4086  0.3813
   25DG     C11  563   3.362   2.666   4.911 -0.0123  0.1152 -0.4330
   25DG     C12  564   3.195   2.520   5.316 -0.1323  0.3462  0.2185
   25DG     H13  565   3.402   2.568   4.887  0.2614  0.0092  0.4409
   25DG     H14  566   3.343   2.721   4.818 -2.5681  0.2064  0.0586
   25DG     H15  567   3.120   2.506   5.394 -1.2558 -2.5667 -1.2180
   25DG     H16  568   3.221   2.415   5.298  1.0612  0.8747 -1.3517
   25DG     C17  569   3.232   2.656   4.984 -0.9515 -0.2311  0.0885
   25DG     C18  570   3.150   2.574   5.184  0.1231  0.7073  0.9345
   25DG     O19  571   3.268   2.611   5.111  0.0622  0.0901  0.1745
   25DG     H20  572   3.170   2.586   4.928  0.4867 -1.0272 -0.5625
   25DG     H21  573   3.178   2.749   4.997  0.2074  1.0143 -3.0430
   25DG     H22  574   3.089   2.511   5.119  0.2900  3.3832 -2.0382
   25DG     H23  575   3.094   2.665   5.205 -1.0255 -0.4685  3.2881
   26DG      C1  576   4.292   1.873   5.466  0.2943  0.6741 -0.2232
   26DG      C2  577   4.652   1.455   5.816  0.5061  0.5666  0.0817
   26DG      H3  578   4.212   1.810   5.429 -0.7031  1.5371  0.4000
   26DG      H4  579   4.386   1.861   5.412 -0.6027  1.3003 -1.9774
   26DG      H5  580   4.273   1.977   5.439  2.6764  0.7813 -1.8197
   26DG      H6  581   4.687   1.397   5.901 -0.1890  1.1483  0.7754
   26DG      H7  582   4.589   1.398   5.747 -1.0148 -1.0634  2.6655
   26DG      H8  583   4.741   1.500   5.771 -0.4408  1.8885 -0.5128
   26DG      O9  584   4.317   1.853   5.601 -0.2039 -0.2754  0.4792
   26DG     O10  585   4.570   1.558   5.862 -0.0471  0.6951 -0.2005
   26DG     C11  586   4.199   1.848   5.676  0.2319  0.8520 -0.4278
   26DG     C12  587   4.456   1.522   5.936 -0.4445  0.0066 -0.2726
   26DG     H13  588   4.128   1.773   5.642  0.9812 -2.0615  3.6890
   26DG     H14  589   4.160   1.949   5.675  0.6959  1.0385  0.0671
   26DG     H15  590   4.492   1.498   6.036  1.9291  1.0446 -0.7903
   26DG     H16  591   4.411   1.433   5.894 -0.4118  0.9491 -2.4044
   26DG     C17  592   4.234   1.803   5.821 -0.8158 -0.0221 -0.1096
   26DG     C18  593   4.363   1.646   5.952 -0.6169  0.2471  0.1215
   26DG     O19  594   4.317   1.685   5.821 -0.3309 -0.1246  0.1461
   26DG     H20  595   4.142   1.803   5.878 -0.1512 -0.0133  0.9786
   26DG     H21  596   4.286   1.889   5.863  0.8380  0.0903 -2.2026
   26DG     H22  597   4.292   1.631   6.034  0.2730 -2.3894  0.5325
   26DG     H23  598   4.431   1.721   5.991 -1.3457  0.9793  0.0083
   27DG      C1  599   3.154   5.162   5.094 -0.0713  0.4242 -0.7741
   27DG      C2  600   2.782   5.360   4.585  0.2780 -0.2829 -0.2274
   27DG      H3  601   3.257   5.179   5.124 -0.1459  2.2683 -1.4256
   27DG      H4  602   3.138   5.060   5.059 -1.0778  0.2475  0.1559
   27DG      H5  603   3.117   5.161   5.196  0.8031  2.5625 -0.3848
   27DG      H6  604   2.719   5.432   4.533  1.8375  1.7450  0.5210
   27DG      H7  605   2.865   5.332   4.520  1.2189 -0.3109  0.9374
   27DG      H8  606   2.724   5.269   4.597 -1.4766  0.8862  0.6280
   27DG      O9  607   3.085   5.272   5.035 -0.1333  0.2411 -0.4632
   27DG     O10  608   2.831   5.407   4.704 -0.0373  0.3418  0.5833
   27DG     C11  609   3.151   5.394   5.071 -0.1466  0.2933  0.5452
   27DG     C12  610   2.917   5.524   4.690  0.2365  0.2383 -0.1972
   27DG     H13  611   3.247   5.407   5.023 -0.8145  2.0213 -0.4101
   27DG     H14  612   3.171   5.398   5.178 -1.5948  1.5216  0.8015
   27DG     H15  613   2.865   5.601   4.633 -1.3554  0.4117  1.4204
   27DG     H16  614   3.001   5.501   4.624  0.8635  0.1869  0.6002
   27DG     C17  615   3.061   5.507   5.030  0.0382  0.2728  0.0503
   27DG     C18  616   2.957   5.581   4.831  0.1973  0.1548  0.2712
   27DG     O19  617   3.016   5.467   4.902  0.0159 -0.1898 -0.6540
   27DG     H20  618   3.117   5.600   5.018  2.8706 -1.3977 -0.7341
   27DG     H21  619   2.971   5.525   5.089 -1.1429 -0.8540 -1.3287
   27DG     H22  620   3.037   5.654   4.821  0.3350  0.0666  0.7190
   27DG     H23  621   2.874   5.612   4.895 -0.6220 -0.3757 -0.5089
   28DG      C1  622   4.519   4.753   0.252  0.0977 -0.5960  0.1566
   28DG      C2  623   4.672   4.931  -0.379  0.1240 -0.2192 -0.3714
   28DG      H3  624   4.581   4.832   0.294 -2.1849  1.2152  0.3838
   28DG      H4  625   4.508   4.676   0.329  0.2355 -1.7086 -0.9028
   28DG      H5  626   4.416   4.787   0.234  0.2492  1.0451  2.0147
   28DG      H6  627   4.580   4.938  -0.436  0.3495 -0.4801 -0.7767
   28DG      H7  628   4.686   5.016  -0.313  1.6944  1.0775 -2.2423
   28DG      H8  629   4.758   4.921  -0.445  0.9924  0.4458  0.6262
   28DG      O9  630   4.591   4.707   0.134  0.4056 -0.2047  0.0312
   28DG     O10  631   4.650   4.818  -0.297  0.0802  0.5152  0.5576
   28DG     C11  632   4.536   4.582   0.083 -0.3225  0.5282 -0.2414
   28DG     C12  633   4.616   4.702  -0.368 -0.1654  0.1464 -0.8806
   28DG     H13  634   4.429   4.580   0.061 -0.0244  1.7565 -2.0177
   28DG     H14  635   4.552   4.504   0.157 -0.5046 -0.5377 -1.2882
   28DG     H15  636   4.690   4.691  -0.447 -2.2753 -1.1246 -2.8123
   28DG     H16  637   4.518   4.710  -0.415 -1.0563  0.9608  1.0177
   28DG     C17  638   4.609   4.543  -0.043 -0.3428 -1.0521  0.1811
   28DG     C18  639   4.631   4.589  -0.271 -0.1440  0.0501  0.0948
   28DG     O19  640   4.573   4.637  -0.143 -0.5480 -0.1483  0.2480
   28DG     H20  641   4.577   4.441  -0.064  1.0831 -1.2389 -1.2970
   28DG     H21  642   4.715   4.533  -0.022 -0.5911  0.5301  2.5503
   28DG     H22  643   4.586   4.500  -0.315  1.2543 -0.3182 -0.6344
   28DG     H23  644   4.737   4.570  -0.257 -0.0850  1.0893  1.1876
   29DG      C1  645   2.100   2.465   5.210  0.0302 -0.3706  0.3085
   29DG      C2  646   2.558   1.886   5.183 -0.0086 -0.2831 -0.1005
   29DG      H3  647   2.191   2.511   5.250  1.1367 -0.7540 -1.6010
   29DG      H4  648   2.037   2.432   5.292 -0.8718  0.7884  0.0948
   29DG      H5  649   2.048   2.542   5.154  1.9943  1.6154  1.0452
   29DG      H6  650   2.597   1.933   5.273  0.6545  1.1624 -1.1043
   29DG      H7  651   2.517   1.788   5.209  2.1499 -1.2994 -0.3334
   29DG      H8  652   2.642   1.862   5.118  0.2549  1.8497 -0.6150
   29DG      O9  653   2.157   2.365   5.134 -0.0272 -0.0542  0.1318
   29DG     O10  654   2.466   1.981   5.126 -0.1611 -0.3820 -0.6775
   29DG     C11  655   2.071   2.304   5.042  0.2926  0.7483  0.2302
   29DG     C12  656   2.375   1.919   5.029 -0.4451  0.9847 -0.8793
   29DG     H13  657   2.017   2.374   4.978 -1.4016 -1.3313 -0.7476
   29DG     H14  658   1.999   2.241   5.094  0.7329  0.2470  0.2483
   29DG     H15  659   2.315   1.844   5.081  4.2483 -1.7848  1.1809
   29DG     H16  660   2.422   1.847   4.962 -1.8348  1.4845 -2.4577
   29DG     C17  661   2.144   2.205   4.961 -0.2308 -0.2148  0.1158
   29DG     C18  662   2.288   2.015   4.952 -0.1557  0.7959  0.2100
   29DG     O19  663   2.201   2.098   5.031 -0.0649  0.5249  0.2702
   29DG     H20  664   2.230   2.260   4.923  0.9849 -1.4097  1.0728
   29DG     H21  665   2.080   2.165   4.882 -2.9279 -1.7052  2.8764
   29DG     H22  666   2.351   2.074   4.886 -2.3525  2.1596 -0.7818
   29DG     H23  667   2.215   1.966   4.888 -0.3424 -0.4378  1.3121
   30DG      C1  668   0.789   5.054   1.885  0.3664 -0.2011 -0.3249
   30DG      C2  669   0.674   4.725   1.347  0.0137 -0.1369 -0.0215
   30DG      H3  670   0.684   5.027   1.890  0.6716 -1.2716  2.7478
   30DG      H4  671   0.794   5.156   1.848 -0.2967  0.8359  2.2528
   30DG      H5  672   0.825   5.057   1.988 -2.4543  1.3653  0.6891
   30DG      H6  673   0.708   4.624   1.373  3.4362  0.7011 -0.6739
   30DG      H7  674   0.577   4.741   1.392  0.0573  0.4407 -0.1264
   30DG      H8  675   0.670   4.731   1.238  0.2843 -0.1257 -0.0327
   30DG      O9  676   0.867   4.969   1.802 -0.1162 -0.4375 -0.4158
   30DG     O10  677   0.777   4.816   1.393  0.5679 -0.1575 -0.4106
   30DG     C11  678   0.873   4.831   1.833 -0.2634 -0.5222 -0.0538
   30DG     C12  679   0.912   4.771   1.366  0.8300  0.0352 -0.1126
   30DG     H13  680   0.771   4.792   1.833 -0.3890 -0.2202  0.6340
   30DG     H14  681   0.916   4.816   1.933 -1.0990  3.4950  1.0616
   30DG     H15  682   0.967   4.861   1.339 -3.0372  2.3784 -1.0435
   30DG     H16  683   0.922   4.699   1.285 -2.1886 -0.5342 -0.0964
   30DG     C17  684   0.966   4.767   1.733  0.2709  0.3783  0.3550
   30DG     C18  685   0.970   4.709   1.492 -0.3174 -0.2359 -0.1461
   30DG     O19  686   0.936   4.806   1.601  0.8641  1.0576  0.1517
   30DG     H20  687   0.970   4.659   1.752 -0.6838  0.0428 -1.2082
   30DG     H21  688   1.067   4.799   1.756 -0.4144  0.5817  3.6539
   30DG     H22  689   0.928   4.610   1.514 -1.5324  0.3329  0.2234
   30DG     H23  690   1.077   4.691   1.483 -0.1337  0.1449  1.0548
   31DG      C1  691   2.732   4.922   2.035  0.6598 -0.3206  0.1677
   31DG      C2  692   3.248   4.644   1.898 -0.0013 -0.1921  0.0979
   31DG      H3  693   2.727   4.903   1.927 -4.1056 -0.1424  0.1481
   31DG      H4  694   2.645   4.985   2.054  0.1810 -1.1479  0.7463
   31DG      H5  695   2.705   4.825   2.074 -1.4435  0.7139  1.4074
   31DG      H6  696   3.199   4.555   1.937 -0.4493  0.1638  0.3649
   31DG      H7  697   3.294   4.609   1.806  1.1701  3.2319 -0.7833
   31DG      H8  698   3.324   4.678   1.968 -1.4318 -1.0029  2.1337
   31DG      O9  699   2.862   4.961   2.083  0.7215 -0.4815  0.4990
   31DG     O10  700   3.150   4.741   1.868 -0.1595  0.9033  0.4107
   31DG     C11  701   2.896   5.096   2.046 -0.0068 -0.3029 -0.6800
   31DG     C12  702   3.205   4.840   1.787  0.0468  0.0672 -0.3940
   31DG     H13  703   2.978   5.134   2.107 -1.0604  0.5101  0.2623
   31DG     H14  704   2.822   5.175   2.044  1.2655  0.9285 -0.8804
   31DG     H15  705   3.202   4.800   1.685  1.6363 -0.8032 -0.1216
   31DG     H16  706   3.304   4.876   1.815  0.4261 -0.9643 -0.3897
   31DG     C17  707   2.955   5.093   1.909  0.2281  0.0290  0.4631
   31DG     C18  708   3.106   4.953   1.771 -0.3113 -0.9500  0.6852
   31DG     O19  709   3.059   4.996   1.898 -0.1909 -0.3896  0.1756
   31DG     H20  710   3.002   5.189   1.885  0.5937  0.3614  2.3792
   31DG     H21  711   2.882   5.069   1.832  1.8380 -0.7620 -0.8932
   31DG     H22  712   3.163   5.031   1.720  2.6979 -2.4598  1.5046
   31DG     H23  713   3.018   4.931   1.710  1.1028  2.2240 -2.9381
   32DG      C1  714   3.897   2.226   3.149  0.6348 -0.1549 -0.6750
   32DG      C2  715   4.528   2.460   3.236  0.7992 -0.0084  0.0686
   32DG      H3  716   3.802   2.268   3.181  1.2426  0.1063  0.8930
   32DG      H4  717   3.926   2.173   3.240  1.0572  2.8053  1.0147
   32DG      H5  718   3.882   2.159   3.064 -1.4522 -0.0922 -0.4018
   32DG      H6  719   4.566   2.426   3.139  0.5573  1.4463 -0.5533
   32DG      H7  720   4.596   2.540   3.264  1.1454 -0.4413  0.4968
   32DG      H8  721   4.539   2.383   3.313 -0.3368  0.3978  0.6517
   32DG      O9  722   3.992   2.322   3.119  0.0964  0.1452 -0.0146
   32DG     O10  723   4.394   2.504   3.215  0.0707  0.3483 -0.2139
   32DG     C11  724   3.950   2.413   3.025 -0.2931  0.4897 -0.3204
   32DG     C12  725   4.389   2.604   3.113 -0.1089  0.1977 -1.0042
   32DG     H13  726   3.842   2.430   3.016 -0.4801 -0.7943 -0.6222
   32DG     H14  727   3.974   2.360   2.934 -0.3870  0.0196 -0.0725
   32DG     H15  728   4.419   2.575   3.012  0.0785  1.8098 -1.4470
   32DG     H16  729   4.449   2.688   3.148 -0.5375  0.6209 -1.2634
   32DG     C17  730   4.024   2.548   3.035 -0.9896  0.0974 -0.1071
   32DG     C18  731   4.244   2.636   3.102  0.8484  0.0055  0.4455
   32DG     O19  732   4.162   2.522   3.058 -0.2634 -0.0651 -0.3912
   32DG     H20  733   3.985   2.609   3.117 -0.5435  0.2135  0.0190
   32DG     H21  734   4.012   2.603   2.942  3.1676 -1.7458 -1.9654
   32DG     H22  735   4.199   2.676   3.193 -0.6006  0.0752 -0.2772
   32DG     H23  736   4.226   2.720   3.035 -1.0614 -0.1884  0.6626
   33DG      C1  737   0.383   2.371   2.338 -0.6890  0.7877 -0.4394
   33DG      C2  738   0.787   2.894   2.102  0.0683  0.2401  0.1010
   33DG      H3  739   0.480   2.321   2.339 -0.8440  0.4851  0.5357
   33DG      H4  740   0.326   2.335   2.252  2.1274  0.0978 -2.1642
   33DG      H5  741   0.336   2.348   2.434  2.1116  3.7546  1.8992
   33DG      H6  742   0.858   2.813   2.114 -0.6197 -0.3359  0.3874
   33DG      H7  743   0.760   2.924   2.001  1.0024 -0.1593 -0.2753
   33DG      H8  744   0.838   2.975   2.155  0.3953 -0.5311  1.0006
   33DG      O9  745   0.396   2.509   2.318  0.2083 -0.0364 -0.5673
   33DG     O10  746   0.676   2.843   2.172  0.2006  0.2964 -0.0109
   33DG     C11  747   0.270   2.584   2.327  0.3801 -0.0046 -0.5592
   33DG     C12  748   0.564   2.923   2.158  0.5684 -0.0017 -0.9529
   33DG     H13  749   0.215   2.551   2.415 -0.6262  1.1554 -0.7322
   33DG     H14  750   0.216   2.558   2.236  0.6623  1.1487 -1.0781
   33DG     H15  751   0.525   2.918   2.057 -2.8990  0.6198  0.2090
   33DG     H16  752   0.593   3.028   2.158  1.6380 -0.2398  0.9881
   33DG     C17  753   0.288   2.737   2.334 -0.2267 -0.1403  0.7380
   33DG     C18  754   0.446   2.890   2.260  0.2952 -0.7631  0.2208
   33DG     O19  755   0.397   2.765   2.241  0.5365  0.1067  0.3055
   33DG     H20  756   0.303   2.759   2.440 -1.4860  1.7231  0.5876
   33DG     H21  757   0.192   2.776   2.302 -0.2543 -0.6025  0.2464
   33DG     H22  758   0.473   2.910   2.364  0.4674  0.0970  0.0136
   33DG     H23  759   0.362   2.959   2.255  1.7645  1.2277  1.5199
   34DG      C1  760   4.549   0.224   0.979  0.0902 -0.1026 -0.0663
   34DG      C2  761   5.024   0.014   1.185  0.0513  0.5137 -0.6033
   34DG      H3  762   4.494   0.251   1.070 -2.4356 -1.1886 -1.1682
   34DG      H4  763   4.471   0.213   0.904 -0.9292  0.8769  0.8194
   34DG      H5  764   4.618   0.302   0.950  1.4665 -1.9152 -1.9497
   34DG      H6  765   4.961  -0.009   1.271  0.4379  0.3160 -0.3682
   34DG      H7  766   5.122  -0.033   1.196  0.0972  0.7669  0.0981
   34DG      H8  767   5.027   0.123   1.184  0.4961  0.5535  1.2652
   34DG      O9  768   4.631   0.106   0.991  0.4784 -0.1152 -0.3226
   34DG     O10  769   4.960  -0.026   1.065  0.0376 -0.5559 -0.1854
   34DG     C11  770   4.557  -0.015   0.986 -0.3619 -0.5464  0.2807
   34DG     C12  771   4.930  -0.162   1.067  0.0422 -0.3428 -0.5477
   34DG     H13  772   4.517  -0.025   0.885 -2.4108  1.1699  0.8445
   34DG     H14  773   4.480  -0.024   1.063  1.4159 -1.2220  2.0645
   34DG     H15  774   4.880  -0.193   1.159 -0.2211 -0.5383 -0.7514
   34DG     H16  775   5.028  -0.208   1.076  0.4463  0.3058 -1.5217
   34DG     C17  776   4.651  -0.137   0.995  0.7709  0.5591  0.3201
   34DG     C18  777   4.873  -0.203   0.934  0.0757 -0.1839  0.9354
   34DG     O19  778   4.764  -0.107   0.913 -0.0680  0.4567 -0.2017
   34DG     H20  779   4.600  -0.223   0.953 -1.3016  1.4417  0.9162
   34DG     H21  780   4.674  -0.152   1.100 -0.0743 -1.2659  0.2685
   34DG     H22  781   4.947  -0.182   0.857 -1.2290 -0.9420 -0.6050
   34DG     H23  782   4.849  -0.308   0.913  1.2376  0.1151 -2.4993
   35DG      C1  783   0.323   0.200   4.162  0.5441  0.3925  0.3693
   35DG      C2  784   0.089   0.053   3.637  0.1984  0.3413  0.3789
   35DG      H3  785   0.335   0.307   4.174 -1.9407  0.8506 -0.6518
   35DG      H4  786   0.400   0.150   4.221 -0.4308 -0.1621  1.2081
   35DG      H5  787   0.224   0.185   4.205 -2.2225  0.2191 -5.1049
   35DG      H6  788   0.028  -0.023   3.685 -0.1603  0.9919  0.9829
   35DG      H7  789   0.077   0.156   3.672  2.8986  0.5397  0.9128
   35DG      H8  790   0.079   0.055   3.529  0.5821  0.1345  0.3398
   35DG      O9  791   0.327   0.159   4.023  0.1166  0.5712  0.1887
   35DG     O10  792   0.223   0.005   3.666 -0.3505  0.6642 -0.1283
   35DG     C11  793   0.454   0.202   3.965  0.3703  0.0080  0.5330
   35DG     C12  794   0.313   0.077   3.579  0.1897 -1.0455  0.9659
   35DG     H13  795   0.539   0.142   3.997  0.7297 -0.3734 -1.0915
   35DG     H14  796   0.481   0.301   4.003  2.2708  0.0768 -0.8723
   35DG     H15  797   0.279   0.180   3.588  1.2152 -0.4815 -1.0170
   35DG     H16  798   0.293   0.048   3.476 -1.0420  0.9119  0.5978
   35DG     C17  799   0.443   0.201   3.813  0.4447  0.3798  0.2892
   35DG     C18  800   0.454   0.059   3.623 -0.7997  0.0525 -0.8177
   35DG     O19  801   0.449   0.067   3.770 -0.0263  0.2969  0.4299
   35DG     H20  802   0.524   0.260   3.770  1.1245 -0.9850 -0.3890
   35DG     H21  803   0.355   0.256   3.778  0.0367  0.2099  1.0309
   35DG     H22  804   0.484  -0.041   3.593  3.0619  0.5588  0.7783
   35DG     H23  805   0.517   0.136   3.578  0.1343  1.1730  2.1245
   36DG      C1  806   2.263   3.975   4.401 -0.2658 -0.4032 -0.5422
   36DG      C2  807   2.080   3.864   4.987 -0.2071 -0.3371  0.1559
   36DG      H3  808   2.364   4.012   4.423 -0.4423 -0.5471  0.5753
   36DG      H4  809   2.202   4.043   4.461  0.9700  0.8076 -0.6016
   36DG      H5  810   2.245   4.003   4.297  0.3326  1.7230 -0.1280
   36DG      H6  811   2.044   3.808   5.073  1.2408 -1.3505  0.1341
   36DG      H7  812   2.188   3.855   4.982 -0.3083 -2.0826  0.4347
   36DG      H8  813   2.058   3.971   4.985 -0.2036 -0.2784  1.7678
   36DG      O9  814   2.243   3.844   4.440  0.3648 -0.2478 -0.0730
   36DG     O10  815   2.028   3.803   4.866 -0.7866  0.3708 -0.1024
   36DG     C11  816   2.103   3.800   4.413 -0.2032 -0.2387  0.2526
   36DG     C12  817   2.059   3.661   4.861 -0.3637 -0.2537  0.7287
   36DG     H13  818   2.080   3.771   4.311  2.5724 -0.1431 -0.4884
   36DG     H14  819   2.031   3.877   4.442  0.6003  1.4728 -2.0087
   36DG     H15  820   1.995   3.601   4.926  0.3630 -1.0333  0.7488
   36DG     H16  821   2.163   3.643   4.890 -0.4189 -1.4841  0.2334
   36DG     C17  822   2.069   3.671   4.495 -0.3645  0.1040 -0.0977
   36DG     C18  823   2.036   3.613   4.719 -0.1204  0.6630 -0.0829
   36DG     O19  824   2.092   3.710   4.627 -0.1014 -0.2994  0.6415
   36DG     H20  825   2.128   3.586   4.461 -0.2635 -0.7757  2.1163
   36DG     H21  826   1.962   3.657   4.478 -0.6963 -0.5424  2.1921
   36DG     H22  827   2.090   3.520   4.700  2.7245  1.9626  1.0548
   36DG     H23  828   1.929   3.602   4.699  0.2577 -0.2592 -1.8771
   37DG      C1  829   1.781   4.612   4.376 -0.1843 -0.3907  0.7989
   37DG      C2  830   1.918   4.055   3.984 -0.3426 -0.5770  0.0697
   37DG      H3  831   1.812   4.657   4.281  2.7786 -1.6213  1.0844
   37DG      H4  832   1.865   4.617   4.445  2.0622  2.0320 -1.8422
   37DG      H5  833   1.693   4.666   4.411  1.2490  2.7273 -0.0263
   37DG      H6  834   2.025   4.034   3.987 -0.4787 -1.4141 -0.5471
   37DG      H7  835   1.872   3.960   3.956 -1.5321  0.3307 -1.1642
   37DG      H8  836   1.898   4.127   3.905 -2.1964  1.3800  2.1806
   37DG      O9  837   1.746   4.474   4.339  0.1401 -0.3893 -0.6951
   37DG     O10  838   1.871   4.107   4.109  0.5773 -0.3285  0.2939
   37DG     C11  839   1.699   4.398   4.454 -0.1098 -0.7033  0.1855
   37DG     C12  840   1.886   4.022   4.222  0.1780 -0.3249  0.4453
   37DG     H13  841   1.614   4.448   4.500  0.3425 -0.2098  0.4911
   37DG     H14  842   1.779   4.403   4.528 -0.1399 -1.0306  0.2448
   37DG     H15  843   1.983   4.043   4.268  0.3266  1.9458 -0.7600
   37DG     H16  844   1.880   3.917   4.194  1.1384  0.2005 -1.9565
   37DG     C17  845   1.666   4.255   4.422  0.4245  0.7726 -0.1690
   37DG     C18  846   1.764   4.058   4.310  0.3537 -0.5996  0.3286
   37DG     O19  847   1.766   4.199   4.330  0.3905  0.7632  0.0274
   37DG     H20  848   1.563   4.236   4.393 -0.2152 -1.1098  2.8831
   37DG     H21  849   1.667   4.201   4.516  1.6398 -0.3207 -0.7724
   37DG     H22  850   1.670   4.030   4.262  0.5265 -1.0624  0.2594
   37DG     H23  851   1.775   3.999   4.401 -2.7931 -0.1515  1.1196
   38DG      C1  852   0.744   3.584   1.369 -0.0254  0.4053 -0.4420
   38DG      C2  853   0.228   3.912   1.698  0.0926  1.6461  0.2406
   38DG      H3  854   0.836   3.581   1.427  0.1117 -1.9414 -0.7074
   38DG      H4  855   0.764   3.556   1.266  0.3677 -0.8138 -0.0461
   38DG      H5  856   0.689   3.495   1.399  2.0484 -1.3669 -1.6040
   38DG      H6  857   0.166   3.997   1.670 -0.3051  0.8335 -1.4776
   38DG      H7  858   0.168   3.823   1.677 -2.4071  3.1814  0.4568
   38DG      H8  859   0.253   3.902   1.804 -0.6711 -2.2309  0.1853
   38DG      O9  860   0.659   3.696   1.394 -0.1262 -0.0098 -0.1562
   38DG     O10  861   0.342   3.911   1.602 -0.3946 -0.0734 -0.3727
   38DG     C11  862   0.701   3.802   1.316  0.0723  0.2590  0.4097
   38DG     C12  863   0.429   4.023   1.635  0.5294 -0.1943 -0.0676
   38DG     H13  864   0.721   3.791   1.210 -0.4657  0.5476  0.2746
   38DG     H14  865   0.801   3.824   1.354  0.9283 -2.1888 -0.2585
   38DG     H15  866   0.487   4.019   1.727 -1.2744  0.6812  1.1795
   38DG     H16  867   0.362   4.108   1.650  0.5106  0.1601 -1.9130
   38DG     C17  868   0.606   3.921   1.339 -0.7358  0.3740 -0.8689
   38DG     C18  869   0.508   4.044   1.506 -0.6162 -0.5307 -0.0212
   38DG     O19  870   0.585   3.929   1.476  0.0852  0.6425 -0.0764
   38DG     H20  871   0.512   3.887   1.294 -1.5359 -0.8378  1.5027
   38DG     H21  872   0.643   4.017   1.304  1.2017  0.2975  0.8262
   38DG     H22  873   0.433   4.058   1.429 -1.7378 -0.1566  1.1144
   38DG     H23  874   0.571   4.133   1.512 -2.4130  0.6896  2.2573
   39DG      C1  875   0.283   2.999   1.164 -0.0379 -0.3844 -0.2193
   39DG      C2  876   0.897   3.114   0.960 -0.5914 -0.8940  0.9357
   39DG      H3  877   0.194   3.008   1.227  0.9253  0.1486  1.1089
   39DG      H4  878   0.293   2.891   1.151  1.6027 -0.5399  1.8041
   39DG      H5  879   0.264   3.050   1.070 -1.9362  0.9255  0.8132
   39DG      H6  880   0.849   3.052   0.885 -0.1823 -0.0102 -0.0821
   39DG      H7  881   0.902   3.213   0.914 -0.2034 -0.8588  1.0482
   39DG      H8  882   1.002   3.087   0.976 -0.1103  0.1008 -0.3775
   39DG      O9  883   0.405   3.040   1.230 -0.1934  0.6392 -0.7402
   39DG     O10  884   0.809   3.113   1.078  0.0696  0.3980 -0.0904
   39DG     C11  885   0.390   3.170   1.285  0.0662 -0.0628 -0.2278
   39DG     C12  886   0.857   3.190   1.184 -0.4226  0.1185  0.2422
   39DG     H13  887   0.322   3.171   1.370 -0.3204 -1.8020 -0.4856
   39DG     H14  888   0.370   3.245   1.209 -1.1199 -1.1377 -1.0073
   39DG     H15  889   0.863   3.291   1.144 -0.7769 -0.0361 -0.2068
   39DG     H16  890   0.956   3.153   1.210 -0.5811 -0.6897 -0.2549
   39DG     C17  891   0.533   3.199   1.345  0.5616  0.2961  0.2066
   39DG     C18  892   0.766   3.187   1.306  0.4469 -0.1926  0.4660
   39DG     O19  893   0.633   3.218   1.255  0.2857  0.7411  0.1446
   39DG     H20  894   0.560   3.120   1.415 -0.1618  0.2579  0.4576
   39DG     H21  895   0.521   3.288   1.407  0.9735 -0.2932  1.1604
   39DG     H22  896   0.764   3.086   1.346  0.8568 -0.3480  0.1008
   39DG     H23  897   0.797   3.257   1.383  1.4557  0.9329 -0.9144
   40DG      C1  898   4.715   0.142   3.715 -0.3818 -0.0095 -0.2000
   40DG      C2  899   5.134  -0.206   4.164  0.2091 -0.0601 -0.1181
   40DG      H3  900   4.807   0.192   3.686 -0.8572  0.0084 -1.7761
   40DG      H4  901   4.663   0.217   3.774 -0.5903 -1.1062  1.0633
   40DG      H5  902   4.657   0.129   3.624 -1.2119  0.2370  0.2853
   40DG      H6  903   5.141  -0.313   4.185 -0.3926  0.2779  1.9681
   40DG      H7  904   5.216  -0.179   4.097 -0.1224 -1.5749 -1.2007
   40DG      H8  905   5.153  -0.154   4.258 -0.8171  2.0875 -1.0288
   40DG      O9  906   4.740   0.025   3.785 -0.1082  0.0455  0.2968
   40DG     O10  907   5.008  -0.162   4.106 -0.1518 -0.2257  0.1161
   40DG     C11  908   4.618  -0.035   3.824  0.5953  0.6195  0.1926
   40DG     C12  909   4.893  -0.193   4.186 -0.2428 -0.4613  0.6757
   40DG     H13  910   4.573  -0.067   3.730  2.3484 -2.8759  0.3537
   40DG     H14  911   4.568   0.037   3.889  2.5402 -0.1076  2.6897
   40DG     H15  912   4.868  -0.103   4.242 -0.1064 -0.5420  0.8681
   40DG     H16  913   4.913  -0.271   4.260  0.9354 -0.0278  0.8260
   40DG     C17  914   4.647  -0.162   3.914  0.6114 -0.4692  0.1124
   40DG     C18  915   4.765  -0.239   4.105 -0.0830 -0.0538 -0.5482
   40DG     O19  916   4.727  -0.131   4.026  0.0070 -0.2634 -0.0066
   40DG     H20  917   4.706  -0.231   3.852  0.0298 -1.5371  0.7165
   40DG     H21  918   4.551  -0.198   3.950  0.5355  0.6279  1.0648
   40DG     H22  919   4.783  -0.332   4.051  0.8883 -0.9285  1.2140
   40DG     H23  920   4.688  -0.257   4.180  0.0469  0.3486 -0.3115
   41DG      C1  921   3.889   4.179   1.845  0.1150 -0.2956 -0.4618
   41DG      C2  922   4.335   4.645   2.101 -0.6005  0.2076  0.1667
   41DG      H3  923   3.840   4.136   1.758  0.0405 -1.1730  0.0034
   41DG      H4  924   3.839   4.272   1.870 -1.0857 -0.7395 -1.1477
   41DG      H5  925   3.884   4.112   1.930 -0.3552 -0.0084 -0.2626
   41DG      H6  926   4.440   4.669   2.120  0.1765  0.0694 -3.3133
   41DG      H7  927   4.289   4.740   2.077 -1.1181 -0.4180 -1.3980
   41DG      H8  928   4.294   4.599   2.191  1.6259 -2.1666  0.0979
   41DG      O9  929   4.032   4.196   1.826 -0.8378 -0.5986 -0.4985
   41DG     O10  930   4.320   4.537   2.004  0.7597  0.0270 -0.2072
   41DG     C11  931   4.074   4.239   1.694  0.2333  0.5160 -0.1727
   41DG     C12  932   4.396   4.549   1.886 -0.0223 -0.3471 -0.1241
   41DG     H13  933   4.008   4.323   1.674 -0.2620  0.3828  0.8295
   41DG     H14  934   4.051   4.167   1.616  0.0345  1.5008 -1.0483
   41DG     H15  935   4.500   4.558   1.916  0.6415 -3.3130 -1.1711
   41DG     H16  936   4.355   4.637   1.838  2.8502  0.6791 -0.9104
   41DG     C17  937   4.221   4.272   1.699 -0.0871  0.0611 -0.3139
   41DG     C18  938   4.369   4.415   1.815 -0.8663  0.2047 -0.0324
   41DG     O19  939   4.236   4.373   1.797  0.1730  0.5075  0.1217
   41DG     H20  940   4.252   4.303   1.600 -1.7813 -0.7398 -1.1213
   41DG     H21  941   4.286   4.193   1.739 -2.4236 -1.6344  0.3771
   41DG     H22  942   4.408   4.436   1.716 -1.6930 -0.3302 -0.4881
   41DG     H23  943   4.432   4.332   1.849  0.2066  1.4434  1.1340
   42DG      C1  944   1.302   4.461   4.836  0.3389 -0.2879  0.3202
   42DG      C2  945   1.425   3.946   5.286 -0.1380  0.0930 -0.0698
   42DG      H3  946   1.211   4.490   4.889  0.2507  0.6178 -0.3105
   42DG      H4  947   1.287   4.499   4.735 -1.8777 -0.5400  0.5081
   42DG      H5  948   1.401   4.491   4.870  1.5480 -2.4362 -1.0965
   42DG      H6  949   1.368   3.872   5.230 -2.4491  0.1696  1.9960
   42DG      H7  950   1.506   3.912   5.351  0.2771  0.8542 -0.1843
   42DG      H8  951   1.346   3.984   5.350  0.5465  0.0019  0.8480
   42DG      O9  952   1.312   4.320   4.835  0.4046 -0.0850  0.1746
   42DG     O10  953   1.474   4.052   5.200  0.3651  0.0406  0.1846
   42DG     C11  954   1.413   4.278   4.748 -0.5989 -0.2438  0.0538
   42DG     C12  955   1.562   3.994   5.100  0.3419  0.7063 -0.3011
   42DG     H13  956   1.423   4.348   4.665  0.2095  1.9681  1.9298
   42DG     H14  957   1.380   4.179   4.717  0.0160 -0.9506  1.5550
   42DG     H15  958   1.496   3.923   5.050 -1.0896  1.2495  0.7247
   42DG     H16  959   1.649   3.946   5.144  0.7242  0.9138 -0.8280
   42DG     C17  960   1.547   4.250   4.826  0.3345 -0.5699  1.0377
   42DG     C18  961   1.615   4.096   5.001  0.1637  0.0998  0.3899
   42DG     O19  962   1.512   4.152   4.925 -0.7091 -0.0310 -0.0394
   42DG     H20  963   1.577   4.334   4.887 -1.3158 -1.0040  2.5183
   42DG     H21  964   1.624   4.221   4.754 -1.1739 -0.1374 -0.8607
   42DG     H22  965   1.669   4.170   5.060 -0.8767  0.0628  1.4269
   42DG     H23  966   1.691   4.047   4.941 -0.2078  0.1685 -0.1395
   43DG      C1  967   1.985   2.016   5.291  0.4750 -0.3695  0.4379
   43DG      C2  968   2.474   2.526   5.243 -0.1519 -0.3578 -0.7768
   43DG      H3  969   1.945   1.918   5.318 -0.7711  0.5259  1.9513
   43DG      H4  970   1.976   2.019   5.182  3.3581 -1.3684  0.0724
   43DG      H5  971   1.923   2.096   5.331  1.6694  0.4728  0.6686
   43DG      H6  972   2.575   2.519   5.204  0.0196 -1.0299 -0.2214
   43DG      H7  973   2.418   2.554   5.153  0.9091  2.6781 -0.6326
   43DG      H8  974   2.470   2.611   5.311  1.5558 -0.6772 -0.2448
   43DG      O9  975   2.119   2.040   5.321  0.1878  0.0410 -0.0612
   43DG     O10  976   2.431   2.408   5.309 -0.0675  0.0472  0.2166
   43DG     C11  977   2.145   2.032   5.459  0.1230  0.2333 -0.1143
   43DG     C12  978   2.456   2.387   5.443 -0.6485 -0.0135 -0.4935
   43DG     H13  979   2.112   1.933   5.493  1.3434 -0.6979 -1.5446
   43DG     H14  980   2.091   2.112   5.510 -2.6706 -1.4941 -0.1254
   43DG     H15  981   2.389   2.438   5.512 -0.2741 -0.3757  0.1496
   43DG     H16  982   2.560   2.412   5.465 -0.0158 -0.6025 -2.5972
   43DG     C17  983   2.295   2.071   5.486  0.1224 -0.2596 -0.5426
   43DG     C18  984   2.448   2.239   5.462  0.7442 -0.1261 -0.2258
   43DG     O19  985   2.317   2.204   5.446  0.2418  0.0759  0.3422
   43DG     H20  986   2.366   1.999   5.443  2.0781  1.3010 -0.0657
   43DG     H21  987   2.301   2.061   5.594 -1.9329  0.1506 -0.3533
   43DG     H22  988   2.514   2.185   5.395  0.2215 -0.8232 -0.1917
   43DG     H23  989   2.491   2.209   5.558  2.5774  1.2512 -0.5782
   44DG      C1  990   0.960   4.041   0.537  0.2093  0.5080 -1.1351
   44DG      C2  991   1.552   3.887   0.180  0.1063  0.1341  0.2311
   44DG      H3  992   1.026   4.116   0.581  0.6486 -1.4550  1.8726
   44DG      H4  993   0.993   3.951   0.588  0.3809 -0.5027 -2.9574
   44DG      H5  994   0.860   4.053   0.579  0.4944 -2.1148  0.5178
   44DG      H6  995   1.629   3.955   0.143 -0.5811  1.5532  1.3151
   44DG      H7  996   1.591   3.815   0.252 -0.6814 -0.2952  0.2390
   44DG      H8  997   1.507   3.826   0.102 -0.4491 -1.4686  1.7392
   44DG      O9  998   0.968   4.014   0.401 -0.4616  0.2683 -0.0753
   44DG     O10  999   1.442   3.961   0.231 -0.2042 -0.2165 -0.3878
   44DG     C11 1000   0.947   4.121   0.318 -0.0947 -0.1146 -0.2448
   44DG     C12 1001   1.394   4.066   0.150  0.3232  0.1993  0.1731
   44DG     H13 1002   0.884   4.197   0.364 -0.7471 -0.8870  0.1690
   44DG     H14 1003   0.897   4.089   0.226 -0.0847  2.8120 -1.3870
   44DG     H15 1004   1.343   4.024   0.063 -0.7280  0.3221  0.7068
   44DG     H16 1005   1.490   4.108   0.122  2.6382 -2.5888  3.0899
   44DG     C17 1006   1.082   4.189   0.288  0.0032  0.6069  0.1806
   44DG     C18 1007   1.300   4.159   0.227 -0.1848 -0.2968  0.2875
   44DG     O19 1008   1.175   4.099   0.238  0.4644 -0.0752  0.2149
   44DG     H20 1009   1.101   4.229   0.388 -0.4996  0.6407  0.2671
   44DG     H21 1010   1.068   4.276   0.222  1.2513  1.1852  0.6586
   44DG     H22 1011   1.342   4.178   0.326  0.8059 -0.1468 -0.1400
   44DG     H23 1012   1.301   4.250   0.168 -2.7901 -1.1075 -1.1723
   45DG      C1 1013   2.954   5.077   3.447 -0.2325  0.0471  0.4409
   45DG      C2 1014   2.792   5.001   4.143 -0.3238 -0.1283 -0.2084
   45DG      H3 1015   2.850   5.050   3.428 -0.6966  2.9042 -1.7501
   45DG      H4 1016   3.022   4.992   3.449  1.0543  1.0614  0.9166
   45DG      H5 1017   2.988   5.150   3.373 -1.2317  1.4797  1.3359
   45DG      H6 1018   2.821   4.896   4.142  0.4190  0.0114  1.7096
   45DG      H7 1019   2.837   5.026   4.239 -1.5667 -0.6573  0.5379
   45DG      H8 1020   2.684   5.011   4.144 -0.2489  0.8863 -1.2188
   45DG      O9 1021   2.965   5.135   3.576 -0.0581  0.7188  0.0657
   45DG     O10 1022   2.848   5.068   4.035 -0.1687  0.2156  0.3231
   45DG     C11 1023   2.892   5.258   3.592  0.2141  0.0816 -0.2393
   45DG     C12 1024   2.812   5.206   4.055 -0.1436  0.3200  0.1696
   45DG     H13 1025   2.786   5.244   3.570  0.1523 -0.3063  0.2642
   45DG     H14 1026   2.942   5.324   3.522  1.1047  1.4615  1.6023
   45DG     H15 1027   2.834   5.237   4.157 -0.0273  0.1515  0.1979
   45DG     H16 1028   2.713   5.232   4.018  0.5444  3.0186  0.0626
   45DG     C17 1029   2.905   5.316   3.733  0.2355 -0.4667  0.7224
   45DG     C18 1030   2.887   5.291   3.959  0.2784 -0.2335 -0.5029
   45DG     O19 1031   2.845   5.236   3.831  0.0026 -0.0745  0.3795
   45DG     H20 1032   2.859   5.414   3.743  0.7901  0.0669 -1.4084
   45DG     H21 1033   3.010   5.338   3.753  0.5543 -1.1977 -0.0705
   45DG     H22 1034   2.857   5.394   3.979  0.2828 -0.5294  1.2138
   45DG     H23 1035   2.995   5.292   3.977  0.4705  0.3060 -1.5735
   46DG      C1 1036   0.981   3.919   4.117  0.5248  0.1658 -0.1412
   46DG      C2 1037   1.180   3.369   3.920  1.0155  0.2162 -0.0555
   46DG      H3 1038   0.980   3.960   4.016  1.4757  0.3114 -0.1044
   46DG      H4 1039   1.084   3.902   4.149  0.2737  0.1379  0.6579
   46DG      H5 1040   0.936   4.000   4.173  0.6063 -0.0393  0.2208
   46DG      H6 1041   1.212   3.276   3.967  0.1844 -1.4728 -2.6354
   46DG      H7 1042   1.175   3.364   3.811 -1.5696 -2.5751  0.0579
   46DG      H8 1043   1.259   3.442   3.938  0.6867  0.4027  0.6542
   46DG      O9 1044   0.910   3.801   4.136  0.1932  0.4102 -0.0445
   46DG     O10 1045   1.068   3.414   3.990 -0.2636  0.5522  0.3204
   46DG     C11 1046   0.783   3.790   4.074  0.5564 -0.4016 -0.5665
   46DG     C12 1047   0.944   3.371   3.932  0.0066  0.0871  0.2281
   46DG     H13 1048   0.786   3.812   3.967  0.0942 -0.2043 -0.5434
   46DG     H14 1049   0.702   3.850   4.116 -0.0195  0.7403 -3.1262
   46DG     H15 1050   0.937   3.263   3.928 -0.0534  0.1019 -0.1529
   46DG     H16 1051   0.928   3.405   3.830 -1.2062 -1.2828 -0.0638
   46DG     C17 1052   0.741   3.639   4.077  0.2359  0.2711  0.4813
   46DG     C18 1053   0.839   3.431   4.028  0.0176 -0.1798 -0.1754
   46DG     O19 1054   0.845   3.572   4.008 -0.3678 -0.1936 -0.5490
   46DG     H20 1055   0.641   3.623   4.035 -0.8794  1.6445  2.4172
   46DG     H21 1056   0.744   3.599   4.178 -0.3107 -1.9397 -0.3177
   46DG     H22 1057   0.744   3.381   4.008 -1.9176  2.4802  1.5352
   46DG     H23 1058   0.858   3.395   4.129 -2.0736  1.2056  0.7904
   47DG      C1 1059   1.498   0.250   5.343  0.1332  0.0752 -0.0727
   47DG      C2 1060   1.383   0.657   6.132 -0.0259 -0.1431  0.6788
   47DG      H3 1061   1.404   0.234   5.395  0.2726  0.7824  0.4077
   47DG      H4 1062   1.514   0.164   5.278 -0.1868  0.2004 -0.3202
   47DG      H5 1063   1.482   0.324   5.264  0.2718  0.0159 -0.1580
   47DG      H6 1064   1.480   0.706   6.138  0.5899 -1.0275 -1.3156
   47DG      H7 1065   1.306   0.727   6.097 -0.5170  0.1323  2.2073
   47DG      H8 1066   1.349   0.648   6.235  0.4625  1.3006  0.9962
   47DG      O9 1067   1.608   0.279   5.423 -0.3375 -0.8016 -0.3248
   47DG     O10 1068   1.384   0.541   6.056 -0.7082 -0.6784  0.1694
   47DG     C11 1069   1.590   0.388   5.511 -0.0832  0.7313  0.3029
   47DG     C12 1070   1.446   0.557   5.930  0.8065 -0.2315  0.1208
   47DG     H13 1071   1.541   0.474   5.467 -0.9628 -0.7746 -1.8489
   47DG     H14 1072   1.682   0.431   5.551  0.0968  0.1869  0.4861
   47DG     H15 1073   1.553   0.577   5.938  0.5732  0.2535  3.4206
   47DG     H16 1074   1.394   0.633   5.871  0.0617 -0.0345  1.0100
   47DG     C17 1075   1.516   0.343   5.642  0.1420  0.6837  0.6028
   47DG     C18 1076   1.441   0.423   5.860 -0.7136  0.2822 -0.4802
   47DG     O19 1077   1.508   0.454   5.732  0.3357 -0.2167  0.6678
   47DG     H20 1078   1.569   0.259   5.687  1.3448  0.0755 -1.8377
   47DG     H21 1079   1.411   0.320   5.625  0.4514 -0.3206 -0.0566
   47DG     H22 1080   1.506   0.351   5.910  0.1675  0.5866 -1.1540
   47DG     H23 1081   1.337   0.390   5.860 -0.1592 -1.6352  0.4781
   48DG      C1 1082   5.225   0.489   3.569 -0.1750 -0.3967 -0.7979
   48DG      C2 1083   5.476   0.998   3.917 -0.0535 -0.0391 -1.0092
   48DG      H3 1084   5.265   0.510   3.469 -1.5265 -0.9758 -1.4927
   48DG      H4 1085   5.147   0.421   3.534 -0.1290  0.1257 -1.9849
   48DG      H5 1086   5.299   0.452   3.640 -0.2023  1.3308  0.1826
   48DG      H6 1087   5.552   1.002   3.838  1.5694  0.4906  0.5027
   48DG      H7 1088   5.475   1.090   3.976  0.9076 -0.7874  0.2260
   48DG      H8 1089   5.507   0.914   3.979  0.2248 -0.6271 -1.9267
   48DG      O9 1090   5.163   0.590   3.650  0.0640 -0.1954  0.2777
   48DG     O10 1091   5.355   0.953   3.864  0.1621 -0.4374 -0.0564
   48DG     C11 1092   5.062   0.668   3.583 -0.3251  0.2226 -0.6935
   48DG     C12 1093   5.295   1.044   3.772  0.7880  0.2337  0.2167
   48DG     H13 1094   4.968   0.615   3.601 -0.1876  0.3450  0.4642
   48DG     H14 1095   5.081   0.674   3.476 -0.2010 -0.4165 -0.7132
   48DG     H15 1096   5.362   1.047   3.686  0.1296  1.6784 -0.2883
   48DG     H16 1097   5.299   1.146   3.812 -2.7289  1.7577 -2.6742
   48DG     C17 1098   5.036   0.807   3.636 -0.3481  0.1651  0.6564
   48DG     C18 1099   5.154   0.995   3.736  0.8401 -0.4509  0.2105
   48DG     O19 1100   5.161   0.861   3.685 -0.1573 -0.7313 -0.0469
   48DG     H20 1101   4.970   0.800   3.722  0.3480 -0.9456  1.1071
   48DG     H21 1102   4.990   0.871   3.560  0.9704  0.1408 -0.2003
   48DG     H22 1103   5.084   0.982   3.819  0.1703 -0.4572 -0.3442
   48DG     H23 1104   5.112   1.057   3.657 -0.1387 -1.9322 -0.4746
   49DG      C1 1105   4.767   1.100   4.344 -0.1956 -0.0139  0.5652
   49DG      C2 1106   4.814   1.192   5.014  0.0317  0.1732  0.2892
   49DG      H3 1107   4.859   1.139   4.300 -1.0888 -1.0920 -2.4992
   49DG      H4 1108   4.713   1.191   4.369 -0.7323  0.0157 -0.6296
   49DG      H5 1109   4.721   1.029   4.275 -0.5675 -1.3568  2.1365
   49DG      H6 1110   4.754   1.143   5.090  0.3818  0.4037  0.7168
   49DG      H7 1111   4.901   1.236   5.065  1.8815  0.1184 -2.5693
   49DG      H8 1112   4.749   1.268   4.971 -0.6540 -1.3139 -1.4003
   49DG      O9 1113   4.792   1.028   4.463 -0.1156  0.6630 -0.1247
   49DG     O10 1114   4.828   1.096   4.912  0.1404 -0.2557  0.2395
   49DG     C11 1115   4.910   0.953   4.455 -0.9268  0.1260  0.1391
   49DG     C12 1116   4.902   0.973   4.944  0.2998 -0.4837  0.4432
   49DG     H13 1117   4.990   1.024   4.435 -1.5972  0.3852 -1.8468
   49DG     H14 1118   4.908   0.892   4.364 -1.6587  0.1218  0.1546
   49DG     H15 1119   4.857   0.922   5.029  2.1919 -0.9024  1.2274
   49DG     H16 1120   5.004   0.998   4.972  0.9560 -2.4758 -0.0595
   49DG     C17 1121   4.943   0.871   4.582  0.0082  0.6423 -0.2025
   49DG     C18 1122   4.909   0.885   4.818 -0.0450 -0.6615 -0.2422
   49DG     O19 1123   4.932   0.964   4.701 -0.4534  0.5085  0.5642
   49DG     H20 1124   5.041   0.824   4.591 -1.1578 -1.6015  2.2426
   49DG     H21 1125   4.874   0.788   4.587 -0.3545  1.0074  1.5096
   49DG     H22 1126   4.983   0.806   4.821  1.3536  0.6247  0.2367
   49DG     H23 1127   4.815   0.829   4.815  0.8177 -2.2170  0.5931
   50DG      C1 1128   1.438   2.286   2.618  0.4190  0.2572 -0.0213
   50DG      C2 1129   1.701   1.819   2.228 -0.4993 -0.0090 -0.0733
   50DG      H3 1130   1.445   2.214   2.700 -1.4316  0.5715  0.4536
   50DG      H4 1131   1.342   2.259   2.572 -0.5631 -0.1813  2.1526
   50DG      H5 1132   1.422   2.382   2.665 -1.3406  0.2651 -0.5367
   50DG      H6 1133   1.736   1.764   2.315  1.8408  0.3601 -0.7308
   50DG      H7 1134   1.594   1.799   2.226 -0.2863 -1.7126  2.0650
   50DG      H8 1135   1.750   1.785   2.138 -0.7809 -2.3341  0.5874
   50DG      O9 1136   1.551   2.279   2.532  0.4804 -0.0916 -0.9295
   50DG     O10 1137   1.699   1.961   2.253 -0.1388  0.0059  0.4860
   50DG     C11 1138   1.671   2.311   2.605  0.1682 -0.6295 -0.2378
   50DG     C12 1139   1.833   2.014   2.263 -0.0614 -0.0667 -0.6214
   50DG     H13 1140   1.681   2.256   2.698 -0.6655 -0.7294 -0.2023
   50DG     H14 1141   1.675   2.417   2.630 -0.6020 -0.2132 -1.7656
   50DG     H15 1142   1.880   2.027   2.165  1.3464  0.0876  0.0485
   50DG     H16 1143   1.885   1.935   2.317 -1.4565  0.0086  0.8704
   50DG     C17 1144   1.784   2.283   2.515  0.1154 -0.0703 -0.2228
   50DG     C18 1145   1.841   2.148   2.337 -0.5780  0.2312  0.2727
   50DG     O19 1146   1.759   2.161   2.446 -0.3079  0.6501 -0.1170
   50DG     H20 1147   1.874   2.305   2.572 -0.3624  3.3829 -0.5749
   50DG     H21 1148   1.795   2.361   2.439  0.2892 -0.2975 -0.4299
   50DG     H22 1149   1.943   2.151   2.376 -0.3704  2.2257 -0.3351
   50DG     H23 1150   1.833   2.237   2.275  0.0911 -0.3782 -0.7260
   51DG      C1 1151   2.514   1.030   0.610  0.2939  0.1664  0.9867
   51DG      C2 1152   1.921   1.013   0.890  0.1397 -0.2510  0.2564
   51DG      H3 1153   2.483   0.960   0.533  4.7544  0.2798 -1.2068
   51DG      H4 1154   2.623   1.028   0.611  0.3339  1.1893  0.3862
   51DG      H5 1155   2.480   1.125   0.569 -2.5663 -1.0893  0.2053
   51DG      H6 1156   1.870   1.051   0.979 -1.6312 -0.7660 -0.5145
   51DG      H7 1157   1.910   1.082   0.806  0.8085  0.5557  0.8058
   51DG      H8 1158   1.869   0.920   0.868  0.5389 -0.4462  0.1359
   51DG      O9 1159   2.458   1.011   0.735 -0.5491  0.5831 -0.0319
   51DG     O10 1160   2.057   0.989   0.916  0.2030  0.3298 -0.1844
   51DG     C11 1161   2.496   0.886   0.800  0.4928 -0.5065  0.8316
   51DG     C12 1162   2.080   0.920   1.042  0.3224 -0.6882 -0.1912
   51DG     H13 1163   2.604   0.886   0.810  0.5647  1.4601  0.5277
   51DG     H14 1164   2.456   0.804   0.741 -2.6514  0.4109  1.4924
   51DG     H15 1165   2.036   0.820   1.045 -2.1167  0.3222  1.2645
   51DG     H16 1166   2.035   0.977   1.124 -1.1725  0.3698 -1.6900
   51DG     C17 1167   2.431   0.878   0.933 -0.6634 -0.5329 -0.3458
   51DG     C18 1168   2.232   0.921   1.059 -0.1115 -0.0694 -0.1880
   51DG     O19 1169   2.291   0.895   0.930 -0.0834  0.0023  1.0994
   51DG     H20 1170   2.490   0.952   0.986  1.1308 -1.2219 -1.2975
   51DG     H21 1171   2.456   0.786   0.986  1.8706  0.1296 -0.2796
   51DG     H22 1172   2.269   1.014   1.102  0.6653 -1.6406  2.8488
   51DG     H23 1173   2.262   0.846   1.132 -1.5613 -1.7433 -1.2414
   52DG      C1 1174   3.577   1.067   4.252 -0.1629 -0.1381 -0.1409
   52DG      C2 1175   4.140   0.867   4.361  0.5630  0.2393 -0.1648
   52DG      H3 1176   3.609   1.145   4.182 -0.4605  3.4669  3.3733
   52DG      H4 1177   3.471   1.087   4.264 -0.0988  0.2356 -0.1836
   52DG      H5 1178   3.589   0.973   4.199  0.7464 -0.4198  0.5324
   52DG      H6 1179   4.238   0.880   4.408  0.9292 -0.7431 -0.6391
   52DG      H7 1180   4.135   0.769   4.314  0.3134  0.2667 -0.1956
   52DG      H8 1181   4.145   0.938   4.279 -2.5161  0.0645 -0.6046
   52DG      O9 1182   3.647   1.057   4.369  0.1132  0.3355  0.0808
   52DG     O10 1183   4.037   0.892   4.453 -0.5086  0.0173 -0.2571
   52DG     C11 1184   3.669   1.180   4.435 -1.0459 -0.3828 -0.2410
   52DG     C12 1185   4.088   0.995   4.543 -0.0358  0.2045 -0.0271
   52DG     H13 1186   3.570   1.215   4.465 -0.7876 -0.3572  0.6104
   52DG     H14 1187   3.700   1.265   4.373  0.0334  0.5195  1.4627
   52DG     H15 1188   4.153   1.070   4.497 -1.1278  0.6064 -0.9564
   52DG     H16 1189   4.140   0.945   4.624  1.6768  2.1865  0.1852
   52DG     C17 1190   3.761   1.150   4.552  0.2065 -0.7977  0.2082
   52DG     C18 1191   3.966   1.064   4.607  0.4309 -0.0538 -0.3740
   52DG     O19 1192   3.880   1.092   4.509 -0.2938  0.0465  0.4495
   52DG     H20 1193   3.707   1.091   4.625 -0.3345 -0.1029  0.3864
   52DG     H21 1194   3.784   1.247   4.598  0.6056 -1.9684  2.5927
   52DG     H22 1195   3.928   1.002   4.687  0.8379  0.3548  0.1422
   52DG     H23 1196   4.000   1.153   4.660  1.2388 -1.5787  1.7836
   53DG      C1 1197   1.239   2.914   4.185 -0.8901  0.2839 -0.8648
   53DG      C2 1198   0.700   2.497   4.229  0.0604 -0.3126 -0.7197
   53DG      H3 1199   1.338   2.882   4.153 -0.6589 -0.2331  0.3161
   53DG      H4 1200   1.242   2.894   4.293 -1.0478  0.5557 -0.8109
   53DG      H5 1201   1.228   3.021   4.168 -0.6292  0.3233 -0.7941
   53DG      H6 1202   0.639   2.415   4.192 -0.1270 -0.2125 -0.6332
   53DG      H7 1203   0.747   2.474   4.325  2.4612  1.3459 -1.4201
   53DG      H8 1204   0.640   2.584   4.253  0.0202 -0.3669 -0.6226
   53DG      O9 1205   1.143   2.829   4.129  0.0445 -0.7961 -0.1318
   53DG     O10 1206   0.803   2.541   4.143 -0.3091  0.0119 -0.0366
   53DG     C11 1207   1.102   2.860   3.999 -0.9373 -0.0847 -0.3153
   53DG     C12 1208   0.760   2.556   4.009 -0.0286 -0.2823  0.6255
   53DG     H13 1209   1.195   2.888   3.948  1.1444 -2.4733  1.8635
   53DG     H14 1210   1.027   2.937   4.015 -1.8484 -1.3251  1.8088
   53DG     H15 1211   0.675   2.625   4.000  0.4995  0.3053  0.0432
   53DG     H16 1212   0.725   2.459   3.975  1.5592 -0.5065 -0.4299
   53DG     C17 1213   1.060   2.738   3.919 -0.4128 -0.1944  0.0889
   53DG     C18 1214   0.877   2.591   3.922 -0.2799 -0.2697  1.2163
   53DG     O19 1215   0.928   2.714   3.972  0.1518  0.0080 -0.3686
   53DG     H20 1216   1.130   2.656   3.935 -0.7364 -0.6022 -0.5182
   53DG     H21 1217   1.056   2.769   3.814 -0.2723  0.5866  0.3051
   53DG     H22 1218   0.953   2.514   3.925  2.0374  1.8187  0.1215
   53DG     H23 1219   0.833   2.609   3.823 -0.0414  3.5044  1.6316
   54DG      C1 1220   5.440   2.557   5.378  0.2667  0.1486 -0.5273
   54DG      C2 1221   5.762   2.477   6.014 -0.5059  0.4152  0.5234
   54DG      H3 1222   5.344   2.590   5.337 -0.5419 -2.0689 -0.5293
   54DG      H4 1223   5.450   2.456   5.338  1.3463 -0.1207  0.3690
   54DG      H5 1224   5.523   2.625   5.358  1.0910 -0.4653  0.7186
   54DG      H6 1225   5.776   2.411   6.100  0.2478  1.0967  0.9371
   54DG      H7 1226   5.855   2.489   5.958  0.8696 -0.8328  2.3823
   54DG      H8 1227   5.720   2.567   6.059  0.6447  1.0612  0.3645
   54DG      O9 1228   5.419   2.547   5.521 -0.2266 -0.0404 -0.2109
   54DG     O10 1229   5.662   2.424   5.928  0.1057 -0.6435 -0.1056
   54DG     C11 1230   5.413   2.667   5.590  0.1056  0.7180  0.2539
   54DG     C12 1231   5.535   2.435   5.993  0.0474  0.1905 -0.1854
   54DG     H13 1232   5.343   2.733   5.538 -0.6994  0.4778  1.0007
   54DG     H14 1233   5.506   2.722   5.585 -0.7535  2.1321 -0.8563
   54DG     H15 1234   5.536   2.414   6.100 -2.0264 -1.1967 -0.3805
   54DG     H16 1235   5.478   2.348   5.961 -1.7186  0.7366  1.2846
   54DG     C17 1236   5.370   2.633   5.733  0.2383 -1.1614 -0.7109
   54DG     C18 1237   5.448   2.550   5.938 -0.3001 -0.0491 -0.0194
   54DG     O19 1238   5.460   2.546   5.794  0.5592 -0.0297  0.3360
   54DG     H20 1239   5.275   2.579   5.732  0.8960 -2.3956  0.1608
   54DG     H21 1240   5.360   2.725   5.791  0.4517 -0.5274 -1.6558
   54DG     H22 1241   5.352   2.553   5.989 -0.4915 -0.2561 -0.3684
   54DG     H23 1242   5.503   2.638   5.971  0.4691 -0.0413 -1.2706
   55DG      C1 1243   3.802   2.200   2.258 -0.1057  0.0411  0.2653
   55DG      C2 1244   4.222   2.527   2.671  0.4832  0.1627 -0.2086
   55DG      H3 1245   3.714   2.201   2.192 -0.2987  2.2588  0.5017
   55DG      H4 1246   3.759   2.180   2.356 -1.3143 -0.0778 -0.2630
   55DG      H5 1247   3.862   2.111   2.238  0.2927  0.6031 -1.1930
   55DG      H6 1248   4.218   2.631   2.702 -2.0099 -0.4239  1.7371
   55DG      H7 1249   4.160   2.481   2.748 -0.5928  0.3140 -0.9613
   55DG      H8 1250   4.320   2.485   2.692 -0.1082 -0.0174  2.5291
   55DG      O9 1251   3.864   2.326   2.252 -0.4052  0.5125  0.0717
   55DG     O10 1252   4.156   2.509   2.536 -0.3676 -0.2236 -0.3124
   55DG     C11 1253   3.938   2.349   2.131 -0.4159 -0.1550  0.3401
   55DG     C12 1254   4.257   2.530   2.428  0.6368  0.4298 -0.4415
   55DG     H13 1255   3.859   2.355   2.056 -1.0004  1.4083  1.0318
   55DG     H14 1256   4.005   2.265   2.114 -1.1314 -0.7920  0.5881
   55DG     H15 1257   4.338   2.457   2.432 -0.6995 -1.1115 -0.1028
   55DG     H16 1258   4.299   2.628   2.450 -1.6792  1.2928  0.5189
   55DG     C17 1259   4.027   2.465   2.160 -0.2474 -0.3927  0.5361
   55DG     C18 1260   4.192   2.539   2.293 -0.2903 -0.1152 -0.6096
   55DG     O19 1261   4.098   2.434   2.277  0.0581  0.4246  0.0316
   55DG     H20 1262   3.975   2.561   2.167  0.5465  0.0065  1.1797
   55DG     H21 1263   4.100   2.474   2.080  1.2128  0.0936  1.8786
   55DG     H22 1264   4.140   2.635   2.293  0.2672  0.3087  2.5445
   55DG     H23 1265   4.265   2.545   2.213 -0.9590  1.2649 -1.1456
   56DG      C1 1266   1.333   2.123   1.537 -0.1039 -0.6600 -0.1206
   56DG      C2 1267   1.263   2.188   0.848 -0.4214 -0.4273 -0.1130
   56DG      H3 1268   1.303   2.135   1.641  0.2024  2.2909 -0.2907
   56DG      H4 1269   1.417   2.191   1.549 -1.5846  1.2930 -0.3957
   56DG      H5 1270   1.364   2.019   1.524  2.4014 -0.1663  1.2457
   56DG      H6 1271   1.197   2.210   0.764  0.9096  1.1636 -0.8021
   56DG      H7 1272   1.331   2.274   0.848 -0.6673 -0.2299  0.3722
   56DG      H8 1273   1.317   2.099   0.816  0.3740 -0.3120  0.8686
   56DG      O9 1274   1.235   2.158   1.442  0.0327 -0.1164  1.0691
   56DG     O10 1275   1.200   2.186   0.972  0.4555 -0.5884 -0.3185
   56DG     C11 1276   1.145   2.047   1.425  0.2838  0.2672  0.4951
   56DG     C12 1277   1.068   2.150   0.973  0.7289 -0.1921 -0.1108
   56DG     H13 1278   1.097   2.026   1.521 -3.8843  3.3576 -0.6209
   56DG     H14 1279   1.201   1.957   1.399  3.7657  2.2412  0.6527
   56DG     H15 1280   1.062   2.055   0.920  0.1383  1.0524 -2.4191
   56DG     H16 1281   1.020   2.218   0.903 -1.1637 -1.8072 -0.4968
   56DG     C17 1282   1.036   2.090   1.334 -0.5985 -0.1282 -0.3593
   56DG     C18 1283   1.005   2.174   1.109 -0.8691  0.2063  0.4821
   56DG     O19 1284   1.088   2.107   1.199 -0.0880 -0.0606  0.4382
   56DG     H20 1285   1.013   2.185   1.382 -1.9781 -0.8293  0.4270
   56DG     H21 1286   0.955   2.019   1.350  0.2963 -0.6789  1.9302
   56DG     H22 1287   1.023   2.276   1.143  1.6957 -0.3584  1.0404
   56DG     H23 1288   0.901   2.143   1.122 -0.7974 -0.0169  0.5291
   57DG      C1 1289   3.715   3.169   5.184  0.4857  0.4053  0.3125
   57DG      C2 1290   3.375   3.420   4.680  0.0185  0.6938 -0.1411
   57DG      H3 1291   3.784   3.249   5.213  1.8795 -1.2958  1.9924
   57DG      H4 1292   3.751   3.083   5.242 -2.0165 -0.1455  1.1714
   57DG      H5 1293   3.614   3.197   5.212 -0.1051  0.2552 -1.5321
   57DG      H6 1294   3.363   3.441   4.574  1.4242  1.0765 -0.2469
   57DG      H7 1295   3.295   3.348   4.695 -1.6142  2.1207 -1.6009
   57DG      H8 1296   3.348   3.507   4.740 -2.3547 -0.0250 -0.0438
   57DG      O9 1297   3.719   3.136   5.047  0.4866  1.0250  0.4445
   57DG     O10 1298   3.506   3.386   4.721 -0.3972 -0.0892  0.3683
   57DG     C11 1299   3.847   3.163   4.994  0.3957  0.0125  0.3336
   57DG     C12 1300   3.558   3.287   4.629 -0.4437 -0.0261 -0.3771
   57DG     H13 1301   3.920   3.094   5.035 -3.0879 -4.0131  0.4741
   57DG     H14 1302   3.885   3.264   5.009  2.9198 -0.9492  0.7538
   57DG     H15 1303   3.555   3.319   4.524  1.3062  1.8274  0.0763
   57DG     H16 1304   3.490   3.203   4.638 -0.6909 -0.0051 -1.7776
   57DG     C17 1305   3.834   3.154   4.842  0.1763  0.8669  0.3017
   57DG     C18 1306   3.701   3.239   4.667  0.0293  0.3458 -0.4679
   57DG     O19 1307   3.713   3.228   4.808 -0.3306 -0.3608 -0.2107
   57DG     H20 1308   3.835   3.047   4.823 -0.2025  0.5389  1.9382
   57DG     H21 1309   3.920   3.202   4.794  0.3565  0.0603 -0.1965
   57DG     H22 1310   3.719   3.141   4.621 -0.7612 -0.2193  0.3931
   57DG     H23 1311   3.779   3.300   4.622  1.5737  0.7180  2.4846
   58DG      C1 1312   4.295   3.519   0.918  0.0555 -0.0102 -0.9246
   58DG      C2 1313   3.621   3.700   0.858  0.1930 -0.3958  0.1311
   58DG      H3 1314   4.394   3.480   0.942  0.3216 -0.0332 -2.0066
   58DG      H4 1315   4.303   3.627   0.922 -0.3894  0.0416  3.5503
   58DG      H5 1316   4.295   3.487   0.814  0.2120 -0.9989 -0.6300
   58DG      H6 1317   3.545   3.633   0.898 -0.9877 -0.6611 -2.3693
   58DG      H7 1318   3.574   3.798   0.863 -0.7609 -0.8136 -0.3724
   58DG      H8 1319   3.626   3.665   0.755 -1.1599 -0.1504 -0.0387
   58DG      O9 1320   4.171   3.469   0.961  0.3868  0.4022  0.0810
   58DG     O10 1321   3.748   3.689   0.923  0.3949  0.2196 -0.1130
   58DG     C11 1322   4.151   3.447   1.098 -0.5767  0.3119  0.4557
   58DG     C12 1323   3.754   3.730   1.056 -0.1262 -0.3940  0.3356
   58DG     H13 1324   4.249   3.433   1.144 -0.3394  0.0392 -0.1208
   58DG     H14 1325   4.092   3.357   1.117 -1.6143  0.5337 -1.4358
   58DG     H15 1326   3.678   3.663   1.097  0.2734 -1.7039 -0.9930
   58DG     H16 1327   3.719   3.831   1.073 -0.2516 -0.5605  1.1028
   58DG     C17 1328   4.074   3.565   1.155 -0.4519 -0.0785 -0.0121
   58DG     C18 1329   3.890   3.709   1.117 -0.4796 -0.0573 -0.1499
   58DG     O19 1330   3.947   3.576   1.091  0.1934  0.5551 -0.2555
   58DG     H20 1331   4.115   3.665   1.139  1.0046 -0.7808 -0.7817
   58DG     H21 1332   4.064   3.559   1.264  0.3632  1.1879  0.1574
   58DG     H22 1333   3.957   3.793   1.101  0.4351 -0.5628  0.8419
   58DG     H23 1334   3.863   3.717   1.223 -2.3477  1.1312 -0.6739
   59DG      C1 1335   4.751   3.069   3.276 -0.1893  0.2902  0.1881
   59DG      C2 1336   4.201   3.040   3.638  0.1404 -0.4140  0.2246
   59DG      H3 1337   4.781   2.966   3.296 -1.1368 -0.1612 -0.5935
   59DG      H4 1338   4.800   3.128   3.354 -0.2685 -1.2032  1.4143
   59DG      H5 1339   4.791   3.104   3.181 -0.7905 -0.7717 -0.4785
   59DG      H6 1340   4.274   3.098   3.695  0.2151 -0.1131 -0.1685
   59DG      H7 1341   4.099   3.068   3.664  0.2398 -0.3790  0.5795
   59DG      H8 1342   4.218   2.933   3.641  1.4463 -0.2587 -0.6482
   59DG      O9 1343   4.610   3.068   3.272 -0.3443 -0.3074  0.1925
   59DG     O10 1344   4.233   3.063   3.498  0.1282  0.3843 -0.3940
   59DG     C11 1345   4.560   2.990   3.170 -0.7506  0.0157  0.0642
   59DG     C12 1346   4.155   2.988   3.400  0.2379 -0.4184  0.2210
   59DG     H13 1347   4.578   2.888   3.202  5.5871  0.7564  0.0533
   59DG     H14 1348   4.615   3.005   3.077  1.0801 -1.3116  0.8855
   59DG     H15 1349   4.051   3.020   3.403  0.7444  1.2278  1.6338
   59DG     H16 1350   4.168   2.883   3.425  3.5283 -1.1540 -3.5556
   59DG     C17 1351   4.411   3.014   3.147  0.0388 -0.0080 -0.1418
   59DG     C18 1352   4.202   3.025   3.259 -0.1972 -0.1523 -0.3601
   59DG     O19 1353   4.342   3.027   3.273  0.3117  0.3681 -0.3503
   59DG     H20 1354   4.375   2.932   3.085  0.6585  1.0307 -1.9559
   59DG     H21 1355   4.409   3.101   3.082  2.5198 -0.9557 -1.6331
   59DG     H22 1356   4.170   2.950   3.187 -0.1340  0.8894 -1.5225
   59DG     H23 1357   4.164   3.125   3.235  0.0210 -0.2297 -1.0672
   60DG      C1 1358   2.996   2.376   0.456  0.3981  0.1283  0.2523
   60DG      C2 1359   3.463   2.845   0.438 -0.0146 -1.0898  0.2757
   60DG      H3 1360   2.968   2.271   0.455  0.9152 -0.0113 -0.5275
   60DG      H4 1361   2.951   2.416   0.365  0.4105 -3.0252 -1.2510
   60DG      H5 1362   2.958   2.426   0.545 -1.0590  0.5586 -0.5677
   60DG      H6 1363   3.398   2.861   0.524  1.0230  0.3448  0.8211
   60DG      H7 1364   3.549   2.908   0.458 -0.5180 -0.3003  0.0206
   60DG      H8 1365   3.406   2.903   0.365  1.6874  1.1884  0.6478
   60DG      O9 1366   3.136   2.393   0.441 -1.0227  0.2106  0.3095
   60DG     O10 1367   3.485   2.701   0.427  0.1522  0.3329  0.1125
   60DG     C11 1368   3.192   2.315   0.330  0.4982 -0.6227 -0.5807
   60DG     C12 1369   3.529   2.660   0.298  0.0170 -0.4782  0.3284
   60DG     H13 1370   3.125   2.338   0.247  1.2583  1.4548 -0.6749
   60DG     H14 1371   3.174   2.208   0.340 -1.1959 -0.5013 -1.9401
   60DG     H15 1372   3.629   2.691   0.269 -0.7920  0.7985 -1.3136
   60DG     H16 1373   3.476   2.716   0.221  1.1242 -0.5741 -0.5276
   60DG     C17 1374   3.332   2.351   0.301 -0.4848  0.2538  0.2680
   60DG     C18 1375   3.506   2.515   0.284 -0.6436  0.3863  0.1077
   60DG     O19 1376   3.369   2.488   0.318  0.4746 -0.2109 -0.6646
   60DG     H20 1377   3.353   2.312   0.202 -1.0186 -1.3675  0.7572
   60DG     H21 1378   3.387   2.299   0.379 -1.7842 -0.7349  0.5723
   60DG     H22 1379   3.538   2.483   0.185  0.6124  1.1083  0.2510
   60DG     H23 1380   3.577   2.473   0.356 -0.9777  2.3572  1.6957
   61DG      C1 1381   3.093   4.553   5.433 -0.2573  0.1621  0.2389
   61DG      C2 1382   3.662   4.208   5.638 -0.1674 -0.2762 -0.1815
   61DG      H3 1383   3.078   4.642   5.371  0.2775  0.2087  0.1728
   61DG      H4 1384   3.094   4.589   5.536  0.2922  1.6978 -0.2684
   61DG      H5 1385   3.011   4.483   5.415  2.1963 -2.7450 -0.5485
   61DG      H6 1386   3.770   4.199   5.626 -0.4982 -2.1912 -2.4272
   61DG      H7 1387   3.630   4.236   5.738 -0.1741 -0.9922  0.0215
   61DG      H8 1388   3.624   4.107   5.629 -2.0937  0.2932  1.1495
   61DG      O9 1389   3.221   4.505   5.395  0.1344 -0.0768  0.0167
   61DG     O10 1390   3.607   4.286   5.538  0.4646  0.1615 -0.0091
   61DG     C11 1391   3.216   4.446   5.268  0.5089  0.4104  0.6750
   61DG     C12 1392   3.645   4.247   5.402 -0.3950  0.2906  0.6481
   61DG     H13 1393   3.177   4.520   5.197  0.8743  0.9433  1.0178
   61DG     H14 1394   3.152   4.358   5.265  1.9435 -0.6416 -1.1238
   61DG     H15 1395   3.625   4.140   5.391  0.0566  0.2185  0.4736
   61DG     H16 1396   3.753   4.259   5.391 -0.2881 -0.4935  0.8040
   61DG     C17 1397   3.354   4.405   5.219  0.0059 -0.6846  0.1385
   61DG     C18 1398   3.567   4.328   5.296 -0.5667 -0.1077  0.3496
   61DG     O19 1399   3.431   4.344   5.329 -0.2894 -0.7833 -0.1094
   61DG     H20 1400   3.396   4.493   5.169 -2.7044  1.0962  0.7572
   61DG     H21 1401   3.330   4.336   5.137 -0.2249 -0.3637 -0.0686
   61DG     H22 1402   3.602   4.431   5.297 -0.6222 -0.0725 -0.5059
   61DG     H23 1403   3.575   4.277   5.199  0.7981  0.4865  0.1209
   62DG      C1 1404   0.485   4.967   1.624 -0.4670  0.2518  0.2063
   62DG      C2 1405   1.095   5.168   1.425 -0.0581  0.0459  0.6045
   62DG      H3 1406   0.542   4.875   1.611  0.3266  0.7825 -0.1492
   62DG      H4 1407   0.400   4.967   1.555 -0.3485  0.9478  0.0536
   62DG      H5 1408   0.450   4.964   1.727 -1.4956 -2.9733 -0.1090
   62DG      H6 1409   1.198   5.202   1.436  1.6728 -2.5506 -4.3396
   62DG      H7 1410   1.105   5.074   1.371 -0.8601 -0.2945  1.0242
   62DG      H8 1411   1.044   5.241   1.363  0.8019 -0.6202 -0.9406
   62DG      O9 1412   0.577   5.071   1.589 -0.3472 -0.0914  0.1719
   62DG     O10 1413   1.023   5.135   1.542  0.3155 -0.5917  0.7418
   62DG     C11 1414   0.540   5.196   1.641  1.1133 -0.6235 -0.0433
   62DG     C12 1415   1.004   5.246   1.628  0.3846 -1.0033 -0.0078
   62DG     H13 1416   0.541   5.197   1.750 -1.8108 -3.5138  0.1775
   62DG     H14 1417   0.440   5.227   1.611  0.1740 -2.2957  1.1855
   62DG     H15 1418   1.094   5.307   1.640  0.0246 -0.2818 -0.8694
   62DG     H16 1419   0.991   5.201   1.727 -3.3876 -1.3517 -0.5226
   62DG     C17 1420   0.639   5.302   1.599  0.0811  0.2478 -0.0016
   62DG     C18 1421   0.872   5.316   1.589 -0.1718  0.0421  0.1311
   62DG     O19 1422   0.761   5.238   1.622 -0.4475  0.7532 -0.3474
   62DG     H20 1423   0.632   5.385   1.669 -0.1161 -0.0586  0.3484
   62DG     H21 1424   0.631   5.329   1.494  1.4830 -0.9627 -0.4679
   62DG     H22 1425   0.874   5.414   1.637  0.4832  0.2897 -0.3886
   62DG     H23 1426   0.880   5.344   1.484 -1.6870 -1.3508 -0.4047
   63DG      C1 1427   2.689   2.782   4.684 -0.0410 -0.4256 -0.1629
   63DG      C2 1428   2.021   2.572   4.607 -0.7390  0.3388  0.3434
   63DG      H3 1429   2.737   2.873   4.719 -1.1993  0.6033 -1.1442
   63DG      H4 1430   2.697   2.792   4.576 -0.9045  3.5886 -0.0139
   63DG      H5 1431   2.739   2.696   4.729 -0.1681  0.7035  2.3069
   63DG      H6 1432   1.937   2.630   4.569 -1.0667  2.8859  4.3517
   63DG      H7 1433   2.051   2.499   4.533 -1.9225 -1.1741  1.3034
   63DG      H8 1434   1.996   2.505   4.689 -1.3116  1.6630  1.2778
   63DG      O9 1435   2.552   2.773   4.715 -0.3258 -0.6736  0.6575
   63DG     O10 1436   2.111   2.669   4.648 -0.3220 -0.6366 -0.5534
   63DG     C11 1437   2.524   2.800   4.847  0.0389  0.5446 -0.4280
   63DG     C12 1438   2.090   2.718   4.780 -0.0259  0.4738 -0.5387
   63DG     H13 1439   2.548   2.903   4.870 -0.6991  0.8669 -1.0498
   63DG     H14 1440   2.577   2.738   4.919 -0.3654 -0.7819 -1.2175
   63DG     H15 1441   1.983   2.709   4.799 -0.1043 -2.5059 -1.7387
   63DG     H16 1442   2.099   2.826   4.769 -0.5901  0.5213 -0.5396
   63DG     C17 1443   2.373   2.796   4.876  0.1146 -0.4182  0.1365
   63DG     C18 1444   2.187   2.656   4.891 -0.2529  0.3521  0.4593
   63DG     O19 1445   2.324   2.657   4.856 -0.6079  0.0805 -0.3745
   63DG     H20 1446   2.321   2.864   4.809 -0.3818 -1.4395 -0.5428
   63DG     H21 1447   2.345   2.825   4.977  1.7109 -0.7262  0.6968
   63DG     H22 1448   2.161   2.709   4.983  2.4548  1.6787  0.5585
   63DG     H23 1449   2.164   2.551   4.911 -1.5843  0.4884 -0.3095
   64DG      C1 1450   3.608   0.398   3.261 -0.1328  0.6607  0.0221
   64DG      C2 1451   4.111   0.105   3.623  0.1391  0.4262  0.6728
   64DG      H3 1452   3.627   0.479   3.331  1.1283  1.1311 -0.8328
   64DG      H4 1453   3.502   0.416   3.238 -0.1395 -1.2359 -1.7704
   64DG      H5 1454   3.661   0.403   3.166  2.5645 -1.9444  1.2570
   64DG      H6 1455   4.101   0.049   3.716 -2.1450  0.0467  0.2479
   64DG      H7 1456   4.194   0.063   3.566 -0.7074 -1.0397  0.4621
   64DG      H8 1457   4.129   0.210   3.646 -0.7308  0.2692  2.2108
   64DG      O9 1458   3.633   0.267   3.317  0.1631 -0.4438 -0.1563
   64DG     O10 1459   3.987   0.085   3.549  0.1473  0.8363 -0.4239
   64DG     C11 1460   3.632   0.153   3.228  0.2227 -0.1294  0.4998
   64DG     C12 1461   3.959  -0.051   3.524  0.2915  0.6451  0.2496
   64DG     H13 1462   3.703   0.162   3.146 -0.2903  0.5499  0.1222
   64DG     H14 1463   3.537   0.143   3.176  1.0581  0.8504 -1.3392
   64DG     H15 1464   3.948  -0.110   3.615 -1.5945  0.9286  0.2307
   64DG     H16 1465   4.032  -0.086   3.450  2.1900  1.6676  1.5481
   64DG     C17 1466   3.668   0.023   3.301  0.0053  0.4511  0.1261
   64DG     C18 1467   3.820  -0.065   3.459  0.0220  0.3059  0.3531
   64DG     O19 1468   3.785   0.042   3.377  0.4164  0.2147 -0.1640
   64DG     H20 1469   3.686  -0.062   3.235 -0.3926  0.9203 -0.5984
   64DG     H21 1470   3.582  -0.009   3.361  0.1728  0.1375  0.2013
   64DG     H22 1471   3.814  -0.164   3.415  1.7106 -0.6357  2.1114
   64DG     H23 1472   3.746  -0.079   3.539  0.5752 -1.3523  0.6113
   65DG      C1 1473   5.075   3.368   1.985  0.4630 -0.5622 -0.3798
   65DG      C2 1474   5.381   3.298   1.383  0.4092  0.0668 -0.7483
   65DG      H3 1475   4.987   3.391   1.926  0.6289  4.2954  0.9133
   65DG      H4 1476   5.094   3.458   2.043  3.8652 -1.3434 -0.0732
   65DG      H5 1477   5.051   3.290   2.057 -0.5130 -0.1843 -0.2893
   65DG      H6 1478   5.279   3.319   1.352 -0.7282 -1.2172  1.7729
   65DG      H7 1479   5.460   3.314   1.309  0.9322  0.9262 -0.0241
   65DG      H8 1480   5.385   3.196   1.422  2.7652  0.5893  0.5779
   65DG      O9 1481   5.180   3.340   1.895  0.0944  0.1201 -0.0058
   65DG     O10 1482   5.400   3.397   1.484 -0.4721 -0.1745 -0.5126
   65DG     C11 1483   5.293   3.284   1.960  0.6533 -0.1500 -0.8633
   65DG     C12 1484   5.517   3.364   1.557 -0.3510  0.1851 -0.7268
   65DG     H13 1485   5.269   3.203   2.030  0.8267 -1.4121 -2.2121
   65DG     H14 1486   5.352   3.361   2.008  0.0262  0.5077 -1.1245
   65DG     H15 1487   5.554   3.451   1.612 -0.3078  0.2276 -0.8223
   65DG     H16 1488   5.587   3.331   1.480 -0.2651 -2.3041  0.3493
   65DG     C17 1489   5.367   3.215   1.850 -0.2582 -0.5276  0.2042
   65DG     C18 1490   5.492   3.253   1.657 -0.6994  0.2589 -0.1106
   65DG     O19 1491   5.401   3.311   1.747 -0.4713  0.1869 -0.1874
   65DG     H20 1492   5.312   3.132   1.806 -0.3285 -0.0803 -0.5766
   65DG     H21 1493   5.458   3.183   1.900  0.5511  0.4073 -0.6216
   65DG     H22 1494   5.453   3.164   1.607  2.9666 -0.6350 -1.7378
   65DG     H23 1495   5.583   3.222   1.709 -0.5626 -0.7230 -0.9044
   66DG      C1 1496   2.721   0.554   3.464 -0.6188 -0.1401  0.0754
   66DG      C2 1497   2.593   1.349   3.502  0.0735 -0.0987  0.2772
   66DG      H3 1498   2.783   0.485   3.521  0.8777  0.0990 -1.1977
   66DG      H4 1499   2.772   0.577   3.371 -2.2009 -0.5546 -0.9279
   66DG      H5 1500   2.627   0.507   3.435 -1.3172  1.0141  0.3728
   66DG      H6 1501   2.507   1.394   3.552 -0.0808 -3.2100  3.1915
   66DG      H7 1502   2.667   1.426   3.479  0.3178 -0.3622  0.1786
   66DG      H8 1503   2.565   1.298   3.410  1.3105 -0.3199 -0.0021
   66DG      O9 1504   2.699   0.681   3.531  0.0823  0.2897  0.4077
   66DG     O10 1505   2.665   1.261   3.592 -0.0097 -0.3795  0.4876
   66DG     C11 1506   2.796   0.738   3.615 -0.2214 -0.0406  0.0733
   66DG     C12 1507   2.573   1.179   3.670 -0.1854 -0.4826  0.2958
   66DG     H13 1508   2.887   0.770   3.564 -1.0199  0.8296 -0.8327
   66DG     H14 1509   2.840   0.661   3.678  2.6780 -0.1130 -1.8500
   66DG     H15 1510   2.512   1.129   3.596 -0.4394  1.1354 -0.6392
   66DG     H16 1511   2.509   1.238   3.735 -0.7352 -0.2944 -0.4153
   66DG     C17 1512   2.732   0.843   3.705 -0.4796  0.1676 -0.9055
   66DG     C18 1513   2.658   1.072   3.744 -0.0087  0.6982  0.4274
   66DG     O19 1514   2.698   0.971   3.644 -0.0557  0.4641 -0.3598
   66DG     H20 1515   2.795   0.855   3.794 -0.8776  0.0620 -0.6084
   66DG     H21 1516   2.644   0.807   3.758  1.6754 -2.4255  1.2284
   66DG     H22 1517   2.750   1.119   3.781 -0.1642  0.0120  1.7220
   66DG     H23 1518   2.597   1.041   3.829 -0.4773  1.6630  0.4661
   67DG      C1 1519   1.050   4.316   2.418 -0.0564  0.2488  0.2605
   67DG      C2 1520   1.357   4.135   1.834  0.4812  0.7964 -0.3865
   67DG      H3 1521   1.006   4.216   2.413 -0.1996  0.2224  1.6741
   67DG      H4 1522   1.001   4.401   2.372  2.6402  2.2773  0.8691
   67DG      H5 1523   1.066   4.332   2.525  2.4310 -2.3050  0.3994
   67DG      H6 1524   1.279   4.060   1.839  0.0818  1.2970  1.9780
   67DG      H7 1525   1.323   4.222   1.778 -0.8261  1.0768  0.7949
   67DG      H8 1526   1.437   4.080   1.783 -0.0811 -0.7835  0.3727
   67DG      O9 1527   1.179   4.297   2.353  0.5156 -0.0305  0.0125
   67DG     O10 1528   1.376   4.178   1.966 -0.0227  0.2632 -0.0346
   67DG     C11 1529   1.289   4.380   2.393 -0.1338 -0.0025  0.3032
   67DG     C12 1530   1.504   4.227   1.992  0.1256  0.3371 -0.3473
   67DG     H13 1531   1.293   4.395   2.501 -1.1950  0.8368  0.2426
   67DG     H14 1532   1.278   4.484   2.362  1.0721 -0.1272 -0.6241
   67DG     H15 1533   1.516   4.321   1.938 -3.5449  1.3382  0.3112
   67DG     H16 1534   1.578   4.156   1.954  0.8579 -0.7269  2.7462
   67DG     C17 1535   1.421   4.330   2.339  0.1574  0.1454  0.4640
   67DG     C18 1536   1.538   4.247   2.140 -0.4934 -0.0846  0.0755
   67DG     O19 1537   1.420   4.306   2.194 -0.0586 -0.2211  0.2408
   67DG     H20 1538   1.456   4.238   2.386  0.9584  1.9390  3.6498
   67DG     H21 1539   1.499   4.404   2.361  0.6691 -0.2913  0.1471
   67DG     H22 1540   1.562   4.152   2.188  1.6526 -0.4050 -1.4801
   67DG     H23 1541   1.626   4.310   2.155  0.0348 -1.2085  2.2345
   68DG      C1 1542   1.091   3.680   4.366 -0.0344 -0.4496 -0.0762
   68DG      C2 1543   1.066   3.701   3.758  0.4604 -0.4764  0.4210
   68DG      H3 1544   1.005   3.614   4.352  0.5725 -0.9289 -1.6579
   68DG      H4 1545   1.059   3.785   4.370  1.9747  0.3221 -2.0844
   68DG      H5 1546   1.136   3.647   4.460  0.3860  0.1493 -0.0615
   68DG      H6 1547   0.988   3.626   3.772  0.0477 -0.6961 -2.4651
   68DG      H7 1548   1.011   3.787   3.797 -1.1391 -0.9397 -0.7000
   68DG      H8 1549   1.089   3.702   3.652 -1.1077  1.4459  0.0241
   68DG      O9 1550   1.182   3.666   4.252 -0.7840 -0.1918  0.1612
   68DG     O10 1551   1.193   3.685   3.827  0.1825 -0.1171 -0.3289
   68DG     C11 1552   1.292   3.750   4.269 -1.2443 -1.0094 -0.0154
   68DG     C12 1553   1.287   3.778   3.781 -0.0606  0.6440  0.6138
   68DG     H13 1554   1.368   3.716   4.340 -0.1077 -1.9402 -1.6183
   68DG     H14 1555   1.268   3.856   4.282  2.4628 -0.1832  1.2861
   68DG     H15 1556   1.231   3.868   3.754 -1.3496 -0.4347 -0.4137
   68DG     H16 1557   1.346   3.743   3.696  3.2482  1.2802  2.4548
   68DG     C17 1558   1.371   3.749   4.136 -0.8568 -0.3673 -0.2445
   68DG     C18 1559   1.385   3.796   3.903  0.2676  0.0975  0.0292
   68DG     O19 1560   1.307   3.798   4.023  0.1753 -0.0200 -0.0095
   68DG     H20 1561   1.394   3.643   4.129  2.0573  0.3017 -2.3276
   68DG     H21 1562   1.465   3.803   4.145  0.1731 -1.6739 -2.3524
   68DG     H22 1563   1.455   3.713   3.902 -0.6103 -0.6985 -2.3740
   68DG     H23 1564   1.439   3.891   3.902 -0.6364  0.6259 -0.5810
   69DG      C1 1565   2.919   4.558   0.329 -0.6296 -0.6370  0.2568
   69DG      C2 1566   3.315   4.061  -0.130  0.2747  0.0507  1.0488
   69DG      H3 1567   2.947   4.621   0.414  1.9799  1.5164 -1.9900
   69DG      H4 1568   2.815   4.527   0.340 -0.4620 -1.0047  0.8543
   69DG      H5 1569   2.926   4.622   0.241  3.2025 -1.2102 -0.0417
   69DG      H6 1570   3.260   4.130  -0.195 -0.0662  0.3858  1.6839
   69DG      H7 1571   3.416   4.037  -0.162 -0.9968 -1.2148 -2.4183
   69DG      H8 1572   3.260   3.968  -0.144  0.3052 -0.1143  1.9377
   69DG      O9 1573   3.009   4.445   0.319 -0.1756 -0.2719 -0.3395
   69DG     O10 1574   3.300   4.113  -0.004  0.2020  0.0305  0.0737
   69DG     C11 1575   3.148   4.467   0.321  0.4858  0.0500  0.2093
   69DG     C12 1576   3.199   4.062   0.080  0.1633 -0.6306 -0.4536
   69DG     H13 1577   3.171   4.526   0.409 -2.1405  2.9987 -0.9068
   69DG     H14 1578   3.170   4.521   0.229  0.8009  0.0279  0.2732
   69DG     H15 1579   3.193   3.954   0.085 -0.6021 -0.5882 -0.4662
   69DG     H16 1580   3.096   4.080   0.050  0.5920  0.1671 -1.5562
   69DG     C17 1581   3.223   4.328   0.341  0.5700 -0.5509  0.3436
   69DG     C18 1582   3.214   4.122   0.219 -0.0879 -0.1139  0.4431
   69DG     O19 1583   3.195   4.258   0.216 -0.1889 -0.1283 -0.0625
   69DG     H20 1584   3.188   4.281   0.433 -0.7917  0.1769  0.2266
   69DG     H21 1585   3.330   4.346   0.352  0.7892  0.2919 -2.3992
   69DG     H22 1586   3.147   4.080   0.293 -0.2897 -1.1031 -0.2858
   69DG     H23 1587   3.318   4.103   0.246  0.2166 -0.1319 -0.6621
   70DG      C1 1588   1.801   5.176   2.440 -0.3681  0.4613  0.1826
   70DG      C2 1589   1.970   5.401   1.782 -0.4061 -0.3510  0.2678
   70DG      H3 1590   1.740   5.237   2.507  1.7318  1.1360  1.6151
   70DG      H4 1591   1.903   5.213   2.454 -0.2344  0.5506 -0.9713
   70DG      H5 1592   1.802   5.074   2.477  2.6831  0.6756  0.9955
   70DG      H6 1593   2.016   5.498   1.802 -1.1838 -0.3298  2.0984
   70DG      H7 1594   2.059   5.344   1.809 -1.3153 -1.7750  0.3127
   70DG      H8 1595   1.935   5.383   1.680 -2.2974 -0.4576  0.9028
   70DG      O9 1596   1.773   5.196   2.304 -0.0718  0.1868 -0.1952
   70DG     O10 1597   1.879   5.356   1.883 -0.7421 -0.4532  0.0419
   70DG     C11 1598   1.636   5.177   2.286 -0.2788  0.3727 -0.9480
   70DG     C12 1599   1.745   5.369   1.855  0.1277  0.1709 -0.4012
   70DG     H13 1600   1.581   5.267   2.311  2.1900  1.5184  0.6984
   70DG     H14 1601   1.592   5.094   2.342  0.7705  1.7260  2.0424
   70DG     H15 1602   1.727   5.375   1.748  1.4876 -0.2299 -0.6666
   70DG     H16 1603   1.718   5.467   1.896 -0.8519 -0.1568 -0.2444
   70DG     C17 1604   1.617   5.162   2.135  0.0646 -0.8623  0.3867
   70DG     C18 1605   1.660   5.266   1.919 -0.7243  0.3577 -0.2716
   70DG     O19 1606   1.678   5.263   2.057  0.4820  0.2501 -0.3698
   70DG     H20 1607   1.513   5.155   2.104  0.8665 -3.3590 -2.1710
   70DG     H21 1608   1.646   5.060   2.109  4.0529  0.5870 -1.5496
   70DG     H22 1609   1.552   5.270   1.911 -1.3091 -1.3097  3.9365
   70DG     H23 1610   1.671   5.168   1.873 -0.1068  0.6413 -0.7400
   71DG      C1 1611   1.825   3.852   1.603  0.6920  0.7498 -0.3666
   71DG      C2 1612   2.073   4.436   1.364  0.1380 -0.3388 -0.2768
   71DG      H3 1613   1.740   3.893   1.658  1.9638  0.6949  1.7390
   71DG      H4 1614   1.914   3.874   1.662  1.7623 -1.0328 -1.2409
   71DG      H5 1615   1.812   3.744   1.594 -3.4961  1.0644  0.2129
   71DG      H6 1616   1.974   4.480   1.381  0.6226 -0.3753  3.6546
   71DG      H7 1617   2.134   4.485   1.440 -3.1090  1.5887  1.3454
   71DG      H8 1618   2.125   4.465   1.273  0.9805 -1.1556 -0.0672
   71DG      O9 1619   1.846   3.925   1.477  0.6143 -0.3924  0.1582
   71DG     O10 1620   2.082   4.296   1.385  0.2175 -0.2231 -0.1506
   71DG     C11 1621   1.924   3.858   1.385  0.4898 -0.6169  0.4182
   71DG     C12 1622   2.217   4.244   1.378  0.5992 -0.1560 -0.4336
   71DG     H13 1623   1.879   3.895   1.293  0.0249  0.0114  0.8893
   71DG     H14 1624   1.908   3.750   1.393 -1.6501 -0.5603 -1.8416
   71DG     H15 1625   2.280   4.280   1.459  1.2968 -2.6291  0.1998
   71DG     H16 1626   2.260   4.284   1.286  1.3429 -1.2205 -0.5588
   71DG     C17 1627   2.075   3.894   1.408  0.6233  0.8420  0.8482
   71DG     C18 1628   2.204   4.089   1.370 -0.2506 -0.2882 -0.5737
   71DG     O19 1629   2.073   4.038   1.408  0.3767  0.1203  0.4964
   71DG     H20 1630   2.136   3.853   1.328 -0.5083 -0.0066  0.3963
   71DG     H21 1631   2.117   3.851   1.499  0.8281 -0.2054  0.2786
   71DG     H22 1632   2.211   4.063   1.265 -0.5003  0.1768 -0.7055
   71DG     H23 1633   2.284   4.044   1.429 -0.0948  0.1362 -0.4565
   72DG      C1 1634   5.228   4.144   2.869 -0.0284 -0.5083  0.6422
   72DG      C2 1635   5.509   3.776   2.453  0.3142  0.1942 -0.2033
   72DG      H3 1636   5.251   4.100   2.965  0.2256 -2.9340 -0.4448
   72DG      H4 1637   5.141   4.101   2.819 -0.1250  0.3034  0.0874
   72DG      H5 1638   5.187   4.244   2.888  2.2035  0.5636  0.0697
   72DG      H6 1639   5.429   3.716   2.496 -0.3179  0.1490 -1.4038
   72DG      H7 1640   5.474   3.805   2.354 -0.5780 -0.6721 -0.1526
   72DG      H8 1641   5.596   3.711   2.443  1.2101  0.9252  2.1525
   72DG      O9 1642   5.330   4.151   2.778  0.5373 -0.1150 -0.5633
   72DG     O10 1643   5.554   3.886   2.530  0.1785  0.2472 -1.2950
   72DG     C11 1644   5.448   4.211   2.823 -0.1868  0.1643 -0.3898
   72DG     C12 1645   5.611   3.993   2.454 -0.4293 -0.1600 -0.5692
   72DG     H13 1646   5.451   4.208   2.932 -0.3836  0.5471 -0.3758
   72DG     H14 1647   5.451   4.316   2.797 -0.6521  0.5604  1.0758
   72DG     H15 1648   5.537   4.040   2.389 -0.5835 -0.4567 -0.6141
   72DG     H16 1649   5.694   3.963   2.390  2.1001  3.3245  0.8043
   72DG     C17 1650   5.574   4.136   2.755  0.7971  0.2317  0.9115
   72DG     C18 1651   5.663   4.114   2.539  0.2793  0.2094  0.5348
   72DG     O19 1652   5.551   4.161   2.615 -0.2845  0.5668  0.3604
   72DG     H20 1653   5.551   4.035   2.787 -1.4710  0.6702  0.8321
   72DG     H21 1654   5.673   4.158   2.793  1.0017  1.8617 -0.4224
   72DG     H22 1655   5.749   4.083   2.597 -0.4025 -1.2066  0.8172
   72DG     H23 1656   5.711   4.191   2.478  1.9175 -1.3512 -0.2190
   73DG      C1 1657   4.293   5.457   4.117 -0.1739  0.1106  0.7768
   73DG      C2 1658   3.703   5.693   4.380  0.6459  0.2701 -0.3735
   73DG      H3 1659   4.380   5.451   4.051  0.1806  1.1479  1.1280
   73DG      H4 1660   4.262   5.357   4.146 -0.8510  0.2672  0.6091
   73DG      H5 1661   4.326   5.498   4.212  1.4166  3.4241 -1.0166
   73DG      H6 1662   3.736   5.680   4.483  0.5937  0.2578 -0.3585
   73DG      H7 1663   3.624   5.768   4.380  0.6621  0.2985 -1.4232
   73DG      H8 1664   3.674   5.592   4.353  1.2619  0.2440 -0.9595
   73DG      O9 1665   4.188   5.532   4.061  0.6426 -0.3027 -0.0456
   73DG     O10 1666   3.803   5.750   4.296 -0.3630  0.1259 -0.3462
   73DG     C11 1667   4.229   5.663   4.036 -0.2049  0.9989 -0.2216
   73DG     C12 1668   3.775   5.740   4.161  0.2292 -0.0380 -0.1018
   73DG     H13 1669   4.327   5.667   3.989  0.1958  1.4351  0.6296
   73DG     H14 1670   4.249   5.712   4.131 -0.0954  0.0179  0.2686
   73DG     H15 1671   3.682   5.790   4.134 -0.8365 -0.7025  2.1061
   73DG     H16 1672   3.751   5.636   4.139 -0.9400  0.2276 -0.1327
   73DG     C17 1673   4.105   5.735   3.991 -0.1409 -0.0473 -0.0726
   73DG     C18 1674   3.890   5.784   4.071 -0.2403 -0.2680  0.7066
   73DG     O19 1675   4.006   5.711   4.097 -0.2302  0.4018 -0.1221
   73DG     H20 1676   4.075   5.689   3.897  0.4691 -0.4510 -0.0771
   73DG     H21 1677   4.120   5.842   3.977  0.5069 -0.3095 -1.5755
   73DG     H22 1678   3.855   5.758   3.971 -2.2079  0.6888  1.0956
   73DG     H23 1679   3.920   5.888   4.065  0.0118 -0.3779 -0.0685
   74DG      C1 1680   3.832   0.455   1.196  0.3452  0.6483 -0.5751
   74DG      C2 1681   4.476   0.638   0.974 -0.3946  0.0302 -0.4888
   74DG      H3 1682   3.729   0.468   1.229  0.5585 -1.4785  1.1137
   74DG      H4 1683   3.879   0.396   1.274  1.5742 -0.6933 -2.2651
   74DG      H5 1684   3.827   0.378   1.119  0.3993 -0.7228  0.7546
   74DG      H6 1685   4.547   0.714   0.943  2.8641 -2.9602 -1.1207
   74DG      H7 1686   4.529   0.558   1.026  0.6855 -1.2954 -3.3918
   74DG      H8 1687   4.429   0.588   0.889  0.0911 -1.5504  0.1282
   74DG      O9 1688   3.904   0.573   1.160 -0.2078 -0.2218 -0.8844
   74DG     O10 1689   4.375   0.683   1.057  0.0101 -0.2481  0.1970
   74DG     C11 1690   3.937   0.659   1.262  0.3264 -0.9317 -0.0663
   74DG     C12 1691   4.323   0.810   1.013  0.3509 -0.4294  0.2051
   74DG     H13 1692   4.001   0.613   1.338 -0.4238  0.1460  1.2715
   74DG     H14 1693   3.844   0.683   1.313  0.5290 -2.0569  0.8854
   74DG     H15 1694   4.290   0.798   0.910  0.4780  1.0442 -0.0336
   74DG     H16 1695   4.395   0.891   1.001  1.0172 -0.6339  2.4871
   74DG     C17 1696   4.017   0.784   1.222  1.0728  0.4431 -0.5155
   74DG     C18 1697   4.206   0.852   1.108 -0.4225 -0.3165 -0.0905
   74DG     O19 1698   4.126   0.743   1.136 -0.2598  0.0591 -0.5522
   74DG     H20 1699   4.059   0.839   1.306  1.6556  0.1925 -0.6353
   74DG     H21 1700   3.950   0.851   1.167 -2.0811  1.1272  3.6902
   74DG     H22 1701   4.254   0.875   1.203  1.8486  1.1104 -1.5012
   74DG     H23 1702   4.164   0.943   1.064 -1.0207 -0.7615 -0.4649
   75DG      C1 1703   2.206   1.665   1.379 -0.1303  0.5798 -0.2765
   75DG      C2 1704   2.761   1.294   1.312 -0.0618 -0.2857  0.6547
   75DG      H3 1705   2.228   1.703   1.478 -0.0517 -0.4333  0.1052
   75DG      H4 1706   2.158   1.568   1.392  1.3881  0.1461  3.2081
   75DG      H5 1707   2.139   1.730   1.323 -0.0946 -0.5260 -1.6783
   75DG      H6 1708   2.689   1.216   1.292  0.1019 -1.1712  3.1230
   75DG      H7 1709   2.856   1.262   1.269  1.0472  3.1342  0.2023
   75DG      H8 1710   2.768   1.302   1.421 -0.6136 -0.0850  0.6783
   75DG      O9 1711   2.316   1.619   1.303 -0.1003 -0.0295 -0.4152
   75DG     O10 1712   2.715   1.415   1.255 -0.5719 -0.6443  0.1415
   75DG     C11 1713   2.383   1.736   1.243  0.3634  0.4761  0.3087
   75DG     C12 1714   2.799   1.530   1.267 -0.2280 -0.2803  0.3427
   75DG     H13 1715   2.393   1.815   1.318  0.6449  1.1426 -0.4127
   75DG     H14 1716   2.311   1.778   1.173 -0.9983  0.2022  1.5116
   75DG     H15 1717   2.899   1.520   1.224 -0.0206 -0.0741  0.7618
   75DG     H16 1718   2.814   1.556   1.372  1.2944  1.7823 -0.3144
   75DG     C17 1719   2.503   1.693   1.162 -0.2158 -0.0486  0.5945
   75DG     C18 1720   2.730   1.642   1.194  0.3917 -0.0618  0.0271
   75DG     O19 1721   2.606   1.659   1.257  0.0784 -0.2827 -0.2912
   75DG     H20 1722   2.541   1.772   1.096  0.3403 -0.4118  0.4752
   75DG     H21 1723   2.477   1.610   1.097 -2.2421 -0.1406  1.4558
   75DG     H22 1724   2.778   1.739   1.210 -0.9239  0.9756 -1.8757
   75DG     H23 1725   2.718   1.605   1.092  0.4960 -0.3256  0.1118
   76DG      C1 1726   1.528   1.553   4.600 -0.1805  0.1544 -0.0835
   76DG      C2 1727   2.058   1.717   4.168 -0.6658  0.2851 -0.5121
   76DG      H3 1728   1.521   1.469   4.670 -0.6827 -0.2741 -0.6402
   76DG      H4 1729   1.475   1.528   4.508  0.0949  3.4625 -1.2490
   76DG      H5 1730   1.461   1.622   4.651 -0.1102  0.3501 -0.2580
   76DG      H6 1731   1.982   1.708   4.091  0.7812  2.0012 -2.2473
   76DG      H7 1732   2.102   1.816   4.155 -0.4835  0.3344  0.3856
   76DG      H8 1733   2.127   1.633   4.154  1.3296  2.1009 -2.2543
   76DG      O9 1734   1.655   1.617   4.582  0.3248  0.2349  0.4872
   76DG     O10 1735   2.009   1.699   4.302  0.4224 -0.2194 -0.3399
   76DG     C11 1736   1.715   1.650   4.704 -0.1354 -0.0522 -0.0470
   76DG     C12 1737   2.110   1.709   4.402 -0.4516  0.3662  0.4201
   76DG     H13 1738   1.731   1.562   4.767  2.8374  0.0041 -0.5435
   76DG     H14 1739   1.650   1.722   4.751 -1.8745 -0.3777 -1.8265
   76DG     H15 1740   2.185   1.787   4.392  0.3491 -0.3267  0.8744
   76DG     H16 1741   2.156   1.610   4.397  1.1310  1.1422 -1.6551
   76DG     C17 1742   1.857   1.705   4.684  0.1016  0.6319  0.5508
   76DG     C18 1743   2.039   1.740   4.537 -0.0271  0.3211  0.3786
   76DG     O19 1744   1.911   1.680   4.549  0.6967  0.1625 -0.6789
   76DG     H20 1745   1.916   1.676   4.770 -1.7314  0.4526  1.8046
   76DG     H21 1746   1.850   1.814   4.686 -1.0623  0.6189 -0.8482
   76DG     H22 1747   2.104   1.707   4.618  0.2209 -2.3109 -0.8034
   76DG     H23 1748   2.035   1.849   4.544 -1.6229  0.3764 -0.7143
   77DG      C1 1749   4.087   3.897   3.481 -0.2422 -0.4296  0.3993
   77DG      C2 1750   4.050   3.340   3.866 -0.3918 -1.0678  0.8587
   77DG      H3 1751   4.060   3.961   3.396 -1.2824 -1.2119  0.1165
   77DG      H4 1752   4.175   3.840   3.450  0.8007  0.3855  1.7614
   77DG      H5 1753   4.116   3.957   3.567  2.7605 -0.1599 -0.6943
   77DG      H6 1754   3.983   3.301   3.943 -2.2643  0.2158 -0.0280
   77DG      H7 1755   4.116   3.267   3.821  1.3902  0.2737  1.1716
   77DG      H8 1756   4.125   3.402   3.916 -0.8900  0.5332 -0.2995
   77DG      O9 1757   3.975   3.815   3.519 -0.3705  0.0049  0.4642
   77DG     O10 1758   3.975   3.414   3.763 -0.1672 -0.3484 -0.2204
   77DG     C11 1759   3.948   3.725   3.408  0.4354 -0.2086  0.1303
   77DG     C12 1760   3.920   3.331   3.667  0.0608  0.0626  0.5489
   77DG     H13 1761   4.044   3.675   3.399  0.1837 -0.9126  1.2075
   77DG     H14 1762   3.925   3.771   3.311 -2.4427 -2.0106 -0.1805
   77DG     H15 1763   3.866   3.247   3.711  1.8504 -0.7060  1.4097
   77DG     H16 1764   4.006   3.283   3.620 -0.8346 -1.0283 -0.0124
   77DG     C17 1765   3.832   3.622   3.452  0.1219  0.0341  0.3684
   77DG     C18 1766   3.831   3.421   3.576  0.4928  0.1371 -0.1355
   77DG     O19 1767   3.903   3.531   3.533  0.0119 -0.8467  0.2144
   77DG     H20 1768   3.785   3.572   3.367  0.3732  0.0289  0.2314
   77DG     H21 1769   3.751   3.668   3.510  1.0144  3.3520 -0.7700
   77DG     H22 1770   3.802   3.369   3.484  2.2245  1.4909 -1.5160
   77DG     H23 1771   3.738   3.455   3.620 -0.7753 -2.9738 -0.1649
   78DG      C1 1772   1.091   3.096   0.635  0.2177  0.0986  0.5966
   78DG      C2 1773   1.005   2.404   0.632  0.0844 -0.5417 -0.3101
   78DG      H3 1774   1.099   3.086   0.743  1.5366 -2.0217  0.3527
   78DG      H4 1775   0.988   3.119   0.607  0.5789  1.2430  0.1186
   78DG      H5 1776   1.151   3.180   0.598  1.1971 -1.7788 -2.4132
   78DG      H6 1777   0.897   2.414   0.629 -0.0874 -1.8717  0.3965
   78DG      H7 1778   1.047   2.310   0.596  0.3141 -0.2524 -0.8058
   78DG      H8 1779   1.025   2.399   0.739  0.2969  2.1107 -0.1649
   78DG      O9 1780   1.133   2.967   0.583  0.1929 -0.5715  0.3777
   78DG     O10 1781   1.077   2.506   0.575 -0.0664  0.1988 -0.4446
   78DG     C11 1782   1.274   2.967   0.549  0.1362 -0.5474  0.0159
   78DG     C12 1783   1.221   2.492   0.587 -0.3430 -0.3251 -0.2829
   78DG     H13 1784   1.328   2.986   0.642  2.1466  2.4625 -1.5932
   78DG     H14 1785   1.310   3.045   0.481 -0.0812 -0.2439  0.2452
   78DG     H15 1786   1.251   2.391   0.558  0.6642  0.0354 -0.5588
   78DG     H16 1787   1.266   2.511   0.684 -0.3325 -0.7056 -0.2130
   78DG     C17 1788   1.308   2.833   0.485  0.2226 -0.3562  0.1169
   78DG     C18 1789   1.277   2.600   0.501  0.4860  0.3444 -0.3733
   78DG     O19 1790   1.257   2.728   0.562  0.6652  0.1812  0.6703
   78DG     H20 1791   1.417   2.835   0.478  0.1726 -0.8228 -0.8875
   78DG     H21 1792   1.267   2.824   0.385 -0.6636  0.3174  0.4124
   78DG     H22 1793   1.384   2.580   0.494  0.3706 -0.4857  0.1416
   78DG     H23 1794   1.232   2.590   0.402  1.5077 -1.7549 -0.6790
   79DG      C1 1795   0.820   4.753   2.297  1.1406  0.2204  0.0616
   79DG      C2 1796   0.864   5.157   2.855 -0.3041  0.0005  0.3426
   79DG      H3 1797   0.876   4.795   2.214  1.1741 -0.5752 -0.3226
   79DG      H4 1798   0.727   4.808   2.314  1.8367  1.8027 -1.0438
   79DG      H5 1799   0.787   4.653   2.269 -2.5636  0.6943  2.0713
   79DG      H6 1800   0.928   5.132   2.940 -0.8372  0.6345  0.9322
   79DG      H7 1801   0.924   5.228   2.798  2.7714 -1.8451  1.0432
   79DG      H8 1802   0.773   5.207   2.885 -1.6407 -2.4509  0.6048
   79DG      O9 1803   0.898   4.729   2.415 -0.7748  0.3571 -0.3878
   79DG     O10 1804   0.818   5.045   2.777  0.1933 -0.8906 -0.2001
   79DG     C11 1805   0.863   4.638   2.515 -0.0873 -0.6768 -0.0438
   79DG     C12 1806   0.734   4.953   2.842  0.2708  0.3598 -0.4843
   79DG     H13 1807   0.950   4.625   2.580 -2.2620 -2.6517  2.7396
   79DG     H14 1808   0.846   4.542   2.467 -0.0383 -0.0034 -1.4578
   79DG     H15 1809   0.645   4.987   2.895 -0.6832 -1.0859 -1.0931
   79DG     H16 1810   0.790   4.888   2.909 -0.0519  0.4938 -0.0753
   79DG     C17 1811   0.744   4.694   2.587  0.4070  0.2478 -0.7462
   79DG     C18 1812   0.684   4.847   2.747 -0.2206 -0.5342 -0.8911
   79DG     O19 1813   0.785   4.803   2.665 -0.4753 -0.2077 -0.3483
   79DG     H20 1814   0.690   4.619   2.644 -1.3337  0.7126 -1.6828
   79DG     H21 1815   0.665   4.734   2.522  1.0978  1.1334 -1.0580
   79DG     H22 1816   0.638   4.764   2.802  1.0596 -0.7752 -0.1414
   79DG     H23 1817   0.603   4.878   2.681  2.6979  1.0199 -3.9669
   80DG      C1 1818   3.353   3.775   2.371  0.0802  0.3222  0.2905
   80DG      C2 1819   2.882   3.615   1.981 -0.2636  0.4684 -0.5409
   80DG      H3 1820   3.451   3.778   2.418 -0.3804 -0.5417  1.3502
   80DG      H4 1821   3.303   3.716   2.448 -0.6938 -0.3041 -0.6610
   80DG      H5 1822   3.324   3.880   2.371 -0.0648  0.2846 -0.1709
   80DG      H6 1823   2.864   3.715   2.020 -2.5966 -0.3561  0.7033
   80DG      H7 1824   2.808   3.602   1.901 -0.5317 -1.4995 -0.0291
   80DG      H8 1825   2.850   3.540   2.053 -0.4002  0.1064 -0.9717
   80DG      O9 1826   3.355   3.727   2.238  0.3044 -0.1058  0.2590
   80DG     O10 1827   3.019   3.600   1.952 -0.6430 -0.1799 -0.1747
   80DG     C11 1828   3.435   3.605   2.222 -0.1426  0.2065  0.4034
   80DG     C12 1829   3.065   3.469   1.934 -0.0269 -0.4635 -0.1710
   80DG     H13 1830   3.417   3.528   2.297  1.0173  0.0101  0.5035
   80DG     H14 1831   3.541   3.629   2.229  0.1926 -0.9448 -0.4358
   80DG     H15 1832   3.030   3.417   1.844  0.9827 -1.2039 -0.1459
   80DG     H16 1833   3.034   3.401   2.013  1.6989 -2.0028 -0.7546
   80DG     C17 1834   3.401   3.552   2.079 -0.5811  0.3356  0.3547
   80DG     C18 1835   3.217   3.482   1.942 -0.2272 -1.0131  0.5718
   80DG     O19 1836   3.262   3.548   2.063 -0.3380 -0.0738 -0.6199
   80DG     H20 1837   3.446   3.455   2.059  1.1944  1.3324 -0.7140
   80DG     H21 1838   3.443   3.627   2.013 -1.6412  1.0164  0.4305
   80DG     H22 1839   3.259   3.382   1.935  0.2431 -0.7860  0.1189
   80DG     H23 1840   3.253   3.539   1.856 -0.4587 -0.6444  0.7116
   81DG      C1 1841   1.988   0.270   4.571 -0.0053  0.1946  0.1918
   81DG      C2 1842   2.200   0.835   4.410 -0.2653 -0.0106 -0.8529
   81DG      H3 1843   1.993   0.264   4.462 -0.7938  1.2807  0.0879
   81DG      H4 1844   1.899   0.219   4.607  0.1796 -0.4570 -0.2437
   81DG      H5 1845   2.078   0.228   4.616 -0.0241 -2.7089 -2.0855
   81DG      H6 1846   2.269   0.750   4.411  1.8797  1.6206 -1.2671
   81DG      H7 1847   2.186   0.864   4.306 -0.0505 -0.2713 -0.9557
   81DG      H8 1848   2.249   0.922   4.454 -1.5751  0.5259 -0.4356
   81DG      O9 1849   1.995   0.410   4.594 -0.2932  0.1806  0.2828
   81DG     O10 1850   2.077   0.796   4.467 -0.6929  0.2161  0.2644
   81DG     C11 1851   1.971   0.431   4.731  0.2214 -0.0177  0.0600
   81DG     C12 1852   2.065   0.846   4.602  0.2114  0.0196  0.0156
   81DG     H13 1853   2.031   0.362   4.791 -0.4214 -1.9918 -1.4539
   81DG     H14 1854   1.868   0.404   4.752  0.5400  0.1551  2.0611
   81DG     H15 1855   2.077   0.955   4.608 -1.7955  0.5099 -2.7939
   81DG     H16 1856   2.145   0.810   4.666  0.8498  1.4911  0.0986
   81DG     C17 1857   1.984   0.581   4.757  0.1939 -0.7100 -0.0759
   81DG     C18 1858   1.929   0.797   4.660 -0.2391  0.3275  0.4238
   81DG     O19 1859   1.922   0.654   4.643 -0.8525  0.0331  0.2890
   81DG     H20 1860   2.081   0.623   4.784  0.1808 -1.0820  0.5628
   81DG     H21 1861   1.931   0.595   4.852  0.3867 -0.1610 -0.0416
   81DG     H22 1862   1.906   0.829   4.761 -1.8118 -0.8794  0.4887
   81DG     H23 1863   1.855   0.838   4.591 -0.9239  2.4815  2.3213
   82DG      C1 1864   0.702   3.684   2.101  0.0452 -0.1478 -0.1445
   82DG      C2 1865   0.087   3.620   2.166 -0.1195 -0.6348  0.8240
   82DG      H3 1866   0.708   3.629   2.195  0.2900  1.1094  0.5970
   82DG      H4 1867   0.798   3.710   2.057  0.0048 -1.8270 -1.3524
   82DG      H5 1868   0.659   3.627   2.018  2.7919  0.1031 -1.8742
   82DG      H6 1869   0.109   3.583   2.066  0.9720 -1.5101  1.3605
   82DG      H7 1870   0.102   3.531   2.226 -0.2939 -0.7339  0.7222
   82DG      H8 1871  -0.016   3.656   2.165  0.0060 -0.2709 -0.1219
   82DG      O9 1872   0.611   3.788   2.128 -0.4662 -0.0980 -0.3594
   82DG     O10 1873   0.178   3.729   2.187  0.3698 -0.5831 -0.4039
   82DG     C11 1874   0.594   3.866   2.011  0.1310 -0.3316 -0.1738
   82DG     C12 1875   0.142   3.849   2.117 -0.0656  0.6166  0.2618
   82DG     H13 1876   0.567   3.805   1.924  3.1120 -3.2786  0.7790
   82DG     H14 1877   0.681   3.924   1.979  0.2617  0.4232  1.4557
   82DG     H15 1878   0.061   3.891   2.176 -0.8463 -1.6805  0.9275
   82DG     H16 1879   0.092   3.830   2.022 -0.0034 -0.7678  0.4866
   82DG     C17 1880   0.479   3.967   2.040  0.7437  0.3078 -0.5562
   82DG     C18 1881   0.260   3.951   2.106 -0.1780 -0.4162  0.4281
   82DG     O19 1882   0.376   3.884   2.084  0.0122  0.0539  0.2961
   82DG     H20 1883   0.459   4.036   1.958 -0.7953 -0.8359 -1.2088
   82DG     H21 1884   0.507   4.026   2.127 -0.3382 -1.2737  0.9394
   82DG     H22 1885   0.237   4.018   2.023 -0.9647  2.1066  2.5529
   82DG     H23 1886   0.260   4.014   2.195 -2.4679 -0.1721  0.3315
   83DG      C1 1887   1.531   1.897   0.529  0.1626 -0.4706  0.2495
   83DG      C2 1888   2.157   1.834   0.470 -0.2661  0.5395  0.4601
   83DG      H3 1889   1.462   1.979   0.550 -1.4277 -1.0216 -2.3519
   83DG      H4 1890   1.486   1.802   0.558 -0.2555 -0.7217 -1.1220
   83DG      H5 1891   1.558   1.905   0.423 -0.3138 -2.5237 -0.0821
   83DG      H6 1892   2.180   1.743   0.414 -1.7894 -0.6134  1.6089
   83DG      H7 1893   2.139   1.913   0.397 -0.5550 -0.7236 -0.8984
   83DG      H8 1894   2.237   1.863   0.538 -1.7093  0.0693  2.4483
   83DG      O9 1895   1.654   1.908   0.598  0.6105 -0.4800 -0.3372
   83DG     O10 1896   2.032   1.819   0.534  0.1865 -0.1869 -0.0673
   83DG     C11 1897   1.630   1.921   0.742 -0.2106  0.8842 -0.6957
   83DG     C12 1898   2.042   1.763   0.667 -0.0164  0.6765 -0.4799
   83DG     H13 1899   1.584   1.826   0.771  4.0197 -1.6422 -1.3407
   83DG     H14 1900   1.561   1.997   0.778  1.3445  1.6379  0.8559
   83DG     H15 1901   2.117   1.817   0.726 -0.1145 -0.4769  0.7379
   83DG     H16 1902   2.068   1.658   0.666  0.5949  0.8245 -1.2241
   83DG     C17 1903   1.764   1.944   0.818  0.2920 -0.4187 -0.2249
   83DG     C18 1904   1.910   1.776   0.738  0.0641 -0.5035  0.3044
   83DG     O19 1905   1.885   1.920   0.749 -0.2898  0.2372 -0.0052
   83DG     H20 1906   1.774   1.891   0.912 -0.7528 -3.0495 -1.4781
   83DG     H21 1907   1.776   2.049   0.843  1.9710 -0.3239 -1.2759
   83DG     H22 1908   1.824   1.739   0.684 -2.0324  1.5906  1.9896
   83DG     H23 1909   1.927   1.735   0.838  1.9838  0.1877  0.3188
   84DG      C1 1910   4.243   3.544   2.243  0.1067 -0.8820 -0.5042
   84DG      C2 1911   4.032   3.690   1.649  0.1528  0.3072  0.9699
   84DG      H3 1912   4.179   3.631   2.257  1.3156 -0.0651  0.1706
   84DG      H4 1913   4.336   3.591   2.209 -0.1608  0.4722  0.5468
   84DG      H5 1914   4.237   3.510   2.346  0.4730  1.2097  0.2755
   84DG      H6 1915   3.955   3.653   1.582 -0.4685 -2.7948  3.1813
   84DG      H7 1916   3.992   3.768   1.715  0.2939  0.9188  0.3434
   84DG      H8 1917   4.119   3.723   1.592 -0.2354 -0.6170 -0.1934
   84DG      O9 1918   4.185   3.452   2.154  0.4681 -0.2727  0.3578
   84DG     O10 1919   4.065   3.577   1.735 -0.0625 -0.3080  0.3959
   84DG     C11 1920   4.271   3.343   2.110  0.5768  0.6999 -0.7330
   84DG     C12 1921   4.155   3.488   1.667  0.2187 -0.1221  0.6629
   84DG     H13 1922   4.269   3.260   2.180 -0.9379 -0.5749 -2.2166
   84DG     H14 1923   4.370   3.387   2.097  0.7208  0.0195 -2.0941
   84DG     H15 1924   4.245   3.545   1.647 -3.5155  5.5983 -2.7967
   84DG     H16 1925   4.115   3.466   1.567  2.4223  0.7032 -0.4667
   84DG     C17 1926   4.226   3.300   1.975  0.4727 -0.2188  0.4067
   84DG     C18 1927   4.189   3.365   1.749  0.8837  0.3938 -0.2144
   84DG     O19 1928   4.216   3.405   1.883  0.5130 -0.0573  0.6443
   84DG     H20 1929   4.124   3.262   1.981  0.0398  0.5746 -1.3777
   84DG     H21 1930   4.282   3.211   1.948 -0.6023 -1.4402  1.9965
   84DG     H22 1931   4.092   3.315   1.752  0.3849  1.3742  1.9332
   84DG     H23 1932   4.255   3.306   1.685 -0.6242 -0.6040 -0.9136
   85DG      C1 1933   1.676   0.059   1.288 -0.2919  0.4076  0.3210
   85DG      C2 1934   1.756   0.371   0.686 -0.3283 -0.0305  0.3027
   85DG      H3 1935   1.694   0.081   1.393  0.6581 -1.1589  0.5216
   85DG      H4 1936   1.775   0.019   1.265  0.5358  0.6234  3.1381
   85DG      H5 1937   1.607  -0.023   1.268  0.0353  0.6481 -2.0986
   85DG      H6 1938   1.724   0.461   0.633  1.1818  1.0775  1.1943
   85DG      H7 1939   1.847   0.391   0.742 -1.5093  1.5286  1.7435
   85DG      H8 1940   1.779   0.295   0.611  1.2957  1.2853 -0.6165
   85DG      O9 1941   1.637   0.178   1.219  0.2426 -0.7230  0.5268
   85DG     O10 1942   1.669   0.318   0.786 -0.2994 -0.4471 -0.3868
   85DG     C11 1943   1.499   0.202   1.208 -0.7180 -0.1402 -0.6348
   85DG     C12 1944   1.538   0.305   0.740 -0.3381 -0.3040  0.0747
   85DG     H13 1945   1.470   0.304   1.231 -1.4123 -0.5257  0.3067
   85DG     H14 1946   1.440   0.152   1.285 -2.9424  2.4305 -0.5509
   85DG     H15 1947   1.517   0.275   0.638  1.9059  0.0020 -0.5373
   85DG     H16 1948   1.510   0.410   0.749  0.7555 -0.0187  0.3428
   85DG     C17 1949   1.447   0.159   1.069  0.4324 -0.1458 -0.4982
   85DG     C18 1950   1.462   0.214   0.830 -0.3977  0.1172 -0.3317
   85DG     O19 1951   1.509   0.238   0.965  0.2110 -0.1913 -0.3920
   85DG     H20 1952   1.339   0.166   1.055  0.3116 -0.3181  0.3223
   85DG     H21 1953   1.465   0.056   1.040 -0.2233 -0.0798 -1.1791
   85DG     H22 1954   1.353   0.214   0.825 -0.4020  0.0931 -0.2270
   85DG     H23 1955   1.478   0.109   0.803 -0.0677 -0.0232  0.3888
   86DG      C1 1956   3.079   3.409   2.351 -0.3828  0.1493  0.5435
   86DG      C2 1957   3.158   4.025   2.082 -0.7640  0.4267  0.4383
   86DG      H3 1958   3.010   3.345   2.295  0.9361  0.1859 -1.2247
   86DG      H4 1959   3.085   3.374   2.454  2.4103  1.0990  0.7832
   86DG      H5 1960   3.181   3.399   2.314 -1.5402 -0.1246 -2.9343
   86DG      H6 1961   3.256   3.978   2.082 -1.3717 -1.1081  4.0694
   86DG      H7 1962   3.117   4.023   1.981  0.0353  3.7499 -0.0972
   86DG      H8 1963   3.173   4.132   2.101  1.1388  0.6270 -1.7264
   86DG      O9 1964   3.027   3.539   2.339  0.0503  0.3530  0.1752
   86DG     O10 1965   3.075   3.947   2.166 -0.3628 -0.0274 -0.0597
   86DG     C11 1966   2.887   3.546   2.360 -0.4312  0.0483 -0.4502
   86DG     C12 1967   2.951   4.004   2.190  0.0146  0.5543 -0.3036
   86DG     H13 1968   2.854   3.502   2.454 -0.7533  1.2286  0.0159
   86DG     H14 1969   2.841   3.492   2.278 -1.5156  1.1119 -0.5703
   86DG     H15 1970   2.891   3.983   2.101  1.2851 -0.9727 -0.8421
   86DG     H16 1971   2.947   4.111   2.211 -1.8931  0.1797  1.5744
   86DG     C17 1972   2.858   3.698   2.369  0.2805 -0.3157  0.0596
   86DG     C18 1973   2.888   3.912   2.304 -0.1226  0.1666 -0.4050
   86DG     O19 1974   2.924   3.777   2.274  0.2334  0.3657 -0.2120
   86DG     H20 1975   2.891   3.739   2.464  2.0868 -0.7839 -0.3224
   86DG     H21 1976   2.750   3.705   2.356  0.2626  0.5847  0.6003
   86DG     H22 1977   2.917   3.944   2.404 -0.2934  2.4461 -1.0289
   86DG     H23 1978   2.780   3.906   2.290 -0.1177  1.4723 -1.1408
   87DG      C1 1979   3.867   1.508   1.276  0.4802 -0.3797 -0.7632
   87DG      C2 1980   4.281   1.222   1.755  0.5914 -0.2834  0.7560
   87DG      H3 1981   3.760   1.493   1.264  0.0256  1.3157  0.6995
   87DG      H4 1982   3.906   1.419   1.226  0.3010  0.5575 -2.6358
   87DG      H5 1983   3.899   1.596   1.220 -1.1365  0.4621 -0.4180
   87DG      H6 1984   4.332   1.203   1.660  0.4042 -0.3451  0.6688
   87DG      H7 1985   4.364   1.238   1.824  0.3184  1.1159  0.7845
   87DG      H8 1986   4.214   1.139   1.777 -1.8230  1.3162 -0.1409
   87DG      O9 1987   3.922   1.507   1.409 -0.0758  0.2300  0.2422
   87DG     O10 1988   4.195   1.335   1.745  0.3660  0.3219 -0.0585
   87DG     C11 1989   3.849   1.597   1.492  0.6715  0.3521 -0.2466
   87DG     C12 1990   4.085   1.345   1.838 -0.6986 -0.2062  0.0786
   87DG     H13 1991   3.753   1.557   1.523  0.2093  1.8379  0.3329
   87DG     H14 1992   3.818   1.692   1.448  1.7144  0.4392 -0.8363
   87DG     H15 1993   4.133   1.345   1.936  2.6589  0.0933 -1.4254
   87DG     H16 1994   4.022   1.255   1.846 -2.4443  1.1556  3.7282
   87DG     C17 1995   3.938   1.610   1.622  0.1017  0.3446 -0.1916
   87DG     C18 1996   4.001   1.474   1.813  0.0881 -0.6950  0.0544
   87DG     O19 1997   3.978   1.484   1.674 -0.4276  0.3014  0.1929
   87DG     H20 1998   3.869   1.649   1.697 -1.1627 -0.1832 -1.0367
   87DG     H21 1999   4.017   1.685   1.618 -1.0444  1.5681 -1.5755
   87DG     H22 2000   3.906   1.479   1.867  0.2884 -0.0820  0.3482
   87DG     H23 2001   4.054   1.561   1.850 -1.4612  0.0127  0.7142
   88DG      C1 2002   2.638   5.393   5.084 -0.4004 -0.0823  0.0449
   88DG      C2 2003   3.070   5.121   4.674 -1.4902 -0.1772  0.2747
   88DG      H3 2004   2.531   5.381   5.100 -0.3813 -3.1971 -1.3131
   88DG      H4 2005   2.662   5.482   5.026 -0.7618 -0.3641 -0.5502
   88DG      H5 2006   2.695   5.408   5.175  0.7424  0.6742 -0.7745
   88DG      H6 2007   3.140   5.071   4.740 -0.1776  0.3129 -0.6995
   88DG      H7 2008   3.101   5.110   4.570  0.2079 -0.5330  0.7815
   88DG      H8 2009   3.099   5.225   4.691  4.3487 -1.7297  1.8958
   88DG      O9 2010   2.678   5.282   5.011  0.0794 -0.2795  0.1290
   88DG     O10 2011   2.938   5.103   4.716  0.1635  0.0376 -0.4628
   88DG     C11 2012   2.630   5.153   5.058 -0.3996  0.2273  0.0411
   88DG     C12 2013   2.901   4.966   4.718 -0.6086  0.3695 -0.2234
   88DG     H13 2014   2.532   5.164   5.105 -0.6069  0.2376 -0.3832
   88DG     H14 2015   2.692   5.121   5.141  2.8077  4.4095 -0.4181
   88DG     H15 2016   2.971   4.913   4.782 -0.7439  2.4090  1.7565
   88DG     H16 2017   2.898   4.923   4.618 -2.2281 -0.0944 -0.0177
   88DG     C17 2018   2.634   5.052   4.940  0.7012 -0.3638 -0.1267
   88DG     C18 2019   2.764   4.948   4.777 -0.4939  0.7786 -0.4857
   88DG     O19 2020   2.763   5.033   4.889  0.3429  0.6774  0.7232
   88DG     H20 2021   2.567   5.098   4.868  1.0057  3.0091  1.5416
   88DG     H21 2022   2.594   4.956   4.974  0.9614 -0.6814 -0.7143
   88DG     H22 2023   2.688   4.979   4.706 -0.2563  3.1839  0.2074
   88DG     H23 2024   2.746   4.846   4.811 -0.9741  0.8388 -0.5567
   89DG      C1 2025   4.797   2.289   1.366 -0.1879  0.8242  0.3962
   89DG      C2 2026   4.166   2.535   1.335  0.0914 -0.4678  0.2588
   89DG      H3 2027   4.884   2.316   1.425 -0.0261  0.2132  0.4416
   89DG      H4 2028   4.810   2.326   1.264  2.3176 -1.5679 -0.2441
   89DG      H5 2029   4.798   2.180   1.366  2.4345  0.7938  1.3694
   89DG      H6 2030   4.081   2.469   1.319  0.4101 -0.6445 -0.7752
   89DG      H7 2031   4.124   2.619   1.391  0.3588 -2.1144  3.1526
   89DG      H8 2032   4.204   2.566   1.238  0.0515 -2.0466 -0.2877
   89DG      O9 2033   4.680   2.335   1.436  0.8547 -0.2048 -0.1163
   89DG     O10 2034   4.259   2.475   1.417 -0.2860  0.7118  0.2779
   89DG     C11 2035   4.663   2.272   1.567 -0.2775 -0.0466  0.2995
   89DG     C12 2036   4.207   2.436   1.545  0.0088  0.0164  0.0584
   89DG     H13 2037   4.758   2.264   1.619 -0.4160 -0.6947  0.4552
   89DG     H14 2038   4.618   2.175   1.547  1.4325 -1.5077  2.9890
   89DG     H15 2039   4.142   2.349   1.532 -0.4851  0.1244  1.5432
   89DG     H16 2040   4.141   2.507   1.593 -1.8429 -1.8576  0.4487
   89DG     C17 2041   4.567   2.359   1.641 -0.6268 -0.0153  0.1040
   89DG     C18 2042   4.336   2.416   1.638 -0.2032  0.1950 -0.3755
   89DG     O19 2043   4.449   2.360   1.564  0.0515 -0.1684  0.3068
   89DG     H20 2044   4.612   2.457   1.651  0.8851 -0.5980 -0.6480
   89DG     H21 2045   4.546   2.311   1.737 -0.6641 -0.4507 -0.1168
   89DG     H22 2046   4.378   2.507   1.681  1.0471 -0.1336 -0.8499
   89DG     H23 2047   4.304   2.354   1.722 -1.2560  0.5387 -0.5142
   90DG      C1 2048   5.092   3.912   3.652 -0.3675 -0.1600  0.1252
   90DG      C2 2049   5.560   4.154   3.232  0.1000  0.2624 -0.1397
   90DG      H3 2050   5.099   3.861   3.748 -3.0992 -1.0599 -0.0528
   90DG      H4 2051   5.013   3.891   3.580 -0.0948 -0.7308 -0.0115
   90DG      H5 2052   5.087   4.018   3.677  0.8262 -0.7328  3.2188
   90DG      H6 2053   5.645   4.155   3.163 -1.0142  0.8085 -1.5535
   90DG      H7 2054   5.471   4.180   3.176 -2.2353  1.0176  3.6025
   90DG      H8 2055   5.561   4.238   3.301 -0.8077 -0.1520  0.3878
   90DG      O9 2056   5.207   3.873   3.580 -0.2668 -0.4073 -0.0281
   90DG     O10 2057   5.531   4.033   3.299 -0.9611  0.2689  0.1900
   90DG     C11 2058   5.192   3.744   3.519 -0.1242 -0.0847 -0.0656
   90DG     C12 2059   5.499   3.923   3.211  0.4186 -0.5570  0.2187
   90DG     H13 2060   5.116   3.754   3.441 -0.0453  1.7322  0.0275
   90DG     H14 2061   5.184   3.667   3.595  1.8826  1.1761  1.5299
   90DG     H15 2062   5.570   3.923   3.129  0.0472 -1.4316 -0.1166
   90DG     H16 2063   5.405   3.958   3.170  1.2119 -0.5279 -1.6400
   90DG     C17 2064   5.328   3.695   3.456  0.5513  0.1984  0.4355
   90DG     C18 2065   5.473   3.791   3.284  0.1531 -0.0165 -0.7928
   90DG     O19 2066   5.371   3.809   3.382  0.4250 -0.1955 -0.1029
   90DG     H20 2067   5.300   3.605   3.402 -0.0273  0.5746  0.0990
   90DG     H21 2068   5.401   3.667   3.531 -1.2046 -0.0000  2.1440
   90DG     H22 2069   5.439   3.724   3.205  1.2285 -0.3618 -0.9768
   90DG     H23 2070   5.564   3.759   3.334  0.3752 -2.0846 -2.4011
   91DG      C1 2071   3.232   1.345   2.922  0.1834  0.5270 -0.5208
   91DG      C2 2072   3.712   1.796   3.054 -0.3053 -0.6366 -0.3886
   91DG      H3 2073   3.314   1.274   2.933  0.3208  0.8461  0.5891
   91DG      H4 2074   3.150   1.296   2.869 -1.3446  0.2586  1.9671
   91DG      H5 2075   3.203   1.357   3.026  0.6754  0.0448 -0.3186
   91DG      H6 2076   3.728   1.902   3.036 -1.0696 -0.6165 -0.9741
   91DG      H7 2077   3.764   1.749   3.137 -1.1690 -1.0449 -0.0659
   91DG      H8 2078   3.756   1.758   2.962 -4.1235  0.3272 -2.8532
   91DG      O9 2079   3.280   1.462   2.863  0.6093  0.1247  0.3617
   91DG     O10 2080   3.574   1.754   3.060 -0.0616 -0.4273 -0.3254
   91DG     C11 2081   3.191   1.577   2.868 -0.1077  0.0363  0.4919
   91DG     C12 2082   3.482   1.832   3.143 -0.0226  0.5636  0.3492
   91DG     H13 2083   3.088   1.548   2.845 -0.1499 -0.1593  0.9282
   91DG     H14 2084   3.215   1.644   2.785  0.1659 -1.7380 -0.9433
   91DG     H15 2085   3.468   1.937   3.115  1.5040  0.9238  0.8441
   91DG     H16 2086   3.520   1.841   3.244  0.7804 -0.2719  0.1409
   91DG     C17 2087   3.194   1.648   3.002 -0.7247  0.3184 -0.0885
   91DG     C18 2088   3.352   1.749   3.147  0.2487  0.4016  0.2228
   91DG     O19 2089   3.333   1.687   3.018 -0.7647  0.2862  0.6124
   91DG     H20 2090   3.164   1.591   3.091  0.2205 -0.8591 -0.4940
   91DG     H21 2091   3.129   1.734   2.990 -1.1155 -0.0083 -0.3431
   91DG     H22 2092   3.356   1.671   3.222 -0.8335  0.4033  0.3085
   91DG     H23 2093   3.271   1.817   3.173 -0.2938 -0.2095  0.1577
   92DG      C1 2094   5.163   3.382   0.681 -0.4529  1.1981  0.7076
   92DG      C2 2095   5.475   3.987   0.634  0.1830 -0.1130 -0.2236
   92DG      H3 2096   5.132   3.356   0.782  1.3971 -1.2665  0.7432
   92DG      H4 2097   5.268   3.351   0.680 -1.4532 -2.7068  0.6977
   92DG      H5 2098   5.107   3.318   0.613  0.9399  0.9615 -0.2679
   92DG      H6 2099   5.511   4.063   0.565  2.4376  1.0982  2.1428
   92DG      H7 2100   5.453   4.047   0.722  1.0828 -0.1431  0.0235
   92DG      H8 2101   5.555   3.916   0.652  0.4119 -0.1118 -1.1691
   92DG      O9 2102   5.138   3.515   0.644  0.2415  0.0087 -0.6796
   92DG     O10 2103   5.366   3.913   0.584  0.5051  0.5355  0.4398
   92DG     C11 2104   5.023   3.576   0.711  0.2450  0.3837  0.2035
   92DG     C12 2105   5.241   3.985   0.575 -0.5999 -0.5435 -0.6921
   92DG     H13 2106   5.057   3.582   0.815  1.1474 -1.0180  0.0040
   92DG     H14 2107   4.935   3.511   0.708  1.0698 -0.7053 -0.7192
   92DG     H15 2108   5.250   4.062   0.498 -0.6408 -0.2961 -0.4527
   92DG     H16 2109   5.228   4.033   0.672 -0.3513 -1.7120 -0.0655
   92DG     C17 2110   4.992   3.704   0.637 -0.4024  0.1298  0.0056
   92DG     C18 2111   5.117   3.899   0.550  0.2327  0.9193  0.4424
   92DG     O19 2112   5.116   3.784   0.639 -0.6587  0.2741 -0.7619
   92DG     H20 2113   4.917   3.759   0.695  0.7104  0.9487  0.7123
   92DG     H21 2114   4.959   3.681   0.536  0.2257 -1.3018  0.1003
   92DG     H22 2115   5.026   3.959   0.552 -0.2889  0.1222  0.8163
   92DG     H23 2116   5.117   3.867   0.446 -1.2530 -0.9622  0.9725
   93DG      C1 2117   2.372   3.832   3.399  0.1002  0.6152  0.1255
   93DG      C2 2118   1.983   4.359   3.514 -0.1287 -0.8847  0.6402
   93DG      H3 2119   2.441   3.886   3.334  0.8718 -1.0332 -0.5060
   93DG      H4 2120   2.411   3.732   3.377 -1.5158  0.1406 -0.7201
   93DG      H5 2121   2.381   3.844   3.507 -1.8025  0.0129  0.3958
   93DG      H6 2122   1.976   4.416   3.421 -1.8427  0.0978  1.3180
   93DG      H7 2123   1.895   4.388   3.571 -0.6151 -1.2699  0.0883
   93DG      H8 2124   2.067   4.382   3.580 -0.7549 -0.8119  1.4282
   93DG      O9 2125   2.237   3.844   3.377  0.0926 -0.3373  0.4025
   93DG     O10 2126   1.987   4.223   3.489 -0.3391 -0.2042  0.0334
   93DG     C11 2127   2.166   3.747   3.453  0.1053  0.7530 -0.4675
   93DG     C12 2128   1.945   4.143   3.599 -0.0534 -0.8269 -0.5505
   93DG     H13 2129   2.211   3.728   3.550 -2.9234  0.4843  0.9847
   93DG     H14 2130   2.177   3.654   3.397 -1.4593 -0.0966  0.5716
   93DG     H15 2131   1.846   4.177   3.629  0.3593  0.4759 -0.6116
   93DG     H16 2132   2.016   4.154   3.681  0.8712  0.8637 -1.5142
   93DG     C17 2133   2.029   3.798   3.486  0.7429 -1.2498  0.6080
   93DG     C18 2134   1.916   3.994   3.570  0.4248  0.3342  0.0136
   93DG     O19 2135   2.040   3.926   3.548 -0.0172  0.4008  0.9698
   93DG     H20 2136   1.978   3.735   3.559 -1.1044  0.1317  0.5599
   93DG     H21 2137   1.966   3.805   3.398  0.8237  0.0162  0.6318
   93DG     H22 2138   1.861   3.941   3.648  1.8235  1.5564  1.9127
   93DG     H23 2139   1.860   3.993   3.477 -0.9324 -1.1960  0.7897
   94DG      C1 2140   5.273   5.495   3.372  0.4116  0.1612  0.2844
   94DG      C2 2141   5.495   5.860   2.857 -0.1564  0.0641  0.0831
   94DG      H3 2142   5.288   5.589   3.425 -1.6160  0.6916  0.0173
   94DG      H4 2143   5.274   5.416   3.447 -1.7194 -1.0557 -0.8604
   94DG      H5 2144   5.170   5.498   3.335  0.5052 -3.0170 -0.5227
   94DG      H6 2145   5.420   5.880   2.781 -0.6896  0.6170  0.7433
   94DG      H7 2146   5.483   5.939   2.932 -1.0375 -0.6174  0.6776
   94DG      H8 2147   5.590   5.870   2.805  0.1039 -0.5570  0.4267
   94DG      O9 2148   5.359   5.476   3.266 -0.3069  0.3318  0.1797
   94DG     O10 2149   5.489   5.735   2.923 -0.2775 -0.4780  0.4453
   94DG     C11 2150   5.341   5.358   3.184  0.8794 -0.5369 -0.0185
   94DG     C12 2151   5.518   5.626   2.839  0.4756  0.0484 -0.7636
   94DG     H13 2152   5.239   5.350   3.145  0.6396  0.2837  0.3929
   94DG     H14 2153   5.352   5.264   3.238 -4.5893 -1.6813 -0.3010
   94DG     H15 2154   5.617   5.642   2.796  0.8541  0.9164  0.3857
   94DG     H16 2155   5.438   5.609   2.766 -0.5571 -0.0526  0.3635
   94DG     C17 2156   5.456   5.364   3.082 -0.0086  0.0860  0.2716
   94DG     C18 2157   5.542   5.502   2.920  0.1367  0.9763  0.2250
   94DG     O19 2158   5.443   5.487   3.016  0.0109  0.0225 -0.2181
   94DG     H20 2159   5.453   5.279   3.014  0.7618  1.5881 -1.7498
   94DG     H21 2160   5.554   5.345   3.127 -0.8638 -3.2894  0.9360
   94DG     H22 2161   5.540   5.416   2.853 -0.2125  1.0630  0.1207
   94DG     H23 2162   5.640   5.509   2.966 -0.2536  2.9869  0.8630
   95DG      C1 2163   2.806   4.528   2.569  0.2112  0.2212 -0.0901
   95DG      C2 2164   3.263   4.352   3.077  0.9163  0.0468 -0.1917
   95DG      H3 2165   2.750   4.621   2.578  0.7843  0.5015  0.7394
   95DG      H4 2166   2.750   4.453   2.513 -1.7739  1.3069  0.3634
   95DG      H5 2167   2.904   4.553   2.527  0.4105  2.5057  1.5595
   95DG      H6 2168   3.305   4.277   3.010 -2.3780 -0.9509 -1.2912
   95DG      H7 2169   3.307   4.444   3.039 -1.0021  1.7927  1.5584
   95DG      H8 2170   3.284   4.336   3.183  2.0374  0.3994 -0.3421
   95DG      O9 2171   2.836   4.476   2.696  0.5019  0.5065  0.2393
   95DG     O10 2172   3.128   4.366   3.057  0.4919 -0.4047  0.5341
   95DG     C11 2173   2.729   4.391   2.751  0.6445 -0.0358 -0.0178
   95DG     C12 2174   3.051   4.252   3.071 -0.1352  0.8299 -0.9931
   95DG     H13 2175   2.735   4.296   2.698 -0.4729  0.0900 -0.3836
   95DG     H14 2176   2.633   4.435   2.724 -0.2984 -2.6477 -1.2729
   95DG     H15 2177   3.060   4.205   3.169  0.4437 -2.5171 -2.4994
   95DG     H16 2178   3.090   4.170   3.011 -0.8309  0.0267 -0.3725
   95DG     C17 2179   2.747   4.363   2.901 -0.0389 -0.8764  0.0074
   95DG     C18 2180   2.900   4.266   3.049 -0.8542 -0.2785 -0.5070
   95DG     O19 2181   2.887   4.334   2.936  0.8012 -0.1831  0.2309
   95DG     H20 2182   2.683   4.280   2.930 -0.4602 -0.1465  1.2114
   95DG     H21 2183   2.704   4.449   2.952 -1.3909 -1.4940 -0.0442
   95DG     H22 2184   2.847   4.171   3.050  0.7915 -1.2443 -0.5797
   95DG     H23 2185   2.849   4.329   3.121  0.4803  1.4419 -0.9879
   96DG      C1 2186   0.914   4.375   4.063 -0.4254 -0.5997 -0.0112
   96DG      C2 2187   0.808   4.442   4.742 -0.0107 -0.1080 -0.0410
   96DG      H3 2188   0.931   4.426   3.968  0.5449 -1.8973 -0.5542
   96DG      H4 2189   0.817   4.325   4.057 -0.2371 -0.7887 -2.0372
   96DG      H5 2190   1.000   4.308   4.068  2.4491  2.5018 -2.7612
   96DG      H6 2191   0.704   4.419   4.722 -0.1428  0.1074  0.3799
   96DG      H7 2192   0.854   4.344   4.758 -2.1091 -1.2927 -0.8433
   96DG      H8 2193   0.815   4.487   4.841  0.4782  1.8710 -0.9159
   96DG      O9 2194   0.912   4.464   4.174  0.1117 -0.9480 -0.3570
   96DG     O10 2195   0.865   4.508   4.628  0.2040 -0.3791  0.2715
   96DG     C11 2196   1.033   4.542   4.191 -0.3357 -0.2847  0.4190
   96DG     C12 2197   0.995   4.552   4.651  0.0243 -0.2545  0.3988
   96DG     H13 2198   1.057   4.607   4.106 -0.5315  0.7662  1.1402
   96DG     H14 2199   1.118   4.475   4.199  0.7378  0.9910  0.1845
   96DG     H15 2200   1.066   4.470   4.654  2.1523  1.2732 -2.7223
   96DG     H16 2201   1.010   4.598   4.749  0.4353 -0.4256  0.4168
   96DG     C17 2202   1.024   4.642   4.303  0.4379  0.4336 -0.4714
   96DG     C18 2203   1.020   4.647   4.537 -0.5375 -0.1525 -0.2212
   96DG     O19 2204   1.023   4.566   4.419  0.3368  0.1962 -0.0807
   96DG     H20 2205   0.922   4.682   4.300 -0.0363 -0.2001  2.9061
   96DG     H21 2206   1.104   4.716   4.305 -0.9353  2.0402  2.7831
   96DG     H22 2207   0.951   4.731   4.531  0.2824  0.6472  1.0382
   96DG     H23 2208   1.113   4.702   4.548 -0.8728  0.6376 -1.2487
   97DG      C1 2209   2.350   1.603   3.109  0.6620 -0.2655 -0.3672
   97DG      C2 2210   2.858   1.702   2.676 -0.5102 -0.3969 -0.0155
   97DG      H3 2211   2.274   1.674   3.075  0.8233 -0.3829 -0.9772
   97DG      H4 2212   2.337   1.576   3.214  1.7694  0.9685  0.1285
   97DG      H5 2213   2.335   1.509   3.056 -1.6468 -1.2190  1.7452
   97DG      H6 2214   2.949   1.643   2.690  0.2350  0.5847 -0.6826
   97DG      H7 2215   2.793   1.644   2.611  0.0100 -0.6175 -0.3438
   97DG      H8 2216   2.868   1.801   2.632  0.3124  0.0759  1.1719
   97DG      O9 2217   2.476   1.649   3.081 -0.4060  0.2520 -0.0665
   97DG     O10 2218   2.805   1.725   2.804  0.4399  0.2681  0.0265
   97DG     C11 2219   2.490   1.784   3.133  0.4597  0.3254 -0.0915
   97DG     C12 2220   2.864   1.834   2.870  0.2493  0.4134  0.7342
   97DG     H13 2221   2.465   1.784   3.239  3.0888  1.8068  0.6274
   97DG     H14 2222   2.437   1.862   3.080  1.1860  1.2709  0.5497
   97DG     H15 2223   2.847   1.926   2.815 -1.7804 -0.0341  0.5367
   97DG     H16 2224   2.972   1.828   2.871  0.3908  0.6294 -2.7212
   97DG     C17 2225   2.636   1.813   3.141  0.0884  0.1713 -0.0576
   97DG     C18 2226   2.828   1.843   3.016  0.0894  0.3099  0.0389
   97DG     O19 2227   2.686   1.827   3.014 -0.9349 -0.0824 -0.0179
   97DG     H20 2228   2.679   1.735   3.204  0.2073  0.5086  0.2874
   97DG     H21 2229   2.654   1.905   3.198  1.3017  0.5737 -1.0461
   97DG     H22 2230   2.881   1.775   3.081 -1.2420  1.5107  2.5124
   97DG     H23 2231   2.852   1.944   3.050  0.5666  0.1899  0.0569
   98DG      C1 2232   1.166   4.626   2.079  0.0294 -1.1320  0.0884
   98DG      C2 2233   1.178   3.962   2.165 -0.7190 -0.2310  0.2824
   98DG      H3 2234   1.272   4.606   2.067 -0.0227 -1.0710 -0.5315
   98DG      H4 2235   1.160   4.664   2.181  1.2408  0.2981 -0.3253
   98DG      H5 2236   1.137   4.704   2.008 -2.8734 -2.0647  0.1000
   98DG      H6 2237   1.162   3.854   2.158 -0.5760 -0.1726 -1.3705
   98DG      H7 2238   1.283   3.973   2.140 -0.2638 -2.1529  1.2048
   98DG      H8 2239   1.173   3.995   2.268  0.9728 -1.3671  0.7563
   98DG      O9 2240   1.093   4.505   2.045 -0.3294 -0.3278  0.2744
   98DG     O10 2241   1.089   4.030   2.071  1.3693 -0.4606  0.1955
   98DG     C11 2242   0.957   4.512   2.066  0.0292 -0.4344 -0.5298
   98DG     C12 2243   0.954   4.029   2.126  0.1008 -0.2621 -0.5266
   98DG     H13 2244   0.908   4.593   2.013 -0.5800  0.0532  0.7352
   98DG     H14 2245   0.930   4.524   2.171  0.6499 -0.3315 -0.3780
   98DG     H15 2246   0.952   4.044   2.234  1.8566 -0.9107 -0.3801
   98DG     H16 2247   0.892   3.941   2.109 -0.3728 -0.1133  0.3506
   98DG     C17 2248   0.893   4.383   2.016 -0.0426 -0.0801 -0.2885
   98DG     C18 2249   0.880   4.145   2.060 -0.0767 -0.0157 -0.0254
   98DG     O19 2250   0.947   4.270   2.087  0.2256 -0.1286 -0.2911
   98DG     H20 2251   0.894   4.372   1.908  0.1485  1.7103 -0.4893
   98DG     H21 2252   0.792   4.397   2.056  0.9265  2.6060  1.5289
   98DG     H22 2253   0.877   4.125   1.952  0.1619  0.0923 -0.0540
   98DG     H23 2254   0.773   4.148   2.080  0.0566  1.1756  0.6145
   99DG      C1 2255   3.077   0.647   5.051 -0.3452 -0.3552 -0.1193
   99DG      C2 2256   3.102   0.904   5.678  0.2338  0.4022  0.1093
   99DG      H3 2257   3.096   0.744   5.004  2.0927 -0.0203  1.3659
   99DG      H4 2258   2.974   0.623   5.077  0.1038 -2.3573 -0.0056
   99DG      H5 2259   3.114   0.576   4.977  0.3050  0.3171 -0.4621
   99DG      H6 2260   3.007   0.870   5.719  0.8776 -1.6597  0.0534
   99DG      H7 2261   3.168   0.924   5.762 -0.1555 -1.6337  0.9685
   99DG      H8 2262   3.102   0.992   5.614  2.2999  0.0870 -0.4203
   99DG      O9 2263   3.161   0.629   5.171  0.0391 -0.0912  0.0220
   99DG     O10 2264   3.154   0.798   5.594  0.0645 -1.1294 -0.0594
   99DG     C11 2265   3.156   0.488   5.219  0.5766  0.3735 -0.2246
   99DG     C12 2266   3.161   0.673   5.663  0.1172 -0.2736  0.0709
   99DG     H13 2267   3.203   0.419   5.148 -1.7638 -0.2586 -1.2417
   99DG     H14 2268   3.049   0.468   5.216  0.5464  0.6067 -0.6389
   99DG     H15 2269   3.062   0.639   5.691  0.3117 -0.4206  0.5925
   99DG     H16 2270   3.213   0.696   5.756 -0.1728  1.8548 -0.2384
   99DG     C17 2271   3.229   0.476   5.353 -0.4857  0.3662  0.2062
   99DG     C18 2272   3.226   0.566   5.566  0.0212 -0.3914 -0.6046
   99DG     O19 2273   3.167   0.577   5.439 -0.0054 -0.0329 -0.1123
   99DG     H20 2274   3.336   0.494   5.339 -0.5140 -0.4447 -1.2024
   99DG     H21 2275   3.219   0.372   5.383  1.0700  0.0454 -0.3024
   99DG     H22 2276   3.331   0.593   5.568 -0.3757  1.2831 -0.9781
   99DG     H23 2277   3.214   0.467   5.610 -0.0218  0.1331  0.6249
  100DG      C1 2278   2.559   3.253   0.008 -0.5216  1.1179  0.3334
  100DG      C2 2279   2.937   3.444   0.536 -0.2209  0.0240 -0.3921
  100DG      H3 2280   2.575   3.357  -0.019  2.8560  0.8943  1.0199
  100DG      H4 2281   2.458   3.234  -0.028 -0.9071  0.1298  1.8290
  100DG      H5 2282   2.635   3.188  -0.037 -3.5894 -1.2570 -1.8817
  100DG      H6 2283   2.910   3.547   0.513  0.8715 -0.0272 -2.1489
  100DG      H7 2284   2.961   3.438   0.642  0.0571 -0.8758 -0.4897
  100DG      H8 2285   3.033   3.440   0.484 -0.3963 -0.9036 -0.6685
  100DG      O9 2286   2.562   3.230   0.150  0.5735 -0.2232  0.1502
  100DG     O10 2287   2.842   3.350   0.496  0.8132  0.2686  0.0478
  100DG     C11 2288   2.548   3.096   0.189  0.2852  0.0904 -0.3937
  100DG     C12 2289   2.862   3.212   0.535 -0.4189  0.4721  0.3281
  100DG     H13 2290   2.607   3.035   0.120 -0.1454 -0.3945 -0.3380
  100DG     H14 2291   2.443   3.076   0.173  0.2449 -0.9026  0.9978
  100DG     H15 2292   2.883   3.209   0.642  1.7085 -0.3190 -0.0653
  100DG     H16 2293   2.946   3.167   0.482  1.0015  3.4467 -0.1701
  100DG     C17 2294   2.583   3.062   0.341  0.1737 -0.3818 -0.1205
  100DG     C18 2295   2.744   3.126   0.512 -0.6920  0.3197  0.2328
  100DG     O19 2296   2.705   3.120   0.376 -0.2881  0.4477 -0.2167
  100DG     H20 2297   2.584   2.954   0.359  0.4268 -1.0629 -3.4796
  100DG     H21 2298   2.512   3.116   0.404  1.6350  2.2805 -0.6096
  100DG     H22 2299   2.772   3.028   0.553 -0.5157  0.8755  1.4996
  100DG     H23 2300   2.665   3.155   0.581 -0.0080 -0.0293  1.1997
  101DG      C1 2301   3.635   0.696   4.123  0.1881  0.7199 -0.4169
  101DG      C2 2302   4.036   1.268   4.309  0.0656  0.3785  0.4803
  101DG      H3 2303   3.625   0.789   4.065  0.2149  0.8040 -0.2876
  101DG      H4 2304   3.557   0.697   4.199  0.3313  1.4256 -0.2651
  101DG      H5 2305   3.611   0.609   4.063 -2.4015  0.7003  0.5288
  101DG      H6 2306   3.941   1.305   4.350 -0.6380 -0.8172 -0.0136
  101DG      H7 2307   4.096   1.258   4.399  0.4667  0.4849  0.2263
  101DG      H8 2308   4.065   1.355   4.249  1.5610 -0.8298 -0.6045
  101DG      O9 2309   3.760   0.705   4.190  0.0821 -0.2748 -0.9100
  101DG     O10 2310   4.005   1.151   4.238 -0.6547 -0.3892 -0.2502
  101DG     C11 2311   3.867   0.691   4.104 -0.1101 -0.5092 -0.0222
  101DG     C12 2312   3.932   1.163   4.118 -0.4650  0.2271  0.0233
  101DG     H13 2313   3.846   0.605   4.040 -1.6236  0.6915 -1.1980
  101DG     H14 2314   3.948   0.657   4.169  0.9097  4.9744  2.0948
  101DG     H15 2315   3.964   1.254   4.066 -2.6957  1.4839  0.6787
  101DG     H16 2316   3.827   1.170   4.146 -0.3257 -2.0536  1.3039
  101DG     C17 2317   3.913   0.810   4.015 -0.5414 -0.3143 -0.4457
  101DG     C18 2318   3.962   1.044   4.037  0.0784  0.4104  0.1391
  101DG     O19 2319   3.911   0.929   4.098 -0.5282  0.5357  0.5510
  101DG     H20 2320   3.837   0.819   3.938 -2.9585  2.3159  1.9884
  101DG     H21 2321   4.012   0.794   3.972  0.8907 -0.7031  2.6971
  101DG     H22 2322   3.923   1.044   3.936  0.4070  0.8868  0.0062
  101DG     H23 2323   4.071   1.035   4.030 -0.0506 -0.9122 -0.3740
  102DG      C1 2324   1.217   0.561   0.082 -0.6130 -0.7951  0.0976
  102DG      C2 2325   0.541   0.529   0.186  0.4757  0.2053 -0.3895
  102DG      H3 2326   1.187   0.648   0.140  1.6173  0.4396 -0.4891
  102DG      H4 2327   1.303   0.582   0.018 -0.5342  1.3149  0.8232
  102DG      H5 2328   1.241   0.474   0.142  1.8575  0.1973  0.6853
  102DG      H6 2329   0.512   0.630   0.217  0.6431  0.0555  0.2743
  102DG      H7 2330   0.445   0.485   0.159  0.0509  1.1003 -0.3854
  102DG      H8 2331   0.566   0.476   0.278 -3.4916  1.9888  2.0111
  102DG      O9 2332   1.099   0.530   0.009 -0.4707  0.3199 -0.2425
  102DG     O10 2333   0.645   0.527   0.093 -0.3022 -0.1807  0.3368
  102DG     C11 2334   1.065   0.634  -0.081 -0.6695 -0.2208 -0.2034
  102DG     C12 2335   0.606   0.564  -0.036  0.5133  0.4900 -0.2125
  102DG     H13 2336   1.154   0.647  -0.143  0.5386 -1.4494  1.1972
  102DG     H14 2337   1.054   0.732  -0.034 -0.1125 -0.3908  0.2895
  102DG     H15 2338   0.561   0.664  -0.036  0.2419  0.3935  1.2787
  102DG     H16 2339   0.521   0.508  -0.074 -0.3190  1.7632 -0.2889
  102DG     C17 2340   0.941   0.610  -0.163  0.4402  0.1040  0.2034
  102DG     C18 2341   0.722   0.571  -0.131  0.2944 -0.0296 -0.2205
  102DG     O19 2342   0.833   0.624  -0.073  0.4430 -0.2171  0.0995
  102DG     H20 2343   0.945   0.506  -0.194  0.3355 -0.4268  1.8543
  102DG     H21 2344   0.935   0.677  -0.248 -1.7409  0.9060  0.9210
  102DG     H22 2345   0.733   0.466  -0.157 -2.3056  0.1054 -2.2273
  102DG     H23 2346   0.692   0.629  -0.218 -0.8398 -1.2041 -0.6515
  103DG      C1 2347   2.481   0.631   1.296 -0.4979  0.1218 -0.2907
  103DG      C2 2348   2.021   0.166   1.477  0.1535  0.2522  0.1209
  103DG      H3 2349   2.488   0.619   1.188  3.6965  1.1997 -0.3120
  103DG      H4 2350   2.569   0.685   1.331 -0.7567  1.4245 -1.5570
  103DG      H5 2351   2.399   0.698   1.321  0.1525  0.1349  2.0421
  103DG      H6 2352   2.003   0.147   1.371  2.3238 -1.1808 -0.0545
  103DG      H7 2353   1.978   0.083   1.533 -0.0512 -0.1421 -0.6043
  103DG      H8 2354   1.958   0.253   1.499 -1.2416 -0.7502  0.2594
  103DG      O9 2355   2.464   0.504   1.361  0.2506 -0.4980 -0.4579
  103DG     O10 2356   2.160   0.186   1.504 -0.1330 -0.9148  0.8334
  103DG     C11 2357   2.573   0.417   1.340 -0.1926 -0.4167  0.0815
  103DG     C12 2358   2.250   0.093   1.447  0.1017  0.1319  0.0988
  103DG     H13 2359   2.666   0.474   1.339  0.6758 -1.7870 -0.3046
  103DG     H14 2360   2.563   0.377   1.239 -0.5146  0.3443 -0.1969
  103DG     H15 2361   2.233   0.088   1.339 -2.5279 -0.6498  0.4916
  103DG     H16 2362   2.238  -0.008   1.487  1.2431  0.0127  0.1738
  103DG     C17 2363   2.564   0.308   1.442  0.9736 -0.2021  0.0455
  103DG     C18 2364   2.395   0.136   1.473  0.0710  0.3087 -0.1986
  103DG     O19 2365   2.439   0.246   1.401 -0.4104 -0.1565 -0.2335
  103DG     H20 2366   2.555   0.359   1.538  0.4863 -0.4914  0.1580
  103DG     H21 2367   2.643   0.233   1.439  0.3290 -0.8663 -1.0950
  103DG     H22 2368   2.399   0.167   1.578 -0.3144  0.6881 -0.2910
  103DG     H23 2369   2.472   0.064   1.444 -0.9493  0.0037 -2.3358
  104DG      C1 2370   0.312   0.567   1.322  0.5454  0.3443  0.7486
  104DG      C2 2371   0.278   0.551   2.051  0.6949  0.3201  0.0558
  104DG      H3 2372   0.332   0.461   1.307  0.8172  0.1609  2.2402
  104DG      H4 2373   0.411   0.612   1.327  1.1610 -0.9709  0.5778
  104DG      H5 2374   0.264   0.614   1.235  0.7448 -2.0156 -0.7058
  104DG      H6 2375   0.226   0.605   2.130  0.5878  0.6232 -0.2193
  104DG      H7 2376   0.296   0.446   2.076 -0.7810  0.1355  0.4318
  104DG      H8 2377   0.375   0.602   2.055 -0.2677  2.1757  0.9697
  104DG      O9 2378   0.244   0.591   1.443  0.7610  0.5509  0.1091
  104DG     O10 2379   0.204   0.550   1.928 -0.1724 -0.2474  0.1843
  104DG     C11 2380   0.115   0.523   1.456 -0.6984  0.3290 -0.3276
  104DG     C12 2381   0.138   0.673   1.904  0.0524 -0.3847 -0.4560
  104DG     H13 2382   0.128   0.417   1.477 -1.0097  0.3390 -0.0676
  104DG     H14 2383   0.064   0.514   1.360  0.1076 -2.3345 -0.5828
  104DG     H15 2384   0.211   0.750   1.878 -0.4540 -0.5222 -2.4745
  104DG     H16 2385   0.096   0.718   1.994  2.2700 -1.2909  1.1258
  104DG     C17 2386   0.028   0.583   1.567 -0.1736  0.2578 -0.0824
  104DG     C18 2387   0.039   0.663   1.786 -0.2556  0.8985 -0.1223
  104DG     O19 2388   0.096   0.571   1.693  0.1946  0.1365 -0.1360
  104DG     H20 2389  -0.070   0.537   1.577 -0.8743  1.4868 -1.0155
  104DG     H21 2390   0.024   0.688   1.537 -0.7645 -0.0045 -0.9546
  104DG     H22 2391  -0.053   0.612   1.816  0.5458 -1.0838 -0.8873
  104DG     H23 2392   0.016   0.759   1.739 -0.2285  0.7317 -0.4823
  105DG      C1 2393   0.982   1.094   2.574  0.3548 -0.1184  0.3916
  105DG      C2 2394   0.784   0.868   3.163  0.3598  0.2899  0.2808
  105DG      H3 2395   0.967   1.179   2.640 -0.3524  0.3459 -0.3513
  105DG      H4 2396   0.976   1.118   2.468 -0.5669  0.8455  0.6488
  105DG      H5 2397   1.081   1.062   2.609  0.6369  1.8555  1.5604
  105DG      H6 2398   0.702   0.939   3.176  0.2877  0.4206 -0.7856
  105DG      H7 2399   0.753   0.782   3.223 -0.7772  0.8755  0.5654
  105DG      H8 2400   0.879   0.914   3.190 -0.3461  2.0148 -0.0605
  105DG      O9 2401   0.889   0.992   2.598  0.0253  0.0551 -0.0119
  105DG     O10 2402   0.790   0.830   3.026  0.0198 -0.1395 -0.3703
  105DG     C11 2403   0.750   1.021   2.587 -0.4721  0.2544 -0.0840
  105DG     C12 2404   0.663   0.805   2.972  0.0063  0.0079 -0.3579
  105DG     H13 2405   0.722   1.035   2.482  0.0739  0.1846 -0.2439
  105DG     H14 2406   0.720   1.111   2.641  3.8356  0.4214  2.5554
  105DG     H15 2407   0.611   0.898   2.950  2.6374  1.3526 -1.4095
  105DG     H16 2408   0.592   0.752   3.034  0.0440 -0.6464 -0.8641
  105DG     C17 2409   0.671   0.894   2.644  0.0145 -0.1279  0.5995
  105DG     C18 2410   0.676   0.738   2.832  0.0509  0.1278  0.8271
  105DG     O19 2411   0.745   0.833   2.745  0.2143 -0.3130 -0.0063
  105DG     H20 2412   0.658   0.818   2.567  2.7003 -0.9858  0.8973
  105DG     H21 2413   0.573   0.928   2.677 -0.3114 -1.2482  0.8146
  105DG     H22 2414   0.737   0.649   2.850  0.2658  0.2314  0.6130
  105DG     H23 2415   0.583   0.722   2.778 -0.4406  2.8389  0.7624
  106DG      C1 2416   5.490   3.688   4.166 -0.6084  0.9077 -0.7977
  106DG      C2 2417   5.061   3.090   4.308 -0.1000  0.0459  0.5515
  106DG      H3 2418   5.596   3.682   4.143 -0.0854  1.8085  1.1520
  106DG      H4 2419   5.487   3.773   4.235 -0.7220 -1.0506  1.7616
  106DG      H5 2420   5.433   3.708   4.076 -1.9909  0.1905 -0.1155
  106DG      H6 2421   5.044   3.019   4.389  1.5335  0.6522  1.4675
  106DG      H7 2422   4.976   3.155   4.290  1.4270  1.8085 -0.6262
  106DG      H8 2423   5.075   3.036   4.214  1.2978  1.6126 -0.1978
  106DG      O9 2424   5.449   3.571   4.233 -0.2993  0.2764 -0.6926
  106DG     O10 2425   5.171   3.173   4.351 -0.0620 -0.5964 -0.1033
  106DG     C11 2426   5.550   3.513   4.322 -0.2394  0.0859 -0.3918
  106DG     C12 2427   5.286   3.112   4.399 -0.6700 -0.6875  0.2985
  106DG     H13 2428   5.602   3.594   4.372 -0.7839 -1.8160  3.6537
  106DG     H14 2429   5.612   3.453   4.256  1.1152  1.0496 -0.0387
  106DG     H15 2430   5.331   3.038   4.333 -0.8724  0.1244 -0.7919
  106DG     H16 2431   5.256   3.059   4.489  1.8726  0.3402  1.8500
  106DG     C17 2432   5.467   3.436   4.428 -0.9393  0.3463 -0.0690
  106DG     C18 2433   5.375   3.219   4.459 -0.1484 -0.2528  0.3359
  106DG     O19 2434   5.424   3.314   4.365  0.7190 -0.2898  0.2439
  106DG     H20 2435   5.389   3.491   4.480 -0.5066  0.0778  0.8860
  106DG     H21 2436   5.537   3.407   4.507  0.2436  1.6083 -0.6157
  106DG     H22 2437   5.310   3.277   4.525 -1.0470 -1.6215  0.6987
  106DG     H23 2438   5.458   3.171   4.509 -0.0239 -2.0579 -1.4908
  107DG      C1 2439   4.165   0.372   5.361  0.1411 -0.3301  0.3750
  107DG      C2 2440   4.565  -0.161   5.172 -0.3158 -0.1820  0.3412
  107DG      H3 2441   4.099   0.437   5.303  0.5228 -1.6807 -1.6797
  107DG      H4 2442   4.253   0.431   5.385  0.6299 -1.7436  2.3242
  107DG      H5 2443   4.121   0.362   5.460  1.1936  0.0800  0.9098
  107DG      H6 2444   4.595  -0.232   5.094  2.0625 -0.2035  1.1990
  107DG      H7 2445   4.651  -0.095   5.185 -0.3061 -0.0124 -0.4792
  107DG      H8 2446   4.560  -0.213   5.267 -0.2549 -1.0182 -0.0960
  107DG      O9 2447   4.183   0.249   5.288  0.2338 -0.8049 -0.7709
  107DG     O10 2448   4.443  -0.094   5.130  0.1284 -0.7301 -0.6467
  107DG     C11 2449   4.063   0.180   5.264  0.2116  0.3536  0.2665
  107DG     C12 2450   4.334  -0.181   5.120  0.3252 -0.0522 -0.8583
  107DG     H13 2451   3.996   0.258   5.227 -0.8290 -0.8220 -0.3808
  107DG     H14 2452   4.010   0.140   5.350 -0.8219 -0.7784 -0.8577
  107DG     H15 2453   4.317  -0.236   5.212 -0.6033 -0.6309 -1.3526
  107DG     H16 2454   4.357  -0.265   5.054  0.1114 -1.3999  0.7377
  107DG     C17 2455   4.071   0.076   5.151  0.1781  0.1025 -0.5470
  107DG     C18 2456   4.203  -0.114   5.079 -0.4543 -0.1802  0.3843
  107DG     O19 2457   4.170  -0.020   5.183 -0.7848  0.3094  0.3827
  107DG     H20 2458   4.091   0.128   5.057  1.2648  1.0827  0.2002
  107DG     H21 2459   3.976   0.023   5.148 -1.4225  2.5674  1.8814
  107DG     H22 2460   4.230  -0.075   4.981  0.2495 -1.7234 -0.0684
  107DG     H23 2461   4.130  -0.190   5.052 -0.1665 -0.6341  0.8599
  108DG      C1 2462   0.426   2.545   3.077  0.4593  0.0470  0.1758
  108DG      C2 2463   0.495   3.135   2.723  0.0165 -0.1440  0.1665
  108DG      H3 2464   0.360   2.472   3.123 -0.4977 -0.7636 -2.3334
  108DG      H4 2465   0.485   2.602   3.149 -0.4683  0.9756  0.2314
  108DG      H5 2466   0.498   2.500   3.008  0.1933 -0.8732  0.4870
  108DG      H6 2467   0.581   3.149   2.788 -1.4659  1.2988  1.9223
  108DG      H7 2468   0.535   3.118   2.623  0.8787 -1.8575  0.7636
  108DG      H8 2469   0.443   3.228   2.742  1.1018  0.1417  2.0063
  108DG      O9 2470   0.359   2.645   3.001  0.3099 -0.1095  0.4039
  108DG     O10 2471   0.411   3.030   2.758  0.4842  0.1382 -0.4409
  108DG     C11 2472   0.286   2.577   2.897  0.6733 -1.0211 -0.1159
  108DG     C12 2473   0.324   2.985   2.661  0.7250 -0.8500  0.6397
  108DG     H13 2474   0.224   2.497   2.938 -1.8559  1.0167  0.3399
  108DG     H14 2475   0.352   2.539   2.820  1.8661  2.0521 -0.7665
  108DG     H15 2476   0.385   2.940   2.583  0.3278  1.0738 -0.8799
  108DG     H16 2477   0.273   3.071   2.619  1.4860  0.1984  1.7536
  108DG     C17 2478   0.184   2.679   2.838 -0.2763 -0.3762 -0.1080
  108DG     C18 2479   0.211   2.901   2.720 -0.3003 -0.1052  0.4718
  108DG     O19 2480   0.271   2.788   2.791 -0.5026 -0.0028  0.0061
  108DG     H20 2481   0.111   2.713   2.911  0.7729  2.1041 -0.1052
  108DG     H21 2482   0.131   2.629   2.757  0.2217  0.4252 -0.9497
  108DG     H22 2483   0.147   2.976   2.768  0.0222  0.7636 -0.4080
  108DG     H23 2484   0.139   2.852   2.655  2.3921 -2.3370 -1.0214
  109DG      C1 2485   3.285   0.112   0.373  0.7091  0.2516  0.1160
  109DG      C2 2486   3.910   0.322   0.416 -0.2783 -0.2189 -0.8039
  109DG      H3 2487   3.253   0.133   0.475 -1.0765 -0.4644 -0.2466
  109DG      H4 2488   3.215   0.040   0.331  2.2027  0.0393 -2.1618
  109DG      H5 2489   3.279   0.205   0.317 -0.1848  1.0233  1.4469
  109DG      H6 2490   3.857   0.411   0.383 -0.5400 -0.5529 -1.2913
  109DG      H7 2491   3.930   0.330   0.523 -2.0106 -0.6243 -0.4231
  109DG      H8 2492   4.010   0.309   0.374 -0.1441 -2.9617  0.1806
  109DG      O9 2493   3.413   0.055   0.353 -0.6312 -0.2763  0.0374
  109DG     O10 2494   3.825   0.210   0.385 -0.3866  0.3549 -0.1079
  109DG     C11 2495   3.437  -0.060   0.418 -0.1314  0.1576 -0.2210
  109DG     C12 2496   3.889   0.096   0.434 -0.7473  0.0536  0.2001
  109DG     H13 2497   3.365  -0.128   0.370 -1.3956  1.2023  0.1359
  109DG     H14 2498   3.431  -0.062   0.526 -0.5752  0.8260 -0.2296
  109DG     H15 2499   3.910   0.091   0.541  1.1805 -2.2606 -0.1759
  109DG     H16 2500   3.988   0.088   0.388 -0.5129 -0.8223  0.8249
  109DG     C17 2501   3.582  -0.114   0.396  0.0443 -0.0163 -0.2115
  109DG     C18 2502   3.818  -0.027   0.400 -0.0744 -0.3507  0.4783
  109DG     O19 2503   3.678  -0.008   0.426  0.2947 -0.2944 -0.2556
  109DG     H20 2504   3.587  -0.138   0.290 -1.2450  1.4592 -0.6385
  109DG     H21 2505   3.588  -0.205   0.456  0.5893 -0.8556 -1.4864
  109DG     H22 2506   3.816  -0.055   0.295 -3.7610 -1.1002  0.6150
  109DG     H23 2507   3.860  -0.109   0.460  0.0351  0.7100  1.9045
  110DG      C1 2508   3.364   5.071   2.079 -0.5574 -0.1466 -0.2423
  110DG      C2 2509   2.847   4.633   2.234  0.1624  0.3162  0.0770
  110DG      H3 2510   3.391   5.149   2.150  4.4373 -0.2085 -1.7383
  110DG      H4 2511   3.290   5.102   2.005 -0.9916  0.2124  0.3388
  110DG      H5 2512   3.450   5.064   2.013  1.2424  1.1206  1.8249
  110DG      H6 2513   2.810   4.576   2.319  0.4585  0.8341  0.5567
  110DG      H7 2514   2.781   4.720   2.232 -0.3606 -0.0760 -1.4226
  110DG      H8 2515   2.844   4.596   2.131  1.5005 -0.0384  0.1422
  110DG      O9 2516   3.322   4.949   2.132 -0.1082  0.4482  0.4852
  110DG     O10 2517   2.977   4.670   2.270 -0.4532 -0.6777 -0.2454
  110DG     C11 2518   3.432   4.879   2.194 -0.0992  0.2557 -0.4283
  110DG     C12 2519   3.073   4.569   2.280 -0.0364 -0.2211  0.2200
  110DG     H13 2520   3.499   4.940   2.255 -1.2464  0.6507  0.4630
  110DG     H14 2521   3.492   4.833   2.115  0.8210  0.4113  0.1696
  110DG     H15 2522   3.095   4.517   2.187 -0.0142  1.9507 -1.0502
  110DG     H16 2523   3.046   4.484   2.344 -1.1655 -2.1463 -2.6165
  110DG     C17 2524   3.379   4.765   2.280 -0.0751  0.2972 -0.1989
  110DG     C18 2525   3.204   4.627   2.331  0.4595  0.1568  0.1766
  110DG     O19 2526   3.261   4.713   2.230  0.2256 -0.0828  0.0726
  110DG     H20 2527   3.368   4.795   2.384 -3.6747 -2.4443  0.3769
  110DG     H21 2528   3.459   4.691   2.277  0.5927  0.9676  0.5295
  110DG     H22 2529   3.183   4.693   2.416 -0.5523 -0.0391  0.0991
  110DG     H23 2530   3.261   4.548   2.379  1.2407 -0.7348 -2.0707
  111DG      C1 2531   3.215   3.257   2.816 -0.2472  0.1024 -0.1800
  111DG      C2 2532   2.914   3.784   3.197  1.1190  0.3129  0.3428
  111DG      H3 2533   3.214   3.325   2.731 -0.8742 -0.5304 -0.7025
  111DG      H4 2534   3.158   3.177   2.768  1.1656 -2.0928  1.5822
  111DG      H5 2535   3.315   3.215   2.827  0.4230  0.4103 -3.6995
  111DG      H6 2536   2.966   3.816   3.287  1.4745 -0.7553  0.5374
  111DG      H7 2537   2.936   3.847   3.110 -1.3917  0.5817 -0.1569
  111DG      H8 2538   2.808   3.794   3.219  1.4345  2.6624  1.0860
  111DG      O9 2539   3.150   3.313   2.929  0.2825  0.1421  0.7333
  111DG     O10 2540   2.948   3.644   3.172  0.7178  0.1249  0.4480
  111DG     C11 2541   3.115   3.220   3.032 -0.5230  0.6540  0.0243
  111DG     C12 2542   2.935   3.569   3.295 -0.8692  0.2606  0.5018
  111DG     H13 2543   3.202   3.212   3.098  0.3502  1.3617 -1.0005
  111DG     H14 2544   3.090   3.120   2.996  0.2088  0.7617 -0.8386
  111DG     H15 2545   2.862   3.600   3.370 -0.2400  2.8194  0.1737
  111DG     H16 2546   3.029   3.568   3.351 -0.8238  0.2520  0.4255
  111DG     C17 2547   2.996   3.255   3.116  0.0514 -0.1940  0.7623
  111DG     C18 2548   2.905   3.434   3.237  0.2684 -0.1093 -0.3263
  111DG     O19 2549   3.020   3.387   3.170  0.5787  0.2583  0.5422
  111DG     H20 2550   2.968   3.186   3.196 -0.8900 -0.0556  0.5629
  111DG     H21 2551   2.910   3.250   3.049 -0.0303  0.3880  0.8202
  111DG     H22 2552   2.881   3.353   3.306 -0.3256 -2.1061 -2.7677
  111DG     H23 2553   2.815   3.449   3.179  0.0407 -0.9784 -0.2012
  112DG      C1 2554   4.753   1.612   3.820 -0.3410 -0.1666  0.4315
  112DG      C2 2555   4.472   1.122   4.107 -0.1161  0.3442 -0.1938
  112DG      H3 2556   4.781   1.672   3.733  3.9785 -0.8686  1.0879
  112DG      H4 2557   4.833   1.540   3.836  1.0876  0.9956 -1.1124
  112DG      H5 2558   4.750   1.679   3.907 -0.7399 -0.4112  0.6063
  112DG      H6 2559   4.579   1.109   4.120 -0.6192 -1.9908  3.1417
  112DG      H7 2560   4.434   1.156   4.204 -0.8085  1.3365 -0.7987
  112DG      H8 2561   4.431   1.021   4.100 -0.1924  0.3647 -0.0474
  112DG      O9 2562   4.637   1.536   3.798  0.5625 -0.1835 -0.1923
  112DG     O10 2563   4.443   1.201   3.988  0.9416 -0.1800  0.4292
  112DG     C11 2564   4.524   1.611   3.770  0.1668 -0.2776 -0.5828
  112DG     C12 2565   4.308   1.235   3.970  0.0267  0.4243 -0.1138
  112DG     H13 2566   4.538   1.670   3.680  1.7512 -1.7298 -1.3301
  112DG     H14 2567   4.504   1.677   3.855 -1.0559  0.2511 -1.2635
  112DG     H15 2568   4.261   1.269   4.062 -0.3609  3.1016 -1.2223
  112DG     H16 2569   4.241   1.149   3.959 -2.0884  2.1440 -1.5905
  112DG     C17 2570   4.406   1.512   3.747 -0.6190  0.4559  0.5721
  112DG     C18 2571   4.288   1.346   3.870  0.2287 -0.1677 -0.1018
  112DG     O19 2572   4.413   1.409   3.849  0.3881 -0.2968 -0.5852
  112DG     H20 2573   4.418   1.459   3.652 -1.1081 -1.4436  1.5296
  112DG     H21 2574   4.311   1.566   3.750 -2.7513 -3.0241  1.1044
  112DG     H22 2575   4.251   1.313   3.773  2.4731  0.6163 -1.3167
  112DG     H23 2576   4.209   1.408   3.911  0.1560 -0.4029  0.1133
  113DG      C1 2577   1.534   5.296   4.598  0.3042  0.7488  0.6207
  113DG      C2 2578   0.901   5.454   4.686 -0.2888 -0.0026 -0.4537
  113DG      H3 2579   1.525   5.196   4.640 -0.3163  0.9008  0.8538
  113DG      H4 2580   1.636   5.332   4.615  0.4706 -0.2935  1.9520
  113DG      H5 2581   1.515   5.283   4.491  0.5880 -0.0601  0.6648
  113DG      H6 2582   0.834   5.507   4.753  0.5480  0.4001  0.0768
  113DG      H7 2583   0.865   5.445   4.584 -1.2519 -3.8905  0.0908
  113DG      H8 2584   0.888   5.350   4.715 -0.3882 -0.6209 -2.5393
  113DG      O9 2585   1.451   5.386   4.656  0.6536  0.3804  0.2030
  113DG     O10 2586   1.031   5.505   4.711 -0.4616  0.8121  0.0580
  113DG     C11 2587   1.457   5.501   4.577  0.1719 -0.2385 -0.0399
  113DG     C12 2588   1.044   5.647   4.681  1.0075  0.8992  0.0392
  113DG     H13 2589   1.411   5.477   4.481  1.4445  0.9662 -0.9902
  113DG     H14 2590   1.558   5.536   4.555  0.2931 -0.7553 -0.2961
  113DG     H15 2591   0.962   5.701   4.727  0.3516 -0.8991  1.0611
  113DG     H16 2592   1.026   5.654   4.574  1.7526  1.2846 -0.0693
  113DG     C17 2593   1.402   5.623   4.651 -0.3908  0.0074  0.5131
  113DG     C18 2594   1.184   5.694   4.705 -0.0778 -0.1322  0.1646
  113DG     O19 2595   1.269   5.595   4.643  0.2322 -0.2078 -0.6585
  113DG     H20 2596   1.426   5.711   4.591  1.7151 -0.7449  0.1950
  113DG     H21 2597   1.430   5.638   4.755 -1.5876 -2.4891  1.2616
  113DG     H22 2598   1.196   5.789   4.653  3.0700  0.2559  1.3817
  113DG     H23 2599   1.199   5.708   4.812  1.3023  0.9987 -0.1612
  114DG      C1 2600   1.621   1.407   2.978  0.1251  1.1509 -0.0708
  114DG      C2 2601   0.976   1.537   2.769  0.1220 -0.0815 -0.3779
  114DG      H3 2602   1.713   1.402   3.036 -0.1598  2.9148  0.5807
  114DG      H4 2603   1.644   1.401   2.872 -3.7920  1.1397 -1.0687
  114DG      H5 2604   1.580   1.307   2.997  0.8927  0.7053 -0.7011
  114DG      H6 2605   0.988   1.568   2.666 -2.6416  0.8036 -0.5073
  114DG      H7 2606   0.963   1.433   2.800  2.6714 -0.8069 -1.4394
  114DG      H8 2607   0.888   1.591   2.802  0.3362  0.3499 -0.5050
  114DG      O9 2608   1.515   1.498   3.015 -0.0903  0.1668 -0.2473
  114DG     O10 2609   1.094   1.588   2.839  0.5369  0.2088  0.2540
  114DG     C11 2610   1.545   1.629   2.966  0.9499  0.5645  0.2528
  114DG     C12 2611   1.109   1.732   2.834  0.3419  0.7056 -0.0131
  114DG     H13 2612   1.566   1.634   2.859  2.1047  1.9129  0.5136
  114DG     H14 2613   1.636   1.664   3.014  0.2338 -0.8175  2.8036
  114DG     H15 2614   1.013   1.782   2.849 -0.2709 -0.0581 -1.1745
  114DG     H16 2615   1.152   1.751   2.736  2.7414 -1.7586  0.4508
  114DG     C17 2616   1.433   1.723   3.004 -0.5895 -0.2802 -0.4789
  114DG     C18 2617   1.207   1.779   2.936 -0.9417  0.6005  0.1260
  114DG     O19 2618   1.325   1.699   2.932  0.0491  0.0612 -0.1669
  114DG     H20 2619   1.475   1.823   2.997  0.8064 -0.7598  0.5805
  114DG     H21 2620   1.411   1.707   3.109 -2.3348 -2.8895 -1.1310
  114DG     H22 2621   1.233   1.884   2.922 -1.7955  0.7040 -0.7912
  114DG     H23 2622   1.167   1.765   3.037 -1.2669 -0.9448 -0.1874
  115THF     O1 2623   3.908   3.394   2.990 -0.5632  0.1228  0.7487
  115THF     C2 2624   3.991   3.373   3.106 -0.4075  0.0916 -0.5085
  115THF     C3 2625   3.894   3.541   2.970  0.4150  0.0502  0.0472
  115THF     H4 2626   4.042   3.277   3.105  2.2779  1.3876  0.5921
  115THF     H5 2627   3.944   3.379   3.204  0.3203 -2.1247  0.0384
  115THF     H6 2628   3.914   3.559   2.864 -1.5432 -0.0861 -0.3902
  115THF     H7 2629   3.794   3.581   2.992 -0.5357 -0.4219 -2.8911
  115THF     C8 2630   4.012   3.599   3.039  0.1448 -0.4801  0.2532
  115THF     C9 2631   4.098   3.483   3.071  0.6871 -0.1934 -0.5805
  115THF    H10 2632   3.984   3.642   3.136  0.4141  0.8459 -0.2367
  115THF    H11 2633   4.064   3.677   2.983 -0.5634 -1.0306 -1.1972
  115THF    H12 2634   4.154   3.446   2.986  1.0969 -0.7848 -0.0570
  115THF    H13 2635   4.179   3.498   3.141  2.2353 -0.9988 -2.1384
  116THF     O1 2636   2.788   4.303   4.381 -0.2449 -0.0484  0.0641
  116THF     C2 2637   2.832   4.264   4.248  0.2168 -0.6128  0.0879
  116THF     C3 2638   2.657   4.359   4.364 -0.5718 -0.7117  0.3217
  116THF     H4 2639   2.779   4.177   4.209  0.2737 -0.0888 -1.2148
  116THF     H5 2640   2.941   4.257   4.240  0.1563 -0.5442 -0.9480
  116THF     H6 2641   2.580   4.282   4.364 -1.1000 -0.2322  1.8717
  116THF     H7 2642   2.643   4.429   4.447  0.2644  0.3581 -0.4182
  116THF     C8 2643   2.672   4.443   4.235  0.3586  0.5835 -0.6266
  116THF     C9 2644   2.791   4.381   4.155 -0.0785 -1.4421 -0.4116
  116THF    H10 2645   2.678   4.547   4.268 -0.6613  0.2038  0.8576
  116THF    H11 2646   2.577   4.452   4.183  1.1403  1.1768 -2.0016
  116THF    H12 2647   2.753   4.353   4.057 -0.2569 -3.3230  0.1499
  116THF    H13 2648   2.859   4.466   4.150  0.1230 -1.6796 -2.7089
  117THF     O1 2649   4.746   4.108   1.861  0.6448  0.3641 -0.5561
  117THF     C2 2650   4.682   4.115   1.740  0.4786  0.1213  0.8543
  117THF     C3 2651   4.887   4.063   1.844 -0.0346  0.1126  0.1980
  117THF     H4 2652   4.604   4.191   1.732  0.1422 -0.1491  1.4608
  117THF     H5 2653   4.644   4.016   1.713 -1.6742  1.3111 -0.8236
  117THF     H6 2654   4.958   4.120   1.904  0.1609 -1.3251  1.4254
  117THF     H7 2655   4.896   3.957   1.872 -4.1895 -0.2789  0.6950
  117THF     C8 2656   4.915   4.083   1.687 -0.4704 -0.8120  0.6596
  117THF     C9 2657   4.788   4.154   1.641  0.0470  0.9366  0.4813
  117THF    H10 2658   4.919   3.986   1.637  0.0195 -0.8770  0.8178
  117THF    H11 2659   5.004   4.143   1.666  0.3925 -1.9387  1.0012
  117THF    H12 2660   4.794   4.263   1.641 -1.6507  1.0496  0.7693
  117THF    H13 2661   4.762   4.107   1.546  0.0922 -2.2608  1.9454
  118THF     O1 2662   3.262   1.384   2.349  0.4095  0.2307 -0.0539
  118THF     C2 2663   3.180   1.483   2.416 -0.8934 -0.6468  0.4183
  118THF     C3 2664   3.295   1.289   2.449 -0.2361 -0.0072 -0.7726
  118THF     H4 2665   3.115   1.530   2.342  0.0581  1.3832  0.8169
  118THF     H5 2666   3.234   1.560   2.470  0.8059 -2.8958  2.1407
  118THF     H6 2667   3.318   1.206   2.383 -0.8706 -0.0783 -0.9089
  118THF     H7 2668   3.381   1.316   2.510 -1.1861 -2.5534  1.9631
  118THF     C8 2669   3.179   1.276   2.547 -0.1413  0.0071 -0.2477
  118THF     C9 2670   3.098   1.402   2.522  0.2061 -0.1962  0.0192
  118THF    H10 2671   3.200   1.260   2.653 -0.4399  0.8462 -0.0542
  118THF    H11 2672   3.133   1.180   2.526  4.1879 -2.4618  0.3208
  118THF    H12 2673   3.006   1.373   2.472 -0.5269  0.1453  1.1120
  118THF    H13 2674   3.064   1.444   2.617 -1.7201 -2.3673  0.4029
  119THF     O1 2675   5.412   2.926   1.954 -0.7380  0.3514 -0.1204
  119THF     C2 2676   5.489   2.932   2.076 -0.0249 -0.7741 -0.1511
  119THF     C3 2677   5.286   2.858   1.977 -0.3410 -0.3152 -0.4038
  119THF     H4 2678   5.475   3.004   2.156 -1.1391 -0.1904 -0.8383
  119THF     H5 2679   5.591   2.947   2.042  0.3585  2.0533  1.9457
  119THF     H6 2680   5.218   2.929   2.024 -0.5289 -0.8607  0.1500
  119THF     H7 2681   5.231   2.821   1.891 -0.5786 -0.0146 -0.3847
  119THF     C8 2682   5.333   2.749   2.073 -0.5576 -0.1981 -0.1714
  119THF     C9 2683   5.464   2.792   2.133 -0.4467  0.4806 -0.4122
  119THF    H10 2684   5.343   2.652   2.023 -0.6182 -1.1267  1.5530
  119THF    H11 2685   5.251   2.745   2.144 -1.7372 -2.5100 -1.5539
  119THF    H12 2686   5.462   2.790   2.242  3.5564 -1.5314 -0.2099
  119THF    H13 2687   5.546   2.724   2.109  0.8804  1.6890  0.5273
  120THF     O1 2688   4.546   4.799   4.083  0.1846 -0.4006  0.0596
  120THF     C2 2689   4.612   4.922   4.072  0.2030  0.7123  0.2748
  120THF     C3 2690   4.487   4.798   4.213  0.1882  0.0596 -0.2302
  120THF     H4 2691   4.616   4.956   3.969 -1.6781  2.1042  0.6074
  120THF     H5 2692   4.709   4.912   4.121 -0.6103  1.1499  2.0671
  120THF     H6 2693   4.420   4.712   4.217  2.3825 -1.8337 -1.8888
  120THF     H7 2694   4.561   4.786   4.291 -0.7336 -2.7071  0.3158
  120THF     C8 2695   4.421   4.936   4.221 -0.1935  0.2163 -0.0580
  120THF     C9 2696   4.525   5.020   4.149 -0.1708 -0.2107  0.1175
  120THF    H10 2697   4.398   4.981   4.318 -0.9630 -0.4726  0.0879
  120THF    H11 2698   4.335   4.951   4.156  0.7878 -0.2225 -1.5042
  120THF    H12 2699   4.487   5.106   4.094 -0.6257  0.3337  1.2335
  120THF    H13 2700   4.582   5.071   4.227 -0.7124  0.5409  0.0290
  121THF     O1 2701   2.024   4.405   4.182 -0.1903  0.2408 -0.4830
  121THF     C2 2702   2.073   4.379   4.315  0.2948  0.4964  0.1861
  121THF     C3 2703   2.124   4.377   4.088 -0.1052 -0.3560  0.2382
  121THF     H4 2704   2.009   4.306   4.365 -0.0320 -0.0411 -0.9916
  121THF     H5 2705   2.079   4.466   4.380  0.7869  1.8288 -1.5789
  121THF     H6 2706   2.112   4.275   4.052 -0.5456  0.1166 -1.0193
  121THF     H7 2707   2.114   4.448   4.006 -1.6341 -1.2146 -0.3678
  121THF     C8 2708   2.249   4.381   4.165 -0.1315  0.2191 -0.4951
  121THF     C9 2709   2.209   4.324   4.295  0.1311  0.0259  0.0151
  121THF    H10 2710   2.280   4.484   4.185  0.0547 -0.2861  2.2496
  121THF    H11 2711   2.327   4.317   4.124  0.6992  0.2310  0.9746
  121THF    H12 2712   2.201   4.216   4.287 -0.4113  0.1548 -1.2909
  121THF    H13 2713   2.269   4.346   4.384 -1.0918  1.6996  0.4739
  122THF     O1 2714   1.716   1.710   5.134 -0.3813 -0.5820  0.0104
  122THF     C2 2715   1.823   1.766   5.061  0.4555  0.3204 -0.0670
  122THF     C3 2716   1.595   1.744   5.067 -0.5090  0.2731  0.4593
  122THF     H4 2717   1.848   1.703   4.976 -1.0890  0.1694 -0.4320
  122THF     H5 2718   1.907   1.784   5.128  0.2960 -0.1626  0.2681
  122THF     H6 2719   1.593   1.675   4.983 -2.8057 -0.2935  0.9075
  122THF     H7 2720   1.515   1.730   5.140 -0.6066  1.6740  0.6521
  122THF     C8 2721   1.610   1.888   5.032 -0.8622 -1.2026  0.8899
  122THF     C9 2722   1.762   1.894   5.004  0.8412  0.0103  0.2408
  122THF    H10 2723   1.574   1.964   5.102  0.3907  0.0107  0.2896
  122THF    H11 2724   1.554   1.896   4.939 -1.2740 -2.3399  1.0277
  122THF    H12 2725   1.780   1.916   4.898 -1.0429  1.0878  0.1015
  122THF    H13 2726   1.787   1.981   5.065 -0.7325  0.1087  0.7729
  123THF     O1 2727   0.011   3.306   3.021  0.2950  0.6068 -0.1029
  123THF     C2 2728   0.051   3.257   2.890  0.0394  0.2562 -0.6346
  123THF     C3 2729   0.011   3.450   3.008 -0.1389  0.7124 -0.0422
  123THF     H4 2730  -0.041   3.265   2.831 -0.0803  1.2083 -0.3443
  123THF     H5 2731   0.098   3.160   2.906 -2.2221 -0.4675  2.3850
  123THF     H6 2732  -0.091   3.465   2.975 -0.0508 -0.3607 -0.8526
  123THF     H7 2733   0.030   3.503   3.102 -3.8646 -0.8659  1.8074
  123THF     C8 2734   0.108   3.483   2.894 -0.2079  0.4606 -0.2021
  123THF     C9 2735   0.155   3.352   2.827 -0.7294  0.7589 -0.1487
  123THF    H10 2736   0.185   3.551   2.931  0.2174 -0.4464  0.6352
  123THF    H11 2737   0.049   3.529   2.815 -1.8171  1.1526  1.3458
  123THF    H12 2738   0.157   3.357   2.719 -0.5589  0.9548 -0.1371
  123THF    H13 2739   0.258   3.331   2.857 -0.7709  1.0100  0.1766
  124THF     O1 2740   4.628   3.139   3.637 -0.4234  0.1273 -0.0047
  124THF     C2 2741   4.760   3.201   3.641  0.3487  0.4424  0.0866
  124THF     C3 2742   4.551   3.188   3.739  0.1605  0.1146 -0.3092
  124THF     H4 2743   4.755   3.300   3.595 -0.2058  0.0461 -0.7063
  124THF     H5 2744   4.834   3.139   3.591 -0.5152 -0.4630 -0.0757
  124THF     H6 2745   4.485   3.269   3.709 -2.7186 -2.0317 -0.1824
  124THF     H7 2746   4.476   3.113   3.762  0.3741 -0.0662 -0.2030
  124THF     C8 2747   4.649   3.219   3.856 -0.0130  0.0055  0.8184
  124THF     C9 2748   4.790   3.210   3.793 -0.6837  0.4194  0.7433
  124THF    H10 2749   4.635   3.162   3.947 -0.4519 -0.9506  0.1677
  124THF    H11 2750   4.625   3.318   3.895 -0.0840  0.3468 -0.0570
  124THF    H12 2751   4.875   3.273   3.820 -1.0593  1.8910 -1.3462
  124THF    H13 2752   4.822   3.108   3.816  3.4437  1.0702 -1.2295
  125THF     O1 2753   3.368   5.372   4.597  0.2668 -0.3133  0.2249
  125THF     C2 2754   3.324   5.431   4.715  0.6101  0.8470  0.2557
  125THF     C3 2755   3.480   5.454   4.560  0.5236 -0.4844 -0.0766
  125THF     H4 2756   3.399   5.415   4.792  1.0454  1.4902 -0.0323
  125THF     H5 2757   3.224   5.405   4.750  1.1288  0.3555  1.4224
  125THF     H6 2758   3.573   5.418   4.605  1.4707  2.0643  0.1535
  125THF     H7 2759   3.491   5.450   4.452 -0.7939  1.1215 -0.3099
  125THF     C8 2760   3.458   5.600   4.608  0.3891 -0.4327  0.0009
  125THF     C9 2761   3.331   5.582   4.691  0.1176 -0.6512  0.5795
  125THF    H10 2762   3.441   5.675   4.531  1.8604 -2.1270 -2.0726
  125THF    H11 2763   3.546   5.633   4.663  0.5333 -0.8187  0.0067
  125THF    H12 2764   3.321   5.658   4.769 -1.1988 -0.0871 -0.1170
  125THF    H13 2765   3.252   5.613   4.623  0.3550 -0.1739  0.5194
  126THF     O1 2766   2.001   1.440   1.563 -0.6622  0.2967 -0.4709
  126THF     C2 2767   1.878   1.466   1.513  0.3909 -0.4011 -0.2172
  126THF     C3 2768   2.046   1.321   1.496  0.4850  0.4345 -0.6609
  126THF     H4 2769   1.872   1.491   1.407 -2.5019  1.5275  0.2813
  126THF     H5 2770   1.836   1.548   1.572  2.2579 -0.6937  1.6201
  126THF     H6 2771   2.073   1.328   1.391 -0.2618  0.3786 -0.8629
  126THF     H7 2772   2.129   1.278   1.554  0.1852 -0.1791 -0.6779
  126THF     C8 2773   1.925   1.229   1.512  0.5346  0.1818 -0.1830
  126THF     C9 2774   1.808   1.331   1.527 -0.5624 -0.4823 -0.3053
  126THF    H10 2775   1.935   1.160   1.596 -1.9304 -0.8732 -0.6479
  126THF    H11 2776   1.909   1.160   1.430  0.9747 -0.3544  0.1742
  126THF    H12 2777   1.734   1.316   1.448  1.1115  1.1293 -2.2832
  126THF    H13 2778   1.770   1.319   1.629  1.6566  1.3812  0.8371
  127THF     O1 2779   0.284   5.231   1.113 -0.0228  0.3770 -0.1775
  127THF     C2 2780   0.189   5.339   1.138  0.3590 -0.5758  0.1260
  127THF     C3 2781   0.355   5.226   1.242 -0.1641 -0.7119  0.5993
  127THF     H4 2782   0.103   5.348   1.073  0.4827  1.0808  0.1389
  127THF     H5 2783   0.237   5.436   1.129 -1.5938  0.6856  2.1726
  127THF     H6 2784   0.415   5.137   1.260  0.5584 -0.7633 -1.6979
  127THF     H7 2785   0.424   5.310   1.252 -0.2651 -0.3018 -1.6129
  127THF     C8 2786   0.239   5.226   1.341  0.1445  0.0038 -0.9624
  127THF     C9 2787   0.145   5.337   1.284 -0.0954  0.2464  0.0543
  127THF    H10 2788   0.271   5.243   1.444 -0.8191  0.6108 -0.7490
  127THF    H11 2789   0.185   5.132   1.330 -0.9080  0.3500  0.8331
  127THF    H12 2790   0.042   5.302   1.287  0.0884 -1.1237 -4.0810
  127THF    H13 2791   0.151   5.434   1.334 -0.8656 -0.1261  0.9083
  128THF     O1 2792   3.082   1.544   5.262  0.7287 -0.3421 -0.3199
  128THF     C2 2793   2.981   1.595   5.171  0.2519  0.1408 -0.0070
  128THF     C3 2794   3.192   1.642   5.276  0.3961  0.2581  0.3082
  128THF     H4 2795   2.910   1.658   5.226  0.4247  0.7923 -0.5186
  128THF     H5 2796   2.933   1.526   5.103  0.4178 -0.3136  0.3325
  128THF     H6 2797   3.198   1.681   5.378 -0.3930  0.5101  0.2629
  128THF     H7 2798   3.286   1.594   5.247 -0.2289  1.4197 -4.4443
  128THF     C8 2799   3.154   1.757   5.178 -0.0781 -0.4003 -0.1200
  128THF     C9 2800   3.047   1.700   5.089  0.8954  0.9580 -1.4223
  128THF    H10 2801   3.240   1.791   5.121  0.0704 -0.8104 -0.1423
  128THF    H11 2802   3.112   1.836   5.241 -0.2647 -1.2409  0.8389
  128THF    H12 2803   2.981   1.774   5.042 -1.8846 -0.0013  0.6732
  128THF    H13 2804   3.094   1.661   4.999 -2.4515  0.9416 -3.3698
  129THF     O1 2805   0.757   1.612   4.028  0.4990  0.1992  0.4315
  129THF     C2 2806   0.691   1.657   4.147 -0.2088 -0.4666  0.8317
  129THF     C3 2807   0.679   1.659   3.914  0.7533  0.0118  0.3261
  129THF     H4 2808   0.758   1.638   4.231  0.0128  1.7565  1.2160
  129THF     H5 2809   0.605   1.591   4.162 -1.1654  0.5024 -0.2166
  129THF     H6 2810   0.741   1.671   3.825 -0.1968  0.3485 -0.3025
  129THF     H7 2811   0.602   1.586   3.887 -0.3135  1.3889 -0.5029
  129THF     C8 2812   0.628   1.795   3.965  0.5174 -0.2318 -0.1560
  129THF     C9 2813   0.653   1.799   4.117 -0.2814  0.3605  0.2131
  129THF    H10 2814   0.526   1.820   3.934  1.0943  1.9147 -0.4923
  129THF    H11 2815   0.690   1.877   3.929  0.8707  0.2988  1.6038
  129THF    H12 2816   0.737   1.856   4.156  0.8051 -0.4996 -0.7751
  129THF    H13 2817   0.567   1.832   4.176  0.6821  0.0425  1.8541
  130THF     O1 2818   5.461   0.103   0.845  0.0015  0.1932 -0.4123
  130THF     C2 2819   5.402  -0.012   0.783 -0.1058 -0.0427  0.2595
  130THF     C3 2820   5.361   0.168   0.920  0.4482 -0.6230 -0.5065
  130THF     H4 2821   5.454  -0.097   0.828 -0.3069 -0.1295  0.3282
  130THF     H5 2822   5.422  -0.009   0.676 -0.8710 -2.2486  0.0036
  130THF     H6 2823   5.366   0.155   1.028  1.6083 -1.1460 -0.6069
  130THF     H7 2824   5.373   0.276   0.907 -1.1514 -0.3428  0.1278
  130THF     C8 2825   5.229   0.143   0.853 -0.0176  0.6190  0.2547
  130THF     C9 2826   5.250  -0.002   0.812 -0.0655  0.4142 -0.3545
  130THF    H10 2827   5.217   0.205   0.764 -0.0606  0.9123  0.4641
  130THF    H11 2828   5.139   0.135   0.913 -1.6601 -1.0427 -2.2530
  130THF    H12 2829   5.231  -0.066   0.898 -1.0326  1.5334  0.3127
  130THF    H13 2830   5.188  -0.040   0.731  0.1691  1.8786 -1.2681
  131THF     O1 2831   5.295   5.316   2.372  0.0536 -0.5217  0.2620
  131THF     C2 2832   5.298   5.176   2.373 -0.9445  0.5494 -0.2567
  131THF     C3 2833   5.315   5.364   2.506 -0.4796  0.1008 -0.0237
  131THF     H4 2834   5.364   5.149   2.291 -0.1186  0.0988  0.5437
  131THF     H5 2835   5.196   5.138   2.359 -0.6100 -0.5866  0.2400
  131THF     H6 2836   5.363   5.461   2.498 -3.3077  1.5176 -1.2727
  131THF     H7 2837   5.219   5.375   2.557 -1.1184 -1.6669 -0.7398
  131THF     C8 2838   5.399   5.261   2.577 -0.2900  0.3525  0.2471
  131THF     C9 2839   5.361   5.130   2.508 -0.8596  0.2189  0.2612
  131THF    H10 2840   5.374   5.261   2.684 -0.9875 -0.8690  0.0991
  131THF    H11 2841   5.505   5.282   2.563 -0.9414  2.2883 -2.7697
  131THF    H12 2842   5.445   5.061   2.506  0.9994  2.2849  1.9626
  131THF    H13 2843   5.289   5.074   2.568 -0.2718 -1.4026 -0.4822
  132THF     O1 2844   5.216   1.657   4.765 -0.0929  0.2335 -0.9687
  132THF     C2 2845   5.319   1.600   4.689 -0.2727  0.1841 -0.0812
  132THF     C3 2846   5.266   1.786   4.811 -0.0506  0.0588  0.1861
  132THF     H4 2847   5.332   1.643   4.590  1.0262  1.0801  0.4439
  132THF     H5 2848   5.298   1.494   4.676 -2.1476  0.5689 -0.4521
  132THF     H6 2849   5.275   1.854   4.727  3.6521 -0.0984  0.2819
  132THF     H7 2850   5.196   1.822   4.887 -0.4489  0.8592 -0.5515
  132THF     C8 2851   5.406   1.762   4.859  0.3617 -0.5503 -0.0783
  132THF     C9 2852   5.448   1.649   4.769  0.2604 -0.1747  0.2410
  132THF    H10 2853   5.410   1.724   4.961 -0.6618 -0.8069 -0.1239
  132THF    H11 2854   5.470   1.851   4.854 -0.0129 -0.2985 -0.4900
  132THF    H12 2855   5.525   1.683   4.699  0.9735 -2.6053 -0.2251
  132THF    H13 2856   5.493   1.563   4.818  0.1078 -1.9168 -2.4788
  133THF     O1 2857   1.961   3.066   4.891 -0.1078  0.0982  0.0914
  133THF     C2 2858   2.066   3.160   4.911  0.6997  0.4080  0.0580
  133THF     C3 2859   1.902   3.050   5.018  0.2665  0.3269 -0.1558
  133THF     H4 2860   2.090   3.195   4.810 -2.5711 -1.8266 -1.6663
  133THF     H5 2861   2.151   3.111   4.957  1.5087  1.8252  0.1380
  133THF     H6 2862   1.798   3.019   5.010  0.6073 -0.8582 -0.1276
  133THF     H7 2863   1.948   2.975   5.083  0.1367 -0.4702 -0.9678
  133THF     C8 2864   1.909   3.198   5.077  0.1767  0.5512 -0.1643
  133THF     C9 2865   2.008   3.276   4.992  0.3411 -0.1602  0.8211
  133THF    H10 2866   1.930   3.206   5.184  1.3345 -2.4445 -0.0736
  133THF    H11 2867   1.811   3.247   5.073 -0.2644 -0.3878 -1.4566
  133THF    H12 2868   1.961   3.345   4.923 -0.5602 -1.6144 -0.0475
  133THF    H13 2869   2.081   3.334   5.050  0.6232  1.4804 -1.0714
  134THF     O1 2870   2.284   4.463   2.227  0.2461 -0.0057 -0.1591
  134THF     C2 2871   2.288   4.596   2.261 -0.4491  0.5976  0.2710
  134THF     C3 2872   2.220   4.452   2.095 -0.5320 -0.0978 -0.4506
  134THF     H4 2873   2.369   4.601   2.334  0.0570  0.2532 -0.2588
  134THF     H5 2874   2.193   4.630   2.301 -1.4288 -0.7300 -0.8141
  134THF     H6 2875   2.246   4.361   2.042  3.6152  0.3669  0.4238
  134THF     H7 2876   2.113   4.447   2.116 -0.5520  0.5310 -0.3743
  134THF     C8 2877   2.262   4.579   2.025 -0.2104 -0.5945 -0.2120
  134THF     C9 2878   2.314   4.672   2.134 -0.1796 -0.0984  0.0192
  134THF    H10 2879   2.179   4.628   1.974  0.1346 -0.2516 -0.4484
  134THF    H11 2880   2.338   4.555   1.951  0.3749 -0.1051  0.2139
  134THF    H12 2881   2.423   4.667   2.125 -0.2350 -0.8900 -0.3192
  134THF    H13 2882   2.270   4.771   2.134 -1.0131 -0.4252 -1.7139
  135THF     O1 2883   4.826   3.291   0.367  0.5163  0.1578  0.8048
  135THF     C2 2884   4.903   3.375   0.282  0.0130  0.0076  0.4876
  135THF     C3 2885   4.699   3.351   0.379 -0.4080 -0.2705  0.3554
  135THF     H4 2886   4.984   3.322   0.233 -1.3349  0.3232 -2.2251
  135THF     H5 2887   4.945   3.456   0.343  0.7470 -0.4237  0.5642
  135THF     H6 2888   4.626   3.279   0.415 -0.0440 -1.1605 -0.6558
  135THF     H7 2889   4.700   3.439   0.444 -0.2149  0.3868 -0.5295
  135THF     C8 2890   4.670   3.403   0.235  0.2672  0.0389  0.2008
  135THF     C9 2891   4.806   3.419   0.171 -0.0167  0.7008  0.5755
  135THF    H10 2892   4.628   3.504   0.236 -0.9062 -0.4345  1.5084
  135THF    H11 2893   4.615   3.333   0.172  1.9680 -2.8753  1.7414
  135THF    H12 2894   4.809   3.354   0.084 -1.2836  1.7087 -0.2616
  135THF    H13 2895   4.823   3.520   0.132 -2.3036 -0.1268 -3.0506
  136THF     O1 2896   4.711   3.679   1.076  0.2954  0.2860 -0.0585
  136THF     C2 2897   4.747   3.664   0.943 -0.2207 -0.1222 -0.7683
  136THF     C3 2898   4.621   3.790   1.091 -0.2493  0.3621  0.0627
  136THF     H4 2899   4.763   3.559   0.922  1.2579  0.0252 -0.5057
  136THF     H5 2900   4.842   3.713   0.923  0.0320  0.0437  0.6889
  136THF     H6 2901   4.527   3.748   1.129  0.1399  0.3634  1.0680
  136THF     H7 2902   4.671   3.856   1.162  1.6916 -0.7499 -0.1873
  136THF     C8 2903   4.598   3.849   0.951  0.2263  0.4619 -0.1352
  136THF     C9 2904   4.632   3.735   0.863 -0.7632  0.1817 -0.2940
  136THF    H10 2905   4.671   3.928   0.935  0.7342  0.3947  1.6242
  136THF    H11 2906   4.497   3.881   0.927 -0.1184 -1.0515 -0.8694
  136THF    H12 2907   4.546   3.670   0.844  0.0512 -0.4738 -1.9994
  136THF    H13 2908   4.669   3.755   0.762  0.0282 -1.8774 -0.4531
  137THF     O1 2909   5.467   0.774   3.614  0.5289 -0.3457 -0.2265
  137THF     C2 2910   5.610   0.807   3.602  0.5819  0.1305  0.6294
  137THF     C3 2911   5.412   0.809   3.490  0.0370  0.0854  0.1100
  137THF     H4 2912   5.662   0.713   3.581  0.7198  0.0415  1.3447
  137THF     H5 2913   5.654   0.838   3.697  0.8889 -2.2451  1.3307
  137THF     H6 2914   5.348   0.729   3.453  0.4459 -0.2993  0.2264
  137THF     H7 2915   5.349   0.897   3.501 -0.8330 -0.6828  1.5821
  137THF     C8 2916   5.529   0.836   3.393  0.5370  0.0944 -0.3892
  137THF     C9 2917   5.636   0.893   3.478 -0.4767  0.3734  0.0840
  137THF    H10 2918   5.492   0.907   3.320 -1.3841 -1.2856 -0.8466
  137THF    H11 2919   5.559   0.744   3.343  1.5689  0.7380 -0.9864
  137THF    H12 2920   5.739   0.877   3.445 -0.6232 -0.1599 -0.1209
  137THF    H13 2921   5.616   0.997   3.504  1.3842  1.1320 -1.3025
  138THF     O1 2922   5.262   4.627   2.814 -0.1427  0.4083  0.7766
  138THF     C2 2923   5.338   4.748   2.823  0.2343  0.1801 -0.7293
  138THF     C3 2924   5.137   4.665   2.769 -0.2022 -0.9615 -0.2699
  138THF     H4 2925   5.445   4.727   2.816  0.0213 -1.8197  1.0819
  138THF     H5 2926   5.325   4.782   2.925  1.3814 -1.4002 -0.0163
  138THF     H6 2927   5.079   4.583   2.725 -1.0494 -1.0309  0.9518
  138THF     H7 2928   5.087   4.705   2.857 -0.6534  1.2708 -1.4724
  138THF     C8 2929   5.167   4.770   2.660  0.4981 -0.3673 -0.2334
  138THF     C9 2930   5.287   4.843   2.716 -0.3793  0.5522 -0.2002
  138THF    H10 2931   5.090   4.845   2.642  0.2090 -0.6220 -0.0691
  138THF    H11 2932   5.197   4.723   2.567 -0.3743 -0.2492 -0.5913
  138THF    H12 2933   5.358   4.863   2.635 -0.8292  0.8326 -0.5283
  138THF    H13 2934   5.259   4.933   2.769 -2.7055  0.2519 -0.8108
  139THF     O1 2935   3.419   1.833   4.562  0.0672  0.3243 -0.0296
  139THF     C2 2936   3.324   1.923   4.582  0.0250  0.1680  0.3590
  139THF     C3 2937   3.434   1.745   4.674 -0.0720  0.5470 -0.4665
  139THF     H4 2938   3.286   1.974   4.493  1.9451  1.9804  0.4817
  139THF     H5 2939   3.366   2.000   4.647  1.7139  1.1341 -1.7241
  139THF     H6 2940   3.497   1.658   4.657 -1.1157 -0.0214 -1.5911
  139THF     H7 2941   3.486   1.800   4.752 -0.1046  0.1549 -0.1653
  139THF     C8 2942   3.294   1.724   4.720  0.3768  0.7015 -0.7718
  139THF     C9 2943   3.217   1.844   4.668 -0.7148  0.1508 -0.4034
  139THF    H10 2944   3.281   1.710   4.827  0.3723 -3.4268 -1.1432
  139THF    H11 2945   3.256   1.634   4.671 -0.0153 -0.2111  1.1112
  139THF    H12 2946   3.153   1.796   4.594  1.8980 -1.6512 -1.6111
  139THF    H13 2947   3.156   1.902   4.737 -0.6275 -0.9350  0.6236
  140THF     O1 2948   0.305   4.539   2.680  0.1554 -0.1435  0.2709
  140THF     C2 2949   0.372   4.661   2.690  0.7899 -0.0347 -0.0096
  140THF     C3 2950   0.191   4.554   2.603  0.5543 -0.4315 -0.3200
  140THF     H4 2951   0.477   4.649   2.715  0.9420 -1.4043 -1.2313
  140THF     H5 2952   0.335   4.724   2.772  1.3636 -0.1240  0.3200
  140THF     H6 2953   0.134   4.468   2.569 -2.9982  1.1724  1.0916
  140THF     H7 2954   0.116   4.606   2.663  1.9446  0.9291  0.3176
  140THF     C8 2955   0.238   4.637   2.493 -0.7853 -0.4383 -0.2330
  140THF     C9 2956   0.333   4.727   2.559 -0.0044 -0.4608  0.6239
  140THF    H10 2957   0.149   4.688   2.457 -0.4594 -0.6953 -1.4273
  140THF    H11 2958   0.283   4.582   2.411 -0.0536  0.4719 -0.4519
  140THF    H12 2959   0.420   4.752   2.498 -1.3860  0.6458 -1.0095
  140THF    H13 2960   0.288   4.825   2.575  0.6029 -0.1564  0.5050
  141THF     O1 2961   5.049   4.706   0.700  0.1108  0.0378 -0.0546
  141THF     C2 2962   4.948   4.614   0.649  0.1088 -0.8913  0.2258
  141THF     C3 2963   5.081   4.789   0.588 -0.3368 -0.1067 -0.5559
  141THF     H4 2964   4.907   4.560   0.734  2.2312 -1.7405  0.7810
  141THF     H5 2965   4.995   4.553   0.572  1.0798 -0.1179  0.1893
  141THF     H6 2966   5.146   4.872   0.616  1.9474 -0.9795 -2.8625
  141THF     H7 2967   5.136   4.729   0.515 -1.1931  0.9571 -2.1091
  141THF     C8 2968   4.942   4.829   0.542 -0.4407  0.7986 -0.9221
  141THF     C9 2969   4.858   4.707   0.572  0.4408 -0.1273  0.3627
  141THF    H10 2970   4.942   4.855   0.437  1.1774  0.4593 -1.0252
  141THF    H11 2971   4.911   4.918   0.597  2.3195  0.8038  0.8285
  141THF    H12 2972   4.768   4.732   0.629  1.4814 -0.1529  2.1108
  141THF    H13 2973   4.811   4.657   0.488  0.7597  0.0897  0.0554
  142THF     O1 2974   0.294   3.073   4.850  0.0308  0.1476  0.2986
  142THF     C2 2975   0.285   3.187   4.758  0.3967 -0.1619 -0.2821
  142THF     C3 2976   0.347   2.968   4.771 -0.4327 -0.0664  0.0343
  142THF     H4 2977   0.305   3.282   4.807 -2.2773  0.5673 -0.4496
  142THF     H5 2978   0.184   3.191   4.717  0.2866 -2.9841 -0.5170
  142THF     H6 2979   0.395   2.894   4.834  0.8097 -0.1607 -0.9724
  142THF     H7 2980   0.269   2.925   4.707 -0.2548 -3.1676  1.7210
  142THF     C8 2981   0.445   3.034   4.676 -0.1656  0.6263  0.6643
  142THF     C9 2982   0.381   3.167   4.647  0.3198  0.7074  0.8416
  142THF    H10 2983   0.465   2.988   4.580 -2.6532 -0.3995  0.5510
  142THF    H11 2984   0.546   3.050   4.714  0.1492 -0.6922  0.4427
  142THF    H12 2985   0.458   3.242   4.630  1.5727  0.0375  3.1110
  142THF    H13 2986   0.324   3.165   4.554 -0.8754  0.8184  1.5490
  143THF     O1 2987   2.533   3.102   4.174  0.0761 -0.1620 -0.2197
  143THF     C2 2988   2.450   3.183   4.249 -0.0307 -0.1813  0.1040
  143THF     C3 2989   2.471   3.069   4.052  0.2963  0.1568  0.7487
  143THF     H4 2990   2.507   3.269   4.285  0.4022  0.0928 -1.1989
  143THF     H5 2991   2.412   3.124   4.332 -0.6496 -1.4427 -1.0318
  143THF     H6 2992   2.542   3.055   3.970  0.1184  0.3041  0.5694
  143THF     H7 2993   2.407   2.980   4.052  1.4885 -0.7709 -1.3661
  143THF     C8 2994   2.394   3.193   4.021  0.0925  0.0883  0.5689
  143THF     C9 2995   2.329   3.224   4.153 -0.7124 -0.2216 -0.3713
  143THF    H10 2996   2.326   3.167   3.940 -1.0254 -2.0535  2.1041
  143THF    H11 2997   2.467   3.269   3.994  1.4992 -1.6895 -0.8874
  143THF    H12 2998   2.290   3.326   4.163 -1.8075 -0.6314 -0.3399
  143THF    H13 2999   2.248   3.155   4.172 -0.5427 -0.3596 -0.1437
  144THF     O1 3000   5.466   0.632   0.209 -0.0920  0.3686  0.5503
  144THF     C2 3001   5.592   0.563   0.211  0.1178  0.3995 -0.2783
  144THF     C3 3002   5.493   0.765   0.151  0.1043  0.2527 -0.5932
  144THF     H4 3003   5.580   0.458   0.235  0.0370  0.1613 -1.3004
  144THF     H5 3004   5.655   0.599   0.292 -0.7110 -1.7309  1.3940
  144THF     H6 3005   5.398   0.802   0.113 -0.1035  0.0045 -0.3206
  144THF     H7 3006   5.540   0.825   0.229 -1.4446  0.6488  0.0875
  144THF     C8 3007   5.590   0.734   0.036 -0.2216 -0.1227 -0.1549
  144THF     C9 3008   5.659   0.605   0.082  0.1808 -0.2844 -0.0319
  144THF    H10 3009   5.665   0.812   0.027  0.6637 -1.0118 -0.6483
  144THF    H11 3010   5.540   0.726  -0.061 -1.4416  1.3029  0.3209
  144THF    H12 3011   5.639   0.528   0.008  0.1179  0.7230 -1.0854
  144THF    H13 3012   5.766   0.624   0.088  0.9771 -2.4737 -3.9253
  145THF     O1 3013   3.037   5.035   2.317  0.1108  0.3187 -0.1909
  145THF     C2 3014   3.141   5.023   2.414  0.3410  0.1203  0.0601
  145THF     C3 3015   2.908   5.034   2.380 -0.1755 -0.1369 -1.2123
  145THF     H4 3016   3.226   5.082   2.378  0.0909 -0.3315 -1.3115
  145THF     H5 3017   3.178   4.921   2.420 -0.3205 -0.2188 -1.3414
  145THF     H6 3018   2.861   5.131   2.371 -0.3395 -0.2346 -1.4062
  145THF     H7 3019   2.834   4.961   2.347 -1.3506 -0.4256  1.7078
  145THF     C8 3020   2.940   5.011   2.532  0.4373  0.4627  0.7799
  145THF     C9 3021   3.084   5.069   2.544  0.6120 -0.4435  0.2465
  145THF    H10 3022   2.956   4.904   2.536 -0.4820  0.0297 -3.1909
  145THF    H11 3023   2.864   5.048   2.600  0.1297  0.2308  0.5655
  145THF    H12 3024   3.087   5.177   2.558 -1.4876 -0.1149 -1.3057
  145THF    H13 3025   3.150   5.022   2.617 -1.5266 -1.7488  1.4477
  146THF     O1 3026   2.297   0.472   1.644 -0.0935  0.3542  0.9833
  146THF     C2 3027   2.333   0.611   1.659 -0.3201  0.1550 -1.0375
  146THF     C3 3028   2.297   0.406   1.766  0.7120  0.4889 -0.3132
  146THF     H4 3029   2.246   0.674   1.678 -1.3088 -1.2441 -0.8717
  146THF     H5 3030   2.386   0.644   1.569  2.5280  1.1461  0.8409
  146THF     H6 3031   2.211   0.349   1.802  0.8841  2.2663  3.4610
  146THF     H7 3032   2.379   0.336   1.753 -1.0407 -2.1913  1.9915
  146THF     C8 3033   2.338   0.513   1.867  0.7460  0.3495 -0.5402
  146THF     C9 3034   2.417   0.620   1.788  0.3438  0.3854 -0.2040
  146THF    H10 3035   2.394   0.468   1.949 -0.6540 -1.1308 -0.3446
  146THF    H11 3036   2.254   0.570   1.905  1.8848  0.9949  1.1301
  146THF    H12 3037   2.411   0.716   1.838 -1.0665  0.0765  0.2497
  146THF    H13 3038   2.523   0.595   1.778  0.7106  1.1281  1.5002
  147THF     O1 3039   5.435   0.321   2.002  0.5697 -0.0551 -0.1169
  147THF     C2 3040   5.302   0.304   1.980  0.5595  0.1544 -0.0419
  147THF     C3 3041   5.508   0.260   1.898  0.9742  0.2706  0.0265
  147THF     H4 3042   5.232   0.375   2.024  0.1941  0.6292 -1.3488
  147THF     H5 3043   5.272   0.208   2.023  1.8242 -0.4359 -0.4108
  147THF     H6 3044   5.601   0.313   1.878  0.9592  0.1447 -0.3690
  147THF     H7 3045   5.544   0.165   1.937 -1.3595 -0.4427  0.6155
  147THF     C8 3046   5.414   0.228   1.779  0.2424 -0.4404  0.3138
  147THF     C9 3047   5.281   0.292   1.829 -0.3031 -0.3953  0.3657
  147THF    H10 3048   5.400   0.121   1.767  2.4609 -0.9886  1.8390
  147THF    H11 3049   5.448   0.264   1.682  0.1880  0.4309  0.6117
  147THF    H12 3050   5.299   0.383   1.771  0.5252 -2.2258 -2.4950
  147THF    H13 3051   5.190   0.245   1.790 -0.8971  1.5543 -0.7347
  148THF     O1 3052   0.069   4.153   4.920  0.0030  0.0664  0.3447
  148THF     C2 3053   0.033   4.263   4.838  0.2019  0.2498 -0.6193
  148THF     C3 3054  -0.040   4.113   5.007  0.1846  0.3264  0.0999
  148THF     H4 3055   0.094   4.272   4.748  3.4601 -0.8620  1.2820
  148THF     H5 3056   0.056   4.348   4.902 -0.2933 -1.1963  1.5981
  148THF     H6 3057  -0.020   4.010   5.037 -1.4893  0.2886  1.2404
  148THF     H7 3058  -0.039   4.168   5.101 -0.4671  0.6246 -0.0662
  148THF     C8 3059  -0.161   4.138   4.918 -0.7515  1.1646 -0.0974
  148THF     C9 3060  -0.117   4.241   4.817  0.6812 -0.1838  0.7066
  148THF    H10 3061  -0.253   4.162   4.970 -0.6099  3.4966 -0.8194
  148THF    H11 3062  -0.187   4.045   4.867 -2.2335  2.4061 -1.7170
  148THF    H12 3063  -0.130   4.200   4.717 -0.1471  0.6976  0.4405
  148THF    H13 3064  -0.178   4.329   4.837 -0.2667 -0.4643 -0.7913
  149THF     O1 3065   3.746   3.881   3.103  0.0240  0.2287 -0.2178
  149THF     C2 3066   3.863   3.957   3.062  0.2977 -0.3473  0.0678
  149THF     C3 3067   3.675   3.956   3.195  0.1293 -0.7500 -0.6854
  149THF     H4 3068   3.886   3.931   2.959 -0.6796  1.4879 -0.6715
  149THF     H5 3069   3.945   3.920   3.123  1.9005  1.7442 -0.7112
  149THF     H6 3070   3.575   3.915   3.206 -0.3996  0.4524 -0.8452
  149THF     H7 3071   3.729   3.953   3.289  0.1341 -0.2021 -0.6682
  149THF     C8 3072   3.691   4.102   3.136  0.6641 -0.0962 -0.2821
  149THF     C9 3073   3.832   4.105   3.095 -0.6938 -0.0085 -0.6730
  149THF    H10 3074   3.640   4.168   3.206 -0.5642 -0.5791 -0.6937
  149THF    H11 3075   3.613   4.109   3.060  1.4221  2.2567 -0.9247
  149THF    H12 3076   3.847   4.164   3.005  2.7530 -3.0272 -2.3924
  149THF    H13 3077   3.900   4.147   3.169  0.3018  0.4639 -1.8121
  150THF     O1 3078   1.732   2.898   4.057  0.3772 -0.1110  0.5797
  150THF     C2 3079   1.858   2.938   4.109 -0.2997 -0.0888  0.0506
  150THF     C3 3080   1.731   2.944   3.913  0.6744 -0.1562  0.6637
  150THF     H4 3081   1.932   2.864   4.079  1.5417  2.0478 -1.0273
  150THF     H5 3082   1.848   2.941   4.217 -3.3780  0.7260 -0.1438
  150THF     H6 3083   1.751   2.863   3.843  0.5445  1.0925 -0.8422
  150THF     H7 3084   1.634   2.986   3.888  0.8443 -0.6400 -0.9026
  150THF     C8 3085   1.841   3.049   3.901 -0.1269  0.2666  0.1346
  150THF     C9 3086   1.893   3.067   4.045  0.2844 -0.9014  0.1644
  150THF    H10 3087   1.808   3.145   3.861 -3.8932 -0.0491  2.0716
  150THF    H11 3088   1.927   3.015   3.843  0.0615  0.4304  0.3141
  150THF    H12 3089   1.994   3.106   4.048  0.0983 -0.1526 -1.6691
  150THF    H13 3090   1.835   3.146   4.093  0.4430  0.8326 -2.2883
  151THF     O1 3091   5.149   1.866   5.278 -0.5449  0.3045  0.4514
  151THF     C2 3092   5.207   1.875   5.408 -0.1015  0.0283 -0.0363
  151THF     C3 3093   5.125   1.725   5.252 -0.4665  0.2078 -0.1778
  151THF     H4 3094   5.167   1.954   5.472  0.8584  1.9527 -1.7082
  151THF     H5 3095   5.310   1.903   5.390 -0.7424  2.5379 -0.1539
  151THF     H6 3096   5.019   1.707   5.268 -0.0082 -0.7422  2.1657
  151THF     H7 3097   5.155   1.710   5.148 -1.6494  0.7435 -0.6105
  151THF     C8 3098   5.209   1.649   5.349 -0.0519  0.0028  0.5012
  151THF     C9 3099   5.208   1.735   5.466 -0.6162  0.3355  0.3729
  151THF    H10 3100   5.313   1.648   5.318  0.3851  2.0817  1.7023
  151THF    H11 3101   5.177   1.549   5.376  0.7961 -0.0548  1.3258
  151THF    H12 3102   5.118   1.725   5.526 -1.4803 -0.9419 -1.0393
  151THF    H13 3103   5.301   1.714   5.519 -1.1628  1.6668  1.9060
  152THF     O1 3104   4.680   5.039   0.118 -0.1521  0.5668 -0.4720
  152THF     C2 3105   4.743   5.078   0.240 -0.0118  0.1306  0.0906
  152THF     C3 3106   4.679   5.150   0.036  0.1849 -0.4036 -0.2464
  152THF     H4 3107   4.850   5.089   0.221 -0.2314 -0.0803 -1.4137
  152THF     H5 3108   4.725   5.013   0.326  0.4543  1.0966  0.9373
  152THF     H6 3109   4.782   5.162   0.001  1.4099  0.4013  3.2287
  152THF     H7 3110   4.614   5.145  -0.052  1.1628  0.5343 -1.0593
  152THF     C8 3111   4.646   5.266   0.132  1.1595  0.3586 -0.2465
  152THF     C9 3112   4.686   5.214   0.265 -0.0719  0.1082 -0.3986
  152THF    H10 3113   4.538   5.279   0.129  1.4215  3.1280 -2.0302
  152THF    H11 3114   4.683   5.368   0.117 -1.4736  1.8658  2.4247
  152THF    H12 3115   4.766   5.274   0.308 -2.0920  2.4815  0.2847
  152THF    H13 3116   4.604   5.229   0.336  1.5704  1.5065  1.3078
  153THF     O1 3117   4.098   4.842   4.175  0.6003 -0.0292  0.1151
  153THF     C2 3118   3.967   4.880   4.130  0.2867  0.4670  0.1403
  153THF     C3 3119   4.117   4.706   4.132  0.6151  0.0486 -0.4914
  153THF     H4 3120   3.970   4.979   4.083  1.0528 -0.2100 -1.2955
  153THF     H5 3121   3.905   4.887   4.219  0.8315 -1.9763  0.7839
  153THF     H6 3122   4.180   4.711   4.043  3.7711 -0.6466  1.5532
  153THF     H7 3123   4.180   4.660   4.208 -0.3371 -2.8585 -1.3435
  153THF     C8 3124   3.976   4.650   4.106 -0.1523  0.3242  0.9838
  153THF     C9 3125   3.902   4.770   4.046 -0.1552 -0.5742  0.6348
  153THF    H10 3126   3.929   4.618   4.199 -1.1650 -1.8949 -0.2069
  153THF    H11 3127   3.985   4.560   4.045 -1.6539  0.1724  0.9414
  153THF    H12 3128   3.914   4.783   3.939 -2.2631  0.4031  0.4668
  153THF    H13 3129   3.797   4.771   4.077 -0.2554 -0.4302  0.2914
  154THF     O1 3130   4.126   2.378   0.775 -0.4458  0.2075  0.7170
  154THF     C2 3131   3.994   2.407   0.820 -0.3463  0.0448  0.7464
  154THF     C3 3132   4.161   2.494   0.712 -0.2897  0.2374 -0.0764
  154THF     H4 3133   3.952   2.336   0.892  0.0359 -0.9938 -0.0174
  154THF     H5 3134   3.932   2.383   0.733  1.4686 -0.3476 -0.5052
  154THF     H6 3135   4.260   2.496   0.668 -0.7069 -1.2783 -1.1330
  154THF     H7 3136   4.095   2.513   0.628 -0.0707 -2.0544 -0.8182
  154THF     C8 3137   4.131   2.604   0.815 -0.2064  0.3350 -0.2846
  154THF     C9 3138   3.997   2.556   0.865  0.4348  0.7198  0.0450
  154THF    H10 3139   4.117   2.709   0.789 -1.7236  0.7751  2.0471
  154THF    H11 3140   4.207   2.600   0.893 -1.0399  1.4612  0.6158
  154THF    H12 3141   4.000   2.570   0.973  1.7973  0.0680  0.1237
  154THF    H13 3142   3.917   2.617   0.824 -1.2462 -0.3787  1.5444
  155THF     O1 3143   1.749   2.110   3.587 -0.0344 -0.1904  0.1999
  155THF     C2 3144   1.702   1.990   3.524 -0.3040  0.3116 -0.3428
  155THF     C3 3145   1.644   2.208   3.608  0.2451 -0.3581  0.8327
  155THF     H4 3146   1.759   1.899   3.541  0.5371  0.0014 -3.9869
  155THF     H5 3147   1.714   1.996   3.416  3.5981 -1.6433 -0.1745
  155THF     H6 3148   1.676   2.280   3.684  2.2237 -0.3833  0.0860
  155THF     H7 3149   1.629   2.257   3.512  0.4656 -0.7835  0.5802
  155THF     C8 3150   1.519   2.119   3.631  0.1176  1.0358 -1.1704
  155THF     C9 3151   1.553   1.983   3.568  0.0582  0.3128 -0.1119
  155THF    H10 3152   1.426   2.163   3.595 -1.5916 -1.4483 -0.1412
  155THF    H11 3153   1.512   2.105   3.739 -0.8621 -1.0808 -1.4489
  155THF    H12 3154   1.540   1.913   3.651 -0.6559  0.6393  0.0667
  155THF    H13 3155   1.487   1.954   3.486  0.1830 -3.8074  1.0432
  156THF     O1 3156   3.227   1.615   4.177 -0.0809 -0.1746 -0.5192
  156THF     C2 3157   3.236   1.475   4.189  0.0796  0.6166 -0.1482
  156THF     C3 3158   3.249   1.655   4.314 -0.0296 -0.3445  0.7131
  156THF     H4 3159   3.249   1.434   4.089 -2.4587 -0.3949 -0.1363
  156THF     H5 3160   3.150   1.429   4.237  0.1472  1.8899  1.2830
  156THF     H6 3161   3.266   1.761   4.334 -0.2505 -0.7216  3.1900
  156THF     H7 3162   3.161   1.635   4.374 -1.7372  1.5717 -0.9867
  156THF     C8 3163   3.368   1.575   4.360 -0.7924 -0.1581 -0.1427
  156THF     C9 3164   3.364   1.452   4.279  0.2748 -0.3498  0.4555
  156THF    H10 3165   3.373   1.571   4.469  0.6148  0.3252 -0.1662
  156THF    H11 3166   3.460   1.624   4.326 -0.4445  0.6555  1.8140
  156THF    H12 3167   3.457   1.451   4.223  0.2931  1.1731  0.4003
  156THF    H13 3168   3.361   1.360   4.336 -0.1088 -0.3949  0.3660
  157THF     O1 3169   3.814   3.362   0.852 -0.4715 -0.1036  0.6745
  157THF     C2 3170   3.734   3.348   0.969  0.6759 -0.0557  0.2718
  157THF     C3 3171   3.796   3.244   0.766 -0.9811 -0.0124 -0.0888
  157THF     H4 3172   3.688   3.445   0.986  0.1989 -0.5808  2.1326
  157THF     H5 3173   3.801   3.311   1.047 -1.3079 -1.6190  1.3217
  157THF     H6 3174   3.760   3.287   0.672  1.2000  1.0472 -0.5348
  157THF     H7 3175   3.882   3.182   0.742 -2.1794 -1.3706 -1.0201
  157THF     C8 3176   3.702   3.149   0.840 -0.7933 -0.1344 -0.5278
  157THF     C9 3177   3.622   3.250   0.924  0.1408  0.2847  0.5103
  157THF    H10 3178   3.759   3.085   0.907 -0.5784  0.7549  0.1702
  157THF    H11 3179   3.644   3.074   0.787 -1.2537 -1.6411  1.9365
  157THF    H12 3180   3.553   3.308   0.863 -1.4235 -2.3318 -0.3384
  157THF    H13 3181   3.558   3.212   1.003 -0.6277 -0.5836 -0.5077
  158THF     O1 3182   2.262   3.412   3.527 -0.2983  0.1037 -0.3312
  158THF     C2 3183   2.206   3.291   3.478 -0.0371  0.1609 -0.4873
  158THF     C3 3184   2.188   3.435   3.651  0.0647  0.1754  0.4253
  158THF     H4 3185   2.254   3.258   3.386  2.3729  0.8137  0.4516
  158THF     H5 3186   2.103   3.307   3.445 -0.3887 -1.9135 -0.4811
  158THF     H6 3187   2.251   3.503   3.708  0.2912 -1.9324  2.8910
  158THF     H7 3188   2.091   3.483   3.639 -0.0783  0.2219  1.5936
  158THF     C8 3189   2.164   3.299   3.713  0.4299 -1.0139 -1.3719
  158THF     C9 3190   2.197   3.200   3.604 -1.0024  0.3607  0.1673
  158THF    H10 3191   2.060   3.287   3.745  0.1838  1.1005 -1.2434
  158THF    H11 3192   2.222   3.280   3.804  0.2820 -0.2292 -1.1069
  158THF    H12 3193   2.295   3.159   3.627 -0.3880  1.3572 -0.6130
  158THF    H13 3194   2.124   3.119   3.599  0.1240 -0.6504 -0.3233
  159THF     O1 3195   5.356   3.276   2.555  0.8836 -0.3386  0.6957
  159THF     C2 3196   5.238   3.237   2.490 -0.0310 -0.2744  0.2058
  159THF     C3 3197   5.470   3.260   2.473  0.2386  0.1059 -0.5642
  159THF     H4 3198   5.181   3.327   2.470  0.1540 -0.0756  0.5608
  159THF     H5 3199   5.179   3.160   2.538 -1.2129  0.2534 -0.3672
  159THF     H6 3200   5.550   3.330   2.497  0.3664  0.2021 -1.2321
  159THF     H7 3201   5.516   3.164   2.497  2.2427  0.8985 -1.0172
  159THF     C8 3202   5.431   3.257   2.331  0.2495 -0.3375 -0.4260
  159THF     C9 3203   5.288   3.205   2.351 -0.3770 -0.4688  0.5738
  159THF    H10 3204   5.493   3.203   2.260  0.7104 -2.2604  1.3567
  159THF    H11 3205   5.426   3.360   2.295  0.0665  0.1653  0.9664
  159THF    H12 3206   5.226   3.246   2.272  1.9517  1.7568 -0.2154
  159THF    H13 3207   5.297   3.096   2.346 -1.4835 -0.5426 -0.0131
  160THF     O1 3208   3.441   5.263   2.561 -0.5216  0.0346  0.2805
  160THF     C2 3209   3.444   5.133   2.623 -0.0599  0.3298  0.0539
  160THF     C3 3210   3.505   5.257   2.441 -0.2921  0.5460 -0.3356
  160THF     H4 3211   3.349   5.080   2.625 -0.8679  1.7416  0.3881
  160THF     H5 3212   3.493   5.139   2.720  0.4305 -3.8687  0.2613
  160THF     H6 3213   3.435   5.243   2.358  0.6351 -3.8504 -0.6188
  160THF     H7 3214   3.561   5.350   2.438 -0.3741  0.7367  2.2065
  160THF     C8 3215   3.612   5.152   2.456 -0.2884  0.2662 -0.1025
  160THF     C9 3216   3.541   5.046   2.534  0.4537 -0.5694 -0.1519
  160THF    H10 3217   3.691   5.189   2.521 -0.6250  1.8658 -0.5639
  160THF    H11 3218   3.658   5.116   2.363  0.2733  0.1469  0.2157
  160THF    H12 3219   3.487   4.980   2.466  0.3181 -1.7888  1.0766
  160THF    H13 3220   3.605   4.991   2.603 -1.3647 -0.0106  2.0946
  161THF     O1 3221   1.579   3.849   1.872  0.6517 -0.1518 -0.6076
  161THF     C2 3222   1.519   3.737   1.944 -0.4475 -0.4431 -0.5587
  161THF     C3 3223   1.712   3.857   1.936  0.2054  0.2816  0.5907
  161THF     H4 3224   1.575   3.651   1.909  3.0439  1.3464  0.2519
  161THF     H5 3225   1.414   3.738   1.912 -0.3235  0.4112 -0.9865
  161THF     H6 3226   1.766   3.768   1.904 -0.7443  0.2078 -0.8895
  161THF     H7 3227   1.777   3.941   1.912 -0.7934  0.7353 -0.5834
  161THF     C8 3228   1.680   3.854   2.084 -0.1458 -0.2635  0.4568
  161THF     C9 3229   1.550   3.770   2.091 -0.2813  0.1854  1.1951
  161THF    H10 3230   1.675   3.953   2.127  4.0928  0.2734  0.1356
  161THF    H11 3231   1.765   3.801   2.128 -0.7637 -1.9151 -0.2240
  161THF    H12 3232   1.550   3.689   2.163 -0.6594 -0.3148  0.6339
  161THF    H13 3233   1.476   3.838   2.133  0.2640  1.1032  0.7218
  162THF     O1 3234   3.894   3.978   4.257 -0.2289  0.0066 -0.1420
  162THF     C2 3235   3.759   3.961   4.311 -0.2356 -0.3163 -0.8454
  162THF     C3 3236   3.963   4.067   4.345 -0.5002 -0.7317 -0.3655
  162THF     H4 3237   3.728   3.857   4.303  0.3296 -0.7672  1.8815
  162THF     H5 3238   3.688   4.036   4.277  0.6813  1.2492  0.5293
  162THF     H6 3239   4.068   4.041   4.360 -0.5829 -0.7340  0.2489
  162THF     H7 3240   3.976   4.167   4.304 -0.0766  0.3285  2.1650
  162THF     C8 3241   3.889   4.083   4.473  0.3308 -0.1575 -0.5052
  162THF     C9 3242   3.778   3.978   4.462 -0.0318  0.5370  0.8991
  162THF    H10 3243   3.836   4.178   4.483  0.6769 -0.1220  1.5237
  162THF    H11 3244   3.948   4.060   4.562 -0.9563 -0.4124  0.3159
  162THF    H12 3245   3.820   3.884   4.497  2.5478  0.7855 -1.1851
  162THF    H13 3246   3.678   3.991   4.503 -0.8516 -0.0132 -0.8254
  163THF     O1 3247   3.121   1.597   3.742 -0.6215  0.1042 -0.7414
  163THF     C2 3248   3.146   1.645   3.605  0.2682 -0.2863  0.2725
  163THF     C3 3249   3.207   1.684   3.816  0.3121  1.6275 -0.1741
  163THF     H4 3250   3.092   1.738   3.588  1.7405  0.4089 -0.8935
  163THF     H5 3251   3.114   1.575   3.528  1.8862 -0.2675 -0.4533
  163THF     H6 3252   3.159   1.779   3.838 -0.3848  0.6048  3.4540
  163THF     H7 3253   3.221   1.630   3.910 -1.4688 -1.2333 -1.3904
  163THF     C8 3254   3.336   1.696   3.739 -0.3517 -0.4074  0.2340
  163THF     C9 3255   3.301   1.675   3.595 -0.1107 -0.0319  0.2177
  163THF    H10 3256   3.414   1.623   3.758  1.2448  0.7454 -1.4498
  163THF    H11 3257   3.379   1.795   3.750  0.6342 -0.6513 -1.1944
  163THF    H12 3258   3.330   1.761   3.534 -0.7320  0.9458  1.2654
  163THF    H13 3259   3.344   1.582   3.557 -0.4161 -0.2872  0.4983
  164THF     O1 3260   3.983   2.194   4.488  0.4348 -0.5747  0.7137
  164THF     C2 3261   3.948   2.296   4.394  0.4571 -0.3713  0.6836
  164THF     C3 3262   3.884   2.088   4.480 -0.3974 -0.9177 -0.2545
  164THF     H4 3263   3.972   2.270   4.291  2.2360  0.5456  0.8161
  164THF     H5 3264   4.011   2.382   4.416 -1.2590  1.5577 -1.4597
  164THF     H6 3265   3.898   2.019   4.397  0.5582 -1.4752  0.3510
  164THF     H7 3266   3.891   2.022   4.567 -2.7502  0.6033  1.1964
  164THF     C8 3267   3.754   2.169   4.477  0.4504  0.0518  0.2926
  164THF     C9 3268   3.795   2.306   4.417  0.0676  0.1419  0.3111
  164THF    H10 3269   3.722   2.178   4.581 -1.8885 -2.0674 -0.1327
  164THF    H11 3270   3.672   2.125   4.421 -0.6106  2.4166 -0.1204
  164THF    H12 3271   3.742   2.326   4.323 -1.2950 -0.9859  0.7972
  164THF    H13 3272   3.768   2.391   4.479  1.1817 -0.3995  1.5760
  165THF     O1 3273   1.548   4.863   5.329  0.0544 -0.2726  0.4919
  165THF     C2 3274   1.639   4.941   5.261  0.4169 -0.4265  0.2566
  165THF     C3 3275   1.407   4.892   5.306  0.4376 -0.3461 -0.3172
  165THF     H4 3276   1.733   4.886   5.256 -0.3324 -1.8246  0.7956
  165THF     H5 3277   1.648   5.033   5.318 -2.2743 -0.1804  0.4319
  165THF     H6 3278   1.340   4.807   5.318 -1.6992  1.4178  1.0666
  165THF     H7 3279   1.384   4.970   5.378  2.0512  0.6668 -0.8469
  165THF     C8 3280   1.418   4.962   5.171  0.1268 -0.1769  0.1372
  165THF     C9 3281   1.566   4.953   5.132  0.9022 -0.4037 -0.3911
  165THF    H10 3282   1.379   5.063   5.183 -1.1866 -0.7251  0.6324
  165THF    H11 3283   1.350   4.912   5.102  1.0806 -0.4181 -0.6462
  165THF    H12 3284   1.577   4.870   5.063  1.0495  1.0775 -2.2420
  165THF    H13 3285   1.596   5.041   5.074 -0.6953 -0.5098 -1.4201
  166THF     O1 3286   1.911   2.423   2.024  0.4212  0.2864  0.6954
  166THF     C2 3287   2.012   2.357   1.958  0.2541  0.1556  0.4872
  166THF     C3 3288   1.857   2.511   1.933 -0.0673 -0.1857 -0.2318
  166THF     H4 3289   2.048   2.269   2.013 -0.3982 -1.0032 -0.8882
  166THF     H5 3290   2.089   2.434   1.948  0.3620  0.2943  2.0852
  166THF     H6 3291   1.769   2.566   1.967 -0.4786 -0.0584 -1.4452
  166THF     H7 3292   1.929   2.583   1.894  1.3081 -2.3621 -1.9104
  166THF     C8 3293   1.833   2.418   1.815  0.7650 -0.4122  0.4095
  166THF     C9 3294   1.941   2.316   1.831 -0.1327  0.3498 -0.0564
  166THF    H10 3295   1.840   2.449   1.710  1.3924  0.0750  0.5916
  166THF    H11 3296   1.731   2.386   1.832  0.7236  0.5592  2.1720
  166THF    H12 3297   1.901   2.215   1.837 -0.1012  0.3932  0.9851
  166THF    H13 3298   2.016   2.303   1.753 -1.6472 -1.7490 -1.2994
  167THF     O1 3299   5.395   0.646   2.285  0.0088  0.1221 -0.2581
  167THF     C2 3300   5.330   0.591   2.172 -0.1590  0.2674  0.8648
  167THF     C3 3301   5.316   0.643   2.401  0.5829  0.3420 -0.5916
  167THF     H4 3302   5.320   0.484   2.190 -2.7196  0.2524 -0.1334
  167THF     H5 3303   5.367   0.623   2.075 -0.7748  0.5595  0.7203
  167THF     H6 3304   5.309   0.537   2.427  0.6037  0.6063  0.5277
  167THF     H7 3305   5.351   0.689   2.493 -1.0335  0.2333  0.1056
  167THF     C8 3306   5.184   0.690   2.346  0.1035 -0.7723  0.1336
  167THF     C9 3307   5.194   0.669   2.197 -0.1357 -0.3530 -0.4780
  167THF    H10 3308   5.167   0.796   2.363  1.4767 -0.0335 -2.5541
  167THF    H11 3309   5.107   0.626   2.390  0.0069  0.2496  1.4975
  167THF    H12 3310   5.109   0.626   2.143  0.3326  0.4489 -1.9016
  167THF    H13 3311   5.212   0.762   2.144 -1.3299  1.1751  1.6413
  168THF     O1 3312   2.879   0.181   3.736  0.3039 -0.0638 -0.1856
  168THF     C2 3313   2.803   0.299   3.756 -0.5047  0.0956  0.5841
  168THF     C3 3314   2.994   0.201   3.807  0.1864  0.2528 -0.3173
  168THF     H4 3315   2.705   0.285   3.711  0.3035 -0.1908 -1.1659
  168THF     H5 3316   2.860   0.383   3.716  0.5013 -0.3404  1.0700
  168THF     H6 3317   3.067   0.121   3.811 -0.3230 -0.2794 -1.2498
  168THF     H7 3318   3.054   0.290   3.787  0.0472  0.6026  0.7482
  168THF     C8 3319   2.932   0.231   3.945  0.7662  0.2819 -0.4275
  168THF     C9 3320   2.796   0.296   3.908 -0.2586  0.5868 -0.1731
  168THF    H10 3321   2.993   0.305   3.997  1.1401  0.9153 -1.7268
  168THF    H11 3322   2.919   0.145   4.011  0.0459 -1.6258 -2.9068
  168THF    H12 3323   2.720   0.226   3.942  0.5663  0.2137  0.9657
  168THF    H13 3324   2.773   0.397   3.942  2.0350  1.8834 -2.1647
  169THF     O1 3325   4.935   2.982   2.816  0.2654 -0.3523 -0.2953
  169THF     C2 3326   5.031   2.994   2.921 -0.6277 -0.2651  0.2091
  169THF     C3 3327   4.873   3.109   2.801 -0.6121  0.1630  0.2961
  169THF     H4 3328   5.098   2.908   2.920 -0.8973 -0.4930 -1.7495
  169THF     H5 3329   4.984   3.006   3.019  0.1217 -0.9861  0.6743
  169THF     H6 3330   4.834   3.114   2.699 -0.4675  2.9531  0.2978
  169THF     H7 3331   4.784   3.123   2.864 -0.3941 -1.3932  0.9983
  169THF     C8 3332   4.986   3.203   2.823 -0.1858 -0.1071  0.0418
  169THF     C9 3333   5.098   3.123   2.877 -0.6746  0.7256  0.3165
  169THF    H10 3334   4.955   3.289   2.882  0.2201 -0.5930  0.9917
  169THF    H11 3335   5.021   3.242   2.727  1.3958  0.9139  0.9980
  169THF    H12 3336   5.169   3.105   2.797 -0.0404  0.8845  0.8341
  169THF    H13 3337   5.152   3.175   2.956 -1.1446  1.2960  0.2747
  170THF     O1 3338   4.986   4.071   4.106 -0.4940  0.1153 -0.3468
  170THF     C2 3339   5.055   4.047   3.983  0.0727 -0.6054  0.3747
  170THF     C3 3340   5.052   3.984   4.202  0.0787 -0.7196  0.4539
  170THF     H4 3341   5.054   4.141   3.929 -1.0098 -0.8994 -0.1401
  170THF     H5 3342   4.994   3.973   3.931 -2.6472  1.8281 -0.1813
  170THF     H6 3343   5.041   4.006   4.308  0.3382 -1.3082  0.6080
  170THF     H7 3344   5.013   3.883   4.189 -0.1553 -0.4564 -1.1455
  170THF     C8 3345   5.201   3.975   4.160  1.0209 -0.6182 -0.9546
  170THF     C9 3346   5.202   4.004   4.013 -0.1881  0.0004  0.4071
  170THF    H10 3347   5.242   3.880   4.195  0.3459 -0.5380  0.1359
  170THF    H11 3348   5.256   4.057   4.208  0.0965 -0.4773 -0.0830
  170THF    H12 3349   5.281   4.077   3.995 -0.0502  0.0211  1.0787
  170THF    H13 3350   5.227   3.917   3.951  0.1411 -2.0831  3.2878
  171THF     O1 3351   1.651   0.907   0.600 -0.0400  0.2344 -0.2199
  171THF     C2 3352   1.574   1.003   0.676 -0.4948  0.0682 -0.3166
  171THF     C3 3353   1.620   0.932   0.460 -0.0407  0.1023 -0.1351
  171THF     H4 3354   1.623   1.011   0.772 -0.9814  2.0355 -0.1955
  171THF     H5 3355   1.475   0.957   0.669 -0.7317  0.6423 -0.7992
  171THF     H6 3356   1.703   0.890   0.403  1.0011  0.7356  0.8814
  171THF     H7 3357   1.525   0.884   0.433  0.5949 -0.3013 -1.7582
  171THF     C8 3358   1.608   1.082   0.456  0.0647  0.3136 -0.1121
  171THF     C9 3359   1.583   1.126   0.593  0.5136  0.5612 -0.1150
  171THF    H10 3360   1.542   1.121   0.378 -0.5409  1.4107  0.9033
  171THF    H11 3361   1.706   1.125   0.439  0.0055  1.5615  2.2173
  171THF    H12 3362   1.661   1.188   0.637 -0.5524 -0.4319  3.5036
  171THF    H13 3363   1.493   1.184   0.576 -0.3024 -0.7802 -0.5228
  172THF     O1 3364   2.453   1.211   2.451  0.2208  0.4918  0.2340
  172THF     C2 3365   2.441   1.105   2.352 -0.1592 -0.2699 -0.3096
  172THF     C3 3366   2.415   1.332   2.387 -0.4918 -0.3586 -0.0265
  172THF     H4 3367   2.336   1.081   2.333 -0.4110  1.7066 -1.7354
  172THF     H5 3368   2.502   1.017   2.372 -0.8386 -0.9211 -1.0470
  172THF     H6 3369   2.306   1.334   2.390 -0.4819 -0.4015  0.6662
  172THF     H7 3370   2.442   1.427   2.434 -1.2200  0.0660 -0.4514
  172THF     C8 3371   2.452   1.322   2.232 -0.7688 -0.5094  0.0183
  172THF     C9 3372   2.482   1.172   2.219  0.0954 -0.6480 -0.8284
  172THF    H10 3373   2.536   1.389   2.216 -0.3836 -1.1118 -0.4781
  172THF    H11 3374   2.374   1.353   2.162 -0.4643  0.3354  0.0363
  172THF    H12 3375   2.429   1.134   2.132 -0.0879  1.7350 -1.8392
  172THF    H13 3376   2.589   1.161   2.206  0.6086  1.4873  0.9618
  173THF     O1 3377   0.262   2.168   4.936 -0.1571  0.4913 -0.4139
  173THF     C2 3378   0.371   2.137   4.865 -0.1667  0.0548 -0.0471
  173THF     C3 3379   0.149   2.093   4.889 -0.2278 -0.0947 -0.1620
  173THF     H4 3380   0.444   2.119   4.944 -1.3969 -1.8006  0.7229
  173THF     H5 3381   0.397   2.234   4.823 -0.4130  0.6104  1.0361
  173THF     H6 3382   0.084   2.051   4.966  0.7641  0.0190  0.7702
  173THF     H7 3383   0.094   2.162   4.825  2.0168 -0.0368 -2.1621
  173THF     C8 3384   0.208   1.981   4.805  0.0696  1.2137  0.0066
  173THF     C9 3385   0.341   2.026   4.760  0.7071 -0.8917  0.1616
  173THF    H10 3386   0.144   1.949   4.723  1.0495  2.0962 -1.1440
  173THF    H11 3387   0.223   1.894   4.869  0.9598  0.9632 -0.5196
  173THF    H12 3388   0.417   1.949   4.772 -0.0086 -1.8546 -1.1467
  173THF    H13 3389   0.345   2.069   4.659 -0.2043  0.4015  0.6423
  174THF     O1 3390   4.128   0.221   4.386  0.1548 -0.0157 -0.0077
  174THF     C2 3391   4.095   0.359   4.397 -0.2052  0.0821  0.3046
  174THF     C3 3392   4.269   0.217   4.419 -0.1612  0.2565 -0.1598
  174THF     H4 3393   3.989   0.384   4.396  0.0604  1.2983 -0.2482
  174THF     H5 3394   4.136   0.418   4.315  0.5935 -1.5229 -0.4959
  174THF     H6 3395   4.301   0.115   4.441  3.5090  1.1994 -0.4184
  174THF     H7 3396   4.333   0.254   4.338  2.1122 -2.7278  0.0922
  174THF     C8 3397   4.280   0.310   4.534 -0.3362 -0.4702 -0.1012
  174THF     C9 3398   4.156   0.399   4.533 -0.6343 -0.2877  0.4895
  174THF    H10 3399   4.373   0.367   4.541 -0.8738  0.4187  0.0403
  174THF    H11 3400   4.263   0.255   4.626 -1.2938  1.2684  0.8231
  174THF    H12 3401   4.091   0.384   4.619 -0.9778 -0.5930  0.1805
  174THF    H13 3402   4.191   0.502   4.544  1.8721 -1.2106  1.9681
  175THF     O1 3403   2.738   1.497   4.686 -0.6327  0.1602  0.4483
  175THF     C2 3404   2.809   1.454   4.793 -0.3806 -0.4501 -1.2655
  175THF     C3 3405   2.776   1.397   4.587  0.1093  0.6058  0.0983
  175THF     H4 3406   2.758   1.368   4.836  0.7842  0.0477  1.2440
  175THF     H5 3407   2.808   1.530   4.870 -0.0959 -0.7450 -0.9673
  175THF     H6 3408   2.747   1.294   4.605  0.9631  0.1540 -0.9851
  175THF     H7 3409   2.748   1.420   4.484 -2.6244  0.2551  0.6881
  175THF     C8 3410   2.927   1.381   4.592 -0.0691  0.5361 -0.3675
  175THF     C9 3411   2.946   1.418   4.738 -0.1366 -0.6560  0.8789
  175THF    H10 3412   2.979   1.443   4.520 -0.5851  1.0144 -0.3409
  175THF    H11 3413   2.967   1.280   4.588  1.0887  0.9996 -0.6629
  175THF    H12 3414   2.992   1.337   4.795 -0.9285 -1.6082  0.2147
  175THF    H13 3415   3.003   1.509   4.749 -0.7890 -0.0749 -0.2921
  176THF     O1 3416   3.196   2.726   0.400  0.1676 -0.4495 -0.1719
  176THF     C2 3417   3.143   2.858   0.409 -0.3850  0.0458  0.0312
  176THF     C3 3418   3.139   2.677   0.283  0.7150  1.0217 -0.0852
  176THF     H4 3419   3.181   2.931   0.338 -2.5502  0.1997 -1.0385
  176THF     H5 3420   3.161   2.903   0.506 -0.7542  1.2077 -0.4195
  176THF     H6 3421   3.195   2.716   0.198  1.1003 -0.0975 -0.3605
  176THF     H7 3422   3.140   2.568   0.273  0.0085  1.0980 -1.2046
  176THF     C8 3423   2.989   2.724   0.292  0.1085 -0.0959  0.4920
  176THF     C9 3424   2.995   2.828   0.403 -1.0923  0.3234 -1.2976
  176THF    H10 3425   2.917   2.643   0.307 -1.0309  0.6257 -0.8324
  176THF    H11 3426   2.968   2.768   0.195  1.7640 -0.7277 -0.2003
  176THF    H12 3427   2.938   2.920   0.387  1.0748  2.0463  0.2464
  176THF    H13 3428   2.966   2.794   0.502  0.1554  3.3459  0.2392
  177THF     O1 3429   3.100   3.371   3.532 -0.2839 -0.1104 -0.0463
  177THF     C2 3430   2.989   3.362   3.622  0.0115 -0.5198 -0.1078
  177THF     C3 3431   3.139   3.241   3.503  0.1372 -0.1421  0.0103
  177THF     H4 3432   2.898   3.343   3.566 -0.8092 -1.0928  1.3524
  177THF     H5 3433   2.967   3.441   3.694 -0.8989 -0.8117 -0.0511
  177THF     H6 3434   3.086   3.222   3.409 -0.7331  0.2970  0.3968
  177THF     H7 3435   3.247   3.236   3.499  0.3342  0.5464  2.6192
  177THF     C8 3436   3.087   3.151   3.614  0.6756 -0.4483  0.7529
  177THF     C9 3437   3.008   3.233   3.704  0.0917 -0.7581  0.2372
  177THF    H10 3438   3.168   3.103   3.669  1.7979  0.6758  0.1500
  177THF    H11 3439   3.026   3.069   3.577  1.3854 -0.5148 -0.3108
  177THF    H12 3440   2.914   3.193   3.744  1.0385 -1.8384  1.4641
  177THF    H13 3441   3.075   3.254   3.787  0.4210  0.9623 -0.4254
  178THF     O1 3442   0.560   0.467   4.219 -0.3290 -0.5619  0.1360
  178THF     C2 3443   0.580   0.433   4.355 -0.0820  0.8141  0.1853
  178THF     C3 3444   0.687   0.463   4.147  0.1731 -0.4299  0.0683
  178THF     H4 3445   0.554   0.329   4.374 -0.7206  1.0877  0.8579
  178THF     H5 3446   0.512   0.495   4.413  1.0397  0.1345  2.3275
  178THF     H6 3447   0.697   0.359   4.115 -1.3086 -0.5330 -0.1453
  178THF     H7 3448   0.685   0.513   4.051 -0.8517 -0.5687  0.0030
  178THF     C8 3449   0.797   0.507   4.251 -0.8246  0.2165  0.7871
  178THF     C9 3450   0.728   0.467   4.381 -0.3741  0.4229  0.4610
  178THF    H10 3451   0.817   0.612   4.233 -0.8138  0.1437  0.3660
  178THF    H11 3452   0.891   0.452   4.243 -1.2623 -0.3544 -0.9669
  178THF    H12 3453   0.782   0.390   4.435 -1.9155 -0.9045  0.1760
  178THF    H13 3454   0.729   0.549   4.453  1.7038 -0.7371  1.8493
  179THF     O1 3455   4.277   4.494   2.453 -0.3577 -0.0867  0.2207
  179THF     C2 3456   4.364   4.512   2.563  0.2068  0.0447 -0.1955
  179THF     C3 3457   4.245   4.359   2.462  0.4726  0.6577 -0.6908
  179THF     H4 3458   4.365   4.617   2.592 -1.8166  0.0940 -0.1893
  179THF     H5 3459   4.465   4.480   2.539 -0.1248 -1.6828  0.5286
  179THF     H6 3460   4.157   4.335   2.402  1.4577 -0.7312 -1.6528
  179THF     H7 3461   4.320   4.285   2.434  1.2671  1.2582 -0.2046
  179THF     C8 3462   4.223   4.348   2.615 -0.6856 -0.2913 -0.3950
  179THF     C9 3463   4.320   4.429   2.683  0.6600 -0.1279 -0.6722
  179THF    H10 3464   4.218   4.244   2.648 -1.2754 -0.2383 -0.3149
  179THF    H11 3465   4.126   4.386   2.648 -0.8617 -1.3395  0.3352
  179THF    H12 3466   4.269   4.486   2.760  2.0213  1.1920 -0.6942
  179THF    H13 3467   4.395   4.364   2.728  0.1897 -0.5941 -0.5523
  180THF     O1 3468   1.638   2.853   0.864 -0.1710  0.4040 -0.2433
  180THF     C2 3469   1.540   2.791   0.940 -0.4080  0.2281  0.3384
  180THF     C3 3470   1.629   2.994   0.896  0.1010  0.1199 -0.0561
  180THF     H4 3471   1.589   2.789   1.038  0.4745  0.1428 -0.0876
  180THF     H5 3472   1.514   2.693   0.899 -0.4742  0.8383 -1.1413
  180THF     H6 3473   1.675   3.011   0.994  1.3272 -2.4428 -0.1033
  180THF     H7 3474   1.663   3.066   0.822  0.8511 -0.6437 -0.4635
  180THF     C8 3475   1.475   3.013   0.920 -0.0354 -0.0382 -0.0777
  180THF     C9 3476   1.417   2.879   0.943  0.3449 -0.3585  0.2939
  180THF    H10 3477   1.432   3.046   0.825 -2.1747 -1.5977  0.2697
  180THF    H11 3478   1.459   3.080   1.004  0.6663 -0.7292  0.6232
  180THF    H12 3479   1.382   2.860   1.044  1.5347  1.5362  1.1273
  180THF    H13 3480   1.344   2.852   0.867  0.7428  1.0979 -0.6587
  181THF     O1 3481   3.004   4.274   1.918 -1.0520  0.2729 -0.4267
  181THF     C2 3482   2.880   4.337   1.942  0.4259 -0.2571  0.0951
  181THF     C3 3483   3.048   4.316   1.790 -0.1291  0.0161  0.4649
  181THF     H4 3484   2.870   4.362   2.048  1.7338  2.8505 -0.3990
  181THF     H5 3485   2.802   4.265   1.918 -0.2047  0.2055  0.7082
  181THF     H6 3486   3.132   4.380   1.817 -0.4381  0.3475  0.6482
  181THF     H7 3487   3.091   4.243   1.721 -0.6429  0.0317  0.1201
  181THF     C8 3488   2.942   4.406   1.721 -0.3762 -0.1225  0.1882
  181THF     C9 3489   2.871   4.453   1.840 -0.4617 -0.2541  0.4655
  181THF    H10 3490   2.871   4.351   1.659 -1.3591  2.5129 -1.1846
  181THF    H11 3491   2.976   4.486   1.655 -0.8887 -0.2564 -0.2439
  181THF    H12 3492   2.915   4.540   1.890 -0.9145 -1.3376  2.9345
  181THF    H13 3493   2.770   4.483   1.813 -0.3313  0.4943  0.7592
  182THF     O1 3494   1.863   5.486   3.545  0.3067 -0.1676  0.4144
  182THF     C2 3495   1.828   5.430   3.673 -0.0518  0.6967 -0.5884
  182THF     C3 3496   1.910   5.386   3.449  0.4443  0.2837  0.0809
  182THF     H4 3497   1.720   5.432   3.692  0.0970 -1.6852  0.8861
  182THF     H5 3498   1.866   5.493   3.753 -0.0765  1.2679 -1.0184
  182THF     H6 3499   1.856   5.393   3.355 -2.4964 -2.6208  1.3772
  182THF     H7 3500   2.011   5.426   3.438 -0.7206  3.4795 -0.2586
  182THF     C8 3501   1.893   5.260   3.532  0.4253 -0.2967  0.2360
  182THF     C9 3502   1.897   5.295   3.676 -0.3479  0.3106 -0.6447
  182THF    H10 3503   1.972   5.196   3.492 -1.9766  0.0239 -6.1349
  182THF    H11 3504   1.793   5.224   3.509  0.1903 -0.3124  1.2301
  182THF    H12 3505   1.840   5.220   3.732  0.8260  0.3060  0.6096
  182THF    H13 3506   1.998   5.315   3.711 -0.7170  0.8174  0.1613
  183THF     O1 3507   0.996   1.885   3.742  0.4288  0.2845 -0.1968
  183THF     C2 3508   1.120   1.962   3.756 -0.5603  0.1204 -0.2272
  183THF     C3 3509   1.018   1.759   3.813  0.0366  0.2940  0.3249
  183THF     H4 3510   1.141   2.016   3.848  1.5235 -0.5629 -0.2506
  183THF     H5 3511   1.133   2.020   3.665 -0.4115  0.7968  0.2177
  183THF     H6 3512   1.001   1.763   3.920  0.5541 -0.6929  0.4487
  183THF     H7 3513   0.947   1.682   3.783 -0.0215  0.1104  0.9389
  183THF     C8 3514   1.167   1.725   3.796  0.0630 -0.5579  0.2333
  183THF     C9 3515   1.236   1.855   3.754  0.2054 -0.0200 -0.5776
  183THF    H10 3516   1.177   1.647   3.720  2.6250 -0.2033  0.1067
  183THF    H11 3517   1.209   1.688   3.889 -0.9001  0.2487  1.0157
  183THF    H12 3518   1.307   1.881   3.832  0.0110 -1.4385  0.1079
  183THF    H13 3519   1.280   1.841   3.656 -2.7393 -0.4453 -1.9517
  184THF     O1 3520   3.394   1.426   0.119  0.4808  0.1220  0.2839
  184THF     C2 3521   3.272   1.371   0.079 -0.5725  0.0829  0.0666
  184THF     C3 3522   3.372   1.544   0.193  0.2338 -0.2096  0.6091
  184THF     H4 3523   3.274   1.268   0.043  0.5243  0.2754 -0.4573
  184THF     H5 3524   3.242   1.427  -0.009  0.1516 -0.4081 -0.4936
  184THF     H6 3525   3.459   1.551   0.259 -0.4180 -2.7057  1.8852
  184THF     H7 3526   3.370   1.634   0.133 -1.3019 -1.0243 -0.6241
  184THF     C8 3527   3.236   1.526   0.258 -0.8271  0.2075 -0.1699
  184THF     C9 3528   3.180   1.399   0.197  0.2128  0.5978  0.1128
  184THF    H10 3529   3.174   1.612   0.229  0.1211  1.3006  0.9480
  184THF    H11 3530   3.234   1.518   0.366  0.0502 -0.5815 -0.2016
  184THF    H12 3531   3.175   1.317   0.267 -0.0035  1.4350  1.1000
  184THF    H13 3532   3.079   1.431   0.169  0.3620  1.7322  0.8282
  185THF     O1 3533   1.360   1.597   0.005  0.3209  0.1967  0.0916
  185THF     C2 3534   1.259   1.549  -0.079 -0.1984  0.0918  0.3079
  185THF     C3 3535   1.307   1.656   0.123  0.2724 -0.8312  0.3479
  185THF     H4 3536   1.243   1.444  -0.055  0.5568  0.0762  0.7635
  185THF     H5 3537   1.290   1.568  -0.181 -0.6687  2.7602  0.5783
  185THF     H6 3538   1.351   1.608   0.211  0.4531  0.2970  0.8918
  185THF     H7 3539   1.345   1.758   0.116 -0.5893 -0.4872  0.5555
  185THF     C8 3540   1.156   1.669   0.103 -0.0413  0.0979  0.4657
  185THF     C9 3541   1.135   1.632  -0.042 -0.6898  0.0280 -0.0813
  185THF    H10 3542   1.129   1.772   0.126  1.5547  0.8380 -0.8368
  185THF    H11 3543   1.104   1.602   0.172 -0.7623 -0.5505 -0.6751
  185THF    H12 3544   1.045   1.572  -0.058  0.1221 -1.4972  0.8526
  185THF    H13 3545   1.121   1.724  -0.100 -0.0313  0.6932  0.7957
  186THF     O1 3546   1.822   0.019   1.004  0.7623  0.5405 -0.1951
  186THF     C2 3547   1.741  -0.042   0.902  0.0271 -0.0501  0.2853
  186THF     C3 3548   1.929  -0.067   1.034 -0.6295 -0.0684 -0.1115
  186THF     H4 3549   1.735   0.031   0.822 -4.5179 -0.4874 -0.0320
  186THF     H5 3550   1.641  -0.056   0.943  0.0291  0.4604  0.4798
  186THF     H6 3551   2.017  -0.022   1.080 -1.4760 -0.5311  2.0863
  186THF     H7 3552   1.902  -0.141   1.109  3.1493 -0.8250  0.6721
  186THF     C8 3553   1.953  -0.145   0.911  0.0673 -0.3818 -0.0558
  186THF     C9 3554   1.811  -0.175   0.867  0.6406 -0.0099  0.3679
  186THF    H10 3555   2.008  -0.239   0.916  1.1460  0.1056 -1.8335
  186THF    H11 3556   2.016  -0.091   0.841  1.2199 -1.2003  0.3209
  186THF    H12 3557   1.808  -0.182   0.759  2.3878  0.2025  0.2698
  186THF    H13 3558   1.765  -0.263   0.912  0.1495 -0.2408 -0.5756
  187THF     O1 3559   4.123   5.276   2.065  0.4992  0.2603  0.0873
  187THF     C2 3560   4.066   5.177   2.147 -0.5916 -0.1067  0.2749
  187THF     C3 3561   4.205   5.212   1.971  0.0802 -0.0522  0.6594
  187THF     H4 3562   3.987   5.132   2.086  0.8000 -0.3570 -1.3969
  187THF     H5 3563   4.023   5.226   2.235  0.2323  1.6863 -0.2869
  187THF     H6 3564   4.155   5.161   1.889 -1.6065 -1.1551  2.2823
  187THF     H7 3565   4.274   5.279   1.920 -1.8535  2.4899  1.2084
  187THF     C8 3566   4.278   5.105   2.051  0.0855 -0.0453  0.2736
  187THF     C9 3567   4.184   5.088   2.168 -0.1952 -0.2772 -0.5819
  187THF    H10 3568   4.372   5.154   2.080 -0.4964  1.4609 -0.2649
  187THF    H11 3569   4.302   5.017   1.991  1.6803  0.4773  0.0913
  187THF    H12 3570   4.153   4.985   2.188  0.2430 -0.1996  0.6366
  187THF    H13 3571   4.246   5.125   2.250 -1.3901 -0.4651  0.4278
  188THF     O1 3572   3.670   2.941   4.020  0.1915  0.4032 -0.2581
  188THF     C2 3573   3.551   2.868   4.043 -0.3760  0.4279  0.5634
  188THF     C3 3574   3.663   2.990   3.890  0.1707 -0.3760 -0.5906
  188THF     H4 3575   3.541   2.871   4.152  0.5567  0.4613  0.6532
  188THF     H5 3576   3.559   2.762   4.019 -0.7751  0.8716 -1.6896
  188THF     H6 3577   3.725   3.078   3.877 -0.7705  0.2086 -1.1795
  188THF     H7 3578   3.691   2.904   3.828 -0.6100 -1.7600  0.8936
  188THF     C8 3579   3.515   3.020   3.874 -0.1778  0.0244 -0.4208
  188THF     C9 3580   3.439   2.942   3.978 -0.0081  0.2560  0.5432
  188THF    H10 3581   3.504   2.998   3.768 -0.6168 -1.5455 -0.0706
  188THF    H11 3582   3.497   3.127   3.885 -2.1249 -0.0409 -2.3346
  188THF    H12 3583   3.387   3.009   4.046 -1.6152  2.4000 -2.5081
  188THF    H13 3584   3.364   2.879   3.929 -1.2203  0.7867  1.6771
  189THF     O1 3585   1.056   3.250   0.050  0.0907 -0.4438  0.2514
  189THF     C2 3586   1.121   3.129   0.021 -0.0679 -0.8328 -0.0722
  189THF     C3 3587   0.964   3.224   0.152  0.6115  0.5278 -0.0748
  189THF     H4 3588   1.226   3.147  -0.003  0.3717 -0.8911  1.6525
  189THF     H5 3589   1.072   3.061  -0.048  2.6674 -3.2325  0.1705
  189THF     H6 3590   0.939   3.318   0.203 -1.4792  0.0079 -0.0550
  189THF     H7 3591   0.878   3.166   0.120 -1.7321  3.3560  0.6253
  189THF     C8 3592   1.046   3.139   0.246  0.4118  0.2089  0.2562
  189THF     C9 3593   1.126   3.049   0.146  0.5609  0.5216 -0.3828
  189THF    H10 3594   0.993   3.089   0.328  0.0857  0.3544  0.1348
  189THF    H11 3595   1.117   3.197   0.305  0.6089  0.0925  0.1338
  189THF    H12 3596   1.226   3.028   0.185  0.3611 -0.2686 -0.2833
  189THF    H13 3597   1.083   2.950   0.134 -0.4365  0.6956  1.3436
  190THF     O1 3598   1.656   4.234   1.452 -0.0583  0.1548 -0.2962
  190THF     C2 3599   1.588   4.112   1.408  0.1145 -0.0947 -0.0556
  190THF     C3 3600   1.547   4.327   1.491 -0.1194  0.4528  0.1259
  190THF     H4 3601   1.588   4.045   1.495 -1.2857  2.5532  2.1490
  190THF     H5 3602   1.643   4.062   1.328  1.6278 -1.1887  1.5785
  190THF     H6 3603   1.497   4.296   1.582 -1.5612 -0.5427 -0.9588
  190THF     H7 3604   1.585   4.429   1.505  1.0980  0.1696 -0.8952
  190THF     C8 3605   1.435   4.299   1.386  0.0133  0.0385 -0.6233
  190THF     C9 3606   1.447   4.153   1.367  0.6994 -0.1037 -0.4811
  190THF    H10 3607   1.456   4.341   1.287 -1.7767  0.7710 -0.7203
  190THF    H11 3608   1.336   4.330   1.420 -0.0109  1.9177 -2.2218
  190THF    H12 3609   1.370   4.099   1.421 -1.7213  2.5627 -1.0293
  190THF    H13 3610   1.423   4.122   1.265  0.7950 -0.6742 -0.3313
  191THF     O1 3611   4.844   0.160   5.028 -0.1738 -0.3130  0.0045
  191THF     C2 3612   4.964   0.088   4.996 -0.1750 -0.2847 -0.6050
  191THF     C3 3613   4.846   0.236   5.146  0.0357 -0.2826  0.0483
  191THF     H4 3614   5.008   0.114   4.900 -1.5639 -0.0881 -1.2156
  191THF     H5 3615   4.948  -0.020   4.990  0.0979 -0.2883 -1.2943
  191THF     H6 3616   4.845   0.343   5.129 -2.6436 -0.2315  0.0349
  191THF     H7 3617   4.750   0.234   5.198  0.0734  1.8348  0.2991
  191THF     C8 3618   4.967   0.173   5.221 -0.4585 -0.3567  0.4395
  191THF     C9 3619   5.062   0.130   5.111  0.6829  0.0329  0.9367
  191THF    H10 3620   4.932   0.081   5.267 -0.8800 -1.8992 -2.6577
  191THF    H11 3621   5.017   0.246   5.285  1.3970  0.4755 -1.7969
  191THF    H12 3622   5.125   0.214   5.081 -0.7172  0.8333  0.1663
  191THF    H13 3623   5.128   0.046   5.132  0.9668  0.3200  1.2123
  192THF     O1 3624   1.619   5.127   0.638  0.6659  0.0140  0.1638
  192THF     C2 3625   1.682   5.054   0.527 -0.9139 -0.3783 -0.6363
  192THF     C3 3626   1.538   5.032   0.710 -0.4122 -0.3895  0.6876
  192THF     H4 3627   1.789   5.037   0.538 -1.0564 -1.2180 -0.4783
  192THF     H5 3628   1.675   5.120   0.441  0.4273 -1.2355 -1.4435
  192THF     H6 3629   1.560   5.039   0.816 -3.0662 -0.0990  1.2785
  192THF     H7 3630   1.433   5.058   0.701 -0.5834 -1.2843 -0.0759
  192THF     C8 3631   1.573   4.892   0.665  0.4549 -0.4072 -0.0353
  192THF     C9 3632   1.617   4.918   0.521 -0.0003 -0.2927  0.3170
  192THF    H10 3633   1.493   4.819   0.667  0.0807  0.0122  0.3868
  192THF    H11 3634   1.660   4.852   0.716  0.6194  0.0340  0.0360
  192THF    H12 3635   1.681   4.845   0.473 -0.6010 -0.4699 -0.2255
  192THF    H13 3636   1.536   4.945   0.453  0.7047 -0.2103 -0.5051
  193THF     O1 3637   0.166   3.950   1.093  0.1439  0.3786  0.4262
  193THF     C2 3638   0.285   4.005   1.144  0.3933  0.6545 -0.1423
  193THF     C3 3639   0.127   4.024   0.982 -0.6786  0.7450 -0.1184
  193THF     H4 3640   0.357   3.946   1.087 -2.3408 -1.8462 -1.2205
  193THF     H5 3641   0.296   3.982   1.250 -1.5600 -1.1800 -0.2784
  193THF     H6 3642   0.177   3.997   0.889 -3.3597  0.1373 -1.4830
  193THF     H7 3643   0.019   4.032   0.970 -1.2164  0.4591  3.4469
  193THF     C8 3644   0.159   4.161   1.029 -0.4387 -0.4497 -0.3330
  193THF     C9 3645   0.281   4.146   1.116  0.2591 -0.3141  0.2976
  193THF    H10 3646   0.085   4.202   1.098  1.2370 -0.3813  1.5553
  193THF    H11 3647   0.170   4.236   0.951  0.8563 -1.4530 -1.1666
  193THF    H12 3648   0.372   4.182   1.068  0.7429 -0.2962  1.2193
  193THF    H13 3649   0.276   4.200   1.211 -1.9046 -0.0468  0.0908
  194THF     O1 3650   2.466   2.643   0.839  0.2820  0.5067  0.3911
  194THF     C2 3651   2.494   2.572   0.722 -0.6503  0.2197 -0.3125
  194THF     C3 3652   2.582   2.715   0.874  1.0343 -0.5983 -0.6324
  194THF     H4 3653   2.406   2.532   0.671  0.7797 -1.2697 -1.7436
  194THF     H5 3654   2.566   2.493   0.746 -1.1918 -0.1282  0.1898
  194THF     H6 3655   2.562   2.774   0.963  2.6254 -0.3644 -0.3928
  194THF     H7 3656   2.658   2.650   0.920 -1.6323 -2.4193  1.5148
  194THF     C8 3657   2.603   2.791   0.751 -0.6703 -0.4570 -0.3957
  194THF     C9 3658   2.575   2.682   0.641 -0.0531 -0.0740  0.0415
  194THF    H10 3659   2.701   2.837   0.739 -2.1772  2.6651 -2.3073
  194THF    H11 3660   2.529   2.871   0.743  0.3043  0.3091 -2.3046
  194THF    H12 3661   2.520   2.716   0.553  0.0707 -1.5241 -0.6099
  194THF    H13 3662   2.670   2.649   0.599  1.5296  2.1044  1.6630
  195THF     O1 3663   0.886   3.009   3.729 -0.1091 -0.1346  0.1451
  195THF     C2 3664   0.769   3.003   3.807  0.2911  0.0318  0.3271
  195THF     C3 3665   0.863   2.941   3.602 -0.2664 -0.2944  0.7738
  195THF     H4 3666   0.760   3.095   3.865  1.8051 -0.5626  1.5582
  195THF     H5 3667   0.787   2.918   3.872  1.3632  1.1487  1.5442
  195THF     H6 3668   0.939   2.976   3.531  0.8333  0.0195  2.0708
  195THF     H7 3669   0.885   2.835   3.612  2.0563  0.0373  0.0087
  195THF     C8 3670   0.720   2.983   3.572 -0.3246 -0.6402  0.5974
  195THF     C9 3671   0.651   2.997   3.711  0.2928 -0.2166  0.3172
  195THF    H10 3672   0.665   2.913   3.509  0.6875 -1.4225  0.5572
  195THF    H11 3673   0.718   3.082   3.525 -1.3323 -0.0685  1.7711
  195THF    H12 3674   0.577   3.077   3.709  2.4698  1.8828 -0.5953
  195THF    H13 3675   0.592   2.906   3.727 -0.0546  0.2399  1.7619
  196THF     O1 3676   2.869   4.767   3.748  0.5605 -0.9131  0.1252
  196THF     C2 3677   2.800   4.685   3.842  0.3475  0.0826  0.3982
  196THF     C3 3678   2.859   4.692   3.627  0.0989  0.2677  0.9828
  196THF     H4 3679   2.692   4.689   3.830 -0.0977 -1.2603  3.1775
  196THF     H5 3680   2.820   4.715   3.945  1.4974 -0.2409  0.2816
  196THF     H6 3681   2.761   4.693   3.580  0.8332 -1.5086 -0.7109
  196THF     H7 3682   2.928   4.725   3.549 -0.4494  1.8567  1.1211
  196THF     C8 3683   2.891   4.551   3.678 -0.2294 -0.2235  0.1009
  196THF     C9 3684   2.868   4.544   3.825 -0.1242  0.3584 -0.4850
  196THF    H10 3685   2.995   4.520   3.670  0.1684  1.2532 -0.7928
  196THF    H11 3686   2.826   4.479   3.629 -0.4864  0.1058 -0.0521
  196THF    H12 3687   2.804   4.459   3.850  0.4018 -0.5469 -2.1139
  196THF    H13 3688   2.962   4.537   3.880  0.1902  0.2234 -1.0331
  197THF     O1 3689   1.174   1.521   3.162  0.1757  0.2220 -0.5003
  197THF     C2 3690   1.240   1.526   3.292  0.6726 -0.5099  0.2074
  197THF     C3 3691   1.039   1.479   3.177 -0.0769 -0.4581  0.4908
  197THF     H4 3692   1.261   1.627   3.328 -1.9956 -0.1635  1.0223
  197THF     H5 3693   1.336   1.476   3.298  1.2186  0.1796 -1.7856
  197THF     H6 3694   0.973   1.561   3.147  0.3701 -0.2674  0.0183
  197THF     H7 3695   1.012   1.387   3.126  0.2650 -0.4760  0.3420
  197THF     C8 3696   1.013   1.455   3.323 -0.2989 -0.0508  0.0808
  197THF     C9 3697   1.149   1.450   3.382 -0.0591 -0.5397 -0.8678
  197THF    H10 3698   0.939   1.374   3.325 -0.8083  0.3502 -1.2544
  197THF    H11 3699   0.962   1.542   3.363 -1.4698 -1.4238  1.7362
  197THF    H12 3700   1.133   1.492   3.481  3.1483 -1.1887  0.0575
  197THF    H13 3701   1.184   1.348   3.399 -0.1216 -0.5741 -0.9453
  198THF     O1 3702   0.409   4.694   0.396  0.2462  0.6810  0.1164
  198THF     C2 3703   0.378   4.744   0.272  0.8824 -0.0354 -0.2701
  198THF     C3 3704   0.283   4.651   0.452 -0.4086 -0.1342 -0.5743
  198THF     H4 3705   0.472   4.759   0.219  0.3013  0.1816 -1.2645
  198THF     H5 3706   0.312   4.831   0.276 -0.1245 -0.8226  1.0446
  198THF     H6 3707   0.299   4.614   0.554 -2.3878  0.3511 -0.0488
  198THF     H7 3708   0.226   4.742   0.466  0.6294  0.2534  1.6161
  198THF     C8 3709   0.230   4.564   0.336 -0.1521  0.0885  0.3187
  198THF     C9 3710   0.291   4.627   0.212 -0.3009 -0.0120  0.2590
  198THF    H10 3711   0.122   4.571   0.335 -0.3394 -2.1484  0.1859
  198THF    H11 3712   0.255   4.458   0.332 -0.5647  0.0240 -1.6040
  198THF    H12 3713   0.358   4.553   0.168 -1.3466 -1.3228  0.7985
  198THF    H13 3714   0.224   4.670   0.138  0.6881  0.3857 -0.4308
  199THF     O1 3715   1.029   0.115   1.588 -0.1047  0.1993  0.4647
  199THF     C2 3716   1.164   0.080   1.554  0.6683  0.3670 -0.3559
  199THF     C3 3717   0.965   0.169   1.471  0.2922  0.3884 -0.0465
  199THF     H4 3718   1.189  -0.016   1.600  2.9973  0.6985 -0.7986
  199THF     H5 3719   1.233   0.160   1.580  0.9270 -0.5204  1.9589
  199THF     H6 3720   0.856   0.170   1.479  0.2646  2.2307 -0.3256
  199THF     H7 3721   0.990   0.275   1.473 -0.0135  0.4560  0.3910
  199THF     C8 3722   1.026   0.103   1.347 -0.1089 -0.6116  0.0668
  199THF     C9 3723   1.162   0.068   1.401  0.3976 -0.3649  0.3401
  199THF    H10 3724   1.041   0.170   1.263  1.3794 -0.4679  0.4222
  199THF    H11 3725   0.970   0.016   1.314 -2.7187  1.1913 -0.6178
  199THF    H12 3726   1.186  -0.036   1.377 -1.7974 -1.1247  1.1961
  199THF    H13 3727   1.230   0.138   1.352  0.9319  0.6047  2.3631
  200THF     O1 3728   0.504   2.995   0.855  0.3434 -0.4635  0.2218
  200THF     C2 3729   0.424   3.036   0.744  0.0077  0.2764  0.0042
  200THF     C3 3730   0.568   2.867   0.826 -0.3716  0.0020 -0.3224
  200THF     H4 3731   0.493   3.077   0.671  1.0970 -0.1691  0.7487
  200THF     H5 3732   0.353   3.114   0.771  0.6944  0.6035  0.9415
  200THF     H6 3733   0.646   2.890   0.754  0.8196  1.1014  1.2572
  200THF     H7 3734   0.602   2.822   0.919  0.1296  0.2575 -0.3835
  200THF     C8 3735   0.453   2.793   0.756  0.2612  0.2931 -0.3277
  200THF     C9 3736   0.355   2.901   0.703  0.1442  0.2337  0.2363
  200THF    H10 3737   0.397   2.731   0.826  0.5711 -0.0160 -0.3517
  200THF    H11 3738   0.487   2.727   0.676 -0.4114  0.4939 -0.7869
  200THF    H12 3739   0.337   2.899   0.595  1.3752 -0.3641  0.0288
  200THF    H13 3740   0.267   2.899   0.766  0.1011 -0.8614  0.1467
  201THF     O1 3741   4.978   0.661   2.700  0.4917 -0.1432  0.0352
  201THF     C2 3742   5.004   0.761   2.795  0.6785 -0.2712 -0.9157
  201THF     C3 3743   4.934   0.547   2.777  0.4604 -0.7857  0.8232
  201THF     H4 3744   5.010   0.861   2.754  3.8258  0.8915  1.8648
  201THF     H5 3745   5.094   0.731   2.849  0.4449 -1.2044 -1.0234
  201THF     H6 3746   4.908   0.455   2.725  0.1878 -0.0662 -0.3552
  201THF     H7 3747   5.026   0.514   2.824  1.6700 -0.7148 -1.3832
  201THF     C8 3748   4.838   0.607   2.876 -0.3597 -0.4878 -0.8494
  201THF     C9 3749   4.880   0.755   2.891  1.1494  0.6845  0.1778
  201THF    H10 3750   4.851   0.557   2.972  0.7532 -0.0082 -0.7334
  201THF    H11 3751   4.736   0.607   2.838 -0.8081  0.5961  0.2792
  201THF    H12 3752   4.802   0.827   2.868  0.4268 -0.1669 -0.1195
  201THF    H13 3753   4.899   0.780   2.996 -1.6243 -1.4474  1.3381
  202THF     O1 3754   4.873   2.028   2.938  0.5007  0.3548  0.0666
  202THF     C2 3755   4.872   1.983   3.076 -0.4663  0.5667 -0.9163
  202THF     C3 3756   4.965   2.139   2.945 -0.4527 -0.2708  0.2036
  202THF     H4 3757   4.950   1.911   3.101 -0.3095  0.2978 -2.1167
  202THF     H5 3758   4.779   1.931   3.096 -0.3773  0.7270 -0.0473
  202THF     H6 3759   5.069   2.110   2.949  0.0850  1.5992  1.1163
  202THF     H7 3760   4.960   2.205   2.858  0.5078 -0.8333 -0.2949
  202THF     C8 3761   4.913   2.211   3.063 -0.3307 -0.5580  0.2674
  202THF     C9 3762   4.891   2.103   3.164 -0.3696 -1.1048 -0.4965
  202THF    H10 3763   4.818   2.249   3.029 -0.3472 -1.5889 -0.9147
  202THF    H11 3764   4.982   2.291   3.090  0.2341 -0.4149 -1.4732
  202THF    H12 3765   4.974   2.086   3.233  0.7950  1.6873 -1.0730
  202THF    H13 3766   4.809   2.127   3.231  1.7417 -0.2780  1.9766
  203THF     O1 3767   3.872   3.779   3.778  0.4956 -0.5247  0.5064
  203THF     C2 3768   3.800   3.892   3.734 -0.1946  0.9577  0.7211
  203THF     C3 3769   3.796   3.699   3.865  0.0496 -0.7244  1.0447
  203THF     H4 3770   3.749   3.862   3.643 -1.5806 -0.0651  1.7922
  203THF     H5 3771   3.872   3.968   3.702  0.5611 -0.2117 -0.4817
  203THF     H6 3772   3.730   3.634   3.808  2.4695 -3.1216  0.7977
  203THF     H7 3773   3.852   3.624   3.919 -0.9913 -1.3926  1.2286
  203THF     C8 3774   3.706   3.804   3.939  0.7851 -0.2443  0.4249
  203THF     C9 3775   3.682   3.917   3.833  0.0126  0.2212  0.4398
  203THF    H10 3776   3.754   3.824   4.034 -0.1515  1.8840  0.4983
  203THF    H11 3777   3.606   3.769   3.967 -0.7088  2.5522 -1.0258
  203THF    H12 3778   3.585   3.912   3.783 -1.0136 -0.3264  2.3801
  203THF    H13 3779   3.698   4.012   3.883  0.4800  0.8467 -0.8594
  204THF     O1 3780   2.803   1.790   3.710  0.0074  0.0159 -0.1909
  204THF     C2 3781   2.741   1.899   3.768 -0.2855 -0.3022  0.2081
  204THF     C3 3782   2.811   1.687   3.807  0.2513  0.5937  0.3491
  204THF     H4 3783   2.722   1.968   3.686  1.0172  0.9204  0.8954
  204THF     H5 3784   2.815   1.943   3.834  2.4833 -0.4522 -2.6127
  204THF     H6 3785   2.829   1.591   3.759 -0.9221  0.1449  0.7718
  204THF     H7 3786   2.892   1.698   3.880  0.4253  2.1700 -0.0401
  204THF     C8 3787   2.675   1.698   3.885 -0.8594 -0.2155 -0.4821
  204THF     C9 3788   2.616   1.833   3.831 -0.4028 -0.4238  0.7179
  204THF    H10 3789   2.689   1.703   3.993  3.1403  1.0562 -0.8827
  204THF    H11 3790   2.621   1.603   3.889  1.6980 -1.7656 -0.3429
  204THF    H12 3791   2.539   1.814   3.757 -0.1342 -0.8700  0.5485
  204THF    H13 3792   2.571   1.903   3.901 -1.9164 -0.4872 -0.1470
  205THF     O1 3793   2.678   2.956   5.148  0.1242 -0.0955 -0.5112
  205THF     C2 3794   2.653   2.870   5.252 -0.2083 -0.1091  0.2213
  205THF     C3 3795   2.815   2.993   5.150 -0.3075  0.5292 -0.0032
  205THF     H4 3796   2.556   2.820   5.242 -0.3496  0.0800  0.6308
  205THF     H5 3797   2.666   2.917   5.349  0.7434  2.9649 -1.2663
  205THF     H6 3798   2.838   3.026   5.049 -0.9504 -1.3973 -0.8247
  205THF     H7 3799   2.837   3.069   5.224 -2.4272  1.1936  0.0207
  205THF     C8 3800   2.880   2.866   5.188  0.0686  0.0985 -0.2284
  205THF     C9 3801   2.767   2.767   5.232  0.1157  0.7665  0.6221
  205THF    H10 3802   2.948   2.886   5.271 -1.0777  3.0552  0.1174
  205THF    H11 3803   2.953   2.830   5.116  2.2878  2.1647  0.8508
  205THF    H12 3804   2.742   2.684   5.166  0.2892 -0.2523  1.7888
  205THF    H13 3805   2.789   2.713   5.324  1.6596  0.1498 -0.0635
  206THF     O1 3806   2.287   0.328   2.381 -0.2305 -0.1151 -0.4267
  206THF     C2 3807   2.414   0.369   2.334  0.1415 -0.0173  0.5220
  206THF     C3 3808   2.303   0.235   2.492  0.2359 -0.1571  0.1742
  206THF     H4 3809   2.416   0.476   2.313 -0.6655 -0.5743 -3.1938
  206THF     H5 3810   2.431   0.326   2.235 -0.3782  2.7427 -0.8694
  206THF     H6 3811   2.227   0.233   2.571  0.5657 -2.2810  0.4939
  206THF     H7 3812   2.293   0.134   2.453  0.3376 -0.3566  0.6602
  206THF     C8 3813   2.439   0.272   2.552  0.4678 -0.4584  0.0742
  206THF     C9 3814   2.520   0.303   2.429 -0.0443 -0.5361  0.0487
  206THF    H10 3815   2.480   0.190   2.611 -2.9297 -2.4038 -0.0549
  206THF    H11 3816   2.429   0.358   2.617 -0.2969  1.4160 -2.3814
  206THF    H12 3817   2.602   0.372   2.451  0.6981 -1.3768  0.0052
  206THF    H13 3818   2.558   0.209   2.388  2.7367 -0.0410  1.2465
  207THF     O1 3819   2.978   3.965   4.540  0.0918  0.1729  0.1673
  207THF     C2 3820   3.019   4.018   4.413 -0.2276  0.6386  0.2801
  207THF     C3 3821   3.003   4.053   4.649 -0.1691 -0.0005  0.3563
  207THF     H4 3822   2.959   4.105   4.390 -0.9237  0.0325 -0.2231
  207THF     H5 3823   3.024   3.942   4.335 -0.8613  2.0956 -1.2347
  207THF     H6 3824   2.931   4.135   4.643  0.1665  0.3286  0.8296
  207THF     H7 3825   2.998   4.014   4.751 -0.4827  0.4893  0.5311
  207THF     C8 3826   3.143   4.097   4.604 -0.4746  0.3742  0.7430
  207THF     C9 3827   3.157   4.078   4.451  0.0194  0.3488 -0.0639
  207THF    H10 3828   3.216   4.023   4.638 -1.3790 -0.0873  1.7318
  207THF    H11 3829   3.170   4.194   4.644 -0.5453  0.8539 -0.3253
  207THF    H12 3830   3.169   4.171   4.397  1.3418 -0.4234 -1.1770
  207THF    H13 3831   3.240   4.023   4.406  1.4357  2.5043 -0.2038
  208THF     O1 3832   0.087   2.206   2.328 -0.1032  0.4525  0.7744
  208THF     C2 3833   0.007   2.316   2.301 -0.0659 -0.2242 -0.1875
  208THF     C3 3834   0.016   2.116   2.412 -0.1092 -0.3593 -0.0969
  208THF     H4 3835  -0.064   2.289   2.222 -2.2675  0.2726  1.5208
  208THF     H5 3836   0.062   2.406   2.273  0.5649 -0.1099  1.3394
  208THF     H6 3837  -0.068   2.064   2.365 -2.3215 -0.9136  4.0304
  208THF     H7 3838   0.080   2.042   2.459 -0.3275  0.1327  1.0005
  208THF     C8 3839  -0.044   2.223   2.511  0.0257  0.4586 -0.1587
  208THF     C9 3840  -0.072   2.346   2.426 -0.7437 -0.3736  0.2406
  208THF    H10 3841   0.037   2.241   2.582  0.6375 -0.7714 -0.5012
  208THF    H11 3842  -0.130   2.191   2.568  0.8234  1.0322  1.4101
  208THF    H12 3843  -0.170   2.374   2.387 -0.3264  1.0097  0.1564
  208THF    H13 3844  -0.040   2.432   2.484 -2.6249  1.5248 -1.3512
  209THF     O1 3845   0.006   4.088   1.989 -0.1618 -0.1409  0.1506
  209THF     C2 3846  -0.032   4.167   1.871 -0.1267  0.1360 -0.1166
  209THF     C3 3847  -0.007   4.181   2.099  0.2017  0.1739 -0.6933
  209THF     H4 3848  -0.140   4.183   1.867  0.3614  4.9915  0.6887
  209THF     H5 3849  -0.010   4.112   1.780 -0.9854 -1.0421  0.3524
  209THF     H6 3850  -0.107   4.190   2.142 -0.3049 -0.0190 -1.7906
  209THF     H7 3851   0.048   4.147   2.187 -1.3054  0.4030  0.3761
  209THF     C8 3852   0.029   4.316   2.043  0.7085  0.0567 -0.6601
  209THF     C9 3853   0.055   4.290   1.897  0.2398  0.0371  0.3102
  209THF    H10 3854   0.107   4.359   2.106 -0.0048  1.9626 -1.0137
  209THF    H11 3855  -0.057   4.383   2.045  0.7220  0.0870 -1.0544
  209THF    H12 3856   0.035   4.383   1.845  0.9694  0.3094  0.5045
  209THF    H13 3857   0.159   4.261   1.880  0.7110  1.0006  1.4281
  210THF     O1 3858   2.811   5.188   1.366 -0.1673  0.2127 -0.5540
  210THF     C2 3859   2.734   5.238   1.478  0.3819 -0.6646 -0.7735
  210THF     C3 3860   2.844   5.302   1.284  1.0154 -0.6022 -0.3437
  210THF     H4 3861   2.741   5.175   1.566  0.6348  0.7838  0.2761
  210THF     H5 3862   2.627   5.242   1.462  0.0208  1.9497  1.5511
  210THF     H6 3863   2.919   5.279   1.208  0.3633 -1.8348 -0.6386
  210THF     H7 3864   2.748   5.330   1.240  0.2247 -0.5621  1.3486
  210THF     C8 3865   2.869   5.416   1.378  0.0630  0.3538 -0.9874
  210THF     C9 3866   2.791   5.379   1.506  0.0356 -0.1061 -0.3293
  210THF    H10 3867   2.849   5.516   1.339 -0.2951  0.2800 -1.0001
  210THF    H11 3868   2.975   5.409   1.404 -0.5046 -0.9784  1.2679
  210THF    H12 3869   2.868   5.356   1.580 -0.0174 -0.2079 -0.3055
  210THF    H13 3870   2.718   5.449   1.546 -0.9769 -0.2061 -1.9383
  211THF     O1 3871   1.762   5.289   0.046 -0.2366 -0.0024 -0.3667
  211THF     C2 3872   1.863   5.384   0.024  0.3073 -0.5300  0.1908
  211THF     C3 3873   1.639   5.327  -0.025  0.4231 -0.1797 -0.0841
  211THF     H4 3874   1.958   5.332   0.009  0.0058 -0.6643 -1.4265
  211THF     H5 3875   1.868   5.447   0.113  1.7338  2.2611 -1.7161
  211THF     H6 3876   1.624   5.250  -0.100  0.0450 -1.7979  1.5980
  211THF     H7 3877   1.553   5.317   0.040  1.3602 -0.1495  1.2062
  211THF     C8 3878   1.671   5.472  -0.071  0.1415 -0.8059 -0.4834
  211THF     C9 3879   1.822   5.473  -0.088  0.2639  0.6613 -0.2979
  211THF    H10 3880   1.640   5.546   0.004 -0.4031  1.0367 -2.4363
  211THF    H11 3881   1.624   5.492  -0.167 -1.0957 -0.1370  0.2346
  211THF    H12 3882   1.849   5.433  -0.186 -0.1772 -0.7621  0.1461
  211THF    H13 3883   1.857   5.576  -0.088 -1.2656  1.2275  1.2173
  212THF     O1 3884   4.529   2.545   5.042 -0.2212 -0.3192 -0.1911
  212THF     C2 3885   4.600   2.656   5.099 -0.3038 -0.1267 -0.2956
  212THF     C3 3886   4.464   2.580   4.919  0.2958 -0.9779 -0.8954
  212THF     H4 3887   4.681   2.610   5.154  0.9719  1.8327 -0.4340
  212THF     H5 3888   4.542   2.721   5.165 -0.1387  2.1297 -2.2210
  212THF     H6 3889   4.469   2.499   4.846 -1.4170 -0.5567 -1.5412
  212THF     H7 3890   4.356   2.596   4.931  0.4485 -1.4114  1.3009
  212THF     C8 3891   4.533   2.719   4.878  0.3065 -0.7343 -0.0095
  212THF     C9 3892   4.645   2.730   4.980 -0.1212 -0.5874 -0.1596
  212THF    H10 3893   4.466   2.803   4.896  0.2998 -0.4244 -1.3486
  212THF    H11 3894   4.576   2.718   4.777 -0.1637  0.8131 -0.2438
  212THF    H12 3895   4.732   2.684   4.933 -1.2495 -1.6438 -1.2794
  212THF    H13 3896   4.676   2.830   5.010  1.7321 -0.6259 -1.7269
  213THF     O1 3897   4.350   3.721   0.488 -0.3757  0.3072  0.2821
  213THF     C2 3898   4.480   3.675   0.515  0.1190 -0.7538  0.1822
  213THF     C3 3899   4.354   3.819   0.385 -0.2807 -0.3224 -0.4643
  213THF     H4 3900   4.475   3.569   0.489 -0.4634 -0.3740 -1.3718
  213THF     H5 3901   4.495   3.677   0.623 -0.0297 -0.2922  0.1948
  213THF     H6 3902   4.273   3.799   0.314 -0.1629  3.2996 -1.8408
  213THF     H7 3903   4.348   3.917   0.431  2.1505  0.0275 -0.7851
  213THF     C8 3904   4.488   3.800   0.317 -0.1729 -0.2566 -0.0753
  213THF     C9 3905   4.576   3.758   0.427  0.1150  0.0754 -0.2428
  213THF    H10 3906   4.521   3.898   0.284 -2.3261 -0.0684 -1.9217
  213THF    H11 3907   4.491   3.722   0.242 -0.6736  0.6230 -1.0306
  213THF    H12 3908   4.656   3.694   0.390 -0.0772 -0.0917 -0.3745
  213THF    H13 3909   4.597   3.846   0.486 -0.2973 -0.6282  0.9992
  214THF     O1 3910   2.594   2.312   3.049  0.5192 -0.2960  0.0816
  214THF     C2 3911   2.458   2.332   3.080  0.1276  0.2318 -0.4277
  214THF     C3 3912   2.674   2.303   3.173 -0.1015 -0.2686  0.3369
  214THF     H4 3913   2.417   2.231   3.089 -0.0547  0.2850 -0.6600
  214THF     H5 3914   2.411   2.392   3.003 -1.1407 -0.5607 -0.2931
  214THF     H6 3915   2.662   2.201   3.208  0.8966 -0.2061  0.8801
  214THF     H7 3916   2.780   2.325   3.170 -0.0031 -0.7869  0.0058
  214THF     C8 3917   2.612   2.420   3.257 -0.9929  0.4231 -0.1729
  214THF     C9 3918   2.467   2.397   3.223 -0.4467  0.2302  0.7306
  214THF    H10 3919   2.650   2.516   3.220 -1.4565  0.1339 -1.4618
  214THF    H11 3920   2.646   2.409   3.360  1.4507 -0.0625 -0.9704
  214THF    H12 3921   2.425   2.326   3.295 -0.7798 -0.8700 -0.5151
  214THF    H13 3922   2.414   2.492   3.229  0.6008  0.9397 -0.6810
  215THF     O1 3923   2.461   1.970   0.355  0.1713 -0.0340 -0.6314
  215THF     C2 3924   2.444   2.098   0.426 -0.0555 -0.5440  0.6316
  215THF     C3 3925   2.597   1.944   0.339  0.4949  0.0591 -0.1170
  215THF     H4 3926   2.434   2.089   0.534  1.4984 -2.0351  0.6912
  215THF     H5 3927   2.347   2.140   0.402  0.3768  0.3034  0.2988
  215THF     H6 3928   2.628   1.863   0.406 -0.1382 -0.0353  0.0736
  215THF     H7 3929   2.614   1.918   0.235  0.8009  2.0614 -0.6005
  215THF     C8 3930   2.674   2.077   0.365 -0.2741 -0.6197 -0.8964
  215THF     C9 3931   2.558   2.182   0.385  0.4162  0.0685 -0.4925
  215THF    H10 3932   2.743   2.104   0.285 -0.1366  1.7585 -0.0641
  215THF    H11 3933   2.722   2.096   0.461 -0.0215 -0.0600 -1.1270
  215THF    H12 3934   2.582   2.261   0.455  0.3177 -0.4930  0.1833
  215THF    H13 3935   2.536   2.226   0.288  2.7234  1.1349 -0.5966
  216THF     O1 3936   2.484   1.642   2.762 -0.2893  0.3312  0.3007
  216THF     C2 3937   2.461   1.782   2.756 -0.9860  0.2597 -0.6003
  216THF     C3 3938   2.387   1.582   2.685  0.4088  0.4504 -0.9136
  216THF     H4 3939   2.557   1.835   2.755 -0.0984 -1.2842 -0.7425
  216THF     H5 3940   2.400   1.819   2.838 -0.1009 -2.2155  1.2877
  216THF     H6 3941   2.419   1.479   2.674 -1.6407 -0.8898  3.2797
  216THF     H7 3942   2.289   1.563   2.730 -0.2840 -0.1373 -2.6010
  216THF     C8 3943   2.381   1.674   2.569  0.3728 -0.0787  0.1522
  216THF     C9 3944   2.388   1.807   2.627 -0.5481 -0.1489  0.4306
  216THF    H10 3945   2.301   1.670   2.496 -1.5805  0.3681  2.1685
  216THF    H11 3946   2.470   1.658   2.508 -0.4724  1.0982 -1.4864
  216THF    H12 3947   2.432   1.874   2.553 -2.1737  1.6503  0.9925
  216THF    H13 3948   2.286   1.838   2.648 -0.6991 -1.7212  2.2755
  217THF     O1 3949   4.177   3.822   3.841 -0.4492 -0.0677  0.3323
  217THF     C2 3950   4.157   3.912   3.945  0.1676 -0.1918 -0.2610
  217THF     C3 3951   4.302   3.758   3.852 -0.2610 -0.5074 -0.1914
  217THF     H4 3952   4.052   3.915   3.972  0.5672 -2.1073  1.8273
  217THF     H5 3953   4.195   4.014   3.939 -0.9384  0.2577  0.2527
  217THF     H6 3954   4.304   3.659   3.806  0.5066 -0.1570 -0.9367
  217THF     H7 3955   4.375   3.820   3.800  0.0727 -0.8128 -0.0961
  217THF     C8 3956   4.330   3.758   3.998  0.3861 -0.0746  0.8987
  217THF     C9 3957   4.218   3.837   4.059 -0.4333  0.5567 -0.2422
  217THF    H10 3958   4.428   3.799   4.022  0.6644 -0.6344  0.7472
  217THF    H11 3959   4.332   3.655   4.035  1.4293 -0.4451 -0.1201
  217THF    H12 3960   4.147   3.767   4.103 -1.7449  1.1847 -1.2970
  217THF    H13 3961   4.257   3.903   4.136 -1.9785  1.0098  0.1841
  218THF     O1 3962   5.125   1.513   0.518  0.6093 -0.2243  0.0464
  218THF     C2 3963   4.984   1.529   0.512  0.7911 -0.5908  1.2536
  218THF     C3 3964   5.153   1.432   0.633  0.2871  0.2119  0.4163
  218THF     H4 3965   4.953   1.553   0.410  4.5288 -1.9584 -0.3885
  218THF     H5 3966   4.939   1.600   0.581  1.5687  2.9997 -1.6198
  218THF     H6 3967   5.254   1.391   0.633  0.1273 -0.1814  0.7217
  218THF     H7 3968   5.134   1.491   0.723  0.6028 -1.3293  1.5261
  218THF     C8 3969   5.054   1.318   0.627 -0.0709  0.1256  0.3398
  218THF     C9 3970   4.942   1.378   0.539 -0.3492  0.5386  0.7674
  218THF    H10 3971   5.022   1.281   0.724 -2.5916 -0.1958 -0.5383
  218THF    H11 3972   5.103   1.235   0.577  1.9508  1.3897  0.1319
  218THF    H12 3973   4.947   1.319   0.448 -0.9456  0.6790  0.6372
  218THF    H13 3974   4.842   1.373   0.584  0.4188 -2.0696  2.4479
  219THF     O1 3975   4.661   4.978   1.664  0.0246 -0.3313  0.3694
  219THF     C2 3976   4.659   4.836   1.654  0.1096  0.2362 -0.4985
  219THF     C3 3977   4.535   5.020   1.713  0.2714 -0.8954 -1.0110
  219THF     H4 3978   4.683   4.792   1.751 -0.0004  2.8772  0.8166
  219THF     H5 3979   4.728   4.815   1.571 -0.0675  0.4361 -0.6964
  219THF     H6 3980   4.546   4.980   1.814  0.5594  0.2473 -0.5751
  219THF     H7 3981   4.505   5.124   1.705  2.6708 -0.0762 -0.1905
  219THF     C8 3982   4.439   4.933   1.630 -0.8594 -0.2450  0.1040
  219THF     C9 3983   4.513   4.802   1.612 -0.2680 -0.0781 -0.4010
  219THF    H10 3984   4.435   4.987   1.536 -0.5978  1.7219  1.1668
  219THF    H11 3985   4.337   4.922   1.666 -1.1944  0.4360 -0.6061
  219THF    H12 3986   4.476   4.719   1.671  0.1287  0.0219 -0.0087
  219THF    H13 3987   4.513   4.775   1.506  4.7584  1.0869 -0.9535
  220THF     O1 3988   1.262   1.189   0.470 -0.0155 -0.6400  0.0392
  220THF     C2 3989   1.262   1.052   0.428  0.0167  0.2167  0.0890
  220THF     C3 3990   1.154   1.246   0.398 -0.1223  0.3386 -0.2062
  220THF     H4 3991   1.305   0.984   0.501 -0.4736  0.0489  0.2210
  220THF     H5 3992   1.316   1.038   0.334  0.9027  0.1504  0.5933
  220THF     H6 3993   1.118   1.334   0.451  0.0298  0.0653  0.3638
  220THF     H7 3994   1.190   1.282   0.301  0.4701  0.1026 -0.0800
  220THF     C8 3995   1.037   1.151   0.378  0.0352  0.1112 -0.2131
  220THF     C9 3996   1.110   1.020   0.418  0.4184 -0.4905 -0.1217
  220THF    H10 3997   0.999   1.155   0.276 -0.6579  0.3541  0.0454
  220THF    H11 3998   0.949   1.164   0.441 -0.7069  0.3273 -1.2761
  220THF    H12 3999   1.085   0.994   0.521  1.2794  1.6955  0.7098
  220THF    H13 4000   1.086   0.933   0.358 -1.8268 -1.4170  1.9587
  221THF     O1 4001   1.291   2.110   4.733 -0.2776 -0.2493  0.2341
  221THF     C2 4002   1.398   2.190   4.788 -0.6572 -0.1596 -0.5746
  221THF     C3 4003   1.184   2.197   4.701 -0.1544 -0.0986  0.2076
  221THF     H4 4004   1.496   2.145   4.776 -0.7806 -0.0059 -2.4532
  221THF     H5 4005   1.369   2.231   4.885 -2.0905  0.4421 -1.2116
  221THF     H6 4006   1.124   2.135   4.634  0.6117 -2.1195  1.3064
  221THF     H7 4007   1.130   2.243   4.784 -1.6305 -0.7445 -0.3542
  221THF     C8 4008   1.258   2.320   4.634  0.2634  0.7236 -0.3029
  221THF     C9 4009   1.396   2.322   4.708 -0.0159 -0.1161  0.4625
  221THF    H10 4010   1.218   2.421   4.630  0.7779  0.8877 -3.1005
  221THF    H11 4011   1.286   2.291   4.533  0.5342 -1.5306  0.3615
  221THF    H12 4012   1.470   2.318   4.627 -0.9110 -0.0928 -0.3719
  221THF    H13 4013   1.412   2.417   4.758  1.0703 -0.7943  1.4407
  222THF     O1 4014   3.236   3.081   1.913 -0.1099  0.1458 -0.4434
  222THF     C2 4015   3.355   3.128   1.846 -0.5379 -0.0036 -0.6428
  222THF     C3 4016   3.152   3.042   1.812 -0.4157 -0.7183  0.9393
  222THF     H4 4017   3.425   3.046   1.827 -1.2278 -0.3070 -1.9255
  222THF     H5 4018   3.412   3.197   1.909  1.2778 -2.0493  0.1148
  222THF     H6 4019   3.163   2.936   1.788 -0.8439 -0.2330 -1.7208
  222THF     H7 4020   3.047   3.048   1.840 -0.4761 -0.1838  0.6069
  222THF     C8 4021   3.170   3.143   1.698  0.6446 -0.0099 -0.4903
  222THF     C9 4022   3.308   3.197   1.725  0.3390  0.1484 -0.4322
  222THF    H10 4023   3.096   3.222   1.714 -1.6193 -2.0425 -0.3371
  222THF    H11 4024   3.154   3.101   1.599  1.5773 -3.4890  0.7016
  222THF    H12 4025   3.370   3.164   1.642  1.7339 -0.8002  0.9452
  222THF    H13 4026   3.322   3.304   1.742  0.1385  0.3597 -1.5606
  223THF     O1 4027   2.394   4.227   0.825 -0.3023 -0.0910 -0.5426
  223THF     C2 4028   2.372   4.085   0.846  0.1340 -0.3623 -0.2495
  223THF     C3 4029   2.258   4.282   0.817 -0.4886 -0.0722  0.1472
  223THF     H4 4030   2.465   4.043   0.884  1.0074  0.6074 -1.2504
  223THF     H5 4031   2.338   4.045   0.750 -1.5536  2.8719 -1.1285
  223THF     H6 4032   2.250   4.390   0.807  2.2200  0.3550  1.6272
  223THF     H7 4033   2.201   4.249   0.730 -0.4929 -2.3461  0.9357
  223THF     C8 4034   2.194   4.227   0.941 -0.3270  0.1185 -0.3099
  223THF     C9 4035   2.270   4.096   0.962  0.3418 -0.0457  0.3392
  223THF    H10 4036   2.092   4.207   0.908  0.2725 -1.9032 -1.0506
  223THF    H11 4037   2.202   4.299   1.023  1.2001 -0.6034  0.2121
  223THF    H12 4038   2.336   4.109   1.048 -1.4566 -1.5459  2.0308
  223THF    H13 4039   2.225   3.999   0.981 -4.0657  1.5563 -0.6220
  224THF     O1 4040   3.520   1.271   2.078 -0.3229  0.4951 -0.0604
  224THF     C2 4041   3.561   1.355   2.187 -0.6756 -0.0326 -0.8865
  224THF     C3 4042   3.642   1.242   2.010 -0.2189 -0.1792 -0.1831
  224THF     H4 4043   3.622   1.305   2.262 -0.8061  1.7918  0.5301
  224THF     H5 4044   3.491   1.401   2.257 -0.3770 -1.3780  0.3385
  224THF     H6 4045   3.696   1.166   2.067  1.1076  0.0374 -1.1105
  224THF     H7 4046   3.624   1.195   1.913 -0.2733  0.0784 -0.2981
  224THF     C8 4047   3.703   1.377   2.008 -0.3168  0.8622 -0.2554
  224THF     C9 4048   3.656   1.453   2.125 -0.6753  0.1415  0.2309
  224THF    H10 4049   3.684   1.429   1.915 -1.5851 -0.0649 -0.5384
  224THF    H11 4050   3.811   1.364   2.018 -0.3470 -0.1769 -1.0727
  224THF    H12 4051   3.738   1.490   2.188 -1.4723  1.4319  0.5363
  224THF    H13 4052   3.608   1.545   2.093  1.7406  1.3787 -0.0774
  225THF     O1 4053   0.211   1.467   3.236  0.5267  0.4624  0.2117
  225THF     C2 4054   0.140   1.576   3.191 -0.1773  0.3216  1.1834
  225THF     C3 4055   0.246   1.385   3.125  0.1310  0.2360 -0.8379
  225THF     H4 4056   0.142   1.668   3.251 -3.3956  0.6592  0.9572
  225THF     H5 4057   0.033   1.558   3.179  0.1867 -2.0792  1.1495
  225THF     H6 4058   0.353   1.365   3.122  0.1961  0.4053  0.1809
  225THF     H7 4059   0.202   1.286   3.135 -0.5098  0.6135  0.1796
  225THF     C8 4060   0.201   1.463   2.997 -0.0239  0.7986 -0.5664
  225THF     C9 4061   0.182   1.603   3.046  1.0140 -0.6289  0.1074
  225THF    H10 4062   0.111   1.423   2.952  1.4771 -1.4930 -1.6852
  225THF    H11 4063   0.277   1.464   2.919  1.9933  0.2331  1.2918
  225THF    H12 4064   0.271   1.667   3.044  1.8120 -1.6328  1.4445
  225THF    H13 4065   0.108   1.653   2.984  0.9552 -2.1558 -1.1024
  226THF     O1 4066   1.440   0.869   1.751  0.2064 -0.1155  0.1058
  226THF     C2 4067   1.377   0.903   1.631 -0.2584 -0.0956 -0.6026
  226THF     C3 4068   1.579   0.894   1.740  0.3234  0.6849 -0.4916
  226THF     H4 4069   1.273   0.905   1.663  0.2214 -1.6835  1.2789
  226THF     H5 4070   1.398   0.835   1.549  1.8465 -1.2776  0.8202
  226THF     H6 4071   1.634   0.891   1.834 -0.5849 -1.5128  0.0441
  226THF     H7 4072   1.625   0.819   1.676  0.1602  0.3214 -0.1911
  226THF     C8 4073   1.582   1.035   1.672 -0.2731  0.0730 -0.0319
  226THF     C9 4074   1.454   1.036   1.597  0.3956 -0.7453 -0.1363
  226THF    H10 4075   1.675   1.038   1.615 -0.2340 -1.0470 -0.0575
  226THF    H11 4076   1.584   1.116   1.745 -0.3671  1.0537 -1.0896
  226THF    H12 4077   1.388   1.112   1.637 -0.3684 -0.0387 -2.6213
  226THF    H13 4078   1.472   1.068   1.495  3.1807  0.5685  0.6618
  227THF     O1 4079   2.642   4.998   3.699  0.2326  0.3647  0.0838
  227THF     C2 4080   2.545   5.048   3.788 -0.0924 -0.0209 -1.2949
  227THF     C3 4081   2.586   4.993   3.571 -0.0760 -0.5466  0.0319
  227THF     H4 4082   2.581   5.095   3.880 -0.0656  0.2007 -1.4164
  227THF     H5 4083   2.485   4.966   3.828  1.9984 -0.3678  1.4503
  227THF     H6 4084   2.658   5.025   3.495 -1.8128  2.6022 -0.4502
  227THF     H7 4085   2.544   4.897   3.545  1.8410 -1.3489 -0.2775
  227THF     C8 4086   2.473   5.090   3.565  0.3866  0.0414 -0.5016
  227THF     C9 4087   2.451   5.142   3.712  0.0382  0.3061  0.2917
  227THF    H10 4088   2.381   5.057   3.515  0.5218 -0.7510 -0.2304
  227THF    H11 4089   2.507   5.169   3.497  2.1247 -0.3677 -0.1478
  227THF    H12 4090   2.493   5.242   3.711  1.9119 -0.3732 -2.8057
  227THF    H13 4091   2.345   5.139   3.736  0.0508 -0.6619  0.2903
  228THF     O1 4092   0.954   5.473   0.699 -0.0286 -0.4517 -0.3007
  228THF     C2 4093   0.869   5.436   0.586  0.2815 -0.8825  0.5152
  228THF     C3 4094   0.922   5.606   0.733  0.1908 -1.2479 -0.2977
  228THF     H4 4095   0.825   5.336   0.593  2.6910 -2.0283  0.3918
  228THF     H5 4096   0.924   5.431   0.493 -1.8770 -2.6293 -0.7734
  228THF     H6 4097   0.946   5.629   0.837 -1.9358  0.1311 -0.0342
  228THF     H7 4098   0.979   5.681   0.678  0.3533 -0.9938  0.2059
  228THF     C8 4099   0.773   5.611   0.701 -0.0368  0.5808  0.5837
  228THF     C9 4100   0.749   5.536   0.580  0.2569  0.9759  0.3022
  228THF    H10 4101   0.737   5.711   0.677  0.3342  0.1181 -2.1670
  228THF    H11 4102   0.720   5.562   0.783  0.3294  0.3391  0.6784
  228THF    H12 4103   0.651   5.489   0.585  0.9446 -0.4817  0.9150
  228THF    H13 4104   0.760   5.603   0.495  0.1598  1.4252  0.6407
  229THF     O1 4105   5.432   4.412   0.194 -0.5722 -0.5630 -0.2714
  229THF     C2 4106   5.451   4.290   0.134  0.5147  0.1104 -0.5608
  229THF     C3 4107   5.300   4.414   0.228  0.1744 -0.2893  0.2560
  229THF     H4 4108   5.554   4.255   0.128  0.0955 -0.9943 -1.6108
  229THF     H5 4109   5.415   4.286   0.031 -0.4213 -0.0377 -0.2362
  229THF     H6 4110   5.280   4.473   0.317 -1.2998 -0.3289 -0.0306
  229THF     H7 4111   5.241   4.454   0.146  1.3871 -0.7254 -0.8572
  229THF     C8 4112   5.250   4.276   0.260  0.3026  0.1578  0.2233
  229THF     C9 4113   5.365   4.195   0.203 -0.5931 -0.0158 -0.0480
  229THF    H10 4114   5.159   4.249   0.206  0.8698 -2.0888  0.2818
  229THF    H11 4115   5.246   4.251   0.366  2.7925  0.4382  0.4336
  229THF    H12 4116   5.418   4.148   0.286 -0.8296  0.3587  0.3186
  229THF    H13 4117   5.326   4.122   0.132 -2.3048 -1.1094  1.9125
  230THF     O1 4118   4.809   2.853   4.176 -0.3812  1.1268  0.5029
  230THF     C2 4119   4.701   2.755   4.156  0.2132  0.3879  0.3711
  230THF     C3 4120   4.916   2.810   4.092 -0.0461 -0.1696  0.2258
  230THF     H4 4121   4.609   2.790   4.203  0.1980  1.8883 -0.7186
  230THF     H5 4122   4.740   2.663   4.200  0.8496 -0.5597 -2.0025
  230THF     H6 4123   4.976   2.893   4.054 -1.5432  0.4051 -0.9718
  230THF     H7 4124   4.981   2.743   4.149 -0.3335 -1.3034 -0.7251
  230THF     C8 4125   4.854   2.744   3.969  0.1100  0.5250 -0.2380
  230THF     C9 4126   4.710   2.719   4.015  0.0194  0.3322  0.4988
  230THF    H10 4127   4.904   2.652   3.937  1.2974  0.2042  2.3213
  230THF    H11 4128   4.854   2.811   3.883  1.7275  0.2895 -0.4470
  230THF    H12 4129   4.635   2.781   3.965 -3.7671 -3.4765  0.8309
  230THF    H13 4130   4.685   2.615   3.997 -1.5175  0.9641 -1.4146
  231THF     O1 4131   4.179   1.576   4.842  0.0192 -0.4066  0.1304
  231THF     C2 4132   4.033   1.571   4.824  0.0072  0.0578  0.4443
  231THF     C3 4133   4.204   1.524   4.975 -0.0790  0.1468 -0.4506
  231THF     H4 4134   3.996   1.474   4.791 -1.6013  0.2112  1.6512
  231THF     H5 4135   4.003   1.649   4.754  1.5587 -1.4586 -2.0504
  231THF     H6 4136   4.202   1.415   4.972  2.4199  0.0329  0.1144
  231THF     H7 4137   4.306   1.541   5.008  0.2294 -2.3839  0.1471
  231THF     C8 4138   4.093   1.588   5.058 -0.8986 -0.1674  0.1926
  231THF     C9 4139   3.974   1.579   4.963 -0.5647  0.5521  0.1462
  231THF    H10 4140   4.123   1.690   5.083 -0.9836 -0.0732 -0.0753
  231THF    H11 4141   4.076   1.524   5.144 -0.0617 -1.5111 -0.6066
  231THF    H12 4142   3.907   1.495   4.983  0.7221 -0.1944  1.5837
  231THF    H13 4143   3.909   1.666   4.974 -0.9881  0.0683  1.7844
  232THF     O1 4144   0.495   4.081   4.049 -0.1125 -0.5894  0.0964
  232THF     C2 4145   0.471   4.168   3.941  0.1447  0.3091  0.3097
  232THF     C3 4146   0.372   4.018   4.089  0.3862  0.3676 -0.3461
  232THF     H4 4147   0.458   4.102   3.855  0.5745 -2.8426  2.5090
  232THF     H5 4148   0.547   4.241   3.915 -1.2237  1.8621  0.5102
  232THF     H6 4149   0.361   3.928   4.028 -1.2625 -0.7514  1.4810
  232THF     H7 4150   0.371   3.974   4.189  0.9614  1.8395  0.3426
  232THF     C8 4151   0.273   4.117   4.041 -0.2913  0.2649  0.2255
  232THF     C9 4152   0.348   4.236   3.983 -0.0392 -0.0839 -0.3393
  232THF    H10 4153   0.217   4.162   4.124  0.1738  1.5911 -0.1510
  232THF    H11 4154   0.197   4.064   3.984 -1.4429 -0.5885  2.4203
  232THF    H12 4155   0.302   4.290   3.900  1.9648  0.5565 -1.0808
  232THF    H13 4156   0.372   4.306   4.063  1.9650  1.1209 -1.9060
  233THF     O1 4157   2.972   0.267   0.670 -0.4481 -0.1025  0.0993
  233THF     C2 4158   3.058   0.377   0.672  0.4272 -0.6014 -0.2135
  233THF     C3 4159   3.013   0.189   0.785 -0.3669  0.0904 -0.0515
  233THF     H4 4160   3.025   0.457   0.739  0.8649  1.8498 -2.7821
  233THF     H5 4161   3.064   0.413   0.570 -1.5421  2.8376  0.7150
  233THF     H6 4162   2.975   0.246   0.870 -0.9197  1.5102 -1.1921
  233THF     H7 4163   2.965   0.092   0.792  1.1310 -0.6123  0.9219
  233THF     C8 4164   3.164   0.180   0.767 -0.5531 -0.0773 -0.4852
  233THF     C9 4165   3.190   0.327   0.721 -0.1087  0.3631 -0.6114
  233THF    H10 4166   3.179   0.105   0.690  2.2108 -0.9952  0.8170
  233THF    H11 4167   3.213   0.155   0.861  1.5644 -1.4602 -1.8931
  233THF    H12 4168   3.230   0.382   0.806 -1.1484 -0.3214  0.3519
  233THF    H13 4169   3.265   0.328   0.641  0.4167  0.2522 -0.1245
  234THF     O1 4170   1.728   3.082   1.359 -0.0579  0.3554  0.0079
  234THF     C2 4171   1.780   3.004   1.469 -0.4363  0.4518 -0.6318
  234THF     C3 4172   1.701   3.209   1.419  0.3297 -0.2142 -0.0959
  234THF     H4 4173   1.837   2.921   1.429 -2.2392 -0.7473 -0.8055
  234THF     H5 4174   1.699   2.956   1.524  0.7880  0.6877  1.5174
  234THF     H6 4175   1.686   3.273   1.332  0.6269  0.3993  0.2942
  234THF     H7 4176   1.620   3.218   1.491  1.2824 -0.7871  1.0683
  234THF     C8 4177   1.837   3.228   1.494  0.0352 -1.0022 -0.9965
  234THF     C9 4178   1.869   3.093   1.562  1.1974 -0.4884 -0.0990
  234THF    H10 4179   1.837   3.317   1.558 -0.7352 -2.0548  0.5121
  234THF    H11 4180   1.918   3.241   1.422  0.9612  0.9448  0.3132
  234THF    H12 4181   1.974   3.068   1.576  1.4181 -0.6001 -1.7235
  234THF    H13 4182   1.833   3.089   1.664  1.2429  0.4186 -0.0419
  235THF     O1 4183   1.276   1.158   3.752  0.1316 -0.7508 -0.8213
  235THF     C2 4184   1.365   1.265   3.729 -0.0005  0.0940 -0.5441
  235THF     C3 4185   1.153   1.195   3.804 -0.1821 -0.3470 -0.4284
  235THF     H4 4186   1.410   1.256   3.630  1.3585  0.2159  0.0377
  235THF     H5 4187   1.448   1.261   3.800 -0.9226  2.1573  0.7473
  235THF     H6 4188   1.078   1.122   3.775 -2.8459  1.5568  1.1827
  235THF     H7 4189   1.155   1.192   3.913  0.4592 -3.1606 -0.4507
  235THF     C8 4190   1.139   1.338   3.748 -0.5742  0.7192 -0.2589
  235THF     C9 4191   1.281   1.391   3.758  0.3886 -0.4229  0.0869
  235THF    H10 4192   1.067   1.401   3.801 -1.6772 -0.1711 -0.6478
  235THF    H11 4193   1.113   1.328   3.643 -2.6523  0.7467  0.2147
  235THF    H12 4194   1.291   1.477   3.693 -1.8102  0.1588  0.4472
  235THF    H13 4195   1.295   1.416   3.863  2.3255 -3.0027  0.5580
  236THF     O1 4196   0.327   3.689   1.308 -0.2035 -0.1111 -0.3462
  236THF     C2 4197   0.203   3.694   1.381 -0.8481 -0.3183  0.0062
  236THF     C3 4198   0.313   3.597   1.192 -0.3098 -0.1226 -0.3527
  236THF     H4 4199   0.188   3.794   1.422  1.5548 -0.0133  0.2881
  236THF     H5 4200   0.213   3.628   1.467  1.6754  1.8392  1.4918
  236THF     H6 4201   0.324   3.663   1.106 -0.3007  1.2673  0.6708
  236THF     H7 4202   0.376   3.508   1.193 -0.7316 -0.4399  0.9951
  236THF     C8 4203   0.173   3.544   1.206  0.1393  0.2196  0.1129
  236THF     C9 4204   0.100   3.652   1.281 -0.0846 -0.1315 -0.4237
  236THF    H10 4205   0.181   3.452   1.265  0.8530  0.6601  0.7249
  236THF    H11 4206   0.129   3.536   1.106 -0.5624 -0.2259  0.4480
  236THF    H12 4207   0.072   3.730   1.211  2.7887  0.9980 -0.4188
  236THF    H13 4208   0.012   3.611   1.332  0.3711 -1.5187 -0.6989
  237THF     O1 4209   4.278   2.784   2.108 -0.4266  0.2402 -0.1415
  237THF     C2 4210   4.218   2.895   2.170  0.8481  0.5391  0.0376
  237THF     C3 4211   4.280   2.816   1.973  0.1792 -0.3331  0.1761
  237THF     H4 4212   4.279   2.985   2.182 -2.2450  2.7362  0.5336
  237THF     H5 4213   4.201   2.869   2.274  1.7482 -0.4764 -0.0501
  237THF     H6 4214   4.344   2.900   1.948 -2.6229  2.7591  2.3927
  237THF     H7 4215   4.306   2.737   1.903  2.0730  0.0312  0.4290
  237THF     C8 4216   4.141   2.861   1.952  0.9027  0.4620  0.9922
  237THF     C9 4217   4.098   2.933   2.084 -0.9128 -0.1043 -0.1227
  237THF    H10 4218   4.069   2.784   1.925 -0.5181  2.3050 -0.8234
  237THF    H11 4219   4.124   2.911   1.857 -1.4871  0.7307  1.4866
  237THF    H12 4220   4.110   3.040   2.066 -1.9993  0.1334  0.5107
  237THF    H13 4221   4.000   2.914   2.127 -1.0468  0.9480  0.0797
  238THF     O1 4222   5.241   2.797   4.398  0.3851 -0.2246  0.1033
  238THF     C2 4223   5.283   2.782   4.528 -0.7491 -0.6984  0.1747
  238THF     C3 4224   5.333   2.728   4.310 -0.0136 -0.2344 -0.1253
  238THF     H4 4225   5.264   2.685   4.573 -0.8556 -0.2817  1.0467
  238THF     H5 4226   5.251   2.856   4.601  0.2456 -2.4376  2.5363
  238THF     H6 4227   5.310   2.622   4.321 -0.5626 -0.0675  0.3817
  238THF     H7 4228   5.316   2.765   4.209 -1.7024 -1.1916 -0.2211
  238THF     C8 4229   5.468   2.768   4.367 -0.5131 -0.6654 -0.7236
  238THF     C9 4230   5.432   2.805   4.511 -0.2417  0.6869 -0.3014
  238THF    H10 4231   5.493   2.860   4.314  0.7655  0.8810  2.3366
  238THF    H11 4232   5.549   2.697   4.353 -0.4245 -0.7113  0.0108
  238THF    H12 4233   5.481   2.734   4.577 -1.0205  1.2891  0.9690
  238THF    H13 4234   5.458   2.909   4.530  1.1197  0.5678 -1.3563
  239THF     O1 4235   4.988   1.362   2.362 -0.1336 -0.1052  0.1042
  239THF     C2 4236   4.913   1.473   2.308 -0.0365  0.1646  0.4296
  239THF     C3 4237   5.086   1.412   2.448  0.3196 -0.4389 -0.3510
  239THF     H4 4238   4.814   1.443   2.275 -0.1549  0.0365  0.8957
  239THF     H5 4239   4.969   1.520   2.227  0.5341  0.3007  0.8963
  239THF     H6 4240   5.121   1.340   2.522  2.6775 -0.3149 -1.2790
  239THF     H7 4241   5.175   1.436   2.390 -0.2276 -2.7746 -2.2999
  239THF     C8 4242   5.020   1.532   2.516  0.0921 -0.4745 -0.6547
  239THF     C9 4243   4.894   1.565   2.430  0.0701  0.3466 -0.2180
  239THF    H10 4244   5.099   1.607   2.523 -1.1156  0.7224  0.5811
  239THF    H11 4245   4.995   1.507   2.619  0.3312  1.7018 -0.0205
  239THF    H12 4246   4.819   1.540   2.505  0.6640  0.0044  0.2774
  239THF    H13 4247   4.878   1.668   2.399  2.9569 -0.2371 -4.4840
  240THF     O1 4248   0.937   4.081   3.618  0.0538  0.0610  0.2798
  240THF     C2 4249   1.079   4.074   3.599  0.1142  0.2617 -0.5354
  240THF     C3 4250   0.910   4.094   3.761 -0.5112 -0.3272 -0.1832
  240THF     H4 4251   1.110   4.110   3.500  2.6542  0.0752  0.1315
  240THF     H5 4252   1.111   3.975   3.629  0.3886  0.5044 -0.0244
  240THF     H6 4253   0.811   4.138   3.776 -0.4258  0.3313 -1.4413
  240THF     H7 4254   0.900   4.001   3.816  0.4685 -1.0914 -1.2628
  240THF     C8 4255   1.033   4.163   3.816  0.0517 -0.7648 -0.5100
  240THF     C9 4256   1.137   4.166   3.702  0.3414 -0.4122  0.3268
  240THF    H10 4257   1.071   4.126   3.911  0.2858  0.9069  0.0954
  240THF    H11 4258   0.990   4.262   3.834 -1.0991 -1.3269 -0.0866
  240THF    H12 4259   1.146   4.269   3.668 -1.5874 -0.7977 -1.6042
  240THF    H13 4260   1.237   4.131   3.726  1.8578  0.5557 -3.8591
  241THF     O1 4261   0.513   3.823   0.258 -0.0918  0.0089 -0.1384
  241THF     C2 4262   0.397   3.796   0.332 -0.3320 -0.4662  1.1873
  241THF     C3 4263   0.619   3.802   0.346  0.2477 -0.5221 -0.1216
  241THF     H4 4264   0.314   3.775   0.265 -0.6527  1.1442  1.0330
  241THF     H5 4265   0.364   3.876   0.398 -2.7677 -0.4208  0.0204
  241THF     H6 4266   0.718   3.790   0.302 -0.5833 -0.8323 -1.9984
  241THF     H7 4267   0.619   3.893   0.407  0.0387  0.0008 -0.8860
  241THF     C8 4268   0.584   3.679   0.416  0.3445 -0.1259 -0.3687
  241THF     C9 4269   0.435   3.673   0.424 -0.0516 -0.0217 -0.4585
  241THF    H10 4270   0.635   3.681   0.512 -2.2271  1.6192  1.0950
  241THF    H11 4271   0.623   3.594   0.361 -0.2632 -0.6323 -0.0245
  241THF    H12 4272   0.403   3.576   0.386  1.1710 -1.1899  1.3257
  241THF    H13 4273   0.409   3.696   0.527 -0.0391 -0.9184 -0.2461
  242THF     O1 4274   4.316   3.518   4.662  0.6923 -0.6616 -0.1390
  242THF     C2 4275   4.412   3.560   4.565 -0.2516  0.0648 -0.6236
  242THF     C3 4276   4.375   3.531   4.793 -0.6800  0.6481  0.2324
  242THF     H4 4277   4.387   3.665   4.576 -0.2995 -0.1721  2.0154
  242THF     H5 4278   4.402   3.521   4.463 -0.2741 -0.2118 -0.5164
  242THF     H6 4279   4.316   3.593   4.860 -0.7439 -0.0086  0.7909
  242THF     H7 4280   4.378   3.436   4.847 -1.8934  1.1308  1.1926
  242THF     C8 4281   4.530   3.564   4.772  0.8172  0.4643  0.5352
  242THF     C9 4282   4.547   3.525   4.620 -0.2060  1.1847 -0.0654
  242THF    H10 4283   4.586   3.497   4.838  1.5624 -0.1182 -0.6481
  242THF    H11 4284   4.547   3.670   4.791 -1.1251  0.8371  0.4150
  242THF    H12 4285   4.629   3.581   4.575  0.3156  0.0031 -0.6343
  242THF    H13 4286   4.566   3.419   4.603  1.1137  1.5847 -1.2796
  243THF     O1 4287   0.169   5.309   0.224 -0.4435  0.1781  0.0910
  243THF     C2 4288   0.194   5.420   0.304 -0.1458 -0.2265 -0.1369
  243THF     C3 4289   0.179   5.345   0.093  0.2128  0.2248  0.0362
  243THF     H4 4290   0.295   5.460   0.294 -0.9841  1.7373 -1.3208
  243THF     H5 4291   0.174   5.380   0.404 -1.1194 -2.6311 -1.2310
  243THF     H6 4292   0.279   5.342   0.050 -1.0434 -0.9821 -3.1782
  243THF     H7 4293   0.110   5.272   0.051 -2.0661  2.5622 -0.5333
  243THF     C8 4294   0.105   5.477   0.098 -0.1884 -0.2914 -0.6867
  243THF     C9 4295   0.089   5.512   0.245 -0.8194 -0.0662 -0.2724
  243THF    H10 4296   0.012   5.459   0.043 -0.5964  1.0977 -0.4776
  243THF    H11 4297   0.170   5.543   0.041 -1.2005  1.0512 -0.3246
  243THF    H12 4298   0.128   5.612   0.266 -0.3497 -0.3928  0.4410
  243THF    H13 4299  -0.006   5.494   0.295 -0.3459  1.5929  1.3868
  244THF     O1 4300   0.950   5.099   2.476 -0.0109 -0.0567 -0.0735
  244THF     C2 4301   1.034   5.140   2.369  0.4854  0.2684 -0.3553
  244THF     C3 4302   0.854   5.204   2.508  0.0611 -0.2721  0.0425
  244THF     H4 4303   1.062   5.051   2.313 -2.9102 -0.2553 -1.4712
  244THF     H5 4304   1.127   5.176   2.413 -1.0196  1.7203  1.8837
  244THF     H6 4305   0.773   5.151   2.557  2.0407 -4.4394 -0.6457
  244THF     H7 4306   0.892   5.285   2.571 -1.3856  0.5509 -0.1164
  244THF     C8 4307   0.812   5.244   2.367  0.0603  0.8425 -0.1119
  244THF     C9 4308   0.948   5.254   2.299 -0.1059  0.0096 -0.0702
  244THF    H10 4309   0.752   5.335   2.377  1.3585  1.5588  1.5480
  244THF    H11 4310   0.751   5.164   2.325  2.8363 -0.9551 -1.0037
  244THF    H12 4311   0.927   5.232   2.194  1.4388  0.2842 -0.4646
  244THF    H13 4312   0.998   5.350   2.311  0.8606 -0.7081  2.1261
  245THF     O1 4313   4.949   1.312   4.622  0.4234 -0.4941 -0.1979
  245THF     C2 4314   5.038   1.294   4.735 -0.2109  0.6406 -0.1772
  245THF     C3 4315   5.029   1.362   4.521  0.5750  0.2610  0.0994
  245THF     H4 4316   4.997   1.233   4.816 -1.2102  2.0318  0.4244
  245THF     H5 4317   5.054   1.395   4.774  1.0804  1.4117 -2.5422
  245THF     H6 4318   4.987   1.356   4.421 -0.7142  1.0094  0.5729
  245THF     H7 4319   5.040   1.469   4.538  0.2650  0.1865  0.8264
  245THF     C8 4320   5.159   1.283   4.529  0.2631  0.2329  0.4992
  245THF     C9 4321   5.166   1.238   4.673 -0.0531  0.8857 -0.2863
  245THF    H10 4322   5.244   1.335   4.485 -0.3661 -0.9766 -2.3561
  245THF    H11 4323   5.142   1.198   4.463  1.4819 -0.0753  0.5547
  245THF    H12 4324   5.171   1.129   4.676  0.5839  0.9244  0.4858
  245THF    H13 4325   5.257   1.277   4.720 -0.9383  2.5441  0.1119
  246THF     O1 4326   3.729   4.027   1.237 -0.2369  0.2098  0.0093
  246THF     C2 4327   3.832   4.117   1.214 -0.7782 -0.4678  0.3520
  246THF     C3 4328   3.734   3.963   1.364 -0.0024  0.9128 -0.1312
  246THF     H4 4329   3.801   4.222   1.214 -1.4726 -0.6631 -0.3669
  246THF     H5 4330   3.879   4.086   1.120  0.7737 -1.8571  1.5303
  246THF     H6 4331   3.638   3.959   1.415  0.1738  3.5173  0.5406
  246THF     H7 4332   3.772   3.863   1.343 -1.9756  0.4500 -1.8402
  246THF     C8 4333   3.832   4.052   1.442  0.5737 -0.0847 -0.7521
  246THF     C9 4334   3.926   4.092   1.331  0.1063 -0.4635 -0.1850
  246THF    H10 4335   3.891   3.999   1.516 -1.8779 -2.0977 -0.0801
  246THF    H11 4336   3.777   4.138   1.480  1.5162  0.3633 -0.3822
  246THF    H12 4337   3.971   4.186   1.362  0.2908 -0.5501 -0.1867
  246THF    H13 4338   3.998   4.012   1.311 -0.3410 -0.7785 -0.5425
  247THF     O1 4339   0.664   1.633   3.334 -0.5489  0.8349  0.1795
  247THF     C2 4340   0.529   1.658   3.318  0.8607 -0.4242 -0.2429
  247THF     C3 4341   0.707   1.665   3.469 -0.1322 -0.0471  0.6255
  247THF     H4 4342   0.475   1.565   3.299 -2.9556  1.1279  1.9786
  247THF     H5 4343   0.514   1.730   3.237 -2.6342 -0.1038  0.5430
  247THF     H6 4344   0.777   1.596   3.515  1.2737  2.2175  2.0909
  247THF     H7 4345   0.748   1.765   3.476  0.3147 -0.3475  3.8169
  247THF     C8 4346   0.581   1.670   3.548 -0.1885 -0.3554  0.0222
  247THF     C9 4347   0.471   1.710   3.451 -0.7463  0.1652  0.5470
  247THF    H10 4348   0.585   1.737   3.633 -1.3478  0.8054 -0.7985
  247THF    H11 4349   0.565   1.567   3.580 -2.2386 -0.1112 -0.1256
  247THF    H12 4350   0.372   1.677   3.484 -2.3354  3.0874 -0.9314
  247THF    H13 4351   0.456   1.815   3.430 -2.4342 -0.2585 -0.5874
  248THF     O1 4352   2.605   4.672   4.519  0.0544 -0.1471 -0.1698
  248THF     C2 4353   2.554   4.782   4.441  0.6048 -0.7555  0.2535
  248THF     C3 4354   2.492   4.616   4.591  0.8920 -1.3344 -0.0816
  248THF     H4 4355   2.622   4.801   4.358 -1.1646 -2.4942 -1.7054
  248THF     H5 4356   2.538   4.869   4.505 -0.8465 -0.0896 -0.9382
  248THF     H6 4357   2.518   4.523   4.641 -1.0998 -0.9213  1.8528
  248THF     H7 4358   2.462   4.677   4.676  2.0444 -0.1985 -0.4476
  248THF     C8 4359   2.381   4.618   4.486 -0.0964  0.6770 -0.1130
  248THF     C9 4360   2.411   4.736   4.393 -0.3369 -0.1095 -0.3755
  248THF    H10 4361   2.283   4.629   4.532 -0.2989 -1.6107  0.0841
  248THF    H11 4362   2.392   4.526   4.430 -2.2105  0.8839 -0.9446
  248THF    H12 4363   2.413   4.700   4.290 -0.7687 -2.3293  0.3267
  248THF    H13 4364   2.334   4.812   4.406 -1.2225 -1.2426  1.4539
  249THF     O1 4365   0.727   0.895   0.667  0.3167 -0.3927 -0.1030
  249THF     C2 4366   0.852   0.851   0.730  0.1338  0.2939 -0.3718
  249THF     C3 4367   0.651   0.979   0.763  0.1970 -0.7605 -0.0191
  249THF     H4 4368   0.929   0.829   0.656  1.1493 -0.9940  1.0170
  249THF     H5 4369   0.832   0.766   0.794 -1.3431  0.3045 -0.7758
  249THF     H6 4370   0.621   1.067   0.706 -0.0711 -0.5925  0.3757
  249THF     H7 4371   0.552   0.935   0.778  0.3074 -0.5416  1.4421
  249THF     C8 4372   0.747   1.005   0.877 -0.0196 -0.0071 -0.0246
  249THF     C9 4373   0.880   0.976   0.818  0.2498 -0.4977 -0.0071
  249THF    H10 4374   0.718   0.940   0.959 -0.0035 -0.3523 -0.2917
  249THF    H11 4375   0.754   1.111   0.902  2.8085 -0.1056 -0.0470
  249THF    H12 4376   0.919   1.064   0.767 -0.9749 -1.0051 -1.9231
  249THF    H13 4377   0.951   0.943   0.894 -0.3964 -0.6645  0.5274
  250THF     O1 4378   3.415   4.687   3.918 -0.1187  0.0267  0.1257
  250THF     C2 4379   3.499   4.766   3.992  0.0633 -0.1534 -0.4848
  250THF     C3 4380   3.461   4.553   3.925  0.2686 -0.5767  0.4576
  250THF     H4 4381   3.453   4.864   4.005  0.7061  0.1970 -0.7956
  250THF     H5 4382   3.594   4.776   3.939  1.5999 -1.4069  1.8314
  250THF     H6 4383   3.382   4.480   3.943  0.4164 -0.7410  0.4308
  250THF     H7 4384   3.518   4.528   3.836  0.8768  1.0425  0.3486
  250THF     C8 4385   3.543   4.546   4.056  0.7686 -0.8579  0.1932
  250THF     C9 4386   3.507   4.675   4.122 -0.6617  0.1924  0.1469
  250THF    H10 4387   3.648   4.564   4.031 -0.0449  1.1966 -2.1953
  250THF    H11 4388   3.534   4.455   4.115 -1.1993 -1.1297 -0.4604
  250THF    H12 4389   3.412   4.656   4.172 -1.4889 -0.1318 -1.4768
  250THF    H13 4390   3.591   4.696   4.188 -1.0330 -0.6028  0.8934
  251THF     O1 4391   0.097   2.904   3.991 -0.0997  0.0028 -0.2293
  251THF     C2 4392   0.205   2.888   4.079 -0.3845  0.0716  0.5312
  251THF     C3 4393   0.012   3.003   4.039  0.5138  1.0700 -0.6127
  251THF     H4 4394   0.291   2.840   4.031  0.0039  0.0696  1.2057
  251THF     H5 4395   0.184   2.825   4.166  1.5484  0.0488  1.0333
  251THF     H6 4396  -0.053   3.041   3.961  1.0713  1.0916 -1.0800
  251THF     H7 4397  -0.052   2.961   4.116 -1.6330  2.9451 -1.2904
  251THF     C8 4398   0.104   3.103   4.110 -0.0682 -0.5123 -0.5156
  251THF     C9 4399   0.241   3.031   4.123 -0.5436  0.3600  0.2410
  251THF    H10 4400   0.048   3.140   4.196 -1.4420 -3.2448 -0.1227
  251THF    H11 4401   0.113   3.192   4.048 -0.8770  0.1956  0.3530
  251THF    H12 4402   0.316   3.077   4.060 -1.9239  1.7846 -0.4448
  251THF    H13 4403   0.288   3.044   4.221  0.1667  0.4514 -0.1117
  252THF     O1 4404   3.240   3.965   4.083  0.1557  0.0132  0.2662
  252THF     C2 4405   3.350   3.964   3.991  0.0039  0.5432 -0.0072
  252THF     C3 4406   3.204   4.103   4.110 -0.4247  0.2178 -0.5314
  252THF     H4 4407   3.320   3.908   3.902  1.0547  0.2741 -0.2014
  252THF     H5 4408   3.423   3.905   4.046 -2.1223 -1.5571  0.7464
  252THF     H6 4409   3.096   4.100   4.128 -0.6009  0.4344 -1.5139
  252THF     H7 4410   3.265   4.155   4.183  0.7261  0.9479 -1.9515
  252THF     C8 4411   3.253   4.174   3.986 -0.7196 -0.4893 -0.2773
  252THF     C9 4412   3.390   4.109   3.962  0.3315 -0.0553 -0.5051
  252THF    H10 4413   3.266   4.282   3.994  2.2462 -0.6487 -1.6461
  252THF    H11 4414   3.189   4.161   3.899  0.4473  1.1443 -1.4424
  252THF    H12 4415   3.419   4.118   3.857  1.6171  0.1903 -0.1562
  252THF    H13 4416   3.466   4.139   4.035 -0.2618  0.5315 -0.1227
  253THF     O1 4417   0.552   1.139   4.749 -0.1905 -0.2051 -0.5166
  253THF     C2 4418   0.511   1.051   4.654  0.6213  0.0069 -0.2695
  253THF     C3 4419   0.606   1.071   4.861  0.2245  0.7839 -0.1097
  253THF     H4 4420   0.602   1.021   4.602  0.0515 -0.3531 -1.0790
  253THF     H5 4421   0.434   1.097   4.592 -0.5392  0.6661  1.5604
  253THF     H6 4422   0.710   1.040   4.851 -0.4236 -1.2255 -1.0340
  253THF     H7 4423   0.598   1.122   4.957  0.1181  0.3404  0.1196
  253THF     C8 4424   0.514   0.953   4.876 -0.0667 -0.7830 -0.5379
  253THF     C9 4425   0.456   0.940   4.735  0.3672  0.3799  0.7404
  253THF    H10 4426   0.429   0.987   4.935  0.8613 -0.2569  0.5278
  253THF    H11 4427   0.556   0.865   4.925  0.6579 -0.4351 -0.5183
  253THF    H12 4428   0.470   0.844   4.685  0.3661 -0.1048  1.6357
  253THF    H13 4429   0.348   0.956   4.738 -0.1122 -1.3150 -2.5679
  254THF     O1 4430   1.143   0.976   1.068  0.4937 -0.7066 -0.2293
  254THF     C2 4431   1.262   1.036   1.015 -1.1203  0.2524 -0.1278
  254THF     C3 4432   1.149   0.971   1.209 -0.2889 -0.2637 -0.1768
  254THF     H4 4433   1.222   1.130   0.978 -3.3864 -0.7549 -0.3875
  254THF     H5 4434   1.296   0.977   0.930  1.8106  2.4792 -0.6545
  254THF     H6 4435   1.047   0.999   1.237 -1.2740 -2.5283 -1.2498
  254THF     H7 4436   1.157   0.867   1.240 -0.5365  0.6816  3.4700
  254THF     C8 4437   1.256   1.068   1.261 -0.2344 -0.8629 -0.1478
  254THF     C9 4438   1.350   1.051   1.138 -0.2650 -0.4136  0.8089
  254THF    H10 4439   1.300   1.041   1.357  1.0706 -1.0612 -0.7945
  254THF    H11 4440   1.214   1.169   1.267 -1.0152 -1.1386 -0.8867
  254THF    H12 4441   1.415   1.137   1.121 -0.7107 -0.4546 -1.3859
  254THF    H13 4442   1.405   0.959   1.158  0.3801 -0.3273 -0.4248
  255THF     O1 4443   4.646   0.250   2.721  0.3362  0.6117  0.0300
  255THF     C2 4444   4.633   0.337   2.611 -0.1327  0.0336 -0.2064
  255THF     C3 4445   4.543   0.274   2.816  0.4556  0.5859 -0.1271
  255THF     H4 4446   4.620   0.282   2.518 -3.2287 -0.1430  0.2128
  255THF     H5 4447   4.716   0.404   2.591 -1.9373  2.1902 -0.9272
  255THF     H6 4448   4.497   0.179   2.846  1.6972  0.3094  0.9866
  255THF     H7 4449   4.585   0.332   2.898  0.7193 -0.3163  0.3936
  255THF     C8 4450   4.435   0.359   2.743  0.2477  0.0434 -0.6728
  255THF     C9 4451   4.507   0.421   2.623  0.1152  0.7929  0.0074
  255THF    H10 4452   4.388   0.437   2.804  0.0304  0.3722 -1.2567
  255THF    H11 4453   4.346   0.308   2.706 -0.0827 -0.2055  0.4108
  255THF    H12 4454   4.451   0.410   2.531  0.7025 -3.2564 -0.0637
  255THF    H13 4455   4.528   0.525   2.647  0.4630  0.7591 -0.1458
  256THF     O1 4456   3.192   3.898   1.144  0.2462 -0.3840 -0.1177
  256THF     C2 4457   3.237   3.969   1.265 -0.0814  0.4864  0.2081
  256THF     C3 4458   3.307   3.899   1.059  0.1908 -0.1004  0.0005
  256THF     H4 4459   3.268   3.888   1.331  1.0644  0.0557 -0.8139
  256THF     H5 4460   3.152   4.009   1.320 -0.3922 -3.1564  2.6946
  256THF     H6 4461   3.376   3.817   1.082  1.6651  1.6019  2.0976
  256THF     H7 4462   3.280   3.876   0.956  2.3159  0.8327 -0.8246
  256THF     C8 4463   3.376   4.031   1.076  0.4831 -0.8387  0.2919
  256THF     C9 4464   3.353   4.067   1.221 -0.4834  0.1055  0.3812
  256THF    H10 4465   3.316   4.095   1.012  2.6012 -1.3145 -2.3513
  256THF    H11 4466   3.477   4.027   1.036  0.0429 -0.0036 -0.9661
  256THF    H12 4467   3.438   4.061   1.289 -0.2504  0.6825  0.1507
  256THF    H13 4468   3.321   4.170   1.235  0.7845  0.5046  0.4573
  257THF     O1 4469   2.051   2.474   3.974  0.4558  0.2001  0.3561
  257THF     C2 4470   2.140   2.402   4.064 -0.1854 -0.4821 -0.0479
  257THF     C3 4471   1.957   2.541   4.062  0.5055 -0.9158  0.2601
  257THF     H4 4472   2.227   2.468   4.071  0.5122 -1.5213  2.3935
  257THF     H5 4473   2.174   2.312   4.013  0.6741  0.3119 -0.9107
  257THF     H6 4474   2.018   2.627   4.090 -0.0756 -0.1820 -0.6581
  257THF     H7 4475   1.864   2.573   4.014  0.7790 -4.4585 -3.0754
  257THF     C8 4476   1.935   2.447   4.174  0.1725  0.1490 -0.2038
  257THF     C9 4477   2.067   2.391   4.198 -0.7994 -0.1884  0.2211
  257THF    H10 4478   1.871   2.365   4.142 -1.0309  1.1712 -0.4976
  257THF    H11 4479   1.889   2.492   4.262 -1.5751 -0.7521 -0.6148
  257THF    H12 4480   2.118   2.427   4.287  1.4669 -2.4008 -0.0679
  257THF    H13 4481   2.051   2.285   4.216 -1.6441 -0.2377 -0.7453
  258THF     O1 4482   4.205   0.900   2.280  0.4387 -0.1644  0.0725
  258THF     C2 4483   4.254   1.028   2.230 -0.4463  0.4678 -0.1135
  258THF     C3 4484   4.265   0.801   2.201  0.7198 -0.4117 -0.1254
  258THF     H4 4485   4.356   1.044   2.266 -0.0401  0.3434 -1.1630
  258THF     H5 4486   4.192   1.109   2.267  0.8278  0.2705  2.6844
  258THF     H6 4487   4.366   0.794   2.240  0.6751  1.1580  0.3612
  258THF     H7 4488   4.205   0.712   2.219 -2.4667  2.0078  2.3554
  258THF     C8 4489   4.245   0.858   2.066  0.5092  0.0157 -0.1148
  258THF     C9 4490   4.239   1.011   2.078  0.2954  0.0634  0.0210
  258THF    H10 4491   4.147   0.819   2.039 -0.3429  0.7865  1.7315
  258THF    H11 4492   4.320   0.842   1.988 -2.0447 -2.4759 -2.3014
  258THF    H12 4493   4.306   1.074   2.018 -0.5558  0.8760 -0.1010
  258THF    H13 4494   4.142   1.049   2.047  0.3964  0.3460  0.0449
  259THF     O1 4495   2.582   1.536   1.588 -0.1996  0.4669 -0.2658
  259THF     C2 4496   2.564   1.419   1.670 -0.8715 -0.0498 -0.2274
  259THF     C3 4497   2.504   1.636   1.635  0.2486 -0.0205 -0.2034
  259THF     H4 4498   2.663   1.376   1.660 -1.1950 -0.7137 -0.7055
  259THF     H5 4499   2.484   1.354   1.632 -2.6560  0.3984  2.4680
  259THF     H6 4500   2.537   1.733   1.597  1.8389 -0.3323  0.3393
  259THF     H7 4501   2.400   1.618   1.608  0.4420  1.2178 -1.9694
  259THF     C8 4502   2.521   1.623   1.786  0.6511  0.7526  0.1057
  259THF     C9 4503   2.537   1.472   1.808 -0.2916  0.6219 -0.0590
  259THF    H10 4504   2.433   1.666   1.834 -0.5145 -0.7076 -0.6423
  259THF    H11 4505   2.608   1.669   1.833  2.8140 -3.4046  0.6591
  259THF    H12 4506   2.616   1.453   1.881 -1.6651 -0.2615  1.2613
  259THF    H13 4507   2.449   1.428   1.856 -0.1128  0.9906  0.6208
  260THF     O1 4508   0.337   3.024   1.567 -0.0529 -0.0067  0.2920
  260THF     C2 4509   0.405   2.913   1.627 -0.4567 -0.0810 -0.5631
  260THF     C3 4510   0.331   3.130   1.659 -0.3638 -0.3771 -1.0117
  260THF     H4 4511   0.512   2.915   1.605 -0.2531  0.5462  0.4274
  260THF     H5 4512   0.367   2.821   1.582 -0.6144  0.2526 -1.1277
  260THF     H6 4513   0.434   3.162   1.673 -0.1594 -1.3219 -0.2505
  260THF     H7 4514   0.267   3.215   1.634  0.9141  0.7781 -0.4784
  260THF     C8 4515   0.303   3.061   1.788  0.0983  0.1822  0.0802
  260THF     C9 4516   0.375   2.923   1.777 -0.4335  0.0656 -0.5504
  260THF    H10 4517   0.195   3.057   1.806  0.3160 -0.1268  1.4306
  260THF    H11 4518   0.344   3.122   1.868  0.1569 -0.8074  0.8253
  260THF    H12 4519   0.472   2.924   1.827  0.0800  0.6990 -1.5096
  260THF    H13 4520   0.320   2.841   1.821 -0.1890 -0.0364 -0.4312
  261THF     O1 4521   4.675   4.915   1.083 -0.5607  0.1080  0.1279
  261THF     C2 4522   4.588   5.016   1.132  0.1791  0.0795  0.2021
  261THF     C3 4523   4.643   4.791   1.142 -0.7418 -0.1874 -0.4654
  261THF     H4 4524   4.530   5.045   1.044  1.6888  1.4500 -0.3789
  261THF     H5 4525   4.655   5.098   1.157  0.1846 -0.1439  0.9408
  261THF     H6 4526   4.660   4.711   1.070  2.1448  0.2430 -0.3886
  261THF     H7 4527   4.711   4.783   1.227 -0.0366  0.9968 -0.8889
  261THF     C8 4528   4.501   4.809   1.189  0.0646 -0.0962  0.3509
  261THF     C9 4529   4.503   4.951   1.239 -0.6212  0.0307  0.5480
  261THF    H10 4530   4.472   4.736   1.265  3.3904 -3.8316 -1.6377
  261THF    H11 4531   4.436   4.787   1.105 -0.1888 -2.4909  1.1054
  261THF    H12 4532   4.402   4.993   1.246 -1.4539 -1.3198 -2.0404
  261THF    H13 4533   4.556   4.974   1.332  1.2780  2.2634 -0.9720
  262THF     O1 4534   1.343   1.022   4.063 -0.0966  0.1597  0.3085
  262THF     C2 4535   1.374   1.151   4.100 -0.3894 -0.2307  0.2164
  262THF     C3 4536   1.399   0.927   4.158 -0.1537  0.8571 -0.6222
  262THF     H4 4537   1.280   1.206   4.101 -0.9491 -1.1762  0.4576
  262THF     H5 4538   1.437   1.198   4.024  2.0641 -2.7468  0.5497
  262THF     H6 4539   1.320   0.900   4.227  1.6528 -3.5329  0.0745
  262THF     H7 4540   1.427   0.827   4.127 -1.3259 -0.3314  1.8801
  262THF     C8 4541   1.508   0.989   4.230 -0.1626 -0.3149  0.6153
  262THF     C9 4542   1.450   1.136   4.230 -0.6695 -0.0781  0.1796
  262THF    H10 4543   1.599   0.973   4.173  1.1681  0.9372  2.3000
  262THF    H11 4544   1.521   0.961   4.334  2.0171  0.0575  0.4928
  262THF    H12 4545   1.380   1.138   4.314 -1.0721 -0.7288 -0.1330
  262THF    H13 4546   1.523   1.213   4.253 -0.8317  0.5121 -1.1531
  263THF     O1 4547   5.032   3.779   0.171  0.5946 -0.2273  0.2919
  263THF     C2 4548   4.949   3.891   0.200  0.7529 -0.2480 -0.1586
  263THF     C3 4549   5.061   3.784   0.030  0.7026  0.2747 -0.4763
  263THF     H4 4550   5.003   3.985   0.191  0.6257 -0.2843 -1.5468
  263THF     H5 4551   4.902   3.896   0.298  1.2635 -1.2593  0.1548
  263THF     H6 4552   5.129   3.869   0.019  1.1193 -0.0056 -0.0890
  263THF     H7 4553   5.106   3.688   0.004 -1.4813 -1.5878  2.0578
  263THF     C8 4554   4.933   3.820  -0.040  0.2163 -0.0971 -0.8447
  263THF     C9 4555   4.856   3.872   0.085 -0.5504  0.8135  0.1001
  263THF    H10 4556   4.883   3.732  -0.079 -2.7625  0.4245  1.4621
  263THF    H11 4557   4.941   3.900  -0.114 -0.2937  0.2654 -0.5137
  263THF    H12 4558   4.795   3.961   0.071 -0.4615  0.7503 -0.7431
  263THF    H13 4559   4.778   3.802   0.112 -2.3532  2.8483  0.4607
  264THF     O1 4560   5.314   3.716   0.892 -0.0118  0.0309  0.3470
  264THF     C2 4561   5.287   3.817   0.985 -0.1159  0.5325 -0.3234
  264THF     C3 4562   5.328   3.595   0.960  0.1968 -0.3181 -0.6515
  264THF     H4 4563   5.231   3.899   0.940 -4.2911 -0.9361  1.5935
  264THF     H5 4564   5.378   3.854   1.031  0.0505 -1.1004  0.7557
  264THF     H6 4565   5.306   3.512   0.892  1.2709  0.2780 -1.7566
  264THF     H7 4566   5.433   3.587   0.988 -0.2540 -0.2118  1.2461
  264THF     C8 4567   5.240   3.599   1.081 -0.8292 -1.0743  0.0592
  264THF     C9 4568   5.197   3.742   1.094 -0.2515  0.2149  0.3408
  264THF    H10 4569   5.290   3.560   1.169  1.3751 -0.2018 -0.7300
  264THF    H11 4570   5.146   3.544   1.076 -1.2829 -0.2873 -0.3112
  264THF    H12 4571   5.090   3.744   1.078 -0.0017  3.4740 -1.7490
  264THF    H13 4572   5.216   3.782   1.194 -0.4916  2.4659 -0.4776
  265THF     O1 4573   3.678   1.961   4.212  0.9741  0.1502  0.0066
  265THF     C2 4574   3.660   2.058   4.108 -0.0095 -0.1842 -0.0422
  265THF     C3 4575   3.584   1.856   4.200  0.4310 -0.4572  0.2356
  265THF     H4 4576   3.758   2.082   4.066  1.9724 -2.3847  2.8859
  265THF     H5 4577   3.619   2.149   4.153  0.0205 -0.0084 -0.3645
  265THF     H6 4578   3.637   1.768   4.165  1.0513  0.6931 -1.8867
  265THF     H7 4579   3.533   1.836   4.294  0.7618  1.5949  0.9049
  265THF     C8 4580   3.489   1.896   4.085  0.4008 -0.7218 -0.2995
  265THF     C9 4581   3.569   1.989   4.009 -0.4158 -0.2710  0.3014
  265THF    H10 4582   3.401   1.946   4.126  1.4852  0.9829  0.0657
  265THF    H11 4583   3.443   1.814   4.030 -0.4567  0.2799 -1.1395
  265THF    H12 4584   3.627   1.926   3.942 -1.4207  0.5759 -1.4409
  265THF    H13 4585   3.513   2.062   3.951  3.7133  1.6950 -1.6995
  266THF     O1 4586   2.396   1.376   1.141 -0.6010 -0.0749  0.5552
  266THF     C2 4587   2.451   1.303   1.032  0.8064  0.0889  0.0319
  266THF     C3 4588   2.260   1.380   1.126  0.0417 -0.2645 -0.1007
  266THF     H4 4589   2.500   1.213   1.070  1.7900  0.9347  0.8317
  266THF     H5 4590   2.523   1.372   0.987  1.1959 -0.8859 -0.8980
  266THF     H6 4591   2.231   1.294   1.187  2.6372  0.3673  2.2096
  266THF     H7 4592   2.204   1.460   1.176  2.9567  1.9353 -0.0968
  266THF     C8 4593   2.229   1.365   0.975  0.2824  0.2666 -1.2583
  266THF     C9 4594   2.340   1.269   0.933  0.2794  0.3882 -0.0353
  266THF    H10 4595   2.231   1.459   0.920 -0.4529  0.3356 -1.1738
  266THF    H11 4596   2.137   1.309   0.955  1.1622 -2.5292  1.7164
  266THF    H12 4597   2.306   1.166   0.939 -1.2794  0.9220  1.1886
  266THF    H13 4598   2.380   1.285   0.833  0.7177 -1.9165 -0.2671
  267THF     O1 4599   2.205   5.140   5.401  0.3719 -0.1205 -0.4552
  267THF     C2 4600   2.091   5.124   5.310  0.0149 -0.3312  0.7552
  267THF     C3 4601   2.315   5.181   5.324 -0.3843 -0.7415 -0.3104
  267THF     H4 4602   1.993   5.126   5.358 -0.4044  2.2490 -0.0471
  267THF     H5 4603   2.110   5.029   5.261  3.0268  0.9238 -0.7362
  267THF     H6 4604   2.385   5.237   5.386 -1.4876 -0.9504  1.1672
  267THF     H7 4605   2.365   5.090   5.291 -1.4791 -0.8059 -1.8978
  267THF     C8 4606   2.265   5.250   5.195 -0.2911 -0.5329  0.1418
  267THF     C9 4607   2.113   5.246   5.215 -0.4229  0.6326 -0.3562
  267THF    H10 4608   2.288   5.194   5.105  2.2111  0.2558  0.2088
  267THF    H11 4609   2.306   5.350   5.182  0.4317 -1.0736 -2.1627
  267THF    H12 4610   2.072   5.340   5.251 -3.2619  1.0540 -4.1040
  267THF    H13 4611   2.066   5.243   5.117 -2.3912  2.2400  0.4781
  268THF     O1 4612   4.920   1.143   1.459 -0.0421  0.1782 -0.1262
  268THF     C2 4613   4.912   1.257   1.540 -0.7511 -0.0350  0.5554
  268THF     C3 4614   4.926   1.176   1.320 -0.5530  0.1546  0.7053
  268THF     H4 4615   5.003   1.318   1.530 -0.4575 -0.2586  1.7332
  268THF     H5 4616   4.898   1.258   1.648 -1.1022  1.4213  0.5151
  268THF     H6 4617   5.029   1.184   1.282 -1.4825 -1.2317 -2.5161
  268THF     H7 4618   4.895   1.089   1.261 -3.1841 -0.4186  2.7621
  268THF     C8 4619   4.845   1.303   1.309  0.5950  0.0515  0.2621
  268THF     C9 4620   4.816   1.338   1.456  0.1848 -0.2505  0.0069
  268THF    H10 4621   4.748   1.289   1.260  0.3932 -1.0995  0.9472
  268THF    H11 4622   4.894   1.387   1.260  0.9212 -0.3667 -0.1467
  268THF    H12 4623   4.831   1.445   1.466 -0.3492 -0.2471  0.8836
  268THF    H13 4624   4.716   1.298   1.472  0.0351  0.7581  1.8599
  269THF     O1 4625   3.652   4.863   3.615  0.0982 -0.1891 -0.0356
  269THF     C2 4626   3.719   4.986   3.654  0.5754  0.2929  0.3279
  269THF     C3 4627   3.754   4.761   3.606  0.1985 -0.5597  0.3557
  269THF     H4 4628   3.753   4.981   3.758  1.0642  0.9026  0.2025
  269THF     H5 4629   3.658   5.075   3.657 -0.6652 -0.5448  2.3324
  269THF     H6 4630   3.786   4.731   3.705  0.1346  1.9167  1.1899
  269THF     H7 4631   3.734   4.667   3.554  1.7977 -0.8173  0.1566
  269THF     C8 4632   3.861   4.840   3.533 -0.2259 -0.1541  0.6859
  269THF     C9 4633   3.839   4.990   3.566 -0.1075 -0.0310 -0.4224
  269THF    H10 4634   3.865   4.829   3.424 -1.9321 -0.5913  0.6310
  269THF    H11 4635   3.961   4.800   3.550 -0.0156 -0.3609 -0.8643
  269THF    H12 4636   3.931   5.023   3.614  0.7110 -1.9422 -0.5804
  269THF    H13 4637   3.818   5.065   3.489  0.2452  0.3905 -0.1127
  270THF     O1 4638   3.661   0.198   3.621  0.2900 -0.2896 -0.2365
  270THF     C2 4639   3.660   0.126   3.739 -0.1232  0.1278  0.5409
  270THF     C3 4640   3.521   0.244   3.612 -0.4062 -0.9770 -0.1438
  270THF     H4 4641   3.764   0.110   3.769 -0.6619 -2.2790  1.3652
  270THF     H5 4642   3.626   0.025   3.714  1.6567 -0.5301  0.6376
  270THF     H6 4643   3.511   0.347   3.579  0.2824 -0.4712  1.1700
  270THF     H7 4644   3.463   0.182   3.543 -0.7864  0.5507 -1.2342
  270THF     C8 4645   3.454   0.239   3.757  0.0826 -0.1161  0.0147
  270THF     C9 4646   3.574   0.199   3.842 -0.2709 -0.1708  0.7961
  270THF    H10 4647   3.375   0.164   3.755  0.1090 -0.1257 -1.7021
  270THF    H11 4648   3.411   0.335   3.788 -1.5090 -1.1226  1.1039
  270THF    H12 4649   3.614   0.298   3.864 -0.0877  0.4569 -1.9928
  270THF    H13 4650   3.564   0.158   3.942  2.4779  1.2614  1.7616
  271THF     O1 4651   3.047   0.014   2.379 -0.2422 -0.3085  0.7709
  271THF     C2 4652   3.102   0.126   2.306 -0.4580 -0.0110  0.4037
  271THF     C3 4653   3.148  -0.092   2.375  0.3310 -0.0088  0.5670
  271THF     H4 4654   3.162   0.189   2.372  0.5264 -2.5380  2.0822
  271THF     H5 4655   3.024   0.188   2.262 -0.2318  1.3024  1.7849
  271THF     H6 4656   3.223  -0.086   2.454 -1.2124 -0.2588  2.1234
  271THF     H7 4657   3.111  -0.194   2.379 -0.5068  0.2695  0.2287
  271THF     C8 4658   3.222  -0.065   2.245 -0.3297  0.3648 -0.0293
  271THF     C9 4659   3.193   0.074   2.203 -0.2590 -0.3491 -0.1000
  271THF    H10 4660   3.196  -0.138   2.168 -0.0974  0.4673 -0.2065
  271THF    H11 4661   3.329  -0.063   2.268 -0.1453  0.0561 -0.8211
  271THF    H12 4662   3.285   0.130   2.186  0.3141 -1.6900 -1.7698
  271THF    H13 4663   3.148   0.070   2.104 -0.2448  0.1731 -0.1309
  272THF     O1 4664   1.103   0.550   1.815 -0.4727  0.1788  0.0454
  272THF     C2 4665   1.143   0.639   1.919 -0.2504 -0.6739  0.3844
  272THF     C3 4666   1.141   0.419   1.852  0.0446  0.5237 -0.1621
  272THF     H4 4667   1.073   0.722   1.918  0.0487 -0.4131 -0.8600
  272THF     H5 4668   1.242   0.681   1.902 -1.2015  1.7724  0.4748
  272THF     H6 4669   1.080   0.345   1.801 -0.5984  1.0693 -0.1910
  272THF     H7 4670   1.243   0.386   1.835 -0.4614 -2.7030  2.2027
  272THF     C8 4671   1.098   0.416   1.991  0.2844 -0.1770  0.5105
  272THF     C9 4672   1.128   0.555   2.046 -0.4207 -0.1138  0.3113
  272THF    H10 4673   1.134   0.339   2.059 -0.7906 -0.6473  0.5803
  272THF    H11 4674   0.990   0.397   1.993  0.3513 -0.9609 -1.5360
  272THF    H12 4675   1.054   0.596   2.114 -0.4914  1.8697 -0.8803
  272THF    H13 4676   1.225   0.554   2.096 -0.0143  1.0702 -0.4218
  273THF     O1 4677   2.236   2.784   3.912 -0.2259  0.3121  0.1918
  273THF     C2 4678   2.212   2.902   3.836  0.2601  0.7192  0.2764
  273THF     C3 4679   2.292   2.683   3.827  0.1557  0.0251  0.6952
  273THF     H4 4680   2.213   2.992   3.896 -0.1456  0.4841  0.6435
  273THF     H5 4681   2.118   2.901   3.780  0.3878  3.2061 -0.1010
  273THF     H6 4682   2.354   2.618   3.889  0.2614  0.0552  0.6210
  273THF     H7 4683   2.207   2.637   3.776  0.2435  0.6967 -0.0773
  273THF     C8 4684   2.370   2.762   3.725 -0.1969 -0.2857 -0.1301
  273THF     C9 4685   2.324   2.901   3.739 -0.4429 -0.4226 -0.1649
  273THF    H10 4686   2.366   2.721   3.624  1.4647 -1.0389  0.0663
  273THF    H11 4687   2.470   2.750   3.767 -0.4966 -1.1126  0.3734
  273THF    H12 4688   2.404   2.968   3.773 -0.1250  0.0936 -1.8173
  273THF    H13 4689   2.288   2.940   3.644 -0.5513  1.9573  0.7773
  274THF     O1 4690   4.942   2.910   0.727 -0.0198 -0.0205  0.0067
  274THF     C2 4691   4.974   2.987   0.613  0.3431  0.0123  0.2706
  274THF     C3 4692   5.053   2.843   0.783 -0.2405 -0.3977  0.1476
  274THF     H4 4693   4.967   3.091   0.645  1.5616  0.7873 -1.7237
  274THF     H5 4694   4.889   2.966   0.547  0.6353 -0.1861 -0.0487
  274THF     H6 4695   5.098   2.911   0.855  0.3078 -0.2927 -0.2870
  274THF     H7 4696   5.021   2.758   0.843  0.5626 -0.5752  0.3425
  274THF     C8 4697   5.129   2.805   0.657 -0.5678 -0.3967  0.7377
  274THF     C9 4698   5.104   2.930   0.569  0.4697 -0.6609  0.6197
  274THF    H10 4699   5.107   2.707   0.613  0.2811 -0.9121  1.4343
  274THF    H11 4700   5.234   2.807   0.686 -0.7468 -2.2754  1.6596
  274THF    H12 4701   5.181   3.002   0.597  2.1564 -1.5218 -1.4813
  274THF    H13 4702   5.122   2.909   0.463 -2.3813  0.8066 -0.2635
  275THF     O1 4703   5.458   1.930   3.708  0.1785  0.5253  0.4890
  275THF     C2 4704   5.594   1.907   3.690 -0.4982  0.1771 -0.0094
  275THF     C3 4705   5.443   2.074   3.711 -0.4122 -0.2731 -0.5314
  275THF     H4 4706   5.615   1.808   3.651  1.0136  1.1190 -1.7201
  275THF     H5 4707   5.633   1.897   3.791  0.4525 -0.5578 -0.4375
  275THF     H6 4708   5.344   2.118   3.702  0.1823  1.5131  1.0275
  275THF     H7 4709   5.466   2.103   3.814 -2.1856  2.6763 -0.8435
  275THF     C8 4710   5.546   2.131   3.617  0.2434  0.4103 -0.4478
  275THF     C9 4711   5.657   2.025   3.623 -0.4619  0.1701  0.0031
  275THF    H10 4712   5.595   2.221   3.654  0.6111  0.0475 -0.0355
  275THF    H11 4713   5.497   2.131   3.519 -1.4292  2.0166  0.3316
  275THF    H12 4714   5.695   2.006   3.523 -1.0585  0.5205 -0.2948
  275THF    H13 4715   5.744   2.051   3.684 -0.6742 -1.3496  1.0191
  276THF     O1 4716   2.775   2.091   0.966  0.8430 -0.3649 -0.3715
  276THF     C2 4717   2.643   2.057   0.925 -0.8616  0.6141  0.2025
  276THF     C3 4718   2.816   2.207   0.891  0.2506 -0.0410  0.1604
  276THF     H4 4719   2.579   2.121   0.986 -0.6760  1.8989 -0.9198
  276THF     H5 4720   2.633   1.949   0.934  1.4483  0.4114  1.1158
  276THF     H6 4721   2.796   2.292   0.956  0.3670  0.0486  0.0801
  276THF     H7 4722   2.923   2.206   0.871  0.0909 -0.0173 -0.7342
  276THF     C8 4723   2.731   2.220   0.769 -0.1246 -0.3449 -0.7047
  276THF     C9 4724   2.645   2.092   0.779  0.3161  0.3177 -0.3858
  276THF    H10 4725   2.792   2.230   0.679  1.8607  2.3382  0.7706
  276THF    H11 4726   2.663   2.306   0.766 -2.3285 -1.9591  0.2319
  276THF    H12 4727   2.548   2.108   0.732  0.9907  1.7160 -1.3580
  276THF    H13 4728   2.681   2.011   0.715 -0.4814  0.9650 -1.6892
  277THF     O1 4729   1.728   0.468   3.701  0.3297  0.0679  0.7162
  277THF     C2 4730   1.688   0.421   3.825  0.1474  0.1540  0.1167
  277THF     C3 4731   1.871   0.473   3.702 -0.3960  0.3680 -0.2027
  277THF     H4 4732   1.582   0.394   3.827 -0.3290  1.6899 -1.6108
  277THF     H5 4733   1.699   0.499   3.901  0.2972 -0.3524  0.6169
  277THF     H6 4734   1.912   0.459   3.602 -0.8946 -1.2314 -0.2098
  277THF     H7 4735   1.921   0.553   3.756  0.7636  0.8495 -1.8961
  277THF     C8 4736   1.909   0.346   3.776 -0.0476  0.0230 -0.8065
  277THF     C9 4737   1.789   0.308   3.854  0.3355  0.3400 -0.1560
  277THF    H10 4738   1.996   0.377   3.834 -1.4804  1.6457  0.5687
  277THF    H11 4739   1.950   0.268   3.712  0.5007  1.2656 -2.0288
  277THF    H12 4740   1.741   0.219   3.812  0.9290 -1.5724  2.9499
  277THF    H13 4741   1.816   0.296   3.958  0.1081 -0.3726 -0.1787
  278THF     O1 4742   5.459   4.619   3.840 -0.6475 -0.6145 -0.1355
  278THF     C2 4743   5.359   4.719   3.826  0.0308 -0.4040  1.0393
  278THF     C3 4744   5.580   4.657   3.764 -0.3602 -0.0500 -0.7504
  278THF     H4 4745   5.376   4.792   3.905 -0.7958  1.8312 -0.7416
  278THF     H5 4746   5.263   4.669   3.840  0.0483 -1.0733 -0.9116
  278THF     H6 4747   5.642   4.718   3.829 -0.9308 -1.0182  0.7435
  278THF     H7 4748   5.636   4.570   3.729  0.3794  1.0990 -2.6027
  278THF     C8 4749   5.525   4.737   3.644  0.4525 -0.0968  0.0044
  278THF     C9 4750   5.377   4.785   3.685 -0.2879  0.4446 -0.2268
  278THF    H10 4751   5.517   4.666   3.561  2.0959 -1.2803  0.8055
  278THF    H11 4752   5.595   4.819   3.631 -1.6954  2.0036  1.0647
  278THF    H12 4753   5.367   4.893   3.696 -0.0370  0.6135 -1.5015
  278THF    H13 4754   5.303   4.751   3.613  0.9069 -0.3245 -1.1322
  279THF     O1 4755   2.297   2.713   4.425  0.9660  0.8079  0.4706
  279THF     C2 4756   2.241   2.704   4.295  0.4175  0.2523  0.4618
  279THF     C3 4757   2.319   2.844   4.469  0.1236  0.1402  0.0942
  279THF     H4 4758   2.144   2.653   4.300  0.2795  0.2589 -1.4792
  279THF     H5 4759   2.311   2.652   4.230  1.7440 -0.5155  2.4199
  279THF     H6 4760   2.333   2.849   4.577  1.2301  0.4498 -0.0473
  279THF     H7 4761   2.420   2.850   4.428  0.5468 -2.6099  0.5305
  279THF     C8 4762   2.204   2.918   4.394 -0.5277  0.6776  0.1010
  279THF     C9 4763   2.212   2.849   4.255  0.1604  0.5576  0.2618
  279THF    H10 4764   2.222   3.025   4.395  2.9052  0.2393 -0.8166
  279THF    H11 4765   2.111   2.888   4.442  0.2826  0.8504  1.8858
  279THF    H12 4766   2.123   2.867   4.194 -0.9663 -2.6745  0.7348
  279THF    H13 4767   2.301   2.897   4.215  0.9678  0.6590  2.1055
  280THF     O1 4768   4.751   0.546   4.753 -0.1073 -0.2626  0.5898
  280THF     C2 4769   4.763   0.516   4.617 -0.1243 -0.1302 -0.0473
  280THF     C3 4770   4.825   0.442   4.828  0.1012 -0.0343 -0.5195
  280THF     H4 4771   4.742   0.599   4.550  2.9950 -0.5181 -1.7031
  280THF     H5 4772   4.691   0.444   4.579 -1.0073  0.3287  0.7083
  280THF     H6 4773   4.847   0.482   4.927 -1.4253  1.1911 -0.6257
  280THF     H7 4774   4.765   0.351   4.832  0.1430 -0.0258  0.6438
  280THF     C8 4775   4.943   0.414   4.738  0.0762  0.6934 -0.8577
  280THF     C9 4776   4.905   0.465   4.599  0.1059 -0.8898  0.0890
  280THF    H10 4777   4.951   0.305   4.739  0.6104  0.7162 -1.7694
  280THF    H11 4778   5.043   0.445   4.770 -1.0554  0.9716  2.9251
  280THF    H12 4779   4.970   0.545   4.564 -0.2580 -0.5891  0.0954
  280THF    H13 4780   4.906   0.390   4.520  1.6205  0.8888 -1.6873
  281THF     O1 4781   1.170   0.853   3.650  0.2626  0.0088 -0.1789
  281THF     C2 4782   1.044   0.783   3.639 -0.3789 -0.9501  0.5397
  281THF     C3 4783   1.201   0.914   3.527 -0.7968 -0.0666 -0.1333
  281THF     H4 4784   1.016   0.750   3.739  1.2089 -0.1971  1.2848
  281THF     H5 4785   1.056   0.692   3.581  1.7876  0.0730 -0.7774
  281THF     H6 4786   1.260   1.004   3.545  2.0579 -2.1353  1.7636
  281THF     H7 4787   1.251   0.854   3.451 -0.3593  1.1030 -0.7949
  281THF     C8 4788   1.063   0.961   3.476 -0.0327  0.6005 -0.8854
  281THF     C9 4789   0.966   0.894   3.577 -0.2955  0.5113  0.5583
  281THF    H10 4790   1.039   0.923   3.377 -1.3983  0.3496 -0.4734
  281THF    H11 4791   1.048   1.069   3.481 -0.8944  0.4844 -0.7159
  281THF    H12 4792   0.959   0.971   3.654 -1.1405 -1.6248  2.7381
  281THF    H13 4793   0.870   0.861   3.539  0.5721 -0.8794 -0.5147
  282THF     O1 4794   2.838   3.210   2.636 -0.4930 -0.4587  0.3838
  282THF     C2 4795   2.873   3.116   2.739 -0.1387 -0.4072  0.1303
  282THF     C3 4796   2.742   3.142   2.557 -0.7328  0.3983  0.0715
  282THF     H4 4797   2.910   3.170   2.826 -2.0155 -1.7295  1.8271
  282THF     H5 4798   2.940   3.040   2.699 -2.3791 -1.9956 -0.8132
  282THF     H6 4799   2.690   3.212   2.492  1.5156  0.4880 -1.7559
  282THF     H7 4800   2.780   3.066   2.488 -0.0774  0.1057  0.7513
  282THF     C8 4801   2.641   3.096   2.663 -0.2158  0.0273 -0.3062
  282THF     C9 4802   2.734   3.049   2.772 -0.6236  0.1406  0.5271
  282THF    H10 4803   2.579   3.016   2.621 -0.1351 -0.1471 -0.0941
  282THF    H11 4804   2.579   3.180   2.695  0.6373  0.6397 -0.2292
  282THF    H12 4805   2.706   3.078   2.873  1.5150  1.2460  0.8541
  282THF    H13 4806   2.740   2.941   2.787 -1.3359 -0.2376 -1.5617
  283THF     O1 4807   2.289   1.717   5.487  0.0200 -0.4532  0.2492
  283THF     C2 4808   2.239   1.583   5.499 -0.7362  0.0400 -0.3149
  283THF     C3 4809   2.360   1.752   5.612  0.4833  0.9352  0.3240
  283THF     H4 4810   2.277   1.519   5.420 -0.0391  0.1692 -0.0950
  283THF     H5 4811   2.131   1.596   5.496 -1.1696 -2.9820  0.0178
  283THF     H6 4812   2.446   1.815   5.586  0.4329  0.4067 -1.2238
  283THF     H7 4813   2.300   1.816   5.677 -2.4607 -1.6156  0.3068
  283THF     C8 4814   2.398   1.623   5.684  0.1483  0.4873 -0.5767
  283THF     C9 4815   2.280   1.538   5.646 -0.3678 -0.0799  0.5709
  283THF    H10 4816   2.421   1.644   5.789  3.3527  0.6130 -1.2077
  283THF    H11 4817   2.491   1.583   5.642 -0.2488 -0.4444 -0.5991
  283THF    H12 4818   2.298   1.431   5.637 -2.3202 -0.3023 -1.6493
  283THF    H13 4819   2.198   1.550   5.716  0.1785 -1.3308  1.4640
  284THF     O1 4820   1.645   2.916   0.386  0.0824  0.0218  0.0553
  284THF     C2 4821   1.762   2.980   0.333  0.1454 -0.0655 -0.2123
  284THF     C3 4822   1.677   2.813   0.480 -0.1462 -0.1986  0.6321
  284THF     H4 4823   1.794   3.043   0.415  4.1258 -0.8491 -0.9834
  284THF     H5 4824   1.745   3.035   0.240 -3.4210  0.3998  0.5557
  284THF     H6 4825   1.655   2.843   0.582  1.0802 -3.2097  1.9011
  284THF     H7 4826   1.609   2.728   0.469 -0.5399  0.3490 -1.6885
  284THF     C8 4827   1.832   2.779   0.458 -0.3326  0.0986  0.1478
  284THF     C9 4828   1.867   2.864   0.332 -0.0209 -0.2208 -0.2099
  284THF    H10 4829   1.857   2.674   0.443 -1.7690 -0.5381  1.8537
  284THF    H11 4830   1.896   2.812   0.540 -0.4098 -0.2344  0.3426
  284THF    H12 4831   1.969   2.902   0.328  0.3132 -1.0198  0.3619
  284THF    H13 4832   1.843   2.800   0.248 -1.2757  0.0048 -0.0510
  285THF     O1 4833   2.317   4.016   0.504  0.2572  0.0662  0.3926
  285THF     C2 4834   2.385   4.103   0.420  0.1504  0.1681 -0.4496
  285THF     C3 4835   2.265   3.910   0.426 -0.0372  0.0127  0.9070
  285THF     H4 4836   2.482   4.127   0.464 -0.4318 -1.1314  1.6655
  285THF     H5 4837   2.320   4.190   0.419 -1.0043 -0.6758 -1.4872
  285THF     H6 4838   2.233   3.823   0.483  0.0038 -2.8164 -2.9548
  285THF     H7 4839   2.167   3.946   0.394 -0.0312  1.9735  2.8844
  285THF     C8 4840   2.358   3.887   0.307  0.7010  0.3572 -0.7801
  285THF     C9 4841   2.393   4.039   0.283 -0.2484  0.2925  0.0288
  285THF    H10 4842   2.310   3.824   0.231 -2.3931  1.2800  0.2766
  285THF    H11 4843   2.438   3.822   0.343 -0.7739 -0.6960  0.7390
  285THF    H12 4844   2.488   4.055   0.231  0.2818  1.7063  1.3445
  285THF    H13 4845   2.321   4.090   0.218  1.9378  2.0708 -1.1465
  286THF     O1 4846   5.320   1.243   1.028  0.1081  0.4512  0.7368
  286THF     C2 4847   5.390   1.283   0.914 -0.0783  0.4936  0.6278
  286THF     C3 4848   5.202   1.183   0.976 -0.1298 -0.4264 -0.3774
  286THF     H4 4849   5.495   1.294   0.944 -0.6990  2.1259  2.3794
  286THF     H5 4850   5.362   1.377   0.867  1.1551  1.2513  1.3394
  286THF     H6 4851   5.144   1.122   1.045 -0.9723  0.4639 -0.2821
  286THF     H7 4852   5.140   1.256   0.923 -1.1198 -1.6459 -0.9374
  286THF     C8 4853   5.251   1.086   0.870  0.0724 -0.4492  0.9759
  286THF     C9 4854   5.371   1.162   0.816  0.2971  0.0246  0.2729
  286THF    H10 4855   5.177   1.057   0.795  2.1042 -0.5998 -1.0961
  286THF    H11 4856   5.302   0.995   0.900  0.3326 -1.4769 -2.2173
  286THF    H12 4857   5.456   1.095   0.812  0.9512  0.8726 -0.8845
  286THF    H13 4858   5.365   1.194   0.712  2.3538 -0.5984 -0.0873
  287THF     O1 4859   5.412   4.887   0.393  0.0300 -0.3581 -0.2831
  287THF     C2 4860   5.380   4.776   0.315  0.4266  0.4192  0.2702
  287THF     C3 4861   5.499   4.974   0.320 -0.0293  0.3124  0.0658
  287THF     H4 4862   5.275   4.754   0.333  0.1074  2.6024  1.3886
  287THF     H5 4863   5.445   4.692   0.341  0.5275 -0.4394 -2.3984
  287THF     H6 4864   5.493   5.077   0.354 -0.9768 -0.0689  1.1089
  287THF     H7 4865   5.602   4.938   0.328 -0.0202 -0.4301 -2.5943
  287THF     C8 4866   5.458   4.956   0.180 -0.2449 -1.0206 -0.2591
  287THF     C9 4867   5.420   4.807   0.173  0.5895  0.5565  0.1385
  287THF    H10 4868   5.534   4.980   0.105 -1.7679  0.8903 -1.2644
  287THF    H11 4869   5.367   5.012   0.159  0.8284  0.8547 -0.0738
  287THF    H12 4870   5.339   4.788   0.103  1.5261  0.0199 -0.8400
  287THF    H13 4871   5.514   4.757   0.150  0.2870  0.2921 -0.5664
  288THF     O1 4872   4.691   2.443   0.349 -0.4825 -0.1234  0.8446
  288THF     C2 4873   4.653   2.512   0.468 -0.1979  0.3300 -0.2300
  288THF     C3 4874   4.719   2.544   0.250  1.2205  0.0066  0.6361
  288THF     H4 4875   4.743   2.542   0.521 -1.0043  0.9090  0.8531
  288THF     H5 4876   4.596   2.445   0.533 -0.3605  0.5634 -0.1313
  288THF     H6 4877   4.819   2.586   0.262  0.6801  0.6885  3.1722
  288THF     H7 4878   4.711   2.493   0.154  1.2818 -0.3660  0.8258
  288THF     C8 4879   4.603   2.637   0.271 -0.5081  0.1655 -0.2738
  288THF     C9 4880   4.568   2.630   0.422  0.0349  0.0690 -0.3308
  288THF    H10 4881   4.520   2.603   0.209  0.9235 -0.3341 -1.9905
  288THF    H11 4882   4.637   2.735   0.238  1.0499 -0.7598 -1.5366
  288THF    H12 4883   4.594   2.720   0.479  0.1212  0.5976 -1.1920
  288THF    H13 4884   4.461   2.620   0.439  0.0034  1.8923  0.8421
  289THF     O1 4885   2.110   3.448   1.820 -0.5831  0.0275  0.5976
  289THF     C2 4886   2.002   3.501   1.744 -0.0259  0.0540  0.2162
  289THF     C3 4887   2.190   3.366   1.731  0.0077 -0.7325 -0.1978
  289THF     H4 4888   1.956   3.589   1.790 -0.1145  0.9027 -1.4229
  289THF     H5 4889   1.934   3.418   1.726 -1.5745  1.0042  1.4080
  289THF     H6 4890   2.292   3.345   1.762 -0.5093 -5.0693 -0.7827
  289THF     H7 4891   2.148   3.265   1.727  0.6280 -0.9976 -0.0182
  289THF     C8 4892   2.194   3.435   1.597 -0.4662 -0.6279  0.0560
  289THF     C9 4893   2.078   3.535   1.611  0.0298 -0.2320  0.1515
  289THF    H10 4894   2.162   3.358   1.526 -0.5091 -0.2825 -0.3030
  289THF    H11 4895   2.291   3.476   1.569 -0.4007 -1.3371 -0.8038
  289THF    H12 4896   2.118   3.636   1.607  2.1202 -0.8372  2.9181
  289THF    H13 4897   2.010   3.508   1.530  1.5167 -1.2683 -0.8075
  290THF     O1 4898   5.079   1.890   4.278 -0.2152 -0.4506  0.5201
  290THF     C2 4899   5.138   1.875   4.410  0.1870 -0.6268  0.3093
  290THF     C3 4900   4.986   1.791   4.246 -0.2001  0.5227 -0.8440
  290THF     H4 4901   5.130   1.967   4.469 -2.1786 -1.0714  0.7950
  290THF     H5 4902   5.240   1.855   4.379 -0.0770 -0.1325 -0.9490
  290THF     H6 4903   4.908   1.823   4.176 -2.0511 -0.2184  0.7928
  290THF     H7 4904   5.033   1.706   4.196 -1.0280 -1.4551  1.5276
  290THF     C8 4905   4.933   1.741   4.380 -0.2393 -0.4046  0.4480
  290THF     C9 4906   5.054   1.758   4.470  0.2986 -0.6615  0.1976
  290THF    H10 4907   4.907   1.635   4.381  0.8490 -0.6834  0.2696
  290THF    H11 4908   4.849   1.808   4.401  0.7906  0.6769  1.2386
  290THF    H12 4909   5.021   1.767   4.574 -1.6945 -0.5251 -0.3986
  290THF    H13 4910   5.118   1.670   4.472 -0.9809 -1.6251  1.0411
  291THF     O1 4911   4.264   5.373   2.335  0.4000 -0.0880  0.0072
  291THF     C2 4912   4.363   5.423   2.420  0.4113  0.2177  0.5679
  291THF     C3 4913   4.141   5.443   2.363 -0.5117  0.6015 -0.0670
  291THF     H4 4914   4.465   5.407   2.387  0.1052  1.7931 -1.3245
  291THF     H5 4915   4.358   5.384   2.522  2.4823  0.5862  0.8418
  291THF     H6 4916   4.063   5.426   2.290 -0.9154 -2.1663  0.8931
  291THF     H7 4917   4.113   5.404   2.461 -1.2820 -0.2497 -0.6100
  291THF     C8 4918   4.186   5.582   2.380 -0.2622 -1.0436 -0.3179
  291THF     C9 4919   4.326   5.571   2.436  0.1351  0.5552  0.0137
  291THF    H10 4920   4.123   5.645   2.444  0.0481 -0.8469 -0.2022
  291THF    H11 4921   4.193   5.634   2.285  1.2061  3.3258  1.8809
  291THF    H12 4922   4.391   5.632   2.373  0.4759  1.8157  1.5282
  291THF    H13 4923   4.341   5.600   2.540  1.0882 -1.8587  0.6088
  292THF     O1 4924   4.703   0.338   1.655 -0.1061  0.2755  0.0744
  292THF     C2 4925   4.730   0.229   1.566 -0.2352  0.2408 -0.5838
  292THF     C3 4926   4.623   0.437   1.582 -0.4121 -0.1550 -0.4668
  292THF     H4 4927   4.676   0.141   1.602 -0.5487  1.3396  1.7943
  292THF     H5 4928   4.838   0.215   1.576 -0.2209  1.5742  1.8049
  292THF     H6 4929   4.519   0.405   1.581 -0.1183 -1.2026  0.5704
  292THF     H7 4930   4.630   0.539   1.621 -1.4740 -0.5627  0.8655
  292THF     C8 4931   4.673   0.419   1.437  0.2619  0.2331 -0.6432
  292THF     C9 4932   4.683   0.271   1.426 -0.9239  0.0717 -0.0505
  292THF    H10 4933   4.771   0.466   1.434  0.3564  0.3020  1.7050
  292THF    H11 4934   4.606   0.458   1.360 -1.2152  2.2519  1.4924
  292THF    H12 4935   4.597   0.229   1.374  1.2151 -0.6504 -3.3120
  292THF    H13 4936   4.766   0.244   1.361  0.5772 -0.6094  2.0279
  293THF     O1 4937   4.491   2.883   3.571 -0.0580  0.2504  0.3147
  293THF     C2 4938   4.621   2.845   3.505  0.0053 -0.1087  0.0809
  293THF     C3 4939   4.466   2.782   3.666  0.2245  0.4227  0.1143
  293THF     H4 4940   4.699   2.921   3.502 -1.1165  1.0806 -3.0982
  293THF     H5 4941   4.594   2.820   3.403 -1.2141 -1.0249  0.6003
  293THF     H6 4942   4.507   2.814   3.762 -1.4376 -2.0463  1.7727
  293THF     H7 4943   4.361   2.762   3.689 -0.0112  0.9591 -0.4447
  293THF     C8 4944   4.551   2.652   3.630  0.0806 -0.5064 -0.1869
  293THF     C9 4945   4.675   2.712   3.570  0.5762 -0.9321 -0.2082
  293THF    H10 4946   4.498   2.584   3.564 -0.3319  0.3641 -0.7719
  293THF    H11 4947   4.577   2.597   3.721 -1.4722  0.1016  0.6566
  293THF    H12 4948   4.758   2.717   3.641 -0.6060 -0.2733  1.1816
  293THF    H13 4949   4.709   2.653   3.484  0.8978 -0.1407 -0.6278
  294THF     O1 4950   0.948   0.502   0.391 -0.1303 -0.5434 -0.0566
  294THF     C2 4951   1.075   0.458   0.452 -0.6376 -0.1046  0.1625
  294THF     C3 4952   0.849   0.442   0.472  0.2914  0.7699 -0.4105
  294THF     H4 4953   1.153   0.519   0.405 -0.7858  0.4411  0.6172
  294THF     H5 4954   1.102   0.357   0.421 -1.3543  0.3362 -2.0753
  294THF     H6 4955   0.745   0.469   0.458 -0.4708 -2.0425 -0.7267
  294THF     H7 4956   0.847   0.335   0.452  0.3980  0.8060 -0.6236
  294THF     C8 4957   0.896   0.490   0.608 -0.0785  0.0223 -0.1018
  294THF     C9 4958   1.053   0.478   0.607 -0.3873 -0.0845 -0.1353
  294THF    H10 4959   0.855   0.443   0.698 -1.0090  1.7442  0.4153
  294THF    H11 4960   0.885   0.597   0.622  0.2714  0.1194 -0.5621
  294THF    H12 4961   1.094   0.575   0.635 -1.1302 -0.1766  1.3642
  294THF    H13 4962   1.093   0.409   0.682 -0.3847 -0.0610 -0.1150
  295THF     O1 4963   3.708   3.093   2.874  0.1348  0.2194  0.3142
  295THF     C2 4964   3.741   2.979   2.955 -0.3267 -0.1315 -0.0092
  295THF     C3 4965   3.592   3.066   2.793 -0.5115  0.2890  0.1588
  295THF     H4 4966   3.662   2.975   3.030 -0.2347  0.2896  0.1144
  295THF     H5 4967   3.841   2.986   2.996  0.1404  0.9792 -1.2565
  295THF     H6 4968   3.505   3.096   2.852  1.7219  1.0833  3.2821
  295THF     H7 4969   3.597   3.124   2.701  2.6967  1.0700  0.6876
  295THF     C8 4970   3.622   2.921   2.747 -0.4570 -0.0468  0.0236
  295THF     C9 4971   3.708   2.858   2.859 -0.1072  0.3458 -0.2774
  295THF    H10 4972   3.688   2.941   2.663  0.5112  2.3160  1.2329
  295THF    H11 4973   3.534   2.860   2.726  0.0231 -0.3616 -1.1180
  295THF    H12 4974   3.652   2.783   2.914  2.7770 -0.8105  1.3137
  295THF    H13 4975   3.797   2.811   2.816 -0.0149  1.1003 -0.9575
  296THF     O1 4976   1.870   1.257   2.477  0.4305  0.0709  0.2060
  296THF     C2 4977   1.934   1.144   2.523  1.0968  0.0940 -0.4022
  296THF     C3 4978   1.775   1.221   2.378 -0.5572  0.5477 -0.5205
  296THF     H4 4979   1.869   1.078   2.581  2.0474 -1.5401 -1.1188
  296THF     H5 4980   2.014   1.166   2.594  2.5947 -2.1783 -1.2528
  296THF     H6 4981   1.676   1.190   2.411 -1.0365  0.9007 -1.5742
  296THF     H7 4982   1.763   1.299   2.303 -0.5411  1.2369  0.1830
  296THF     C8 4983   1.839   1.096   2.311 -0.0716  0.4674 -0.8120
  296THF     C9 4984   1.971   1.074   2.399 -0.1082  0.6306  0.1879
  296THF    H10 4985   1.856   1.097   2.203 -0.8062 -0.3931 -0.9577
  296THF    H11 4986   1.773   1.011   2.329  0.4365  0.4598  1.2376
  296THF    H12 4987   1.997   0.969   2.408 -0.2293  0.5845  0.0159
  296THF    H13 4988   2.049   1.124   2.342 -0.9642  0.2834 -1.3477
  297THF     O1 4989   0.930   1.479   5.227  0.2241  0.2010  0.7597
  297THF     C2 4990   0.907   1.376   5.324 -0.1070 -0.0340  0.4890
  297THF     C3 4991   1.035   1.417   5.153 -0.1937  0.3504 -0.1573
  297THF     H4 4992   0.818   1.395   5.384 -1.7948 -0.6143 -1.7247
  297THF     H5 4993   0.994   1.370   5.390  0.3616 -1.6774 -0.2357
  297THF     H6 4994   1.053   1.485   5.070  1.3720  0.7505  0.4777
  297THF     H7 4995   1.123   1.425   5.218  1.0025  0.4207 -1.7287
  297THF     C8 4996   0.990   1.276   5.131  0.0703 -0.1694 -0.7281
  297THF     C9 4997   0.895   1.247   5.249  0.4123  0.2968  0.1325
  297THF    H10 4998   1.073   1.207   5.117  0.7298 -0.0329  1.9008
  297THF    H11 4999   0.934   1.271   5.038  0.6137 -1.5266 -1.0110
  297THF    H12 5000   0.789   1.242   5.221  0.9104  0.3406 -1.9126
  297THF    H13 5001   0.925   1.157   5.302  0.1488  0.1056 -0.0402
  298THF     O1 5002   4.400   3.200   0.793 -0.6198  0.1155 -0.0225
  298THF     C2 5003   4.508   3.198   0.705  0.1279 -0.2088 -0.1328
  298THF     C3 5004   4.384   3.058   0.818 -0.2045 -0.0055 -0.5708
  298THF     H4 5005   4.598   3.161   0.754 -1.0617 -2.1327  0.7018
  298THF     H5 5006   4.530   3.298   0.666  0.4445 -0.6599 -1.1462
  298THF     H6 5007   4.461   3.036   0.892  1.0330  0.1212 -1.7688
  298THF     H7 5008   4.288   3.031   0.860  1.2869 -1.9487  1.8796
  298THF     C8 5009   4.410   2.989   0.680  0.0253  0.4212  0.3485
  298THF     C9 5010   4.472   3.100   0.598  0.0233 -0.8452 -0.2922
  298THF    H10 5011   4.313   2.958   0.640  0.7725  0.6849 -1.8062
  298THF    H11 5012   4.471   2.901   0.695 -1.6549 -0.7806  0.3923
  298THF    H12 5013   4.553   3.079   0.529  0.8081  1.0533 -0.0243
  298THF    H13 5014   4.394   3.146   0.538  0.4185 -3.8384 -3.3773
  299THF     O1 5015   2.296   1.197   3.369  0.2197 -0.4787  0.2284
  299THF     C2 5016   2.227   1.241   3.489  0.1584 -0.2246  0.7611
  299THF     C3 5017   2.212   1.225   3.261 -0.4590  0.1383 -0.6647
  299THF     H4 5018   2.244   1.348   3.489  2.6406 -0.5238 -1.2635
  299THF     H5 5019   2.284   1.206   3.575  0.9943  1.5960  0.9985
  299THF     H6 5020   2.234   1.330   3.240  2.3184 -0.1093  0.5944
  299THF     H7 5021   2.243   1.173   3.171  3.6459 -0.6389  0.9951
  299THF     C8 5022   2.071   1.201   3.308  0.6990  0.1290  0.0633
  299THF     C9 5023   2.081   1.208   3.460  1.1102 -0.1345  0.0716
  299THF    H10 5024   2.035   1.103   3.281 -0.8533  0.6695  0.0819
  299THF    H11 5025   2.009   1.274   3.257  2.2379  1.0725 -0.5375
  299THF    H12 5026   2.019   1.285   3.506 -1.8471 -0.9279 -2.2865
  299THF    H13 5027   2.042   1.117   3.506 -0.3921  0.2160 -0.4354
  300THF     O1 5028   2.776   1.125   4.918 -0.2115  0.2735  0.4801
  300THF     C2 5029   2.874   1.052   4.837 -0.0642 -0.1648  0.9846
  300THF     C3 5030   2.647   1.072   4.880 -0.0866 -0.1592  0.1583
  300THF     H4 5031   2.900   0.962   4.891  2.6015 -0.8723 -1.2877
  300THF     H5 5032   2.965   1.111   4.827 -1.0231  1.1721 -0.3175
  300THF     H6 5033   2.619   0.978   4.928  1.9405 -0.0089  1.7420
  300THF     H7 5034   2.564   1.143   4.887 -1.5343 -1.8154  0.7187
  300THF     C8 5035   2.654   1.041   4.731 -0.3749 -0.1476  0.0369
  300THF     C9 5036   2.805   1.017   4.704  0.2367 -0.0184 -0.2542
  300THF    H10 5037   2.626   1.133   4.680  0.8339  0.5962  0.6639
  300THF    H11 5038   2.584   0.962   4.704 -0.8527  0.2160  0.2066
  300THF    H12 5039   2.835   0.915   4.681 -2.1488 -1.2444  1.6722
  300THF    H13 5040   2.850   1.090   4.637  2.2561 -0.2062  0.8017
  301THF     O1 5041   4.590   5.314   1.868 -0.3242 -0.3310 -0.1107
  301THF     C2 5042   4.597   5.347   2.012 -1.1908  0.6138 -0.6326
  301THF     C3 5043   4.602   5.433   1.793 -0.6125  0.3154 -0.4104
  301THF     H4 5044   4.646   5.259   2.054 -0.8594  2.1021  2.3469
  301THF     H5 5045   4.497   5.345   2.055  0.5073 -0.5386  3.8876
  301THF     H6 5046   4.685   5.425   1.723 -1.8465 -0.4943 -1.8589
  301THF     H7 5047   4.509   5.458   1.741  0.6247 -0.6616 -3.3010
  301THF     C8 5048   4.628   5.540   1.892  0.6295 -0.2271  0.4223
  301THF     C9 5049   4.674   5.480   2.023  0.4713  0.1128 -0.6698
  301THF    H10 5050   4.532   5.587   1.912 -1.1146 -1.0326 -4.5277
  301THF    H11 5051   4.692   5.620   1.856  1.2776 -0.3626  1.2527
  301THF    H12 5052   4.782   5.468   2.021  0.4406 -0.2258 -0.3493
  301THF    H13 5053   4.641   5.533   2.112 -1.8828 -1.1394 -0.7238
  302THF     O1 5054   0.640   4.979   0.631 -0.6515  0.4143  0.0676
  302THF     C2 5055   0.611   4.842   0.610 -0.3805  0.1337 -0.3654
  302THF     C3 5056   0.628   5.006   0.764 -0.6414  0.5025  0.2026
  302THF     H4 5057   0.637   4.799   0.513  1.1033 -0.1155  0.1195
  302THF     H5 5058   0.502   4.846   0.614 -0.3689 -0.1997  1.2999
  302THF     H6 5059   0.697   5.087   0.788 -1.3426  1.7514 -1.7570
  302THF     H7 5060   0.525   5.033   0.785 -0.7868  1.3115 -1.3750
  302THF     C8 5061   0.662   4.881   0.846  0.5494 -0.3494 -0.0264
  302THF     C9 5062   0.663   4.762   0.740  0.0304 -0.5562  0.4591
  302THF    H10 5063   0.581   4.863   0.917  0.3342 -0.2523 -0.2444
  302THF    H11 5064   0.756   4.889   0.901  0.7301 -0.1446 -0.3655
  302THF    H12 5065   0.765   4.731   0.714 -0.4217 -2.0809  0.4180
  302THF    H13 5066   0.591   4.686   0.769 -0.6804 -0.2994 -0.5658
  303THF     O1 5067   1.234   2.676   2.938  0.0319  0.0703 -0.0622
  303THF     C2 5068   1.320   2.703   3.045 -0.0554 -0.5454 -0.3665
  303THF     C3 5069   1.121   2.766   2.934  0.4219  0.2010 -0.5767
  303THF     H4 5070   1.425   2.683   3.029  0.1853 -2.5139  2.7462
  303THF     H5 5071   1.289   2.653   3.137  0.7447  0.2027  0.3335
  303THF     H6 5072   1.073   2.788   2.838  1.1117  1.0848 -0.7300
  303THF     H7 5073   1.046   2.740   3.008  1.2961 -0.3736  0.1100
  303THF     C8 5074   1.205   2.895   2.956  0.0555  0.5000  0.1051
  303THF     C9 5075   1.308   2.852   3.070  0.4452 -0.4275 -0.0110
  303THF    H10 5076   1.145   2.976   2.997 -0.3436 -1.5713  4.1905
  303THF    H11 5077   1.254   2.926   2.864  2.8883 -0.0372  1.3127
  303THF    H12 5078   1.403   2.905   3.066  1.3121 -1.7288  1.6976
  303THF    H13 5079   1.258   2.873   3.164 -0.2163 -0.0853 -0.4344
  304THF     O1 5080   1.016   3.946   3.035  0.1105 -0.3334 -0.8441
  304THF     C2 5081   0.991   3.979   3.168  0.9056  0.8358  0.3409
  304THF     C3 5082   0.961   3.818   3.006 -0.3161 -0.3494 -1.2080
  304THF     H4 5083   0.942   4.076   3.174 -1.0614  0.1622 -2.6215
  304THF     H5 5084   1.079   3.976   3.232  0.3955  1.4012  1.0835
  304THF     H6 5085   0.944   3.803   2.899  1.4716 -1.1146 -1.4246
  304THF     H7 5086   1.035   3.755   3.055 -0.6574 -0.6160 -1.0278
  304THF     C8 5087   0.830   3.824   3.095 -0.1208  0.0715 -0.3754
  304THF     C9 5088   0.887   3.882   3.221  0.6652 -0.8054 -0.5088
  304THF    H10 5089   0.783   3.727   3.113 -0.0060  0.0442 -0.2194
  304THF    H11 5090   0.762   3.893   3.046 -0.8201 -1.7363 -2.0727
  304THF    H12 5091   0.816   3.933   3.285  0.7035 -0.4440 -0.7528
  304THF    H13 5092   0.940   3.810   3.283  2.7358 -0.5000 -1.8016
  305THF     O1 5093   0.718   1.611   4.613 -0.1312 -0.1974 -0.0201
  305THF     C2 5094   0.739   1.528   4.502 -0.0159 -0.5736 -0.2704
  305THF     C3 5095   0.750   1.537   4.737 -0.4802  0.5358 -0.2393
  305THF     H4 5096   0.829   1.553   4.446  2.7484 -3.5217  2.4571
  305THF     H5 5097   0.650   1.538   4.439 -0.5359 -2.5454  0.0817
  305THF     H6 5098   0.856   1.536   4.762 -0.2669 -0.9497 -1.1117
  305THF     H7 5099   0.695   1.577   4.823 -1.3922 -0.0141 -0.5479
  305THF     C8 5100   0.686   1.402   4.703 -0.1572  0.3814  0.5576
  305THF     C9 5101   0.733   1.381   4.559  0.0631  0.5825 -0.2954
  305THF    H10 5102   0.580   1.417   4.725 -0.5113 -1.2913  0.1146
  305THF    H11 5103   0.727   1.338   4.781  0.9942  2.4671  1.7653
  305THF    H12 5104   0.832   1.337   4.552  0.8945  1.3563  3.8433
  305THF    H13 5105   0.658   1.324   4.505  0.0887  0.2493  0.0132
  306THF     O1 5106   3.778   3.206   4.309 -0.4787 -0.1809 -0.7180
  306THF     C2 5107   3.813   3.282   4.190 -0.3801  0.3583 -0.3973
  306THF     C3 5108   3.661   3.137   4.290  0.1960  0.8173 -1.3319
  306THF     H4 5109   3.852   3.208   4.120 -0.6894  0.3623 -0.5756
  306THF     H5 5110   3.883   3.359   4.220 -2.5015  1.9589  0.6397
  306THF     H6 5111   3.667   3.044   4.232  1.4069 -0.8562  1.2814
  306THF     H7 5112   3.629   3.102   4.388 -1.0833 -1.9530 -2.6173
  306THF     C8 5113   3.568   3.240   4.229 -0.6224  0.2367  0.6405
  306THF     C9 5114   3.665   3.337   4.162  0.5165  0.3806 -0.1078
  306THF    H10 5115   3.498   3.291   4.296 -0.8137  1.6507 -0.5768
  306THF    H11 5116   3.504   3.190   4.157 -1.9740  0.8650  1.3581
  306THF    H12 5117   3.636   3.344   4.057 -1.3682  0.3102  0.3665
  306THF    H13 5118   3.656   3.437   4.205  0.1672 -0.1314  1.0331
  307THF     O1 5119   2.634   0.040   0.929 -0.4128  0.2443  0.3116
  307THF     C2 5120   2.572  -0.088   0.915 -0.6454  0.8556  0.2950
  307THF     C3 5121   2.623   0.075   1.063 -0.4613 -0.2928  0.1239
  307THF     H4 5122   2.646  -0.165   0.936 -2.2346 -0.9010 -0.2507
  307THF     H5 5123   2.533  -0.107   0.815  1.0740  0.5323 -0.3521
  307THF     H6 5124   2.712   0.060   1.124 -0.7181  1.9996  1.1646
  307THF     H7 5125   2.611   0.183   1.074  0.2000 -0.3007  1.0265
  307THF     C8 5126   2.500   0.009   1.122 -0.4498 -0.4143  0.0922
  307THF     C9 5127   2.456  -0.090   1.018  0.2369  0.2422 -0.0534
  307THF    H10 5128   2.422   0.075   1.159 -1.1542  0.3142 -2.5122
  307THF    H11 5129   2.525  -0.051   1.210 -0.7979 -1.4853 -0.5186
  307THF    H12 5130   2.440  -0.189   1.062  0.2953 -0.3806 -1.4050
  307THF    H13 5131   2.360  -0.057   0.980 -0.6597 -1.2812  0.7499
  308THF     O1 5132   4.097   0.612   0.812 -0.9611  0.0927  0.5325
  308THF     C2 5133   4.129   0.686   0.691 -0.0307  0.7653  0.1879
  308THF     C3 5134   3.970   0.556   0.798  0.3121 -0.0369  0.1424
  308THF     H4 5135   4.151   0.607   0.618 -3.6889 -1.2480  0.9987
  308THF     H5 5136   4.216   0.752   0.688  1.0884 -0.6619 -0.9166
  308THF     H6 5137   3.972   0.483   0.718 -3.9227 -0.3707  0.1078
  308THF     H7 5138   3.939   0.518   0.896  1.2329 -0.6554  0.2050
  308THF     C8 5139   3.896   0.678   0.743 -0.7330 -0.3876  0.1503
  308THF     C9 5140   3.997   0.748   0.650 -0.4329  0.5328 -0.1296
  308THF    H10 5141   3.859   0.754   0.812 -3.7626 -0.4760 -1.2072
  308THF    H11 5142   3.816   0.643   0.677 -0.1547 -0.7631 -0.3657
  308THF    H12 5143   3.979   0.739   0.543 -0.7509 -0.0404 -0.0262
  308THF    H13 5144   4.009   0.855   0.671  0.9263  0.6424 -1.3172
  309THF     O1 5145   2.923   2.167   1.492 -0.3621 -0.2175 -0.2583
  309THF     C2 5146   2.824   2.091   1.417  0.8716  0.4190 -0.0703
  309THF     C3 5147   2.930   2.298   1.452  0.2627 -0.1818 -0.4270
  309THF     H4 5148   2.725   2.093   1.463  2.0114  1.3680  2.6041
  309THF     H5 5149   2.852   1.987   1.407  2.2072  0.6018  1.2914
  309THF     H6 5150   2.858   2.355   1.511 -0.7829 -0.4528 -1.4137
  309THF     H7 5151   3.028   2.341   1.475 -0.1493  1.2529 -1.2408
  309THF     C8 5152   2.881   2.299   1.309 -0.6885  0.5637 -0.5918
  309THF     C9 5153   2.814   2.159   1.281  0.1860 -0.7001 -0.4009
  309THF    H10 5154   2.961   2.311   1.236  0.3061  0.3652  0.4327
  309THF    H11 5155   2.819   2.386   1.288  1.0280  1.6518 -1.4603
  309THF    H12 5156   2.711   2.148   1.247 -1.4585  3.5277  2.3721
  309THF    H13 5157   2.876   2.104   1.210  0.5669  0.6233 -1.1137
  310THF     O1 5158   3.467   3.580   3.794  0.1590  0.1901 -0.2655
  310THF     C2 5159   3.446   3.639   3.665  0.3483  0.3597 -0.1650
  310THF     C3 5160   3.474   3.438   3.781 -0.5290 -0.7255 -0.2385
  310THF     H4 5161   3.544   3.626   3.617  0.4299 -0.5955  0.2243
  310THF     H5 5162   3.414   3.743   3.663  0.1201  0.2830 -1.5483
  310THF     H6 5163   3.579   3.414   3.765 -0.4687 -0.6919  0.0986
  310THF     H7 5164   3.439   3.391   3.873 -2.5915  0.4535 -0.3777
  310THF     C8 5165   3.372   3.413   3.669  0.4839  0.4528  0.4008
  310THF     C9 5166   3.336   3.553   3.610  0.1095  0.6511  0.1751
  310THF    H10 5167   3.286   3.371   3.722 -1.5108  2.4335 -1.0708
  310THF    H11 5168   3.410   3.343   3.595  1.9652  1.4724  0.1653
  310THF    H12 5169   3.323   3.556   3.502  1.9909  1.3227 -0.0692
  310THF    H13 5170   3.245   3.586   3.661 -1.3124 -0.1814 -1.6675
  311THF     O1 5171   3.571   1.535   5.234 -0.6112  0.5212  0.5298
  311THF     C2 5172   3.596   1.612   5.347  0.3763 -0.1357  0.2626
  311THF     C3 5173   3.578   1.400   5.283 -0.2265 -0.6136 -0.0021
  311THF     H4 5174   3.497   1.617   5.394  0.0749  0.6487 -0.4205
  311THF     H5 5175   3.639   1.705   5.309 -1.4429  0.0766 -1.4745
  311THF     H6 5176   3.480   1.383   5.327  0.3965  0.1243  1.7901
  311THF     H7 5177   3.600   1.337   5.197 -0.8032 -1.0733  0.1841
  311THF     C8 5178   3.691   1.393   5.388  1.2291 -0.1340  0.4555
  311THF     C9 5179   3.699   1.539   5.425  0.2672  0.4888 -0.4261
  311THF    H10 5180   3.778   1.342   5.346  0.4646 -2.6970  1.7865
  311THF    H11 5181   3.650   1.327   5.464  0.0660  0.1235  0.0824
  311THF    H12 5182   3.664   1.540   5.529  1.6834 -1.5773  0.1454
  311THF    H13 5183   3.798   1.584   5.434  0.0285  1.1747 -1.1118
  312THF     O1 5184   2.345   0.645   3.963 -0.4694  0.2289  0.0812
  312THF     C2 5185   2.287   0.591   3.841 -0.3972 -0.1705 -0.2102
  312THF     C3 5186   2.476   0.601   3.969 -0.1690 -0.3341 -0.6832
  312THF     H4 5187   2.203   0.653   3.809 -1.9972 -2.0416  0.1978
  312THF     H5 5188   2.255   0.488   3.854 -2.6047  0.3163 -1.2489
  312THF     H6 5189   2.537   0.677   4.019  0.0727  0.2738 -1.8668
  312THF     H7 5190   2.471   0.522   4.044 -1.8200  0.2737 -0.1192
  312THF     C8 5191   2.519   0.564   3.830  0.2803 -0.4158  0.2364
  312THF     C9 5192   2.401   0.598   3.740 -0.1828 -0.2267 -0.1333
  312THF    H10 5193   2.541   0.457   3.827  2.4213  0.0095 -0.8470
  312THF    H11 5194   2.617   0.601   3.801  0.2034 -1.5630 -1.6669
  312THF    H12 5195   2.420   0.701   3.710  1.1115 -0.1899  0.7259
  312THF    H13 5196   2.387   0.540   3.649 -0.6733 -0.3989  0.0491
  313THF     O1 5197   0.456   3.455   3.955  0.5400 -0.3026  0.0625
  313THF     C2 5198   0.495   3.338   3.887  0.1463  0.1858 -0.3398
  313THF     C3 5199   0.350   3.520   3.892 -0.1991  0.4908  0.5640
  313THF     H4 5200   0.527   3.271   3.967  2.0800 -0.4701 -1.5854
  313THF     H5 5201   0.583   3.361   3.826  0.6022  0.5576  0.4444
  313THF     H6 5202   0.319   3.590   3.969  2.0152  1.1740  0.8878
  313THF     H7 5203   0.384   3.561   3.798  0.9332  0.2694  0.8657
  313THF     C8 5204   0.271   3.396   3.858  0.1932 -0.1042 -0.4673
  313THF     C9 5205   0.372   3.288   3.814 -1.0620 -0.7554 -0.5593
  313THF    H10 5206   0.195   3.404   3.781 -0.3044 -0.9337 -0.0676
  313THF    H11 5207   0.222   3.359   3.948 -0.2702  0.1811 -0.5981
  313THF    H12 5208   0.352   3.183   3.838  0.2681 -1.0903 -0.8073
  313THF    H13 5209   0.376   3.305   3.706 -0.7775 -0.2510 -0.4724
  314THF     O1 5210   3.074   2.060   0.508  0.1264 -0.0988  0.0799
  314THF     C2 5211   3.166   2.071   0.615 -0.6734 -0.2093 -0.5061
  314THF     C3 5212   3.033   1.926   0.484  0.0498  0.4531  0.1811
  314THF     H4 5213   3.164   2.171   0.659 -2.0614 -1.1432  1.6751
  314THF     H5 5214   3.268   2.043   0.587  0.1400  1.2074  0.8971
  314THF     H6 5215   2.948   1.916   0.416  0.2489 -0.6580  0.0849
  314THF     H7 5216   3.112   1.862   0.443  0.7709 -0.1533  2.4089
  314THF     C8 5217   3.001   1.892   0.630  0.0024  0.8083  0.3158
  314THF     C9 5218   3.099   1.976   0.713 -0.1184  0.4700 -0.6757
  314THF    H10 5219   3.014   1.789   0.663  0.1629  0.7699  0.1378
  314THF    H11 5220   2.898   1.911   0.660 -0.7911  0.6037 -2.0689
  314THF    H12 5221   3.046   2.032   0.790  0.5016 -2.2040  1.8702
  314THF    H13 5222   3.177   1.920   0.765 -0.7899 -1.5807 -1.7741
  315THF     O1 5223   1.114   3.808   2.495  0.2777 -0.0269  0.0857
  315THF     C2 5224   1.018   3.708   2.452 -0.1879  0.2694  0.7075
  315THF     C3 5225   1.061   3.857   2.611 -1.3930 -0.1550 -0.6140
  315THF     H4 5226   1.024   3.614   2.507  0.0400 -0.4007 -0.4190
  315THF     H5 5227   1.043   3.670   2.352  0.1458 -0.4585  1.0574
  315THF     H6 5228   1.069   3.782   2.690  2.1598  2.1719  1.5235
  315THF     H7 5229   1.118   3.944   2.642 -1.2878 -0.0634 -1.0681
  315THF     C8 5230   0.923   3.898   2.564  0.3683 -1.0620  0.3285
  315THF     C9 5231   0.885   3.788   2.465  0.0292 -0.2700 -0.8293
  315THF    H10 5232   0.930   3.998   2.521 -1.3248 -0.5721  1.0743
  315THF    H11 5233   0.858   3.911   2.651 -0.5842  0.8475 -0.6023
  315THF    H12 5234   0.790   3.737   2.481  0.9241 -1.6836  0.2295
  315THF    H13 5235   0.868   3.826   2.364  4.4768 -0.3073 -1.8272
  316THF     O1 5236   5.417   2.339   3.189 -0.2359 -0.4101  0.1142
  316THF     C2 5237   5.535   2.409   3.226 -0.5784  0.1618  0.0499
  316THF     C3 5238   5.323   2.371   3.283  0.0460 -0.2141  0.0650
  316THF     H4 5239   5.603   2.403   3.141 -0.1967 -1.7442  0.4613
  316THF     H5 5240   5.574   2.359   3.315  1.8766  0.4134 -0.8083
  316THF     H6 5241   5.219   2.348   3.261  0.6378 -0.6438 -2.5900
  316THF     H7 5242   5.338   2.308   3.371 -0.3582  0.0954  0.3600
  316THF     C8 5243   5.353   2.514   3.335 -0.1563  0.3969  0.2491
  316THF     C9 5244   5.476   2.546   3.262  0.4036 -0.4111  0.7414
  316THF    H10 5245   5.361   2.512   3.444  0.1770  0.1332  0.2196
  316THF    H11 5246   5.274   2.588   3.316 -0.2765  0.3258  0.4635
  316THF    H12 5247   5.466   2.598   3.167  0.1417  2.2090  2.1057
  316THF    H13 5248   5.543   2.602   3.327 -0.7626  1.9757  0.0405
  317THF     O1 5249   0.335   2.272   1.391 -0.5307 -0.2959  0.1549
  317THF     C2 5250   0.309   2.136   1.422  0.0438 -0.7351  0.7194
  317THF     C3 5251   0.208   2.333   1.359 -0.4128 -0.6028  0.2245
  317THF     H4 5252   0.357   2.105   1.515 -0.0509 -0.7700  0.7572
  317THF     H5 5253   0.365   2.082   1.345 -1.3962  0.2853 -1.1373
  317THF     H6 5254   0.211   2.436   1.397 -0.3026 -1.2497  2.0730
  317THF     H7 5255   0.205   2.332   1.250  1.7844 -1.3428  0.1238
  317THF     C8 5256   0.099   2.251   1.428 -0.2394 -1.0545 -0.4137
  317THF     C9 5257   0.155   2.107   1.434  0.1624  0.0148 -0.4090
  317THF    H10 5258  -0.004   2.261   1.393 -0.6816 -0.3343  0.9889
  317THF    H11 5259   0.100   2.284   1.532 -1.3255 -3.4391  0.4354
  317THF    H12 5260   0.130   2.063   1.530  1.0704  0.4257  0.0316
  317THF    H13 5261   0.126   2.035   1.357 -2.4705  0.0263  0.4766
  318THF     O1 5262   4.185   4.185   0.218  0.5588  0.4568  0.4482
  318THF     C2 5263   4.324   4.183   0.216 -0.1098  0.4687  0.3217
  318THF     C3 5264   4.125   4.154   0.096 -0.0303  0.4375  0.3902
  318THF     H4 5265   4.377   4.094   0.250  0.9865  0.2613 -1.7412
  318THF     H5 5266   4.362   4.271   0.267 -1.7185  0.8760  0.8719
  318THF     H6 5267   4.117   4.047   0.080 -3.6540  1.0118 -3.2649
  318THF     H7 5268   4.023   4.192   0.082  0.4312  1.7240  0.3909
  318THF     C8 5269   4.226   4.214  -0.005 -0.1271  0.4248  0.7716
  318THF     C9 5270   4.357   4.188   0.067 -0.0411  0.1726 -0.1124
  318THF    H10 5271   4.200   4.319  -0.015  1.2891  0.6859 -0.5888
  318THF    H11 5272   4.233   4.170  -0.105 -0.2079 -2.7247  2.0112
  318THF    H12 5273   4.419   4.103   0.037 -0.8304  0.7862 -4.0199
  318THF    H13 5274   4.418   4.276   0.047  1.6284 -1.1216 -0.9978
  319THF     O1 5275   1.980   2.015   3.874  0.6918 -0.6135 -0.2622
  319THF     C2 5276   1.947   2.125   3.943  0.8231 -0.4401  0.5574
  319THF     C3 5277   1.886   1.914   3.889  0.2698 -0.2791  0.8377
  319THF     H4 5278   1.981   2.219   3.899  3.4599 -1.3631  0.4727
  319THF     H5 5279   2.002   2.129   4.037  0.2312  1.7047  0.8811
  319THF     H6 5280   1.838   1.899   3.792 -1.2706  2.1769  1.1388
  319THF     H7 5281   1.938   1.820   3.907 -0.5976 -0.9430 -0.0240
  319THF     C8 5282   1.784   1.958   3.998  0.1713  0.2940  0.1150
  319THF     C9 5283   1.799   2.107   3.977  0.0593 -0.0427 -0.2762
  319THF    H10 5284   1.834   1.930   4.091  1.0582  0.3324 -0.3320
  319THF    H11 5285   1.686   1.922   3.967  0.2871  0.8553 -0.9386
  319THF    H12 5286   1.730   2.146   3.902 -0.0166 -0.1744 -0.2752
  319THF    H13 5287   1.779   2.170   4.064  2.3145  2.3703 -1.3644
  320THF     O1 5288   4.616   0.285   2.152 -0.7203 -0.5630 -0.2299
  320THF     C2 5289   4.497   0.362   2.177 -1.0379  0.4174 -0.3566
  320THF     C3 5290   4.705   0.358   2.068 -0.2027  0.8002 -0.3873
  320THF     H4 5291   4.478   0.357   2.284 -4.2829  0.9422 -0.8195
  320THF     H5 5292   4.411   0.320   2.125  1.4534 -2.0411 -2.8960
  320THF     H6 5293   4.783   0.404   2.129  0.0568  0.0770 -0.1591
  320THF     H7 5294   4.745   0.290   1.993  0.5463 -0.9159  1.4561
  320THF     C8 5295   4.626   0.471   2.025 -0.3286  0.2254  0.8536
  320THF     C9 5296   4.525   0.507   2.126 -0.6154  0.5006 -0.7402
  320THF    H10 5297   4.563   0.441   1.941  2.5480  0.5406 -1.5543
  320THF    H11 5298   4.682   0.559   1.996 -2.3866  0.9898 -1.1503
  320THF    H12 5299   4.572   0.566   2.204 -0.0563  1.1443 -1.5396
  320THF    H13 5300   4.439   0.554   2.078  0.1175  1.2507 -1.3549
  321THF     O1 5301   5.382   4.238   3.567 -0.0189  0.2918  0.1218
  321THF     C2 5302   5.399   4.274   3.710  0.3469  0.6228  0.6257
  321THF     C3 5303   5.270   4.306   3.506 -0.5989 -0.3026 -0.8543
  321THF     H4 5304   5.493   4.328   3.722 -0.1731  1.4902  0.8557
  321THF     H5 5305   5.401   4.190   3.781  0.5951 -1.5323 -1.7735
  321THF     H6 5306   5.306   4.353   3.414  0.0285 -1.3158 -1.1507
  321THF     H7 5307   5.182   4.242   3.495 -1.4437  0.4707  1.1355
  321THF     C8 5308   5.248   4.416   3.616  0.1652 -0.1013  0.6529
  321THF     C9 5309   5.278   4.353   3.751  0.2273  0.0245 -0.1921
  321THF    H10 5310   5.147   4.452   3.601  0.2295  0.1857  0.8994
  321THF    H11 5311   5.310   4.504   3.600 -2.5539  1.6977 -0.5446
  321THF    H12 5312   5.302   4.426   3.829 -0.8671 -0.7280  0.8853
  321THF    H13 5313   5.202   4.284   3.787  1.1848 -1.0333 -0.1369
  322THF     O1 5314   4.140   4.774   2.613  0.0701 -0.2579 -0.4535
  322THF     C2 5315   4.155   4.820   2.481  1.0259 -0.7869 -0.2954
  322THF     C3 5316   4.033   4.680   2.610  0.0010  0.3598  0.0815
  322THF     H4 5317   4.204   4.750   2.413 -1.6632 -1.2088 -1.9143
  322THF     H5 5318   4.217   4.910   2.477  0.2230 -0.2702 -1.5390
  322THF     H6 5319   4.068   4.596   2.550  1.5313  0.2613  1.0704
  322THF     H7 5320   3.981   4.658   2.703 -0.8850 -0.5004 -0.5859
  322THF     C8 5321   3.930   4.757   2.526 -0.0456 -0.1103  0.3876
  322THF     C9 5322   4.015   4.842   2.426  0.0646 -0.7478 -0.3588
  322THF    H10 5323   3.882   4.833   2.587 -0.3382 -0.7878  1.0054
  322THF    H11 5324   3.859   4.695   2.471 -2.6829  1.9946  1.2000
  322THF    H12 5325   4.007   4.805   2.323  0.4248 -0.7654 -0.3806
  322THF    H13 5326   3.977   4.944   2.419 -1.8946 -1.5311 -2.3089
  323THF     O1 5327   0.687   0.508   0.878  0.2571  0.4732 -0.3404
  323THF     C2 5328   0.615   0.628   0.916  0.4994  0.2900  0.0343
  323THF     C3 5329   0.587   0.402   0.856  0.1625 -0.0287 -0.3517
  323THF     H4 5330   0.577   0.680   0.829 -1.4176 -1.1930 -0.0923
  323THF     H5 5331   0.680   0.692   0.976 -0.9039  1.1554  0.6926
  323THF     H6 5332   0.556   0.406   0.751  0.0548  2.3472 -0.2975
  323THF     H7 5333   0.630   0.303   0.869  3.7173  1.1882 -1.4985
  323THF     C8 5334   0.475   0.431   0.956 -0.0154  0.3563 -0.6205
  323THF     C9 5335   0.498   0.579   0.997 -0.1421  0.1464  0.3922
  323THF    H10 5336   0.471   0.351   1.030  1.3686  1.1987  0.3953
  323THF    H11 5337   0.388   0.418   0.892 -0.6826  0.9745  0.1427
  323THF    H12 5338   0.410   0.644   0.997  0.5773  1.2167  2.6484
  323THF    H13 5339   0.542   0.586   1.096 -3.3485  1.7960  1.8541
  324THF     O1 5340   1.309   2.901   1.447 -0.7361 -0.0564 -0.2193
  324THF     C2 5341   1.308   2.982   1.331 -0.3490 -0.1139  0.1296
  324THF     C3 5342   1.230   2.973   1.543 -0.3483  0.1252 -0.4461
  324THF     H4 5343   1.216   2.960   1.276 -1.1147  0.1051  1.2995
  324THF     H5 5344   1.385   2.970   1.255  0.4556 -0.5320  0.9850
  324THF     H6 5345   1.127   2.938   1.537 -0.2695 -0.7518  2.3118
  324THF     H7 5346   1.264   2.954   1.644  0.0949  1.8762 -0.2398
  324THF     C8 5347   1.256   3.122   1.517 -0.1558 -0.8016  0.3541
  324THF     C9 5348   1.311   3.129   1.373 -0.0969 -0.4769 -0.0244
  324THF    H10 5349   1.331   3.160   1.587 -0.4772  0.0947  0.2169
  324THF    H11 5350   1.167   3.184   1.523  0.2878 -0.0901 -0.2744
  324THF    H12 5351   1.232   3.176   1.313 -0.3097  0.0561  0.6489
  324THF    H13 5352   1.406   3.181   1.366 -0.6137  0.8990  2.0424
  325THF     O1 5353   1.753   5.042   2.723 -0.1756 -0.2223  0.0584
  325THF     C2 5354   1.683   4.925   2.741 -0.2687  0.5236 -0.0767
  325THF     C3 5355   1.846   5.066   2.824 -0.1508  0.2179 -0.2523
  325THF     H4 5356   1.675   4.877   2.644  3.0892 -0.3058 -0.0543
  325THF     H5 5357   1.587   4.941   2.791  0.0877  0.2761  0.7126
  325THF     H6 5358   1.948   5.055   2.787  0.9839  0.5216  2.5046
  325THF     H7 5359   1.835   5.166   2.867 -0.3048  1.0200 -2.0419
  325THF     C8 5360   1.824   4.949   2.923  0.3263 -0.3651 -0.0495
  325THF     C9 5361   1.768   4.836   2.840 -0.1653  0.1900  0.5009
  325THF    H10 5362   1.760   4.983   3.005  2.3836  1.3135  0.9873
  325THF    H11 5363   1.914   4.929   2.981  0.5600  1.0446  0.1188
  325THF    H12 5364   1.835   4.779   2.776 -1.2000  1.0725 -1.4405
  325THF    H13 5365   1.708   4.762   2.894  1.5428 -0.8383  1.1097
  326THF     O1 5366   3.479   5.439   1.596 -0.4097 -0.1414  0.6665
  326THF     C2 5367   3.504   5.465   1.729  0.3770 -0.6949  0.5548
  326THF     C3 5368   3.339   5.417   1.583 -0.2596 -0.0893  0.1645
  326THF     H4 5369   3.468   5.567   1.748 -0.5856 -0.5649 -1.6528
  326THF     H5 5370   3.611   5.462   1.752  0.4762  1.0061  0.4731
  326THF     H6 5371   3.298   5.517   1.576 -0.4882 -0.2713 -1.6641
  326THF     H7 5372   3.318   5.362   1.491 -2.1477  2.5393 -1.0898
  326THF     C8 5373   3.298   5.350   1.708  0.1138 -0.2747  0.3760
  326THF     C9 5374   3.410   5.367   1.807 -0.7123 -0.0095 -0.1082
  326THF    H10 5375   3.280   5.243   1.694 -0.5523 -0.1486  0.1984
  326THF    H11 5376   3.207   5.393   1.751  0.6506  0.6187  0.6179
  326THF    H12 5377   3.378   5.415   1.899  2.2061  1.6603  0.1495
  326THF    H13 5378   3.475   5.280   1.816  1.2999  1.5520  0.9438
  327THF     O1 5379   2.237   3.024   0.454  0.4887  0.1672 -0.0593
  327THF     C2 5380   2.305   2.949   0.554  0.0462 -0.4316  0.1558
  327THF     C3 5381   2.123   3.078   0.521 -0.1239  0.1890  0.2750
  327THF     H4 5382   2.402   2.926   0.511  0.5518  0.8077  0.6080
  327THF     H5 5383   2.254   2.854   0.574 -0.3059 -0.9413 -2.7459
  327THF     H6 5384   2.072   3.161   0.473 -0.1244  0.1211  0.1577
  327THF     H7 5385   2.050   2.999   0.542 -0.0745  0.6021  2.1577
  327THF     C8 5386   2.173   3.126   0.657 -0.2006 -0.0437  0.0145
  327THF     C9 5387   2.306   3.053   0.669  0.5153 -0.6892 -1.5313
  327THF    H10 5388   2.105   3.106   0.740  0.0764 -0.7064  0.0879
  327THF    H11 5389   2.193   3.233   0.646 -1.2074  0.2257  0.6640
  327THF    H12 5390   2.381   3.128   0.645 -0.4302  1.1564  0.8510
  327THF    H13 5391   2.322   3.020   0.771 -1.3243  0.1447 -0.9346
  328THF     O1 5392   1.499   2.280   2.157 -0.4731 -0.2314  0.2867
  328THF     C2 5393   1.571   2.403   2.139  0.5326  0.5068  0.5658
  328THF     C3 5394   1.362   2.296   2.117 -0.2557 -0.4035 -0.0939
  328THF     H4 5395   1.599   2.427   2.036 -0.2967  1.8116  0.6233
  328THF     H5 5396   1.667   2.401   2.190  0.8191  0.3850  0.0276
  328THF     H6 5397   1.356   2.292   2.008 -0.8204  1.8852 -0.1977
  328THF     H7 5398   1.301   2.217   2.159 -1.8062 -0.0043 -1.4716
  328THF     C8 5399   1.330   2.438   2.170 -0.2844  1.1626 -0.3567
  328THF     C9 5400   1.464   2.492   2.207 -0.2253 -0.2797 -0.1095
  328THF    H10 5401   1.272   2.429   2.262  0.1310  0.3263 -0.1622
  328THF    H11 5402   1.284   2.507   2.099  0.2836  1.8408 -0.0740
  328THF    H12 5403   1.474   2.599   2.190  1.4321 -0.3942 -0.0641
  328THF    H13 5404   1.483   2.480   2.313  2.0467  2.0322 -0.1440
  329THF     O1 5405   0.826   5.071   1.094 -0.4260  0.5687 -0.1220
  329THF     C2 5406   0.752   5.142   1.190  0.0638  0.5163  0.4969
  329THF     C3 5407   0.925   5.161   1.045  0.2561  0.1720 -0.1746
  329THF     H4 5408   0.812   5.145   1.281  0.8069  1.7276 -0.0017
  329THF     H5 5409   0.656   5.095   1.209 -0.0377  0.1752 -0.7725
  329THF     H6 5410   1.000   5.168   1.124 -0.1408  1.8251  0.0875
  329THF     H7 5411   0.968   5.128   0.951 -1.1910  2.6213 -1.8054
  329THF     C8 5412   0.853   5.303   1.044  0.9762 -0.1350 -0.2173
  329THF     C9 5413   0.732   5.276   1.129  0.3328  0.2449 -0.3569
  329THF    H10 5414   0.812   5.341   0.950 -0.2262 -0.3182  0.2098
  329THF    H11 5415   0.918   5.377   1.090  0.7926  0.8521 -1.4849
  329THF    H12 5416   0.714   5.347   1.210  0.8825  0.3870 -0.3535
  329THF    H13 5417   0.648   5.263   1.061  0.9288 -0.2699 -1.0082
  330THF     O1 5418   1.359   2.472   3.972 -0.3104  0.4975  0.3062
  330THF     C2 5419   1.434   2.538   4.069  0.4678  0.5349  0.5649
  330THF     C3 5420   1.417   2.345   3.952 -0.1838  1.0421 -0.2392
  330THF     H4 5421   1.378   2.618   4.117  0.6102  1.2102 -0.3859
  330THF     H5 5422   1.522   2.581   4.022 -1.4412  3.2200 -0.7715
  330THF     H6 5423   1.358   2.265   3.908  1.6775 -0.5377 -0.0235
  330THF     H7 5424   1.506   2.353   3.890 -0.5827 -0.1952 -0.9956
  330THF     C8 5425   1.461   2.297   4.093  0.2531 -0.4827  0.0746
  330THF     C9 5426   1.447   2.425   4.175  0.0807  0.1772  0.2361
  330THF    H10 5427   1.563   2.261   4.107  0.9989  1.3319 -0.3278
  330THF    H11 5428   1.401   2.214   4.129 -1.7282  0.9091  0.1135
  330THF    H12 5429   1.359   2.433   4.240  0.6111  0.8162  0.8952
  330THF    H13 5430   1.523   2.427   4.254 -0.6401 -0.2052  0.9599
  331THF     O1 5431   0.660   2.239   5.452 -0.0701  0.1229 -0.0291
  331THF     C2 5432   0.709   2.254   5.590  0.3465 -0.7958 -0.6492
  331THF     C3 5433   0.786   2.220   5.382  0.6253  0.4783 -0.1732
  331THF     H4 5434   0.752   2.165   5.637 -1.0770 -0.6523  1.0127
  331THF     H5 5435   0.640   2.295   5.664  0.0260  0.8859 -1.8217
  331THF     H6 5436   0.827   2.124   5.413 -0.6479 -0.2929 -0.8035
  331THF     H7 5437   0.782   2.199   5.275 -0.2701 -1.4620  0.2124
  331THF     C8 5438   0.873   2.336   5.427 -0.4810 -0.2080 -0.0050
  331THF     C9 5439   0.824   2.358   5.572 -0.0732  0.1946  0.1210
  331THF    H10 5440   0.867   2.422   5.359 -0.7226 -0.8822 -0.8506
  331THF    H11 5441   0.977   2.303   5.423  0.1023  1.4705  0.0747
  331THF    H12 5442   0.899   2.334   5.648 -0.9860 -4.7466 -0.1851
  331THF    H13 5443   0.788   2.457   5.599 -0.5810  0.2526 -0.7456
  332THF     O1 5444   1.409   1.945   1.827  1.2310  0.7249 -0.8459
  332THF     C2 5445   1.540   1.937   1.878 -0.1262 -0.5758 -0.3255
  332THF     C3 5446   1.404   1.836   1.736  0.4425 -0.6713  0.5585
  332THF     H4 5447   1.538   1.874   1.966 -0.9471  0.4764  0.4351
  332THF     H5 5448   1.566   2.035   1.920 -2.9924  0.8172 -1.4846
  332THF     H6 5449   1.387   1.738   1.779 -0.8041 -0.6988  0.0258
  332THF     H7 5450   1.314   1.851   1.676  0.3715 -0.5882  0.6846
  332THF     C8 5451   1.531   1.847   1.660  0.2390  0.5218  0.3591
  332THF     C9 5452   1.630   1.896   1.764  0.0032 -0.4217  0.3345
  332THF    H10 5453   1.519   1.920   1.579 -2.1173 -1.5146 -1.2774
  332THF    H11 5454   1.566   1.760   1.604 -1.4713  0.1173 -0.1238
  332THF    H12 5455   1.703   1.822   1.795  1.3321  0.7653  0.1415
  332THF    H13 5456   1.691   1.978   1.725  1.3322 -0.9396  1.2510
  333THF     O1 5457   4.616   5.460   2.991  0.0139 -0.4711 -0.2636
  333THF     C2 5458   4.492   5.399   2.958  0.4775 -0.2702  0.1127
  333THF     C3 5459   4.699   5.430   2.882 -0.0621  0.7221 -0.2378
  333THF     H4 5460   4.433   5.475   2.907 -0.0543 -0.1227  0.9453
  333THF     H5 5461   4.438   5.378   3.050 -0.0441  1.3403  0.2000
  333THF     H6 5462   4.687   5.506   2.804  0.8777  0.4369 -0.6836
  333THF     H7 5463   4.805   5.429   2.908  0.4643 -2.9588 -1.8809
  333THF     C8 5464   4.656   5.299   2.823  0.4762 -0.0210  0.1565
  333THF     C9 5465   4.519   5.275   2.877  0.5532 -0.1982  0.0758
  333THF    H10 5466   4.718   5.222   2.866 -0.1843 -0.3002  0.6240
  333THF    H11 5467   4.669   5.296   2.715  2.4901 -0.6375  0.3849
  333THF    H12 5468   4.449   5.278   2.793 -0.3257  0.3586  0.8024
  333THF    H13 5469   4.511   5.187   2.942  1.6566  0.2011  0.7802
  334THF     O1 5470   4.732   4.336   3.610 -0.3336 -0.1414  0.3848
  334THF     C2 5471   4.842   4.257   3.656 -0.2337  0.3862  0.2909
  334THF     C3 5472   4.667   4.273   3.503 -0.9071 -0.0674 -0.9736
  334THF     H4 5473   4.877   4.286   3.755  2.1803 -0.5216 -0.2382
  334THF     H5 5474   4.918   4.252   3.578 -0.3348 -1.0047  0.2523
  334THF     H6 5475   4.575   4.322   3.471 -1.3675  0.0913  0.4978
  334THF     H7 5476   4.728   4.271   3.413  0.7263  1.3998  0.0364
  334THF     C8 5477   4.665   4.132   3.557 -0.5061  0.3374  0.0534
  334THF     C9 5478   4.777   4.117   3.660 -0.6132 -0.2323  0.2376
  334THF    H10 5479   4.669   4.057   3.478 -1.2252 -0.3640  0.6658
  334THF    H11 5480   4.565   4.121   3.599 -0.2195  1.0269  0.9530
  334THF    H12 5481   4.724   4.100   3.754  1.5769 -1.7795  1.2966
  334THF    H13 5482   4.843   4.033   3.637 -0.7108 -0.3250  0.2908
  335THF     O1 5483   3.833   2.047   3.486 -0.3456 -0.2044 -0.1461
  335THF     C2 5484   3.847   1.987   3.618  0.1270 -0.2395 -0.2645
  335THF     C3 5485   3.810   1.943   3.387 -0.1836 -0.3808 -0.6668
  335THF     H4 5486   3.806   2.044   3.702 -1.1769 -2.3810  0.6556
  335THF     H5 5487   3.951   1.958   3.631  0.8784  2.1947 -0.4123
  335THF     H6 5488   3.760   1.993   3.304 -1.5995  1.9285  1.4330
  335THF     H7 5489   3.907   1.903   3.359 -0.3301 -0.7782 -0.6059
  335THF     C8 5490   3.722   1.846   3.468  0.1018 -0.2579 -0.3856
  335THF     C9 5491   3.765   1.854   3.618 -0.7732  0.0577  0.0493
  335THF    H10 5492   3.732   1.749   3.418 -1.3854 -0.3996 -0.4815
  335THF    H11 5493   3.615   1.869   3.463  0.4375  1.3953 -0.2999
  335THF    H12 5494   3.684   1.859   3.691  0.0503  0.1414  0.9812
  335THF    H13 5495   3.837   1.783   3.659  0.0331  2.0012  2.1969
  336THF     O1 5496   2.965   1.174   3.637  0.0049 -0.9428  0.4551
  336THF     C2 5497   3.025   1.310   3.630  0.9864  0.1606  0.0867
  336THF     C3 5498   3.070   1.090   3.684 -0.0051  0.4929  0.0833
  336THF     H4 5499   3.016   1.343   3.734  0.5104 -0.7612  0.3437
  336THF     H5 5500   2.968   1.375   3.563 -0.4767  0.8830  1.9221
  336THF     H6 5501   3.050   1.078   3.790  0.0179 -0.5177 -0.0174
  336THF     H7 5502   3.061   0.989   3.645 -2.0413  1.1520 -1.3397
  336THF     C8 5503   3.197   1.144   3.631  0.0195 -0.0323 -0.3050
  336THF     C9 5504   3.168   1.287   3.586 -0.4804  0.6242 -0.5290
  336THF    H10 5505   3.244   1.082   3.555  0.4033  0.7757 -0.7398
  336THF    H11 5506   3.267   1.148   3.714  0.0229  0.5336 -0.3301
  336THF    H12 5507   3.234   1.361   3.630  0.6079 -0.1325 -0.8409
  336THF    H13 5508   3.170   1.302   3.478  0.0727 -1.4197 -0.8486
  337THF     O1 5509   1.035   4.996   0.092 -0.2264  0.3730 -0.1863
  337THF     C2 5510   1.024   5.109   0.170 -0.4279  0.2031  0.3126
  337THF     C3 5511   1.100   5.032  -0.026 -0.2753 -0.1010 -0.3780
  337THF     H4 5512   1.073   5.079   0.263 -0.9628  0.1845  0.5909
  337THF     H5 5513   0.921   5.145   0.173 -0.2068  1.2746 -2.3068
  337THF     H6 5514   1.142   4.941  -0.069  0.4209  0.6326 -1.2690
  337THF     H7 5515   1.020   5.072  -0.089 -0.9999 -0.7742  0.0978
  337THF     C8 5516   1.198   5.143   0.015  0.2771  0.2570 -0.1587
  337THF     C9 5517   1.115   5.219   0.108 -0.3073  0.0311 -0.2248
  337THF    H10 5518   1.248   5.185  -0.073 -0.1519 -3.3907 -2.3638
  337THF    H11 5519   1.276   5.118   0.087 -0.5405 -0.4505  0.4935
  337THF    H12 5520   1.180   5.268   0.180 -1.8614 -1.0857  2.0419
  337THF    H13 5521   1.056   5.298   0.060  0.0885 -0.1656 -1.0443
  338THF     O1 5522   0.557   5.300   0.389  0.1580  0.5143 -0.3809
  338THF     C2 5523   0.641   5.196   0.336 -0.4020  0.4645  0.2857
  338THF     C3 5524   0.452   5.230   0.460  0.6746  0.4771 -0.1161
  338THF     H4 5525   0.700   5.171   0.424  0.1350 -1.0140 -0.4645
  338THF     H5 5526   0.705   5.210   0.249  2.6822 -0.9729  2.1453
  338THF     H6 5527   0.500   5.181   0.545  1.2361  0.4176 -0.4566
  338THF     H7 5528   0.373   5.295   0.498  1.2237  2.0421 -1.5373
  338THF     C8 5529   0.408   5.121   0.362 -0.1213  0.4455  0.7442
  338THF     C9 5530   0.538   5.086   0.294  0.0465  0.5527 -0.1826
  338THF    H10 5531   0.347   5.165   0.283  2.5510  2.1578 -0.5175
  338THF    H11 5532   0.359   5.036   0.411 -0.9596  0.7086  0.3784
  338THF    H12 5533   0.578   4.985   0.307 -0.8463  0.2548  0.3237
  338THF    H13 5534   0.529   5.080   0.186 -1.3230 -1.1306 -0.0109
  339THF     O1 5535   1.076   4.177   5.099 -0.3429  0.2245 -0.1184
  339THF     C2 5536   1.006   4.136   5.218  0.3628 -0.5249 -0.9076
  339THF     C3 5537   0.984   4.243   5.013  0.0835 -0.1012 -0.1480
  339THF     H4 5538   1.080   4.133   5.298 -1.4635 -1.2346  0.8301
  339THF     H5 5539   0.971   4.033   5.215 -0.2260 -0.3461 -0.3726
  339THF     H6 5540   1.049   4.299   4.946  0.7343  0.8152  1.2172
  339THF     H7 5541   0.921   4.173   4.957  0.4129 -1.8092  1.5311
  339THF     C8 5542   0.914   4.332   5.108 -0.3096  0.3557 -0.0748
  339THF     C9 5543   0.878   4.230   5.216 -0.4594 -0.2633 -0.0674
  339THF    H10 5544   0.835   4.378   5.047  0.8754  1.8064 -0.5787
  339THF    H11 5545   0.979   4.416   5.134 -1.0049  0.9177 -0.1105
  339THF    H12 5546   0.853   4.274   5.313 -0.4479  1.6509 -0.9018
  339THF    H13 5547   0.792   4.169   5.190 -1.0232 -0.0941  1.3010
  340THF     O1 5548   2.328   4.262   2.716 -0.0227  0.1878 -0.2681
  340THF     C2 5549   2.259   4.379   2.644  0.1679  0.6226  0.2633
  340THF     C3 5550   2.365   4.305   2.846 -0.4279  0.2187 -0.1569
  340THF     H4 5551   2.152   4.382   2.659 -0.3408  0.9059 -2.7331
  340THF     H5 5552   2.263   4.373   2.535 -1.3661  1.4178  0.1460
  340THF     H6 5553   2.321   4.250   2.929  0.6101 -2.0317 -0.9963
  340THF     H7 5554   2.470   4.278   2.855 -0.5753 -0.1688  0.4843
  340THF     C8 5555   2.323   4.455   2.857 -0.4581 -0.0449 -0.0928
  340THF     C9 5556   2.317   4.504   2.715 -0.0399  0.4856  0.6450
  340THF    H10 5557   2.391   4.512   2.920  0.4691  0.0095 -1.1018
  340THF    H11 5558   2.232   4.449   2.916 -0.2930  1.2692  0.3151
  340THF    H12 5559   2.250   4.590   2.711 -1.4610 -0.6170 -1.6098
  340THF    H13 5560   2.411   4.542   2.675  0.9224 -0.8033  1.6223
  341THF     O1 5561   1.896   4.130   0.448 -0.1792  0.6337  0.0854
  341THF     C2 5562   1.762   4.097   0.468 -0.0205  0.9046  0.1857
  341THF     C3 5563   1.974   4.115   0.570  0.2094  0.4920 -0.0913
  341THF     H4 5564   1.742   4.047   0.374 -2.7602  0.3412  0.9556
  341THF     H5 5565   1.698   4.186   0.466 -0.6990  0.4080 -1.3694
  341THF     H6 5566   2.081   4.106   0.547 -0.1619 -0.0338 -1.7705
  341THF     H7 5567   1.961   4.203   0.631  3.7825  1.3974 -0.4009
  341THF     C8 5568   1.912   3.983   0.628 -0.4810 -0.3331 -0.0556
  341THF     C9 5569   1.764   4.005   0.596 -0.2870 -0.2100 -0.1726
  341THF    H10 5570   1.925   3.980   0.737  1.1080  0.0599 -0.2149
  341THF    H11 5571   1.943   3.898   0.567 -1.5859 -0.0881 -0.9943
  341THF    H12 5572   1.705   3.915   0.582 -1.6523  0.8396 -1.4625
  341THF    H13 5573   1.714   4.053   0.680  0.2187 -1.9952  1.2129
  342THF     O1 5574   2.499   3.387   0.371  0.1365  0.7351  0.7276
  342THF     C2 5575   2.362   3.372   0.337 -0.8877  0.5373  0.0036
  342THF     C3 5576   2.500   3.393   0.512  0.3489  0.0525 -0.2947
  342THF     H4 5577   2.340   3.265   0.334 -0.6856  0.5128 -1.5514
  342THF     H5 5578   2.350   3.415   0.237  0.7807  1.0773  0.0027
  342THF     H6 5579   2.499   3.296   0.560  0.3539  0.4439  0.5161
  342THF     H7 5580   2.585   3.451   0.550  0.1564 -0.1499  0.4562
  342THF     C8 5581   2.371   3.467   0.546  0.3949  0.0193 -0.5074
  342THF     C9 5582   2.276   3.433   0.438 -0.5716  1.1526 -0.0421
  342THF    H10 5583   2.386   3.575   0.545 -1.4275  0.3048 -2.1193
  342THF    H11 5584   2.329   3.427   0.639  0.0988  0.5560 -0.4062
  342THF    H12 5585   2.200   3.362   0.471  0.7975  0.1369  1.0411
  342THF    H13 5586   2.229   3.520   0.391 -2.1380  0.2137 -0.2840
  343THF     O1 5587   2.802   2.736   4.171 -0.5044 -0.1671 -0.4012
  343THF     C2 5588   2.775   2.706   4.034  0.0871  0.4407 -0.2815
  343THF     C3 5589   2.694   2.815   4.223  0.0557 -1.4094  0.2099
  343THF     H4 5590   2.807   2.605   4.009 -0.0177  0.8570 -2.2886
  343THF     H5 5591   2.827   2.773   3.965 -0.2092 -0.7250 -1.6929
  343THF     H6 5592   2.704   2.816   4.331 -0.7554  1.3148  0.3442
  343THF     H7 5593   2.699   2.914   4.176  1.2112 -1.2147  0.7128
  343THF     C8 5594   2.575   2.738   4.172  0.3763 -0.4886 -0.1572
  343THF     C9 5595   2.621   2.706   4.025  0.4357  0.5197  0.3200
  343THF    H10 5596   2.482   2.796   4.169  0.7524  0.1472  0.3607
  343THF    H11 5597   2.556   2.646   4.226  0.0769 -0.5490 -0.3614
  343THF    H12 5598   2.583   2.624   3.965 -1.4024  1.9954 -0.6556
  343THF    H13 5599   2.590   2.795   3.969  0.0547 -0.3695 -0.9186
  344THF     O1 5600   2.119   4.770   3.066  0.1693  0.4841  0.1244
  344THF     C2 5601   2.221   4.784   3.158  0.3121 -0.0316  0.8512
  344THF     C3 5602   2.015   4.695   3.128 -0.2657  0.2621  0.2602
  344THF     H4 5603   2.274   4.876   3.134  0.1743 -0.4875 -1.4515
  344THF     H5 5604   2.292   4.703   3.145  2.5825  1.9050  0.5233
  344THF     H6 5605   1.919   4.715   3.080 -0.8922  3.1730  2.4252
  344THF     H7 5606   2.038   4.589   3.134  2.8583  0.6595 -1.8000
  344THF     C8 5607   2.000   4.753   3.266 -0.3812  0.1064  0.0836
  344THF     C9 5608   2.150   4.783   3.297 -0.6219 -0.1953  0.2468
  344THF    H10 5609   1.952   4.682   3.334  0.4049  0.5080  1.0785
  344THF    H11 5610   1.939   4.843   3.272 -1.3134 -0.4556 -0.6182
  344THF    H12 5611   2.163   4.877   3.351 -2.2007  0.7467 -0.9187
  344THF    H13 5612   2.188   4.692   3.345  1.3375 -0.5625 -1.8518
  345THF     O1 5613   3.336   4.053   5.041 -0.5483 -0.1113 -0.1896
  345THF     C2 5614   3.438   4.063   4.944  0.0637 -0.1932 -0.6752
  345THF     C3 5615   3.305   3.919   5.053 -0.1823 -0.2284  0.0270
  345THF     H4 5616   3.534   4.055   4.994 -0.1708 -1.6703 -0.4195
  345THF     H5 5617   3.421   4.153   4.884  0.1133 -1.4234 -2.6365
  345THF     H6 5618   3.375   3.884   5.129 -0.7545  0.6751  1.0067
  345THF     H7 5619   3.207   3.891   5.093  0.3023 -1.2529  0.5442
  345THF     C8 5620   3.304   3.868   4.909 -0.4962  0.2794 -0.1590
  345THF     C9 5621   3.430   3.939   4.856 -0.0362 -0.3902  0.2092
  345THF    H10 5622   3.215   3.907   4.860 -0.6349 -0.7093 -0.7274
  345THF    H11 5623   3.304   3.760   4.899  0.2304  0.1253  1.3257
  345THF    H12 5624   3.520   3.879   4.872  1.4389  2.0034  1.3097
  345THF    H13 5625   3.425   3.960   4.749  0.4831  0.2596  0.3076
  346THF     O1 5626   1.811   3.364   0.523  0.0276 -0.6174  0.0666
  346THF     C2 5627   1.684   3.321   0.486 -0.1847 -1.3697 -0.0549
  346THF     C3 5628   1.820   3.363   0.661  0.2434 -0.3362  0.3036
  346THF     H4 5629   1.684   3.217   0.456  1.0482 -1.1552 -0.8664
  346THF     H5 5630   1.661   3.374   0.393 -1.2292 -2.7082 -0.5793
  346THF     H6 5631   1.824   3.258   0.690 -2.2459 -0.0544  2.0119
  346THF     H7 5632   1.902   3.427   0.693  0.2633 -1.6484  3.1887
  346THF     C8 5633   1.681   3.413   0.706  0.3775 -0.2642  0.8415
  346THF     C9 5634   1.590   3.347   0.604 -0.7602  0.5724  0.1412
  346THF    H10 5635   1.674   3.521   0.695  1.4170 -0.4297 -2.9072
  346THF    H11 5636   1.646   3.396   0.808  0.8632  0.9110  1.2098
  346THF    H12 5637   1.549   3.257   0.648  0.0180 -1.3922 -2.8748
  346THF    H13 5638   1.504   3.411   0.586 -1.4950 -0.3496  0.3268
  347THF     O1 5639   5.292   0.749   1.404 -0.2629 -0.2810  0.0632
  347THF     C2 5640   5.157   0.763   1.362  0.3287  0.4648  0.3650
  347THF     C3 5641   5.381   0.767   1.300  0.3252 -0.1734 -0.3716
  347THF     H4 5642   5.084   0.802   1.433  0.4740  1.8471 -0.1996
  347THF     H5 5643   5.132   0.663   1.325  1.4522  0.3274 -0.0693
  347THF     H6 5644   5.457   0.827   1.350 -0.5697  0.9709 -0.3417
  347THF     H7 5645   5.419   0.667   1.282  1.3986 -0.1046  1.2673
  347THF     C8 5646   5.302   0.823   1.182  0.5393  0.7525 -0.2322
  347THF     C9 5647   5.172   0.866   1.248 -0.3443  0.0076  0.2197
  347THF    H10 5648   5.276   0.757   1.100  0.5197  1.8575 -1.1378
  347THF    H11 5649   5.348   0.909   1.134 -1.3219  1.9583  0.0261
  347THF    H12 5650   5.177   0.968   1.286 -2.6587 -0.0710  0.9496
  347THF    H13 5651   5.089   0.846   1.181  0.7804 -1.7949 -0.6984
  348THF     O1 5652   3.317   2.171   5.013 -0.1290 -0.2158  0.4375
  348THF     C2 5653   3.207   2.096   5.054  0.0781  0.5133 -0.8320
  348THF     C3 5654   3.278   2.240   4.892 -0.3673 -0.9829 -0.5703
  348THF     H4 5655   3.195   2.085   5.162  2.8358  0.8132 -0.4250
  348THF     H5 5656   3.201   1.999   5.005 -1.4027  1.1217 -1.9393
  348THF     H6 5657   3.348   2.324   4.895 -3.6977  2.0242  0.5590
  348THF     H7 5658   3.294   2.177   4.805  1.1736 -0.8456 -0.4019
  348THF     C8 5659   3.133   2.279   4.906  0.3639  0.3052  0.3704
  348THF     C9 5660   3.082   2.167   4.992  0.2412  0.5762  0.0923
  348THF    H10 5661   3.087   2.278   4.807 -2.2016  0.2158  1.4746
  348THF    H11 5662   3.109   2.370   4.961  2.1046  0.3337  1.1488
  348THF    H12 5663   3.019   2.194   5.077 -0.4972 -1.1912  0.1542
  348THF    H13 5664   3.026   2.086   4.944  0.1443 -1.1386  2.8734
  349THF     O1 5665   1.638   1.561   0.370  0.1196  0.4349  0.0903
  349THF     C2 5666   1.772   1.549   0.427 -0.2891 -0.3914 -0.4593
  349THF     C3 5667   1.546   1.517   0.471  0.2598 -0.4755  0.6687
  349THF     H4 5668   1.805   1.651   0.447 -2.1088  0.0556  0.4987
  349THF     H5 5669   1.848   1.519   0.355 -0.2943 -1.9365  0.1463
  349THF     H6 5670   1.467   1.593   0.477  1.4117  0.6945  1.7942
  349THF     H7 5671   1.504   1.419   0.450  0.3222 -0.9744  2.6737
  349THF     C8 5672   1.624   1.513   0.602 -0.1090 -0.7544  0.1094
  349THF     C9 5673   1.768   1.481   0.557  1.5963 -0.5436  0.3095
  349THF    H10 5674   1.594   1.446   0.682  0.8185 -2.2815 -0.7810
  349THF    H11 5675   1.609   1.614   0.642 -0.1778 -0.5952 -0.3105
  349THF    H12 5676   1.840   1.508   0.635  1.4180 -2.4591  1.1936
  349THF    H13 5677   1.774   1.373   0.546 -0.0275 -0.5003 -1.3382
  350THF     O1 5678   2.382   4.088   1.930 -0.0178 -0.6603 -0.6390
  350THF     C2 5679   2.379   3.962   1.878  0.6245  0.0560 -0.5131
  350THF     C3 5680   2.418   4.183   1.836 -0.0354 -0.4335 -0.6056
  350THF     H4 5681   2.291   3.907   1.910  0.7425 -0.3559 -0.8903
  350THF     H5 5682   2.462   3.913   1.930  0.6708 -0.6774 -1.2576
  350THF     H6 5683   2.382   4.279   1.873 -1.7755 -1.3082  0.0666
  350THF     H7 5684   2.527   4.189   1.832 -0.0832 -0.0643 -2.8962
  350THF     C8 5685   2.366   4.131   1.706 -0.3375  0.1123 -1.1203
  350THF     C9 5686   2.397   3.982   1.731 -0.4725 -0.4648  0.2883
  350THF    H10 5687   2.423   4.175   1.624 -1.6628  0.9146 -1.6501
  350THF    H11 5688   2.260   4.151   1.686 -0.6459 -0.0703  0.2331
  350THF    H12 5689   2.338   3.923   1.660  1.0350 -0.2099 -1.2373
  350THF    H13 5690   2.499   3.974   1.696  0.0069 -0.9338  1.7364
  351THF     O1 5691   1.213   3.986   4.937  0.2166 -0.2176 -0.4827
  351THF     C2 5692   1.180   3.988   4.795  0.1230  0.2240  0.2472
  351THF     C3 5693   1.184   3.858   4.991 -1.1522  0.3432  0.2422
  351THF     H4 5694   1.274   3.971   4.743 -0.4979  0.7116 -1.0874
  351THF     H5 5695   1.134   4.081   4.760  0.3896  0.2967  0.0890
  351THF     H6 5696   1.276   3.803   4.969 -1.0902  0.4887  0.1360
  351THF     H7 5697   1.180   3.856   5.100 -0.6036  1.3310  0.2902
  351THF     C8 5698   1.056   3.819   4.917 -0.3537 -0.9503 -0.0035
  351THF     C9 5699   1.082   3.879   4.777  0.6133  0.4824  0.1437
  351THF    H10 5700   0.976   3.856   4.982  0.1297  0.3617 -0.1205
  351THF    H11 5701   1.030   3.714   4.919 -1.6566 -0.6444  0.4139
  351THF    H12 5702   1.126   3.801   4.715 -0.4745  0.1073 -0.1820
  351THF    H13 5703   0.986   3.901   4.729  0.3573 -2.0101 -0.6052
  352THF     O1 5704   5.097   5.142   3.080  0.0266  0.0534  1.1694
  352THF     C2 5705   4.962   5.184   3.049  0.3299 -0.1183  0.7575
  352THF     C3 5706   5.121   5.015   3.033 -0.5271 -0.0747 -0.0539
  352THF     H4 5707   4.949   5.221   2.948 -1.1940  0.7910  1.2513
  352THF     H5 5708   4.919   5.260   3.115 -1.1109  0.8450 -1.1905
  352THF     H6 5709   5.124   5.016   2.924 -1.7078  0.6642 -0.0915
  352THF     H7 5710   5.208   4.962   3.070 -1.3541  0.9597  3.7417
  352THF     C8 5711   4.989   4.952   3.077  0.5747  0.3496 -0.3127
  352THF     C9 5712   4.886   5.058   3.079  0.4241 -0.3217 -0.6500
  352THF    H10 5713   5.006   4.919   3.179 -1.9116 -1.6364 -0.4365
  352THF    H11 5714   4.975   4.870   3.007  0.9818  1.1606 -1.3615
  352THF    H12 5715   4.807   5.039   3.006  0.5816  2.6753 -1.7286
  352THF    H13 5716   4.837   5.080   3.174 -0.5679 -0.2284 -1.1661
  353THF     O1 5717   1.536   5.121   3.198 -0.2463 -0.5617 -0.4468
  353THF     C2 5718   1.527   5.156   3.063 -0.0474  0.8737 -0.0606
  353THF     C3 5719   1.541   5.237   3.276  0.3128 -0.4253 -0.0176
  353THF     H4 5720   1.424   5.162   3.028 -0.0485 -1.6640 -0.7036
  353THF     H5 5721   1.567   5.067   3.012 -0.8125  0.0859  0.6930
  353THF     H6 5722   1.438   5.257   3.307 -0.2287 -1.5001 -1.0198
  353THF     H7 5723   1.602   5.211   3.362 -0.3899  1.4850  1.1208
  353THF     C8 5724   1.595   5.346   3.183 -0.2646  0.2810  0.2323
  353THF     C9 5725   1.628   5.265   3.062 -0.3072  0.4226 -0.0649
  353THF    H10 5726   1.680   5.407   3.214  0.0522  0.5697 -1.1345
  353THF    H11 5727   1.509   5.410   3.164 -0.4448 -0.0868 -0.1983
  353THF    H12 5728   1.654   5.308   2.965  3.6805 -0.5387  0.4052
  353THF    H13 5729   1.722   5.214   3.080 -1.5830 -1.6291  1.1784
  354THF     O1 5730   2.624   0.584   0.872 -0.0918  0.1801  0.1345
  354THF     C2 5731   2.718   0.509   0.800 -0.7413 -0.4036  0.2053
  354THF     C3 5732   2.497   0.525   0.836 -0.2222 -1.0032 -0.2755
  354THF     H4 5733   2.817   0.508   0.846  0.5245  3.3873 -1.9667
  354THF     H5 5734   2.724   0.546   0.697 -2.5906 -0.8661 -0.0953
  354THF     H6 5735   2.424   0.557   0.911  1.7998  0.4439  1.1731
  354THF     H7 5736   2.461   0.569   0.743  1.4003 -1.0440 -0.9452
  354THF     C8 5737   2.512   0.379   0.823 -0.3572 -0.2963 -0.7966
  354THF     C9 5738   2.662   0.370   0.810 -0.2698  0.5069  0.1993
  354THF    H10 5739   2.458   0.338   0.738 -2.8197  0.1163  0.4896
  354THF    H11 5740   2.488   0.322   0.913  0.2411 -0.2564 -0.6024
  354THF    H12 5741   2.704   0.342   0.907  0.4300  0.0880 -0.2140
  354THF    H13 5742   2.700   0.298   0.738 -0.2984  0.6642  0.0276
  355THF     O1 5743   0.858   0.230   5.230 -0.3605  0.2623  0.0552
  355THF     C2 5744   0.788   0.179   5.118  0.2546 -0.5970 -0.2717
  355THF     C3 5745   0.998   0.226   5.191  0.2169 -0.0704  0.4348
  355THF     H4 5746   0.683   0.207   5.116  0.4046 -0.0166 -0.2467
  355THF     H5 5747   0.787   0.070   5.117  0.6172 -0.6159  0.6060
  355THF     H6 5748   1.062   0.297   5.243 -0.2161 -0.0440  0.9356
  355THF     H7 5749   1.048   0.129   5.198  2.2039  0.9635  1.4978
  355THF     C8 5750   0.997   0.257   5.040 -0.2126  1.1580  0.0623
  355THF     C9 5751   0.858   0.237   4.995 -0.2376 -0.2377  0.3459
  355THF    H10 5752   1.079   0.200   4.995  0.7458  3.2241 -0.9580
  355THF    H11 5753   1.030   0.360   5.027 -0.5497  1.2287 -0.2205
  355THF    H12 5754   0.814   0.328   4.952  1.5706  0.3014 -0.4830
  355THF    H13 5755   0.871   0.161   4.919  3.7168 -0.0579  0.6194
  356THF     O1 5756   1.741   4.479   3.338 -0.2778  0.5851 -0.6697
  356THF     C2 5757   1.681   4.568   3.248 -0.4998  0.4805  0.3051
  356THF     C3 5758   1.697   4.520   3.467  0.0489 -0.4658  0.6766
  356THF     H4 5759   1.677   4.529   3.146  0.9062  2.8202 -0.7180
  356THF     H5 5760   1.737   4.659   3.232 -0.5985  0.1334 -2.4585
  356THF     H6 5761   1.690   4.433   3.532 -1.9616  0.2722  1.5373
  356THF     H7 5762   1.774   4.581   3.514 -0.6055  0.2560  0.8360
  356THF     C8 5763   1.564   4.597   3.449  0.0293 -0.9260  0.0978
  356THF     C9 5764   1.544   4.600   3.301  0.0473  0.5597 -0.6690
  356THF    H10 5765   1.578   4.696   3.495  2.1954 -0.6525 -0.9984
  356THF    H11 5766   1.478   4.545   3.490  0.6675 -1.0382  1.3766
  356THF    H12 5767   1.472   4.531   3.256 -0.5626  1.2789 -0.7970
  356THF    H13 5768   1.514   4.696   3.261  0.5762  1.1941  0.4268
  357THF     O1 5769   0.127   4.493   5.167 -0.1406 -0.6074 -0.3898
  357THF     C2 5770   0.138   4.625   5.207  0.1489  0.6981 -0.2167
  357THF     C3 5771   0.044   4.420   5.255  0.0537 -0.3225 -0.3274
  357THF     H4 5772   0.050   4.683   5.181 -1.7385 -2.0984 -0.5774
  357THF     H5 5773   0.228   4.659   5.156 -0.6562 -0.3697 -2.4829
  357THF     H6 5774  -0.054   4.421   5.206  0.6362  0.5709 -1.5149
  357THF     H7 5775   0.091   4.322   5.262  1.1651  0.3136  3.1186
  357THF     C8 5776   0.067   4.496   5.388 -0.8807  0.0799 -0.3895
  357THF     C9 5777   0.150   4.619   5.358 -1.1514 -0.3243  0.5114
  357THF    H10 5778   0.119   4.444   5.468  2.9784  2.2691 -1.2648
  357THF    H11 5779  -0.029   4.528   5.430 -0.9914 -1.1818  0.3520
  357THF    H12 5780   0.115   4.714   5.398 -0.8617 -0.5152  1.2492
  357THF    H13 5781   0.255   4.609   5.384 -1.1747  0.0775  0.7632
  358THF     O1 5782   5.013   1.196   3.330  0.4949 -0.5740 -0.3101
  358THF     C2 5783   4.918   1.100   3.366 -0.3088  0.7212 -0.1825
  358THF     C3 5784   4.990   1.225   3.192 -0.3297  0.6682 -0.0353
  358THF     H4 5785   4.897   1.090   3.473 -2.4270  0.3379 -0.5900
  358THF     H5 5786   4.965   1.008   3.334  1.8333  1.7330 -0.1348
  358THF     H6 5787   5.024   1.322   3.155 -0.1283  1.0118  1.0286
  358THF     H7 5788   5.043   1.152   3.131 -0.4857  0.8576 -0.3995
  358THF     C8 5789   4.840   1.226   3.172 -0.0503  0.6372  0.1153
  358THF     C9 5790   4.791   1.141   3.293  0.0036 -0.1978  0.5770
  358THF    H10 5791   4.806   1.174   3.083 -2.8767  0.2126  1.3105
  358THF    H11 5792   4.791   1.323   3.185 -0.3129  0.3678  1.2634
  358THF    H12 5793   4.720   1.193   3.357 -1.4115 -0.5674 -0.6476
  358THF    H13 5794   4.743   1.049   3.260 -0.2534 -0.4987  1.7359
  359THF     O1 5795   2.170   2.451   3.399 -0.0931  1.0695  0.1437
  359THF     C2 5796   2.082   2.491   3.299  0.1919 -0.2360  0.2120
  359THF     C3 5797   2.105   2.466   3.527  0.3831  0.5704 -0.5559
  359THF     H4 5798   2.108   2.439   3.206  1.9538 -2.3576  1.7820
  359THF     H5 5799   2.088   2.599   3.285  1.6317 -0.0212  2.1056
  359THF     H6 5800   2.135   2.396   3.605 -0.5863  1.8536  1.0536
  359THF     H7 5801   2.133   2.565   3.564  0.9322 -0.7633  3.0266
  359THF     C8 5802   1.958   2.461   3.505 -0.0615 -0.0683 -0.2490
  359THF     C9 5803   1.945   2.442   3.352 -0.9117  0.2461 -0.0939
  359THF    H10 5804   1.915   2.554   3.539 -3.3748 -0.9782 -1.5821
  359THF    H11 5805   1.911   2.371   3.546  0.9259 -0.9892 -1.0481
  359THF    H12 5806   1.927   2.338   3.324 -0.5764  0.5328 -1.4241
  359THF    H13 5807   1.877   2.498   3.289 -2.0733 -2.5159 -1.4437
  360THF     O1 5808   0.985   1.966   3.383 -0.1090  0.4298  0.0027
  360THF     C2 5809   1.073   1.853   3.384 -0.2707 -0.2440  0.2425
  360THF     C3 5810   1.049   2.075   3.325  0.2103 -0.4452  0.0294
  360THF     H4 5811   1.042   1.789   3.301  1.0037  0.1721 -0.5874
  360THF     H5 5812   1.073   1.790   3.473 -0.3179  0.2068  0.5652
  360THF     H6 5813   1.042   2.081   3.216 -3.9314  1.3254  0.2313
  360THF     H7 5814   0.996   2.163   3.361  0.7403  0.0313 -0.3441
  360THF     C8 5815   1.191   2.057   3.367  0.7966  0.4868  0.1210
  360THF     C9 5816   1.209   1.909   3.361 -0.5013  0.0244  0.6370
  360THF    H10 5817   1.194   2.088   3.472 -0.4793 -1.8184  0.9179
  360THF    H11 5818   1.265   2.105   3.305  0.9379 -0.5244 -0.5124
  360THF    H12 5819   1.249   1.880   3.264 -0.1511  1.6003  0.2799
  360THF    H13 5820   1.283   1.859   3.425 -0.6641 -0.7866  0.2073
  361THF     O1 5821   3.448   1.418   4.676  0.0640  0.7772 -0.2128
  361THF     C2 5822   3.330   1.339   4.685  1.0434  0.4903 -0.1794
  361THF     C3 5823   3.547   1.384   4.776 -0.0617  0.4808 -0.3582
  361THF     H4 5824   3.330   1.262   4.608 -0.6408 -1.8956  1.9964
  361THF     H5 5825   3.244   1.407   4.690  0.8769  0.3103 -0.5856
  361THF     H6 5826   3.609   1.300   4.742  0.7607  0.7206  0.5049
  361THF     H7 5827   3.614   1.458   4.821  0.3929  0.6999 -1.3800
  361THF     C8 5828   3.460   1.327   4.895 -0.0675  0.1745 -0.1120
  361THF     C9 5829   3.350   1.258   4.816  1.1567 -0.1231 -0.2184
  361THF    H10 5830   3.418   1.411   4.950 -1.1216 -1.3814  1.6132
  361THF    H11 5831   3.508   1.260   4.967 -0.2593 -1.2266 -1.2509
  361THF    H12 5832   3.380   1.158   4.782  0.9316 -0.2042 -0.1838
  361THF    H13 5833   3.260   1.244   4.876  1.8750 -4.2328  0.2375
  362THF     O1 5834   3.011   2.986   4.215 -0.1932 -0.7469  0.1969
  362THF     C2 5835   2.954   3.083   4.305 -0.0998  0.3892  0.7084
  362THF     C3 5836   3.029   3.046   4.084 -0.6248 -0.1045 -0.1092
  362THF     H4 5837   3.024   3.151   4.354  0.9966  0.1455 -0.4484
  362THF     H5 5838   2.892   3.029   4.377 -3.1111  2.4544 -0.1568
  362THF     H6 5839   3.122   3.103   4.074  0.0739 -0.4972  3.1621
  362THF     H7 5840   3.027   2.974   4.002 -0.4303 -0.4740  0.2069
  362THF     C8 5841   2.907   3.139   4.074  0.0394 -0.2221  0.4956
  362THF     C9 5842   2.868   3.162   4.213  0.1627  0.1034  0.0153
  362THF    H10 5843   2.831   3.080   4.022  1.9964 -4.2738  1.8672
  362THF    H11 5844   2.929   3.230   4.018 -1.5660  0.0691  0.2700
  362THF    H12 5845   2.876   3.269   4.233  0.2231  0.4186 -1.6212
  362THF    H13 5846   2.761   3.138   4.212 -0.2451  1.4967  2.1025
  363THF     O1 5847   5.130   0.604   1.833 -1.1026 -0.3003 -0.1147
  363THF     C2 5848   4.994   0.597   1.870 -0.6877 -0.1101  0.3669
  363THF     C3 5849   5.127   0.639   1.694  0.4685 -0.3862 -0.4374
  363THF     H4 5850   4.969   0.695   1.911  1.4073 -0.3313  2.3977
  363THF     H5 5851   4.984   0.530   1.955 -1.6981  0.2707  0.5606
  363THF     H6 5852   5.187   0.727   1.671  0.7953 -1.2697 -3.5442
  363THF     H7 5853   5.178   0.551   1.655  0.3226 -0.9586  0.6399
  363THF     C8 5854   4.979   0.626   1.646  0.2058  0.7892  0.2385
  363THF     C9 5855   4.910   0.554   1.757  0.1066 -0.4326 -0.1723
  363THF    H10 5856   4.972   0.582   1.546  1.8597 -2.5496  1.4492
  363THF    H11 5857   4.940   0.727   1.633 -0.7431  0.1420 -2.6957
  363THF    H12 5858   4.810   0.581   1.790 -0.1323 -1.0641 -0.3574
  363THF    H13 5859   4.925   0.446   1.752  1.7856 -0.4422  2.7907
  364THF     O1 5860   2.490   2.724   0.246  0.0011  0.1815 -0.3249
  364THF     C2 5861   2.391   2.623   0.236  0.8840 -0.0495  0.4231
  364THF     C3 5862   2.600   2.658   0.195 -0.7733  0.6186  0.0171
  364THF     H4 5863   2.364   2.593   0.135  0.3895  1.8526 -0.0540
  364THF     H5 5864   2.299   2.652   0.286  0.8533  0.6931 -0.0556
  364THF     H6 5865   2.592   2.645   0.087  0.8920 -0.4278 -0.0154
  364THF     H7 5866   2.686   2.721   0.217 -0.7690 -0.1411  2.4920
  364THF     C8 5867   2.597   2.534   0.293  0.5703 -0.5012  0.1591
  364THF     C9 5868   2.447   2.504   0.312 -0.8769 -0.0834 -0.5496
  364THF    H10 5869   2.637   2.567   0.389  0.4936  0.8382 -0.2440
  364THF    H11 5870   2.653   2.449   0.253  1.6294  0.9859 -1.7066
  364THF    H12 5871   2.412   2.409   0.273 -0.7287 -0.1089 -0.6211
  364THF    H13 5872   2.424   2.516   0.418 -0.9249  4.5073 -0.8566
  365THF     O1 5873   3.909   1.769   4.560  1.0455  0.2745 -0.1683
  365THF     C2 5874   4.049   1.774   4.512  0.2243  0.7325  0.2535
  365THF     C3 5875   3.827   1.702   4.462 -0.1007  0.3932  0.1410
  365THF     H4 5876   4.127   1.766   4.587 -0.1557  0.8549  0.6676
  365THF     H5 5877   4.073   1.871   4.467  0.3402  0.1174 -1.0492
  365THF     H6 5878   3.781   1.615   4.508 -0.2647  0.4650  0.1134
  365THF     H7 5879   3.740   1.759   4.431 -0.6375 -0.9708 -0.9758
  365THF     C8 5880   3.918   1.665   4.345 -0.7307  0.1819  0.2842
  365THF     C9 5881   4.055   1.652   4.415 -0.0544  0.3584  0.1871
  365THF    H10 5882   3.915   1.741   4.268  1.6498  1.5812  1.4594
  365THF    H11 5883   3.901   1.569   4.296  0.6470  0.1320 -0.1203
  365THF    H12 5884   4.074   1.564   4.475  0.8100  0.6348  0.3340
  365THF    H13 5885   4.138   1.659   4.344  1.3854 -0.6417  1.7080
  366THF     O1 5886   0.354   0.225   5.271 -0.0197  0.1995 -0.0515
  366THF     C2 5887   0.406   0.091   5.277  0.0088  0.5480  0.5952
  366THF     C3 5888   0.328   0.266   5.404  0.2108  0.1951 -0.1569
  366THF     H4 5889   0.460   0.065   5.186 -2.4421  2.1538 -1.4435
  366THF     H5 5890   0.323   0.021   5.275 -0.3213  0.9511 -0.5216
  366THF     H6 5891   0.327   0.375   5.412 -0.8266  0.2524 -0.8496
  366THF     H7 5892   0.227   0.232   5.427  0.7582  0.0241  2.2378
  366THF     C8 5893   0.421   0.193   5.495 -0.0842  0.3765  0.3002
  366THF     C9 5894   0.486   0.085   5.403  0.4169 -0.5011  0.1814
  366THF    H10 5895   0.372   0.145   5.579  0.4905 -1.5848 -0.4095
  366THF    H11 5896   0.491   0.263   5.539  0.5769 -0.4443  0.5902
  366THF    H12 5897   0.592   0.100   5.388  0.4900 -1.0132  0.1754
  366THF    H13 5898   0.483  -0.012   5.452  0.8026  0.4999  2.3185
  367THF     O1 5899   5.358   1.612   1.606  0.2709 -0.2541  0.4517
  367THF     C2 5900   5.372   1.615   1.456  0.2144  0.0881 -0.1891
  367THF     C3 5901   5.410   1.730   1.660  0.4667 -0.9496 -0.1653
  367THF     H4 5902   5.312   1.688   1.402  0.5491 -0.4176 -1.2777
  367THF     H5 5903   5.361   1.511   1.424 -1.4199 -0.9735  3.2328
  367THF     H6 5904   5.333   1.808   1.667  0.5688 -0.9577  1.4082
  367THF     H7 5905   5.437   1.714   1.764  0.2588 -2.0173 -0.2587
  367THF     C8 5906   5.526   1.763   1.574 -0.3322  0.0557 -0.0655
  367THF     C9 5907   5.510   1.672   1.451 -0.3415 -0.4058 -0.3929
  367THF    H10 5908   5.621   1.742   1.624 -0.0735  2.1936  0.4391
  367THF    H11 5909   5.533   1.861   1.527  0.1974  0.0933  0.0816
  367THF    H12 5910   5.520   1.729   1.359  1.6292  2.2898  1.3629
  367THF    H13 5911   5.579   1.588   1.462  0.1138  0.2394  2.8558
  368THF     O1 5912   1.302   5.365   2.591  0.1989  0.2422  0.0746
  368THF     C2 5913   1.326   5.438   2.708 -0.2247  0.0506 -0.5826
  368THF     C3 5914   1.391   5.257   2.581  0.1194  0.1427 -0.4541
  368THF     H4 5915   1.230   5.478   2.742 -0.6487  0.3465 -2.0828
  368THF     H5 5916   1.404   5.514   2.703  1.3584 -1.3521  1.4076
  368THF     H6 5917   1.347   5.168   2.536  0.0371 -0.9491  1.6743
  368THF     H7 5918   1.487   5.291   2.541  0.8848  0.9780  1.9338
  368THF     C8 5919   1.417   5.218   2.723 -0.6601 -0.3652  0.4347
  368THF     C9 5920   1.359   5.327   2.808  0.6320 -0.2467  0.1668
  368THF    H10 5921   1.524   5.213   2.739 -0.4276  2.0720 -0.0464
  368THF    H11 5922   1.367   5.121   2.732 -2.8600  0.6644 -0.0515
  368THF    H12 5923   1.264   5.301   2.853  1.0318  0.0203  1.1941
  368THF    H13 5924   1.419   5.367   2.890  2.0958  1.2267 -1.5351
  369THF     O1 5925   1.345   1.485   2.696 -0.8503 -0.5493  0.2784
  369THF     C2 5926   1.375   1.583   2.593 -0.6887 -0.5246  0.1472
  369THF     C3 5927   1.367   1.359   2.628 -0.2885 -0.2823  0.2392
  369THF     H4 5928   1.419   1.673   2.638 -0.3427  1.5533 -3.8832
  369THF     H5 5929   1.284   1.605   2.538 -1.3216 -0.4596  1.1993
  369THF     H6 5930   1.388   1.279   2.699  1.5369 -1.4593 -1.5255
  369THF     H7 5931   1.293   1.333   2.552  1.1718  0.8267 -1.6513
  369THF     C8 5932   1.493   1.393   2.554 -0.3442 -0.2098  0.1752
  369THF     C9 5933   1.483   1.535   2.506  0.7735 -0.2868 -0.0128
  369THF    H10 5934   1.512   1.323   2.472 -0.4699 -0.6760  0.5410
  369THF    H11 5935   1.581   1.379   2.617 -0.5916 -1.2545  0.3151
  369THF    H12 5936   1.582   1.581   2.517 -0.0703  1.2858  1.6951
  369THF    H13 5937   1.462   1.543   2.399 -3.0695  3.1811  0.7634
  370THF     O1 5938   1.491   2.787   4.341 -0.1489  0.5008  0.6647
  370THF     C2 5939   1.466   2.691   4.439 -0.0394 -0.3627  0.0852
  370THF     C3 5940   1.593   2.875   4.386  0.0782  0.3882  0.5910
  370THF     H4 5941   1.415   2.603   4.398 -1.5820  1.0743 -1.2106
  370THF     H5 5942   1.399   2.725   4.518 -0.3059  2.3916 -1.2389
  370THF     H6 5943   1.622   2.935   4.300 -0.4251  2.0222  1.5218
  370THF     H7 5944   1.541   2.945   4.451  1.6267  1.2722  0.9011
  370THF     C8 5945   1.691   2.782   4.447  0.0854  0.3061 -0.5363
  370THF     C9 5946   1.606   2.659   4.489 -0.3387 -0.2182  0.2551
  370THF    H10 5947   1.744   2.840   4.522  2.7741  0.1849 -2.2059
  370THF    H11 5948   1.761   2.751   4.369  0.0852 -0.2309 -0.3225
  370THF    H12 5949   1.632   2.565   4.441  3.2364  0.5032  0.4887
  370THF    H13 5950   1.602   2.644   4.597  0.2324 -0.8864  0.1889
  371THF     O1 5951   1.699   0.916   5.394 -0.1905 -0.1294  0.3893
  371THF     C2 5952   1.766   0.792   5.433 -0.1198  0.1522  0.2879
  371THF     C3 5953   1.568   0.910   5.446 -0.3192 -0.3955  0.3258
  371THF     H4 5954   1.874   0.804   5.431 -0.0487 -0.1724  1.3437
  371THF     H5 5955   1.732   0.704   5.378 -0.7940 -0.4908  1.6699
  371THF     H6 5956   1.531   1.010   5.425 -1.6995 -1.2692 -1.8640
  371THF     H7 5957   1.512   0.839   5.384  0.6979 -0.1579 -0.9118
  371THF     C8 5958   1.596   0.883   5.589 -0.4089  0.0352  0.1132
  371THF     C9 5959   1.717   0.788   5.589 -0.7569  0.0532  0.2148
  371THF    H10 5960   1.514   0.845   5.649 -0.4722  2.1389  1.4492
  371THF    H11 5961   1.625   0.973   5.643 -0.1986 -0.8984  1.6181
  371THF    H12 5962   1.795   0.843   5.641  0.0175 -0.2303 -0.6242
  371THF    H13 5963   1.709   0.689   5.633  0.5615 -0.2765 -0.2498
  372THF     O1 5964   0.170   1.833   2.786  0.4199  0.3724  0.4678
  372THF     C2 5965   0.049   1.902   2.748 -0.3245  0.4079  0.5744
  372THF     C3 5966   0.235   1.793   2.665 -0.3701  0.1911  0.1537
  372THF     H4 5967   0.078   1.996   2.700 -1.9627  0.7365  0.1870
  372THF     H5 5968  -0.016   1.919   2.834  2.4387  1.4665  2.6093
  372THF     H6 5969   0.295   1.872   2.622 -0.4219 -0.5166 -1.2897
  372THF     H7 5970   0.304   1.710   2.684 -0.3674  0.6044  2.2283
  372THF     C8 5971   0.119   1.762   2.572 -0.1523 -0.0952 -0.1192
  372THF     C9 5972  -0.007   1.816   2.641 -0.2288 -0.6041 -0.3999
  372THF    H10 5973   0.101   1.656   2.553  1.0459 -0.1010 -1.3619
  372THF    H11 5974   0.138   1.802   2.472 -1.0032 -0.4819 -0.4477
  372THF    H12 5975  -0.070   1.879   2.578  0.2715  0.3855  0.0753
  372THF    H13 5976  -0.065   1.733   2.682  1.5382 -0.3659  2.8982
  373THF     O1 5977   4.757   2.411   2.121 -0.5355  0.5875 -1.5678
  373THF     C2 5978   4.687   2.527   2.075 -0.8398  0.9669  0.2223
  373THF     C3 5979   4.697   2.291   2.080 -0.2358  0.2538  0.4913
  373THF     H4 5980   4.750   2.597   2.021  1.0787 -2.9336 -3.2069
  373THF     H5 5981   4.651   2.576   2.165  1.1381  1.9568  0.5226
  373THF     H6 5982   4.745   2.243   1.994  0.2760  1.1168  0.2851
  373THF     H7 5983   4.707   2.215   2.157 -1.2176 -2.4195 -1.8328
  373THF     C8 5984   4.558   2.331   2.050  0.3630 -0.6262  0.2328
  373THF     C9 5985   4.578   2.470   1.998 -0.0949  0.4243  0.4222
  373THF    H10 5986   4.490   2.334   2.136 -0.3111 -2.7200 -0.1871
  373THF    H11 5987   4.506   2.272   1.975 -1.5838 -0.7893  1.6440
  373THF    H12 5988   4.631   2.458   1.903  1.1020  0.2438  1.0954
  373THF    H13 5989   4.492   2.538   2.000  0.2396  0.8471  0.4985
  374THF     O1 5990   0.935   3.621   1.663  0.3931 -0.3690  0.0710
  374THF     C2 5991   1.038   3.693   1.735  0.0793  0.2171  0.1578
  374THF     C3 5992   0.808   3.690   1.697 -0.6275  0.3936  0.5933
  374THF     H4 5993   1.138   3.680   1.693 -0.6016 -0.9842 -1.1818
  374THF     H5 5994   1.043   3.654   1.837  1.8506  0.7320  0.2984
  374THF     H6 5995   0.729   3.655   1.630  1.5001 -2.2496 -0.7375
  374THF     H7 5996   0.751   3.676   1.789 -0.8605  1.6046  0.6509
  374THF     C8 5997   0.842   3.835   1.681  0.0846 -0.1502  0.8079
  374THF     C9 5998   0.992   3.839   1.715 -0.3350 -0.1779 -0.6794
  374THF    H10 5999   0.775   3.906   1.730 -1.3057 -0.6417 -0.3413
  374THF    H11 6000   0.829   3.864   1.577  1.8759 -1.8705  0.0541
  374THF    H12 6001   1.050   3.888   1.637 -0.9221 -0.2744 -1.1800
  374THF    H13 6002   1.016   3.899   1.803 -1.6465  0.5008 -0.7546
  375THF     O1 6003   5.246   0.795   4.339  0.4335  0.1131  0.5212
  375THF     C2 6004   5.321   0.778   4.462  0.2697  0.3991  0.5211
  375THF     C3 6005   5.297   0.915   4.280 -0.6481 -1.5498 -0.2892
  375THF     H4 6006   5.404   0.713   4.434 -0.3816  0.4809 -1.7383
  375THF     H5 6007   5.263   0.730   4.541 -1.8899 -0.9445 -1.7505
  375THF     H6 6008   5.347   0.897   4.185 -0.3513 -0.2282 -0.3902
  375THF     H7 6009   5.206   0.975   4.267 -0.8975 -1.5591  1.2674
  375THF     C8 6010   5.385   0.987   4.378 -0.8971  0.1404 -0.4703
  375THF     C9 6011   5.384   0.910   4.507  0.1510  0.0841 -0.1018
  375THF    H10 6012   5.366   1.094   4.375 -1.2033  0.1219  0.3943
  375THF    H11 6013   5.476   0.983   4.318 -1.4663  0.3709 -1.3768
  375THF    H12 6014   5.488   0.902   4.539 -0.4200  1.6993  2.5252
  375THF    H13 6015   5.327   0.963   4.584  5.1524  2.2260  2.6051
  376THF     O1 6016   5.317   2.270   4.168 -0.5599 -0.0852  0.3116
  376THF     C2 6017   5.306   2.305   4.034  0.5911  0.2210 -0.2731
  376THF     C3 6018   5.271   2.135   4.186  0.1227 -0.7662  0.2373
  376THF     H4 6019   5.407   2.305   3.993  0.7813  2.2289  0.0909
  376THF     H5 6020   5.266   2.406   4.021  2.4605  1.2689  1.4474
  376THF     H6 6021   5.353   2.084   4.236  2.0804 -0.4173 -2.4004
  376THF     H7 6022   5.182   2.128   4.249 -1.0435  0.0785 -1.2386
  376THF     C8 6023   5.256   2.077   4.046  0.6541  0.0891  0.2764
  376THF     C9 6024   5.209   2.202   3.980  0.0855  0.1756 -0.7557
  376THF    H10 6025   5.196   1.988   4.030  0.3804  0.1409  0.9983
  376THF    H11 6026   5.354   2.058   4.002  0.6243  0.5750 -0.0107
  376THF    H12 6027   5.219   2.197   3.872 -1.2673 -1.1403 -0.8546
  376THF    H13 6028   5.104   2.211   4.007  0.1132  1.2007 -0.9551
  377THF     O1 6029   4.391   3.159   4.272  0.5125  0.0529  0.5664
  377THF     C2 6030   4.426   3.292   4.308  0.3905 -0.8670 -0.2399
  377THF     C3 6031   4.500   3.068   4.275 -0.1065 -0.2923  0.1374
  377THF     H4 6032   4.427   3.309   4.416  0.5171  0.1309 -0.3945
  377THF     H5 6033   4.355   3.363   4.266  1.2800  1.3905  1.8366
  377THF     H6 6034   4.522   3.014   4.367  0.5423  0.0112  0.1633
  377THF     H7 6035   4.496   2.998   4.191  2.6285  1.9166 -2.0484
  377THF     C8 6036   4.619   3.164   4.256 -0.0705 -0.0471 -0.0093
  377THF     C9 6037   4.567   3.310   4.254  0.5636  0.1452 -0.1234
  377THF    H10 6038   4.674   3.141   4.165  0.4044  1.4560 -0.1312
  377THF    H11 6039   4.689   3.158   4.340 -0.4882 -0.8604  0.2951
  377THF    H12 6040   4.626   3.364   4.328 -0.7160 -0.3312  1.2911
  377THF    H13 6041   4.565   3.336   4.148 -0.9032 -0.4813 -0.2699
  378THF     O1 6042   3.155   1.682   1.299 -0.0667  0.4957 -0.4676
  378THF     C2 6043   3.218   1.799   1.352  0.5710 -0.3105 -0.2828
  378THF     C3 6044   3.158   1.697   1.159 -0.0657 -0.1642 -0.1887
  378THF     H4 6045   3.319   1.767   1.324 -0.1284 -1.7083 -1.3460
  378THF     H5 6046   3.209   1.814   1.460 -0.1125  0.1459 -0.3958
  378THF     H6 6047   3.254   1.682   1.109 -1.1104  1.0066 -2.7386
  378THF     H7 6048   3.086   1.628   1.114 -1.9477 -0.5251  3.0845
  378THF     C8 6049   3.113   1.841   1.145  0.1762  0.7308 -0.2138
  378THF     C9 6050   3.168   1.914   1.270  0.0523 -0.4961 -0.2893
  378THF    H10 6051   3.004   1.840   1.151  0.0720  2.8408 -1.0138
  378THF    H11 6052   3.125   1.893   1.050  1.0199 -0.7215 -0.9351
  378THF    H12 6053   3.251   1.977   1.237  0.5359  1.1577  3.5967
  378THF    H13 6054   3.082   1.971   1.306  1.5028  0.5410  1.7007
  379THF     O1 6055   2.325   2.853   5.399  0.1114  0.4143 -0.7870
  379THF     C2 6056   2.199   2.800   5.433  0.9146 -0.3132 -0.2100
  379THF     C3 6057   2.312   2.985   5.337  0.5517  0.7567  0.6250
  379THF     H4 6058   2.169   2.829   5.534  2.7059 -0.1019  0.2866
  379THF     H5 6059   2.185   2.693   5.426 -0.2168 -0.2016  0.1899
  379THF     H6 6060   2.300   3.063   5.411 -0.0747  0.8131  0.4731
  379THF     H7 6061   2.402   3.001   5.277  1.4872  2.8514  2.4644
  379THF     C8 6062   2.177   2.970   5.259 -0.6053 -0.7212  0.6561
  379THF     C9 6063   2.107   2.861   5.329 -0.2925  0.1831  0.1886
  379THF    H10 6064   2.193   2.952   5.153 -0.7241 -0.6023  0.6181
  379THF    H11 6065   2.119   3.062   5.264 -1.7463 -1.3445 -0.6885
  379THF    H12 6066   2.014   2.894   5.376 -0.0166 -1.7379  2.2728
  379THF    H13 6067   2.066   2.785   5.262  0.8471 -1.5300  1.3563
  380THF     O1 6068   0.557   4.204   2.282 -0.0809  0.5236 -0.1733
  380THF     C2 6069   0.462   4.303   2.302  0.3960  0.1688  0.1519
  380THF     C3 6070   0.671   4.226   2.359  0.2521 -0.3464 -0.1531
  380THF     H4 6071   0.371   4.247   2.327  0.2586 -0.1895 -1.0595
  380THF     H5 6072   0.435   4.362   2.214 -0.4256  1.4312  1.2177
  380THF     H6 6073   0.730   4.141   2.394  1.2404 -0.0930 -1.1381
  380THF     H7 6074   0.748   4.285   2.309  0.0460 -1.2170 -1.5278
  380THF     C8 6075   0.623   4.314   2.479 -0.6129  0.0812 -0.1880
  380THF     C9 6076   0.514   4.397   2.408 -0.0961 -0.4402 -0.2972
  380THF    H10 6077   0.701   4.383   2.511 -1.0030  0.9199 -0.9967
  380THF    H11 6078   0.589   4.240   2.551  0.3705  0.3201  0.5486
  380THF    H12 6079   0.439   4.430   2.480  0.9629  0.4298  0.4496
  380THF    H13 6080   0.550   4.493   2.371 -0.1649  0.0373  0.8221
  381THF     O1 6081   5.322   5.377   4.495 -0.2342  0.2541 -0.2626
  381THF     C2 6082   5.233   5.426   4.600 -0.2512 -0.0586  0.7475
  381THF     C3 6083   5.437   5.338   4.564 -0.7722  0.6215 -0.3041
  381THF     H4 6084   5.199   5.343   4.661 -1.0550 -1.5044 -1.5558
  381THF     H5 6085   5.147   5.479   4.558 -1.1706 -2.6644 -0.9454
  381THF     H6 6086   5.433   5.238   4.608  1.0004  0.9681  0.7136
  381THF     H7 6087   5.528   5.348   4.505  0.4738  0.3305  1.4871
  381THF     C8 6088   5.461   5.449   4.678 -0.0218  0.7548 -0.2267
  381THF     C9 6089   5.321   5.510   4.693 -0.2325 -0.4456  0.0500
  381THF    H10 6090   5.540   5.515   4.645  0.3942  1.9072  2.7393
  381THF    H11 6091   5.499   5.412   4.773 -0.6148 -1.0887 -0.6544
  381THF    H12 6092   5.285   5.521   4.796 -1.9794 -0.0329 -0.5640
  381THF    H13 6093   5.330   5.609   4.648  1.9642  0.3382  2.0219
  382THF     O1 6094   0.450   4.318   1.825  0.1799  0.1421  0.2117
  382THF     C2 6095   0.582   4.336   1.877  0.2620 -0.1423  0.8274
  382THF     C3 6096   0.410   4.443   1.770  0.4899  0.5844 -0.2722
  382THF     H4 6097   0.627   4.237   1.861 -1.1459 -0.5168 -1.1944
  382THF     H5 6098   0.578   4.339   1.986  1.9058  1.8965  0.9017
  382THF     H6 6099   0.328   4.436   1.698  2.5792 -1.3233 -2.6557
  382THF     H7 6100   0.381   4.508   1.852  0.1642 -0.5068  0.4981
  382THF     C8 6101   0.540   4.505   1.712  0.2773 -0.3049 -0.4752
  382THF     C9 6102   0.654   4.446   1.797  0.6862 -0.3921 -0.1925
  382THF    H10 6103   0.536   4.614   1.702 -1.1530 -0.4193 -1.2957
  382THF    H11 6104   0.543   4.462   1.612 -0.2021  0.2243 -0.7209
  382THF    H12 6105   0.738   4.403   1.742  0.3050 -3.0904  1.1706
  382THF    H13 6106   0.681   4.515   1.876  0.4162  0.2205 -0.6228
  383THF     O1 6107   0.361   2.549   4.456  0.4603 -0.1463 -0.2548
  383THF     C2 6108   0.353   2.657   4.544  0.2289  0.1672 -0.2849
  383THF     C3 6109   0.420   2.442   4.537 -0.2551 -0.5480  0.5502
  383THF     H4 6110   0.273   2.644   4.617  1.7739  0.8847  1.6187
  383THF     H5 6111   0.337   2.756   4.502  0.2981 -0.0822 -0.9021
  383THF     H6 6112   0.342   2.387   4.590 -2.4583  0.8890 -0.9899
  383THF     H7 6113   0.462   2.368   4.469  1.8521 -0.6523  1.8908
  383THF     C8 6114   0.529   2.513   4.613 -0.5110  0.7073  0.0073
  383THF     C9 6115   0.484   2.657   4.626  0.1381  0.0276 -0.5937
  383THF    H10 6116   0.623   2.508   4.559 -0.7705  1.1676 -0.4927
  383THF    H11 6117   0.549   2.473   4.713 -0.6346  0.1341 -0.1934
  383THF    H12 6118   0.481   2.695   4.728  2.0936 -1.0964 -0.0691
  383THF    H13 6119   0.552   2.723   4.571  1.8798 -1.1635  0.0792
  384THF     O1 6120   0.393   2.259   2.736  0.5347  0.4437  0.4750
  384THF     C2 6121   0.351   2.130   2.691  0.7389 -0.1018  0.1736
  384THF     C3 6122   0.528   2.250   2.777 -0.4684  0.6712 -0.0376
  384THF     H4 6123   0.269   2.150   2.621  2.4488  2.5739 -1.2705
  384THF     H5 6124   0.314   2.066   2.770 -1.6670  1.7339  0.6601
  384THF     H6 6125   0.577   2.346   2.793 -0.0485  0.3857  0.3977
  384THF     H7 6126   0.545   2.190   2.866  1.8295  0.3697 -0.6153
  384THF     C8 6127   0.594   2.171   2.665 -0.1593 -0.5768 -0.2264
  384THF     C9 6128   0.485   2.079   2.627  0.7594  0.1366 -0.1870
  384THF    H10 6129   0.694   2.129   2.677  1.0064  2.1619  0.2539
  384THF    H11 6130   0.609   2.250   2.592  1.9643  0.1512  0.9295
  384THF    H12 6131   0.481   2.063   2.519 -1.3772  3.1205 -0.6676
  384THF    H13 6132   0.509   1.980   2.665  0.8440  1.2396  2.9355
  385THF     O1 6133   1.606   0.869   1.029  0.2834 -0.0540 -0.6635
  385THF     C2 6134   1.680   0.818   1.137  0.3516  0.1174 -0.3847
  385THF     C3 6135   1.549   0.759   0.962  0.5435 -0.3970  0.3071
  385THF     H4 6136   1.690   0.887   1.221 -0.9732  0.2963 -0.3505
  385THF     H5 6137   1.775   0.782   1.098  1.6990  2.5448  0.4393
  385THF     H6 6138   1.445   0.784   0.940  0.9698  1.6869  0.4742
  385THF     H7 6139   1.598   0.746   0.866 -1.6185  0.2650 -0.9703
  385THF     C8 6140   1.551   0.645   1.061  0.7861  0.8758 -0.3042
  385THF     C9 6141   1.599   0.704   1.189 -0.3201  0.5617  0.5932
  385THF    H10 6142   1.621   0.569   1.029 -0.4552 -0.0148 -1.0028
  385THF    H11 6143   1.453   0.600   1.077  0.6070  1.0351 -0.9355
  385THF    H12 6144   1.517   0.743   1.249  0.5641  1.6511  1.1315
  385THF    H13 6145   1.655   0.646   1.262 -1.5257 -1.1038  0.2812
  386THF     O1 6146   3.689   1.114   0.902  0.6283  0.3301  0.3948
  386THF     C2 6147   3.711   1.168   0.775 -0.1913  0.1962  0.5904
  386THF     C3 6148   3.812   1.094   0.972 -0.2374 -0.2566  0.3517
  386THF     H4 6149   3.633   1.234   0.737  1.0353  1.2942 -0.1342
  386THF     H5 6150   3.720   1.090   0.699 -3.2485  0.2508  0.0614
  386THF     H6 6151   3.809   1.142   1.070  4.4185  0.3306  0.4473
  386THF     H7 6152   3.830   0.989   0.996 -0.0907  0.1219  2.0446
  386THF     C8 6153   3.923   1.145   0.878  0.5252  0.0101 -0.9347
  386THF     C9 6154   3.846   1.237   0.790  0.7794 -0.2513 -0.0809
  386THF    H10 6155   3.963   1.058   0.824  0.0010 -0.8044 -0.0443
  386THF    H11 6156   4.005   1.197   0.928 -0.8706  1.1294  0.2745
  386THF    H12 6157   3.830   1.332   0.843 -4.0402 -1.2230  0.6468
  386THF    H13 6158   3.901   1.257   0.699  1.3622  0.0712  0.3326
  387THF     O1 6159   0.211   0.529   4.628  0.0501 -0.2239 -1.1049
  387THF     C2 6160   0.161   0.398   4.600  0.0079 -0.0956  0.1678
  387THF     C3 6161   0.178   0.612   4.518  0.6888  0.1358  0.3630
  387THF     H4 6162   0.052   0.396   4.611 -0.1132  1.3014 -0.5514
  387THF     H5 6163   0.203   0.317   4.660  1.6652  2.5131  2.7646
  387THF     H6 6164   0.075   0.647   4.532 -1.0492 -3.6849 -1.5779
  387THF     H7 6165   0.240   0.702   4.515  0.9054 -0.0333 -0.2935
  387THF     C8 6166   0.173   0.522   4.391 -0.4456 -0.4333 -0.9123
  387THF     C9 6167   0.197   0.382   4.449  0.1317  0.3502 -0.6537
  387THF    H10 6168   0.259   0.547   4.329 -0.2917  0.2550 -0.4346
  387THF    H11 6169   0.071   0.545   4.362 -1.0221  0.0078  1.2583
  387THF    H12 6170   0.143   0.293   4.414 -0.3072  0.2390  0.2770
  387THF    H13 6171   0.304   0.364   4.450 -0.0836 -1.0551  0.8175
  388THF     O1 6172   2.754   4.911   0.828 -0.2120 -0.6190 -0.3671
  388THF     C2 6173   2.749   5.054   0.861 -0.2397  0.9082 -0.2680
  388THF     C3 6174   2.755   4.843   0.950  0.3218 -0.1676  0.1864
  388THF     H4 6175   2.651   5.095   0.836 -0.3258  1.3259  0.7107
  388THF     H5 6176   2.823   5.109   0.803 -0.1399 -0.2986 -1.3188
  388THF     H6 6177   2.653   4.839   0.988  0.4193 -0.6268  0.4165
  388THF     H7 6178   2.804   4.747   0.931  0.7327  0.2453 -0.9249
  388THF     C8 6179   2.839   4.932   1.039 -0.3024  0.4175 -0.1219
  388THF     C9 6180   2.776   5.062   1.012  0.7942 -0.9617 -0.0107
  388THF    H10 6181   2.943   4.927   1.008 -0.3100  1.3181 -0.3211
  388THF    H11 6182   2.833   4.913   1.146  0.0177  3.1134  0.4447
  388THF    H12 6183   2.681   5.083   1.061  2.0560  1.0218  1.7607
  388THF    H13 6184   2.834   5.150   1.041  0.0905 -0.1027 -1.1129
  389THF     O1 6185   2.429   0.102   5.393 -0.4370  0.0062 -0.4591
  389THF     C2 6186   2.409   0.014   5.505 -0.1091  0.3229  0.6102
  389THF     C3 6187   2.330   0.200   5.410  0.3770 -0.3376 -0.4607
  389THF     H4 6188   2.439   0.069   5.595 -0.8300  2.7054 -0.5246
  389THF     H5 6189   2.465  -0.080   5.510  0.2623  0.5738  1.4498
  389THF     H6 6190   2.350   0.273   5.489 -1.0929 -1.4073  0.9743
  389THF     H7 6191   2.324   0.271   5.328  0.7695  1.3379  0.9078
  389THF     C8 6192   2.203   0.118   5.442  0.3746 -0.0306  0.5174
  389THF     C9 6193   2.260  -0.008   5.510 -0.1758  0.3410 -0.1174
  389THF    H10 6194   2.152   0.093   5.349  1.9206 -1.7293  0.0652
  389THF    H11 6195   2.131   0.165   5.508 -1.5192 -0.0323 -1.4249
  389THF    H12 6196   2.218  -0.033   5.608  0.4522 -3.5592 -0.7018
  389THF    H13 6197   2.230  -0.098   5.457 -0.7990  0.3184  0.2608
  390THF     O1 6198   1.112   4.842   3.238  0.3613  0.5671  0.5393
  390THF     C2 6199   1.226   4.771   3.195  1.0020  0.4904 -0.3554
  390THF     C3 6200   1.061   4.919   3.126  0.3976 -0.2048 -0.6707
  390THF     H4 6201   1.201   4.677   3.145  0.4257  0.6700 -0.4130
  390THF     H5 6202   1.283   4.752   3.285  0.1945 -1.2968 -0.1754
  390THF     H6 6203   0.975   4.867   3.086 -1.6348  2.4547 -0.0803
  390THF     H7 6204   1.021   5.014   3.162  1.5172 -0.5526  1.6882
  390THF     C8 6205   1.179   4.948   3.041  0.2719  0.1486  0.3887
  390THF     C9 6206   1.296   4.876   3.107  0.1949 -0.1209 -0.4082
  390THF    H10 6207   1.194   5.055   3.029  0.0979 -0.0178 -1.6130
  390THF    H11 6208   1.165   4.901   2.944 -0.4494 -0.2418  0.6747
  390THF    H12 6209   1.364   4.841   3.030 -1.7762  0.7486 -2.6706
  390THF    H13 6210   1.355   4.944   3.169  0.8293 -0.3974 -0.7044
  391THF     O1 6211   1.092   3.143   4.583  0.0267  0.7102  0.2711
  391THF     C2 6212   1.114   3.120   4.444 -0.3679  0.8376  0.1298
  391THF     C3 6213   0.972   3.221   4.603  0.2694 -0.6391  0.2208
  391THF     H4 6214   1.046   3.039   4.417  0.4051  0.3032 -0.2686
  391THF     H5 6215   1.219   3.095   4.430 -0.6833 -0.2787 -0.3302
  391THF     H6 6216   0.890   3.152   4.621  0.0226 -0.2686  0.5360
  391THF     H7 6217   0.993   3.280   4.693  3.0868 -1.3617  0.1463
  391THF     C8 6218   0.959   3.291   4.469  0.3999 -0.0321 -0.1123
  391THF     C9 6219   1.080   3.246   4.386  0.5299  0.3436  0.0972
  391THF    H10 6220   0.957   3.400   4.472 -1.3141  0.0030 -1.2811
  391THF    H11 6221   0.863   3.268   4.425 -1.0435 -0.9305  3.1868
  391THF    H12 6222   1.055   3.231   4.281 -1.3818 -0.9032  0.6723
  391THF    H13 6223   1.161   3.318   4.399  0.5561  0.9571 -2.8113
  392THF     O1 6224   2.019   3.593   0.248 -0.6188 -0.2639 -0.5103
  392THF     C2 6225   2.016   3.683   0.145 -0.8127 -1.1404  0.5907
  392THF     C3 6226   1.943   3.638   0.364 -1.0097 -0.1932  0.1535
  392THF     H4 6227   1.966   3.646   0.055  0.0941 -0.2765 -0.2900
  392THF     H5 6228   2.115   3.719   0.118 -0.7112  0.5059  2.8823
  392THF     H6 6229   1.892   3.545   0.388 -1.8283  0.1150 -0.3533
  392THF     H7 6230   2.014   3.673   0.440 -0.2614  2.4031 -1.5800
  392THF     C8 6231   1.855   3.746   0.307 -0.7258 -0.2864  0.4004
  392THF     C9 6232   1.938   3.803   0.197  0.0494 -0.1417 -0.1927
  392THF    H10 6233   1.828   3.817   0.385 -0.0200  0.6312 -0.1581
  392THF    H11 6234   1.761   3.702   0.273 -0.7605  1.0410 -1.3897
  392THF    H12 6235   1.870   3.824   0.114 -1.7447 -1.1429  0.9427
  392THF    H13 6236   2.003   3.887   0.217  0.7894  0.1965 -3.4492
  393THF     O1 6237   1.448   4.905   4.016 -0.1463  0.6800  0.0858
  393THF     C2 6238   1.405   4.821   3.910 -0.0954  0.8291  0.1810
  393THF     C3 6239   1.346   4.993   4.056 -0.1764  0.3476  0.6160
  393THF     H4 6240   1.330   4.751   3.945 -1.6802  1.5545 -1.5849
  393THF     H5 6241   1.482   4.766   3.856 -0.7724 -0.6659  0.7067
  393THF     H6 6242   1.294   4.969   4.149 -0.9200  2.4801  0.8144
  393THF     H7 6243   1.377   5.086   4.103  2.4240  0.3696 -0.9463
  393THF     C8 6244   1.252   5.004   3.933 -0.7502 -0.3757  0.2650
  393THF     C9 6245   1.323   4.921   3.827 -0.0158 -0.8101  0.1019
  393THF    H10 6246   1.251   5.110   3.906 -1.3109 -0.2657  0.7094
  393THF    H11 6247   1.155   4.979   3.974 -0.4977 -0.0041  1.1173
  393THF    H12 6248   1.251   4.862   3.770 -2.4877 -0.3248  2.5227
  393THF    H13 6249   1.385   4.980   3.759  0.2461 -0.6458  0.4813
  394THF     O1 6250   1.862   4.255   2.648  0.5043 -0.9397 -0.1168
  394THF     C2 6251   1.800   4.364   2.590  0.1143  0.3178  0.0310
  394THF     C3 6252   1.863   4.276   2.788 -0.3287  0.5788 -0.2344
  394THF     H4 6253   1.692   4.351   2.600  0.1518 -1.6250 -1.5101
  394THF     H5 6254   1.816   4.375   2.482 -1.0973 -2.3282 -0.4897
  394THF     H6 6255   1.780   4.231   2.844  0.2041  0.5828  0.5773
  394THF     H7 6256   1.954   4.232   2.829 -0.1813  0.9718 -0.1406
  394THF     C8 6257   1.875   4.430   2.798  0.3652 -0.1827 -0.2777
  394THF     C9 6258   1.847   4.490   2.658 -0.5177  0.2944  0.5816
  394THF    H10 6259   1.965   4.470   2.844  0.9117 -0.6119 -0.9440
  394THF    H11 6260   1.784   4.455   2.853  1.1327 -1.2588  1.5471
  394THF    H12 6261   1.771   4.567   2.670  0.5267  1.5724 -0.6531
  394THF    H13 6262   1.941   4.530   2.620 -1.2665  2.2026  0.6270
  395THF     O1 6263   3.647   5.179   3.239  0.1926  0.3948  0.3593
  395THF     C2 6264   3.561   5.096   3.320 -0.0228 -1.0501 -0.6013
  395THF     C3 6265   3.592   5.172   3.106 -0.4066  0.2752  0.2637
  395THF     H4 6266   3.500   5.168   3.375  2.2586 -0.1010  0.8366
  395THF     H5 6267   3.611   5.040   3.399  1.2131  3.0778  1.8072
  395THF     H6 6268   3.570   5.268   3.061  0.4656 -0.7693 -2.6133
  395THF     H7 6269   3.669   5.129   3.042 -0.1915  0.3124  0.4956
  395THF     C8 6270   3.461   5.084   3.101  0.0536 -0.3239  0.6203
  395THF     C9 6271   3.468   5.016   3.234  0.0410  0.1115  0.5559
  395THF    H10 6272   3.449   5.024   3.011  1.1503 -0.2294  0.3881
  395THF    H11 6273   3.376   5.150   3.116 -1.3169 -2.1343  1.1683
  395THF    H12 6274   3.369   4.993   3.274  0.1923 -1.4563  0.0875
  395THF    H13 6275   3.513   4.918   3.217 -0.3024 -0.0849  0.7584
  396THF     O1 6276   0.677   2.257   4.421 -0.2188  0.0751 -0.3071
  396THF     C2 6277   0.761   2.197   4.528 -0.0031 -0.6998  0.9449
  396THF     C3 6278   0.650   2.144   4.333 -0.2889 -1.1039  0.3472
  396THF     H4 6279   0.764   2.243   4.627 -2.9585 -0.9418  1.2223
  396THF     H5 6280   0.866   2.201   4.497  0.0183 -2.4487  0.6875
  396THF     H6 6281   0.560   2.169   4.277  0.4156 -1.9944 -1.2250
  396THF     H7 6282   0.731   2.134   4.261  0.2936 -1.3617  1.0287
  396THF     C8 6283   0.634   2.016   4.423  0.7577  0.0350  0.1809
  396THF     C9 6284   0.709   2.052   4.543 -0.4397  0.0813 -0.3107
  396THF    H10 6285   0.667   1.918   4.388 -0.6545  0.5213 -2.8890
  396THF    H11 6286   0.529   2.006   4.448  1.4086 -1.5587  2.6173
  396THF    H12 6287   0.646   2.039   4.631  1.8576  1.2085  1.6163
  396THF    H13 6288   0.798   1.989   4.547 -0.2486  0.3039 -1.0439
  397THF     O1 6289   0.374   5.379   4.148 -0.4842 -0.2005  0.3200
  397THF     C2 6290   0.497   5.328   4.185  0.4062  0.3483  0.2057
  397THF     C3 6291   0.267   5.335   4.226  0.1316 -0.4688  0.2988
  397THF     H4 6292   0.558   5.418   4.199 -0.9207  1.1550  1.1550
  397THF     H5 6293   0.545   5.265   4.111 -1.3446  0.1593 -0.8328
  397THF     H6 6294   0.190   5.412   4.229  0.7084  0.0894  1.0104
  397THF     H7 6295   0.225   5.243   4.185  1.0279 -0.6192 -0.3119
  397THF     C8 6296   0.327   5.303   4.359  0.4410  0.3263  0.5874
  397THF     C9 6297   0.473   5.263   4.326 -0.1423  0.3870  0.7094
  397THF    H10 6298   0.268   5.218   4.394  0.9295 -0.0942  0.3944
  397THF    H11 6299   0.315   5.378   4.436  0.2039 -0.5658  1.4467
  397THF    H12 6300   0.544   5.295   4.402 -0.9942 -2.5464  2.9503
  397THF    H13 6301   0.481   5.154   4.314 -1.2881  0.2424  1.1567
  398THF     O1 6302   4.573   1.159   3.708  0.2301  0.0564 -0.6805
  398THF     C2 6303   4.664   1.052   3.711  0.3074  1.1545  0.1695
  398THF     C3 6304   4.448   1.118   3.657  0.5793 -0.4675 -0.3792
  398THF     H4 6305   4.686   1.018   3.812 -0.5230 -0.1929 -0.0694
  398THF     H5 6306   4.763   1.077   3.673  0.9030  0.3978  1.1871
  398THF     H6 6307   4.395   1.079   3.744  0.1183 -1.5144 -1.1120
  398THF     H7 6308   4.387   1.200   3.622 -1.0626 -1.4465  0.0850
  398THF     C8 6309   4.486   1.006   3.566  0.2304  0.0898  0.5303
  398THF     C9 6310   4.606   0.934   3.636  0.6412 -0.5229 -0.7902
  398THF    H10 6311   4.499   1.040   3.463 -1.6213  1.1298  0.5948
  398THF    H11 6312   4.405   0.933   3.558 -0.3176  0.8886 -4.6692
  398THF    H12 6313   4.568   0.858   3.704 -0.5202  0.6578 -0.0775
  398THF    H13 6314   4.666   0.883   3.560  0.1384 -2.1808 -0.1260
  399THF     O1 6315   3.042   3.479   4.068 -0.1246  0.0338 -0.1244
  399THF     C2 6316   3.158   3.493   3.984  0.2697  0.1254  0.2282
  399THF     C3 6317   3.075   3.522   4.196 -0.1476 -0.0195 -0.4143
  399THF     H4 6318   3.131   3.492   3.878 -0.4883 -0.1778  0.4122
  399THF     H5 6319   3.227   3.411   3.999  0.9158  1.0531  2.7566
  399THF     H6 6320   2.982   3.566   4.232 -0.5247 -0.9017 -0.2582
  399THF     H7 6321   3.103   3.434   4.255 -0.3258 -0.1915 -0.5830
  399THF     C8 6322   3.204   3.599   4.180  0.1158 -0.1668 -0.1926
  399THF     C9 6323   3.217   3.624   4.031  0.2902 -0.4289 -0.0382
  399THF    H10 6324   3.285   3.535   4.215  1.5044  2.8212  2.5896
  399THF    H11 6325   3.210   3.687   4.244  0.0671 -0.9308  0.9092
  399THF    H12 6326   3.153   3.710   4.009  0.8456  0.0575  0.2251
  399THF    H13 6327   3.322   3.644   4.014  0.7370 -0.2584  2.4326
  400THF     O1 6328   1.799   4.721   1.227  0.6323 -0.3218 -0.0890
  400THF     C2 6329   1.821   4.852   1.276 -0.3669  0.1231  0.6226
  400THF     C3 6330   1.813   4.719   1.090 -0.0921 -0.3325 -0.3052
  400THF     H4 6331   1.913   4.849   1.335 -0.5051 -1.9138  0.7989
  400THF     H5 6332   1.750   4.895   1.346 -2.8461  1.3808 -2.4166
  400THF     H6 6333   1.911   4.675   1.075 -1.2741 -3.6370  0.8001
  400THF     H7 6334   1.743   4.653   1.039  0.2526 -1.7551  0.9780
  400THF     C8 6335   1.790   4.858   1.033  0.9923 -0.3815  0.3316
  400THF     C9 6336   1.837   4.937   1.152  0.3646  0.3748  0.4650
  400THF    H10 6337   1.685   4.873   1.006  0.2678 -4.3778  0.3062
  400THF    H11 6338   1.853   4.883   0.948  0.8719  3.0711  1.1012
  400THF    H12 6339   1.940   4.970   1.140  0.0495  0.7583 -1.6197
  400THF    H13 6340   1.783   5.031   1.148  1.8310  1.2344 -0.0884
  401THF     O1 6341   3.850   2.652   2.340  0.0422  0.8196 -0.4119
  401THF     C2 6342   3.861   2.778   2.403  0.1328 -0.5717  0.3448
  401THF     C3 6343   3.720   2.642   2.278 -0.3485 -0.1385  0.3584
  401THF     H4 6344   3.956   2.827   2.383 -1.3896  2.4167 -0.1405
  401THF     H5 6345   3.849   2.770   2.511  0.7690  0.4782  0.4997
  401THF     H6 6346   3.731   2.569   2.199 -1.2269  0.8072 -0.6715
  401THF     H7 6347   3.635   2.624   2.345 -1.6924 -0.7984 -1.4391
  401THF     C8 6348   3.704   2.779   2.220 -0.3676 -0.7114 -0.5954
  401THF     C9 6349   3.753   2.864   2.340  0.4137  0.6149 -0.2194
  401THF    H10 6350   3.599   2.790   2.196 -0.6467  2.5890  1.5353
  401THF    H11 6351   3.774   2.789   2.137 -0.1900  2.0276 -0.2053
  401THF    H12 6352   3.781   2.962   2.302  0.1307  1.1639  0.9507
  401THF    H13 6353   3.672   2.871   2.412  1.0334 -1.1511  0.7043
  402THF     O1 6354   3.383   0.486   1.996  0.2949  0.7301 -0.3066
  402THF     C2 6355   3.269   0.392   2.014  0.4538 -0.0243 -0.2209
  402THF     C3 6356   3.451   0.437   1.881  0.5371  0.0087 -0.0392
  402THF     H4 6357   3.193   0.441   2.074  0.3593 -0.9354  0.4279
  402THF     H5 6358   3.306   0.310   2.076 -0.3429 -0.7876 -0.7164
  402THF     H6 6359   3.485   0.527   1.830 -1.9743  1.8932  1.3702
  402THF     H7 6360   3.535   0.372   1.907  0.4371  0.8613  2.8230
  402THF     C8 6361   3.354   0.365   1.793  0.0712 -0.0320  0.7498
  402THF     C9 6362   3.227   0.350   1.874 -0.1554  0.2193  0.0207
  402THF    H10 6363   3.395   0.273   1.751 -1.1176  0.2956 -1.3024
  402THF    H11 6364   3.338   0.419   1.700  1.8295  0.3967  0.6789
  402THF    H12 6365   3.154   0.422   1.838 -0.8722 -0.2310  0.5418
  402THF    H13 6366   3.197   0.245   1.875  2.8811 -0.7455 -0.0545
  403THF     O1 6367   1.783   4.802   0.085  0.6618  0.5116 -0.1446
  403THF     C2 6368   1.765   4.942   0.113  0.7740 -0.0407 -0.3585
  403THF     C3 6369   1.835   4.734   0.201 -0.0097  0.1956 -0.4733
  403THF     H4 6370   1.667   4.955   0.159  0.6094  1.3262 -1.0552
  403THF     H5 6371   1.761   5.003   0.023  0.0762 -1.1578 -1.1012
  403THF     H6 6372   1.748   4.716   0.264  1.8733 -0.8358  1.9762
  403THF     H7 6373   1.876   4.639   0.168 -0.5407  0.4064 -1.8372
  403THF     C8 6374   1.927   4.840   0.263 -0.0680 -0.3236  0.3890
  403THF     C9 6375   1.882   4.966   0.202  0.0448  0.3084  0.0646
  403THF    H10 6376   2.034   4.816   0.255  0.0573 -0.3584  1.8417
  403THF    H11 6377   1.898   4.845   0.368 -2.6509  1.0030 -0.3282
  403THF    H12 6378   1.883   5.042   0.280  1.1106 -1.2790  1.6674
  403THF    H13 6379   1.969   4.991   0.141  1.0341 -1.3039  0.7474
  404THF     O1 6380   1.468   3.792   4.660 -0.3581 -0.3550  0.3426
  404THF     C2 6381   1.570   3.886   4.618 -0.2985 -0.4836  0.0938
  404THF     C3 6382   1.519   3.718   4.764 -0.4365 -0.8102  0.1493
  404THF     H4 6383   1.582   3.966   4.691 -1.6293 -1.0111  0.9280
  404THF     H5 6384   1.547   3.931   4.522  1.7918 -0.3506 -0.3976
  404THF     H6 6385   1.531   3.776   4.856  1.4656 -1.8132  0.6060
  404THF     H7 6386   1.446   3.641   4.788 -2.2577  0.8246  0.1163
  404THF     C8 6387   1.662   3.691   4.709 -0.0890 -0.1625  0.5924
  404THF     C9 6388   1.697   3.792   4.600 -0.4611  0.1399 -0.2978
  404THF    H10 6389   1.659   3.587   4.675 -1.1139 -0.1322  0.5516
  404THF    H11 6390   1.727   3.698   4.796 -0.5856 -1.6121  1.1239
  404THF    H12 6391   1.794   3.841   4.612  0.6725 -1.4140 -2.3333
  404THF    H13 6392   1.693   3.746   4.501 -1.7601  1.8622 -1.0906
  405THF     O1 6393   2.118   3.868   2.745 -0.1424  0.2736 -0.4282
  405THF     C2 6394   2.115   3.777   2.636  0.0745 -0.6643 -0.8327
  405THF     C3 6395   2.183   3.982   2.710 -0.7338  0.0998  0.2524
  405THF     H4 6396   2.048   3.694   2.660 -0.1657  0.3197  2.5180
  405THF     H5 6397   2.214   3.735   2.620 -0.0003 -1.1684 -0.0403
  405THF     H6 6398   2.168   4.060   2.784 -1.3008  0.7727 -0.5591
  405THF     H7 6399   2.288   3.956   2.696 -1.3768 -0.8400 -5.3868
  405THF     C8 6400   2.110   4.004   2.582  1.3380 -1.2712 -0.1943
  405THF     C9 6401   2.078   3.874   2.522 -0.1789 -0.3777  0.1694
  405THF    H10 6402   2.166   4.065   2.511  1.1948 -0.2105  0.5827
  405THF    H11 6403   2.018   4.059   2.601  0.5700 -2.3348 -0.7308
  405THF    H12 6404   1.976   3.870   2.483 -0.8067  2.1747  1.3382
  405THF    H13 6405   2.138   3.872   2.431 -1.4869  0.3919 -0.7382
  406THF     O1 6406   2.626   3.076   0.909  0.5065  0.1527  0.3158
  406THF     C2 6407   2.739   3.137   0.961 -0.4916  0.0786 -0.6376
  406THF     C3 6408   2.520   3.091   1.003  0.1884 -0.8313  0.1600
  406THF     H4 6409   2.734   3.245   0.950 -1.0539  0.2172  0.7483
  406THF     H5 6410   2.831   3.100   0.916  0.8273  2.8476 -0.4193
  406THF     H6 6411   2.467   3.183   0.982  1.2253 -0.1329  0.5334
  406THF     H7 6412   2.452   3.007   0.988 -1.1053  0.6455 -3.2703
  406THF     C8 6413   2.582   3.100   1.140 -0.0314  0.2984  0.3541
  406THF     C9 6414   2.730   3.110   1.111 -0.2476  0.4367  0.0918
  406THF    H10 6415   2.560   3.010   1.197  2.6660  0.3630  1.6329
  406THF    H11 6416   2.544   3.187   1.194  1.1673  0.7875  0.4260
  406THF    H12 6417   2.798   3.182   1.157 -0.3418  0.6239 -0.0602
  406THF    H13 6418   2.770   3.010   1.126  1.9419  1.4179  1.3329
  407THF     O1 6419   2.664   2.397   4.160  0.1956  0.8873 -0.2190
  407THF     C2 6420   2.758   2.299   4.114 -0.1897  0.3286  0.1527
  407THF     C3 6421   2.555   2.327   4.212  0.7489  0.5717  0.0186
  407THF     H4 6422   2.808   2.244   4.194 -0.3986  0.7617  0.5832
  407THF     H5 6423   2.834   2.346   4.051 -0.1357  0.2916  0.1893
  407THF     H6 6424   2.552   2.309   4.319 -1.9805 -0.2416 -0.1171
  407THF     H7 6425   2.470   2.391   4.188 -0.3986 -0.9316 -0.1058
  407THF     C8 6426   2.550   2.193   4.135  0.0314  0.5425 -0.1517
  407THF     C9 6427   2.671   2.192   4.048  0.4204 -0.2306  0.0535
  407THF    H10 6428   2.459   2.190   4.076 -2.1406  2.8403  2.7448
  407THF    H11 6429   2.540   2.106   4.200  0.6655  0.8235  0.3404
  407THF    H12 6430   2.711   2.093   4.027  0.9394 -0.1039  0.4200
  407THF    H13 6431   2.660   2.226   3.945  1.4293  2.0180  0.6300
  408THF     O1 6432   1.820   4.728   2.386 -1.0588 -0.0493  0.0462
  408THF     C2 6433   1.866   4.643   2.280  0.1249 -0.3812 -0.8675
  408THF     C3 6434   1.709   4.797   2.353 -0.3434 -0.2378  0.1093
  408THF     H4 6435   1.949   4.576   2.302 -0.6624 -1.1371 -0.1079
  408THF     H5 6436   1.897   4.716   2.205  0.4303  0.9818  0.5510
  408THF     H6 6437   1.667   4.818   2.451 -1.4031  1.5354 -0.6918
  408THF     H7 6438   1.715   4.878   2.281 -0.3625  0.1089  0.4993
  408THF     C8 6439   1.638   4.679   2.281 -0.3531 -0.9412 -0.0731
  408THF     C9 6440   1.739   4.574   2.235 -0.3322  0.2961  0.5363
  408THF    H10 6441   1.583   4.728   2.200 -1.2127 -0.0025  1.0488
  408THF    H11 6442   1.567   4.639   2.353  1.2270 -0.8098  1.6334
  408THF    H12 6443   1.732   4.476   2.281  1.7501 -0.2049 -0.0840
  408THF    H13 6444   1.729   4.558   2.128  2.0290  2.2825 -0.0888
  409THF     O1 6445   1.952   1.889   1.736 -0.0388  0.1190  0.6189
  409THF     C2 6446   2.067   1.821   1.687  0.0579 -0.6408  0.0478
  409THF     C3 6447   1.950   1.911   1.877 -0.5608 -0.2067 -0.4622
  409THF     H4 6448   2.097   1.848   1.585 -0.1911 -2.1217 -0.4501
  409THF     H5 6449   2.071   1.712   1.692  1.4006 -0.5691  0.9127
  409THF     H6 6450   1.882   1.991   1.906  0.0198  0.0479  0.2396
  409THF     H7 6451   1.910   1.815   1.911  1.6977 -2.0345 -2.5654
  409THF     C8 6452   2.100   1.928   1.906  0.4636 -0.2191 -0.0499
  409THF     C9 6453   2.177   1.873   1.782 -0.0650 -0.5593 -0.6051
  409THF    H10 6454   2.133   1.883   1.999  1.9380 -0.4145 -0.6383
  409THF    H11 6455   2.128   2.034   1.897 -1.3445  0.1557 -2.1758
  409THF    H12 6456   2.223   1.958   1.732 -2.4617  0.2877 -1.5603
  409THF    H13 6457   2.259   1.807   1.805  2.1359  1.7782 -1.2542
  410THF     O1 6458   5.316   3.802   2.765 -0.1886  0.0505 -0.2228
  410THF     C2 6459   5.356   3.806   2.899  0.3120 -0.2668  0.2198
  410THF     C3 6460   5.235   3.689   2.748  0.6535 -0.1622  0.7671
  410THF     H4 6461   5.389   3.906   2.926  0.0748  0.3501 -1.6349
  410THF     H5 6462   5.436   3.733   2.914  1.0022  0.4062 -0.1217
  410THF     H6 6463   5.180   3.694   2.654 -0.2711  0.8525  1.3343
  410THF     H7 6464   5.298   3.601   2.742 -0.1484 -0.6658 -0.7814
  410THF     C8 6465   5.139   3.702   2.870 -0.6948 -0.3148  0.4855
  410THF     C9 6466   5.225   3.766   2.980  0.5808 -0.6770  0.2118
  410THF    H10 6467   5.100   3.603   2.896 -1.1336 -0.1228  0.5599
  410THF    H11 6468   5.055   3.768   2.849 -0.0194  0.4547  0.1421
  410THF    H12 6469   5.178   3.855   3.023  1.0699  0.5439 -1.6214
  410THF    H13 6470   5.253   3.700   3.062 -0.8095  0.4884  1.6928
  411THF     O1 6471   1.883   4.001   2.258  0.0165 -1.1209 -0.4608
  411THF     C2 6472   1.895   4.130   2.315  0.0714  0.5005  0.1351
  411THF     C3 6473   2.002   3.980   2.176  0.1852  0.4930 -0.3597
  411THF     H4 6474   1.908   4.142   2.422  2.5430  1.1915 -0.1920
  411THF     H5 6475   1.797   4.172   2.297  0.2823  0.4504 -1.2197
  411THF     H6 6476   2.039   3.882   2.203  0.7303 -0.0995 -2.9737
  411THF     H7 6477   1.969   3.967   2.073 -0.8297 -1.4619  0.1653
  411THF     C8 6478   2.096   4.093   2.202 -0.6545  0.4779 -0.1688
  411THF     C9 6479   2.006   4.208   2.242  0.1216  0.5456  0.3148
  411THF    H10 6480   2.161   4.114   2.117  0.4534 -0.3188  0.4436
  411THF    H11 6481   2.164   4.074   2.285  0.1048  0.9246 -0.6752
  411THF    H12 6482   2.059   4.283   2.300  0.3257  0.6786 -0.0468
  411THF    H13 6483   1.969   4.248   2.148 -0.2455 -0.1532  0.1493
  412THF     O1 6484   0.229   4.124   0.465  0.4039  0.3116  0.0317
  412THF     C2 6485   0.317   4.172   0.364 -0.4369 -0.4509 -0.3699
  412THF     C3 6486   0.243   4.219   0.573 -0.1643  0.6135  0.2655
  412THF     H4 6487   0.257   4.236   0.300 -2.2146 -3.1423 -1.6061
  412THF     H5 6488   0.329   4.083   0.302 -1.2129 -1.2288  0.5583
  412THF     H6 6489   0.166   4.292   0.551 -0.3482  0.8648  1.6555
  412THF     H7 6490   0.232   4.176   0.673  2.0778 -1.0488 -0.1222
  412THF     C8 6491   0.383   4.274   0.564  0.5153 -0.5620  0.4072
  412THF     C9 6492   0.438   4.240   0.428  0.4739 -0.8249 -0.1856
  412THF    H10 6493   0.442   4.226   0.642 -0.7187 -0.7532  1.2502
  412THF    H11 6494   0.388   4.382   0.584  0.5767 -0.0081 -2.2639
  412THF    H12 6495   0.469   4.330   0.374  0.6234 -0.8436 -0.1320
  412THF    H13 6496   0.514   4.163   0.438  0.7633 -0.5967 -0.6103
  413THF     O1 6497   1.114   3.700   0.121  0.5256  0.0674  0.1055
  413THF     C2 6498   1.002   3.786   0.105  0.1532 -0.3203  0.1575
  413THF     C3 6499   1.126   3.633  -0.010 -0.3458  0.0733 -0.0195
  413THF     H4 6500   0.987   3.852   0.190  0.0318  0.3374 -0.3646
  413THF     H5 6501   0.906   3.734   0.102  0.4369 -0.8814  0.6329
  413THF     H6 6502   1.224   3.585  -0.023 -1.3374 -2.3094  0.7733
  413THF     H7 6503   1.058   3.549  -0.024  0.0172 -0.7598  2.6675
  413THF     C8 6504   1.095   3.751  -0.111 -0.3093  0.1782 -0.2860
  413THF     C9 6505   1.037   3.863  -0.021  0.0375 -0.8359  0.7632
  413THF    H10 6506   1.018   3.718  -0.182 -2.1538  0.5962  1.4139
  413THF    H11 6507   1.185   3.782  -0.163  1.6794 -4.1954  0.1346
  413THF    H12 6508   1.119   3.932  -0.002  2.3093 -2.8298 -1.2886
  413THF    H13 6509   0.962   3.924  -0.073  0.0232 -0.0044  1.7256
  414THF     O1 6510   0.676   4.985   3.956 -0.1896  0.1711 -0.1463
  414THF     C2 6511   0.808   5.036   3.944 -0.1518  0.0721 -0.1493
  414THF     C3 6512   0.659   4.938   4.087 -0.3930  0.1029 -0.6606
  414THF     H4 6513   0.813   5.135   3.897  2.1351  1.2901  2.3574
  414THF     H5 6514   0.856   4.964   3.878  0.9487  1.4985 -0.9925
  414THF     H6 6515   0.557   4.959   4.120  0.2015  0.9523  0.7201
  414THF     H7 6516   0.677   4.832   4.067  0.8481  0.2626 -0.4787
  414THF     C8 6517   0.772   4.995   4.180  0.2859  0.8267  0.0059
  414THF     C9 6518   0.878   5.031   4.080  0.0903  0.3101 -0.5596
  414THF    H10 6519   0.800   4.925   4.258  0.9344 -1.2101 -1.9377
  414THF    H11 6520   0.725   5.080   4.230  1.2421  0.7273  1.1064
  414THF    H12 6521   0.934   5.116   4.118 -0.0256  0.3475 -0.4715
  414THF    H13 6522   0.936   4.939   4.074  0.0529  0.1706  0.7730
  415THF     O1 6523   3.027   1.706   1.705  0.2052  0.2649 -0.1923
  415THF     C2 6524   2.974   1.651   1.829  0.0527 -0.2799  0.3890
  415THF     C3 6525   2.955   1.641   1.602 -0.1183 -0.0950  0.8125
  415THF     H4 6526   2.886   1.709   1.855 -2.3441 -2.3633 -2.3925
  415THF     H5 6527   3.054   1.650   1.904 -0.6685  2.8976  1.3507
  415THF     H6 6528   2.863   1.691   1.572  0.2568  0.4880  0.6169
  415THF     H7 6529   3.021   1.632   1.515 -0.0921 -4.1535  1.0392
  415THF     C8 6530   2.927   1.498   1.639 -0.5007 -0.0881 -0.3612
  415THF     C9 6531   2.927   1.505   1.789 -0.7516 -0.3445  0.1241
  415THF    H10 6532   2.990   1.418   1.600 -0.8046 -0.0946 -0.8630
  415THF    H11 6533   2.838   1.456   1.591 -0.0587 -2.7852  1.0036
  415THF    H12 6534   2.825   1.495   1.825 -1.2454 -1.0068 -1.4002
  415THF    H13 6535   2.989   1.430   1.841 -0.0647  0.2883  0.2391
  416THF     O1 6536   0.889   0.293   0.133 -0.7068  0.5494 -0.0115
  416THF     C2 6537   0.780   0.210   0.089  0.4001  0.3470 -0.3427
  416THF     C3 6538   1.008   0.217   0.162  0.2560 -0.1681 -1.1193
  416THF     H4 6539   0.781   0.173  -0.014  0.4406 -1.7517  0.3750
  416THF     H5 6540   0.688   0.265   0.109  0.5525  1.2465 -1.9692
  416THF     H6 6541   1.040   0.199   0.059 -0.7059 -0.7833 -1.3218
  416THF     H7 6542   1.089   0.267   0.215  0.6016  0.1970 -1.9596
  416THF     C8 6543   0.952   0.091   0.223  0.2719 -0.5268  0.2239
  416THF     C9 6544   0.803   0.092   0.181  0.1430  0.0306 -1.0057
  416THF    H10 6545   0.963   0.079   0.330 -1.7963 -3.5872  0.2073
  416THF    H11 6546   1.002   0.003   0.181 -0.4452 -0.6287 -0.4390
  416THF    H12 6547   0.777  -0.001   0.131 -0.6453 -1.4968  2.0066
  416THF    H13 6548   0.737   0.111   0.265 -0.3276  0.5314 -1.4778
  417THF     O1 6549   1.384   0.047   0.583 -0.3201 -0.1794  0.9697
  417THF     C2 6550   1.272   0.080   0.501 -0.9150 -0.1283 -0.7324
  417THF     C3 6551   1.435  -0.075   0.519 -0.4913  0.3346  0.4000
  417THF     H4 6552   1.299   0.133   0.409 -1.9781  1.7437 -0.0202
  417THF     H5 6553   1.208   0.145   0.561 -1.9186 -1.1339 -0.6960
  417THF     H6 6554   1.504  -0.041   0.441  1.3347  0.4573  1.9946
  417THF     H7 6555   1.503  -0.131   0.583  0.1046  0.5262 -0.0532
  417THF     C8 6556   1.326  -0.149   0.450 -0.0824 -0.4276 -0.0007
  417THF     C9 6557   1.213  -0.052   0.456 -0.3713  0.4404 -0.3314
  417THF    H10 6558   1.299  -0.247   0.491 -3.1640  0.6475  0.7846
  417THF    H11 6559   1.350  -0.169   0.346  0.8888  1.3228 -0.1492
  417THF    H12 6560   1.166  -0.047   0.358 -0.0756 -0.9238 -0.5640
  417THF    H13 6561   1.140  -0.087   0.529  0.2796 -1.7139 -0.6569
  418THF     O1 6562   5.438   4.473   3.182  0.2931 -0.2448 -0.6056
  418THF     C2 6563   5.451   4.614   3.185 -0.5331 -0.4562 -0.6105
  418THF     C3 6564   5.314   4.447   3.122  0.0203 -0.4071  0.4336
  418THF     H4 6565   5.489   4.637   3.086  0.4242  0.8112  0.0309
  418THF     H5 6566   5.522   4.649   3.260 -1.0568 -1.3778  0.3508
  418THF     H6 6567   5.337   4.456   3.016  0.7615  1.1464  0.7069
  418THF     H7 6568   5.286   4.344   3.145 -2.1040 -0.0695 -0.4229
  418THF     C8 6569   5.218   4.550   3.179  0.4589 -0.4113  0.0360
  418THF     C9 6570   5.308   4.670   3.205  0.4062 -0.0457 -0.5715
  418THF    H10 6571   5.159   4.520   3.266 -2.1192  3.2928 -0.1749
  418THF    H11 6572   5.143   4.572   3.103 -0.9898 -0.9383  1.2689
  418THF    H12 6573   5.288   4.756   3.141  1.7174 -0.4508 -1.5637
  418THF    H13 6574   5.301   4.707   3.308  1.3048 -0.0324 -0.5055
  419THF     O1 6575   5.019   4.581   1.364  0.1994 -0.0380  0.1059
  419THF     C2 6576   5.155   4.615   1.385 -0.3898  0.3205  0.2586
  419THF     C3 6577   4.973   4.620   1.230 -0.2069 -0.1380 -0.8804
  419THF     H4 6578   5.201   4.541   1.451 -0.8183 -0.7387 -0.5945
  419THF     H5 6579   5.163   4.715   1.428 -1.3582 -1.2414  4.5219
  419THF     H6 6580   4.883   4.571   1.191 -2.5113  3.0954 -0.0755
  419THF     H7 6581   4.953   4.725   1.251  2.3067 -0.0618  1.7582
  419THF     C8 6582   5.101   4.589   1.151  0.1774  0.1639 -0.2904
  419THF     C9 6583   5.214   4.621   1.241 -0.5608 -0.0547  0.5841
  419THF    H10 6584   5.106   4.642   1.056  2.0376 -1.7860 -1.3518
  419THF    H11 6585   5.098   4.481   1.133 -0.1053  0.2558 -0.8200
  419THF    H12 6586   5.293   4.548   1.223 -2.0231 -1.3414 -0.9394
  419THF    H13 6587   5.252   4.720   1.213  0.0657 -0.5804 -0.4806
  420THF     O1 6588   0.799   0.378   2.145  0.3161  0.0205 -0.8669
  420THF     C2 6589   0.817   0.325   2.279  0.0410  0.4248  0.0059
  420THF     C3 6590   0.660   0.357   2.108  0.6437  0.1182 -0.2833
  420THF     H4 6591   0.907   0.362   2.327  0.0223  0.1574  0.2471
  420THF     H5 6592   0.820   0.217   2.269  0.7051  0.3639  0.8270
  420THF     H6 6593   0.623   0.417   2.024  1.7021 -0.3358 -1.1020
  420THF     H7 6594   0.657   0.252   2.078 -2.3950 -0.3542  1.2141
  420THF     C8 6595   0.580   0.375   2.235  0.0007 -0.1915 -0.5688
  420THF     C9 6596   0.690   0.369   2.344 -0.6509  0.3094 -0.3058
  420THF    H10 6597   0.501   0.301   2.246  0.2166 -0.1905  1.2121
  420THF    H11 6598   0.527   0.471   2.231 -0.7437 -0.5192  0.8871
  420THF    H12 6599   0.702   0.468   2.390  1.8264  0.0528 -0.2729
  420THF    H13 6600   0.669   0.296   2.422  1.2239 -0.5131 -0.5372
  421THF     O1 6601   2.524   3.380   3.022  0.3462  0.0371  0.1346
  421THF     C2 6602   2.486   3.447   3.142 -0.9304 -0.2927  0.8271
  421THF     C3 6603   2.448   3.261   3.011  0.2367  0.1786  0.0645
  421THF     H4 6604   2.541   3.541   3.148  1.7907 -1.5556 -1.5560
  421THF     H5 6605   2.512   3.380   3.223 -1.9590 -1.0534  0.5466
  421THF     H6 6606   2.446   3.220   2.910 -0.5240 -1.3822  0.6850
  421THF     H7 6607   2.492   3.188   3.078  0.3965  1.8192  1.8330
  421THF     C8 6608   2.309   3.309   3.060  0.5677  0.2483 -0.1781
  421THF     C9 6609   2.334   3.446   3.119 -0.4727 -0.3710  0.1320
  421THF    H10 6610   2.259   3.245   3.133  2.1364 -1.1136 -0.2478
  421THF    H11 6611   2.239   3.308   2.976 -3.1201 -2.6470  2.5700
  421THF    H12 6612   2.308   3.528   3.052  2.6881  0.8523  0.2181
  421THF    H13 6613   2.280   3.444   3.214 -1.3808 -1.6470 -0.3916
  422THF     O1 6614   4.821   1.594   3.462  0.1534  0.3407 -0.1361
  422THF     C2 6615   4.720   1.490   3.453 -0.4366 -0.4256 -0.1827
  422THF     C3 6616   4.793   1.686   3.353  0.3429 -0.0546 -0.3799
  422THF     H4 6617   4.695   1.460   3.554  0.1519 -0.2797  0.0100
  422THF     H5 6618   4.774   1.414   3.395  0.2044 -0.4218  0.4025
  422THF     H6 6619   4.839   1.785   3.354  1.3098 -0.4448 -2.0003
  422THF     H7 6620   4.820   1.640   3.258 -1.8678  0.2866 -1.2312
  422THF     C8 6621   4.648   1.698   3.346 -0.0231  0.8553  0.1027
  422THF     C9 6622   4.596   1.556   3.388 -0.3405  0.0119 -0.2160
  422THF    H10 6623   4.616   1.725   3.246  1.3570 -1.0230 -0.9218
  422THF    H11 6624   4.608   1.770   3.418 -1.1548 -0.3096  0.6859
  422THF    H12 6625   4.513   1.569   3.456  0.3771  2.4777  0.2801
  422THF    H13 6626   4.560   1.494   3.305  1.7618 -0.6467 -0.7089
  423THF     O1 6627   4.993   1.627   2.991  0.2243 -0.1802  0.0202
  423THF     C2 6628   5.019   1.710   2.875 -0.2846  0.2947 -0.5644
  423THF     C3 6629   5.105   1.630   3.080 -0.1955 -0.8468  0.2845
  423THF     H4 6630   4.959   1.801   2.878 -1.0486 -0.2310  0.6747
  423THF     H5 6631   5.009   1.643   2.790 -1.6547 -1.4074  0.8644
  423THF     H6 6632   5.100   1.712   3.151  2.4331 -1.6150  1.4524
  423THF     H7 6633   5.106   1.550   3.154  0.0387  0.3317  1.5980
  423THF     C8 6634   5.220   1.632   2.978 -0.0667 -0.7361 -0.1538
  423THF     C9 6635   5.164   1.738   2.877 -0.7954 -0.7999  0.0238
  423THF    H10 6636   5.232   1.536   2.929  0.3842 -0.9086  0.2920
  423THF    H11 6637   5.321   1.648   3.016 -0.3710  1.7508 -0.1718
  423THF    H12 6638   5.186   1.835   2.922 -0.2705 -0.0222 -1.8444
  423THF    H13 6639   5.215   1.738   2.781  2.6294  0.2752  1.6587
  424THF     O1 6640   0.951   1.501   2.295  0.3089 -0.3969  0.1454
  424THF     C2 6641   0.989   1.397   2.210  0.1597  0.0499  0.2832
  424THF     C3 6642   1.071   1.560   2.348 -0.3337 -0.1809 -0.4344
  424THF     H4 6643   0.902   1.364   2.153  0.4370  1.1000 -0.7697
  424THF     H5 6644   1.020   1.307   2.264 -0.4790  0.0423  0.6477
  424THF     H6 6645   1.053   1.659   2.389  2.7992 -0.6733  2.4993
  424THF     H7 6646   1.116   1.489   2.417 -0.2351  0.2336 -0.0715
  424THF     C8 6647   1.168   1.558   2.229  0.7074  0.2827  0.4227
  424THF     C9 6648   1.098   1.463   2.130  0.0740  0.2280 -0.0257
  424THF    H10 6649   1.259   1.512   2.269 -0.2142  0.0834  2.4201
  424THF    H11 6650   1.182   1.657   2.187 -1.5475  0.3259 -0.3629
  424THF    H12 6651   1.049   1.516   2.048  2.5076 -0.7575 -2.2694
  424THF    H13 6652   1.160   1.387   2.083 -0.7041  0.3799 -1.3771
  425THF     O1 6653   2.149   2.786   1.532 -0.2524 -0.2572  0.2152
  425THF     C2 6654   2.111   2.659   1.572  0.6741 -0.2628 -0.0188
  425THF     C3 6655   2.152   2.782   1.388  0.5290 -0.3492  0.0201
  425THF     H4 6656   2.078   2.654   1.675 -1.3937  0.8241 -0.5629
  425THF     H5 6657   2.199   2.595   1.564  0.4968 -0.6578  1.0009
  425THF     H6 6658   2.135   2.884   1.353 -0.5956 -0.8030 -0.7755
  425THF     H7 6659   2.253   2.759   1.356  1.6976  0.6517  2.6367
  425THF     C8 6660   2.042   2.686   1.342 -0.6554  0.0298 -0.5364
  425THF     C9 6661   1.995   2.631   1.475  0.2185  0.2336  0.1206
  425THF    H10 6662   2.083   2.609   1.277  1.6500  1.6022 -1.0666
  425THF    H11 6663   1.962   2.744   1.296  0.5753  0.7094 -1.8871
  425THF    H12 6664   1.904   2.684   1.503  0.1864  0.3561 -0.2117
  425THF    H13 6665   1.974   2.525   1.461  1.0495  0.1027 -0.2065
  426THF     O1 6666   5.173   4.191   0.970 -0.1548  0.3678  0.5775
  426THF     C2 6667   5.106   4.270   0.877 -0.1475  0.4083 -0.5934
  426THF     C3 6668   5.082   4.137   1.062  0.5721 -0.5558  1.1248
  426THF     H4 6669   5.150   4.288   0.779 -2.9066  0.2286 -1.9728
  426THF     H5 6670   5.105   4.368   0.923 -0.7063  0.0599  0.1596
  426THF     H6 6671   5.127   4.051   1.111  1.0033  0.4565  2.5818
  426THF     H7 6672   5.066   4.219   1.132  0.2480  1.5752 -1.2792
  426THF     C8 6673   4.957   4.114   0.982 -0.2836  0.1236 -0.7117
  426THF     C9 6674   4.961   4.228   0.876 -0.2638 -0.7161  0.5843
  426THF    H10 6675   4.866   4.123   1.041  0.8049  0.6403  1.0063
  426THF    H11 6676   4.954   4.014   0.940  0.9072  1.0654 -3.2772
  426THF    H12 6677   4.927   4.202   0.775  0.6365 -1.9577  0.5856
  426THF    H13 6678   4.899   4.307   0.918 -0.0159 -0.0681 -0.2294
  427THF     O1 6679   2.855   2.693   2.421 -0.0868  0.1173  0.0504
  427THF     C2 6680   2.828   2.727   2.556 -0.0854  0.7986 -0.0801
  427THF     C3 6681   2.726   2.699   2.357  0.0622  0.3087 -0.3477
  427THF     H4 6682   2.813   2.834   2.572  0.7557  0.9094  0.0173
  427THF     H5 6683   2.909   2.703   2.624 -0.1152  1.9205  0.3625
  427THF     H6 6684   2.693   2.800   2.333  0.3081  0.5253  0.2019
  427THF     H7 6685   2.729   2.652   2.259  0.4918  2.1054 -1.2370
  427THF     C8 6686   2.627   2.627   2.458 -0.3342  0.1657  0.3198
  427THF     C9 6687   2.699   2.654   2.593  0.2301 -0.2084  0.4375
  427THF    H10 6688   2.632   2.519   2.460  0.8320  0.2135  2.3458
  427THF    H11 6689   2.522   2.658   2.462 -0.4405 -0.2708  3.7187
  427THF    H12 6690   2.639   2.726   2.649 -0.4530  0.0806 -0.6448
  427THF    H13 6691   2.717   2.565   2.654 -2.1491 -0.9765  0.1142
  428THF     O1 6692   3.488   4.709   5.171  0.1659  0.3160  0.5864
  428THF     C2 6693   3.421   4.756   5.281  0.1932  0.5179 -0.1394
  428THF     C3 6694   3.624   4.740   5.190 -0.5715 -0.4093 -0.1698
  428THF     H4 6695   3.342   4.695   5.324 -0.1987  0.6928 -0.6026
  428THF     H5 6696   3.366   4.843   5.244  0.0143  0.2515 -0.5149
  428THF     H6 6697   3.683   4.676   5.123  2.1625  0.6810  1.0559
  428THF     H7 6698   3.640   4.841   5.152 -0.2979  0.0361  1.0908
  428THF     C8 6699   3.660   4.737   5.341  0.0326  0.0692 -0.2150
  428THF     C9 6700   3.525   4.789   5.388  0.0763  0.5149  0.4178
  428THF    H10 6701   3.748   4.799   5.363 -0.2625  0.6841 -0.7275
  428THF    H11 6702   3.672   4.631   5.361  0.6198  0.0407 -0.6672
  428THF    H12 6703   3.506   4.750   5.488  0.9509  0.9534  0.7669
  428THF    H13 6704   3.525   4.897   5.404 -0.4367  0.5480  0.1965
  429THF     O1 6705   1.590   0.197   2.866 -0.9787  0.0799 -0.0876
  429THF     C2 6706   1.543   0.315   2.804 -0.1498  0.5115 -0.9826
  429THF     C3 6707   1.541   0.181   2.995  0.4569 -0.4169 -0.5613
  429THF     H4 6708   1.533   0.305   2.696  0.7387  0.8252 -1.1111
  429THF     H5 6709   1.622   0.381   2.840 -0.8093  0.7105  0.1186
  429THF     H6 6710   1.512   0.077   3.011 -0.7806  0.1364  1.1086
  429THF     H7 6711   1.617   0.204   3.070 -0.6268 -0.6456  0.6509
  429THF     C8 6712   1.429   0.278   3.012 -0.2069  0.4990  0.0630
  429THF     C9 6713   1.414   0.328   2.875  0.1698 -0.0717 -0.3008
  429THF    H10 6714   1.462   0.353   3.084  0.0995  1.0063 -0.5972
  429THF    H11 6715   1.344   0.219   3.044 -0.0864  0.1177 -0.3074
  429THF    H12 6716   1.349   0.269   2.811 -0.8921 -0.3848  1.0337
  429THF    H13 6717   1.380   0.431   2.879 -0.2798 -0.2608  1.0312
  430THF     O1 6718   3.312   1.902   0.263 -0.6465 -0.0966  0.0131
  430THF     C2 6719   3.446   1.925   0.223  0.1672 -0.2104  0.9042
  430THF     C3 6720   3.229   1.976   0.174 -0.0190  0.3355 -0.0119
  430THF     H4 6721   3.517   1.851   0.259 -0.7594 -0.8813  1.3770
  430THF     H5 6722   3.480   2.021   0.261  0.0895  0.1628  0.0737
  430THF     H6 6723   3.121   1.968   0.191  0.0313 -1.4933 -0.2766
  430THF     H7 6724   3.258   2.080   0.185 -0.5911  0.4491  0.4979
  430THF     C8 6725   3.289   1.935   0.039 -0.3758  1.1378  0.7957
  430THF     C9 6726   3.440   1.940   0.066  0.3396 -0.1164 -0.7375
  430THF    H10 6727   3.266   2.005  -0.041 -0.1123 -1.6977 -1.9622
  430THF    H11 6728   3.254   1.833   0.022 -0.2000  1.2339 -0.1873
  430THF    H12 6729   3.488   1.853   0.022  1.9036  0.5219 -0.3822
  430THF    H13 6730   3.486   2.027   0.019 -0.6227  0.4805 -0.6059
  431THF     O1 6731   1.149   4.714   4.934  0.2118 -0.5159 -0.5699
  431THF     C2 6732   1.130   4.855   4.894 -0.8587  0.9432  0.0415
  431THF     C3 6733   1.057   4.696   5.045  0.1765 -0.3793  0.1698
  431THF     H4 6734   1.079   4.853   4.798 -0.4465 -0.3938 -0.1778
  431THF     H5 6735   1.229   4.900   4.882  0.4877 -1.3976  1.5566
  431THF     H6 6736   0.959   4.659   5.015  1.0041 -0.7277 -2.3265
  431THF     H7 6737   1.102   4.629   5.118  0.3940 -2.4578 -1.7800
  431THF     C8 6738   1.045   4.832   5.113 -0.3433 -0.0566  0.5550
  431THF     C9 6739   1.047   4.925   5.000  0.3248  0.4264 -0.0444
  431THF    H10 6740   1.132   4.841   5.178 -0.6514 -3.9458  1.7618
  431THF    H11 6741   0.957   4.849   5.173 -0.7039 -0.7132  0.2301
  431THF    H12 6742   0.947   4.944   4.960  0.9723  1.3372 -1.2879
  431THF    H13 6743   1.087   5.023   5.026 -0.6199 -0.0169  3.6781
  432THF     O1 6744   2.043   2.136   0.477  0.0924 -0.2478 -0.3995
  432THF     C2 6745   2.046   2.208   0.355  0.4680  0.2845 -0.1602
  432THF     C3 6746   2.082   2.218   0.587  0.3947  0.2005 -0.2488
  432THF     H4 6747   1.940   2.212   0.329 -0.0949  0.8550  2.0389
  432THF     H5 6748   2.094   2.142   0.283  0.9267 -0.2330  0.5945
  432THF     H6 6749   1.989   2.250   0.634  0.7978 -1.1212  1.5670
  432THF     H7 6750   2.135   2.164   0.666  0.9732 -0.8970 -1.3601
  432THF     C8 6751   2.163   2.334   0.529  0.5104 -0.1155  0.2643
  432THF     C9 6752   2.118   2.343   0.385 -0.5403  0.1315  0.5517
  432THF    H10 6753   2.268   2.304   0.535  0.5359 -0.4215 -1.2063
  432THF    H11 6754   2.147   2.424   0.589  1.3948 -0.1968  0.6314
  432THF    H12 6755   2.048   2.426   0.377  1.3945  1.8121 -0.0126
  432THF    H13 6756   2.205   2.358   0.321 -0.7384  1.0360  0.4904
  433THF     O1 6757   5.334   1.922   0.416 -0.0831  0.4005  0.2977
  433THF     C2 6758   5.365   1.832   0.304 -0.3497  0.1474 -0.7425
  433THF     C3 6759   5.300   1.841   0.531  0.7617 -0.0354  0.0299
  433THF     H4 6760   5.429   1.868   0.224 -0.2125 -0.3076 -0.8396
  433THF     H5 6761   5.269   1.799   0.264 -0.9590  2.1268 -1.0016
  433THF     H6 6762   5.285   1.906   0.617 -1.9050  1.7271 -1.5865
  433THF     H7 6763   5.204   1.790   0.523 -0.1410  1.7762 -1.6662
  433THF     C8 6764   5.414   1.738   0.524  0.5167 -0.5895 -0.0347
  433THF     C9 6765   5.434   1.713   0.374 -0.9969 -0.1291 -0.1077
  433THF    H10 6766   5.385   1.651   0.582 -0.1210 -0.9481 -0.8684
  433THF    H11 6767   5.504   1.785   0.563  0.7633 -0.9547 -0.1671
  433THF    H12 6768   5.538   1.715   0.343 -1.0239  2.8856 -0.2685
  433THF    H13 6769   5.381   1.621   0.348 -3.6225  0.8320  1.4011
  434THF     O1 6770   5.172   4.484   4.953  0.4791  0.4251  0.2567
  434THF     C2 6771   5.041   4.452   4.915  0.3066  0.6808  0.1535
  434THF     C3 6772   5.196   4.624   4.974 -0.2265  0.4094  0.1501
  434THF     H4 6773   5.009   4.363   4.969 -2.2382  1.4317  0.0425
  434THF     H5 6774   5.034   4.421   4.810  0.1084  0.5500  0.2042
  434THF     H6 6775   5.274   4.661   5.041 -0.0689  2.9793 -1.3386
  434THF     H7 6776   5.212   4.677   4.880 -1.5098 -0.5618 -0.6510
  434THF     C8 6777   5.049   4.669   5.010  0.5082  0.8625 -0.3145
  434THF     C9 6778   4.956   4.573   4.941 -0.2942  0.5426 -0.7936
  434THF    H10 6779   5.038   4.763   4.956 -0.5317  0.8461 -0.1476
  434THF    H11 6780   5.023   4.678   5.116 -2.9420 -0.9166 -0.8689
  434THF    H12 6781   4.870   4.545   5.003  0.4047 -0.3807 -0.2117
  434THF    H13 6782   4.911   4.603   4.847  1.7471 -0.1401 -2.0567
  435THF     O1 6783   3.407   4.494   4.416 -0.1363  0.1213  0.2867
  435THF     C2 6784   3.541   4.499   4.456 -0.1721  0.5946 -0.7551
  435THF     C3 6785   3.336   4.395   4.474 -0.1690  0.0594 -0.1155
  435THF     H4 6786   3.550   4.548   4.553  0.6432  1.0458 -1.0492
  435THF     H5 6787   3.602   4.546   4.379  1.6098  3.9113  2.3919
  435THF     H6 6788   3.288   4.441   4.561  0.8076 -1.3726  1.2534
  435THF     H7 6789   3.271   4.343   4.404 -0.2711 -0.6274  0.4785
  435THF     C8 6790   3.446   4.306   4.528  0.2959 -0.0069 -0.2453
  435THF     C9 6791   3.571   4.351   4.472  0.1384 -0.4040  0.4008
  435THF    H10 6792   3.420   4.202   4.505 -1.4392  0.3803 -0.1398
  435THF    H11 6793   3.436   4.318   4.636 -0.1133  0.5495 -0.3378
  435THF    H12 6794   3.653   4.330   4.540 -0.4449 -1.1812  0.8728
  435THF    H13 6795   3.587   4.315   4.370 -1.8736  2.2790 -1.0019
  436THF     O1 6796   1.201   2.454   0.145  0.3619 -0.5311  0.7808
  436THF     C2 6797   1.299   2.435   0.043 -0.0633  0.3074  0.0538
  436THF     C3 6798   1.144   2.584   0.121 -0.1685 -0.0683  0.3420
  436THF     H4 6799   1.253   2.394  -0.047 -3.5829 -0.9284  2.2312
  436THF     H5 6800   1.385   2.374   0.073  0.8347  0.5451 -1.8579
  436THF     H6 6801   1.068   2.561   0.047 -2.1392  1.0364  1.9113
  436THF     H7 6802   1.096   2.619   0.213  0.7368  0.9808  0.4303
  436THF     C8 6803   1.258   2.669   0.081  0.1904 -0.5926  0.8269
  436THF     C9 6804   1.350   2.573   0.010 -0.4965  0.4513  0.0355
  436THF    H10 6805   1.305   2.707   0.173  1.8160 -1.2622  0.3175
  436THF    H11 6806   1.236   2.756   0.019  0.2323 -1.4550 -0.4146
  436THF    H12 6807   1.353   2.613  -0.091 -3.0678  1.3324  0.2380
  436THF    H13 6808   1.446   2.573   0.061 -0.2944 -1.3920 -0.2617
  437THF     O1 6809   0.537   4.216   0.102 -0.0720  0.3931 -0.5131
  437THF     C2 6810   0.455   4.241  -0.009 -0.0812  0.0197  0.2222
  437THF     C3 6811   0.562   4.077   0.090  0.5590 -0.6112  0.5648
  437THF     H4 6812   0.455   4.346  -0.040 -0.1993 -0.7242 -2.5672
  437THF     H5 6813   0.354   4.208   0.014  0.7723 -2.0685  1.1958
  437THF     H6 6814   0.639   4.051   0.163  1.0953  1.1655  0.6923
  437THF     H7 6815   0.476   4.016   0.119 -2.1157  2.1706 -0.9597
  437THF     C8 6816   0.618   4.070  -0.052  0.0992 -0.2524  0.1688
  437THF     C9 6817   0.508   4.144  -0.120 -0.0491  0.1567  0.8255
  437THF    H10 6818   0.622   3.964  -0.080  0.6996 -0.1083 -0.3087
  437THF    H11 6819   0.718   4.111  -0.051  1.3408 -2.9649  2.3991
  437THF    H12 6820   0.535   4.177  -0.221 -0.0412 -1.4693  0.2674
  437THF    H13 6821   0.425   4.076  -0.137 -1.7233  2.1990  0.3753
  438THF     O1 6822   0.591   0.020   4.676  0.1426 -0.2736 -0.1648
  438THF     C2 6823   0.531   0.038   4.807  0.0143  0.3099  0.6459
  438THF     C3 6824   0.546   0.128   4.594  0.0279  0.0030  0.7818
  438THF     H4 6825   0.591  -0.009   4.885  3.0145  0.8686 -1.1687
  438THF     H5 6826   0.437  -0.016   4.819 -0.5961  1.3980  0.8307
  438THF     H6 6827   0.598   0.139   4.498 -2.0875 -2.3314 -0.7337
  438THF     H7 6828   0.439   0.115   4.583 -0.2414  1.2945  1.6425
  438THF     C8 6829   0.557   0.250   4.687 -0.8070 -0.2795  0.2004
  438THF     C9 6830   0.521   0.189   4.823  0.0641 -0.4345 -0.2345
  438THF    H10 6831   0.500   0.333   4.645  1.7847  0.4999 -2.0575
  438THF    H11 6832   0.654   0.299   4.693 -0.2285 -1.4777  1.0082
  438THF    H12 6833   0.591   0.220   4.901  0.3423 -0.7162 -0.3716
  438THF    H13 6834   0.421   0.218   4.856 -0.6639 -0.7833 -2.0524
  439THF     O1 6835   1.350   2.096   0.203 -0.2930 -0.5950  0.3861
  439THF     C2 6836   1.353   2.186   0.319  0.2771 -0.3127 -0.7903
  439THF     C3 6837   1.226   2.032   0.206  0.5376  0.2248 -0.1828
  439THF     H4 6838   1.408   2.270   0.275  0.3351  1.2729  2.0627
  439THF     H5 6839   1.409   2.136   0.398 -1.8494 -1.7998 -0.1452
  439THF     H6 6840   1.187   2.000   0.109 -1.1389 -2.0561  1.1505
  439THF     H7 6841   1.235   1.939   0.262  0.7115  0.3954  0.0751
  439THF     C8 6842   1.119   2.131   0.261 -0.6748 -0.5221  0.2490
  439THF     C9 6843   1.206   2.214   0.362 -0.8724 -0.1794  0.3732
  439THF    H10 6844   1.037   2.084   0.315 -1.1034 -0.0956 -0.0253
  439THF    H11 6845   1.082   2.181   0.172 -1.6739  0.4944  1.2039
  439THF    H12 6846   1.183   2.320   0.360  4.5180  1.3028 -2.3199
  439THF    H13 6847   1.203   2.177   0.464  0.7088  1.5415  1.0841
  440THF     O1 6848   3.368   3.452   3.112  0.3660 -0.1999 -0.3589
  440THF     C2 6849   3.380   3.393   3.243  0.6929 -0.3700  0.0431
  440THF     C3 6850   3.499   3.465   3.060  0.1432  0.1557  0.3699
  440THF     H4 6851   3.367   3.286   3.236 -1.0729 -0.3097  1.6516
  440THF     H5 6852   3.303   3.438   3.306 -0.0398 -0.9777 -0.4241
  440THF     H6 6853   3.529   3.370   3.015 -1.1200  0.1200 -0.4235
  440THF     H7 6854   3.497   3.548   2.989 -0.4724  0.2709  0.5164
  440THF     C8 6855   3.579   3.513   3.183  0.0904  0.5351  0.4584
  440THF     C9 6856   3.521   3.429   3.297  0.5477 -0.5108  0.2076
  440THF    H10 6857   3.558   3.619   3.201  2.9734  1.3096 -0.2146
  440THF    H11 6858   3.685   3.488   3.172 -0.0785 -1.2729  2.2749
  440THF    H12 6859   3.585   3.341   3.304  2.0616  0.5872  0.6206
  440THF    H13 6860   3.521   3.481   3.393  0.2994 -1.0268  0.4962
  441THF     O1 6861   2.923   4.719   5.144  0.4114 -0.4869  0.1030
  441THF     C2 6862   2.792   4.719   5.206  0.2354  0.2384 -0.3635
  441THF     C3 6863   2.969   4.859   5.152 -0.2879 -0.1657  0.3723
  441THF     H4 6864   2.793   4.614   5.235 -1.5737 -0.0178 -1.1016
  441THF     H5 6865   2.715   4.743   5.133  0.6307  2.7034 -0.0607
  441THF     H6 6866   3.077   4.867   5.164 -0.1977  1.1797 -0.9835
  441THF     H7 6867   2.939   4.928   5.072  0.9293  0.4026  0.3854
  441THF     C8 6868   2.910   4.911   5.285 -0.4591 -0.2269 -0.0760
  441THF     C9 6869   2.804   4.807   5.333  0.2850 -0.0328 -0.2877
  441THF    H10 6870   2.880   5.015   5.269 -0.7425 -0.3842 -0.5639
  441THF    H11 6871   2.985   4.897   5.363  1.1385 -0.4910 -1.5762
  441THF    H12 6872   2.849   4.744   5.410 -3.5357 -2.0101  0.5664
  441THF    H13 6873   2.713   4.859   5.360  2.1468  2.9564  0.6601
  442THF     O1 6874   2.109   0.097   2.734 -0.1243  0.4817  0.2000
  442THF     C2 6875   2.206  -0.009   2.728  0.0769  0.9082 -0.6674
  442THF     C3 6876   1.984   0.033   2.708 -0.2126  0.5132 -0.4506
  442THF     H4 6877   2.218  -0.043   2.831 -1.5729 -0.1275 -0.7740
  442THF     H5 6878   2.301   0.040   2.708  0.5316  0.7252  0.9349
  442THF     H6 6879   1.960  -0.001   2.809  2.2159 -1.5988 -0.4928
  442THF     H7 6880   1.906   0.101   2.673 -1.0119 -0.3854 -0.4727
  442THF     C8 6881   2.008  -0.076   2.614 -1.2234 -0.0074  0.0431
  442THF     C9 6882   2.153  -0.125   2.636  0.0622 -0.1033  0.2379
  442THF    H10 6883   2.006  -0.041   2.511 -0.7781 -1.8168 -0.6271
  442THF    H11 6884   1.936  -0.158   2.626 -1.9413  0.6039  0.0265
  442THF    H12 6885   2.161  -0.215   2.697  0.4690 -1.1962 -1.3495
  442THF    H13 6886   2.216  -0.131   2.547 -0.2798  2.0416 -0.1900
  443THF     O1 6887   1.296   2.672   2.401  0.4093  0.0313 -0.0243
  443THF     C2 6888   1.235   2.590   2.499  0.5190  0.2977  0.6215
  443THF     C3 6889   1.405   2.747   2.447 -0.5453  0.0795 -0.1360
  443THF     H4 6890   1.279   2.491   2.496 -1.7779 -0.8120 -2.5403
  443THF     H5 6891   1.130   2.577   2.471  1.0768 -2.8339 -0.4302
  443THF     H6 6892   1.499   2.718   2.399  0.2553 -1.0635  2.0162
  443THF     H7 6893   1.384   2.850   2.417 -2.6043 -1.0131 -2.9219
  443THF     C8 6894   1.412   2.708   2.597 -1.2307  0.3800  0.8834
  443THF     C9 6895   1.273   2.663   2.632  0.3005 -0.9291 -0.0088
  443THF    H10 6896   1.456   2.777   2.669  0.8074  0.1221 -0.0397
  443THF    H11 6897   1.486   2.628   2.593 -1.7940 -0.1796 -4.1968
  443THF    H12 6898   1.265   2.596   2.718 -1.1476  1.0376  1.4788
  443THF    H13 6899   1.206   2.747   2.649 -1.1973 -2.1416  0.3453
  444THF     O1 6900   1.843   2.549   2.981 -0.0485 -0.4454 -0.4533
  444THF     C2 6901   1.736   2.621   2.940 -0.1522 -0.1575 -0.2097
  444THF     C3 6902   1.893   2.470   2.872  0.9347  0.7269 -0.1458
  444THF     H4 6903   1.703   2.707   2.998  0.3447  0.9956 -1.5734
  444THF     H5 6904   1.649   2.556   2.946 -1.3644  1.3701 -0.7005
  444THF     H6 6905   1.997   2.440   2.890  1.1839  0.9307 -1.1686
  444THF     H7 6906   1.830   2.382   2.862  0.5008  1.2287 -2.3755
  444THF     C8 6907   1.873   2.562   2.756 -0.1078 -0.7355  0.8108
  444THF     C9 6908   1.749   2.646   2.792 -0.5009 -0.6081  0.8743
  444THF    H10 6909   1.881   2.511   2.660  2.3985  0.2394  0.4169
  444THF    H11 6910   1.956   2.632   2.760 -1.2202  0.7426 -0.6770
  444THF    H12 6911   1.765   2.753   2.775  0.1240 -0.9323 -0.7418
  444THF    H13 6912   1.662   2.622   2.731  0.8466  1.4921 -2.1384
  445THF     O1 6913   3.585   1.422   3.896 -0.3655  0.0965 -0.7292
  445THF     C2 6914   3.603   1.536   3.983 -0.4341  0.0309 -0.2927
  445THF     C3 6915   3.713   1.392   3.838  1.3947  0.3168 -0.4230
  445THF     H4 6916   3.661   1.499   4.068 -1.0502 -1.5369 -0.5367
  445THF     H5 6917   3.515   1.585   4.026 -1.0186  1.4147 -2.8647
  445THF     H6 6918   3.754   1.306   3.892  1.2325  0.4678 -0.0517
  445THF     H7 6919   3.694   1.350   3.740 -0.0415  1.3301 -0.6190
  445THF     C8 6920   3.794   1.526   3.840 -0.9076  0.0716 -0.3881
  445THF     C9 6921   3.686   1.623   3.891 -0.2872  0.2409  0.1989
  445THF    H10 6922   3.846   1.566   3.753 -0.2039  1.4991  0.6483
  445THF    H11 6923   3.872   1.516   3.915 -2.1287  0.0109  0.9388
  445THF    H12 6924   3.736   1.703   3.946  0.6117  0.1567 -0.4771
  445THF    H13 6925   3.621   1.668   3.816 -1.5146  0.6519  1.4714
  446THF     O1 6926   1.216   0.707   1.414 -0.2724  0.1860  0.0883
  446THF     C2 6927   1.314   0.603   1.384 -0.1168  0.4526 -0.0911
  446THF     C3 6928   1.158   0.671   1.534  0.0464 -0.5721 -0.2416
  446THF     H4 6929   1.402   0.613   1.447  1.9387  2.7231 -3.0121
  446THF     H5 6930   1.342   0.589   1.279 -1.9993  0.0359 -0.5776
  446THF     H6 6931   1.227   0.661   1.618 -1.0680 -0.4811  0.7136
  446THF     H7 6932   1.089   0.749   1.569  0.2225  0.5323 -2.2259
  446THF     C8 6933   1.119   0.530   1.498 -0.0461 -0.5399  0.8766
  446THF     C9 6934   1.240   0.476   1.418  0.0360  0.3400  0.6354
  446THF    H10 6935   1.036   0.535   1.427  0.5148 -3.2726 -0.0933
  446THF    H11 6936   1.085   0.470   1.583 -0.8566  1.3081  1.8947
  446THF    H12 6937   1.298   0.400   1.470  0.3951 -0.2659 -0.6039
  446THF    H13 6938   1.205   0.423   1.329  0.1575  1.4422 -0.0944
  447THF     O1 6939   3.757   5.204   5.257 -0.2782  0.1766  0.5882
  447THF     C2 6940   3.641   5.243   5.334 -0.4068  0.0988  0.1804
  447THF     C3 6941   3.867   5.211   5.339  0.0233 -0.9390  0.3181
  447THF     H4 6942   3.612   5.160   5.398 -1.4983  0.7266  0.5351
  447THF     H5 6943   3.557   5.287   5.279 -0.2814  3.1041  2.1397
  447THF     H6 6944   3.869   5.138   5.420 -0.3788 -1.2754  0.0274
  447THF     H7 6945   3.964   5.193   5.293  0.9225 -0.5389  1.9902
  447THF     C8 6946   3.842   5.348   5.396 -0.1189 -0.0502 -0.4594
  447THF     C9 6947   3.690   5.342   5.436 -0.2202  0.2311 -1.4108
  447THF    H10 6948   3.857   5.421   5.317  1.2098  0.5846  0.3350
  447THF    H11 6949   3.907   5.371   5.481  1.2103  0.6225 -1.6243
  447THF    H12 6950   3.686   5.302   5.537 -1.3387 -0.9733 -1.8983
  447THF    H13 6951   3.639   5.438   5.435 -0.4833  0.2002  1.2364
  448THF     O1 6952   2.756   0.084   0.239  0.1458  0.8975 -0.0261
  448THF     C2 6953   2.888   0.105   0.194 -0.4810 -0.0159  0.2640
  448THF     C3 6954   2.683   0.202   0.264 -0.7863  0.6078  0.5674
  448THF     H4 6955   2.880   0.135   0.090 -1.3134 -0.2341  0.2551
  448THF     H5 6956   2.961   0.024   0.197 -0.7081 -0.2261  0.1417
  448THF     H6 6957   2.626   0.226   0.175 -0.3924 -0.0185  0.1399
  448THF     H7 6958   2.612   0.190   0.346 -0.0726 -1.2432  0.9571
  448THF     C8 6959   2.785   0.307   0.294  0.2938 -0.5571  0.6685
  448THF     C9 6960   2.917   0.231   0.279  0.3380  0.0075  0.0128
  448THF    H10 6961   2.775   0.356   0.391 -0.4648  2.1102 -0.6529
  448THF    H11 6962   2.789   0.378   0.212  0.4662 -2.1871 -0.7764
  448THF    H12 6963   2.982   0.305   0.232 -1.0324  2.0668  1.1992
  448THF    H13 6964   2.961   0.185   0.368 -1.3266 -3.0085 -0.5824
  449THF     O1 6965   0.945   0.054   3.773  0.0675 -0.1749  0.4605
  449THF     C2 6966   0.980   0.194   3.780  0.0981  0.6616  0.3824
  449THF     C3 6967   0.827   0.036   3.698 -0.0596 -0.0539 -0.0905
  449THF     H4 6968   1.085   0.211   3.805  0.1539  0.2730  0.4162
  449THF     H5 6969   0.918   0.237   3.857  0.1922 -0.6342  1.2035
  449THF     H6 6970   0.814  -0.067   3.666  1.7092 -0.1174 -0.6994
  449THF     H7 6971   0.746   0.064   3.766  0.6977 -0.9930  1.2578
  449THF     C8 6972   0.850   0.136   3.580 -0.0653  1.0847 -1.0138
  449THF     C9 6973   0.951   0.242   3.635  0.6329  0.8795 -0.2665
  449THF    H10 6974   0.759   0.174   3.533 -1.4025 -0.1270  0.4469
  449THF    H11 6975   0.903   0.091   3.496 -0.6030  1.0977 -1.3644
  449THF    H12 6976   1.040   0.238   3.572  1.9224  1.9645  1.4071
  449THF    H13 6977   0.906   0.341   3.627 -2.7449 -0.4403  0.7510
  450THF     O1 6978   1.454   3.389   4.147 -0.1710 -0.1687  0.5512
  450THF     C2 6979   1.548   3.441   4.052  0.1890 -0.1233 -0.0189
  450THF     C3 6980   1.492   3.261   4.195 -0.2383  0.0293 -0.2125
  450THF     H4 6981   1.605   3.515   4.108 -0.2937 -0.5304  1.0346
  450THF     H5 6982   1.483   3.489   3.978  1.0884  2.7858  0.9639
  450THF     H6 6983   1.571   3.275   4.268 -0.1213  0.0587 -0.3449
  450THF     H7 6984   1.409   3.202   4.235  0.8757 -1.0778  0.5140
  450THF     C8 6985   1.553   3.201   4.072 -0.3499 -0.7032  0.1076
  450THF     C9 6986   1.619   3.316   4.003  0.3259 -0.0837  0.3618
  450THF    H10 6987   1.467   3.157   4.021 -2.5542  2.7105  0.5538
  450THF    H11 6988   1.625   3.122   4.096 -1.5365 -1.3463  1.7655
  450THF    H12 6989   1.724   3.317   4.030  0.9556 -1.2465 -1.7571
  450THF    H13 6990   1.634   3.316   3.895  1.1991 -0.4708  0.4794
  451THF     O1 6991   2.773   2.373   3.653 -0.3143 -0.0770  0.5223
  451THF     C2 6992   2.677   2.452   3.721 -0.0035  0.3714 -0.6952
  451THF     C3 6993   2.892   2.447   3.677 -0.3145  0.1894 -0.6051
  451THF     H4 6994   2.656   2.443   3.828 -2.5528  4.4237 -0.6378
  451THF     H5 6995   2.581   2.421   3.678 -1.8833  1.1075  2.5926
  451THF     H6 6996   2.915   2.444   3.783  0.7766  0.8603 -0.8108
  451THF     H7 6997   2.970   2.403   3.616 -1.4854 -2.0092 -0.5893
  451THF     C8 6998   2.845   2.584   3.629  0.1634 -0.1226 -0.4468
  451THF     C9 6999   2.706   2.593   3.678 -0.4022  0.4864  0.8389
  451THF    H10 7000   2.847   2.586   3.520  0.6878 -3.6773 -0.6410
  451THF    H11 7001   2.905   2.659   3.680 -1.4245  0.7919  0.1117
  451THF    H12 7002   2.698   2.664   3.761  0.9641  0.5067  0.9753
  451THF    H13 7003   2.643   2.624   3.595  1.0374 -0.4585 -0.6574
  452THF     O1 7004   0.522   3.505   0.055 -0.5135 -0.2117  0.1949
  452THF     C2 7005   0.632   3.438  -0.010 -0.0578 -0.2302  0.4582
  452THF     C3 7006   0.525   3.644   0.020 -0.4039 -0.2505 -0.7563
  452THF     H4 7007   0.612   3.332  -0.027 -2.1532  0.3779 -1.2222
  452THF     H5 7008   0.721   3.433   0.054 -1.5282  1.0792  2.7427
  452THF     H6 7009   0.423   3.680   0.033 -1.3116 -3.2426  1.3745
  452THF     H7 7010   0.597   3.685   0.091  1.3928 -0.0674 -2.5870
  452THF     C8 7011   0.579   3.650  -0.124 -0.0948 -0.1863  0.2765
  452THF     C9 7012   0.651   3.515  -0.144 -0.4693 -0.5912  0.2916
  452THF    H10 7013   0.652   3.730  -0.136 -0.1528 -0.3244 -1.0814
  452THF    H11 7014   0.502   3.666  -0.199  0.5537  0.2522 -0.3078
  452THF    H12 7015   0.610   3.459  -0.228 -2.1806 -1.0332  1.3785
  452THF    H13 7016   0.755   3.542  -0.162 -1.7713  3.9796 -2.1673
  453THF     O1 7017   0.482   5.434   3.311 -0.2347 -0.1023 -0.1993
  453THF     C2 7018   0.436   5.463   3.181  0.2559  0.2315 -0.4227
  453THF     C3 7019   0.616   5.489   3.320 -0.4201  0.4451  0.7570
  453THF     H4 7020   0.328   5.464   3.171  0.1405 -0.3259  0.5978
  453THF     H5 7021   0.465   5.380   3.117 -0.7112  0.8484 -1.7105
  453THF     H6 7022   0.646   5.520   3.420  1.5003  0.0622  0.3537
  453THF     H7 7023   0.686   5.413   3.284 -2.6589 -1.8009  0.8346
  453THF     C8 7024   0.609   5.604   3.227 -1.2357 -0.0176 -0.2442
  453THF     C9 7025   0.500   5.591   3.138  0.1315 -0.0706  0.1452
  453THF    H10 7026   0.699   5.609   3.165  0.2795 -3.0824  1.5026
  453THF    H11 7027   0.598   5.699   3.279 -0.5342 -1.0762  1.9345
  453THF    H12 7028   0.432   5.677   3.141  0.4329  0.2052 -0.6334
  453THF    H13 7029   0.525   5.575   3.033 -3.7151 -0.2261 -0.9192
  454THF     O1 7030   4.403   0.901   2.830 -0.4196  0.0705  0.2133
  454THF     C2 7031   4.476   0.871   2.946  0.0103  0.4851  0.0927
  454THF     C3 7032   4.298   0.809   2.812 -0.5148 -0.1075 -0.0441
  454THF     H4 7033   4.492   0.961   3.006  0.3035  1.0507 -0.8008
  454THF     H5 7034   4.571   0.823   2.921 -0.1145 -0.6477  1.6387
  454THF     H6 7035   4.218   0.855   2.755 -1.3901 -0.4647  0.8628
  454THF     H7 7036   4.343   0.726   2.757  0.6840  0.8211 -0.4993
  454THF     C8 7037   4.264   0.772   2.958  0.6178 -0.1904 -0.4076
  454THF     C9 7038   4.398   0.780   3.033  0.6992  0.3500  0.5489
  454THF    H10 7039   4.220   0.674   2.970  0.5150  0.0417  1.3012
  454THF    H11 7040   4.191   0.848   2.986 -1.2070 -1.4799 -1.4935
  454THF    H12 7041   4.397   0.794   3.141  0.9691  0.4459  0.5390
  454THF    H13 7042   4.442   0.680   3.022 -1.5022 -0.4554 -2.6169
  455THF     O1 7043   5.203   2.669   5.114 -0.6209 -0.3385  0.4596
  455THF     C2 7044   5.172   2.739   4.989 -0.2220  0.0061  0.3247
  455THF     C3 7045   5.116   2.711   5.219  0.0345  1.2163  0.3580
  455THF     H4 7046   5.132   2.670   4.914 -1.5145  0.8026  0.2493
  455THF     H5 7047   5.260   2.788   4.946  0.0482 -0.4848  0.3123
  455THF     H6 7048   5.028   2.646   5.216 -0.4395  1.8973 -1.1093
  455THF     H7 7049   5.162   2.695   5.317 -0.4662 -1.4555  0.2322
  455THF     C8 7050   5.074   2.849   5.179  0.4541 -0.2011  0.5385
  455THF     C9 7051   5.056   2.839   5.029 -1.0304 -0.0144  0.1257
  455THF    H10 7052   5.147   2.926   5.205  0.5979  0.5367 -1.8248
  455THF    H11 7053   4.991   2.879   5.243  1.3070 -1.2988  2.2300
  455THF    H12 7054   4.954   2.811   5.001 -0.5405 -1.5939 -0.1516
  455THF    H13 7055   5.064   2.939   4.986  2.7822  0.4660  1.6177
  456THF     O1 7056   4.965   5.396   5.492 -0.4489 -0.8058 -0.0279
  456THF     C2 7057   5.033   5.342   5.381 -0.1682  0.7050  0.2477
  456THF     C3 7058   5.046   5.385   5.610  0.2421  0.2283 -0.3575
  456THF     H4 7059   5.008   5.385   5.284 -0.5613 -0.8807 -0.3845
  456THF     H5 7060   5.009   5.236   5.370 -0.4907  0.3872  3.1628
  456THF     H6 7061   5.038   5.484   5.655  1.3508  1.3394 -2.4380
  456THF     H7 7062   5.009   5.309   5.679  2.5464  0.5712  1.3470
  456THF     C8 7063   5.197   5.366   5.566  0.5294  0.3727 -0.3167
  456THF     C9 7064   5.184   5.371   5.413  0.0284 -0.1635  0.3188
  456THF    H10 7065   5.237   5.273   5.605  0.9373  0.1834 -1.1635
  456THF    H11 7066   5.255   5.449   5.607  0.6305  0.4093 -0.5331
  456THF    H12 7067   5.199   5.478   5.400 -1.4686 -0.0468 -0.7433
  456THF    H13 7068   5.259   5.315   5.357 -1.1572  0.3612 -1.9110
  457THF     O1 7069   2.617   1.001   0.225  0.6118  0.0441 -0.6413
  457THF     C2 7070   2.706   1.083   0.291 -0.5740 -0.2291 -0.2024
  457THF     C3 7071   2.488   1.042   0.226  0.0513  0.2329 -0.2586
  457THF     H4 7072   2.809   1.057   0.267 -0.7552  0.2102 -1.4835
  457THF     H5 7073   2.696   1.064   0.398  0.8397  0.1452  0.0199
  457THF     H6 7074   2.434   1.005   0.139 -0.1162  0.0369 -0.0740
  457THF     H7 7075   2.431   1.009   0.314 -1.9137  1.4837 -0.9812
  457THF     C8 7076   2.507   1.195   0.227  0.0741  0.0588  0.0636
  457THF     C9 7077   2.645   1.227   0.254  0.1719  0.1463 -0.4340
  457THF    H10 7078   2.445   1.223   0.312  1.4180 -1.9394  1.8250
  457THF    H11 7079   2.458   1.238   0.140 -0.2137  1.9331  1.1167
  457THF    H12 7080   2.684   1.286   0.171 -1.2869  0.7540 -0.7259
  457THF    H13 7081   2.649   1.292   0.341  0.4037 -0.4951  0.0440
  458THF     O1 7082   3.480   2.861   5.363 -0.2495  0.3587  0.5624
  458THF     C2 7083   3.371   2.903   5.434  0.1040  0.2553  0.4413
  458THF     C3 7084   3.598   2.862   5.438  0.3055 -0.2445  0.4772
  458THF     H4 7085   3.298   2.837   5.481 -0.8245 -0.6829 -2.1805
  458THF     H5 7086   3.317   2.959   5.358  1.5126  1.3283  0.1966
  458THF     H6 7087   3.605   2.766   5.489  0.5215 -0.3040  0.3346
  458THF     H7 7088   3.687   2.874   5.377  2.0328 -0.4584  2.8460
  458THF     C8 7089   3.576   2.987   5.515  0.4122 -0.2442  0.4236
  458THF     C9 7090   3.431   2.989   5.540 -0.1321 -0.8623  0.1380
  458THF    H10 7091   3.600   3.074   5.454  1.1285 -1.9273 -1.8370
  458THF    H11 7092   3.626   2.999   5.611 -1.3530 -4.5027  2.1292
  458THF    H12 7093   3.419   2.937   5.635  0.6282 -0.0839  0.6779
  458THF    H13 7094   3.377   3.084   5.550  0.6774 -0.3887  0.1445
  459THF     O1 7095   1.655   3.708   1.248 -0.5840  0.6551 -0.0503
  459THF     C2 7096   1.628   3.822   1.170 -0.3599  0.2348  0.3797
  459THF     C3 7097   1.689   3.597   1.163 -0.0005 -0.0068  0.1169
  459THF     H4 7098   1.727   3.858   1.142  0.6017 -1.8036  0.9824
  459THF     H5 7099   1.561   3.899   1.209 -2.5181 -1.7296  0.7510
  459THF     H6 7100   1.797   3.586   1.168  0.1393  1.6283  1.7910
  459THF     H7 7101   1.654   3.502   1.203 -1.4791  1.6485  3.0379
  459THF     C8 7102   1.647   3.624   1.025  0.0193 -1.1935  1.0519
  459THF     C9 7103   1.572   3.760   1.038 -0.2943 -0.2665 -0.0852
  459THF    H10 7104   1.591   3.542   0.983  1.8411 -1.2769 -1.4383
  459THF    H11 7105   1.729   3.644   0.956 -0.5593  1.1028  0.9442
  459THF    H12 7106   1.599   3.827   0.956 -1.1206  0.8246  0.4982
  459THF    H13 7107   1.463   3.753   1.047 -0.2961 -0.4677 -0.2522
  460THF     O1 7108   4.966   2.576   1.213 -0.3526  0.3187 -0.1994
  460THF     C2 7109   5.100   2.549   1.177  0.1571  0.0146 -0.3331
  460THF     C3 7110   4.958   2.706   1.271 -0.7375  0.4944  0.6507
  460THF     H4 7111   5.119   2.603   1.084  1.0586  0.3320  0.0249
  460THF     H5 7112   5.123   2.444   1.160  1.0804  0.3213 -1.0932
  460THF     H6 7113   4.931   2.779   1.195 -0.3684 -0.5655 -0.5271
  460THF     H7 7114   4.887   2.708   1.354  0.3897 -0.5673  1.6758
  460THF     C8 7115   5.102   2.743   1.308  0.1529 -0.0975  0.3247
  460THF     C9 7116   5.183   2.607   1.282  0.2919  0.2282 -0.5363
  460THF    H10 7117   5.121   2.783   1.408 -1.4224 -2.0236  1.4662
  460THF    H11 7118   5.134   2.817   1.235  0.7418 -0.8103 -0.1598
  460THF    H12 7119   5.287   2.627   1.256  1.9311 -1.2432  3.9483
  460THF    H13 7120   5.186   2.552   1.376 -1.8435  0.6651 -0.1725
  461THF     O1 7121   0.568   2.456   5.116 -0.2920 -0.2502 -0.3620
  461THF     C2 7122   0.611   2.334   5.059 -0.6265  0.1831 -0.9524
  461THF     C3 7123   0.644   2.559   5.051  0.4702  0.4576 -0.2210
  461THF     H4 7124   0.552   2.306   4.972 -1.2683 -0.5532 -0.2873
  461THF     H5 7125   0.606   2.256   5.134  0.9618  0.9452  0.0079
  461THF     H6 7126   0.574   2.616   4.990 -0.3934 -3.0006 -2.7737
  461THF     H7 7127   0.695   2.624   5.122  5.1982 -2.8896 -0.1152
  461THF     C8 7128   0.751   2.489   4.964  0.2355  0.1014 -0.5392
  461THF     C9 7129   0.746   2.344   5.007  0.0558  0.2538 -0.6159
  461THF    H10 7130   0.848   2.536   4.982 -0.0254  0.5092 -0.1914
  461THF    H11 7131   0.722   2.510   4.861 -1.3676  1.8105  0.2141
  461THF    H12 7132   0.769   2.284   4.919  2.8533 -0.3089  0.3691
  461THF    H13 7133   0.820   2.329   5.086 -1.7309 -0.1892  1.0676
  462THF     O1 7134   5.297   3.624   1.724  0.2769  0.3834 -0.4466
  462THF     C2 7135   5.385   3.719   1.658  0.5478  0.8574 -0.0797
  462THF     C3 7136   5.297   3.666   1.862 -0.0792 -0.5859 -0.1170
  462THF     H4 7137   5.365   3.726   1.551 -3.8369  2.5130  0.6249
  462THF     H5 7138   5.486   3.693   1.688 -0.6736 -3.3182  1.1828
  462THF     H6 7139   5.205   3.629   1.909 -1.4276 -0.0375 -2.1935
  462THF     H7 7140   5.387   3.632   1.913 -0.2689 -3.0737 -1.2902
  462THF     C8 7141   5.278   3.818   1.848  0.0704 -0.2156  0.1632
  462THF     C9 7142   5.330   3.854   1.709  0.0922 -0.1465 -0.2572
  462THF    H10 7143   5.341   3.863   1.925 -1.0463  2.5778 -0.4458
  462THF    H11 7144   5.180   3.866   1.854  0.0288 -0.1376 -0.9665
  462THF    H12 7145   5.243   3.876   1.648 -1.1756  0.4178  1.6608
  462THF    H13 7146   5.405   3.930   1.689  0.5685 -0.9311 -1.6266
  463THF     O1 7147   1.956   1.129   5.257 -0.1322 -0.1938  0.0778
  463THF     C2 7148   1.980   1.012   5.188 -0.5744 -0.7740  0.2888
  463THF     C3 7149   2.055   1.234   5.231  0.7414  0.1061 -0.2602
  463THF     H4 7150   1.884   0.963   5.169  0.1151 -2.3446  0.6719
  463THF     H5 7151   2.046   0.947   5.246 -0.9927 -1.4110  0.0630
  463THF     H6 7152   2.021   1.337   5.243  0.5191  0.1330 -1.0655
  463THF     H7 7153   2.150   1.231   5.285  0.3449  0.2159  0.4460
  463THF     C8 7154   2.093   1.202   5.081 -0.6213 -0.0035 -0.0727
  463THF     C9 7155   2.030   1.065   5.051 -0.4229 -1.1290 -0.2522
  463THF    H10 7156   2.200   1.210   5.062 -0.6519  2.2384  0.3294
  463THF    H11 7157   2.028   1.279   5.038 -0.8366 -1.3132 -2.2260
  463THF    H12 7158   1.951   1.085   4.978  1.3965  0.0795 -1.9825
  463THF    H13 7159   2.107   1.006   5.002 -0.9838 -1.1521 -1.1223
  464THF     O1 7160   3.122   5.194   0.612  0.6139  0.0990 -0.4216
  464THF     C2 7161   3.123   5.146   0.479 -0.0941  0.2072 -0.5877
  464THF     C3 7162   3.014   5.292   0.607 -0.2522 -0.1613 -0.8962
  464THF     H4 7163   3.108   5.038   0.480  1.1955 -0.0634 -2.8978
  464THF     H5 7164   3.226   5.147   0.444  0.4044  0.1240  0.8396
  464THF     H6 7165   2.931   5.236   0.649  0.2107 -0.2095 -0.0150
  464THF     H7 7166   3.039   5.378   0.670 -0.9303  1.1827 -2.3935
  464THF     C8 7167   3.003   5.346   0.470  0.0973  0.2520  0.9083
  464THF     C9 7168   3.022   5.220   0.387  0.9107  0.6846 -0.2564
  464THF    H10 7169   3.074   5.426   0.449  0.9640 -0.5668  0.6188
  464THF    H11 7170   2.910   5.402   0.464  1.3763  2.5503  1.2853
  464THF    H12 7171   2.929   5.163   0.387  0.8847  0.7227 -0.8403
  464THF    H13 7172   3.056   5.232   0.284 -1.7939 -0.2669 -1.3560
  465THF     O1 7173   2.441   4.584   3.903 -0.3946 -0.3682  0.0152
  465THF     C2 7174   2.365   4.708   3.925 -0.4557 -0.3357  0.0768
  465THF     C3 7175   2.424   4.550   3.764 -0.0683 -0.1569 -0.5431
  465THF     H4 7176   2.426   4.793   3.893  0.9236 -1.8666 -1.5862
  465THF     H5 7177   2.330   4.720   4.028 -2.1272 -4.0585  0.1024
  465THF     H6 7178   2.478   4.610   3.691 -0.8278 -0.3986 -1.3190
  465THF     H7 7179   2.459   4.447   3.756 -1.5652 -0.6359 -1.2604
  465THF     C8 7180   2.271   4.567   3.746 -0.5267 -0.0761 -0.1072
  465THF     C9 7181   2.238   4.685   3.836  0.0615  0.9139 -0.0388
  465THF    H10 7182   2.218   4.480   3.785 -1.1423  1.2568  2.2480
  465THF    H11 7183   2.230   4.575   3.645 -0.3082 -4.0974 -0.6680
  465THF    H12 7184   2.211   4.767   3.769  0.5630  0.5746 -0.6529
  465THF    H13 7185   2.152   4.673   3.903 -0.3147 -0.5411 -0.7530
  466THF     O1 7186   0.732   2.617   1.297 -0.6297 -0.1650  0.4077
  466THF     C2 7187   0.601   2.561   1.307 -0.6195  0.6030 -0.3946
  466THF     C3 7188   0.723   2.754   1.338 -0.6259  0.8205  0.4764
  466THF     H4 7189   0.574   2.545   1.412 -0.7709  1.0479 -0.3612
  466THF     H5 7190   0.603   2.469   1.249  1.9837  1.2294 -1.4373
  466THF     H6 7191   0.733   2.757   1.446  0.4485 -1.9679  0.5401
  466THF     H7 7192   0.804   2.816   1.301 -0.0263  0.0847  0.5171
  466THF     C8 7193   0.588   2.801   1.274  0.1635  0.4733 -0.2672
  466THF     C9 7194   0.517   2.668   1.236 -0.5090 -0.9508  0.2370
  466THF    H10 7195   0.593   2.880   1.199 -1.9104  1.2599  0.3298
  466THF    H11 7196   0.527   2.845   1.353  0.0139 -0.3608  0.0936
  466THF    H12 7197   0.410   2.675   1.258 -1.0794 -3.0415 -1.5189
  466THF    H13 7198   0.525   2.657   1.128 -1.0461 -0.3949  0.1318
  467THF     O1 7199   3.958   2.663   4.480 -0.7935  1.1149  0.2118
  467THF     C2 7200   3.939   2.746   4.595 -0.1330  0.1719 -0.3401
  467THF     C3 7201   3.896   2.725   4.363 -0.2774 -0.2365  0.2475
  467THF     H4 7202   4.039   2.786   4.613  0.4039 -0.5302 -1.6049
  467THF     H5 7203   3.908   2.693   4.684 -0.3717  1.9483  0.6845
  467THF     H6 7204   3.977   2.792   4.333  2.1523 -1.7831  2.8745
  467THF     H7 7205   3.875   2.650   4.288 -1.3583  0.7006 -0.4192
  467THF     C8 7206   3.777   2.803   4.429  0.3713  0.1392 -0.0210
  467THF     C9 7207   3.838   2.857   4.561  0.2948  0.3658 -1.2633
  467THF    H10 7208   3.695   2.739   4.459 -0.0162 -0.0348 -1.3769
  467THF    H11 7209   3.747   2.894   4.378 -0.7367  0.8118  1.7439
  467THF    H12 7210   3.894   2.950   4.549  0.4849  0.6614  1.4189
  467THF    H13 7211   3.784   2.878   4.653  1.8793 -0.5694 -0.0927
  468THF     O1 7212   1.185   2.438   3.470 -0.5199  0.0029  0.3189
  468THF     C2 7213   1.171   2.377   3.594 -0.4323  0.2331 -0.1438
  468THF     C3 7214   1.057   2.481   3.424 -0.2539  0.0660 -0.0263
  468THF     H4 7215   1.271   2.383   3.637 -1.0678 -0.2965  1.4884
  468THF     H5 7216   1.141   2.272   3.597 -0.8700  0.3658  0.3108
  468THF     H6 7217   1.073   2.542   3.335 -2.3806 -2.9448 -2.7461
  468THF     H7 7218   0.995   2.397   3.392 -1.0699  1.2258 -1.6409
  468THF     C8 7219   1.007   2.557   3.548  0.2242 -0.5731 -0.1934
  468THF     C9 7220   1.067   2.470   3.661  0.3879 -0.2542 -0.1908
  468THF    H10 7221   0.900   2.575   3.541  0.7139  3.1268  0.1335
  468THF    H11 7222   1.058   2.653   3.547 -0.8665  0.0660  1.5144
  468THF    H12 7223   1.107   2.535   3.739 -0.8112 -0.1839  0.3829
  468THF    H13 7224   0.986   2.411   3.703 -0.7064  2.1580  1.2748
  469THF     O1 7225   0.355   1.606   3.998 -0.2501 -0.2723 -0.4734
  469THF     C2 7226   0.338   1.497   4.088 -0.1887 -0.2618 -0.4616
  469THF     C3 7227   0.282   1.573   3.883  0.1915 -0.2108 -0.4980
  469THF     H4 7228   0.250   1.517   4.149 -0.2118 -2.0015  0.1289
  469THF     H5 7229   0.415   1.472   4.161  0.7126  2.1930 -0.4717
  469THF     H6 7230   0.191   1.633   3.881  0.0370 -0.4061  0.5106
  469THF     H7 7231   0.343   1.600   3.797  2.0207 -1.0844  0.4876
  469THF     C8 7232   0.238   1.427   3.888  0.2933 -0.4979  0.1836
  469THF     C9 7233   0.304   1.370   4.012 -0.4996  0.2116  0.1954
  469THF    H10 7234   0.263   1.375   3.796 -0.4462 -0.3110 -0.1313
  469THF    H11 7235   0.130   1.416   3.903  0.1730  1.9487  1.7259
  469THF    H12 7236   0.241   1.299   4.066 -3.6586  0.5374 -2.7560
  469THF    H13 7237   0.394   1.316   3.981  0.9255  2.2057  0.6274
  470THF     O1 7238   2.432   3.101   4.635 -0.1121  0.2531 -0.1726
  470THF     C2 7239   2.563   3.096   4.577 -0.0195 -0.6958  0.0188
  470THF     C3 7240   2.403   3.238   4.666 -0.7506  0.1816 -0.0836
  470THF     H4 7241   2.579   3.093   4.470  0.6180 -1.5997  0.1192
  470THF     H5 7242   2.611   3.007   4.619  0.2931 -0.1666  0.8261
  470THF     H6 7243   2.372   3.295   4.579  1.1803 -0.2724 -1.1188
  470THF     H7 7244   2.328   3.244   4.745 -0.2634  0.3395  0.3768
  470THF     C8 7245   2.534   3.287   4.723  0.3002 -0.0361 -0.7976
  470THF     C9 7246   2.630   3.238   4.618  0.6519 -0.0776  0.0974
  470THF    H10 7247   2.553   3.252   4.825  0.8924  1.4159 -0.3833
  470THF    H11 7248   2.529   3.394   4.739 -1.5254 -0.1643 -0.3386
  470THF    H12 7249   2.631   3.314   4.539 -2.6551  1.6214  1.4752
  470THF    H13 7250   2.731   3.222   4.656  0.4634  2.1355  1.6956
  471THF     O1 7251   4.539   0.670   5.179  0.1272 -0.2428  0.6788
  471THF     C2 7252   4.543   0.675   5.323  0.6317 -0.0185  0.2689
  471THF     C3 7253   4.663   0.721   5.120  0.2101  0.5440 -0.5533
  471THF     H4 7254   4.540   0.569   5.347  1.7714 -0.7869 -2.6151
  471THF     H5 7255   4.464   0.738   5.366  0.7443  0.9997 -0.9760
  471THF     H6 7256   4.691   0.660   5.033 -0.6450 -0.7464  0.0419
  471THF     H7 7257   4.647   0.823   5.084  3.1837  1.0451 -0.7513
  471THF     C8 7258   4.764   0.702   5.227 -0.1054  0.1690 -0.3636
  471THF     C9 7259   4.682   0.740   5.351 -0.4914 -0.4503 -1.0751
  471THF    H10 7260   4.845   0.774   5.212  1.8300 -2.0974 -1.5388
  471THF    H11 7261   4.807   0.602   5.231  0.8240  0.6036  0.9365
  471THF    H12 7262   4.732   0.699   5.439 -0.5728 -0.8977 -1.2334
  471THF    H13 7263   4.670   0.848   5.353  1.1527 -0.2512  0.4668
  472THF     O1 7264   3.543   1.593   2.667  0.1213  0.4484  0.5395
  472THF     C2 7265   3.575   1.534   2.542 -0.0785 -0.4860 -0.2662
  472THF     C3 7266   3.531   1.733   2.645  0.3907  0.0400 -0.7679
  472THF     H4 7267   3.493   1.536   2.470 -0.9308  1.4538  0.6760
  472THF     H5 7268   3.603   1.430   2.556  1.8375 -0.1189 -0.9855
  472THF     H6 7269   3.438   1.759   2.595  1.4814  1.3782 -2.2413
  472THF     H7 7270   3.544   1.796   2.732  3.2760 -1.3546 -0.0424
  472THF     C8 7271   3.658   1.752   2.563 -0.2500  0.1659 -0.3762
  472THF     C9 7272   3.686   1.618   2.503 -0.0710  0.1272 -0.0589
  472THF    H10 7273   3.734   1.781   2.636 -1.2958 -1.6335  1.5346
  472THF    H11 7274   3.642   1.831   2.489  0.7881  0.6758 -0.0770
  472THF    H12 7275   3.701   1.618   2.395  0.6083 -0.2112  0.0307
  472THF    H13 7276   3.770   1.565   2.549 -0.3004 -2.1193 -2.0425
  473THF     O1 7277   2.963   4.369   4.835 -0.2797 -0.9410  0.3039
  473THF     C2 7278   2.910   4.447   4.942 -0.5270  0.0022  0.3741
  473THF     C3 7279   2.935   4.441   4.712  0.0443 -0.1882 -0.1779
  473THF     H4 7280   2.999   4.504   4.972 -1.1202  0.7134  0.8124
  473THF     H5 7281   2.861   4.388   5.020 -0.9391  0.6874  0.6416
  473THF     H6 7282   3.032   4.440   4.661  1.9520 -2.8292  3.1078
  473THF     H7 7283   2.883   4.386   4.634  0.4386 -1.6943  0.5942
  473THF     C8 7284   2.874   4.577   4.750  0.2150  0.2395 -0.4977
  473THF     C9 7285   2.811   4.543   4.886  0.7515  0.1385 -0.4340
  473THF    H10 7286   2.808   4.607   4.669 -0.9135 -0.2793  0.2060
  473THF    H11 7287   2.949   4.655   4.766 -1.6158  1.9830 -0.0486
  473THF    H12 7288   2.802   4.633   4.946  2.2673  1.9606 -2.7270
  473THF    H13 7289   2.712   4.499   4.874  1.6828 -2.1343 -0.1322
  474THF     O1 7290   4.739   3.603   3.648 -0.0926  0.0524  0.1300
  474THF     C2 7291   4.694   3.731   3.605  0.2454 -0.2813 -0.1866
  474THF     C3 7292   4.852   3.584   3.569  0.2887  0.3996  0.0873
  474THF     H4 7293   4.752   3.805   3.661  0.1158 -1.2842  1.3377
  474THF     H5 7294   4.590   3.749   3.633 -0.0714 -1.2031 -0.7060
  474THF     H6 7295   4.935   3.651   3.593  1.4075 -1.2905  1.1936
  474THF     H7 7296   4.878   3.479   3.577 -2.1242 -0.2895 -0.4024
  474THF     C8 7297   4.796   3.614   3.437  0.3920 -0.1055  0.2316
  474THF     C9 7298   4.706   3.735   3.454  0.4253  0.2090  0.0019
  474THF    H10 7299   4.744   3.521   3.417 -0.1634  0.3961 -0.7301
  474THF    H11 7300   4.865   3.627   3.354 -0.2857  1.6355 -0.1172
  474THF    H12 7301   4.756   3.823   3.414  1.4326 -0.7077 -0.8061
  474THF    H13 7302   4.614   3.725   3.395  1.5081  0.2013 -1.7721
  475THF     O1 7303   4.383   4.452   0.741 -0.1438 -0.0184  0.1664
  475THF     C2 7304   4.307   4.335   0.787  0.6016 -0.4400  1.0868
  475THF     C3 7305   4.517   4.411   0.716 -0.7958  0.3536  0.4873
  475THF     H4 7306   4.235   4.316   0.708  0.4676 -3.0847  1.7754
  475THF     H5 7307   4.252   4.353   0.879 -1.3899 -1.9699  0.2740
  475THF     H6 7308   4.512   4.366   0.617  0.7017 -2.0931  1.4268
  475THF     H7 7309   4.585   4.495   0.729 -2.5778  1.9024  0.1064
  475THF     C8 7310   4.537   4.309   0.823 -0.3157  0.1548 -0.4039
  475THF     C9 7311   4.410   4.230   0.810 -0.1914 -0.1311 -0.1755
  475THF    H10 7312   4.536   4.365   0.916 -0.4330 -1.1594  0.4103
  475THF    H11 7313   4.626   4.246   0.817 -0.5631 -0.4823  1.7138
  475THF    H12 7314   4.419   4.159   0.727  1.9533 -1.7676  1.3513
  475THF    H13 7315   4.392   4.160   0.892 -0.2497 -0.6775 -0.6415
  476THF     O1 7316   0.054   4.961   0.851  0.5798 -0.7790  0.2163
  476THF     C2 7317   0.108   4.962   0.722  0.0891  0.2873  0.5029
  476THF     C3 7318   0.141   5.019   0.943 -0.2984  0.8628 -0.6779
  476THF     H4 7319   0.095   5.062   0.681  0.8775 -0.0250 -0.5747
  476THF     H5 7320   0.065   4.887   0.656  1.2901 -1.4675  1.6162
  476THF     H6 7321   0.160   5.124   0.921 -0.1108  1.0193  0.1851
  476THF     H7 7322   0.112   4.997   1.046  1.6742 -0.1886 -0.3050
  476THF     C8 7323   0.267   4.941   0.894 -0.5808 -0.2750 -0.5430
  476THF     C9 7324   0.255   4.928   0.743 -0.1247 -0.5928 -0.2401
  476THF    H10 7325   0.280   4.843   0.938  4.2137  0.4594  0.1249
  476THF    H11 7326   0.357   4.997   0.919 -1.0120 -0.6903  2.2852
  476THF    H12 7327   0.312   5.001   0.686  2.1594 -2.6407 -0.7315
  476THF    H13 7328   0.292   4.833   0.704 -0.9106 -1.0644  0.1368
  477THF     O1 7329   1.572   3.661   5.342 -0.4565 -0.3747  0.3673
  477THF     C2 7330   1.571   3.590   5.215 -0.6374  0.6000  0.1390
  477THF     C3 7331   1.704   3.706   5.359 -0.6604 -0.4369  0.0614
  477THF     H4 7332   1.578   3.661   5.132  0.0408 -1.4769 -1.6759
  477THF     H5 7333   1.484   3.525   5.201  0.9815 -1.5774 -0.2548
  477THF     H6 7334   1.717   3.791   5.293 -0.4056  1.1961  2.0910
  477THF     H7 7335   1.734   3.726   5.462  1.6687 -2.2348 -0.1767
  477THF     C8 7336   1.787   3.587   5.323 -0.0294 -0.7137 -0.3498
  477THF     C9 7337   1.701   3.501   5.235  0.3394 -0.1347  0.3063
  477THF    H10 7338   1.802   3.531   5.416  0.0547  1.1217  0.8118
  477THF    H11 7339   1.885   3.615   5.283 -0.1254 -0.0074 -0.1069
  477THF    H12 7340   1.745   3.482   5.137  0.4560  0.6100  0.2079
  477THF    H13 7341   1.677   3.405   5.280  0.5801 -1.1024 -1.5154
  478THF     O1 7342   1.173   4.763   0.653 -0.0669  0.0077  0.3351
  478THF     C2 7343   1.196   4.840   0.766 -0.3264  0.2016 -0.6005
  478THF     C3 7344   1.132   4.849   0.550  0.2131 -0.1914  0.1379
  478THF     H4 7345   1.284   4.901   0.744  1.1532 -2.1997 -1.8474
  478THF     H5 7346   1.205   4.779   0.855 -1.8917 -0.4643 -0.8555
  478THF     H6 7347   1.221   4.889   0.502  0.4550 -1.5873 -0.6197
  478THF     H7 7348   1.079   4.789   0.476 -2.7153  3.1598 -0.7753
  478THF     C8 7349   1.037   4.949   0.624  0.3752  0.1710 -0.3134
  478THF     C9 7350   1.077   4.934   0.778 -0.1657  0.4100 -0.4544
  478THF    H10 7351   0.930   4.933   0.615  0.7330 -1.8277 -1.4874
  478THF    H11 7352   1.043   5.051   0.584 -0.2757 -0.3092 -1.6748
  478THF    H12 7353   1.105   5.031   0.819 -1.3513 -0.0042  1.4622
  478THF    H13 7354   1.003   4.888   0.844  0.7567 -0.0074  0.2971
  479THF     O1 7355   3.414   2.584   2.147  0.2474  0.4652 -0.2961
  479THF     C2 7356   3.299   2.665   2.181  0.4842  0.3505  0.9887
  479THF     C3 7357   3.411   2.471   2.242 -0.4969  0.1715 -0.3632
  479THF     H4 7358   3.209   2.634   2.127 -0.4146 -0.2375  2.7328
  479THF     H5 7359   3.319   2.768   2.155 -0.4226  0.4058  0.4694
  479THF     H6 7360   3.368   2.383   2.194 -0.5987 -0.1423  0.2985
  479THF     H7 7361   3.510   2.437   2.273  0.7352  1.2107 -2.8201
  479THF     C8 7362   3.339   2.512   2.367 -0.4736 -0.0795 -0.0180
  479THF     C9 7363   3.290   2.650   2.336 -0.1234  0.9206  0.2972
  479THF    H10 7364   3.392   2.506   2.462 -2.1606  0.1574  0.9694
  479THF    H11 7365   3.252   2.449   2.382 -1.2591  0.8121 -0.7158
  479THF    H12 7366   3.187   2.662   2.368 -0.0037  1.0894  0.6254
  479THF    H13 7367   3.362   2.718   2.381  2.1767 -0.9765 -0.3007
  480THF     O1 7368   1.281   1.961   4.300  0.3461  0.2703  0.1233
  480THF     C2 7369   1.264   1.984   4.432  0.5901 -0.5901  0.3274
  480THF     C3 7370   1.418   1.953   4.275 -0.0273  0.5783  0.1823
  480THF     H4 7371   1.161   1.967   4.462  0.5047  1.1658  1.1535
  480THF     H5 7372   1.292   2.087   4.456  0.3886 -0.9113  2.0343
  480THF     H6 7373   1.442   1.913   4.176  2.2688 -0.3383  1.0302
  480THF     H7 7374   1.467   2.050   4.286 -0.4710  0.8487 -0.2050
  480THF     C8 7375   1.460   1.858   4.387 -0.2866 -0.2927  0.5223
  480THF     C9 7376   1.359   1.884   4.496  0.4001 -0.4744  0.2285
  480THF    H10 7377   1.559   1.878   4.428  0.0936 -0.1510 -0.4430
  480THF    H11 7378   1.455   1.757   4.347  0.9560  0.5697 -2.0489
  480THF    H12 7379   1.316   1.789   4.530 -0.6576  0.4368  1.5238
  480THF    H13 7380   1.407   1.933   4.580 -1.0047 -1.1189  1.4655
  481THF     O1 7381   3.591   0.189   0.638 -0.6075  0.2250  0.0136
  481THF     C2 7382   3.503   0.132   0.727  0.1084  0.2207  0.0826
  481THF     C3 7383   3.696   0.261   0.703 -0.5320 -0.3818 -0.0763
  481THF     H4 7384   3.556   0.044   0.762  0.3763 -0.1482 -1.2204
  481THF     H5 7385   3.408   0.110   0.678 -1.3541  2.3331  1.7558
  481THF     H6 7386   3.799   0.227   0.698 -0.1331  0.6338  0.7157
  481THF     H7 7387   3.690   0.358   0.653 -0.6076 -0.2555  0.1758
  481THF     C8 7388   3.656   0.270   0.846  0.1087  0.6289 -0.9103
  481THF     C9 7389   3.509   0.227   0.844  0.0822 -0.0157 -0.0588
  481THF    H10 7390   3.656   0.371   0.887 -0.1108 -0.0368  0.8452
  481THF    H11 7391   3.702   0.199   0.915  1.0227  0.1978 -1.9476
  481THF    H12 7392   3.475   0.173   0.933 -2.0364  0.9021 -0.2401
  481THF    H13 7393   3.460   0.323   0.831  3.4913  1.5469 -2.7478
  482THF     O1 7394   3.881   3.709   2.074  0.1299  0.1737 -0.4360
  482THF     C2 7395   3.835   3.692   2.209  0.0904 -0.6162 -0.3789
  482THF     C3 7396   3.780   3.781   2.003  0.2703  0.5681 -0.4677
  482THF     H4 7397   3.925   3.664   2.264 -0.6665  0.1843  1.3308
  482THF     H5 7398   3.758   3.616   2.222 -1.7417  1.1801 -0.2267
  482THF     H6 7399   3.817   3.821   1.909 -0.1734  0.9789 -0.4721
  482THF     H7 7400   3.706   3.702   1.988  0.8535 -0.0023 -0.3983
  482THF     C8 7401   3.723   3.875   2.106 -0.6726  0.3149 -1.0882
  482THF     C9 7402   3.795   3.833   2.234 -0.2275  0.5380 -0.2512
  482THF    H10 7403   3.615   3.870   2.114 -0.5534 -0.4648  0.3947
  482THF    H11 7404   3.748   3.979   2.084  3.4587 -0.3234 -0.2344
  482THF    H12 7405   3.884   3.893   2.249  0.7246 -1.1507  1.2174
  482THF    H13 7406   3.740   3.828   2.327  0.1378 -2.6902 -0.0795
  483THF     O1 7407   0.667   0.853   2.275 -0.2207 -0.4938 -0.4631
  483THF     C2 7408   0.747   0.911   2.172  0.7319 -0.4478  0.3796
  483THF     C3 7409   0.705   0.722   2.303 -0.1100 -0.3471  0.2066
  483THF     H4 7410   0.757   1.018   2.191 -2.7976  0.2988 -1.0765
  483THF     H5 7411   0.701   0.899   2.073  1.0848 -1.5164  0.3291
  483THF     H6 7412   0.651   0.693   2.393  0.8851  0.1127  0.9757
  483THF     H7 7413   0.671   0.663   2.218 -0.3874  0.8648 -0.5492
  483THF     C8 7414   0.857   0.742   2.304  0.3754 -0.0570  0.0840
  483THF     C9 7415   0.882   0.846   2.200  0.0165 -0.0415  0.7233
  483THF    H10 7416   0.902   0.644   2.287  2.0107  0.8816 -1.2842
  483THF    H11 7417   0.881   0.773   2.405 -3.4095 -0.2056  1.1845
  483THF    H12 7418   0.958   0.918   2.228  1.6652 -1.1597 -0.6676
  483THF    H13 7419   0.920   0.806   2.106 -0.5140 -0.3725  0.6459
  484THF     O1 7420   4.010   3.022   0.454  0.2107 -0.5880 -0.0687
  484THF     C2 7421   3.898   3.058   0.372  0.0773  0.2052 -0.8436
  484THF     C3 7422   3.961   2.931   0.552  0.5144 -0.1270  0.0520
  484THF     H4 7423   3.943   3.104   0.285  3.3096  1.6025  1.3533
  484THF     H5 7424   3.824   3.123   0.419 -0.5941 -1.2709  0.2129
  484THF     H6 7425   4.035   2.860   0.587 -1.2586 -2.7085 -1.0778
  484THF     H7 7426   3.931   3.001   0.630  1.4338  0.5068 -0.1468
  484THF     C8 7427   3.851   2.850   0.488 -0.7151  0.1347  0.5286
  484THF     C9 7428   3.832   2.919   0.352 -0.0828  0.3890  0.7261
  484THF    H10 7429   3.763   2.852   0.551 -0.9080 -0.7524  0.3008
  484THF    H11 7430   3.884   2.746   0.482  1.6640  0.9095 -1.0551
  484THF    H12 7431   3.881   2.874   0.265 -0.7524  1.3927 -0.1900
  484THF    H13 7432   3.729   2.938   0.322  0.1944 -1.1793 -1.5115
  485THF     O1 7433   1.195   5.303   1.014 -0.6161  0.2320 -0.5550
  485THF     C2 7434   1.226   5.348   0.891 -0.2138 -0.3568  0.1572
  485THF     C3 7435   1.289   5.203   1.057  0.8008  0.8520  0.0783
  485THF     H4 7436   1.214   5.455   0.875  0.5502 -0.0997  1.1681
  485THF     H5 7437   1.172   5.287   0.818  1.3001 -1.0669 -0.4188
  485THF     H6 7438   1.285   5.184   1.164 -1.0221  0.9871  0.0704
  485THF     H7 7439   1.257   5.110   1.010  1.4176  0.8659 -0.3842
  485THF     C8 7440   1.422   5.265   1.008  0.3208  0.2295  0.4861
  485THF     C9 7441   1.372   5.327   0.878 -0.5681 -0.0932 -0.2826
  485THF    H10 7442   1.504   5.196   0.987  0.8625  0.9682  0.1321
  485THF    H11 7443   1.454   5.346   1.074  2.4549  1.4585 -1.8572
  485THF    H12 7444   1.424   5.421   0.857  2.4318 -1.5479  0.1798
  485THF    H13 7445   1.400   5.264   0.794  3.6741 -0.4662  1.1751
  486THF     O1 7446   0.494   5.406   2.570  0.2208  0.3593 -0.5778
  486THF     C2 7447   0.454   5.357   2.698 -0.7540  0.2036 -0.1456
  486THF     C3 7448   0.383   5.447   2.491  0.2468  0.4675 -0.6236
  486THF     H4 7449   0.513   5.407   2.775 -1.4438  0.2775  0.3447
  486THF     H5 7450   0.473   5.250   2.697  0.1535  0.3278 -2.3765
  486THF     H6 7451   0.370   5.554   2.476 -0.7453  0.1647 -2.2148
  486THF     H7 7452   0.385   5.410   2.389  0.0035 -0.0452 -0.4452
  486THF     C8 7453   0.263   5.380   2.560  0.7545 -0.1157 -0.7222
  486THF     C9 7454   0.310   5.389   2.698  0.3365 -0.0395  0.0451
  486THF    H10 7455   0.258   5.275   2.530 -0.4314 -0.6405  1.1124
  486THF    H11 7456   0.164   5.424   2.546  1.2736  0.9131 -1.2857
  486THF    H12 7457   0.294   5.492   2.730  2.0658  0.1658  0.3486
  486THF    H13 7458   0.262   5.319   2.766  2.2006 -0.1267  1.3674
  487THF     O1 7459   4.952   4.636   4.168  0.5548  0.3172  0.3370
  487THF     C2 7460   5.033   4.673   4.066  0.1502  0.3095  0.4279
  487THF     C3 7461   4.916   4.503   4.146  0.6149 -0.0342  0.7833
  487THF     H4 7462   5.130   4.625   4.076 -0.4774 -0.5738  3.1023
  487THF     H5 7463   5.060   4.777   4.080  0.3866  0.3696 -0.4572
  487THF     H6 7464   4.991   4.431   4.180 -0.1913 -1.5509 -0.5103
  487THF     H7 7465   4.824   4.468   4.193  1.9814 -1.5032  2.5174
  487THF     C8 7466   4.913   4.488   3.996  0.2848 -0.9216 -0.3791
  487THF     C9 7467   4.949   4.627   3.947  0.0618 -0.1499 -0.1095
  487THF    H10 7468   4.819   4.455   3.953 -1.0230  0.4320  1.2866
  487THF    H11 7469   4.987   4.418   3.957  1.2676  0.5717 -1.3149
  487THF    H12 7470   5.001   4.642   3.852 -0.2283 -0.2643 -0.2861
  487THF    H13 7471   4.860   4.689   3.943  0.2992  0.2734  0.9083
  488THF     O1 7472   3.207   1.775   2.194 -0.4061 -0.4638  0.3686
  488THF     C2 7473   3.302   1.684   2.149 -0.5067  0.4494 -0.1847
  488THF     C3 7474   3.251   1.906   2.162  0.3386 -0.4233  0.5549
  488THF     H4 7475   3.251   1.600   2.102 -2.8271  1.7910 -0.2317
  488THF     H5 7476   3.362   1.645   2.231 -0.7091  0.4448 -0.0375
  488THF     H6 7477   3.201   1.937   2.070  0.2645  0.6845  0.9505
  488THF     H7 7478   3.215   1.972   2.241 -2.9556 -1.1324 -0.1948
  488THF     C8 7479   3.395   1.896   2.127  0.5343 -0.2535 -0.2378
  488THF     C9 7480   3.393   1.763   2.051 -0.5375 -1.2090  0.3024
  488THF    H10 7481   3.455   1.886   2.217  0.6536 -3.0117 -0.5137
  488THF    H11 7482   3.437   1.979   2.071  0.5860  1.0256  1.6181
  488THF    H12 7483   3.356   1.776   1.949  0.0434  0.0148  0.2279
  488THF    H13 7484   3.492   1.717   2.052  1.3931  2.4690 -0.8407
  489THF     O1 7485   3.922   4.860   4.674  0.0251 -0.4366 -0.0044
  489THF     C2 7486   4.003   4.867   4.561  0.7384  0.0276 -0.2972
  489THF     C3 7487   3.789   4.838   4.627 -0.2794 -0.2246  0.2284
  489THF     H4 7488   4.107   4.848   4.584  0.6237 -0.0413  0.1741
  489THF     H5 7489   3.990   4.961   4.507 -2.9490 -0.3218 -0.3061
  489THF     H6 7490   3.728   4.786   4.701 -0.5791  0.2070  0.2902
  489THF     H7 7491   3.745   4.936   4.608 -2.0708 -1.3390 -1.9587
  489THF     C8 7492   3.803   4.763   4.494 -0.1001 -0.0824  0.4534
  489THF     C9 7493   3.959   4.745   4.486 -0.1928  0.4672 -0.1963
  489THF    H10 7494   3.751   4.815   4.414  2.1945 -0.3353 -1.2744
  489THF    H11 7495   3.758   4.664   4.505 -1.6679  0.8297  3.1612
  489THF    H12 7496   3.985   4.662   4.551  1.1981  0.7878 -0.3234
  489THF    H13 7497   3.997   4.732   4.385 -1.5951  0.7153 -0.7924
  490THF     O1 7498   1.773   5.052   4.068 -0.1879  0.6762  0.5240
  490THF     C2 7499   1.689   5.155   4.019 -0.5551  0.1771  0.8301
  490THF     C3 7500   1.894   5.066   3.996  0.0156 -0.4240 -0.0877
  490THF     H4 7501   1.594   5.168   4.070  0.2235  0.8526  2.1545
  490THF     H5 7502   1.657   5.131   3.918 -2.3025  0.5837  1.2660
  490THF     H6 7503   1.975   5.009   4.042 -0.7034 -0.1539  1.6155
  490THF     H7 7504   1.885   5.058   3.888  3.3675  2.7816 -0.7694
  490THF     C8 7505   1.926   5.205   4.021 -0.0409 -0.1842  0.0151
  490THF     C9 7506   1.784   5.269   4.027  0.2922  0.2456 -0.0884
  490THF    H10 7507   1.990   5.254   3.948 -1.3464  0.5201 -0.6962
  490THF    H11 7508   1.974   5.217   4.118 -0.2097  0.4497  0.0228
  490THF    H12 7509   1.773   5.301   4.131 -0.2955  0.0367 -0.0791
  490THF    H13 7510   1.775   5.337   3.943 -0.6416 -1.5369 -1.5156
  491THF     O1 7511   4.891   4.443   2.823  0.2118 -0.4339  0.3336
  491THF     C2 7512   4.811   4.359   2.746 -0.1799 -0.1280  0.2247
  491THF     C3 7513   4.873   4.422   2.966  0.1528 -0.5292 -0.3905
  491THF     H4 7514   4.860   4.266   2.716 -0.5404 -0.2279 -0.0599
  491THF     H5 7515   4.786   4.418   2.657  1.5410 -1.5426 -1.2989
  491THF     H6 7516   4.945   4.351   3.007  0.5802  0.6873  1.0562
  491THF     H7 7517   4.865   4.508   3.033 -2.1170 -0.9258 -0.0502
  491THF     C8 7518   4.746   4.337   2.966 -0.4378 -0.4605 -0.5337
  491THF     C9 7519   4.689   4.340   2.829 -0.1867 -0.2462  0.0967
  491THF    H10 7520   4.668   4.361   3.038  1.1960 -2.3236  2.0344
  491THF    H11 7521   4.771   4.237   2.999  2.1794  0.1124 -0.4987
  491THF    H12 7522   4.644   4.243   2.808 -0.2463  0.0613 -1.3562
  491THF    H13 7523   4.612   4.412   2.801 -1.6880 -2.3009 -1.4199
  492THF     O1 7524   1.041   2.435   1.614 -0.4855 -0.7899  0.2163
  492THF     C2 7525   1.045   2.567   1.660 -0.0043 -0.3059 -0.3534
  492THF     C3 7526   1.039   2.357   1.734  0.2691  0.6693  0.4835
  492THF     H4 7527   0.944   2.605   1.666  0.7179  1.6171  0.4620
  492THF     H5 7528   1.087   2.635   1.585 -1.8378  0.4712 -0.7158
  492THF     H6 7529   0.937   2.365   1.773 -0.0192  1.1013 -0.3364
  492THF     H7 7530   1.071   2.256   1.709 -2.2661  0.1677 -1.1725
  492THF     C8 7531   1.130   2.423   1.832 -0.8090 -0.7933  0.0036
  492THF     C9 7532   1.108   2.569   1.801 -0.9793  0.2903 -0.1133
  492THF    H10 7533   1.233   2.396   1.810 -0.1092 -0.1240  2.2149
  492THF    H11 7534   1.106   2.398   1.935  1.6338 -2.9394  0.1385
  492THF    H12 7535   1.036   2.611   1.871  0.6012  2.0617  0.5278
  492THF    H13 7536   1.192   2.637   1.816 -0.5467 -0.4831  1.1020
  493THF     O1 7537   3.014   0.893   1.171 -0.3787  0.4910  0.1963
  493THF     C2 7538   2.892   0.883   1.096 -0.3206  0.0212  0.0165
  493THF     C3 7539   3.112   0.813   1.102 -0.0790 -0.4518 -0.2343
  493THF     H4 7540   2.902   0.949   1.009  2.9281 -0.6966 -0.2912
  493THF     H5 7541   2.809   0.909   1.160 -0.3615 -0.4875  0.1714
  493THF     H6 7542   3.165   0.867   1.023 -1.7657  0.1858 -0.9912
  493THF     H7 7543   3.187   0.772   1.169 -0.0070 -0.3881 -0.2747
  493THF     C8 7544   3.032   0.704   1.026  0.2244 -0.5138  0.3636
  493THF     C9 7545   2.881   0.736   1.053  0.2744 -0.1110  0.4152
  493THF    H10 7546   3.053   0.600   1.052  1.9404 -0.4315 -0.5297
  493THF    H11 7547   3.056   0.713   0.920 -1.3982  1.6284  0.1037
  493THF    H12 7548   2.832   0.725   0.956 -0.7430 -0.1071  0.9217
  493THF    H13 7549   2.841   0.663   1.123 -0.3300  0.5522  0.7776
  494THF     O1 7550   2.943   1.122   1.672 -0.1579 -0.5475  0.5618
  494THF     C2 7551   2.905   1.009   1.587 -0.2021  0.3841 -0.2424
  494THF     C3 7552   3.080   1.136   1.645 -0.5658  0.4738  0.2379
  494THF     H4 7553   2.805   1.021   1.546 -0.6121 -3.3916 -0.7887
  494THF     H5 7554   2.916   0.923   1.653  2.8471  1.4031  0.7405
  494THF     H6 7555   3.125   1.222   1.695 -1.3614 -0.5220  2.8346
  494THF     H7 7556   3.125   1.053   1.700  0.0666  0.8912  0.3684
  494THF     C8 7557   3.087   1.117   1.495  0.0929 -0.0297 -0.2249
  494THF     C9 7558   2.999   0.996   1.480  0.1997  0.8523 -0.3154
  494THF    H10 7559   3.191   1.102   1.467 -0.0594 -0.1439 -0.7432
  494THF    H11 7560   3.047   1.204   1.442 -0.7029 -0.9138 -1.1174
  494THF    H12 7561   2.938   1.014   1.391 -1.2172  0.7454  0.5897
  494THF    H13 7562   3.051   0.901   1.470 -0.7352  0.4410 -1.5998
  495THF     O1 7563   0.101   1.703   0.044 -0.4525  0.4819  0.2241
  495THF     C2 7564   0.109   1.567   0.008 -0.1685 -0.4913 -1.1823
  495THF     C3 7565   0.226   1.731   0.111 -0.5894 -0.0624 -0.1896
  495THF     H4 7566   0.170   1.566  -0.083  0.2453  0.7582 -0.9523
  495THF     H5 7567   0.014   1.528  -0.026 -1.1216  0.8082 -0.1299
  495THF     H6 7568   0.293   1.764   0.032  0.9848  0.2649  1.2192
  495THF     H7 7569   0.214   1.818   0.176  0.2938  0.3578 -0.5750
  495THF     C8 7570   0.265   1.606   0.182  0.5095 -0.5718 -0.3228
  495THF     C9 7571   0.192   1.496   0.114 -0.1667  0.4389 -0.2099
  495THF    H10 7572   0.235   1.610   0.287  1.4896 -2.3074  0.0716
  495THF    H11 7573   0.371   1.583   0.181  0.2769 -1.7442 -0.4792
  495THF    H12 7574   0.252   1.413   0.078 -2.1444 -1.3170  0.3026
  495THF    H13 7575   0.131   1.449   0.192 -0.0889  0.8294  0.0904
  496THF     O1 7576   4.330   2.193   3.074  0.4066  0.1855  0.1494
  496THF     C2 7577   4.280   2.233   2.951  0.4098  0.5043  0.0220
  496THF     C3 7578   4.449   2.116   3.058  0.2474 -0.2959  1.0286
  496THF     H4 7579   4.206   2.312   2.940 -0.1123 -0.0785 -0.8319
  496THF     H5 7580   4.227   2.142   2.920  1.6217 -0.0956 -0.3546
  496THF     H6 7581   4.508   2.111   3.150  0.9374 -2.5399  0.5224
  496THF     H7 7582   4.420   2.014   3.035 -0.1095  0.4785 -2.4139
  496THF     C8 7583   4.521   2.176   2.937 -0.0194 -0.1752 -0.2319
  496THF     C9 7584   4.410   2.263   2.875  0.0532  0.0355 -0.3137
  496THF    H10 7585   4.565   2.104   2.868 -0.6913  0.5893 -1.4871
  496THF    H11 7586   4.602   2.236   2.979  1.1513 -0.8443 -1.4478
  496THF    H12 7587   4.432   2.369   2.888 -0.9035  0.2353 -0.2439
  496THF    H13 7588   4.393   2.238   2.770  1.9486 -2.6445 -0.0599
  497THF     O1 7589   2.822   4.869   0.362 -0.0476  0.2238  0.6599
  497THF     C2 7590   2.780   4.939   0.478  0.0945  0.1380  0.1945
  497THF     C3 7591   2.708   4.842   0.275  0.0508  0.3002  0.2561
  497THF     H4 7592   2.751   5.042   0.459  2.7378  0.8901 -0.0560
  497THF     H5 7593   2.862   4.937   0.550  0.6862  1.0720 -0.4298
  497THF     H6 7594   2.669   4.930   0.224 -4.2891 -1.6825 -0.2481
  497THF     H7 7595   2.733   4.765   0.202 -1.6196 -1.0695  1.0725
  497THF     C8 7596   2.594   4.803   0.375 -0.0669  0.3716  0.3868
  497THF     C9 7597   2.646   4.863   0.514  0.1307  0.6658 -0.2311
  497THF    H10 7598   2.561   4.699   0.374 -2.2716  1.0114 -0.9082
  497THF    H11 7599   2.499   4.850   0.349 -0.6181  0.4629  2.4296
  497THF    H12 7600   2.572   4.935   0.550 -0.1776  0.8251 -1.1439
  497THF    H13 7601   2.647   4.787   0.592 -2.4816  0.1949 -0.5768
  498THF     O1 7602   1.510   0.944   3.747  0.1447 -0.5384 -0.0995
  498THF     C2 7603   1.619   1.032   3.755 -0.7072  0.1341  0.1525
  498THF     C3 7604   1.542   0.815   3.803 -0.1103  0.0490  0.0851
  498THF     H4 7605   1.609   1.096   3.843 -1.0283  1.2348 -0.6543
  498THF     H5 7606   1.618   1.104   3.673 -0.9118 -2.5127 -2.3213
  498THF     H6 7607   1.539   0.825   3.911  0.3045  0.5457  0.0528
  498THF     H7 7608   1.489   0.729   3.761 -0.0956  1.2286 -2.5496
  498THF     C8 7609   1.692   0.797   3.765  0.1012 -0.7652  0.0424
  498THF     C9 7610   1.746   0.947   3.774  0.7121  0.2693  0.3936
  498THF    H10 7611   1.712   0.752   3.668  3.1152  1.5756 -0.5640
  498THF    H11 7612   1.745   0.733   3.835  0.8321 -0.8168 -0.5524
  498THF    H12 7613   1.777   0.952   3.878  1.3848  2.2911  0.1538
  498THF    H13 7614   1.824   0.974   3.702  0.4919  2.0308  0.7584
  499THF     O1 7615   2.753   3.427   4.962 -0.2435 -0.1133  0.3247
  499THF     C2 7616   2.651   3.406   5.050  0.1487  0.2681 -0.5800
  499THF     C3 7617   2.876   3.384   5.025 -0.2080 -0.1430  0.2996
  499THF     H4 7618   2.644   3.297   5.054 -0.6007  0.3097 -0.5380
  499THF     H5 7619   2.565   3.464   5.016  0.6266  2.2196  1.3203
  499THF     H6 7620   2.880   3.276   5.027  1.5366 -0.2272 -2.4880
  499THF     H7 7621   2.965   3.402   4.964 -1.9756  2.6857 -1.6972
  499THF     C8 7622   2.864   3.455   5.154 -0.3945 -0.4958 -0.2982
  499THF     C9 7623   2.713   3.457   5.180  0.9983  0.0009  0.4391
  499THF    H10 7624   2.904   3.557   5.152 -3.2403  1.0070  3.9812
  499THF    H11 7625   2.918   3.409   5.236  1.8251 -0.2250 -1.5249
  499THF    H12 7626   2.666   3.393   5.255  0.6018  0.9374  1.0052
  499THF    H13 7627   2.672   3.555   5.204 -0.3458  0.7386 -3.9747
  500THF     O1 7628   4.586   4.943   0.537 -0.1347 -0.1550 -0.3902
  500THF     C2 7629   4.612   5.058   0.619  0.3024 -0.3775  0.1939
  500THF     C3 7630   4.512   4.860   0.623 -0.3068 -0.4505  0.3168
  500THF     H4 7631   4.527   5.125   0.605  0.9176  0.8841  2.1819
  500THF     H5 7632   4.705   5.105   0.588 -0.6132  0.2201 -1.8544
  500THF     H6 7633   4.406   4.880   0.609 -0.6970 -2.3495  0.3231
  500THF     H7 7634   4.531   4.759   0.587  1.6958 -0.6627  1.8255
  500THF     C8 7635   4.543   4.887   0.766  0.4589 -0.0269  0.5878
  500THF     C9 7636   4.623   5.014   0.762  0.2238  0.2465 -0.7344
  500THF    H10 7637   4.613   4.808   0.794  1.6718 -0.2657 -2.6332
  500THF    H11 7638   4.458   4.883   0.833  0.5773 -0.3390  0.7227
  500THF    H12 7639   4.592   5.087   0.836 -2.4660 -1.2559 -0.2647
  500THF    H13 7640   4.727   4.981   0.775  1.0026  2.1167 -1.8248
  501THF     O1 7641   4.353   0.640   4.243  0.0037  0.5945  0.2418
  501THF     C2 7642   4.382   0.593   4.107 -0.0725  0.3570  0.0457
  501THF     C3 7643   4.473   0.619   4.320  0.3522 -0.5492  0.2281
  501THF     H4 7644   4.310   0.620   4.030  1.0558  0.7383 -0.9047
  501THF     H5 7645   4.374   0.484   4.117 -2.4620  0.2404 -2.1471
  501THF     H6 7646   4.470   0.666   4.418  0.8491 -1.5106  0.7208
  501THF     H7 7647   4.480   0.511   4.333 -2.9955 -0.8078  0.5916
  501THF     C8 7648   4.586   0.666   4.217 -0.2064  0.8389 -1.1395
  501THF     C9 7649   4.518   0.655   4.086 -0.8705 -0.4315 -0.1172
  501THF    H10 7650   4.680   0.613   4.232  0.5077  2.3413 -0.1382
  501THF    H11 7651   4.608   0.770   4.241  0.9121  0.4573 -0.4327
  501THF    H12 7652   4.507   0.752   4.038 -1.8083 -0.2910  0.3375
  501THF    H13 7653   4.585   0.599   4.021 -0.1634 -2.1191  1.9195
  502THF     O1 7654   1.598   1.317   1.936 -0.0455 -0.4915  0.4409
  502THF     C2 7655   1.703   1.406   1.914  0.4286 -0.1002 -0.5250
  502THF     C3 7656   1.495   1.383   2.010  0.5405 -0.5424 -0.1824
  502THF     H4 7657   1.772   1.384   1.833  1.6104 -0.0351  0.4312
  502THF     H5 7658   1.756   1.410   2.009 -0.5850  1.8595  0.0270
  502THF     H6 7659   1.404   1.324   2.013  0.8074 -0.9806 -0.7033
  502THF     H7 7660   1.533   1.397   2.111 -0.3326  0.6473  0.0058
  502THF     C8 7661   1.485   1.521   1.937 -0.0138 -0.2202  0.1980
  502THF     C9 7662   1.625   1.537   1.878 -0.3693 -0.3565  0.1311
  502THF    H10 7663   1.450   1.606   1.995 -2.2911 -1.3441  0.6059
  502THF    H11 7664   1.417   1.523   1.853 -0.6107 -1.8527  0.5981
  502THF    H12 7665   1.631   1.531   1.769  1.6864 -1.5140  0.2583
  502THF    H13 7666   1.676   1.626   1.917 -0.1032 -0.7618  0.7141
  503THF     O1 7667   1.397   0.498   4.501 -0.3980 -0.3695 -0.1664
  503THF     C2 7668   1.289   0.584   4.467  0.1294  0.0029 -0.2709
  503THF     C3 7669   1.443   0.536   4.630  0.4224 -0.0021 -0.9276
  503THF     H4 7670   1.201   0.571   4.530  0.5995  3.8409  1.4818
  503THF     H5 7671   1.259   0.592   4.363 -0.2978  0.8826 -0.0966
  503THF     H6 7672   1.369   0.516   4.708 -0.0400  1.0728 -1.0672
  503THF     H7 7673   1.534   0.482   4.656  1.4252  1.7275 -0.6741
  503THF     C8 7674   1.470   0.681   4.609  0.8610  0.2071 -0.8820
  503THF     C9 7675   1.346   0.716   4.520 -0.8816 -0.1812 -0.2448
  503THF    H10 7676   1.569   0.684   4.565  1.4146 -0.2780  0.2756
  503THF    H11 7677   1.466   0.734   4.704 -0.7970 -0.3311 -0.6136
  503THF    H12 7678   1.275   0.769   4.584 -0.0820 -0.5340  0.9605
  503THF    H13 7679   1.371   0.781   4.436 -0.4473 -0.2492 -0.1657
  504THF     O1 7680   1.005   3.538   2.137  0.3684 -0.4709 -0.3085
  504THF     C2 7681   0.912   3.423   2.146  0.2447 -0.6329 -0.1551
  504THF     C3 7682   1.135   3.488   2.130 -0.0251 -0.1933  0.4236
  504THF     H4 7683   0.847   3.411   2.059  0.3712 -0.1381 -0.3218
  504THF     H5 7684   0.848   3.437   2.233  1.0784 -0.8434  0.4999
  504THF     H6 7685   1.179   3.546   2.049 -1.3991  0.6343  0.2282
  504THF     H7 7686   1.169   3.495   2.233 -0.2770 -1.8279  0.6356
  504THF     C8 7687   1.129   3.337   2.090  0.4000  0.3343  0.1619
  504THF     C9 7688   0.995   3.290   2.157 -0.3242 -0.6193  0.1933
  504THF    H10 7689   1.213   3.277   2.126 -1.3193 -1.9812  0.5627
  504THF    H11 7690   1.128   3.305   1.986 -1.2490 -0.1020  0.2859
  504THF    H12 7691   0.943   3.208   2.108 -0.3317 -1.5922  1.7543
  504THF    H13 7692   1.005   3.247   2.257  0.5896 -1.4751 -0.2540
  505THF     O1 7693   2.289   4.767   0.992  0.6413 -0.0047  0.3223
  505THF     C2 7694   2.317   4.846   1.113 -0.3435 -0.0073  0.0885
  505THF     C3 7695   2.295   4.628   1.029 -0.0911  0.3193 -1.0105
  505THF     H4 7696   2.222   4.857   1.165 -0.5402 -1.0540 -0.0246
  505THF     H5 7697   2.374   4.938   1.098 -1.1937  0.2571 -1.8688
  505THF     H6 7698   2.202   4.594   1.076 -0.5542  2.2445 -0.4174
  505THF     H7 7699   2.315   4.569   0.940 -1.1147  1.8056 -2.2755
  505THF     C8 7700   2.406   4.626   1.132 -0.0179  0.4638 -0.3165
  505THF     C9 7701   2.398   4.764   1.204 -0.2556  0.5677 -0.2960
  505THF    H10 7702   2.502   4.626   1.079  0.4517 -1.4328  0.4691
  505THF    H11 7703   2.407   4.538   1.195  1.5474 -1.8293 -3.2843
  505THF    H12 7704   2.347   4.731   1.294 -1.5491 -1.0757 -1.5762
  505THF    H13 7705   2.499   4.797   1.227  0.6618 -2.6836  0.9248
  506THF     O1 7706   1.436   3.411   2.621 -0.4896 -0.7335 -0.0694
  506THF     C2 7707   1.329   3.318   2.592 -0.7414  0.0485  0.3249
  506THF     C3 7708   1.425   3.528   2.540  0.9998 -0.3371  0.0964
  506THF     H4 7709   1.235   3.357   2.631 -0.9557  0.6726 -0.7739
  506THF     H5 7710   1.358   3.220   2.630  0.9495  0.2748 -0.2996
  506THF     H6 7711   1.370   3.605   2.595  0.1257  0.2829 -1.5920
  506THF     H7 7712   1.518   3.569   2.502  0.2148  1.0169 -0.4348
  506THF     C8 7713   1.355   3.477   2.413  0.6925 -0.0799 -0.5788
  506THF     C9 7714   1.320   3.331   2.441  0.0600 -0.1336  0.6703
  506THF    H10 7715   1.411   3.477   2.320 -0.4303  0.5911 -1.2795
  506THF    H11 7716   1.260   3.531   2.409 -0.1681 -1.6337 -2.0775
  506THF    H12 7717   1.228   3.294   2.397 -0.0150  1.5633 -0.6921
  506THF    H13 7718   1.400   3.279   2.389 -1.4421  0.0249 -1.9871
  507THF     O1 7719   4.531   2.605   1.135  0.0419  0.1182  0.0430
  507THF     C2 7720   4.658   2.591   1.076  0.2795  0.3199 -0.0342
  507THF     C3 7721   4.460   2.708   1.069  0.8987 -0.7538  1.0728
  507THF     H4 7722   4.710   2.501   1.109 -2.1328 -0.7114  1.1665
  507THF     H5 7723   4.710   2.680   1.113 -0.7710  1.5152 -1.3322
  507THF     H6 7724   4.357   2.705   1.105  1.3951 -0.7872  2.5448
  507THF     H7 7725   4.496   2.807   1.097  1.3985 -0.5495 -0.2468
  507THF     C8 7726   4.498   2.674   0.926  0.0925 -0.2119 -0.0962
  507THF     C9 7727   4.633   2.611   0.928  0.3378  0.3482  0.2218
  507THF    H10 7728   4.485   2.765   0.867 -2.1898 -0.9505 -0.8316
  507THF    H11 7729   4.427   2.599   0.892 -1.0449  1.3632 -1.3898
  507THF    H12 7730   4.637   2.519   0.870 -1.2862  0.9235 -0.8502
  507THF    H13 7731   4.708   2.685   0.900 -0.3245  1.2491  0.7683
  508THF     O1 7732   1.922   4.484   0.755 -0.4859 -0.2317  0.2840
  508THF     C2 7733   2.023   4.537   0.675 -0.0999 -0.8665  0.0059
  508THF     C3 7734   1.806   4.462   0.662 -0.0652  0.0617 -0.5406
  508THF     H4 7735   2.065   4.460   0.609 -1.0237 -0.2326 -1.3876
  508THF     H5 7736   2.104   4.577   0.735  2.0044 -1.3190 -2.3457
  508THF     H6 7737   1.797   4.359   0.629 -0.9217  0.8881 -3.1426
  508THF     H7 7738   1.711   4.486   0.711 -0.1358 -1.3172  0.0377
  508THF     C8 7739   1.833   4.547   0.541  0.5229 -0.4389 -0.1593
  508THF     C9 7740   1.952   4.630   0.585 -0.4124  0.2004 -0.3006
  508THF    H10 7741   1.741   4.602   0.517  1.2393  0.1502 -1.6952
  508THF    H11 7742   1.868   4.484   0.459  1.3920  2.8107 -2.4962
  508THF    H12 7743   2.017   4.657   0.501  1.8476  1.2272  1.6579
  508THF    H13 7744   1.924   4.717   0.643  1.3069  0.8913 -0.4439
  509THF     O1 7745   1.086   3.964   1.047 -0.0026 -0.1974 -0.0335
  509THF     C2 7746   1.113   3.825   1.044 -0.8306  0.1925 -0.1351
  509THF     C3 7747   1.058   3.997   1.179  0.0271 -0.6138 -0.1256
  509THF     H4 7748   1.220   3.812   1.036 -0.9520  0.3762 -3.1173
  509THF     H5 7749   1.072   3.788   0.950 -0.8618 -2.4749  0.8536
  509THF     H6 7750   1.128   4.077   1.200  0.4788 -0.7948 -0.9068
  509THF     H7 7751   0.957   4.037   1.173  0.5965  1.2894  1.8762
  509THF     C8 7752   1.081   3.871   1.261  0.2685  0.9851  0.1211
  509THF     C9 7753   1.039   3.770   1.167 -0.2217 -0.2904  0.0505
  509THF    H10 7754   1.023   3.868   1.354 -0.5284 -1.5391 -0.3872
  509THF    H11 7755   1.185   3.859   1.289  0.1111  1.6724  1.0661
  509THF    H12 7756   1.071   3.672   1.202 -2.1705 -0.7722  0.6673
  509THF    H13 7757   0.931   3.774   1.153 -0.2028 -0.4140 -0.1222
  510THF     O1 7758   2.989   0.348   2.804 -0.2350  0.1993  0.3058
  510THF     C2 7759   2.848   0.351   2.786  0.1479  0.1600 -0.2406
  510THF     C3 7760   3.041   0.268   2.700 -1.3344  0.7958 -0.8006
  510THF     H4 7761   2.828   0.431   2.714  0.3406  0.3818 -0.0504
  510THF     H5 7762   2.802   0.364   2.885  0.0878 -1.8356  0.0261
  510THF     H6 7763   3.094   0.329   2.627 -0.5282  0.7802 -0.2407
  510THF     H7 7764   3.120   0.209   2.745 -1.3797  2.0991  1.1223
  510THF     C8 7765   2.933   0.191   2.634  0.9639  0.0858 -0.3640
  510THF     C9 7766   2.808   0.217   2.722 -0.6805 -0.5584 -0.4122
  510THF    H10 7767   2.954   0.084   2.621  1.2556 -0.3663  2.9870
  510THF    H11 7768   2.914   0.227   2.533  1.0898 -0.1970 -0.4925
  510THF    H12 7769   2.722   0.223   2.655  0.7731  0.3217 -2.3064
  510THF    H13 7770   2.787   0.141   2.797 -0.2054 -1.2031 -0.9234
  511THF     O1 7771   5.212   2.282   2.827 -0.4658  0.1268 -0.2889
  511THF     C2 7772   5.153   2.415   2.818  0.0665 -0.3640 -0.3532
  511THF     C3 7773   5.342   2.299   2.886  0.2956  0.2569 -0.1946
  511THF     H4 7774   5.052   2.414   2.859 -0.6906  1.8479 -1.9857
  511THF     H5 7775   5.151   2.432   2.710 -0.5549 -1.3342 -0.5162
  511THF     H6 7776   5.328   2.290   2.993 -0.1309 -2.3679 -0.4131
  511THF     H7 7777   5.411   2.218   2.862  0.9106  0.4261  0.9370
  511THF     C8 7778   5.389   2.442   2.854 -0.4177  0.3516 -0.0756
  511THF     C9 7779   5.254   2.508   2.877  0.1127  0.1934 -0.0826
  511THF    H10 7780   5.424   2.457   2.751 -0.1819  2.6611  0.2761
  511THF    H11 7781   5.463   2.486   2.921 -2.0203  0.7655  1.5048
  511THF    H12 7782   5.246   2.511   2.986 -0.9078  2.7702 -0.1672
  511THF    H13 7783   5.248   2.606   2.830  1.9075  0.7561  0.7836
  512THF     O1 7784   3.108   5.001   3.851 -0.3333  0.0974  0.1167
  512THF     C2 7785   3.180   5.058   3.958 -0.0620 -0.1014 -0.0949
  512THF     C3 7786   3.202   4.961   3.751 -0.7609  0.2687 -0.2167
  512THF     H4 7787   3.230   4.985   4.022 -1.4849 -0.3416  0.7722
  512THF     H5 7788   3.112   5.109   4.026 -0.5784  0.2209 -0.8396
  512THF     H6 7789   3.249   4.864   3.764 -4.2187 -1.5975 -0.5295
  512THF     H7 7790   3.147   4.947   3.658  0.8751 -0.2583 -1.1504
  512THF     C8 7791   3.293   5.079   3.748  0.0276 -0.1767 -0.7804
  512THF     C9 7792   3.279   5.146   3.883  0.1304  0.8486 -0.3734
  512THF    H10 7793   3.260   5.155   3.678 -0.2124 -0.9942 -1.5719
  512THF    H11 7794   3.399   5.063   3.729 -0.0581 -0.2598 -1.1968
  512THF    H12 7795   3.371   5.151   3.941  0.2299 -1.9419 -0.1231
  512THF    H13 7796   3.250   5.250   3.872  2.2805  1.4220 -0.9746
  513THF     O1 7797   4.300   1.000   0.645 -0.4893 -0.0163  0.1830
  513THF     C2 7798   4.224   1.076   0.555 -0.1777  0.6389  0.7744
  513THF     C3 7799   4.428   1.056   0.658  0.2090 -0.1396  0.2042
  513THF     H4 7800   4.119   1.060   0.581  0.1348  0.2182  1.8268
  513THF     H5 7801   4.235   1.036   0.454  0.5197  2.2493  0.1947
  513THF     H6 7802   4.479   1.021   0.748  0.0816  0.2097  0.4132
  513THF     H7 7803   4.494   1.035   0.574  0.1446  0.8146 -0.0974
  513THF     C8 7804   4.377   1.202   0.678  0.0088  0.5022 -0.1596
  513THF     C9 7805   4.264   1.222   0.578 -0.0550  0.2370 -0.1157
  513THF    H10 7806   4.464   1.266   0.661 -0.2518  0.9484  0.1851
  513THF    H11 7807   4.359   1.221   0.784  1.3424 -1.0254  0.4022
  513THF    H12 7808   4.181   1.284   0.613 -0.3873 -0.0260 -0.4347
  513THF    H13 7809   4.301   1.264   0.485 -1.9753  0.4906 -0.8273
  514THF     O1 7810   1.936   0.006   0.566  0.0342  0.3747  0.6857
  514THF     C2 7811   2.009  -0.075   0.471  0.3494 -0.1729  0.0519
  514THF     C3 7812   1.810   0.031   0.501  0.8213  0.4202 -0.1709
  514THF     H4 7813   2.097  -0.119   0.519  0.9414  1.7793  0.8661
  514THF     H5 7814   2.040  -0.010   0.389  1.7186 -1.3136 -0.3757
  514THF     H6 7815   1.733   0.015   0.576  0.7267  0.3338 -0.2876
  514THF     H7 7816   1.807   0.128   0.452  1.2298  0.6969  0.3403
  514THF     C8 7817   1.790  -0.088   0.405  0.9498 -0.1796 -0.5527
  514THF     C9 7818   1.912  -0.178   0.421 -0.2899 -0.3135  0.3058
  514THF    H10 7819   1.774  -0.046   0.306  0.4507  0.6884 -0.1155
  514THF    H11 7820   1.696  -0.138   0.425  1.6694 -0.5354  2.2987
  514THF    H12 7821   1.883  -0.258   0.489  0.4802 -0.9054 -0.0423
  514THF    H13 7822   1.937  -0.227   0.326 -0.5392 -0.5490  0.3605
  515THF     O1 7823   3.905   3.822   0.444 -0.2405  0.5219  1.1428
  515THF     C2 7824   3.786   3.762   0.397  0.2597 -0.1128 -0.0116
  515THF     C3 7825   3.984   3.868   0.340 -0.1943 -0.0004 -0.0951
  515THF     H4 7826   3.709   3.782   0.472 -3.3173 -0.9768 -3.1366
  515THF     H5 7827   3.788   3.653   0.390 -0.8498 -0.6204  4.5998
  515THF     H6 7828   4.072   3.929   0.365 -1.4268  1.3129  1.2986
  515THF     H7 7829   4.021   3.782   0.285 -0.3906 -0.3769  0.3560
  515THF     C8 7830   3.882   3.932   0.252 -0.2048  0.3279 -0.0313
  515THF     C9 7831   3.764   3.841   0.267 -0.6229  0.5373  0.2381
  515THF    H10 7832   3.905   3.954   0.148  0.5725  0.3368  0.1396
  515THF    H11 7833   3.840   4.028   0.284 -0.0493  0.4006 -0.0434
  515THF    H12 7834   3.674   3.900   0.288 -0.7054  0.0853  1.2132
  515THF    H13 7835   3.748   3.770   0.185 -3.1998 -0.3374  1.3981
  516THF     O1 7836   0.957   1.735   0.662 -0.8395 -0.1478 -0.1063
  516THF     C2 7837   1.018   1.838   0.740  0.4239  0.3694 -0.0170
  516THF     C3 7838   0.993   1.763   0.528 -0.0824  0.1031 -0.3573
  516THF     H4 7839   1.034   1.805   0.843  1.3402  0.6994 -0.0482
  516THF     H5 7840   0.952   1.923   0.755 -2.1478 -1.6423  0.9087
  516THF     H6 7841   0.979   1.674   0.466 -1.1852  0.0277 -0.0246
  516THF     H7 7842   0.927   1.842   0.493  1.8056  2.6978  1.5781
  516THF     C8 7843   1.136   1.812   0.538  0.4397 -0.1763  0.5316
  516THF     C9 7844   1.152   1.868   0.677 -0.3817 -0.1110 -0.3672
  516THF    H10 7845   1.159   1.887   0.463  1.3965 -1.9488 -1.0482
  516THF    H11 7846   1.210   1.733   0.524  2.4523  1.9136 -1.3709
  516THF    H12 7847   1.231   1.824   0.737 -2.8554 -0.7114  2.7033
  516THF    H13 7848   1.178   1.973   0.682 -2.1383  0.3073  2.9581
  517THF     O1 7849   1.892   1.972   3.227 -0.7866 -0.6621  0.0458
  517THF     C2 7850   1.856   2.086   3.146 -0.4347 -0.0669  0.1828
  517THF     C3 7851   2.018   2.001   3.289  0.6089 -0.4899  0.1469
  517THF     H4 7852   1.819   2.157   3.219 -0.1338 -0.1487  0.4178
  517THF     H5 7853   1.777   2.080   3.071 -0.6021 -0.2043  0.3683
  517THF     H6 7854   2.002   2.065   3.376  1.4735  0.1944 -0.1825
  517THF     H7 7855   2.071   1.915   3.332  2.0060  1.2416  2.1070
  517THF     C8 7856   2.093   2.068   3.172 -0.2076 -0.1105  0.2726
  517THF     C9 7857   1.982   2.142   3.090 -0.8225 -0.0906  0.6724
  517THF    H10 7858   2.138   1.990   3.111  0.2956 -1.8293  2.6900
  517THF    H11 7859   2.172   2.133   3.209 -1.2998  0.1358  2.3696
  517THF    H12 7860   1.978   2.251   3.084  1.2164 -0.0853 -2.2692
  517THF    H13 7861   1.995   2.110   2.987 -0.2465 -3.1844  1.6023
  518THF     O1 7862   4.714   2.100   4.824 -0.0735  0.1926  0.5579
  518THF     C2 7863   4.647   2.219   4.821 -0.1415  1.2852  0.2542
  518THF     C3 7864   4.828   2.118   4.747 -0.0914  0.0591 -0.2768
  518THF     H4 7865   4.578   2.220   4.905  1.0296  2.9430  1.2668
  518THF     H5 7866   4.586   2.211   4.731  0.8470 -1.5905 -0.2481
  518THF     H6 7867   4.906   2.043   4.763 -0.6124 -0.5774 -0.6793
  518THF     H7 7868   4.811   2.124   4.640  0.0307 -3.0683 -0.5902
  518THF     C8 7869   4.881   2.250   4.803 -0.5600  0.3850  0.1420
  518THF     C9 7870   4.754   2.328   4.825  0.0477 -1.0828 -0.0151
  518THF    H10 7871   4.946   2.292   4.725 -0.2138 -0.2425  0.0870
  518THF    H11 7872   4.933   2.235   4.897 -1.2163 -1.3517  0.2711
  518THF    H12 7873   4.763   2.382   4.919  0.9029  1.9330 -1.6769
  518THF    H13 7874   4.737   2.403   4.747  3.2765 -1.1419 -0.9098
  519THF     O1 7875   4.598   0.742   2.444  0.3366  0.4433  0.2319
  519THF     C2 7876   4.556   0.876   2.461 -0.4404  0.8199  0.5858
  519THF     C3 7877   4.739   0.738   2.456 -0.2834 -0.5245 -0.3319
  519THF     H4 7878   4.561   0.893   2.568 -0.4410 -1.4737  1.0186
  519THF     H5 7879   4.451   0.888   2.438 -0.0694  2.8408 -0.2450
  519THF     H6 7880   4.782   0.752   2.555 -0.4004 -0.4120 -0.2967
  519THF     H7 7881   4.779   0.642   2.424 -0.7783 -0.7756 -0.1927
  519THF     C8 7882   4.778   0.853   2.364  0.5867 -0.0787 -0.1121
  519THF     C9 7883   4.658   0.953   2.381  0.9005 -0.8250 -0.8868
  519THF    H10 7884   4.768   0.817   2.261 -1.6342 -0.0879  0.0441
  519THF    H11 7885   4.878   0.892   2.382  1.0883 -1.3872  0.0344
  519THF    H12 7886   4.679   1.047   2.432 -0.7043 -1.1496  0.4546
  519THF    H13 7887   4.613   0.983   2.286 -0.8896 -0.4240  0.0371
  520THF     O1 7888   4.185   2.398   0.380 -0.2401 -0.3464 -0.2494
  520THF     C2 7889   4.233   2.465   0.260  0.0498  0.1801  0.3098
  520THF     C3 7890   4.051   2.359   0.365 -0.0998  0.3608 -0.2660
  520THF     H4 7891   4.280   2.394   0.191  0.2652  2.8301 -2.4600
  520THF     H5 7892   4.311   2.536   0.286  1.0786 -1.0340  0.6185
  520THF     H6 7893   4.052   2.252   0.344  1.3298  0.5747 -1.4510
  520THF     H7 7894   4.007   2.367   0.465  0.7423 -2.3491  0.4311
  520THF     C8 7895   3.993   2.441   0.252 -0.1403 -0.0602  0.5912
  520THF     C9 7896   4.107   2.535   0.210  0.0658  0.1326 -0.6603
  520THF    H10 7897   3.906   2.490   0.296 -0.0417  1.3015 -0.6489
  520THF    H11 7898   3.961   2.386   0.163 -1.2827  1.2636  0.1390
  520THF    H12 7899   4.108   2.562   0.105 -0.7945  0.2503 -0.6485
  520THF    H13 7900   4.096   2.627   0.267 -1.2533 -1.1634  1.2984
  521THF     O1 7901   2.725   4.296   1.413  0.0738  0.4694 -0.1774
  521THF     C2 7902   2.826   4.333   1.318  0.7598 -0.1733  0.1303
  521THF     C3 7903   2.604   4.287   1.345 -0.8452  0.2612  0.1712
  521THF     H4 7904   2.929   4.316   1.348  0.8413 -1.4714 -0.8102
  521THF     H5 7905   2.819   4.437   1.285  0.6977  0.1711  1.2066
  521THF     H6 7906   2.515   4.243   1.392 -0.7877  1.5618  1.5403
  521THF     H7 7907   2.564   4.386   1.322  1.0808  0.8675 -0.7834
  521THF     C8 7908   2.646   4.226   1.208  0.4932 -0.2671 -0.3635
  521THF     C9 7909   2.789   4.267   1.182  0.4977  0.3414 -0.3674
  521THF    H10 7910   2.571   4.244   1.131  0.9048  0.8022 -0.5364
  521THF    H11 7911   2.642   4.120   1.234  0.8626 -0.0722  0.5323
  521THF    H12 7912   2.849   4.181   1.150 -1.6443 -1.2721 -0.2498
  521THF    H13 7913   2.795   4.345   1.106  0.1492  0.4685 -0.2660
  522THF     O1 7914   2.115   0.078   4.257  0.1349  0.3613  0.3244
  522THF     C2 7915   1.981   0.045   4.241  0.9438 -0.2958  0.3080
  522THF     C3 7916   2.185  -0.025   4.320 -0.6747  0.0580 -0.3848
  522THF     H4 7917   1.960   0.002   4.143 -0.2608  1.5258 -0.2726
  522THF     H5 7918   1.928   0.140   4.252  0.3356 -0.6539  0.5425
  522THF     H6 7919   2.234  -0.090   4.248 -0.4111 -2.2386  1.7404
  522THF     H7 7920   2.262   0.011   4.389 -1.7347  0.3506  0.6754
  522THF     C8 7921   2.079  -0.102   4.398 -0.1853  0.6875 -0.0134
  522THF     C9 7922   1.945  -0.050   4.357 -0.4091  0.0617  1.2710
  522THF    H10 7923   2.088  -0.081   4.504  0.1968 -2.2444  0.6115
  522THF    H11 7924   2.095  -0.210   4.389  2.5459  0.9990  0.2691
  522THF    H12 7925   1.875  -0.129   4.331  0.6126  0.0220 -1.8499
  522THF    H13 7926   1.906   0.018   4.433 -1.7557  1.5969 -0.6785
  523THF     O1 7927   4.317   5.382   1.274  0.2867 -0.0276 -0.1594
  523THF     C2 7928   4.226   5.286   1.331 -0.1158 -0.3173  0.3956
  523THF     C3 7929   4.446   5.364   1.331  0.4464  0.2461  0.7237
  523THF     H4 7930   4.236   5.192   1.275 -2.6798  0.3089 -1.3054
  523THF     H5 7931   4.118   5.304   1.321 -0.2781 -1.6096 -0.4561
  523THF     H6 7932   4.502   5.278   1.296  0.8324 -0.3107  2.5965
  523THF     H7 7933   4.505   5.453   1.308  1.3368 -0.9424 -1.9554
  523THF     C8 7934   4.415   5.337   1.473 -0.4413 -0.2584 -0.3588
  523THF     C9 7935   4.277   5.283   1.473 -0.2564 -1.0143  0.1170
  523THF    H10 7936   4.426   5.429   1.531  0.6427 -0.8638  0.4348
  523THF    H11 7937   4.481   5.269   1.528 -0.5787  0.1997  0.3959
  523THF    H12 7938   4.280   5.179   1.508 -1.4648 -1.0350  0.2105
  523THF    H13 7939   4.206   5.338   1.535  0.1206 -0.6405  0.2175
  524THF     O1 7940   2.317   1.153   4.329  0.1094  0.2006  0.1660
  524THF     C2 7941   2.387   1.279   4.331  0.1364 -0.3166  0.4336
  524THF     C3 7942   2.175   1.177   4.320  0.3923 -0.0432 -0.1246
  524THF     H4 7943   2.412   1.289   4.225 -1.7967  0.6482  0.0137
  524THF     H5 7944   2.485   1.286   4.378 -0.0658 -0.1877  0.8399
  524THF     H6 7945   2.142   1.185   4.216 -1.5231 -0.4304  0.4177
  524THF     H7 7946   2.110   1.099   4.359  0.1017 -0.1313 -0.7766
  524THF     C8 7947   2.153   1.309   4.396  0.4365 -0.5347 -0.7540
  524THF     C9 7948   2.283   1.383   4.369  0.1932 -0.8480  0.2317
  524THF    H10 7949   2.140   1.289   4.503 -0.7425 -1.3442 -1.0320
  524THF    H11 7950   2.067   1.365   4.361  1.0797  1.1771  0.2723
  524THF    H12 7951   2.270   1.445   4.280 -1.9687 -0.1924  0.9391
  524THF    H13 7952   2.325   1.451   4.443  1.4842  0.8322 -1.9354
  525THF     O1 7953   4.036   0.577   0.205 -0.0150  0.2503 -0.5646
  525THF     C2 7954   3.918   0.627   0.260 -0.4196 -0.0105 -0.8635
  525THF     C3 7955   4.059   0.638   0.078  0.2844 -0.5533 -0.4525
  525THF     H4 7956   3.911   0.624   0.369  0.1443 -1.2578 -0.8466
  525THF     H5 7957   3.829   0.583   0.214 -0.0337  1.0177 -2.7033
  525THF     H6 7958   4.160   0.624   0.040  0.0859 -0.2959 -1.0677
  525THF     H7 7959   3.989   0.602   0.002 -1.0524  1.3089 -0.1835
  525THF     C8 7960   4.024   0.788   0.113 -0.4911 -0.2347  0.8095
  525THF     C9 7961   3.910   0.777   0.216 -0.5528 -0.0148 -0.4300
  525THF    H10 7962   3.993   0.859   0.037 -0.8515 -0.5756  0.6339
  525THF    H11 7963   4.108   0.836   0.164 -0.5921  1.8279 -0.8608
  525THF    H12 7964   3.926   0.845   0.299  2.5187  0.1726 -1.0539
  525THF    H13 7965   3.807   0.792   0.181 -1.5461 -0.8169  1.9240
  526THF     O1 7966   4.208   1.870   2.052 -0.4543  0.4249  0.1270
  526THF     C2 7967   4.133   1.984   2.076  0.1821  0.6816  0.0112
  526THF     C3 7968   4.256   1.862   1.914 -0.3622  0.3830  0.7063
  526THF     H4 7969   4.139   2.027   2.177  0.2504 -1.1287  0.8224
  526THF     H5 7970   4.026   1.971   2.064 -0.1180  0.5272  2.3598
  526THF     H6 7971   4.337   1.792   1.892 -2.2275 -1.4048 -0.8511
  526THF     H7 7972   4.172   1.824   1.856  0.7956 -0.7694 -0.2977
  526THF     C8 7973   4.282   2.004   1.886 -0.1096 -1.0752  0.0969
  526THF     C9 7974   4.193   2.087   1.980  0.8380  0.1909 -0.4484
  526THF    H10 7975   4.249   2.032   1.786 -0.0345 -0.6661  0.1875
  526THF    H11 7976   4.384   2.040   1.899 -0.4527 -0.4400  1.0635
  526THF    H12 7977   4.269   2.150   2.025  0.4015  0.5199 -0.1588
  526THF    H13 7978   4.120   2.150   1.929 -0.2235  0.2816  1.1047
  527THF     O1 7979   4.161   0.363   1.213 -0.2180 -0.4695 -0.0871
  527THF     C2 7980   4.137   0.223   1.229  0.8873 -0.0702  0.5018
  527THF     C3 7981   4.292   0.376   1.257  0.1726  0.4196  0.6226
  527THF     H4 7982   4.184   0.159   1.154 -0.8603 -1.5807  0.6358
  527THF     H5 7983   4.029   0.213   1.219  0.6914  1.5923  0.6451
  527THF     H6 7984   4.348   0.337   1.173  0.2338  0.3895  0.6777
  527THF     H7 7985   4.326   0.476   1.287 -0.8429  0.9118  0.1831
  527THF     C8 7986   4.308   0.288   1.375  1.0820 -0.0152  0.0484
  527THF     C9 7987   4.184   0.204   1.369 -0.1295 -0.2130  0.0152
  527THF    H10 7988   4.318   0.330   1.476  0.0404 -0.3798  0.3189
  527THF    H11 7989   4.402   0.235   1.361  1.4105  0.4251  0.5163
  527THF    H12 7990   4.198   0.099   1.392 -1.9417 -0.3421  0.6559
  527THF    H13 7991   4.111   0.252   1.434  0.6469 -0.5389  1.1444
  528THF     O1 7992   4.203   4.368   4.680  0.3372  0.5024 -0.0372
  528THF     C2 7993   4.226   4.513   4.687  0.8384 -0.5706  0.4364
  528THF     C3 7994   4.241   4.322   4.551  0.3427 -0.6139  0.5791
  528THF     H4 7995   4.292   4.536   4.771  0.7254 -2.0058  0.9587
  528THF     H5 7996   4.131   4.560   4.713 -0.2438 -3.1090  1.4890
  528THF     H6 7997   4.295   4.227   4.555  0.4337 -0.6391 -0.7377
  528THF     H7 7998   4.155   4.306   4.486  0.0964  0.5793  0.5999
  528THF     C8 7999   4.324   4.431   4.481 -0.1731  0.6727 -0.1390
  528THF     C9 8000   4.273   4.553   4.555  0.1354 -0.3229  0.0142
  528THF    H10 8001   4.292   4.438   4.377  2.7680 -1.2563 -1.2949
  528THF    H11 8002   4.426   4.395   4.493 -0.7860 -1.4943 -1.0332
  528THF    H12 8003   4.353   4.627   4.562  0.2776 -0.5265  0.5286
  528THF    H13 8004   4.190   4.604   4.505 -0.6792 -0.2922  1.3457
  529THF     O1 8005   3.888   4.888   0.299  0.3451 -0.0888 -0.9678
  529THF     C2 8006   3.814   4.951   0.203  0.2896 -0.1695 -0.4756
  529THF     C3 8007   3.996   4.975   0.338 -0.2782 -0.3461  0.2624
  529THF     H4 8008   3.713   4.911   0.198  1.2307 -2.8272 -0.2380
  529THF     H5 8009   3.860   4.941   0.105  2.3484  0.2846  0.3849
  529THF     H6 8010   4.043   4.949   0.433  0.2116 -1.0230 -0.1589
  529THF     H7 8011   4.075   4.975   0.263  1.4187 -0.3895  1.9559
  529THF     C8 8012   3.927   5.105   0.349 -0.3216  0.0816 -0.1846
  529THF     C9 8013   3.819   5.096   0.241  0.2424  0.4219 -0.4388
  529THF    H10 8014   3.993   5.188   0.324 -1.7523  1.4351  0.3838
  529THF    H11 8015   3.889   5.117   0.451 -1.6329  0.0241 -0.6454
  529THF    H12 8016   3.727   5.132   0.287 -0.8044 -1.3664 -1.0272
  529THF    H13 8017   3.851   5.159   0.159  0.7469  0.4798 -0.1971
  530THF     O1 8018   2.825   2.290   2.118 -0.4694 -0.3263 -0.6113
  530THF     C2 8019   2.930   2.333   2.206  0.0078 -0.0122  0.2215
  530THF     C3 8020   2.758   2.176   2.170  0.0413  0.0627  0.4534
  530THF     H4 8021   2.894   2.427   2.249 -2.5347 -0.7287 -0.1795
  530THF     H5 8022   3.026   2.323   2.154  0.2951  0.7306  0.5874
  530THF     H6 8023   2.650   2.187   2.159  0.2011  0.9097 -0.3582
  530THF     H7 8024   2.803   2.089   2.122 -0.1317  0.0869  0.2478
  530THF     C8 8025   2.793   2.180   2.315  0.0256 -0.0748  0.6293
  530THF     C9 8026   2.941   2.226   2.311  0.2909  0.6359 -0.2613
  530THF    H10 8027   2.773   2.085   2.365  4.5984 -1.3935  0.3569
  530THF    H11 8028   2.721   2.252   2.354  0.0421  0.6700 -0.6693
  530THF    H12 8029   2.985   2.251   2.407  0.3228 -0.5676  0.0516
  530THF    H13 8030   2.991   2.136   2.275  1.0913  1.8832 -2.4473
  531THF     O1 8031   3.716   4.369   1.446  0.3233 -0.3266  0.2724
  531THF     C2 8032   3.748   4.485   1.529  0.1191 -0.5137  0.3380
  531THF     C3 8033   3.577   4.373   1.419  1.4573 -0.8885  0.2156
  531THF     H4 8034   3.738   4.577   1.470 -0.1670 -1.3628 -0.9671
  531THF     H5 8035   3.842   4.485   1.584  1.0882  1.9266 -1.1484
  531THF     H6 8036   3.567   4.434   1.329  4.7447 -1.4470 -0.6776
  531THF     H7 8037   3.522   4.280   1.407 -1.2108  0.4748  1.1881
  531THF     C8 8038   3.518   4.442   1.551  0.3300  0.6948 -0.7270
  531THF     C9 8039   3.630   4.492   1.633  0.3712 -0.3301  0.2207
  531THF    H10 8040   3.468   4.368   1.614 -1.0904  2.2834  0.0722
  531THF    H11 8041   3.445   4.519   1.526 -0.2889 -0.0254 -1.2260
  531THF    H12 8042   3.612   4.591   1.674 -0.3733  0.7184 -2.3937
  531THF    H13 8043   3.660   4.436   1.721  1.5512  1.0856  0.7624
  532THF     O1 8044   4.886   2.413   3.623 -0.4409  0.1098  0.6452
  532THF     C2 8045   4.937   2.398   3.487 -0.6007 -1.1628  0.1464
  532THF     C3 8046   4.969   2.355   3.719  0.1400 -0.4517  0.4398
  532THF     H4 8047   5.002   2.476   3.451  1.8341 -4.1729 -2.5670
  532THF     H5 8048   4.860   2.393   3.411  0.7466 -2.5909 -1.1886
  532THF     H6 8049   5.031   2.430   3.768  0.6564 -0.9668  0.5870
  532THF     H7 8050   4.916   2.287   3.786  0.9772 -0.8186  0.7542
  532THF     C8 8051   5.066   2.268   3.634 -0.1532  0.0587 -0.2872
  532THF     C9 8052   5.018   2.267   3.488  0.0864 -0.2517  0.4287
  532THF    H10 8053   5.059   2.169   3.679 -0.4446  0.8618  1.5247
  532THF    H11 8054   5.168   2.303   3.655  0.2825 -1.6956  0.7493
  532THF    H12 8055   5.107   2.256   3.426 -0.4696 -0.8152 -0.2875
  532THF    H13 8056   4.961   2.175   3.478 -0.1508 -0.0888  0.2846
  533THF     O1 8057   3.831   0.160   2.532  0.2246  0.0548 -0.0276
  533THF     C2 8058   3.722   0.216   2.467  0.5612 -0.8597 -0.0806
  533THF     C3 8059   3.791   0.032   2.587 -0.6204  0.0255 -0.1702
  533THF     H4 8060   3.710   0.179   2.365  0.6361  0.9126 -0.7729
  533THF     H5 8061   3.727   0.325   2.462  0.2257 -0.8877 -3.3841
  533THF     H6 8062   3.798  -0.035   2.501  4.4980  0.7815 -0.6655
  533THF     H7 8063   3.854  -0.007   2.667 -2.2378 -0.7631  0.7546
  533THF     C8 8064   3.646   0.061   2.632  0.5559 -0.4008 -0.3016
  533THF     C9 8065   3.595   0.181   2.548 -0.3977  0.0971 -0.1972
  533THF    H10 8066   3.637   0.091   2.736  0.1311 -1.2622 -0.0792
  533THF    H11 8067   3.582  -0.027   2.626 -1.5109  0.6274  3.3703
  533THF    H12 8068   3.509   0.154   2.488  1.5084 -2.0290 -2.1799
  533THF    H13 8069   3.565   0.266   2.609 -0.2963  1.2922 -1.7450
  534THF     O1 8070   2.822   1.177   4.038  0.1407  0.0209  0.0653
  534THF     C2 8071   2.696   1.208   4.084  0.1353  0.0263 -0.2485
  534THF     C3 8072   2.887   1.303   4.012  0.3992  0.1528  0.1633
  534THF     H4 8073   2.643   1.131   4.141  1.2856 -0.1268  0.6499
  534THF     H5 8074   2.624   1.224   4.004 -2.1580 -2.6664  1.0650
  534THF     H6 8075   2.995   1.289   4.005  0.0766 -2.3244 -0.5339
  534THF     H7 8076   2.853   1.335   3.914  1.7895  1.6278  0.1128
  534THF     C8 8077   2.840   1.397   4.128  0.1931  0.5784 -0.3782
  534THF     C9 8078   2.704   1.332   4.165 -1.3294 -0.6290 -0.1821
  534THF    H10 8079   2.837   1.502   4.098  1.9846  0.5962 -0.6040
  534THF    H11 8080   2.904   1.382   4.215 -0.8653 -1.6076  0.0891
  534THF    H12 8081   2.715   1.303   4.270  3.6359  0.3589 -0.1607
  534THF    H13 8082   2.617   1.397   4.158 -0.2737  1.1153  1.5993
  535THF     O1 8083   1.146   1.335   4.270  0.2860 -0.2233 -0.3005
  535THF     C2 8084   1.019   1.397   4.233 -0.0301 -0.5761 -0.4560
  535THF     C3 8085   1.249   1.428   4.304  0.0054 -0.0804  0.4568
  535THF     H4 8086   0.967   1.401   4.328  0.6234 -1.3610 -0.0504
  535THF     H5 8087   0.964   1.333   4.164 -0.8979 -2.3348  1.7352
  535THF     H6 8088   1.227   1.454   4.408 -4.8929 -1.7895  0.1201
  535THF     H7 8089   1.347   1.379   4.300  0.8087  1.4607  0.5775
  535THF     C8 8090   1.228   1.539   4.206 -0.5533  0.2079  0.6476
  535THF     C9 8091   1.073   1.537   4.184  0.0104  0.2881 -0.2331
  535THF    H10 8092   1.269   1.514   4.108 -1.2998 -1.3413  0.6893
  535THF    H11 8093   1.273   1.634   4.232 -0.7401  0.7877 -1.0407
  535THF    H12 8094   1.026   1.610   4.250  0.8149 -0.9211  1.7913
  535THF    H13 8095   1.036   1.562   4.085 -0.3618  0.9693  0.0747
  536THF     O1 8096   5.113   5.093   1.986 -0.2862 -0.5030 -0.8815
  536THF     C2 8097   5.030   4.981   2.009  0.0132  0.3030  0.0265
  536THF     C3 8098   5.042   5.196   1.920  0.3061 -0.6358 -0.9545
  536THF     H4 8099   5.077   4.926   2.090 -0.3361 -0.4243 -0.2540
  536THF     H5 8100   5.018   4.912   1.926  0.1015 -0.4276  0.6076
  536THF     H6 8101   5.080   5.298   1.917 -1.1244  0.0228  1.0265
  536THF     H7 8102   5.021   5.159   1.820 -1.7969 -1.5023 -0.2509
  536THF     C8 8103   4.909   5.192   1.993 -0.4897 -0.3051  0.0409
  536THF     C9 8104   4.892   5.042   2.028  0.1418  0.4380  0.0260
  536THF    H10 8105   4.832   5.219   1.921 -0.5725  0.9717  0.5871
  536THF    H11 8106   4.914   5.253   2.082 -0.7133 -1.1967  0.6804
  536THF    H12 8107   4.856   5.019   2.128  0.4605 -2.8047 -0.4689
  536THF    H13 8108   4.816   4.990   1.969  0.4517  1.7405 -1.5987
  537THF     O1 8109   2.533   2.247   5.031  0.4662 -0.2229  0.2083
  537THF     C2 8110   2.665   2.244   5.094  0.6030 -0.1300 -0.6914
  537THF     C3 8111   2.553   2.311   4.898 -0.6270 -0.3131 -0.8158
  537THF     H4 8112   2.700   2.142   5.105 -0.4811 -0.4785 -0.3820
  537THF     H5 8113   2.655   2.286   5.194  1.2392  0.4164 -0.8495
  537THF     H6 8114   2.589   2.232   4.831 -0.2437 -1.1559  0.3481
  537THF     H7 8115   2.454   2.330   4.856 -0.7697  0.5602 -0.0996
  537THF     C8 8116   2.657   2.414   4.915  0.3545  0.5602  0.3581
  537THF     C9 8117   2.755   2.338   5.003 -0.9661  0.4713  0.3673
  537THF    H10 8118   2.614   2.498   4.969 -3.8611 -0.7921 -0.5395
  537THF    H11 8119   2.706   2.447   4.824  2.0013  0.9922  1.3535
  537THF    H12 8120   2.829   2.285   4.944 -0.8896  0.4124  0.5164
  537THF    H13 8121   2.825   2.397   5.063 -0.6348 -0.3787  0.8192
  538THF     O1 8122   3.437   0.307   2.808  0.4374  0.4598 -0.0154
  538THF     C2 8123   3.383   0.429   2.753 -0.0229 -0.2992 -0.2123
  538THF     C3 8124   3.520   0.338   2.922  0.7215  0.3511 -0.0270
  538THF     H4 8125   3.283   0.450   2.791  0.4540 -0.7061  1.3481
  538THF     H5 8126   3.379   0.427   2.644  0.9698  2.0562 -0.3510
  538THF     H6 8127   3.462   0.346   3.015 -0.0295  1.1786 -0.5528
  538THF     H7 8128   3.589   0.254   2.931  1.1537  0.6239 -0.7421
  538THF     C8 8129   3.590   0.469   2.884  0.7719  0.0391 -0.0645
  538THF     C9 8130   3.483   0.533   2.797 -0.6164 -0.2241 -0.7703
  538THF    H10 8131   3.687   0.462   2.835  1.2621  3.1184  0.2344
  538THF    H11 8132   3.620   0.533   2.967 -1.6631  1.2495 -0.0457
  538THF    H12 8133   3.441   0.605   2.867 -0.3595 -0.0355 -0.8074
  538THF    H13 8134   3.537   0.581   2.715  1.3495 -1.0591 -0.0239
  539THF     O1 8135   2.391   1.602   4.907 -0.0560  0.4206  0.1061
  539THF     C2 8136   2.457   1.533   4.801  0.1897  0.4833  0.0634
  539THF     C3 8137   2.252   1.604   4.872  0.4679 -0.2530  0.2545
  539THF     H4 8138   2.554   1.495   4.835  0.4911  0.1827 -1.0977
  539THF     H5 8139   2.477   1.609   4.726  1.6395  0.2499  0.1804
  539THF     H6 8140   2.191   1.575   4.957 -1.7429 -0.0740 -1.1791
  539THF     H7 8141   2.206   1.697   4.838 -0.1155  0.2674  2.3069
  539THF     C8 8142   2.226   1.487   4.775 -0.0296  0.2477 -0.1219
  539THF     C9 8143   2.360   1.417   4.771 -0.2598 -0.0729 -0.0349
  539THF    H10 8144   2.203   1.509   4.671 -0.5807  0.9262  0.1305
  539THF    H11 8145   2.142   1.425   4.806  0.0826 -0.4487 -1.1566
  539THF    H12 8146   2.350   1.335   4.843 -3.6259 -0.6999 -1.0502
  539THF    H13 8147   2.385   1.374   4.674  0.6916  0.5893 -0.0969
  540THF     O1 8148   4.217   0.208   1.962 -0.0593  0.3916 -0.1227
  540THF     C2 8149   4.207   0.066   1.925 -0.4690 -0.5624  0.1156
  540THF     C3 8150   4.283   0.276   1.856  0.5290  0.7929  0.6874
  540THF     H4 8151   4.120   0.031   1.980 -1.9753  0.7318 -1.3396
  540THF     H5 8152   4.304   0.023   1.949 -0.4934 -0.7585 -0.1319
  540THF     H6 8153   4.250   0.380   1.850 -1.5736  0.1457  0.2518
  540THF     H7 8154   4.391   0.278   1.873  0.4282  0.8236  1.3479
  540THF     C8 8155   4.248   0.199   1.724  0.2054 -0.7725  0.0701
  540THF     C9 8156   4.166   0.081   1.772  0.7997  0.0280 -0.6178
  540THF    H10 8157   4.337   0.161   1.674  0.9502 -0.9504  1.4713
  540THF    H11 8158   4.180   0.261   1.665  1.1506  1.3024  1.0684
  540THF    H12 8159   4.058   0.099   1.766  0.7029 -0.7268 -1.3320
  540THF    H13 8160   4.189  -0.011   1.719 -0.4739 -0.8121  0.2309
  541THF     O1 8161   3.146   2.034   4.242  0.2405  0.0903  0.3517
  541THF     C2 8162   3.027   1.963   4.250  0.1624 -0.5447 -0.3869
  541THF     C3 8163   3.146   2.114   4.125 -0.0924 -0.4430 -0.8449
  541THF     H4 8164   2.957   2.043   4.274  0.7631 -0.5341  1.5646
  541THF     H5 8165   3.020   1.885   4.326  0.2747  0.3633  0.5856
  541THF     H6 8166   3.112   2.213   4.154  0.3600 -0.5699  0.1568
  541THF     H7 8167   3.249   2.129   4.094 -0.0906 -0.4622 -0.8478
  541THF     C8 8168   3.061   2.033   4.024  0.5551  0.5259  0.8117
  541THF     C9 8169   3.010   1.914   4.109 -0.6081  0.0184 -0.1233
  541THF    H10 8170   3.114   1.992   3.938  0.3181 -1.3616  1.5217
  541THF    H11 8171   2.979   2.088   3.978  1.0560  1.3670  0.8945
  541THF    H12 8172   2.908   1.876   4.094 -1.5966  1.3200  2.6268
  541THF    H13 8173   3.078   1.831   4.089 -2.5423 -1.6923  0.0524
  542THF     O1 8174   2.142   2.010   0.944 -0.2092  0.2986  0.3009
  542THF     C2 8175   2.062   2.129   0.942 -0.2100 -0.1383  0.5963
  542THF     C3 8176   2.276   2.046   0.939  0.1106 -0.1339  0.5149
  542THF     H4 8177   2.001   2.126   1.033 -1.7950  0.9624 -0.3866
  542THF     H5 8178   2.000   2.122   0.853  0.2422  0.1156  0.2606
  542THF     H6 8179   2.344   1.973   0.982  0.5395  0.4978  0.9119
  542THF     H7 8180   2.293   2.049   0.831  1.4749  1.6351  0.7302
  542THF     C8 8181   2.276   2.189   0.993  0.2989  0.5053 -0.0991
  542THF     C9 8182   2.148   2.252   0.944 -0.3884 -0.2990 -0.0462
  542THF    H10 8183   2.370   2.237   0.967 -0.8427  3.2146  0.4063
  542THF    H11 8184   2.261   2.181   1.101  0.6627 -5.4974 -0.1682
  542THF    H12 8185   2.109   2.325   1.015  0.5527  0.9540 -0.7719
  542THF    H13 8186   2.149   2.294   0.843 -0.8694  0.6693  0.3385
  543THF     O1 8187   0.740   4.175   2.800 -0.1746  0.0489  0.2916
  543THF     C2 8188   0.669   4.263   2.887 -0.2471 -0.1352  0.5356
  543THF     C3 8189   0.873   4.181   2.845  0.4822 -0.5722  0.1178
  543THF     H4 8190   0.668   4.222   2.987  1.0568 -0.7976  0.2989
  543THF     H5 8191   0.565   4.277   2.857 -0.7587 -3.1410  0.6284
  543THF     H6 8192   0.891   4.101   2.917 -1.3238 -0.6668  0.5348
  543THF     H7 8193   0.943   4.156   2.766  0.4741  2.0528 -0.8181
  543THF     C8 8194   0.894   4.326   2.899 -0.1031 -0.3904 -0.1183
  543THF     C9 8195   0.756   4.391   2.892 -0.2062  0.5212 -0.0375
  543THF    H10 8196   0.966   4.380   2.837 -2.2797  1.7757 -0.9247
  543THF    H11 8197   0.928   4.326   3.002  1.4968 -0.2949 -0.6232
  543THF    H12 8198   0.730   4.449   2.980  1.8095 -0.1972  1.1039
  543THF    H13 8199   0.741   4.453   2.804  0.2129  2.2649  1.0707
  544THF     O1 8200   3.467   4.146   0.538 -0.1441 -0.3332 -0.6386
  544THF     C2 8201   3.476   4.189   0.677 -0.0054  0.0383  0.2111
  544THF     C3 8202   3.596   4.103   0.503 -0.0363  0.5056 -0.2929
  544THF     H4 8203   3.375   4.181   0.717 -0.0604 -0.7498 -0.0643
  544THF     H5 8204   3.509   4.292   0.674 -2.1112  0.7803  0.6995
  544THF     H6 8205   3.587   4.047   0.410  1.9778  0.3398 -0.4163
  544THF     H7 8206   3.664   4.187   0.493 -0.2113  0.9435  1.7412
  544THF     C8 8207   3.639   4.019   0.621  1.0356  0.4381  0.6693
  544THF     C9 8208   3.589   4.105   0.734 -0.4621 -0.0512 -0.2212
  544THF    H10 8209   3.744   3.992   0.629  0.6896 -1.8045 -1.1240
  544THF    H11 8210   3.597   3.918   0.613  1.9710  0.1187 -0.3768
  544THF    H12 8211   3.550   4.038   0.811  0.8307 -2.4148 -1.5245
  544THF    H13 8212   3.669   4.166   0.777  0.0969  0.4074 -1.8521
  545THF     O1 8213   2.727   4.905   3.262 -1.3366  0.0261 -0.1063
  545THF     C2 8214   2.604   4.847   3.229  0.0516 -0.3108  0.4699
  545THF     C3 8215   2.832   4.864   3.172 -0.3071  0.2951  0.2368
  545THF     H4 8216   2.532   4.929   3.232  1.2829  0.7804  0.7121
  545THF     H5 8217   2.578   4.762   3.293 -1.1258  0.0833  0.5539
  545THF     H6 8218   2.864   4.949   3.110 -0.0407  0.0430  0.0275
  545THF     H7 8219   2.913   4.820   3.230  0.7877 -0.1656 -1.5638
  545THF     C8 8220   2.764   4.760   3.081  0.0712  0.5432 -0.1354
  545THF     C9 8221   2.618   4.796   3.085 -0.1042  0.6412 -0.4549
  545THF    H10 8222   2.779   4.662   3.128  0.5048  0.5849 -0.1852
  545THF    H11 8223   2.796   4.762   2.977 -0.6650 -0.2802 -0.3886
  545THF    H12 8224   2.602   4.877   3.013 -1.7911  2.1208  1.4760
  545THF    H13 8225   2.549   4.715   3.060  1.2050 -0.9707  0.9846
  546THF     O1 8226   3.680   1.935   1.253  0.0333 -0.9165 -0.5346
  546THF     C2 8227   3.786   1.959   1.161 -0.3324 -0.3250  0.1572
  546THF     C3 8228   3.562   1.925   1.186 -0.6321 -0.1483  0.2320
  546THF     H4 8229   3.848   1.873   1.135  1.3070  1.5947 -2.9118
  546THF     H5 8230   3.857   2.032   1.200  1.8167 -1.7631 -0.8770
  546THF     H6 8231   3.557   1.821   1.153  1.0258 -0.6023  1.3270
  546THF     H7 8232   3.482   1.943   1.257  0.9648  2.8413  1.4323
  546THF     C8 8233   3.569   2.028   1.071  0.3191  0.7900 -0.3683
  546THF     C9 8234   3.716   2.008   1.031  0.4442 -0.5754 -0.0278
  546THF    H10 8235   3.551   2.128   1.111 -0.9052  0.4830 -0.1112
  546THF    H11 8236   3.500   2.009   0.989  0.2981  1.3147 -0.4757
  546THF    H12 8237   3.720   1.939   0.946 -0.2098 -0.1182 -0.4379
  546THF    H13 8238   3.762   2.098   0.991  0.5258 -0.5799  0.0566
  547THF     O1 8239   4.176   4.998   5.047 -0.0127  0.1607  0.0013
  547THF     C2 8240   4.037   5.014   5.007  0.0092  0.1533 -0.0418
  547THF     C3 8241   4.212   4.869   5.001  0.2816  0.0384  0.1720
  547THF     H4 8242   4.032   5.077   4.918  2.6495 -0.5870 -0.8193
  547THF     H5 8243   3.992   5.067   5.091 -0.4549  0.1704 -0.2994
  547THF     H6 8244   4.226   4.877   4.893 -0.0833 -1.7115 -0.0301
  547THF     H7 8245   4.308   4.835   5.040 -1.0229 -1.1262  2.5461
  547THF     C8 8246   4.093   4.781   5.017  1.1211  0.3454 -0.6156
  547THF     C9 8247   3.980   4.881   4.995  0.1205  0.3898 -0.6811
  547THF    H10 8248   4.081   4.749   5.120 -0.0344 -1.5294 -1.2909
  547THF    H11 8249   4.083   4.699   4.947  0.2844 -0.8098  0.8064
  547THF    H12 8250   3.934   4.861   4.898  2.5009 -0.8822 -1.6282
  547THF    H13 8251   3.901   4.867   5.069  0.4024  1.2392 -0.2181
  548THF     O1 8252   4.689   4.866   3.509  0.1168 -0.0574  0.1095
  548THF     C2 8253   4.629   4.891   3.633 -0.6932 -0.1114 -0.0429
  548THF     C3 8254   4.785   4.754   3.536  0.5549  0.1400 -0.1226
  548THF     H4 8255   4.540   4.947   3.608 -0.5653  1.6872  3.0156
  548THF     H5 8256   4.689   4.950   3.702 -0.8190 -1.3393  1.1690
  548THF     H6 8257   4.802   4.701   3.442  3.3671  1.3032 -0.3728
  548THF     H7 8258   4.879   4.795   3.574 -1.0944  2.2145  2.0646
  548THF     C8 8259   4.729   4.672   3.653  0.5351 -0.2163 -0.0704
  548THF     C9 8260   4.595   4.746   3.681  0.6439 -0.8655 -1.0690
  548THF    H10 8261   4.786   4.676   3.746 -0.8918 -0.7258  0.8573
  548THF    H11 8262   4.700   4.568   3.644 -1.9393  0.4641 -0.8037
  548THF    H12 8263   4.522   4.714   3.608 -0.6118 -1.1199  0.2567
  548THF    H13 8264   4.546   4.739   3.778  0.1402  3.3745 -0.8228
  549THF     O1 8265   1.988   2.507   2.425 -0.0247  0.1908  0.0383
  549THF     C2 8266   1.935   2.595   2.327 -0.1661 -0.1042 -0.0025
  549THF     C3 8267   2.125   2.532   2.445 -0.4207  0.0358  0.7141
  549THF     H4 8268   1.883   2.678   2.374 -0.7329 -0.8654  0.7320
  549THF     H5 8269   1.868   2.544   2.258 -1.7890  0.6702  0.9455
  549THF     H6 8270   2.138   2.608   2.523 -0.0018  0.1718  0.5162
  549THF     H7 8271   2.178   2.444   2.480  0.2338  0.1224 -0.0162
  549THF     C8 8272   2.165   2.561   2.301 -0.2711 -0.0517 -0.2754
  549THF     C9 8273   2.055   2.651   2.257 -0.5638 -1.2113  0.0169
  549THF    H10 8274   2.155   2.471   2.240 -1.8792  1.4942 -2.4259
  549THF    H11 8275   2.271   2.587   2.303 -0.0236 -1.0058 -0.6584
  549THF    H12 8276   2.071   2.753   2.290  1.3531 -2.1470  2.2390
  549THF    H13 8277   2.052   2.657   2.148  0.2713 -3.4141 -0.2030
  550THF     O1 8278   3.654   4.141   3.498  0.2801  0.3165  0.3248
  550THF     C2 8279   3.559   4.184   3.598  0.1358 -0.3572 -0.6149
  550THF     C3 8280   3.735   4.248   3.472 -0.1615  0.1976  0.0216
  550THF     H4 8281   3.610   4.206   3.692  0.6417 -2.3589 -0.3773
  550THF     H5 8282   3.481   4.113   3.623  1.2012 -0.7579  1.9487
  550THF     H6 8283   3.800   4.265   3.558  1.0058 -0.8024 -0.6369
  550THF     H7 8284   3.803   4.234   3.388 -1.0469 -0.6166 -0.5691
  550THF     C8 8285   3.625   4.348   3.442 -0.1964 -0.2826 -0.0546
  550THF     C9 8286   3.516   4.319   3.547  0.3941 -0.2675  0.0041
  550THF    H10 8287   3.585   4.316   3.345 -0.6320 -0.8584  0.3070
  550THF    H11 8288   3.655   4.453   3.440 -2.1763  0.3566 -2.6433
  550THF    H12 8289   3.514   4.396   3.624 -0.7769  1.3506 -1.5545
  550THF    H13 8290   3.424   4.316   3.488 -0.6312 -0.6584  1.5533
  551THF     O1 8291   0.323   3.389   4.377  0.3123 -0.6042  0.4566
  551THF     C2 8292   0.417   3.321   4.288  0.2049 -0.1427 -0.7262
  551THF     C3 8293   0.395   3.491   4.441  0.2091  0.9727 -0.2925
  551THF     H4 8294   0.375   3.321   4.188 -0.8272 -1.2403 -0.3174
  551THF     H5 8295   0.432   3.220   4.328  2.1106  0.2339 -0.3704
  551THF     H6 8296   0.330   3.573   4.471  1.4598  1.3074  1.6848
  551THF     H7 8297   0.445   3.451   4.529  2.9175  0.9218 -1.7430
  551THF     C8 8298   0.503   3.533   4.350 -0.1207 -0.0147  0.0163
  551THF     C9 8299   0.546   3.403   4.291 -0.3789  0.2930 -0.8073
  551THF    H10 8300   0.580   3.591   4.401 -0.9775  0.3419  0.9303
  551THF    H11 8301   0.473   3.599   4.269  0.1167  0.2652  0.1555
  551THF    H12 8302   0.605   3.404   4.199  2.6110 -1.8669  0.9206
  551THF    H13 8303   0.618   3.358   4.359 -0.6648  2.2764  0.9031
  552THF     O1 8304   3.951   0.611   5.186 -0.3428  0.2034  0.1281
  552THF     C2 8305   3.968   0.748   5.197  0.0097 -0.4152  0.5074
  552THF     C3 8306   4.003   0.573   5.058  0.1222 -0.5361  0.6628
  552THF     H4 8307   3.975   0.789   5.298  0.8731 -0.4946  0.4932
  552THF     H5 8308   3.888   0.802   5.146 -1.2925 -0.4298  2.4292
  552THF     H6 8309   4.037   0.469   5.053  1.1283 -0.1674 -1.2679
  552THF     H7 8310   3.937   0.582   4.972  1.0362 -4.0105 -0.5746
  552THF     C8 8311   4.128   0.653   5.046 -0.3772 -0.1068  0.0075
  552THF     C9 8312   4.101   0.773   5.134 -0.4909 -0.7903 -0.7265
  552THF    H10 8313   4.153   0.685   4.945 -0.2873  0.4809  0.2118
  552THF    H11 8314   4.214   0.599   5.086 -1.7735 -1.4456  1.3536
  552THF    H12 8315   4.171   0.786   5.216  0.8244 -2.1811 -1.5811
  552THF    H13 8316   4.091   0.868   5.081 -2.2659 -1.1737 -1.1531
  553THF     O1 8317   1.054   3.094   2.552  0.8388  0.0895  0.0898
  553THF     C2 8318   0.974   3.114   2.670  0.0251 -0.1012  0.5650
  553THF     C3 8319   0.976   3.033   2.454 -0.7193  0.1345  0.0055
  553THF     H4 8320   1.004   3.203   2.725  0.6443 -1.0581  1.8156
  553THF     H5 8321   0.969   3.020   2.725 -2.0537  0.2027  1.0015
  553THF     H6 8322   1.025   3.046   2.358  3.7773 -1.2835  1.8264
  553THF     H7 8323   0.962   2.927   2.478 -0.7810  0.2914  0.7002
  553THF     C8 8324   0.846   3.108   2.463  0.3657 -0.7367  0.3705
  553THF     C9 8325   0.832   3.140   2.609  0.1057  0.0621  0.2720
  553THF    H10 8326   0.751   3.060   2.440  1.8895 -4.0997  0.5911
  553THF    H11 8327   0.844   3.193   2.394 -0.1482 -1.9015 -1.0957
  553THF    H12 8328   0.795   3.241   2.629  0.6091 -0.2412  3.0302
  553THF    H13 8329   0.758   3.078   2.658  1.9683 -0.8967  2.0353
  554THF     O1 8330   1.745   2.040   4.545  0.4549 -0.0605  0.0995
  554THF     C2 8331   1.739   2.128   4.431  0.3831  0.3390 -0.4788
  554THF     C3 8332   1.842   2.084   4.636 -0.3602 -0.1635  0.0555
  554THF     H4 8333   1.644   2.138   4.378  0.0678  2.0692  0.3567
  554THF     H5 8334   1.808   2.091   4.355  0.3519  0.8381 -0.7555
  554THF     H6 8335   1.820   2.037   4.732  0.0670 -1.7547 -0.5955
  554THF     H7 8336   1.942   2.047   4.615  0.8261  1.9629  1.5805
  554THF     C8 8337   1.836   2.236   4.622 -0.4886 -0.2767 -0.0471
  554THF     C9 8338   1.798   2.269   4.476 -0.3781  0.5516  0.9722
  554THF    H10 8339   1.936   2.266   4.654 -0.5501 -2.7236  2.8572
  554THF    H11 8340   1.761   2.276   4.689 -0.7737  0.6870 -0.9139
  554THF    H12 8341   1.717   2.342   4.471 -1.0149 -0.2189 -0.9495
  554THF    H13 8342   1.882   2.302   4.416 -0.9040 -0.6436 -0.5099
  555THF     O1 8343   0.606   0.490   3.728  0.0762 -0.2293 -0.0282
  555THF     C2 8344   0.471   0.516   3.708 -0.5103 -0.1965  0.0487
  555THF     C3 8345   0.685   0.599   3.698  0.1655  0.1326  0.2845
  555THF     H4 8346   0.410   0.493   3.796 -2.2718  0.7627 -0.8563
  555THF     H5 8347   0.433   0.460   3.623  0.9388 -1.1341 -0.0137
  555THF     H6 8348   0.773   0.594   3.763  0.2479 -1.0765  0.1009
  555THF     H7 8349   0.716   0.585   3.595  0.0393  1.0988  0.1043
  555THF     C8 8350   0.598   0.715   3.734 -0.0109 -0.1328  0.8139
  555THF     C9 8351   0.458   0.664   3.681  0.0025 -0.1627 -0.0746
  555THF    H10 8352   0.627   0.802   3.674  1.2946 -1.4942 -0.6604
  555THF    H11 8353   0.597   0.732   3.841  1.0259 -1.1446  1.0071
  555THF    H12 8354   0.370   0.705   3.731  0.2222 -1.0132  1.0285
  555THF    H13 8355   0.450   0.682   3.574  1.5113 -0.7537 -0.3077
  556THF     O1 8356   5.190   4.865   4.556 -0.4306 -0.3154 -0.2686
  556THF     C2 8357   5.145   4.972   4.646 -0.2597  0.4090 -0.0501
  556THF     C3 8358   5.153   4.893   4.420  0.1282 -0.6296  0.1911
  556THF     H4 8359   5.232   5.027   4.680  1.5185 -1.1154 -1.8800
  556THF     H5 8360   5.087   4.939   4.732 -1.5914 -0.9261 -1.3939
  556THF     H6 8361   5.224   4.966   4.381 -0.5274  1.1238  2.0933
  556THF     H7 8362   5.147   4.811   4.348 -0.1222 -0.6354  0.2191
  556THF     C8 8363   5.022   4.971   4.442  0.2352  0.6367 -0.2490
  556THF     C9 8364   5.048   5.055   4.564 -0.2218  0.2616  0.6360
  556THF    H10 8365   4.944   4.904   4.477  1.0247 -0.6130 -0.7781
  556THF    H11 8366   4.980   5.024   4.357  0.9894 -1.1831 -1.8403
  556THF    H12 8367   5.104   5.141   4.528 -2.4696  2.8077  2.7589
  556THF    H13 8368   4.966   5.092   4.626 -0.1516  0.6521  0.4972
  557THF     O1 8369   3.742   1.139   0.460  0.2777 -0.2904  0.2639
  557THF     C2 8370   3.683   1.030   0.395 -0.5657  0.2258 -1.2839
  557THF     C3 8371   3.689   1.258   0.394 -0.8410  0.1834 -0.7934
  557THF     H4 8372   3.579   1.022   0.423 -0.2469 -1.0878 -0.4355
  557THF     H5 8373   3.730   0.935   0.419 -0.7701  0.1405 -1.2296
  557THF     H6 8374   3.598   1.297   0.441 -2.7936 -2.9583 -1.6513
  557THF     H7 8375   3.764   1.336   0.399 -0.3725 -0.2376 -1.1989
  557THF     C8 8376   3.651   1.217   0.254  0.3628 -0.9233  0.3361
  557THF     C9 8377   3.701   1.075   0.254  0.2960  0.2922  0.8360
  557THF    H10 8378   3.694   1.272   0.171  0.0494 -0.6099  0.3789
  557THF    H11 8379   3.543   1.210   0.242 -0.1175  1.8461  2.1336
  557THF    H12 8380   3.647   1.005   0.190 -0.8941  0.4289  1.6514
  557THF    H13 8381   3.804   1.061   0.221  0.0733 -0.4287  0.4388
  558THF     O1 8382   3.181   5.446   4.174  0.4697  0.4576 -0.1004
  558THF     C2 8383   3.108   5.536   4.259  0.7155  0.0636  0.0119
  558THF     C3 8384   3.289   5.507   4.106  0.7189  0.1141  0.2643
  558THF     H4 8385   3.103   5.502   4.362 -1.2657  0.6435  0.1551
  558THF     H5 8386   3.005   5.557   4.231  1.0196  2.3792  0.4453
  558THF     H6 8387   3.380   5.473   4.156  1.2440 -0.0552 -0.7729
  558THF     H7 8388   3.301   5.467   4.005 -1.1207 -1.7013  0.6870
  558THF     C8 8389   3.252   5.654   4.111  0.0240  0.4749 -0.1882
  558THF     C9 8390   3.182   5.668   4.247 -0.5920  0.3958 -0.5323
  558THF    H10 8391   3.175   5.669   4.035 -0.8449  0.0210  0.5737
  558THF    H11 8392   3.340   5.717   4.098  0.9708 -0.9756 -1.1091
  558THF    H12 8393   3.250   5.666   4.332 -1.3800 -0.1392  0.1019
  558THF    H13 8394   3.114   5.753   4.251  1.7609  2.3380  1.0303
  559THF     O1 8395   1.551   0.621   3.306 -0.5297  0.4414 -0.7909
  559THF     C2 8396   1.432   0.656   3.241  0.5256 -0.0782 -0.3199
  559THF     C3 8397   1.539   0.656   3.442 -0.8612  0.0387 -0.6724
  559THF     H4 8398   1.421   0.606   3.145 -0.5088  0.1509 -0.3365
  559THF     H5 8399   1.430   0.765   3.237 -3.4795  0.0809  1.3938
  559THF     H6 8400   1.618   0.599   3.490  0.9342  0.8448 -2.5118
  559THF     H7 8401   1.564   0.758   3.471 -0.2341 -1.0159  3.0303
  559THF     C8 8402   1.402   0.612   3.478  0.3915 -0.2165 -0.1059
  559THF     C9 8403   1.335   0.595   3.343  0.8508  0.2602  0.1222
  559THF    H10 8404   1.353   0.679   3.549  0.8428  1.3580 -1.2080
  559THF    H11 8405   1.404   0.517   3.531  2.2318  1.4341  3.0994
  559THF    H12 8406   1.316   0.491   3.315 -0.0840  0.8097 -1.3946
  559THF    H13 8407   1.241   0.649   3.339  0.6215 -0.2038 -1.1341
  560THF     O1 8408   0.822   1.260   3.921 -0.4298  0.1167 -0.1086
  560THF     C2 8409   0.753   1.236   3.801  0.0802 -0.1874 -0.3516
  560THF     C3 8410   0.729   1.268   4.025 -0.2678 -0.0291 -0.3904
  560THF     H4 8411   0.823   1.164   3.760  0.9676 -1.5944  3.2707
  560THF     H5 8412   0.724   1.314   3.730  0.7944  0.4491  0.0494
  560THF     H6 8413   0.771   1.252   4.124  0.7188 -1.1905 -0.9804
  560THF     H7 8414   0.676   1.363   4.028 -3.0570 -1.3811 -2.0860
  560THF     C8 8415   0.641   1.147   3.998  0.0002  0.2985  0.3341
  560THF     C9 8416   0.625   1.158   3.846  0.1452  0.5187  0.6449
  560THF    H10 8417   0.544   1.148   4.047  0.0182  0.3280  0.3687
  560THF    H11 8418   0.695   1.061   4.036 -0.7638  0.4463  1.7971
  560THF    H12 8419   0.609   1.059   3.803 -1.6105  1.1317 -0.2210
  560THF    H13 8420   0.532   1.208   3.821  0.2851 -0.0336 -1.1043
  561THF     O1 8421   3.007   1.918   3.294 -0.3058  0.8165  0.0647
  561THF     C2 8422   2.931   1.922   3.416 -0.3425 -0.7739 -1.0232
  561THF     C3 8423   3.068   2.046   3.287 -0.0193  0.1789 -0.2524
  561THF     H4 8424   2.991   1.911   3.506  0.1598 -2.1361 -1.5001
  561THF     H5 8425   2.854   1.845   3.414 -0.6741 -0.4627 -0.3158
  561THF     H6 8426   3.170   2.057   3.324  0.5000 -0.4859 -1.4240
  561THF     H7 8427   3.075   2.066   3.180  0.4170 -0.3568 -0.3304
  561THF     C8 8428   2.995   2.149   3.372 -0.3047  0.4611  0.2227
  561THF     C9 8429   2.882   2.067   3.431 -0.0629 -0.0385 -0.4088
  561THF    H10 8430   2.948   2.234   3.322 -1.7664  1.0508  2.4673
  561THF    H11 8431   3.062   2.183   3.451  0.4331 -0.6258  0.0753
  561THF    H12 8432   2.844   2.096   3.529 -0.7161 -2.3303  0.0683
  561THF    H13 8433   2.805   2.070   3.355  0.1353  1.2100 -0.5940
  562THF     O1 8434   4.073   5.088   2.743 -0.6668 -0.2691  0.3082
  562THF     C2 8435   3.957   5.154   2.696 -0.2020 -0.1696 -0.7463
  562THF     C3 8436   4.026   4.989   2.833 -0.1261  0.2917 -0.2078
  562THF     H4 8437   3.917   5.106   2.607 -0.3830  1.2607 -1.4615
  562THF     H5 8438   3.971   5.257   2.664 -0.7964 -0.0497 -0.6355
  562THF     H6 8439   3.996   4.901   2.775 -0.5964  0.2301  0.1184
  562THF     H7 8440   4.108   4.955   2.895 -1.3136 -1.9619  0.2474
  562THF     C8 8441   3.909   5.052   2.917  0.0460  0.2004  0.6624
  562THF     C9 8442   3.852   5.137   2.810 -0.2288 -0.4681  0.0930
  562THF    H10 8443   3.943   5.113   3.000 -0.0481  0.7392  0.3080
  562THF    H11 8444   3.836   4.988   2.965  0.6714 -1.5569 -0.6101
  562THF    H12 8445   3.763   5.084   2.776 -1.0222  0.8471  0.0552
  562THF    H13 8446   3.826   5.230   2.860  0.0774 -1.4286  2.1545
  563THF     O1 8447   4.740   4.782   2.120  0.2575  0.0669 -0.7298
  563THF     C2 8448   4.838   4.727   2.203 -0.2886 -0.4521 -0.2652
  563THF     C3 8449   4.641   4.838   2.205 -0.8220 -0.2492 -0.5666
  563THF     H4 8450   4.922   4.793   2.224  0.3589 -1.8373  1.7284
  563THF     H5 8451   4.871   4.633   2.159 -1.7043 -1.0533 -0.0956
  563THF     H6 8452   4.689   4.925   2.251 -0.6270  0.4398 -2.0207
  563THF     H7 8453   4.550   4.881   2.165  0.6727  3.5276 -0.3713
  563THF     C8 8454   4.630   4.737   2.316 -0.1356 -0.5483 -0.5511
  563THF     C9 8455   4.776   4.694   2.340 -0.6344 -0.5080  0.0482
  563THF    H10 8456   4.568   4.655   2.280 -0.5291 -0.3560 -0.3219
  563THF    H11 8457   4.583   4.774   2.408  2.5030 -0.3390  0.8159
  563THF    H12 8458   4.829   4.748   2.419  0.3775 -0.0690 -0.9140
  563THF    H13 8459   4.790   4.590   2.368  1.3699  0.4022  2.8769
  564THF     O1 8460   4.110   4.584   1.011 -0.0130 -0.2920 -0.4318
  564THF     C2 8461   4.002   4.511   1.069 -0.0220  0.2375 -0.1559
  564THF     C3 8462   4.230   4.560   1.083 -0.1532  0.4802 -0.1601
  564THF     H4 8463   3.932   4.475   0.994 -0.7305  1.9585 -0.3838
  564THF     H5 8464   3.952   4.581   1.136 -1.3139 -2.8971  2.3745
  564THF     H6 8465   4.313   4.557   1.013  1.2979 -0.1489  1.5234
  564THF     H7 8466   4.255   4.638   1.154  0.1345 -0.0584  0.3298
  564THF     C8 8467   4.216   4.421   1.155  0.2977  0.1023 -0.0857
  564THF     C9 8468   4.068   4.399   1.154 -0.3576  0.0296 -0.1127
  564THF    H10 8469   4.255   4.418   1.256  0.7736 -0.1347 -0.2717
  564THF    H11 8470   4.263   4.339   1.102 -0.0495  0.1669 -0.5035
  564THF    H12 8471   4.041   4.304   1.108  0.4259 -0.7198  0.9090
  564THF    H13 8472   4.033   4.385   1.257  0.0772 -2.2674 -0.2070
  565THF     O1 8473   0.033   4.489   0.692 -0.4353 -0.1637  0.2907
  565THF     C2 8474   0.067   4.554   0.819  0.0335  0.1644  0.1331
  565THF     C3 8475  -0.112   4.504   0.679 -0.3156 -0.5584 -0.7631
  565THF     H4 8476   0.113   4.652   0.804  1.8949 -1.0185 -2.8229
  565THF     H5 8477   0.153   4.497   0.855 -0.3928 -0.5847 -0.0318
  565THF     H6 8478  -0.147   4.555   0.589 -0.2342 -1.7999 -1.5287
  565THF     H7 8479  -0.167   4.414   0.705  0.2102 -0.4276  0.9134
  565THF     C8 8480  -0.150   4.598   0.803  0.1390  0.1949  0.1191
  565THF     C9 8481  -0.056   4.556   0.905 -0.5323 -0.4241  0.0520
  565THF    H10 8482  -0.256   4.586   0.823 -0.2196  2.1801 -0.3883
  565THF    H11 8483  -0.143   4.700   0.767 -0.4559 -0.8244 -3.2368
  565THF    H12 8484  -0.039   4.624   0.989  2.4472 -1.7209  0.6321
  565THF    H13 8485  -0.085   4.462   0.951  0.5791  0.0929  1.9237
  566THF     O1 8486   5.301   1.174   1.845  0.1205 -0.3200 -0.6184
  566THF     C2 8487   5.379   1.063   1.847  0.1234 -0.6182  0.1829
  566THF     C3 8488   5.166   1.131   1.849  0.4796 -0.1678 -0.6090
  566THF     H4 8489   5.487   1.082   1.853  0.4906 -2.2749 -0.7440
  566THF     H5 8490   5.374   1.010   1.752  0.4158 -0.9337  0.3400
  566THF     H6 8491   5.107   1.193   1.916  2.6514  0.9757  0.3601
  566THF     H7 8492   5.126   1.144   1.749  0.9724 -0.5119 -0.8543
  566THF     C8 8493   5.167   0.984   1.904  0.0567 -0.0770 -0.0667
  566THF     C9 8494   5.315   0.966   1.946 -0.6482 -0.3082  0.0344
  566THF    H10 8495   5.139   0.911   1.828  1.4100  0.1953 -0.8477
  566THF    H11 8496   5.105   0.971   1.993  1.2985  0.0066  0.8293
  566THF    H12 8497   5.335   0.991   2.050  0.1869 -2.4717  0.4456
  566THF    H13 8498   5.352   0.864   1.931  0.0444 -0.1611  0.6667
  567THF     O1 8499   4.866   4.764   5.465  0.4117 -0.0404  0.2550
  567THF     C2 8500   4.950   4.860   5.402 -0.5420  0.3087  0.6390
  567THF     C3 8501   4.921   4.730   5.592  0.0779 -0.2927 -0.1010
  567THF     H4 8502   4.931   4.962   5.433  2.0913  2.0460 -2.7929
  567THF     H5 8503   4.943   4.865   5.294  0.2591  1.9950  0.6389
  567THF     H6 8504   4.865   4.794   5.660 -0.8198  0.2892 -1.3443
  567THF     H7 8505   4.904   4.623   5.608  1.0129 -0.3174  0.8041
  567THF     C8 8506   5.063   4.772   5.591  0.5061  0.2591 -0.7947
  567THF     C9 8507   5.085   4.815   5.449 -0.6101  0.0623  0.2782
  567THF    H10 8508   5.123   4.687   5.623  1.5491  1.6539  1.1362
  567THF    H11 8509   5.081   4.845   5.670 -1.2877 -0.6893  0.5584
  567THF    H12 8510   5.157   4.894   5.429 -0.5693 -0.4081 -1.6364
  567THF    H13 8511   5.117   4.728   5.391 -0.2803  0.1035  0.3985
  568THF     O1 8512   4.220   3.456   5.090  0.5678 -0.1104 -0.2665
  568THF     C2 8513   4.136   3.556   5.147  0.6232 -0.2892 -0.1635
  568THF     C3 8514   4.176   3.327   5.138  0.0185 -0.3342  0.2059
  568THF     H4 8515   4.062   3.583   5.072 -0.9198 -0.9887  1.0369
  568THF     H5 8516   4.190   3.645   5.180 -0.5074  0.6072 -0.6377
  568THF     H6 8517   4.094   3.286   5.080 -1.8370  3.3132 -0.0154
  568THF     H7 8518   4.246   3.244   5.151 -1.8936 -2.1052 -0.3470
  568THF     C8 8519   4.127   3.361   5.279 -0.2327 -0.2485 -0.8053
  568THF     C9 8520   4.066   3.497   5.273 -0.2835 -0.2385  0.5543
  568THF    H10 8521   4.220   3.376   5.335  0.4707  1.5568 -2.3741
  568THF    H11 8522   4.068   3.290   5.337 -1.8389  1.2503 -0.5254
  568THF    H12 8523   3.962   3.479   5.245 -1.1483  2.3324  1.8267
  568THF    H13 8524   4.069   3.549   5.368 -1.4104  1.4281 -0.2788
  569THF     O1 8525   1.908   1.750   1.295  0.4953  0.0201  0.7023
  569THF     C2 8526   1.896   1.838   1.182 -0.7036 -0.5228 -0.6061
  569THF     C3 8527   1.799   1.787   1.383 -0.2083 -0.2324 -0.1772
  569THF     H4 8528   1.825   1.801   1.107 -0.9229 -2.7924  0.6389
  569THF     H5 8529   1.993   1.859   1.136 -0.0384 -2.7311 -0.3589
  569THF     H6 8530   1.706   1.744   1.347  1.3724  0.2283 -5.7944
  569THF     H7 8531   1.825   1.738   1.476  0.4902  0.7325  0.1544
  569THF     C8 8532   1.792   1.937   1.384  0.5692 -0.6574  0.0314
  569THF     C9 8533   1.846   1.970   1.244 -0.2748 -0.3227  0.2896
  569THF    H10 8534   1.855   1.955   1.471  0.3406 -2.0734  0.5188
  569THF    H11 8535   1.693   1.982   1.395  1.0625  0.1651  1.2707
  569THF    H12 8536   1.773   2.007   1.171  0.8727  1.7356  0.1029
  569THF    H13 8537   1.931   2.036   1.258  1.0867 -1.5498 -1.6724
  570THF     O1 8538   3.268   1.001   2.615  0.1433 -0.1719 -0.0756
  570THF     C2 8539   3.302   1.004   2.760 -0.1345  0.0326  0.5574
  570THF     C3 8540   3.387   0.955   2.548  0.0071 -0.2600 -0.4217
  570THF     H4 8541   3.204   1.002   2.809 -0.9421 -0.7096 -0.9912
  570THF     H5 8542   3.347   1.101   2.779 -1.7876  1.0441 -0.4035
  570THF     H6 8543   3.373   0.933   2.443 -1.5526 -2.4141  0.1647
  570THF     H7 8544   3.465   1.032   2.555 -2.2449  2.1241 -0.0148
  570THF     C8 8545   3.428   0.835   2.631 -0.4793  0.6126  0.3064
  570THF     C9 8546   3.379   0.873   2.770 -0.1828 -0.0169  0.0361
  570THF    H10 8547   3.535   0.819   2.618 -0.4334  1.5106 -0.5550
  570THF    H11 8548   3.364   0.751   2.604  1.4564 -0.6711 -0.5188
  570THF    H12 8549   3.299   0.803   2.794 -0.0670 -0.5600 -1.1174
  570THF    H13 8550   3.465   0.876   2.837  1.7442 -0.6820 -2.2488
  571THF     O1 8551   0.150   4.892   1.730 -0.0845 -0.6404  0.3719
  571THF     C2 8552   0.089   4.929   1.607  0.2902 -0.4364  0.4265
  571THF     C3 8553   0.187   4.756   1.722  0.2342 -0.1428  0.4568
  571THF     H4 8554   0.162   4.956   1.531  0.3856 -0.0747  0.6469
  571THF     H5 8555   0.028   5.014   1.634  0.3616  0.2079 -1.3211
  571THF     H6 8556   0.276   4.751   1.660 -2.1923 -0.2445 -3.3388
  571THF     H7 8557   0.201   4.722   1.825 -1.0743 -0.8757  0.4047
  571THF     C8 8558   0.067   4.697   1.654  0.2511  0.9462 -0.3368
  571THF     C9 8559   0.010   4.807   1.562  0.3554  0.4465  0.8751
  571THF    H10 8560   0.003   4.667   1.736 -1.5508 -1.5782 -2.4820
  571THF    H11 8561   0.087   4.604   1.601  3.6373  1.6201 -0.4495
  571THF    H12 8562   0.042   4.792   1.458 -0.6845  3.1691  0.0739
  571THF    H13 8563  -0.098   4.818   1.562  0.3480  0.4613  1.9474
  572THF     O1 8564   4.552   1.982   0.270  0.1310  0.8199  0.1571
  572THF     C2 8565   4.546   2.058   0.151  0.1509 -0.2160  0.3141
  572THF     C3 8566   4.539   2.069   0.378  0.5291  0.4495  0.0594
  572THF     H4 8567   4.501   2.004   0.068  0.1393  0.6478 -0.2599
  572THF     H5 8568   4.648   2.084   0.122  0.2675 -1.9498 -0.9932
  572THF     H6 8569   4.508   2.010   0.464  0.7885  0.8034  0.3991
  572THF     H7 8570   4.637   2.114   0.397  0.8745  0.1847 -0.9872
  572THF     C8 8571   4.433   2.162   0.340 -0.2674 -0.2731  0.3485
  572THF     C9 8572   4.464   2.184   0.191 -0.0058 -0.8284  0.8468
  572THF    H10 8573   4.439   2.251   0.403  1.2489  0.3757 -0.6532
  572THF    H11 8574   4.346   2.098   0.357 -0.8361  0.5385  0.5465
  572THF    H12 8575   4.375   2.205   0.132  0.6307  3.2292  1.0449
  572THF    H13 8576   4.513   2.278   0.168  0.3195 -0.7496  1.8090
  573THF     O1 8577   3.068   4.044   3.649  0.4708 -0.0380 -0.0500
  573THF     C2 8578   3.117   3.962   3.546  0.3531 -0.3111  0.1662
  573THF     C3 8579   3.028   4.175   3.615  1.0395  0.2473 -0.1865
  573THF     H4 8580   3.033   3.916   3.494  0.0049 -1.3990  1.6433
  573THF     H5 8581   3.193   3.890   3.576  1.7102 -0.0435 -2.3041
  573THF     H6 8582   2.930   4.196   3.574  1.1063  0.0346 -0.4556
  573THF     H7 8583   3.049   4.243   3.698  0.1500 -0.6597  0.8087
  573THF     C8 8584   3.130   4.212   3.507 -0.5348 -0.2326  0.1074
  573THF     C9 8585   3.164   4.077   3.451 -0.3131  0.7094 -1.0332
  573THF    H10 8586   3.220   4.259   3.546  0.2200 -0.5704 -1.1804
  573THF    H11 8587   3.104   4.283   3.429  0.8534  0.7297  0.4831
  573THF    H12 8588   3.116   4.051   3.357 -0.2657 -0.5009 -0.7396
  573THF    H13 8589   3.273   4.076   3.455 -0.3419 -0.1177 -0.1116
  574THF     O1 8590   2.453   3.588   0.827  0.3843 -0.5935  0.6160
  574THF     C2 8591   2.530   3.708   0.822 -0.2491  0.4039 -0.7115
  574THF     C3 8592   2.543   3.486   0.866  0.2050 -0.3660 -0.2881
  574THF     H4 8593   2.521   3.750   0.923  0.9297 -1.4578  0.2157
  574THF     H5 8594   2.490   3.786   0.757  2.4409  1.7449 -0.9089
  574THF     H6 8595   2.532   3.448   0.967  1.3275  0.0238 -0.0054
  574THF     H7 8596   2.507   3.404   0.804 -2.2050  0.1825  0.2878
  574THF     C8 8597   2.683   3.527   0.836 -0.2640  0.5998 -0.4462
  574THF     C9 8598   2.673   3.669   0.783  0.1615 -0.3001  0.0354
  574THF    H10 8599   2.738   3.461   0.768  0.8633  1.5420 -0.4920
  574THF    H11 8600   2.753   3.525   0.919  0.1179 -1.2008 -0.7649
  574THF    H12 8601   2.750   3.738   0.819 -0.0889  1.6270 -2.7523
  574THF    H13 8602   2.682   3.661   0.675  1.0000  2.4355 -0.1921
  575THF     O1 8603   3.646   0.417   1.578  0.1755 -0.2421 -0.5321
  575THF     C2 8604   3.771   0.495   1.576  0.0556 -0.1247  0.0476
  575THF     C3 8605   3.678   0.294   1.522  0.3158 -0.4044 -0.0551
  575THF     H4 8606   3.784   0.584   1.638 -1.0322 -0.0215  0.1451
  575THF     H5 8607   3.789   0.527   1.474 -1.4259 -1.9802 -0.8713
  575THF     H6 8608   3.601   0.217   1.517 -0.0137 -0.0914  0.1811
  575THF     H7 8609   3.699   0.305   1.415  2.6922  1.1885  0.4881
  575THF     C8 8610   3.809   0.246   1.581 -0.5391 -0.1568  0.5483
  575THF     C9 8611   3.874   0.383   1.615 -0.0681 -0.8977  0.7191
  575THF    H10 8612   3.852   0.177   1.508 -2.1889 -0.4255 -0.2066
  575THF    H11 8613   3.792   0.189   1.672 -0.6613 -0.1188  0.5499
  575THF    H12 8614   3.895   0.405   1.720  1.1008  0.1067  0.2862
  575THF    H13 8615   3.963   0.383   1.552 -0.6860  0.0342 -0.1813
  576THF     O1 8616   1.422   3.040   3.479 -0.8259 -0.4899 -0.3774
  576THF     C2 8617   1.311   2.969   3.516  1.4089  0.9393  0.0711
  576THF     C3 8618   1.495   3.076   3.594 -0.3088 -0.3997 -0.9383
  576THF     H4 8619   1.343   2.871   3.552 -0.7446  1.1615  2.9804
  576THF     H5 8620   1.253   2.939   3.429  0.9128  0.9920  0.3841
  576THF     H6 8621   1.545   2.993   3.645 -0.7326 -0.0153  0.1384
  576THF     H7 8622   1.572   3.149   3.572  0.5769 -1.3148 -0.9497
  576THF     C8 8623   1.374   3.127   3.674 -0.5018  0.0778 -0.7980
  576THF     C9 8624   1.253   3.040   3.640  0.4505  0.4385 -0.0409
  576THF    H10 8625   1.358   3.228   3.637  0.7362  1.0989  1.2688
  576THF    H11 8626   1.392   3.136   3.781 -1.2938 -1.8830 -0.4567
  576THF    H12 8627   1.233   2.967   3.719  0.6652  0.6614  0.2214
  576THF    H13 8628   1.166   3.102   3.620  1.2280  1.7181  0.4576
  577THF     O1 8629   3.527   4.221   2.076  0.4399 -0.6366 -0.0638
  577THF     C2 8630   3.463   4.224   2.199  0.5024 -0.0702  0.2309
  577THF     C3 8631   3.558   4.352   2.040  0.0931  0.2621  0.4515
  577THF     H4 8632   3.534   4.212   2.281  0.9598  1.0968  0.0252
  577THF     H5 8633   3.391   4.143   2.212  2.4424 -1.6336  1.9830
  577THF     H6 8634   3.649   4.378   2.095 -0.3772 -0.2522  1.5128
  577THF     H7 8635   3.578   4.374   1.935 -1.4743 -1.3903 -0.2426
  577THF     C8 8636   3.439   4.437   2.096  0.1069  0.0230 -0.5894
  577THF     C9 8637   3.415   4.364   2.225 -0.1640 -0.3216 -0.4542
  577THF    H10 8638   3.355   4.427   2.028 -0.0825  2.3845 -0.7596
  577THF    H11 8639   3.462   4.543   2.108 -1.2113  0.2486  0.1832
  577THF    H12 8640   3.474   4.404   2.308 -0.4249 -0.3534 -0.2539
  577THF    H13 8641   3.311   4.355   2.255  0.1110  0.7795  0.9119
  578THF     O1 8642   0.241   2.677   4.954  0.1140 -0.3913 -0.3293
  578THF     C2 8643   0.101   2.690   4.926 -0.6382 -0.0857  0.0054
  578THF     C3 8644   0.261   2.538   4.965  0.1255  0.3890 -0.4096
  578THF     H4 8645   0.063   2.677   4.824 -1.6599 -0.4293  0.4197
  578THF     H5 8646   0.069   2.787   4.963  0.0889  0.7011 -1.3417
  578THF     H6 8647   0.288   2.488   4.872  3.8082  2.4061 -0.5991
  578THF     H7 8648   0.343   2.523   5.035 -0.8507 -2.7150  0.2046
  578THF     C8 8649   0.129   2.474   5.020 -0.2843 -0.6009  0.8344
  578THF     C9 8650   0.031   2.585   5.016 -0.2706 -0.3219  0.1900
  578THF    H10 8651   0.147   2.433   5.120 -0.2187  0.1894  1.1545
  578THF    H11 8652   0.111   2.387   4.957  0.3915  0.3860 -0.7679
  578THF    H12 8653  -0.069   2.560   4.981 -0.0286 -0.1080 -0.6692
  578THF    H13 8654   0.013   2.628   5.114 -0.8416 -0.0792 -0.0210
  579THF     O1 8655   4.432   2.299   1.210  0.0642  0.7565  0.0182
  579THF     C2 8656   4.458   2.160   1.207  0.1394  0.3222 -0.2234
  579THF     C3 8657   4.338   2.328   1.107  0.1092  0.0555  0.6676
  579THF     H4 8658   4.497   2.126   1.303  1.0626 -0.5222 -0.8757
  579THF     H5 8659   4.525   2.134   1.126  0.9211 -3.1567  1.3174
  579THF     H6 8660   4.291   2.427   1.107  0.1556  0.0814 -0.1700
  579THF     H7 8661   4.383   2.313   1.009  0.1847  2.5866  0.2361
  579THF     C8 8662   4.238   2.215   1.132 -0.0859 -0.0849  0.0788
  579THF     C9 8663   4.323   2.095   1.176 -0.1494 -0.7486 -0.0052
  579THF    H10 8664   4.175   2.183   1.049 -1.0970  0.9025  0.4331
  579THF    H11 8665   4.175   2.243   1.216  1.2647  0.8772  0.8069
  579THF    H12 8666   4.273   2.067   1.269  0.1946 -0.9656  0.1145
  579THF    H13 8667   4.342   2.020   1.100  1.9468  0.1650 -0.4432
  580THF     O1 8668   2.198   2.985   2.443  0.4858  0.2122 -0.0619
  580THF     C2 8669   2.315   2.911   2.405  0.4811 -0.5554  0.5449
  580THF     C3 8670   2.203   3.111   2.377 -0.1912  0.5783 -0.3769
  580THF     H4 8671   2.284   2.830   2.338 -2.0307 -0.8342  1.9191
  580THF     H5 8672   2.351   2.857   2.492 -0.8357 -2.7029 -0.1676
  580THF     H6 8673   2.096   3.120   2.358 -0.3534 -0.8290 -0.2184
  580THF     H7 8674   2.231   3.191   2.446  1.4735  0.1404 -0.5090
  580THF     C8 8675   2.309   3.096   2.264  0.6526 -0.7862 -0.1074
  580THF     C9 8676   2.404   3.012   2.335  0.3497  0.5779 -0.1149
  580THF    H10 8677   2.356   3.192   2.240 -0.1645 -0.5908 -0.9994
  580THF    H11 8678   2.275   3.051   2.171 -0.5527  0.5639 -0.3536
  580THF    H12 8679   2.475   2.963   2.269 -0.1429 -0.7634  0.3077
  580THF    H13 8680   2.449   3.075   2.411 -0.3585  2.1981 -1.0050
  581THF     O1 8681   0.018   4.821   2.034  0.1427 -0.0623  0.1518
  581THF     C2 8682   0.047   4.771   2.164 -0.3331  0.4947  0.0693
  581THF     C3 8683  -0.119   4.797   2.000  0.6082  0.0613 -0.9955
  581THF     H4 8684   0.135   4.819   2.207 -0.7802 -0.5599  2.3040
  581THF     H5 8685   0.074   4.666   2.157  0.9748  0.8486 -0.3716
  581THF     H6 8686  -0.153   4.863   1.920 -0.1732  1.1232  0.1710
  581THF     H7 8687  -0.134   4.697   1.959  0.7608 -0.8650  1.1087
  581THF     C8 8688  -0.185   4.818   2.139  0.2232  0.1168  0.0306
  581THF     C9 8689  -0.085   4.774   2.242 -0.3506 -0.1169 -0.0338
  581THF    H10 8690  -0.281   4.767   2.152 -0.2887  1.5014  2.2428
  581THF    H11 8691  -0.199   4.925   2.157  0.6064  0.4403 -1.5307
  581THF    H12 8692  -0.072   4.847   2.322  1.7265  1.4068 -1.6464
  581THF    H13 8693  -0.102   4.675   2.285  1.3691  0.1197  1.3045
  582THF     O1 8694   1.725   3.266   2.013 -0.5557  0.7039  0.6896
  582THF     C2 8695   1.633   3.273   2.118  0.2140 -0.1308 -0.1894
  582THF     C3 8696   1.638   3.264   1.888 -0.5247  0.4577  0.2226
  582THF     H4 8697   1.678   3.316   2.207 -0.3826  1.3022 -0.5430
  582THF     H5 8698   1.593   3.173   2.136  1.2551 -0.5313 -0.0499
  582THF     H6 8699   1.691   3.299   1.800 -0.6961 -0.3003 -0.1848
  582THF     H7 8700   1.589   3.170   1.865  0.7536 -0.6394  1.7033
  582THF     C8 8701   1.522   3.349   1.920 -0.2908 -0.3210 -0.3240
  582THF     C9 8702   1.524   3.378   2.067  0.7160 -0.3006 -0.0852
  582THF    H10 8703   1.436   3.299   1.875 -0.1182 -1.5196  0.6269
  582THF    H11 8704   1.521   3.446   1.871  0.4540  0.0223  0.3239
  582THF    H12 8705   1.563   3.478   2.085  0.3164 -0.1778  0.1090
  582THF    H13 8706   1.423   3.368   2.106  1.1783  0.4733  1.4151
  583THF     O1 8707   4.819   2.841   0.078  0.0958  0.2960 -0.0246
  583THF     C2 8708   4.793   2.919  -0.039  0.3206 -0.1347  0.0303
  583THF     C3 8709   4.813   2.930   0.190  0.1548 -0.1893  0.0629
  583THF     H4 8710   4.760   2.853  -0.119  0.3963  0.2376 -0.3120
  583THF     H5 8711   4.891   2.958  -0.065  0.3245  0.0280  0.2797
  583THF     H6 8712   4.825   2.888   0.290  1.0290  0.8678  0.4197
  583THF     H7 8713   4.895   3.002   0.183 -0.0409 -0.0320 -0.6813
  583THF     C8 8714   4.683   3.006   0.171  0.0290 -0.6276 -0.6196
  583THF     C9 8715   4.686   3.019   0.012  0.4504 -0.6641  0.0306
  583THF    H10 8716   4.684   3.092   0.238  2.9662 -1.8346  1.0189
  583THF    H11 8717   4.608   2.930   0.189 -1.9175  0.9937 -1.3709
  583THF    H12 8718   4.588   2.990  -0.024  1.5329 -2.5995 -1.5411
  583THF    H13 8719   4.712   3.120  -0.021 -0.7803  0.0575  1.1493
  584THF     O1 8720   1.810   1.245   1.195 -0.7202  0.2352 -0.6107
  584THF     C2 8721   1.849   1.364   1.130 -0.6088 -0.0037 -0.1707
  584THF     C3 8722   1.690   1.203   1.142  0.3934  0.1168  0.2528
  584THF     H4 8723   1.894   1.346   1.033  0.2419  1.3868 -0.0550
  584THF     H5 8724   1.920   1.419   1.191 -1.1452  0.7492 -0.2100
  584THF     H6 8725   1.694   1.122   1.070  0.4083 -0.4820  0.9061
  584THF     H7 8726   1.626   1.151   1.215 -2.3384  1.0536 -1.3310
  584THF     C8 8727   1.617   1.333   1.093  0.7550 -0.0392 -0.1052
  584THF     C9 8728   1.718   1.445   1.112 -0.7136  0.0660  0.1960
  584THF    H10 8729   1.517   1.342   1.135 -0.7965  1.3420 -3.6665
  584THF    H11 8730   1.583   1.330   0.989 -1.3856  1.2332  0.5069
  584THF    H12 8731   1.731   1.528   1.042 -0.1136 -0.3465 -0.1895
  584THF    H13 8732   1.682   1.479   1.209  0.0903  1.2186  0.1101
  585THF     O1 8733   2.745   0.812   0.575  0.1993 -0.0224 -0.0355
  585THF     C2 8734   2.887   0.792   0.576  0.2533 -0.6504 -0.1155
  585THF     C3 8735   2.695   0.743   0.468 -0.2528  0.0273  0.2484
  585THF     H4 8736   2.935   0.760   0.669  2.5530  1.0067 -0.6408
  585THF     H5 8737   2.936   0.886   0.549  1.5355 -0.2495  3.1797
  585THF     H6 8738   2.646   0.651   0.499 -1.5028  0.1473 -1.2573
  585THF     H7 8739   2.631   0.818   0.421  0.8839  0.0711 -1.3100
  585THF     C8 8740   2.813   0.714   0.379 -0.7595  0.3216 -0.1510
  585THF     C9 8741   2.915   0.677   0.482  0.6347 -0.1660 -0.1586
  585THF    H10 8742   2.838   0.807   0.328  2.1354  0.5026  1.3944
  585THF    H11 8743   2.818   0.639   0.299  2.5042  0.8922 -0.6380
  585THF    H12 8744   2.898   0.582   0.531 -0.5064 -1.3200 -2.6127
  585THF    H13 8745   3.022   0.669   0.459  0.8198 -1.3899  0.9925
  586THF     O1 8746   2.216   4.826   1.517  0.3875 -0.2147  0.4307
  586THF     C2 8747   2.330   4.883   1.582  0.9097  0.1411  1.0804
  586THF     C3 8748   2.145   4.740   1.595  0.0897  0.0009 -0.3007
  586THF     H4 8749   2.319   4.959   1.659  1.7603  0.0600  1.2877
  586THF     H5 8750   2.403   4.906   1.505 -0.6955 -1.1846 -0.9653
  586THF     H6 8751   2.096   4.797   1.674  0.4306  1.1762 -0.9049
  586THF     H7 8752   2.072   4.680   1.541  0.0213 -0.0168 -0.1867
  586THF     C8 8753   2.263   4.658   1.647  0.3633  0.5585 -0.1920
  586THF     C9 8754   2.378   4.753   1.648  0.4949  0.0696 -0.5479
  586THF    H10 8755   2.282   4.570   1.586 -2.7322 -1.8106  1.9647
  586THF    H11 8756   2.248   4.618   1.747 -1.1539 -1.9470 -1.3090
  586THF    H12 8757   2.427   4.765   1.744 -1.2632  0.5966  0.3230
  586THF    H13 8758   2.458   4.712   1.587 -0.0161 -0.9893 -0.5324
  587THF     O1 8759   4.615   5.411   3.447  0.1210  0.0175 -0.0123
  587THF     C2 8760   4.732   5.456   3.396 -0.0910 -0.5990  0.0431
  587THF     C3 8761   4.632   5.270   3.475  0.4913  0.3155  0.2355
  587THF     H4 8762   4.736   5.564   3.412 -1.1399 -0.5650  0.1644
  587THF     H5 8763   4.731   5.422   3.293 -0.5551 -0.1296 -0.1124
  587THF     H6 8764   4.553   5.240   3.544 -0.2852  1.3340 -0.1846
  587THF     H7 8765   4.626   5.216   3.381 -0.0233  0.6601  0.0640
  587THF     C8 8766   4.773   5.260   3.534 -0.3383  0.1362 -0.1371
  587THF     C9 8767   4.842   5.381   3.471 -0.2326  0.1458  0.4166
  587THF    H10 8768   4.815   5.163   3.507 -2.5317 -0.9223 -0.0273
  587THF    H11 8769   4.773   5.275   3.642  1.6695 -2.1465  0.2703
  587THF    H12 8770   4.880   5.450   3.547 -1.8832  0.5702  0.8993
  587THF    H13 8771   4.914   5.351   3.396 -1.2779  0.8683 -0.9189
  588THF     O1 8772   3.596   5.483   2.078  0.6827 -0.1182  0.0399
  588THF     C2 8773   3.711   5.412   2.112  0.0852 -0.2553  0.1308
  588THF     C3 8774   3.631   5.608   2.026  0.0195 -0.3361 -0.4268
  588THF     H4 8775   3.712   5.326   2.044 -1.0707 -0.8827  0.8901
  588THF     H5 8776   3.702   5.367   2.211  3.0039  0.4212  0.7976
  588THF     H6 8777   3.583   5.624   1.929 -0.5032  1.5931  0.1106
  588THF     H7 8778   3.592   5.686   2.091  0.6396  0.1168 -0.5941
  588THF     C8 8779   3.784   5.604   2.018 -0.0339 -0.4813 -0.1330
  588THF     C9 8780   3.829   5.500   2.119 -0.4153  0.5124  0.0485
  588THF    H10 8781   3.835   5.700   2.027  0.1974 -0.8150  3.9128
  588THF    H11 8782   3.796   5.571   1.915  1.2070  0.0803 -0.1972
  588THF    H12 8783   3.922   5.447   2.095 -1.3813 -1.6426  0.8024
  588THF    H13 8784   3.851   5.549   2.214  1.1955  1.2882 -0.6709
  589THF     O1 8785   2.454   2.678   2.166  0.5148  0.9107  0.6763
  589THF     C2 8786   2.405   2.749   2.053  0.2968  0.2051 -0.5448
  589THF     C3 8787   2.512   2.554   2.116 -0.0768 -0.3110  0.1419
  589THF     H4 8788   2.490   2.801   2.010  1.8413 -0.6660  1.2938
  589THF     H5 8789   2.319   2.812   2.077  0.3072 -0.3674  1.1109
  589THF     H6 8790   2.612   2.584   2.085 -0.8182  0.7511 -1.2806
  589THF     H7 8791   2.517   2.481   2.197  0.5798  1.2835  1.6075
  589THF     C8 8792   2.430   2.511   1.994 -0.1297 -0.2265 -0.1844
  589THF     C9 8793   2.360   2.638   1.957 -0.3930  0.0574  0.3284
  589THF    H10 8794   2.369   2.421   2.006  0.4358 -0.9718 -2.3702
  589THF    H11 8795   2.499   2.485   1.914  2.5462  2.6862  0.9737
  589THF    H12 8796   2.380   2.670   1.855 -1.1754  0.3481  0.2630
  589THF    H13 8797   2.255   2.609   1.966 -0.1260 -1.1438 -0.1746
  590THF     O1 8798   2.563   3.563   2.049 -0.4909 -0.0603  0.1311
  590THF     C2 8799   2.494   3.551   2.172  0.1759  0.1840 -0.0262
  590THF     C3 8800   2.465   3.569   1.943  0.1223 -0.6338 -0.5611
  590THF     H4 8801   2.525   3.634   2.235  0.3705  0.4689 -0.4926
  590THF     H5 8802   2.515   3.461   2.231 -0.5886  1.1474  1.7871
  590THF     H6 8803   2.503   3.630   1.861 -0.0075  0.9369  0.5052
  590THF     H7 8804   2.437   3.469   1.909 -0.7443 -1.6954  2.8765
  590THF     C8 8805   2.339   3.628   2.017  0.0927  0.3762  0.5073
  590THF     C9 8806   2.344   3.566   2.154  0.6082  0.6118  0.0469
  590THF    H10 8807   2.248   3.612   1.960 -0.4343 -2.3455  1.9206
  590THF    H11 8808   2.357   3.734   2.029 -1.1527  0.3682  2.8151
  590THF    H12 8809   2.290   3.629   2.224  0.7901  1.2810 -0.4053
  590THF    H13 8810   2.298   3.468   2.144  3.4515 -0.8924  0.5068
  591THF     O1 8811   3.582   0.931   3.188  0.4809 -0.0865 -0.1977
  591THF     C2 8812   3.691   0.956   3.274 -0.8049 -0.6661 -0.4944
  591THF     C3 8813   3.633   0.903   3.059 -0.0506  0.1001 -0.3047
  591THF     H4 8814   3.671   0.937   3.380  0.0516  1.2234  0.0421
  591THF     H5 8815   3.692   1.065   3.278 -2.9145 -0.6046 -0.3879
  591THF     H6 8816   3.587   0.819   3.007  1.4823 -1.5560  0.8977
  591THF     H7 8817   3.606   0.989   2.997  2.0614  0.4515 -0.8217
  591THF     C8 8818   3.782   0.895   3.069 -0.5192  0.0441 -0.6816
  591THF     C9 8819   3.811   0.883   3.222  0.4384 -0.3640  0.1547
  591THF    H10 8820   3.826   0.980   3.018 -0.5075 -1.5179 -3.4585
  591THF    H11 8821   3.819   0.806   3.017 -1.5056 -0.4210 -0.6095
  591THF    H12 8822   3.813   0.779   3.254  0.5760 -0.3434  0.2152
  591THF    H13 8823   3.901   0.932   3.259  0.1682  0.1918  0.0958
  592THF     O1 8824   0.542   2.015   0.461 -0.3849 -0.2004  0.1848
  592THF     C2 8825   0.615   1.966   0.574  0.0834 -0.0382 -0.0306
  592THF     C3 8826   0.567   2.153   0.461 -0.0615 -0.1198  0.3167
  592THF     H4 8827   0.649   1.868   0.539  0.3789 -0.1901  0.6778
  592THF     H5 8828   0.552   1.955   0.662 -1.0462  0.0226 -0.8155
  592THF     H6 8829   0.550   2.194   0.361 -0.2709  0.4977  0.5977
  592THF     H7 8830   0.502   2.200   0.535 -0.1692 -0.6212  0.5439
  592THF     C8 8831   0.712   2.168   0.501  0.4536 -0.1949 -0.2215
  592THF     C9 8832   0.727   2.065   0.601  0.6187  0.0303 -0.2014
  592THF    H10 8833   0.738   2.268   0.536 -1.1627  0.7056 -1.4475
  592THF    H11 8834   0.768   2.131   0.415 -1.2050 -1.7642 -0.6706
  592THF    H12 8835   0.817   2.005   0.590  0.9135  0.4791 -0.2427
  592THF    H13 8836   0.739   2.117   0.696 -2.0736  0.7212 -0.1571
  593THF     O1 8837   1.279   5.235   1.903  0.4030 -0.0658  0.1563
  593THF     C2 8838   1.200   5.181   2.012  0.5214  0.3536  0.2781
  593THF     C3 8839   1.283   5.126   1.810 -0.4972 -0.2943  0.1848
  593THF     H4 8840   1.095   5.165   1.984  0.6263 -2.0607  1.0420
  593THF     H5 8841   1.220   5.237   2.103  3.4865 -1.4484  0.8785
  593THF     H6 8842   1.192   5.101   1.756  0.2188 -3.1395  0.1403
  593THF     H7 8843   1.363   5.152   1.740  0.6615 -0.3318  1.4465
  593THF     C8 8844   1.333   5.005   1.898  0.1378 -0.2009 -0.0967
  593THF     C9 8845   1.253   5.036   2.023  0.1222 -0.4117  0.3857
  593THF    H10 8846   1.439   5.007   1.922 -0.5511  0.6547  3.5661
  593THF    H11 8847   1.290   4.920   1.844 -2.2534  1.9549 -1.8252
  593THF    H12 8848   1.172   4.966   2.045  0.5444 -0.7632  0.8625
  593THF    H13 8849   1.325   5.021   2.104 -1.3020  0.6342  1.9298
  594THF     O1 8850   0.242   0.224   2.328  0.1683 -0.3042  0.5085
  594THF     C2 8851   0.171   0.258   2.441  0.0557 -0.2279 -0.5651
  594THF     C3 8852   0.153   0.172   2.227  0.2139 -0.6939  0.1047
  594THF     H4 8853   0.201   0.354   2.482 -1.0646 -1.0446  2.4115
  594THF     H5 8854   0.194   0.194   2.526 -1.7109 -1.8140 -1.2148
  594THF     H6 8855   0.134   0.256   2.160  0.3602 -0.3258  0.5169
  594THF     H7 8856   0.191   0.090   2.167  0.4322  1.2318 -2.5474
  594THF     C8 8857   0.019   0.146   2.298 -0.3813  0.0579  0.0944
  594THF     C9 8858   0.023   0.245   2.411  0.1354 -0.3494  0.5694
  594THF    H10 8859   0.020   0.046   2.340 -1.2688 -0.4699 -1.0933
  594THF    H11 8860  -0.066   0.156   2.231  1.2122  1.6022 -1.8283
  594THF    H12 8861  -0.019   0.342   2.385  1.9129  0.0980 -0.8460
  594THF    H13 8862  -0.028   0.204   2.498 -1.3247 -1.0441 -0.5856
  595THF     O1 8863   2.502   0.618   2.732  0.2878  0.6531  0.5845
  595THF     C2 8864   2.575   0.633   2.608 -0.1989 -0.3231  0.4407
  595THF     C3 8865   2.367   0.657   2.703 -0.3809  0.4253 -0.1785
  595THF     H4 8866   2.553   0.558   2.532  0.8092 -0.7912  0.5995
  595THF     H5 8867   2.684   0.625   2.612 -0.0711  0.0402 -1.3251
  595THF     H6 8868   2.329   0.578   2.639  0.1860  0.6355 -0.7877
  595THF     H7 8869   2.300   0.660   2.789  0.8737 -1.6855  0.9163
  595THF     C8 8870   2.389   0.786   2.627  0.1030 -0.4982 -0.3280
  595THF     C9 8871   2.531   0.768   2.558  0.3597 -0.1223  0.0873
  595THF    H10 8872   2.374   0.881   2.678  0.3373 -0.6230 -0.0182
  595THF    H11 8873   2.311   0.783   2.552  0.3153 -0.6142 -0.5462
  595THF    H12 8874   2.527   0.775   2.449  0.6677  1.0499  0.1358
  595THF    H13 8875   2.593   0.849   2.597  0.4510 -0.4264  0.5856
  596THF     O1 8876   3.725   3.490   5.004 -0.0523 -0.4055 -0.1762
  596THF     C2 8877   3.725   3.598   5.097 -0.4477  1.0990  0.2363
  596THF     C3 8878   3.764   3.549   4.875 -0.6181 -0.2896 -0.2991
  596THF     H4 8879   3.828   3.635   5.105  0.1406 -0.4506  0.0469
  596THF     H5 8880   3.680   3.585   5.195  1.9336  3.3275  1.7780
  596THF     H6 8881   3.871   3.564   4.860 -0.7311 -0.1552 -1.0453
  596THF     H7 8882   3.737   3.485   4.791 -1.2176 -0.7890  0.2658
  596THF     C8 8883   3.698   3.691   4.877 -0.1572 -0.1441  0.0290
  596THF     C9 8884   3.663   3.715   5.026 -0.8442  0.1841  0.2377
  596THF    H10 8885   3.609   3.678   4.815  0.2484  0.2888 -0.6691
  596THF    H11 8886   3.754   3.778   4.841 -1.7981  1.9674  2.2479
  596THF    H12 8887   3.703   3.804   5.075  1.4706 -0.6857  0.0490
  596THF    H13 8888   3.556   3.705   5.038 -0.9200  1.3680  0.7242
  597THF     O1 8889   5.169   4.270   5.411  0.4992  0.0739 -0.1989
  597THF     C2 8890   5.056   4.357   5.426  0.6815  0.8772  0.3092
  597THF     C3 8891   5.115   4.147   5.398  0.6951  0.5591 -0.3545
  597THF     H4 8892   5.090   4.459   5.405  1.8917  0.9861  2.5400
  597THF     H5 8893   5.015   4.357   5.527  0.7131  1.1794  0.3236
  597THF     H6 8894   5.191   4.072   5.381  0.6994  0.2406  1.0071
  597THF     H7 8895   5.044   4.121   5.476  1.6357  1.1539  0.7248
  597THF     C8 8896   5.039   4.186   5.271 -0.5147 -0.5006  0.1557
  597THF     C9 8897   4.958   4.304   5.313  0.3439 -0.1745 -0.2081
  597THF    H10 8898   4.972   4.107   5.237  0.2938 -1.9624  1.7512
  597THF    H11 8899   5.105   4.219   5.191  1.4976 -1.5490  1.2871
  597THF    H12 8900   4.945   4.375   5.231 -0.1391 -0.2432 -0.1958
  597THF    H13 8901   4.864   4.263   5.350 -1.2081 -0.1731 -3.7241
  598THF     O1 8902   0.771   1.744   0.172 -0.2187 -0.2657 -0.2493
  598THF     C2 8903   0.775   1.699   0.034 -0.4786  0.1903 -0.2039
  598THF     C3 8904   0.642   1.800   0.205 -0.8981  0.6849 -0.2932
  598THF     H4 8905   0.786   1.591   0.030 -0.5099  0.2223 -1.7280
  598THF     H5 8906   0.847   1.756  -0.025 -1.5865  2.3784  0.4335
  598THF     H6 8907   0.576   1.728   0.253 -2.0797  1.3006 -0.9627
  598THF     H7 8908   0.650   1.882   0.275  1.4609 -0.4572  0.8720
  598THF     C8 8909   0.590   1.850   0.071  0.0015 -0.2618  0.3092
  598THF     C9 8910   0.629   1.737  -0.016  0.4358  0.0096  0.0247
  598THF    H10 8911   0.648   1.936   0.037 -0.5874  0.2500  0.5805
  598THF    H11 8912   0.484   1.876   0.077  0.2615  1.8617 -2.0636
  598THF    H12 8913   0.558   1.655  -0.008 -0.6532  0.9200 -0.1554
  598THF    H13 8914   0.640   1.772  -0.119 -0.3633  1.3953  0.3988
  599THF     O1 8915   1.346   3.813   0.480 -0.2775 -0.2380 -0.4578
  599THF     C2 8916   1.384   3.937   0.539  0.0985 -1.0012  0.5268
  599THF     C3 8917   1.430   3.722   0.553  0.2627 -0.5366  0.2568
  599THF     H4 8918   1.317   4.017   0.508 -0.7065 -2.5034 -1.9009
  599THF     H5 8919   1.477   3.967   0.490 -1.6057 -0.3777 -2.6275
  599THF     H6 8920   1.393   3.619   0.551  1.3989 -0.9457 -0.8131
  599THF     H7 8921   1.534   3.725   0.520 -0.0005  0.5595 -0.5038
  599THF     C8 8922   1.415   3.765   0.702 -0.2941 -0.3659 -0.1375
  599THF     C9 8923   1.381   3.911   0.684 -0.0258 -0.8277 -0.1306
  599THF    H10 8924   1.502   3.754   0.766 -1.8807  2.0941  2.6772
  599THF    H11 8925   1.339   3.716   0.762  0.8973  0.9557  2.6411
  599THF    H12 8926   1.282   3.934   0.724 -0.4832 -2.1847 -0.4371
  599THF    H13 8927   1.451   3.983   0.726 -0.9272  0.8338 -1.3505
  600THF     O1 8928   2.105   0.712   3.606  0.0744  0.1950 -0.2438
  600THF     C2 8929   2.119   0.640   3.484 -0.1344 -0.0786 -0.4923
  600THF     C3 8930   2.095   0.849   3.571 -0.0226  0.8907 -0.2227
  600THF     H4 8931   2.020   0.635   3.439 -1.0621 -2.8714  1.6133
  600THF     H5 8932   2.152   0.539   3.507  1.6072  0.4570 -0.4508
  600THF     H6 8933   1.999   0.862   3.521 -0.7146  0.5048  0.9752
  600THF     H7 8934   2.092   0.922   3.651  0.7235  0.2111  0.4448
  600THF     C8 8935   2.207   0.863   3.462  0.1254  0.7632 -0.1355
  600THF     C9 8936   2.212   0.722   3.400  0.2368  0.1116  0.4055
  600THF    H10 8937   2.302   0.885   3.510  1.8705 -1.1440 -2.4996
  600THF    H11 8938   2.204   0.939   3.384 -0.5040 -1.8218 -2.8010
  600THF    H12 8939   2.180   0.731   3.296  1.7846  1.7401  0.0067
  600THF    H13 8940   2.312   0.687   3.376 -0.7708 -1.8384 -1.2797
  601THF     O1 8941   1.822   0.297   0.237  0.0951 -0.0607  0.0212
  601THF     C2 8942   1.949   0.247   0.198 -0.2275  0.7187  0.2674
  601THF     C3 8943   1.838   0.407   0.316 -0.0016 -0.3350 -0.5438
  601THF     H4 8944   1.945   0.166   0.125 -4.6547 -0.6631  1.7419
  601THF     H5 8945   2.004   0.202   0.280  0.6007 -0.1770 -0.7499
  601THF     H6 8946   1.743   0.461   0.309  0.7411  1.0189 -0.5754
  601THF     H7 8947   1.862   0.372   0.416 -0.3960 -3.7752 -1.5459
  601THF     C8 8948   1.956   0.473   0.238 -0.7649 -0.4668 -0.7280
  601THF     C9 8949   2.020   0.367   0.152  0.0597 -0.0085 -0.5342
  601THF    H10 8950   2.023   0.533   0.299  0.9821 -2.9846  0.0222
  601THF    H11 8951   1.924   0.548   0.166  0.5454  2.0782  1.1723
  601THF    H12 8952   2.000   0.392   0.048  1.1602 -2.6449 -1.4756
  601THF    H13 8953   2.128   0.364   0.166  0.3887  2.8258 -1.8080
  602THF     O1 8954   5.076   2.287   0.550  0.4946  0.2210  0.6727
  602THF     C2 8955   5.126   2.280   0.681  0.1745  0.2176 -0.5107
  602THF     C3 8956   4.983   2.403   0.543  0.0154  0.7682  0.5934
  602THF     H4 8957   5.234   2.298   0.684 -0.0917  1.9381  1.5985
  602THF     H5 8958   5.103   2.189   0.737 -0.9045  0.6055 -0.2980
  602THF     H6 8959   5.036   2.493   0.510  0.4980  0.1617 -0.3193
  602THF     H7 8960   4.897   2.373   0.483 -0.0876 -1.9157  1.9718
  602THF     C8 8961   4.936   2.428   0.690  0.1899 -0.3092 -0.1810
  602THF     C9 8962   5.063   2.395   0.766 -0.5930 -0.5272 -0.6813
  602THF    H10 8963   4.854   2.357   0.703  0.4892 -0.6596 -0.2083
  602THF    H11 8964   4.893   2.528   0.704  2.8689  1.0395 -0.9345
  602THF    H12 8965   5.123   2.485   0.756 -0.6786 -0.2577  1.0678
  602THF    H13 8966   5.075   2.387   0.874  0.5483  0.2239 -0.7429
  603THF     O1 8967   2.029   3.178   5.490 -0.0976  0.3779  0.1774
  603THF     C2 8968   2.113   3.202   5.607 -0.3887 -0.2829 -0.8011
  603THF     C3 8969   1.940   3.289   5.495 -0.0265 -0.3400 -0.2761
  603THF     H4 8970   2.185   3.284   5.610  1.0074 -1.4812  2.2046
  603THF     H5 8971   2.166   3.115   5.643 -1.4325  0.0991  1.9121
  603THF     H6 8972   1.998   3.378   5.468 -0.8653  0.5604  0.7948
  603THF     H7 8973   1.857   3.283   5.425  1.6272  1.2355 -2.5337
  603THF     C8 8974   1.900   3.299   5.641  0.6641 -0.1421  0.4395
  603THF     C9 8975   2.005   3.230   5.718 -0.3659  0.3175  0.0537
  603THF    H10 8976   1.803   3.252   5.658  0.5406  0.3664  1.2150
  603THF    H11 8977   1.876   3.402   5.668 -0.4553 -0.0619 -0.7489
  603THF    H12 8978   2.045   3.292   5.799  1.7099 -0.2897 -0.4517
  603THF    H13 8979   1.970   3.137   5.763  1.4077  0.2492  1.4243
  604THF     O1 8980   5.246   3.154   5.004  0.1087  0.2623  0.7139
  604THF     C2 8981   5.174   3.249   4.924 -0.7077  0.2665 -0.4475
  604THF     C3 8982   5.387   3.181   5.002 -0.8900 -0.6254 -0.2257
  604THF     H4 8983   5.150   3.337   4.984 -0.8304  0.0177 -0.1328
  604THF     H5 8984   5.092   3.195   4.877 -0.3777  0.6437 -1.4987
  604THF     H6 8985   5.415   3.232   5.095 -0.2648 -0.0807 -0.7060
  604THF     H7 8986   5.440   3.086   5.007  0.0784 -0.2292 -2.2271
  604THF     C8 8987   5.418   3.274   4.878 -0.5207 -0.3698  0.6144
  604THF     C9 8988   5.277   3.273   4.814 -0.0386  0.2663  0.4926
  604THF    H10 8989   5.487   3.218   4.815 -2.8064 -2.2835 -0.3436
  604THF    H11 8990   5.450   3.374   4.907 -1.6641 -0.1253  1.0911
  604THF    H12 8991   5.266   3.360   4.750  2.4072  0.6628  0.5175
  604THF    H13 8992   5.274   3.183   4.753 -1.0899 -0.7752  2.0011
  605THF     O1 8993   4.449   0.463   3.740 -0.2829  0.0932  0.0655
  605THF     C2 8994   4.307   0.492   3.762 -0.4200  0.1967 -0.1050
  605THF     C3 8995   4.503   0.545   3.639 -0.5765 -0.3999  0.6304
  605THF     H4 8996   4.269   0.484   3.864 -1.1163  0.7536 -0.3127
  605THF     H5 8997   4.259   0.408   3.712  2.9892 -0.6110 -2.3381
  605THF     H6 8998   4.572   0.611   3.693  1.4118 -0.9243 -1.1348
  605THF     H7 8999   4.581   0.492   3.585  0.3750 -0.2414  1.7855
  605THF     C8 9000   4.388   0.614   3.561  1.2618 -0.4971 -0.1422
  605THF     C9 9001   4.288   0.616   3.677  0.6066  0.1961 -0.2827
  605THF    H10 9002   4.352   0.558   3.475 -1.7194  1.8661 -0.5786
  605THF    H11 9003   4.411   0.713   3.521 -0.2365 -0.5183 -1.1366
  605THF    H12 9004   4.318   0.705   3.733  1.6222  1.6498 -2.9429
  605THF    H13 9005   4.181   0.628   3.658  0.4241  1.6286  1.3273
  606THF     O1 9006   1.622   3.425   3.613 -0.0306  0.1412  0.2289
  606THF     C2 9007   1.671   3.552   3.657 -0.1075 -0.3176  0.2874
  606THF     C3 9008   1.577   3.439   3.483  0.0601 -0.2173  0.2727
  606THF     H4 9009   1.779   3.540   3.667  0.5878  1.8237 -2.9495
  606THF     H5 9010   1.613   3.584   3.743 -0.4235 -0.0560 -0.0166
  606THF     H6 9011   1.597   3.348   3.427 -1.1149  0.3696 -1.1697
  606THF     H7 9012   1.469   3.452   3.489  0.0837  0.0669  0.0962
  606THF     C8 9013   1.647   3.555   3.423 -0.3885 -0.9068 -0.0701
  606THF     C9 9014   1.643   3.650   3.543 -0.3041  0.3538  0.1019
  606THF    H10 9015   1.592   3.600   3.340 -1.1178 -1.8669 -0.1257
  606THF    H11 9016   1.745   3.523   3.387 -0.6500  0.2571 -1.9327
  606THF    H12 9017   1.715   3.732   3.543 -1.1450  1.1008  0.0175
  606THF    H13 9018   1.544   3.693   3.557 -0.6693  0.2756 -2.0316
  607THF     O1 9019   1.839   0.433   2.589  0.4321 -0.0958  0.3221
  607THF     C2 9020   1.880   0.347   2.488 -0.5145  0.1923  0.6933
  607THF     C3 9021   1.929   0.553   2.586  0.0386  0.4073  0.6426
  607THF     H4 9022   1.805   0.281   2.443  1.3910  0.1339 -2.7350
  607THF     H5 9023   1.957   0.277   2.519 -0.0450 -0.1969 -1.1758
  607THF     H6 9024   1.867   0.643   2.587 -0.2690  0.2987 -1.8256
  607THF     H7 9025   1.993   0.558   2.674 -0.4554  0.7579  0.9856
  607THF     C8 9026   2.013   0.553   2.460 -0.0134  0.2798  0.4540
  607THF     C9 9027   1.942   0.441   2.383 -0.6326  0.1443  0.6732
  607THF    H10 9028   2.114   0.513   2.470  0.7929  2.3371  1.0672
  607THF    H11 9029   2.005   0.652   2.416  3.1557  0.1703 -0.6264
  607THF    H12 9030   1.856   0.475   2.326 -0.9052 -0.1945  0.8807
  607THF    H13 9031   2.013   0.401   2.311 -0.6350 -0.2112  0.8627
  608THF     O1 9032   1.855   1.602   2.845  0.5565  0.5522 -0.1583
  608THF     C2 9033   1.912   1.509   2.749  0.0004  0.3623 -0.1334
  608THF     C3 9034   1.947   1.630   2.942 -0.1767 -0.6209 -0.0734
  608THF     H4 9035   1.975   1.568   2.682 -2.4122  0.8727 -2.0989
  608THF     H5 9036   1.837   1.452   2.695 -1.0762  2.6407 -1.1798
  608THF     H6 9037   2.018   1.707   2.912  0.4550 -1.2262 -0.1363
  608THF     H7 9038   1.896   1.659   3.035  1.1061 -1.7166  1.0194
  608THF     C8 9039   2.013   1.497   2.969 -0.0680 -0.1464  0.0208
  608THF     C9 9040   1.982   1.413   2.845 -0.1850 -0.1847 -0.4154
  608THF    H10 9041   1.966   1.443   3.051 -2.1849 -1.0450 -1.7139
  608THF    H11 9042   2.120   1.509   2.990 -0.8748  0.5460  5.0281
  608THF    H12 9043   2.073   1.379   2.794  0.0186  1.1505 -0.9790
  608THF    H13 9044   1.917   1.327   2.861 -2.8563  1.7824 -0.1373
  609THF     O1 9045   0.310   0.748   2.906 -0.2447  0.0456  0.0842
  609THF     C2 9046   0.248   0.876   2.888 -0.2850  0.0746  0.6008
  609THF     C3 9047   0.280   0.693   3.038 -0.0518 -0.1712 -0.1921
  609THF     H4 9048   0.142   0.854   2.873 -0.2292 -1.5691  2.2708
  609THF     H5 9049   0.298   0.927   2.805 -0.4530 -0.7230 -0.0082
  609THF     H6 9050   0.203   0.616   3.049  0.8335 -0.8737  1.6127
  609THF     H7 9051   0.366   0.642   3.083 -0.6804 -2.1271 -1.0788
  609THF     C8 9052   0.236   0.822   3.119 -0.5273  0.3431  0.2971
  609THF     C9 9053   0.270   0.936   3.022 -0.0596 -0.1186 -0.4683
  609THF    H10 9054   0.277   0.827   3.219  0.4309 -1.0691  0.0132
  609THF    H11 9055   0.130   0.818   3.144 -0.7010 -2.5574 -0.4514
  609THF    H12 9056   0.210   1.025   3.044 -1.4765 -1.3280  0.8461
  609THF    H13 9057   0.378   0.952   3.027 -0.4238  2.9707 -0.6911
  610THF     O1 9058   3.151   4.915   0.028  0.3444 -0.0547  0.0761
  610THF     C2 9059   3.137   4.912   0.171  0.0310 -0.0188 -0.1664
  610THF     C3 9060   3.252   5.014   0.005  1.0184  0.3204  0.1977
  610THF     H4 9061   3.086   4.817   0.187 -0.4232 -0.5454 -3.9017
  610THF     H5 9062   3.075   4.996   0.203 -2.1707 -1.1866 -1.1607
  610THF     H6 9063   3.309   5.008  -0.089  2.2960 -2.3247  1.0206
  610THF     H7 9064   3.214   5.115  -0.003  1.4523  0.4951  0.2991
  610THF     C8 9065   3.344   5.012   0.128 -0.3455  0.4984  0.5546
  610THF     C9 9066   3.277   4.920   0.229  0.2890  0.9107 -0.0078
  610THF    H10 9067   3.348   5.116   0.162 -2.4703  1.1447 -0.9762
  610THF    H11 9068   3.448   4.986   0.110 -0.3441  0.5262  0.5218
  610THF    H12 9069   3.319   4.820   0.234 -0.0046  0.8220  1.1025
  610THF    H13 9070   3.269   4.969   0.326 -0.8205  1.9862 -0.6030
  611THF     O1 9071   0.785   0.750   0.232 -0.1212 -0.3324  0.2796
  611THF     C2 9072   0.779   0.846   0.131 -0.4064 -0.0905  0.7365
  611THF     C3 9073   0.814   0.813   0.356 -0.0806  0.4383  0.6229
  611THF     H4 9074   0.734   0.822   0.034 -1.7087  0.3374  1.2223
  611THF     H5 9075   0.879   0.878   0.102 -0.1378 -1.4354  0.0982
  611THF     H6 9076   0.770   0.748   0.432  0.5971 -1.2695 -0.3670
  611THF     H7 9077   0.921   0.819   0.378 -0.3032  1.8385  1.3982
  611THF     C8 9078   0.732   0.938   0.351 -0.3804 -0.1410  0.3715
  611THF     C9 9079   0.707   0.953   0.203  0.0963 -0.5911  0.1551
  611THF    H10 9080   0.781   1.030   0.385  0.7743 -0.1305 -1.1667
  611THF    H11 9081   0.635   0.937   0.399 -0.9706  1.5407 -0.6859
  611THF    H12 9082   0.600   0.938   0.191  0.0797 -1.1583  0.9309
  611THF    H13 9083   0.719   1.054   0.165 -3.0341  0.2019  0.9505
  612THF     O1 9084   1.416   5.331   3.981  0.0299  0.6211 -0.6211
  612THF     C2 9085   1.475   5.441   3.914 -0.4392 -0.5018 -0.0868
  612THF     C3 9086   1.384   5.373   4.109  0.5103 -0.0212 -0.7327
  612THF     H4 9087   1.477   5.424   3.807 -1.5697 -2.0953  0.1113
  612THF     H5 9088   1.579   5.443   3.946 -0.4706  0.6846 -0.0197
  612THF     H6 9089   1.313   5.303   4.153  1.1743  0.1256  0.6229
  612THF     H7 9090   1.477   5.348   4.160  0.0443  1.3383  0.8589
  612THF     C8 9091   1.348   5.518   4.105  0.7288 -0.8907 -0.0003
  612THF     C9 9092   1.390   5.555   3.963 -0.4549 -0.1232 -0.4340
  612THF    H10 9093   1.409   5.577   4.174  0.8962 -1.6475  0.5117
  612THF    H11 9094   1.243   5.539   4.127  0.8783 -0.0175 -0.0982
  612THF    H12 9095   1.309   5.563   3.891  0.5351 -0.4415 -1.6242
  612THF    H13 9096   1.446   5.648   3.970 -1.0517  0.2256 -0.2618
  613THF     O1 9097   5.232   1.859   2.171  0.1215  0.8788  0.3253
  613THF     C2 9098   5.352   1.842   2.104 -0.3098 -0.6258  0.4406
  613THF     C3 9099   5.153   1.971   2.126 -0.1357  0.0867 -0.6100
  613THF     H4 9100   5.351   1.755   2.038  0.7753 -0.0076 -0.4132
  613THF     H5 9101   5.428   1.840   2.182 -0.5578  0.8267  0.7459
  613THF     H6 9102   5.090   1.932   2.047  1.2562 -0.1219 -1.6578
  613THF     H7 9103   5.090   2.006   2.208 -0.1489  1.7812 -1.2908
  613THF     C8 9104   5.263   2.065   2.066 -0.0679 -0.2127  0.5654
  613THF     C9 9105   5.354   1.965   2.005 -0.5858  0.5449 -0.6473
  613THF    H10 9106   5.303   2.132   2.141 -2.2352 -0.0871  1.6845
  613THF    H11 9107   5.218   2.129   1.990  1.2012  1.1036  0.8757
  613THF    H12 9108   5.304   1.937   1.912 -0.3109  1.1931 -1.0004
  613THF    H13 9109   5.454   2.006   1.989 -0.2119 -0.4009 -0.7888
  614THF     O1 9110   4.905   3.224   1.048  0.2011  0.2040  0.5341
  614THF     C2 9111   4.922   3.087   1.087  0.0112 -0.7278 -0.1764
  614THF     C3 9112   4.777   3.271   1.094 -0.0935 -0.4935 -0.1941
  614THF     H4 9113   4.935   3.077   1.195  0.1499  0.7416 -0.0472
  614THF     H5 9114   4.998   3.030   1.034 -0.6529 -1.0116 -0.8470
  614THF     H6 9115   4.791   3.326   1.187  2.1355  2.7027 -2.2031
  614THF     H7 9116   4.724   3.342   1.030 -2.1580 -2.5907 -0.9716
  614THF     C8 9117   4.688   3.155   1.112  0.0732  0.9325 -0.0148
  614THF     C9 9118   4.772   3.037   1.068  0.0591 -0.4774  0.1220
  614THF    H10 9119   4.593   3.157   1.059 -1.4017 -2.0631  2.1832
  614THF    H11 9120   4.680   3.138   1.220 -0.2377  1.9596  0.1331
  614THF    H12 9121   4.733   2.948   1.119 -1.4312 -0.1382 -0.3634
  614THF    H13 9122   4.753   3.026   0.961  0.1473  0.3656  0.0141
  615THF     O1 9123   2.271   4.069   3.686 -0.2107  0.3537 -0.2765
  615THF     C2 9124   2.257   3.967   3.783 -0.2280  0.9756  0.1445
  615THF     C3 9125   2.398   4.139   3.711  0.5084 -0.0064  0.0476
  615THF     H4 9126   2.329   3.887   3.767 -0.1336  0.9671  0.5866
  615THF     H5 9127   2.155   3.927   3.781 -1.1090  3.1168 -1.5992
  615THF     H6 9128   2.485   4.095   3.662  3.0682  1.9403  2.5294
  615THF     H7 9129   2.390   4.242   3.678  2.3798  0.1693  0.0355
  615THF     C8 9130   2.425   4.108   3.857  0.2224  0.0992 -0.1631
  615THF     C9 9131   2.304   4.035   3.899 -1.2165 -0.2254  0.3070
  615THF    H10 9132   2.453   4.196   3.914  0.3042  0.0700 -0.1565
  615THF    H11 9133   2.503   4.034   3.874  1.7304  2.0670  2.1191
  615THF    H12 9134   2.325   3.969   3.984 -1.8480  0.1994  0.8006
  615THF    H13 9135   2.224   4.105   3.921  0.7016  1.6479  1.6945
  616THF     O1 9136   5.214   0.793   0.379  0.3749  0.1586 -0.3771
  616THF     C2 9137   5.253   0.785   0.520  0.2101  0.8647  0.7536
  616THF     C3 9138   5.157   0.924   0.367 -0.6038  0.4034 -0.0630
  616THF     H4 9139   5.306   0.691   0.534  1.4489  0.5916 -3.9852
  616THF     H5 9140   5.154   0.781   0.565  0.0724 -0.2688  0.3808
  616THF     H6 9141   5.145   0.947   0.261  1.4343 -1.4155 -0.7607
  616THF     H7 9142   5.063   0.935   0.420 -1.4374  0.0367 -1.4369
  616THF     C8 9143   5.269   1.007   0.435 -0.2330 -1.2284  0.4075
  616THF     C9 9144   5.328   0.912   0.540 -0.6075 -0.3941  0.1605
  616THF    H10 9145   5.229   1.099   0.479  2.7561 -0.2949  1.3743
  616THF    H11 9146   5.353   1.026   0.369 -1.5465 -1.9850 -1.5781
  616THF    H12 9147   5.434   0.898   0.520 -0.3188 -0.4598  1.6435
  616THF    H13 9148   5.325   0.961   0.637  0.0712  2.7275 -1.3025
  617THF     O1 9149   4.347   2.641   4.611  0.6164  0.6345 -0.3211
  617THF     C2 9150   4.471   2.648   4.533  0.1940 -0.0699 -0.6275
  617THF     C3 9151   4.277   2.526   4.564 -0.0054 -0.3987  0.3392
  617THF     H4 9152   4.551   2.576   4.553 -0.7746 -1.0219 -0.0069
  617THF     H5 9153   4.511   2.749   4.542  0.1728 -0.0772 -0.4375
  617THF     H6 9154   4.343   2.448   4.602  1.4176  0.2365 -0.7010
  617THF     H7 9155   4.176   2.516   4.602  0.5576 -1.5161  1.6619
  617THF     C8 9156   4.287   2.539   4.413 -0.2325 -0.4188 -0.2410
  617THF     C9 9157   4.409   2.629   4.395 -0.2068  0.1716 -0.3645
  617THF    H10 9158   4.205   2.595   4.367  0.8403  1.0717 -0.4165
  617THF    H11 9159   4.303   2.443   4.363  0.3804 -0.3139 -0.2563
  617THF    H12 9160   4.485   2.574   4.341 -1.1232 -0.5221 -0.9875
  617THF    H13 9161   4.373   2.717   4.342 -1.7470 -0.3207 -0.2122
  618THF     O1 9162   2.687   4.434   5.436 -0.0457  0.0931  0.0600
  618THF     C2 9163   2.745   4.431   5.569 -0.0735  0.2963 -0.6744
  618THF     C3 9164   2.756   4.342   5.351 -0.0482 -0.2484  0.0580
  618THF     H4 9165   2.678   4.486   5.636  0.3682  1.4853 -1.1761
  618THF     H5 9166   2.832   4.496   5.574 -1.5543  2.4381 -1.1443
  618THF     H6 9167   2.676   4.310   5.284  1.6741  0.3961 -2.4828
  618THF     H7 9168   2.823   4.400   5.289 -1.6411 -0.0387 -1.5692
  618THF     C8 9169   2.805   4.233   5.458 -0.6709 -0.5502  0.2097
  618THF     C9 9170   2.783   4.281   5.595  0.1419 -0.6577 -0.0252
  618THF    H10 9171   2.913   4.225   5.448 -0.3308 -0.5791  3.1514
  618THF    H11 9172   2.755   4.138   5.439 -1.8653  0.0178  0.4208
  618THF    H12 9173   2.707   4.243   5.663  0.4108 -0.3770  0.4430
  618THF    H13 9174   2.876   4.276   5.652 -0.1583  1.3360  0.7293
  619THF     O1 9175   3.989   2.184   2.578  0.2582  0.5314 -0.2241
  619THF     C2 9176   4.126   2.200   2.545 -0.2354 -0.2642  0.7493
  619THF     C3 9177   3.989   2.077   2.669 -0.3069  0.0098  0.4935
  619THF     H4 9178   4.185   2.258   2.615 -0.5737 -0.1033  0.9006
  619THF     H5 9179   4.126   2.246   2.446 -4.0818  1.4652  1.3693
  619THF     H6 9180   4.024   2.107   2.768  1.5733  0.4538 -0.2709
  619THF     H7 9181   3.890   2.032   2.673  0.5738 -2.2373 -0.7493
  619THF     C8 9182   4.092   1.983   2.615  0.2061  0.0494  0.2327
  619THF     C9 9183   4.194   2.061   2.540  0.4864 -0.3070  0.7230
  619THF    H10 9184   4.037   1.927   2.539  0.5526 -1.8782  1.3319
  619THF    H11 9185   4.133   1.913   2.688  0.2015  0.5869  0.7667
  619THF    H12 9186   4.285   2.069   2.600 -0.1642 -1.0281  1.8549
  619THF    H13 9187   4.206   2.022   2.440 -2.0821  4.1105 -1.6221
  620THF     O1 9188   3.596   0.440   5.390  0.0734 -0.1537 -0.7260
  620THF     C2 9189   3.536   0.352   5.483 -0.0469  0.2692  0.5381
  620THF     C3 9190   3.726   0.464   5.443 -0.4155  0.0594 -0.1663
  620THF     H4 9191   3.442   0.309   5.449  0.6921  0.3707 -1.8501
  620THF     H5 9192   3.526   0.404   5.579  0.8127 -0.9944  1.3384
  620THF     H6 9193   3.793   0.518   5.377  0.4002 -0.6861  0.0305
  620THF     H7 9194   3.717   0.521   5.536  0.4099  1.8328 -1.1396
  620THF     C8 9195   3.770   0.321   5.480 -0.5568  0.5117  0.3511
  620THF     C9 9196   3.640   0.244   5.494 -0.3202  0.6022 -0.5279
  620THF    H10 9197   3.845   0.311   5.558  0.2495  2.0685 -0.1926
  620THF    H11 9198   3.807   0.272   5.390  0.4953 -0.5033  1.3036
  620THF    H12 9199   3.625   0.167   5.418 -1.2623 -1.2727  1.4858
  620THF    H13 9200   3.629   0.205   5.595 -1.4937  0.1571 -0.8156
  621THF     O1 9201   0.080   3.330   5.263 -0.6461  0.3444 -0.3563
  621THF     C2 9202   0.178   3.290   5.164 -0.0686  0.5462 -0.0744
  621THF     C3 9203   0.141   3.358   5.388 -0.2546 -0.5405 -0.9858
  621THF     H4 9204   0.144   3.317   5.064  1.3958  1.3787 -0.3779
  621THF     H5 9205   0.213   3.190   5.188 -0.3316  0.8148  1.5153
  621THF     H6 9206   0.082   3.432   5.440  2.3285 -0.1137  1.5698
  621THF     H7 9207   0.144   3.269   5.451 -3.0255 -0.5951 -0.8072
  621THF     C8 9208   0.279   3.411   5.358  0.0357  0.3309  0.1535
  621THF     C9 9209   0.280   3.405   5.200 -0.3635  0.9436  0.9339
  621THF    H10 9210   0.358   3.350   5.400  0.1614  0.8896  0.7374
  621THF    H11 9211   0.294   3.505   5.412 -0.8308 -0.4422  1.8291
  621THF    H12 9212   0.247   3.497   5.152 -0.8927 -0.1676 -0.9471
  621THF    H13 9213   0.375   3.373   5.157 -1.7664 -2.1485 -0.1813
  622THF     O1 9214   5.253   2.057   1.680 -0.3860  0.0795 -0.0430
  622THF     C2 9215   5.275   2.192   1.642 -0.4186  0.1849  0.3682
  622THF     C3 9216   5.120   2.047   1.709 -0.1156  0.2961  0.1377
  622THF     H4 9217   5.372   2.206   1.595  0.0866  3.4886  2.1027
  622THF     H5 9218   5.268   2.257   1.729 -0.7761  0.7732 -0.0952
  622THF     H6 9219   5.103   1.940   1.699  1.1099  0.1056 -0.0739
  622THF     H7 9220   5.100   2.089   1.808 -0.0713 -0.2725  0.3903
  622THF     C8 9221   5.060   2.130   1.595  0.1050  0.3186  0.0934
  622THF     C9 9222   5.162   2.218   1.539  1.2334  0.5900 -0.1980
  622THF    H10 9223   4.981   2.196   1.631 -0.7782  0.0189 -1.2599
  622THF    H11 9224   5.029   2.058   1.520  2.0742  1.6066 -2.1146
  622THF    H12 9225   5.196   2.185   1.441  1.0139  5.1306 -2.0731
  622THF    H13 9226   5.136   2.324   1.543 -2.2542 -0.1600 -0.2627
  623THF     O1 9227   0.917   2.989   1.753  0.1412  1.0382  0.6352
  623THF     C2 9228   0.810   2.979   1.656 -0.6035  0.2027  0.3681
  623THF     C3 9229   0.928   3.129   1.776 -0.5860  0.5905 -0.2665
  623THF     H4 9230   0.781   2.873   1.657 -0.6825  0.1608 -1.7473
  623THF     H5 9231   0.852   3.010   1.560 -1.4477  1.3560  0.3636
  623THF     H6 9232   0.975   3.154   1.871 -2.5769  0.1773  0.8894
  623THF     H7 9233   0.982   3.173   1.693 -0.6307 -0.1181 -0.6821
  623THF     C8 9234   0.777   3.170   1.790 -0.1676 -0.5842 -0.0789
  623THF     C9 9235   0.713   3.091   1.682 -0.1322  0.0692  1.2659
  623THF    H10 9236   0.781   3.277   1.772 -1.5303 -0.5828 -0.4877
  623THF    H11 9237   0.735   3.154   1.889 -0.6601  0.4015 -0.1165
  623THF    H12 9238   0.613   3.057   1.711 -0.9420  3.1391  2.4826
  623THF    H13 9239   0.694   3.150   1.592  1.7401  0.0530  0.8165
  624THF     O1 9240   4.644   3.476   1.932 -0.1643  0.1737  0.2632
  624THF     C2 9241   4.588   3.470   1.797 -0.6380  0.0533 -0.0221
  624THF     C3 9242   4.709   3.601   1.952 -0.2278  0.5396 -0.4460
  624THF     H4 9243   4.481   3.469   1.812 -0.6573  1.2536  0.0172
  624THF     H5 9244   4.630   3.384   1.746  1.4908 -0.2657  2.0691
  624THF     H6 9245   4.670   3.652   2.041 -2.8884 -0.9243 -0.6915
  624THF     H7 9246   4.817   3.589   1.952 -0.1969  0.7200 -1.7860
  624THF     C8 9247   4.662   3.690   1.842  0.6568  0.1132  0.6740
  624THF     C9 9248   4.636   3.600   1.724  0.3996  0.4504  0.0281
  624THF    H10 9249   4.721   3.782   1.837  1.7882 -0.5941  0.4622
  624THF    H11 9250   4.559   3.724   1.853 -0.1447 -1.9828  0.1110
  624THF    H12 9251   4.568   3.653   1.656  0.0424  1.0094  0.7994
  624THF    H13 9252   4.723   3.566   1.669  0.4405 -0.9401  0.9038
  625THF     O1 9253   5.409   0.306   1.280 -0.0943  0.1216  0.0082
  625THF     C2 9254   5.417   0.183   1.343  0.3816  0.0426  0.0173
  625THF     C3 9255   5.275   0.346   1.287  0.0449  0.7653  0.0229
  625THF     H4 9256   5.508   0.190   1.403 -0.9328  3.6951  1.9257
  625THF     H5 9257   5.428   0.095   1.280 -0.8216 -0.4898  0.5162
  625THF     H6 9258   5.255   0.450   1.262 -1.0076  0.7127  0.6096
  625THF     H7 9259   5.213   0.288   1.220  1.2999 -0.5796 -0.0303
  625THF     C8 9260   5.241   0.311   1.428  0.1394  0.1277 -0.4000
  625THF     C9 9261   5.297   0.170   1.437 -0.6821 -0.3877  0.4430
  625THF    H10 9262   5.133   0.304   1.437 -0.2459  2.6701 -1.9423
  625THF    H11 9263   5.296   0.373   1.498  0.6372 -0.9809  0.2204
  625THF    H12 9264   5.327   0.136   1.536  0.0744  1.4337  0.8848
  625THF    H13 9265   5.229   0.099   1.390 -0.4557  1.1326 -2.3989
  626THF     O1 9266   0.749   1.825   2.880 -0.2324  0.2841 -0.1573
  626THF     C2 9267   0.728   1.960   2.912  0.4513 -0.0867 -0.2504
  626THF     C3 9268   0.741   1.751   3.005 -0.7717  0.3709  0.2220
  626THF     H4 9269   0.622   1.985   2.906 -0.1528 -2.0409  1.3574
  626THF     H5 9270   0.782   2.025   2.842  1.2719 -0.3340  0.1387
  626THF     H6 9271   0.636   1.742   3.031 -0.5583 -1.7754  0.4870
  626THF     H7 9272   0.779   1.650   2.991 -0.9879  0.2989  0.1460
  626THF     C8 9273   0.817   1.838   3.097  0.1289 -0.1182 -0.3382
  626THF     C9 9274   0.773   1.979   3.051 -0.4971 -0.8535 -0.2261
  626THF    H10 9275   0.921   1.809   3.084  0.3668  1.4036 -2.5230
  626THF    H11 9276   0.801   1.819   3.203 -1.3122  0.5411 -0.4068
  626THF    H12 9277   0.691   2.015   3.113  0.5530  2.0337 -0.3525
  626THF    H13 9278   0.855   2.050   3.058 -1.7953  0.9384 -2.0702
  627THF     O1 9279   0.127   2.379   1.766  0.1440 -0.3781  0.0076
  627THF     C2 9280   0.129   2.248   1.831 -0.2781  0.2513  0.1571
  627THF     C3 9281   0.010   2.450   1.813  0.7574 -0.5362  0.2382
  627THF     H4 9282   0.229   2.210   1.814  0.0947  0.9711  0.7161
  627THF     H5 9283   0.049   2.188   1.786 -2.1557  2.7433 -0.0405
  627THF     H6 9284   0.005   2.558   1.801 -0.6611 -0.0877  3.5470
  627THF     H7 9285  -0.075   2.415   1.754  1.5768 -0.6204 -0.9288
  627THF     C8 9286  -0.014   2.399   1.947 -0.1099 -0.0298 -0.3346
  627THF     C9 9287   0.086   2.287   1.975 -0.4937 -0.1728  0.4791
  627THF    H10 9288  -0.114   2.356   1.954 -1.3432  2.2877 -2.3658
  627THF    H11 9289  -0.002   2.484   2.015 -0.7216  0.6619 -1.0818
  627THF    H12 9290   0.177   2.317   2.026 -0.4669 -0.1940  0.4439
  627THF    H13 9291   0.045   2.206   2.036  0.1023 -1.4923 -0.7969
  628THF     O1 9292   2.534   1.626   0.839  0.4496 -0.0174  0.1851
  628THF     C2 9293   2.625   1.582   0.744 -0.3050  0.1933  0.8190
  628THF     C3 9294   2.410   1.648   0.770 -0.2014  0.2094  0.2354
  628THF     H4 9295   2.593   1.481   0.719 -0.5588  0.2250  1.0129
  628THF     H5 9296   2.732   1.580   0.767  0.5502  0.5140 -2.5795
  628THF     H6 9297   2.360   1.555   0.743  1.0218 -0.8066  1.3343
  628THF     H7 9298   2.346   1.723   0.818 -0.9821  0.8999 -1.7616
  628THF     C8 9299   2.453   1.708   0.641 -0.7641  0.3188  0.3138
  628THF     C9 9300   2.595   1.673   0.624 -0.1946  0.8227 -0.3461
  628THF    H10 9301   2.446   1.817   0.640  0.6528  0.4556 -1.2367
  628THF    H11 9302   2.395   1.670   0.556 -1.1267  0.5143  0.4737
  628THF    H12 9303   2.621   1.618   0.533  1.6095 -0.7562  1.0489
  628THF    H13 9304   2.651   1.766   0.629 -0.0936  0.6906  1.3589
  629THF     O1 9305   0.782   2.237   3.724  0.1005  0.0050 -0.1884
  629THF     C2 9306   0.810   2.154   3.612  0.8758  0.6383  0.3206
  629THF     C3 9307   0.648   2.274   3.715 -0.2452 -0.0372 -0.1936
  629THF     H4 9308   0.911   2.113   3.611  0.2069 -1.1669  1.4406
  629THF     H5 9309   0.793   2.214   3.523  1.8036 -0.8884 -0.9406
  629THF     H6 9310   0.612   2.325   3.804 -1.6463 -1.3670  0.0657
  629THF     H7 9311   0.633   2.332   3.625  1.3613 -0.6389 -0.8855
  629THF     C8 9312   0.582   2.144   3.678  0.8067  0.6636  0.2559
  629THF     C9 9313   0.700   2.057   3.640  0.3207 -0.4622 -0.1910
  629THF    H10 9314   0.511   2.155   3.596 -1.4041 -0.1074  1.9671
  629THF    H11 9315   0.530   2.097   3.762  1.9232 -1.7116 -0.3154
  629THF    H12 9316   0.728   1.982   3.714  1.0510  0.3359  0.3788
  629THF    H13 9317   0.675   1.994   3.556  0.2089  0.7935 -1.1301
  630THF     O1 9318   0.460   0.566   5.006  0.4078 -0.0405  0.4544
  630THF     C2 9319   0.383   0.596   5.118 -0.2749 -0.2595 -0.6358
  630THF     C3 9320   0.377   0.587   4.896  0.3242  0.2015 -0.9067
  630THF     H4 9321   0.405   0.701   5.138  1.2488 -0.6814  0.0285
  630THF     H5 9322   0.405   0.533   5.204  0.0567 -2.3565 -2.1757
  630THF     H6 9323   0.377   0.695   4.881 -0.2790  0.3287 -0.0442
  630THF     H7 9324   0.420   0.540   4.807  2.1121  1.5874 -0.8289
  630THF     C8 9325   0.236   0.554   4.933  0.1297  0.0839  0.1429
  630THF     C9 9326   0.231   0.564   5.078 -0.5584  0.2196 -0.4488
  630THF    H10 9327   0.220   0.453   4.896  2.6381  0.4060 -2.1208
  630THF    H11 9328   0.158   0.618   4.891  0.7638 -0.1223 -1.4075
  630THF    H12 9329   0.174   0.650   5.114 -2.2207 -0.5937 -1.0448
  630THF    H13 9330   0.200   0.479   5.139  1.1562 -1.7070 -2.1330
  631THF     O1 9331   4.796   0.840   0.572 -0.0943  0.2417  0.1679
  631THF     C2 9332   4.828   0.967   0.621  0.6144 -0.1341  0.0960
  631THF     C3 9333   4.797   0.752   0.686  0.3410 -0.0682 -0.4251
  631THF     H4 9334   4.757   1.032   0.572  0.2355  1.6493  2.7679
  631THF     H5 9335   4.925   1.009   0.594 -0.9811  3.2339 -0.8950
  631THF     H6 9336   4.697   0.708   0.696  0.2502  0.4808  1.2139
  631THF     H7 9337   4.863   0.669   0.661 -0.9420 -1.2042 -0.1728
  631THF     C8 9338   4.854   0.818   0.807 -0.9919 -0.0532 -1.1098
  631THF     C9 9339   4.816   0.962   0.774  0.5491 -0.1529 -0.3894
  631THF    H10 9340   4.961   0.812   0.826 -1.1879  0.4754  0.2811
  631THF    H11 9341   4.827   0.776   0.904  1.8021  1.0329  0.2583
  631THF    H12 9342   4.710   0.973   0.793  0.5684  1.2813 -0.9404
  631THF    H13 9343   4.881   1.034   0.825 -0.1196 -0.2189  0.5821
  632THF     O1 9344   3.436   0.991   3.988  0.5082  0.6863 -0.5970
  632THF     C2 9345   3.305   0.969   4.023  0.6519  0.0662 -0.1222
  632THF     C3 9346   3.450   1.113   3.929  0.3940 -0.1713 -0.0964
  632THF     H4 9347   3.287   0.885   4.090 -3.2511 -0.4035 -1.5097
  632THF     H5 9348   3.251   0.935   3.934 -2.3262  0.2074  1.4973
  632THF     H6 9349   3.548   1.158   3.944  0.0941  0.3605  0.2893
  632THF     H7 9350   3.440   1.111   3.821  0.6242  0.2980 -0.1276
  632THF     C8 9351   3.352   1.200   4.002  1.1258 -0.1116  0.1434
  632THF     C9 9352   3.250   1.104   4.056  0.0325 -0.4031  0.0154
  632THF    H10 9353   3.302   1.273   3.939 -2.5122  1.0013  3.8639
  632THF    H11 9354   3.402   1.265   4.074  1.4010  0.1711 -0.3054
  632THF    H12 9355   3.238   1.128   4.162  2.1248 -0.7503  0.3862
  632THF    H13 9356   3.158   1.125   4.002  0.9632  1.8362 -0.8122
  633THF     O1 9357   5.014   1.838   3.689 -0.4764 -0.0996  0.3650
  633THF     C2 9358   5.080   1.884   3.802 -0.3623  0.2980  0.2433
  633THF     C3 9359   5.094   1.760   3.607  0.1210  0.4877 -0.5474
  633THF     H4 9360   5.009   1.906   3.882  0.0072  2.4073  0.0669
  633THF     H5 9361   5.145   1.969   3.780  0.1593 -0.2966 -0.5439
  633THF     H6 9362   5.031   1.703   3.538 -1.8798  0.9486  0.8197
  633THF     H7 9363   5.161   1.820   3.545 -0.2762  0.4605 -1.0146
  633THF     C8 9364   5.170   1.679   3.709 -0.9232  0.0433  0.0489
  633THF     C9 9365   5.175   1.763   3.836 -0.1326  0.2343 -0.2470
  633THF    H10 9366   5.272   1.663   3.675 -0.8602  0.5479 -0.0036
  633THF    H11 9367   5.121   1.584   3.731  0.1706 -0.1381  1.8788
  633THF    H12 9368   5.136   1.714   3.925 -0.7890 -0.0715 -0.7013
  633THF    H13 9369   5.272   1.808   3.859 -0.7137  1.3533  0.0856
  634THF     O1 9370   1.519   0.654   4.996  0.3950  0.6499  0.1906
  634THF     C2 9371   1.647   0.676   4.952  0.2431  0.7553 -0.3392
  634THF     C3 9372   1.494   0.758   5.090 -0.4191 -0.2160 -0.0425
  634THF     H4 9373   1.681   0.611   4.871 -2.4766 -1.3883  0.0955
  634THF     H5 9374   1.710   0.635   5.032  0.5811  0.2087 -0.8776
  634THF     H6 9375   1.391   0.791   5.101  0.3537  2.2243  0.4614
  634THF     H7 9376   1.532   0.719   5.185  1.7549 -1.1524 -1.2253
  634THF     C8 9377   1.567   0.882   5.031  0.0468  0.0281  0.1599
  634THF     C9 9378   1.668   0.826   4.939 -0.4924 -0.1024  0.3738
  634THF    H10 9379   1.615   0.947   5.105  1.1960  1.0731 -1.4440
  634THF    H11 9380   1.496   0.951   4.985  0.5291  2.3777  2.6192
  634THF    H12 9381   1.652   0.855   4.835  0.9968  1.9480  0.6587
  634THF    H13 9382   1.769   0.851   4.971 -0.4759 -0.9586  1.0389
  635THF     O1 9383   0.298   1.030   4.040  0.2166 -0.3780 -0.2858
  635THF     C2 9384   0.233   1.026   4.164  0.0318  0.0370 -0.2844
  635THF     C3 9385   0.346   0.901   3.999 -0.5397  0.1745 -0.6527
  635THF     H4 9386   0.137   1.073   4.142  0.4323  0.4410 -1.2102
  635THF     H5 9387   0.285   1.078   4.244 -0.7758 -1.3951  1.2313
  635THF     H6 9388   0.287   0.853   3.922 -0.5210  0.5667 -0.9144
  635THF     H7 9389   0.446   0.902   3.956 -0.7544 -1.4314 -1.2580
  635THF     C8 9390   0.321   0.814   4.120 -0.1077 -0.4351  0.1640
  635THF     C9 9391   0.209   0.878   4.196  0.1699  0.3514  0.8807
  635THF    H10 9392   0.417   0.810   4.171 -0.3930 -1.1318  0.6631
  635THF    H11 9393   0.298   0.709   4.100 -1.8688  0.1166 -1.0564
  635THF    H12 9394   0.108   0.852   4.165  0.1218 -2.4543  3.0155
  635THF    H13 9395   0.213   0.862   4.304  1.9311  0.4965  0.8679
  636THF     O1 9396   5.087   2.079   1.045  0.2118  0.2198 -0.1805
  636THF     C2 9397   5.061   1.991   1.151  0.0059 -0.1724 -0.2092
  636THF     C3 9398   5.201   2.158   1.082 -0.2209  0.0438  0.1233
  636THF     H4 9399   5.025   1.894   1.117 -0.3059  0.4359 -1.6963
  636THF     H5 9400   4.971   2.034   1.197 -1.5533 -0.9607 -2.3620
  636THF     H6 9401   5.253   2.200   0.996  0.0651  0.5075  0.5223
  636THF     H7 9402   5.176   2.243   1.145 -0.9943  0.6896 -1.0106
  636THF     C8 9403   5.284   2.057   1.158 -0.1608  0.1605 -0.2207
  636THF     C9 9404   5.186   1.966   1.231 -0.2207  0.0282 -0.6481
  636THF    H10 9405   5.355   2.104   1.226  1.4036 -1.8841 -0.3380
  636THF    H11 9406   5.352   2.009   1.088 -1.6123  0.1147 -1.6500
  636THF    H12 9407   5.218   1.863   1.217 -1.3816 -0.8496  2.3695
  636THF    H13 9408   5.169   1.972   1.338 -0.2691  0.0405 -0.6561
  637THF     O1 9409   2.905   2.589   4.435  0.7268  0.2594  0.3322
  637THF     C2 9410   2.851   2.466   4.392 -0.8109 -0.0011 -0.0427
  637THF     C3 9411   3.009   2.558   4.524 -0.3476  0.3982 -0.5248
  637THF     H4 9412   2.846   2.467   4.283  0.6401 -1.2914 -0.1751
  637THF     H5 9413   2.751   2.473   4.434 -0.4142  1.7433  0.6926
  637THF     H6 9414   3.105   2.572   4.476  0.2235  0.0863  0.4959
  637THF     H7 9415   3.016   2.629   4.606  0.4573 -0.7848  0.4860
  637THF     C8 9416   2.991   2.409   4.571  0.7147 -0.1766  0.9065
  637THF     C9 9417   2.922   2.347   4.450 -0.3282  0.1030 -0.2505
  637THF    H10 9418   2.925   2.415   4.657  0.0193  1.1554  0.3048
  637THF    H11 9419   3.074   2.356   4.618 -1.0399 -2.5917  1.5200
  637THF    H12 9420   2.990   2.310   4.374 -1.1429 -1.1277 -0.4036
  637THF    H13 9421   2.856   2.268   4.488 -0.3656  1.1026  1.9177
  638THF     O1 9422   4.826   3.047   2.006  0.0839 -0.1417  0.0868
  638THF     C2 9423   4.727   2.958   1.969 -0.2737  0.2671  0.2217
  638THF     C3 9424   4.756   3.157   2.059 -0.8565  0.2473  0.2683
  638THF     H4 9425   4.775   2.860   1.958 -0.3720  0.4587 -2.5605
  638THF     H5 9426   4.672   2.981   1.878 -0.0689  1.9716  0.5056
  638THF     H6 9427   4.811   3.230   2.119 -0.5969  0.7548 -0.5611
  638THF     H7 9428   4.696   3.208   1.983 -0.3983  0.1497 -0.1623
  638THF     C8 9429   4.661   3.090   2.162 -0.5520 -0.2913  0.4247
  638THF     C9 9430   4.636   2.960   2.088 -0.5299  0.3414  0.3704
  638THF    H10 9431   4.581   3.151   2.204  1.1570  2.5018 -0.0880
  638THF    H11 9432   4.742   3.074   2.234  0.5864 -0.3047 -0.8175
  638THF    H12 9433   4.661   2.880   2.157 -1.0993  0.8311  1.1592
  638THF    H13 9434   4.532   2.931   2.068 -1.9775  3.2132  2.8177
  639THF     O1 9435   0.996   3.389   3.289  0.0425  0.4286  0.0367
  639THF     C2 9436   1.043   3.442   3.411  0.8377  0.1695 -0.3033
  639THF     C3 9437   0.878   3.305   3.314  0.1478 -0.5046  0.2189
  639THF     H4 9438   1.100   3.535   3.402  0.9810  0.1314  0.1875
  639THF     H5 9439   1.107   3.372   3.464  0.2947 -1.2885 -1.5075
  639THF     H6 9440   0.823   3.284   3.222  1.4642 -1.3775 -0.4037
  639THF     H7 9441   0.899   3.214   3.370  0.3459 -1.4396 -1.3092
  639THF     C8 9442   0.798   3.403   3.402 -0.3984  0.4254 -0.4542
  639THF     C9 9443   0.909   3.479   3.482 -0.0895 -0.3541  0.0111
  639THF    H10 9444   0.728   3.357   3.473  0.8881 -1.0919 -0.1075
  639THF    H11 9445   0.741   3.469   3.337 -1.5125  0.1857  0.2529
  639THF    H12 9446   0.898   3.587   3.479 -1.0611 -0.3153  2.5892
  639THF    H13 9447   0.904   3.448   3.587 -0.9691  0.9905  0.3890
  640THF     O1 9448   3.244   1.297   1.141 -0.6833  0.4294 -0.0804
  640THF     C2 9449   3.354   1.370   1.205 -0.0319 -0.1013 -0.6875
  640THF     C3 9450   3.304   1.187   1.073 -0.7737  0.3335  0.5942
  640THF     H4 9451   3.382   1.306   1.289  2.5620  0.0499 -1.3683
  640THF     H5 9452   3.329   1.475   1.218  0.1133 -0.1211 -0.2303
  640THF     H6 9453   3.286   1.098   1.133  0.4391 -0.3544 -0.0147
  640THF     H7 9454   3.250   1.174   0.979 -1.5695 -2.3954  1.3266
  640THF     C8 9455   3.448   1.231   1.054  0.3733  0.4635  1.0050
  640THF     C9 9456   3.465   1.371   1.105  0.2408 -0.4276 -0.5625
  640THF    H10 9457   3.489   1.225   0.953  1.3044 -0.8412  1.4352
  640THF    H11 9458   3.508   1.165   1.116 -0.6733  0.9722  2.6173
  640THF    H12 9459   3.558   1.393   1.157 -0.8127 -1.7869  2.1337
  640THF    H13 9460   3.449   1.439   1.021 -2.5165 -0.9202 -0.5239
  641THF     O1 9461   2.784   1.743   0.206  0.3208  0.2597  0.8690
  641THF     C2 9462   2.790   1.606   0.162  0.0502 -0.5932 -0.8153
  641THF     C3 9463   2.875   1.815   0.128  0.0980  0.4150 -0.7927
  641THF     H4 9464   2.698   1.551   0.185 -0.7691  0.9900 -0.1617
  641THF     H5 9465   2.875   1.564   0.216 -0.3696 -1.1374 -0.5631
  641THF     H6 9466   2.841   1.918   0.138 -0.8364  0.0352  0.1244
  641THF     H7 9467   2.973   1.795   0.171 -0.4536  0.4256  0.5000
  641THF     C8 9468   2.844   1.764  -0.013 -0.8310 -0.6317  0.4212
  641THF     C9 9469   2.816   1.616   0.015 -0.1909 -0.2004  0.0399
  641THF    H10 9470   2.923   1.784  -0.086 -0.4866  1.3666  1.2906
  641THF    H11 9471   2.755   1.820  -0.041  0.7230  1.6482 -0.2485
  641THF    H12 9472   2.725   1.587  -0.037 -1.2724  3.0961 -0.1203
  641THF    H13 9473   2.904   1.560  -0.018 -1.2510 -1.2757 -1.0398
  642THF     O1 9474   2.653   0.985   3.304  0.1104  0.5952  0.0205
  642THF     C2 9475   2.681   0.997   3.165  0.7420  0.1113  0.5552
  642THF     C3 9476   2.523   0.933   3.324 -0.3321  0.1844  0.3599
  642THF     H4 9477   2.785   0.996   3.131  1.5727 -0.5084  2.9173
  642THF     H5 9478   2.641   1.095   3.136  0.4769  0.4700  2.0337
  642THF     H6 9479   2.514   0.897   3.427  1.2799  0.3259  0.5665
  642THF     H7 9480   2.442   1.006   3.316 -1.2389 -0.5558  2.1266
  642THF     C8 9481   2.528   0.821   3.216 -0.5768 -0.4283 -0.5556
  642THF     C9 9482   2.606   0.883   3.102  0.4085 -0.1841 -0.8202
  642THF    H10 9483   2.428   0.785   3.190 -0.9443 -0.5366  0.9019
  642THF    H11 9484   2.583   0.739   3.262 -1.0173 -0.7411 -0.5800
  642THF    H12 9485   2.668   0.803   3.061 -0.4158 -0.6650 -1.1615
  642THF    H13 9486   2.537   0.916   3.023  1.5516  0.1474 -1.7071
  643THF     O1 9487   0.850   5.371   1.946  0.4881 -0.2626  0.1392
  643THF     C2 9488   0.740   5.461   1.939  0.0886  0.6595 -0.1547
  643THF     C3 9489   0.959   5.455   1.991 -0.1775  0.4881 -0.3738
  643THF     H4 9490   0.697   5.471   2.039  0.1399 -1.5200  0.1315
  643THF     H5 9491   0.656   5.423   1.881  0.1041  0.8060 -0.2730
  643THF     H6 9492   0.954   5.459   2.099  1.4657  0.0621 -0.2587
  643THF     H7 9493   1.051   5.408   1.956 -1.5094 -1.8381 -1.0077
  643THF     C8 9494   0.944   5.602   1.937 -0.3558  0.0370 -0.1668
  643THF     C9 9495   0.807   5.582   1.869  0.2315 -0.3320  0.1924
  643THF    H10 9496   1.021   5.617   1.861  0.3424 -0.3459  0.4468
  643THF    H11 9497   0.945   5.673   2.020  2.6415 -0.1237  0.0598
  643THF    H12 9498   0.742   5.668   1.887  0.6970 -0.2699  1.7390
  643THF    H13 9499   0.819   5.568   1.762 -1.4863 -0.3504 -0.0190
  644THF     O1 9500   2.190   5.454   3.901 -0.0907  0.1843 -0.7299
  644THF     C2 9501   2.338   5.461   3.907  0.0281 -0.0819  0.1910
  644THF     C3 9502   2.140   5.579   3.871  0.0828  0.0658  0.5461
  644THF     H4 9503   2.391   5.390   3.844  0.5726  1.2312 -0.8884
  644THF     H5 9504   2.372   5.451   4.010 -0.1372 -2.0382  0.0911
  644THF     H6 9505   2.039   5.583   3.832  0.1890  1.6617  0.3942
  644THF     H7 9506   2.127   5.637   3.962 -2.2822  3.1630 -1.5642
  644THF     C8 9507   2.244   5.653   3.788 -0.8508  0.7995 -0.4643
  644THF     C9 9508   2.375   5.599   3.856  0.5610 -0.0308  0.9212
  644THF    H10 9509   2.233   5.761   3.792 -1.7449  0.7420 -0.9121
  644THF    H11 9510   2.229   5.625   3.683 -3.1736  4.5932 -1.3420
  644THF    H12 9511   2.466   5.585   3.796 -1.3545 -2.4109 -1.7384
  644THF    H13 9512   2.402   5.663   3.940 -1.7243 -1.4102  2.8205
  645THF     O1 9513   5.468   5.131   3.434 -0.1918  0.6790 -0.1757
  645THF     C2 9514   5.562   5.039   3.375  0.3663  0.2044 -0.4601
  645THF     C3 9515   5.544   5.244   3.488 -0.5191 -0.6806  0.2264
  645THF     H4 9516   5.556   5.048   3.266 -1.1744 -2.7071 -0.7408
  645THF     H5 9517   5.520   4.942   3.403  1.1075  0.2461  0.8571
  645THF     H6 9518   5.506   5.332   3.436 -1.9070 -1.6995 -0.5474
  645THF     H7 9519   5.518   5.243   3.593 -0.7569  0.0132  0.1793
  645THF     C8 9520   5.691   5.231   3.439  0.3098  0.5235  0.8103
  645THF     C9 9521   5.699   5.083   3.427  0.1352  0.8891  0.1554
  645THF    H10 9522   5.761   5.275   3.510 -0.5910  1.8274  0.9248
  645THF    H11 9523   5.701   5.276   3.340 -0.6533 -1.7141 -0.3838
  645THF    H12 9524   5.770   5.038   3.357  0.3511 -1.0257  1.5441
  645THF    H13 9525   5.700   5.033   3.523 -1.1141  2.2689  0.9223
  646THF     O1 9526   3.315   0.742   1.399  0.6839  0.0673 -0.1135
  646THF     C2 9527   3.366   0.870   1.379  0.1761  0.7300 -0.7565
  646THF     C3 9528   3.411   0.642   1.380 -0.0971  0.1697 -0.5984
  646THF     H4 9529   3.322   0.946   1.443  1.3318 -0.2672  1.2916
  646THF     H5 9530   3.334   0.896   1.278  0.4927 -0.4801 -1.1895
  646THF     H6 9531   3.384   0.555   1.440  0.9992  0.7850  0.8249
  646THF     H7 9532   3.418   0.610   1.276  0.0795 -0.4831 -0.3905
  646THF     C8 9533   3.534   0.706   1.434  0.4849 -0.3923 -0.6262
  646THF     C9 9534   3.516   0.852   1.399 -0.0149  0.1231 -0.4662
  646THF    H10 9535   3.627   0.656   1.403  1.7469  0.1242  2.0629
  646THF    H11 9536   3.532   0.700   1.543  3.5334 -0.8810 -0.5096
  646THF    H12 9537   3.553   0.937   1.456 -0.0742 -0.0074 -0.2310
  646THF    H13 9538   3.568   0.878   1.306 -0.6600 -2.3352 -1.5989
  647THF     O1 9539   3.370   0.939   5.397  0.7471  0.3960 -0.0796
  647THF     C2 9540   3.438   0.816   5.435 -0.8775  0.6783  0.3334
  647THF     C3 9541   3.468   1.046   5.414  0.8050  0.2275 -0.4935
  647THF     H4 9542   3.384   0.729   5.395  0.4721  0.3566 -0.8502
  647THF     H5 9543   3.458   0.812   5.542  1.3583 -1.4781 -0.0697
  647THF     H6 9544   3.434   1.132   5.356 -1.1297  0.8429  1.4080
  647THF     H7 9545   3.465   1.068   5.521 -1.4228  2.0947 -0.8390
  647THF     C8 9546   3.592   0.979   5.364 -0.4723  0.1101  0.3843
  647THF     C9 9547   3.575   0.826   5.366 -0.1434  0.5796 -0.3818
  647THF    H10 9548   3.681   1.018   5.414 -0.2955  1.8609 -1.1792
  647THF    H11 9549   3.615   1.014   5.264 -0.4283  0.5548  0.5444
  647THF    H12 9550   3.572   0.786   5.264 -2.4975  0.0234 -0.1447
  647THF    H13 9551   3.657   0.775   5.418 -0.0739  1.5009  0.4420
  648THF     O1 9552   4.046   3.769   0.832  0.2419 -0.5760 -0.0627
  648THF     C2 9553   4.009   3.913   0.846 -0.1531  0.4902 -0.0730
  648THF     C3 9554   4.135   3.774   0.729  0.1498  0.4519  0.2684
  648THF     H4 9555   3.951   3.928   0.937  1.9928  0.2363  1.4246
  648THF     H5 9556   3.947   3.944   0.763  0.4371  0.4218 -0.5431
  648THF     H6 9557   4.180   3.677   0.706 -0.8900 -0.1197  0.6016
  648THF     H7 9558   4.074   3.806   0.644 -0.9039  2.1816  1.6308
  648THF     C8 9559   4.226   3.895   0.753  0.1119 -0.3069  0.3609
  648THF     C9 9560   4.148   3.983   0.844 -0.2108 -0.6317 -0.3473
  648THF    H10 9561   4.266   3.942   0.664 -1.0470 -1.3301 -0.7397
  648THF    H11 9562   4.312   3.857   0.808  0.5840 -0.0352 -0.1877
  648THF    H12 9563   4.194   3.982   0.943 -0.9302 -0.4063 -0.0098
  648THF    H13 9564   4.138   4.086   0.809 -0.4397 -0.2282  0.8581
  649THF     O1 9565   3.752   0.770   4.496 -0.2461  0.4162 -0.4216
  649THF     C2 9566   3.807   0.642   4.468 -0.7983 -0.0286 -0.1517
  649THF     C3 9567   3.661   0.755   4.601 -0.1415 -0.6122  0.1581
  649THF     H4 9568   3.903   0.644   4.417 -0.7585  1.5420 -0.0500
  649THF     H5 9569   3.739   0.576   4.414 -0.3245 -1.6469  1.1627
  649THF     H6 9570   3.651   0.850   4.654  1.8624 -1.3644  2.0627
  649THF     H7 9571   3.568   0.729   4.551  0.6134 -0.8782 -1.1590
  649THF     C8 9572   3.715   0.647   4.688  0.5588  0.2428 -0.1702
  649THF     C9 9573   3.825   0.581   4.602  0.5254 -0.9037  0.0380
  649THF    H10 9574   3.637   0.578   4.720  0.5669 -0.2086 -1.0897
  649THF    H11 9575   3.761   0.688   4.779 -0.2138 -0.4240  0.5405
  649THF    H12 9576   3.922   0.597   4.648  0.2977  0.0504  0.1931
  649THF    H13 9577   3.799   0.475   4.602  1.5446 -1.1577  0.4225
  650THF     O1 9578   2.044   0.446   5.052 -0.4475 -0.5091  0.3738
  650THF     C2 9579   1.963   0.346   5.118  0.1306  0.2442  0.1470
  650THF     C3 9580   2.146   0.478   5.141 -0.2920 -0.8327 -0.2436
  650THF     H4 9581   2.018   0.252   5.126 -1.3340 -0.6543  0.1201
  650THF     H5 9582   1.866   0.325   5.072  0.6445 -1.3912 -0.2769
  650THF     H6 9583   2.224   0.403   5.136 -0.8857 -1.5656  0.9468
  650THF     H7 9584   2.180   0.575   5.104 -1.4960 -0.7843 -1.3052
  650THF     C8 9585   2.080   0.475   5.280 -0.2855 -0.1459 -0.0041
  650THF     C9 9586   1.942   0.402   5.253  0.1993 -0.4260 -0.5979
  650THF    H10 9587   2.081   0.574   5.323 -1.3215  0.2659 -0.8762
  650THF    H11 9588   2.143   0.415   5.346  2.0048  2.3338  0.2322
  650THF    H12 9589   1.915   0.334   5.333 -0.4952  0.3823 -0.1285
  650THF    H13 9590   1.865   0.479   5.252 -0.5430 -1.1622 -0.0875
  651THF     O1 9591   4.059   2.891   5.248  0.0266  0.1307 -0.0038
  651THF     C2 9592   4.196   2.854   5.246  0.7816  0.1521  0.1910
  651THF     C3 9593   3.998   2.787   5.168 -0.6374  0.5495 -0.2586
  651THF     H4 9594   4.217   2.763   5.302 -1.2734  0.1551  1.0731
  651THF     H5 9595   4.246   2.935   5.298  0.5192  0.1751  0.4088
  651THF     H6 9596   4.013   2.701   5.233  3.4946 -0.2932 -2.0564
  651THF     H7 9597   3.890   2.790   5.150 -0.4255  1.1484 -1.4903
  651THF     C8 9598   4.084   2.781   5.045  0.0618 -0.6082 -0.2601
  651THF     C9 9599   4.220   2.828   5.094  0.9620  0.4694 -0.1296
  651THF    H10 9600   4.049   2.861   4.979  1.9730  0.1057 -0.4721
  651THF    H11 9601   4.096   2.689   4.988  3.9980 -0.0813 -0.5709
  651THF    H12 9602   4.308   2.765   5.076 -0.2228 -1.2722 -0.1570
  651THF    H13 9603   4.229   2.921   5.038  0.8173 -1.0033 -2.8059
  652THF     O1 9604   5.405   1.804   3.246 -0.2841  0.4301  0.3794
  652THF     C2 9605   5.425   1.895   3.139  0.2869  0.8961  0.8368
  652THF     C3 9606   5.390   1.886   3.364  0.9027  0.5000  0.5923
  652THF     H4 9607   5.420   1.840   3.045  3.5314 -1.5202  1.9429
  652THF     H5 9608   5.525   1.936   3.139  1.1544 -1.0925 -0.0724
  652THF     H6 9609   5.347   1.828   3.446 -0.3626  0.5195 -0.0238
  652THF     H7 9610   5.489   1.922   3.392  1.0514  1.1717 -0.7047
  652THF     C8 9611   5.306   2.006   3.311  0.4838 -0.6089  0.1050
  652THF     C9 9612   5.321   2.005   3.157  0.7126  0.3831 -0.1581
  652THF    H10 9613   5.348   2.102   3.344 -1.0574  0.0299  0.2813
  652THF    H11 9614   5.200   2.002   3.334  0.8919 -1.2294  2.1056
  652THF    H12 9615   5.231   1.976   3.103  1.7566 -0.5829 -1.4743
  652THF    H13 9616   5.371   2.093   3.118  1.1579 -0.0465 -0.5859
  653THF     O1 9617   1.773   0.483   4.313  0.0724  0.2289 -0.0705
  653THF     C2 9618   1.708   0.386   4.400  0.1161 -0.4896 -0.2691
  653THF     C3 9619   1.664   0.516   4.223 -0.2646 -0.4384  0.0396
  653THF     H4 9620   1.629   0.427   4.464 -0.3595 -1.8904  0.0662
  653THF     H5 9621   1.778   0.338   4.468  0.2865  0.4450  0.2419
  653THF     H6 9622   1.600   0.602   4.244  0.6350  0.6415 -1.3624
  653THF     H7 9623   1.711   0.533   4.126 -0.1089 -1.5615 -0.0867
  653THF     C8 9624   1.586   0.384   4.197  0.2998 -0.0626 -0.0151
  653THF     C9 9625   1.646   0.289   4.292 -0.2312  0.1050 -0.2597
  653THF    H10 9626   1.570   0.356   4.093  0.6845 -0.0213 -0.0871
  653THF    H11 9627   1.484   0.408   4.228  0.6021  2.2531 -0.6132
  653THF    H12 9628   1.584   0.211   4.337 -0.9558 -0.7320 -2.5530
  653THF    H13 9629   1.734   0.244   4.245  1.0115  1.5309  0.6045
  654THF     O1 9630   4.319   1.841   4.935 -0.1854  0.7116  0.0765
  654THF     C2 9631   4.194   1.905   4.914 -0.5395  0.4507 -0.1986
  654THF     C3 9632   4.415   1.940   4.968  0.5859  0.3596  0.0594
  654THF     H4 9633   4.101   1.850   4.907 -1.1611  1.4704 -0.0908
  654THF     H5 9634   4.203   1.946   4.813 -0.1784  1.9700  0.4109
  654THF     H6 9635   4.494   1.897   5.029 -0.8641 -0.4985  1.4013
  654THF     H7 9636   4.462   1.991   4.884 -2.0084 -0.5466 -2.0898
  654THF     C8 9637   4.338   2.036   5.053 -0.3736 -0.7114  0.0330
  654THF     C9 9638   4.194   1.998   5.033  0.8546 -0.1572  0.3645
  654THF    H10 9639   4.344   2.136   5.011 -0.0674 -0.5410  0.4671
  654THF    H11 9640   4.371   2.037   5.157 -0.7853  0.7613  0.1701
  654THF    H12 9641   4.157   1.947   5.123 -2.6020  1.0006 -0.2582
  654THF    H13 9642   4.137   2.089   5.023  0.2464 -0.5531  0.1799
  655THF     O1 9643   3.964   4.329   2.139  0.0270  0.5657 -0.7237
  655THF     C2 9644   4.011   4.205   2.206 -0.4417  0.0878  0.3751
  655THF     C3 9645   3.933   4.417   2.239 -0.3281  0.1778  0.1500
  655THF     H4 9646   4.119   4.216   2.219  0.1523 -0.2021 -3.2572
  655THF     H5 9647   3.992   4.113   2.151  2.6115 -1.4258  1.5879
  655THF     H6 9648   4.025   4.457   2.284 -1.1163  1.3307  0.7767
  655THF     H7 9649   3.883   4.504   2.199  1.8857  1.3186 -0.3293
  655THF     C8 9650   3.856   4.328   2.334 -0.4634  0.9209 -0.2203
  655THF     C9 9651   3.927   4.191   2.333  0.0577 -0.3440  0.1597
  655THF    H10 9652   3.755   4.321   2.295 -0.1600 -1.6609 -0.7072
  655THF    H11 9653   3.863   4.368   2.435 -0.0661 -1.9971  1.0237
  655THF    H12 9654   3.991   4.167   2.418  0.7900  0.4807 -0.1400
  655THF    H13 9655   3.850   4.114   2.325 -0.6195  0.4228 -0.8582
  656THF     O1 9656   4.864   2.573   2.577  0.2013  0.0672  0.6327
  656THF     C2 9657   4.821   2.552   2.442  0.0024  0.0437 -0.1754
  656THF     C3 9658   4.844   2.448   2.643  0.0995 -0.2170  0.0234
  656THF     H4 9659   4.898   2.530   2.368  0.0526 -0.0149 -0.1054
  656THF     H5 9660   4.762   2.637   2.408 -0.7058 -0.0738  0.7208
  656THF     H6 9661   4.910   2.369   2.609 -0.6143 -0.2961 -1.2612
  656THF     H7 9662   4.839   2.445   2.752 -3.3415 -1.3261 -0.0395
  656THF     C8 9663   4.712   2.402   2.597 -0.3870 -0.0205  0.1668
  656THF     C9 9664   4.731   2.429   2.450  0.4153 -0.0815  0.5335
  656THF    H10 9665   4.635   2.466   2.639 -0.0070  0.6494 -0.1441
  656THF    H11 9666   4.685   2.304   2.636 -0.8105  0.2397  0.5395
  656THF    H12 9667   4.780   2.348   2.395 -0.3486 -0.2208  0.0361
  656THF    H13 9668   4.633   2.445   2.406  0.7429 -0.2162 -0.2523
  657THF     O1 9669   0.602   1.770   2.367  0.4953  0.9473 -0.2557
  657THF     C2 9670   0.630   1.636   2.414 -0.0149 -0.4480  0.1121
  657THF     C3 9671   0.718   1.842   2.401 -0.4805  0.1572 -0.3496
  657THF     H4 9672   0.678   1.591   2.327 -0.2816 -0.4530 -0.0324
  657THF     H5 9673   0.538   1.580   2.431 -1.0958  0.8235 -1.2285
  657THF     H6 9674   0.785   1.824   2.317  1.9208  0.1773  1.4505
  657THF     H7 9675   0.694   1.948   2.408 -0.6642  0.1053 -0.2006
  657THF     C8 9676   0.790   1.773   2.526  0.1393 -0.1701 -0.2407
  657THF     C9 9677   0.725   1.632   2.531 -0.9493  0.0569  0.3083
  657THF    H10 9678   0.772   1.827   2.619 -0.3505 -0.5244 -0.1241
  657THF    H11 9679   0.898   1.768   2.516  0.0863 -2.0237 -0.2408
  657THF    H12 9680   0.789   1.543   2.527  1.5729  1.5959  2.4784
  657THF    H13 9681   0.680   1.614   2.629  0.0006 -1.6361  0.4881
  658THF     O1 9682   3.241   4.710   0.821  0.2493  0.0388 -0.1234
  658THF     C2 9683   3.104   4.701   0.779  0.2436  0.3123 -0.5211
  658THF     C3 9684   3.317   4.709   0.696  0.3103  0.1787 -1.1315
  658THF     H4 9685   3.043   4.751   0.854 -2.1804 -1.4825 -1.1902
  658THF     H5 9686   3.074   4.597   0.779  0.8279  0.1306  0.2647
  658THF     H6 9687   3.416   4.736   0.732 -0.1897 -0.4351  0.8510
  658THF     H7 9688   3.308   4.605   0.663 -0.5353 -0.8428  1.9333
  658THF     C8 9689   3.239   4.794   0.608 -0.2698 -0.1713 -0.0621
  658THF     C9 9690   3.093   4.771   0.645 -0.0176 -0.4179 -0.5022
  658THF    H10 9691   3.246   4.775   0.501  0.0354 -2.6077  0.3439
  658THF    H11 9692   3.250   4.902   0.615  1.7687 -0.2226 -1.6245
  658THF    H12 9693   3.048   4.871   0.647  0.1604 -0.3076 -1.5340
  658THF    H13 9694   3.033   4.714   0.574 -0.8622  1.7525 -1.6381
  659THF     O1 9695   3.820   2.347   1.265 -0.2202 -0.4237 -0.6640
  659THF     C2 9696   3.782   2.397   1.391 -0.0772  1.0217 -0.4363
  659THF     C3 9697   3.771   2.428   1.170  0.4371 -0.5223 -0.9156
  659THF     H4 9698   3.856   2.361   1.464 -0.1077  1.1430 -0.3460
  659THF     H5 9699   3.680   2.367   1.413  1.5806 -3.3723  2.8611
  659THF     H6 9700   3.819   2.411   1.074 -1.8861  1.4684 -2.5541
  659THF     H7 9701   3.664   2.408   1.159  0.0731 -2.0132  3.4082
  659THF     C8 9702   3.817   2.561   1.224  0.3910 -0.1727 -0.5081
  659THF     C9 9703   3.795   2.547   1.376  0.1754 -1.0758  0.4845
  659THF    H10 9704   3.759   2.642   1.179 -1.9416 -0.6121  1.5126
  659THF    H11 9705   3.924   2.558   1.201  0.1158 -2.8778 -1.7608
  659THF    H12 9706   3.885   2.579   1.429 -1.7839  1.2210  2.6910
  659THF    H13 9707   3.706   2.607   1.397 -0.7834 -1.0615 -3.0455
  660THF     O1 9708   0.699   4.062   4.904  0.3620 -0.0925 -0.1266
  660THF     C2 9709   0.653   3.926   4.887  0.3714 -0.8412  0.3946
  660THF     C3 9710   0.591   4.141   4.935 -0.3234  0.1201  0.5252
  660THF     H4 9711   0.728   3.852   4.916  0.8305  0.7005  3.5827
  660THF     H5 9712   0.604   3.899   4.793 -0.7960  1.1933  0.3537
  660THF     H6 9713   0.617   4.234   4.986 -0.6123  0.0352  0.8295
  660THF     H7 9714   0.547   4.164   4.838 -3.0531  0.3620  1.7271
  660THF     C8 9715   0.477   4.059   5.007  0.3291 -0.0602 -0.4048
  660THF     C9 9716   0.544   3.923   4.993  0.1703 -0.0007  0.1233
  660THF    H10 9717   0.383   4.056   4.952 -0.4948 -2.3666  0.9809
  660THF    H11 9718   0.453   4.099   5.105 -0.1674  0.6090 -0.7926
  660THF    H12 9719   0.580   3.886   5.089  2.8810  1.4575 -0.2332
  660THF    H13 9720   0.470   3.846   4.968  1.0806 -0.9769  0.3536
  661THF     O1 9721   4.916   4.058   4.932  0.4791 -0.1997 -0.3787
  661THF     C2 9722   4.990   3.938   4.939  0.0998  0.1886 -0.0865
  661THF     C3 9723   4.950   4.116   4.805 -0.6213 -0.3885  0.4929
  661THF     H4 9724   4.926   3.867   4.993 -1.9320  2.6322  0.9055
  661THF     H5 9725   5.081   3.948   4.998  0.3766 -0.9140 -0.2968
  661THF     H6 9726   4.877   4.193   4.783 -0.7595 -0.7552 -0.4139
  661THF     H7 9727   5.051   4.158   4.801 -0.8431  0.0789 -0.4431
  661THF     C8 9728   4.951   3.992   4.718  0.3490 -1.1166  0.2460
  661THF     C9 9729   5.029   3.891   4.798 -0.0777 -0.2337 -0.2964
  661THF    H10 9730   5.005   4.007   4.624 -1.2220  1.0229 -0.3815
  661THF    H11 9731   4.847   3.965   4.701  0.3395 -0.5854 -0.5642
  661THF    H12 9732   4.994   3.793   4.765 -1.0492 -0.4579  1.2741
  661THF    H13 9733   5.135   3.908   4.779  0.3334 -1.8999  0.3313
  662THF     O1 9734   0.175   0.836   0.612  0.7540 -0.6163  0.2152
  662THF     C2 9735   0.298   0.772   0.599  0.0889  0.7828  0.4540
  662THF     C3 9736   0.208   0.970   0.586 -0.2165  0.1186 -0.1890
  662THF     H4 9737   0.295   0.663   0.603  0.9394  0.7934  2.3466
  662THF     H5 9738   0.371   0.791   0.678  3.8506 -1.0526 -2.2167
  662THF     H6 9739   0.112   1.012   0.556  0.2682  0.4248 -1.3626
  662THF     H7 9740   0.236   1.003   0.687 -0.4263 -2.2181  0.6943
  662THF     C8 9741   0.333   0.966   0.490  1.3549  0.4399  0.2502
  662THF     C9 9742   0.347   0.820   0.469 -0.0293 -0.2069  0.5645
  662THF    H10 9743   0.422   1.016   0.529  0.6883  1.1299  0.9065
  662THF    H11 9744   0.320   1.022   0.397  0.0758  0.0649  0.1856
  662THF    H12 9745   0.276   0.785   0.394 -0.2130  1.9229 -0.3215
  662THF    H13 9746   0.446   0.794   0.432 -0.0012 -0.1162  0.5754
  663THF     O1 9747   4.521   1.894   0.702  0.6357  0.2759 -0.0562
  663THF     C2 9748   4.622   1.807   0.767 -0.1465 -0.0217  0.5496
  663THF     C3 9749   4.559   2.025   0.737 -0.1945  0.1546  0.1224
  663THF     H4 9750   4.629   1.708   0.722 -0.8377 -0.2379  0.8987
  663THF     H5 9751   4.585   1.793   0.869  0.3992  1.7259  1.0067
  663THF     H6 9752   4.514   2.097   0.669  2.2598  0.0973 -1.6946
  663THF     H7 9753   4.523   2.041   0.839 -0.4503  0.9427 -0.0851
  663THF     C8 9754   4.706   2.028   0.733 -0.1643 -0.6006  0.1516
  663THF     C9 9755   4.751   1.884   0.759  0.1451 -0.0284 -0.0064
  663THF    H10 9756   4.754   2.098   0.802 -0.4076  0.3153 -0.5915
  663THF    H11 9757   4.741   2.056   0.634 -0.2335 -2.6410 -0.4788
  663THF    H12 9758   4.808   1.853   0.671  3.0162  2.0771  0.9415
  663THF    H13 9759   4.815   1.868   0.845  0.5403 -0.4789 -0.3779
  664THF     O1 9760   0.279   3.995   4.474  0.1625  0.2305  0.5204
  664THF     C2 9761   0.223   4.055   4.588  0.0116  0.2881  0.3352
  664THF     C3 9762   0.218   3.871   4.443 -0.5390  0.7290 -0.0014
  664THF     H4 9763   0.224   4.164   4.589 -0.8058  0.2982  0.6758
  664THF     H5 9764   0.273   4.011   4.675 -0.2202 -0.6676  0.0034
  664THF     H6 9765   0.234   3.838   4.341  1.7648  3.3538 -0.5986
  664THF     H7 9766   0.254   3.795   4.513 -1.3886  0.5009  0.2018
  664THF     C8 9767   0.073   3.905   4.473  0.2492 -0.6691 -0.0212
  664THF     C9 9768   0.084   4.002   4.587  0.7089  0.8324 -0.3319
  664THF    H10 9769   0.008   3.818   4.489 -0.3203  0.0584  1.8271
  664THF    H11 9770   0.040   3.949   4.378  0.4747 -1.0890 -0.2962
  664THF    H12 9771   0.010   4.079   4.568  1.3006  1.1595 -1.3779
  664THF    H13 9772   0.064   3.943   4.677 -0.7850  0.4178 -0.9048
  665THF     O1 9773   3.150   4.433   1.350 -0.5436 -0.5467  0.0935
  665THF     C2 9774   3.164   4.571   1.390 -0.0802  0.5460 -0.1935
  665THF     C3 9775   3.159   4.427   1.206  0.1481 -0.5617 -1.1692
  665THF     H4 9776   3.266   4.607   1.384 -0.3538  1.2264 -1.0275
  665THF     H5 9777   3.142   4.584   1.496  2.7498  1.1572  0.3933
  665THF     H6 9778   3.265   4.442   1.187  0.1247  1.2045 -0.0909
  665THF     H7 9779   3.120   4.329   1.177 -3.1742  0.3635 -0.3495
  665THF     C8 9780   3.080   4.544   1.162 -0.3537 -0.0703  0.6455
  665THF     C9 9781   3.079   4.641   1.285 -0.7614 -0.0936 -0.5516
  665THF    H10 9782   2.980   4.518   1.126 -0.0543  0.1465 -0.3701
  665THF    H11 9783   3.127   4.579   1.070 -2.1022  0.7064 -0.0079
  665THF    H12 9784   3.127   4.736   1.260  0.0297  0.0424  1.2800
  665THF    H13 9785   2.982   4.679   1.317 -0.8496  0.1523 -1.1167
  666THF     O1 9786   3.671   1.079   2.427 -0.3746 -0.4029 -0.4570
  666THF     C2 9787   3.777   1.112   2.512 -0.0123 -0.1699  0.8287
  666THF     C3 9788   3.704   0.967   2.355 -0.3079  0.2318  0.5934
  666THF     H4 9789   3.758   1.071   2.612 -2.6349 -1.9249 -0.2652
  666THF     H5 9790   3.779   1.221   2.512 -2.5890 -0.0429 -0.8789
  666THF     H6 9791   3.699   0.876   2.415  0.2828  0.1997  0.5988
  666THF     H7 9792   3.657   0.975   2.257  1.9119  0.9413 -0.4800
  666THF     C8 9793   3.852   0.999   2.328 -0.0960 -0.2317 -0.2474
  666THF     C9 9794   3.902   1.050   2.460  0.4459  0.0755 -0.2224
  666THF    H10 9795   3.861   1.077   2.252 -0.8337 -0.0469 -0.1519
  666THF    H11 9796   3.902   0.912   2.286 -1.4241 -0.3917 -1.5455
  666THF    H12 9797   3.917   0.967   2.529  0.5086 -0.2081 -0.5774
  666THF    H13 9798   3.990   1.114   2.454  0.7367 -0.3776 -0.9779
  667THF     O1 9799   2.057   3.038   3.293 -0.6447 -0.1964 -0.2614
  667THF     C2 9800   2.102   2.907   3.342 -0.0524  0.2851 -0.1160
  667THF     C3 9801   1.928   3.058   3.352  0.3869  0.2473 -0.1520
  667THF     H4 9802   2.124   2.907   3.449 -1.6510  1.3850  0.2468
  667THF     H5 9803   2.171   2.853   3.278 -0.8068 -0.5448 -0.2391
  667THF     H6 9804   1.934   3.115   3.445  0.2259  0.9821 -0.5847
  667THF     H7 9805   1.870   3.122   3.286  1.9011 -0.2354 -2.0241
  667THF     C8 9806   1.870   2.918   3.377 -0.4656 -0.2472  0.7888
  667THF     C9 9807   1.970   2.820   3.333 -0.2297 -0.0149  0.6792
  667THF    H10 9808   1.774   2.914   3.325  0.3715  1.1473 -1.0025
  667THF    H11 9809   1.859   2.912   3.485 -1.5745  2.6691  0.9325
  667THF    H12 9810   1.970   2.743   3.411 -2.9333  0.8530  1.6279
  667THF    H13 9811   1.950   2.783   3.232 -0.9541 -0.4312  0.9652
  668THF     O1 9812   3.124   1.875   2.637 -0.5814 -0.2515 -0.5686
  668THF     C2 9813   3.148   1.992   2.720  0.1451  0.4112  0.9348
  668THF     C3 9814   3.185   1.902   2.508 -0.2720 -0.1169 -0.0237
  668THF     H4 9815   3.159   1.963   2.825 -3.0974 -0.9451  0.9894
  668THF     H5 9816   3.060   2.052   2.700 -1.8911 -3.0185 -1.6121
  668THF     H6 9817   3.265   1.828   2.506  0.3741  0.4908  1.5873
  668THF     H7 9818   3.117   1.888   2.424 -1.0325  0.8951  0.4066
  668THF     C8 9819   3.253   2.041   2.516  0.1756  0.5233  0.4013
  668THF     C9 9820   3.266   2.064   2.658  0.0948 -0.4885 -0.2903
  668THF    H10 9821   3.179   2.116   2.486 -0.1566  0.0463  0.0034
  668THF    H11 9822   3.337   2.059   2.449  0.1321  0.3254  0.2911
  668THF    H12 9823   3.365   2.028   2.689 -0.5674 -0.4983  1.9754
  668THF    H13 9824   3.268   2.172   2.669  0.2062 -0.7169  2.9424
  669THF     O1 9825   4.125   1.059   3.701 -0.0623  0.1118 -0.6046
  669THF     C2 9826   4.068   1.164   3.628  0.1640  1.2780  0.6666
  669THF     C3 9827   4.073   0.930   3.663 -0.6818 -0.6135 -0.0957
  669THF     H4 9828   4.134   1.166   3.541 -0.2918 -1.8517  0.1560
  669THF     H5 9829   4.072   1.265   3.670  0.2901  1.3777  0.4205
  669THF     H6 9830   4.145   0.875   3.603  0.7181 -0.8060  1.6843
  669THF     H7 9831   4.054   0.879   3.757 -0.5803 -1.2178 -0.3953
  669THF     C8 9832   3.942   0.966   3.583 -0.2793  0.1745  0.0999
  669THF     C9 9833   3.920   1.115   3.616 -0.1594 -0.2779  0.1585
  669THF    H10 9834   3.853   0.908   3.606 -0.2568 -0.1861 -0.6862
  669THF    H11 9835   3.966   0.942   3.480  1.5961 -1.0488  0.7655
  669THF    H12 9836   3.855   1.166   3.544  1.6826  2.9128  0.5630
  669THF    H13 9837   3.869   1.123   3.712 -1.7934 -1.9590 -0.5115
  670THF     O1 9838   5.446   0.147   5.024  0.3072 -0.0627 -0.6385
  670THF     C2 9839   5.467   0.016   5.066 -0.1526  0.0195  0.3567
  670THF     C3 9840   5.471   0.241   5.128  0.5311 -0.6654 -0.0458
  670THF     H4 9841   5.572  -0.003   5.043 -0.2885  2.3622 -2.8583
  670THF     H5 9842   5.400  -0.054   5.016  1.4969 -0.8694 -0.6948
  670THF     H6 9843   5.580   0.249   5.124  0.6181 -1.9875 -1.1106
  670THF     H7 9844   5.432   0.340   5.103  1.4386 -0.9397 -2.9371
  670THF     C8 9845   5.417   0.174   5.250  0.2835  0.1683 -0.2492
  670THF     C9 9846   5.446   0.025   5.216  0.7485 -0.4164  0.6568
  670THF    H10 9847   5.313   0.199   5.267  0.3978  1.7833 -1.6690
  670THF    H11 9848   5.469   0.207   5.339  1.5206  0.8152 -1.1845
  670THF    H12 9849   5.527  -0.018   5.274 -0.3055 -1.4423  1.4033
  670THF    H13 9850   5.359  -0.036   5.240  0.5159  0.0996  1.1658
  671THF     O1 9851   2.538   1.389   5.354  0.8108 -0.2312  0.2455
  671THF     C2 9852   2.553   1.466   5.232 -0.5186  0.4092  0.0522
  671THF     C3 9853   2.481   1.262   5.308  1.0934 -0.3950  0.8174
  671THF     H4 9854   2.621   1.551   5.242 -0.1095  0.1226 -0.2322
  671THF     H5 9855   2.453   1.490   5.196 -0.7394  0.8235  0.9292
  671THF     H6 9856   2.485   1.171   5.368  2.0975 -1.7380 -1.1876
  671THF     H7 9857   2.377   1.274   5.277  1.5933  0.1153 -0.7242
  671THF     C8 9858   2.564   1.234   5.180 -0.9073  0.1207  0.7287
  671THF     C9 9859   2.612   1.370   5.134  0.8329  0.5580  0.8716
  671THF    H10 9860   2.503   1.181   5.107  1.2516 -1.3402 -0.1054
  671THF    H11 9861   2.645   1.164   5.197 -0.3395 -0.2489 -2.7630
  671THF    H12 9862   2.720   1.388   5.128  0.8528  0.6177  1.3662
  671THF    H13 9863   2.587   1.395   5.031  1.2605 -0.3278  0.5469
  672THF     O1 9864   1.056   0.864   4.524 -0.1099 -0.1617 -0.7149
  672THF     C2 9865   1.015   0.816   4.397  0.3527  0.1652  0.2872
  672THF     C3 9866   1.015   0.999   4.532  0.1397  0.5263 -0.1668
  672THF     H4 9867   0.972   0.717   4.407 -1.2567  0.9344  1.3644
  672THF     H5 9868   1.095   0.820   4.323  1.1186  0.9993  1.1432
  672THF     H6 9869   1.001   1.035   4.634  0.1074 -0.7460  0.3012
  672THF     H7 9870   1.097   1.061   4.497  1.4635 -0.0732  1.6891
  672THF     C8 9871   0.885   1.014   4.456 -0.0555  0.3045 -0.6265
  672THF     C9 9872   0.906   0.910   4.347  0.3399  0.6492  0.1621
  672THF    H10 9873   0.867   1.116   4.423 -1.2706  0.9317  1.7931
  672THF    H11 9874   0.789   0.989   4.500 -0.1670 -2.5431 -2.2186
  672THF    H12 9875   0.814   0.854   4.332 -0.3222  1.7915 -0.1550
  672THF    H13 9876   0.944   0.946   4.252  1.8980  0.1931  0.5784
  673THF     O1 9877   5.180   2.210   4.933  0.6739 -0.2150 -0.0437
  673THF     C2 9878   5.198   2.346   4.985  0.2137 -0.0602 -0.0818
  673THF     C3 9879   5.232   2.120   5.033  0.0490  0.1684 -0.1261
  673THF     H4 9880   5.144   2.424   4.931  2.1581  0.7357 -0.9791
  673THF     H5 9881   5.302   2.379   4.983 -0.1381  1.0557 -1.4663
  673THF     H6 9882   5.179   2.027   5.017  0.5270  0.0238 -0.9242
  673THF     H7 9883   5.339   2.100   5.029  0.4440  1.4143  2.2004
  673THF     C8 9884   5.187   2.183   5.165 -0.2432 -0.4013  0.1788
  673THF     C9 9885   5.156   2.328   5.130 -0.1551  0.3132 -0.0176
  673THF    H10 9886   5.242   2.165   5.258  0.6365 -0.4880 -0.3508
  673THF    H11 9887   5.094   2.134   5.194  0.1634 -1.0841  0.3681
  673THF    H12 9888   5.052   2.360   5.142 -0.0648  1.1740 -1.3206
  673THF    H13 9889   5.207   2.390   5.203  1.7542 -0.9881 -0.1589
  674THF     O1 9890   3.975   4.484   3.600 -0.2277  0.0146  0.0303
  674THF     C2 9891   3.948   4.480   3.740 -0.4384  0.1409  0.5558
  674THF     C3 9892   4.090   4.404   3.570  0.4542 -0.3127  0.0802
  674THF     H4 9893   3.844   4.466   3.767 -0.8391 -0.6896 -1.2421
  674THF     H5 9894   3.990   4.572   3.782  1.5228 -0.5977  0.3530
  674THF     H6 9895   4.094   4.369   3.467  2.2199 -1.2367  0.4289
  674THF     H7 9896   4.174   4.472   3.583  0.8910 -0.7275 -0.5595
  674THF     C8 9897   4.089   4.289   3.676 -0.1192 -0.1655  0.5637
  674THF     C9 9898   4.031   4.357   3.797  0.1904  0.6207  0.0568
  674THF    H10 9899   4.185   4.237   3.684  1.1092  1.8969 -0.1042
  674THF    H11 9900   4.011   4.222   3.640 -1.4400  1.2120  0.7986
  674THF    H12 9901   3.977   4.288   3.862  1.8143  0.1250  0.9222
  674THF    H13 9902   4.107   4.384   3.869  1.5131  1.2316 -1.5115
  675THF     O1 9903   2.046   3.403   2.347  0.0176  0.2276  0.6335
  675THF     C2 9904   2.012   3.359   2.214 -0.2042 -0.2222  0.7318
  675THF     C3 9905   1.976   3.522   2.380 -0.5004 -0.4644  0.0845
  675THF     H4 9906   1.926   3.294   2.225 -0.8759  0.3933 -0.6115
  675THF     H5 9907   2.094   3.314   2.159 -0.7974 -0.7374  0.2602
  675THF     H6 9908   1.906   3.509   2.462  0.2408 -0.4680  0.7252
  675THF     H7 9909   2.044   3.603   2.406 -1.6043  0.3354  0.5274
  675THF     C8 9910   1.904   3.563   2.251  0.0953 -0.3581  0.2046
  675THF     C9 9911   1.967   3.485   2.142  0.0286  0.3852 -0.4024
  675THF    H10 9912   1.912   3.671   2.246  2.5791 -0.3034  2.6340
  675THF    H11 9913   1.802   3.526   2.262  1.0674 -3.1295  0.7396
  675THF    H12 9914   1.905   3.462   2.054  2.4453  0.7663 -2.3035
  675THF    H13 9915   2.059   3.536   2.114  1.8068 -3.0488 -1.3735
  676THF     O1 9916   4.342   3.096   0.160  0.3883  0.3293 -0.3905
  676THF     C2 9917   4.330   3.024   0.288 -0.2800 -0.4756 -0.4393
  676THF     C3 9918   4.226   3.060   0.082 -0.4785  0.3667 -0.0797
  676THF     H4 9919   4.244   3.059   0.345 -0.8536 -2.7446  0.1599
  676THF     H5 9920   4.427   3.031   0.338 -0.2494 -1.0783 -0.4151
  676THF     H6 9921   4.154   3.127   0.129  0.7775  1.2600  0.6328
  676THF     H7 9922   4.237   3.088  -0.023 -3.2015 -0.1754 -0.6039
  676THF     C8 9923   4.217   2.911   0.115  0.4047 -0.3101 -0.1057
  676THF     C9 9924   4.300   2.888   0.237 -0.1234 -0.2415  0.2677
  676THF    H10 9925   4.234   2.839   0.034  2.1306 -1.2249  1.0060
  676THF    H11 9926   4.110   2.894   0.132 -0.1814 -0.1943 -3.1125
  676THF    H12 9927   4.267   2.805   0.300 -1.6426 -0.2474 -0.5038
  676THF    H13 9928   4.395   2.848   0.201  0.5379  0.5968  1.0222
  677THF     O1 9929   3.304   2.045   3.581  0.2231 -0.2577 -0.4717
  677THF     C2 9930   3.268   2.107   3.707 -0.2696 -0.3371  0.0397
  677THF     C3 9931   3.442   2.077   3.556 -0.2097  0.6729  0.6347
  677THF     H4 9932   3.309   2.047   3.789 -0.1976 -1.6394 -0.9201
  677THF     H5 9933   3.160   2.105   3.725 -0.3114  1.9482  0.3727
  677THF     H6 9934   3.506   2.002   3.602 -0.8317 -0.3126 -0.0639
  677THF     H7 9935   3.452   2.070   3.447 -1.6696 -1.7617  0.5682
  677THF     C8 9936   3.469   2.216   3.609 -0.0775 -0.7236 -0.1035
  677THF     C9 9937   3.340   2.240   3.687 -0.7276  0.2476  0.5826
  677THF    H10 9938   3.489   2.277   3.521 -2.4181 -1.0016 -0.9152
  677THF    H11 9939   3.555   2.209   3.674 -0.5354  0.0221  0.6028
  677THF    H12 9940   3.343   2.301   3.778 -2.3620 -0.0606  0.8614
  677THF    H13 9941   3.279   2.300   3.620  1.9065 -0.2501 -2.4758
  678THF     O1 9942   1.605   3.167   4.636  0.2719 -0.0276 -0.4110
  678THF     C2 9943   1.476   3.232   4.643 -0.0137 -0.5431 -0.6607
  678THF     C3 9944   1.666   3.163   4.762  0.1974 -0.2846  0.4431
  678THF     H4 9945   1.392   3.171   4.677  1.0848 -2.3990 -1.1862
  678THF     H5 9946   1.459   3.284   4.549  0.9437  0.1027 -0.4874
  678THF     H6 9947   1.633   3.075   4.817  0.3186 -0.4946  0.1825
  678THF     H7 9948   1.771   3.151   4.738 -0.1141 -0.2685 -1.0133
  678THF     C8 9949   1.622   3.305   4.817 -0.4706 -0.2569 -0.2300
  678THF     C9 9950   1.489   3.330   4.758  0.4245 -0.0189 -0.4299
  678THF    H10 9951   1.691   3.384   4.790 -0.5081 -0.8987 -2.3284
  678THF    H11 9952   1.628   3.308   4.926  2.1707  0.7927 -0.3320
  678THF    H12 9953   1.417   3.309   4.837  1.5853  0.9084  0.9334
  678THF    H13 9954   1.485   3.435   4.730 -1.0543 -0.7775 -3.5499
  679THF     O1 9955   3.421   5.012   1.460  0.0313  0.2655  0.6015
  679THF     C2 9956   3.435   4.912   1.360  0.2781  0.4902  0.0159
  679THF     C3 9957   3.551   5.046   1.503  0.2043 -0.3823  0.6016
  679THF     H4 9958   3.437   4.950   1.258 -2.6442 -0.4154 -0.4967
  679THF     H5 9959   3.348   4.847   1.373  1.1488 -0.8257 -0.5253
  679THF     H6 9960   3.610   5.100   1.428  0.6997 -2.0851 -0.2847
  679THF     H7 9961   3.553   5.107   1.593 -0.3706  0.6350 -0.0512
  679THF     C8 9962   3.619   4.913   1.524 -0.0401  0.3089 -0.1982
  679THF     C9 9963   3.560   4.834   1.409  0.5000  0.4148 -0.2874
  679THF    H10 9964   3.588   4.879   1.623  0.1562  0.8536  0.0488
  679THF    H11 9965   3.728   4.915   1.513 -0.1543 -0.2979 -1.8311
  679THF    H12 9966   3.633   4.813   1.331 -0.9416 -1.5754 -1.2167
  679THF    H13 9967   3.518   4.737   1.438  0.1576 -0.0884 -2.2837
  680THF     O1 9968   5.401   1.260   1.569 -0.1604 -0.6030 -0.3937
  680THF     C2 9969   5.504   1.170   1.527  0.6023 -0.2960  0.2569
  680THF     C3 9970   5.295   1.244   1.480  0.2710  0.1464  0.1102
  680THF     H4 9971   5.480   1.078   1.579  0.6241 -0.9484 -0.8458
  680THF     H5 9972   5.605   1.203   1.550  0.5922 -0.1786  0.1327
  680THF     H6 9973   5.237   1.161   1.520  2.2485 -0.5125  1.7450
  680THF     H7 9974   5.238   1.337   1.488  0.3206  0.1060  0.9835
  680THF     C8 9975   5.359   1.222   1.342 -1.0230  0.1188 -0.8339
  680THF     C9 9976   5.497   1.164   1.370 -0.5682 -0.6019 -0.8657
  680THF    H10 9977   5.365   1.316   1.288 -0.9908 -0.0418 -1.1076
  680THF    H11 9978   5.291   1.164   1.280 -2.5165  2.1509 -1.1900
  680THF    H12 9979   5.519   1.061   1.342  0.1464 -0.6113 -0.3008
  680THF    H13 9980   5.575   1.229   1.330 -0.1514  0.6547  1.7498
  681THF     O1 9981   2.934   3.963   0.550  0.5056 -0.1392 -0.7586
  681THF     C2 9982   2.887   4.097   0.525  0.3812  0.5915 -0.3959
  681THF     C3 9983   2.892   3.885   0.442  0.5546 -0.0324  0.6685
  681THF     H4 9984   2.953   4.152   0.458 -0.9155  2.2188 -0.4094
  681THF     H5 9985   2.877   4.151   0.620  0.6414 -1.9183  1.1702
  681THF     H6 9986   2.965   3.873   0.362 -0.1384  1.9346 -0.3215
  681THF     H7 9987   2.857   3.788   0.478 -0.3097 -0.2272 -0.6033
  681THF     C8 9988   2.764   3.946   0.384 -0.0439 -1.1026 -0.8171
  681THF     C9 9989   2.751   4.075   0.462 -0.4695 -0.1534  0.8759
  681THF    H10 9990   2.679   3.881   0.404 -1.5008  1.3102  1.4371
  681THF    H11 9991   2.767   3.957   0.275 -0.9097 -0.7493 -0.8202
  681THF    H12 9992   2.723   4.154   0.392 -1.0270 -1.2980 -0.2285
  681THF    H13 9993   2.671   4.066   0.535 -2.3382 -2.9338 -1.2997
  682THF     O1 9994   3.531   3.924   1.653  0.3921 -0.0508  0.0889
  682THF     C2 9995   3.417   3.848   1.610  0.6938 -0.1371 -0.6024
  682THF     C3 9996   3.499   3.983   1.774  0.5399  0.0881 -0.2353
  682THF     H4 9997   3.408   3.747   1.650 -0.2466  1.1277  2.7599
  682THF     H5 9998   3.424   3.832   1.502 -1.2565 -0.3383 -0.7378
  682THF     H6 9999   3.500   3.909   1.855 -2.8178 -0.7911 -0.8632
  682THF     H710000   3.576   4.060   1.778  1.9421 -1.2570 -0.5204
  682THF     C810001   3.354   4.029   1.759 -0.5005 -0.6724 -0.1381
  682THF     C910002   3.300   3.931   1.652 -0.9552 -0.0159 -0.3599
  682THF    H1010003   3.353   4.131   1.721  0.2793 -0.7651 -0.4316
  682THF    H1110004   3.300   4.021   1.853 -2.4595 -0.9384 -1.2433
  682THF    H1210005   3.203   3.888   1.677 -1.0191  0.2600 -0.1232
  682THF    H1310006   3.281   3.991   1.564  1.7624  1.9627  0.2676
  683THF     O110007   2.600   3.097   3.410 -0.0194  0.3665 -0.1206
  683THF     C210008   2.653   3.071   3.538  0.2258  0.2002 -0.2116
  683THF     C310009   2.679   3.033   3.308  0.0220 -0.1505  0.6843
  683THF     H410010   2.582   3.102   3.614 -0.0541  3.4019 -1.6185
  683THF     H510011   2.750   3.119   3.547 -1.6224  4.0872  1.4365
  683THF     H610012   2.632   3.028   3.210 -2.5755  0.5465  1.8124
  683THF     H710013   2.772   3.088   3.291  0.5264 -0.9790  0.7119
  683THF     C810014   2.707   2.897   3.372 -0.2597 -0.0472  0.3930
  683THF     C910015   2.666   2.914   3.520  0.0596 -0.8828 -0.2456
  683THF    H1010016   2.812   2.872   3.364 -0.5810 -1.2950 -0.1529
  683THF    H1110017   2.649   2.812   3.336  2.0513 -1.1818 -0.8232
  683THF    H1210018   2.572   2.860   3.527 -0.9942  0.7139 -1.3261
  683THF    H1310019   2.736   2.877   3.595  0.2697  0.4275  0.2410
  684THF     O110020   1.709   1.450   3.449 -0.3309 -0.1284  0.0721
  684THF     C210021   1.668   1.516   3.324 -0.1359 -0.4236 -0.2805
  684THF     C310022   1.615   1.483   3.545 -1.1071  0.1410  0.5295
  684THF     H410023   1.597   1.457   3.267  1.4774 -1.3574 -1.4006
  684THF     H510024   1.752   1.528   3.256 -0.3200  0.1930 -0.4148
  684THF     H610025   1.533   1.413   3.529  0.6525 -2.3309  1.7339
  684THF     H710026   1.656   1.472   3.645  0.3561 -3.9436 -0.3387
  684THF     C810027   1.580   1.628   3.516 -0.2089 -0.2323  0.7405
  684THF     C910028   1.598   1.641   3.366  0.4056 -0.2568  0.5894
  684THF    H1010029   1.642   1.701   3.569 -0.3810 -0.0693  0.7205
  684THF    H1110030   1.477   1.635   3.551 -0.3027 -1.1721  0.6819
  684THF    H1210031   1.501   1.639   3.317  1.2507  2.4915 -1.4653
  684THF    H1310032   1.634   1.732   3.317 -0.6262 -0.1894 -0.0636
  685THF     O110033   0.913   2.068   4.129  0.3085 -0.7935 -0.5058
  685THF     C210034   1.046   2.061   4.185 -0.1879  0.4599  0.2452
  685THF     C310035   0.917   2.139   4.008 -0.0897 -0.5950 -0.1763
  685THF     H410036   1.103   1.980   4.140 -0.0231  1.4236 -1.3773
  685THF     H510037   1.048   2.056   4.294  1.4379  5.0869  0.6607
  685THF     H610038   0.939   2.070   3.926 -1.6996 -1.4898  0.1016
  685THF     H710039   0.823   2.183   3.975 -0.4597 -0.7735  0.6253
  685THF     C810040   1.032   2.247   4.027  0.3253  0.4476  0.1087
  685THF     C910041   1.127   2.176   4.121 -0.6713 -0.5196  0.4978
  685THF    H1010042   0.993   2.337   4.075  1.8556  1.9855 -1.4033
  685THF    H1110043   1.075   2.266   3.929  1.7427 -1.3031  0.3411
  685THF    H1210044   1.208   2.130   4.064 -1.2154 -0.0185 -0.7207
  685THF    H1310045   1.169   2.245   4.194 -1.2940  1.3052 -0.7893
  686THF     O110046   0.231   1.721   5.227  0.4229  0.9033  0.5124
  686THF     C210047   0.335   1.811   5.192 -0.2906  0.5331  0.3610
  686THF     C310048   0.116   1.804   5.243  0.2600 -0.3978  0.6450
  686THF     H410049   0.338   1.830   5.085 -1.5144 -2.1908 -0.2539
  686THF     H510050   0.434   1.773   5.216  1.1411  2.7294 -1.6903
  686THF     H610051   0.069   1.802   5.145  1.6173 -0.1410 -0.0256
  686THF     H710052   0.038   1.757   5.304 -1.1591  2.1982  0.9677
  686THF     C810053   0.167   1.941   5.297  0.4848 -0.8071 -0.0866
  686THF     C910054   0.316   1.937   5.274 -0.0154  0.9475 -0.2897
  686THF    H1010055   0.136   1.956   5.400  0.6880  1.2691 -0.2795
  686THF    H1110056   0.111   2.020   5.246  0.6485 -0.9338 -0.4695
  686THF    H1210057   0.369   2.021   5.230 -0.0474  2.0851  1.7419
  686THF    H1310058   0.367   1.926   5.369  0.9240 -0.2322 -0.8972
  687THF     O110059   4.241   2.863   3.896  0.1331  0.0757  0.2040
  687THF     C210060   4.247   2.978   3.982 -0.7435 -0.1782  0.2353
  687THF     C310061   4.112   2.814   3.889 -0.2615  0.3472 -0.0503
  687THF     H410062   4.276   3.074   3.938 -1.9307  0.7601  1.3856
  687THF     H510063   4.314   2.944   4.061 -1.1998 -1.2116  0.1876
  687THF     H610064   4.069   2.789   3.792 -3.5977  3.4999  0.3844
  687THF     H710065   4.085   2.734   3.958 -2.0010  1.0363  0.1231
  687THF     C810066   4.019   2.925   3.936 -0.7564  0.1425 -0.4614
  687THF     C910067   4.111   2.991   4.044  0.3435 -0.1151 -0.3224
  687THF    H1010068   3.923   2.887   3.970 -1.8289 -0.2340 -3.5943
  687THF    H1110069   4.013   2.998   3.855  1.4788  2.8715  1.6323
  687THF    H1210070   4.079   3.090   4.078 -0.0583 -0.3704  0.0477
  687THF    H1310071   4.105   2.925   4.131 -0.0430 -1.0574 -1.0584
  688THF     O110072   0.261   3.723   3.088 -0.1170  0.3033  0.7295
  688THF     C210073   0.347   3.760   3.190  0.0347  0.3620  0.4859
  688THF     C310074   0.278   3.819   2.983  0.0511 -0.0176 -0.1035
  688THF     H410075   0.345   3.686   3.270  0.0655  0.7354  0.8358
  688THF     H510076   0.314   3.855   3.232  0.6003 -0.3115  2.5290
  688THF     H610077   0.215   3.797   2.896 -0.1681 -1.1430  0.3261
  688THF     H710078   0.253   3.920   3.016 -0.0676 -0.3186  0.7434
  688THF     C810079   0.432   3.813   2.972 -0.4669 -0.1306 -0.0131
  688THF     C910080   0.482   3.770   3.117 -0.1199  0.1895  0.0084
  688THF    H1010081   0.468   3.912   2.942 -3.5854  0.3283 -2.8407
  688THF    H1110082   0.458   3.740   2.895  0.2018  1.8865 -1.7982
  688THF    H1210083   0.531   3.673   3.104 -0.4779 -0.3636  2.3085
  688THF    H1310084   0.548   3.846   3.159 -0.0076 -0.2370  0.6212
  689THF     O110085   0.715   1.542   0.997 -0.5584 -0.0358 -0.1599
  689THF     C210086   0.786   1.638   0.919  0.4663 -0.2854  0.2717
  689THF     C310087   0.674   1.436   0.916 -0.1255 -0.1387  0.4025
  689THF     H410088   0.885   1.609   0.886  0.5146 -0.4329  0.5467
  689THF     H510089   0.798   1.730   0.977  1.3513 -0.1679 -0.0944
  689THF     H610090   0.749   1.358   0.916  0.2694  0.2286 -0.3349
  689THF     H710091   0.580   1.386   0.942  0.6533 -1.4861  0.7178
  689THF     C810092   0.664   1.492   0.772  0.1721  0.1522 -0.5255
  689THF     C910093   0.683   1.642   0.798 -0.5841  0.5430 -1.1420
  689THF    H1010094   0.569   1.469   0.724 -0.7810  1.5415  0.5827
  689THF    H1110095   0.747   1.471   0.704 -0.6695  0.9438 -1.8439
  689THF    H1210096   0.710   1.701   0.711 -0.9779 -2.4426 -3.4550
  689THF    H1310097   0.597   1.703   0.826 -0.3647  0.6665 -0.7355
  690THF     O110098   5.055   3.532   4.009 -1.0197 -0.8741  0.2814
  690THF     C210099   4.959   3.480   4.090 -0.3077  0.3330 -0.2622
  690THF     C310100   4.999   3.621   3.922  0.3162 -0.4251 -0.1721
  690THF     H410101   4.984   3.507   4.193  2.3096 -2.4452 -0.0459
  690THF     H510102   4.959   3.371   4.086  1.4440  0.1012  2.9680
  690THF     H610103   5.062   3.708   3.901 -0.1229 -0.2144 -0.6383
  690THF     H710104   4.976   3.569   3.829 -1.4297 -2.1281  1.1463
  690THF     C810105   4.863   3.660   3.980  0.6795 -0.3594 -0.4167
  690THF     C910106   4.820   3.531   4.048  0.1415  0.8070 -0.0509
  690THF    H1010107   4.785   3.694   3.911 -0.8274  0.5229  1.6035
  690THF    H1110108   4.865   3.746   4.046  0.2747  1.3142 -2.4786
  690THF    H1210109   4.751   3.552   4.130 -0.1530 -1.4755  0.3466
  690THF    H1310110   4.772   3.455   3.986 -0.8036  0.0199  1.5894
  691THF     O110111   2.737   0.996   1.856  0.1333 -0.1876  0.0388
  691THF     C210112   2.626   0.909   1.819 -0.6740  0.0314 -0.0177
  691THF     C310113   2.690   1.128   1.844  0.1537  0.5589 -0.6954
  691THF     H410114   2.649   0.808   1.851 -0.4679  0.8032  2.4231
  691THF     H510115   2.621   0.913   1.710  2.2176  1.3798 -0.1643
  691THF     H610116   2.731   1.189   1.925 -1.7607  0.5034  0.3815
  691THF     H710117   2.730   1.172   1.752 -0.0854  3.9577  0.6862
  691THF     C810118   2.544   1.128   1.855 -0.7671  0.4626 -0.2880
  691THF     C910119   2.507   0.982   1.883  0.0314 -0.9268 -0.4296
  691THF    H1010120   2.503   1.151   1.757 -1.4720  0.8217  0.0797
  691THF    H1110121   2.507   1.199   1.929 -0.9281  0.4386 -0.3436
  691THF    H1210122   2.495   0.963   1.990  1.0812  1.1649  0.1249
  691THF    H1310123   2.420   0.942   1.832  1.1257 -1.4945 -1.9290
  692THF     O110124   5.470   1.218   3.518 -0.6002 -0.0760 -0.1001
  692THF     C210125   5.387   1.292   3.426  0.2458  0.3613  0.1362
  692THF     C310126   5.540   1.310   3.599  0.5261  0.2791  0.5976
  692THF     H410127   5.293   1.237   3.418 -0.2910  1.3772 -0.9099
  692THF     H510128   5.426   1.291   3.324  0.0484 -0.5176  0.0614
  692THF     H610129   5.571   1.260   3.691  0.0025  0.2350  0.7530
  692THF     H710130   5.622   1.343   3.536 -0.2638 -0.2038 -0.7125
  692THF     C810131   5.435   1.422   3.618 -0.0923  0.2475  0.7084
  692THF     C910132   5.371   1.431   3.474  0.1457 -0.5014  0.2139
  692THF    H1010133   5.476   1.520   3.641  2.1200 -0.4606  0.0478
  692THF    H1110134   5.363   1.376   3.686  0.0770 -1.1832 -0.0356
  692THF    H1210135   5.274   1.481   3.474  0.3398 -0.1196 -0.2198
  692THF    H1310136   5.427   1.491   3.403 -0.3113 -0.6038 -0.2399
  693THF     O110137   3.867   5.397   1.702  0.1833 -0.7487  0.2268
  693THF     C210138   3.920   5.299   1.787  0.3588 -0.8234  0.0439
  693THF     C310139   3.849   5.340   1.569 -0.1208 -0.2438 -0.0667
  693THF     H410140   3.872   5.313   1.884 -0.0680 -2.3144  0.0679
  693THF     H510141   4.025   5.325   1.795  0.4802 -1.3720  0.2426
  693THF     H610142   3.741   5.341   1.553 -0.4269 -1.6803  1.5379
  693THF     H710143   3.897   5.404   1.496 -1.2458  0.1323 -0.4930
  693THF     C810144   3.904   5.199   1.579 -0.1520 -0.3886 -0.0301
  693THF     C910145   3.893   5.168   1.724  0.0749 -0.0611 -0.5143
  693THF    H1010146   4.007   5.177   1.552 -0.6107 -0.1614 -2.1011
  693THF    H1110147   3.855   5.125   1.515  0.6102  0.4602 -1.6438
  693THF    H1210148   3.795   5.128   1.750  1.1317 -1.7043  1.1730
  693THF    H1310149   3.959   5.090   1.760 -0.0779 -1.1075 -2.3800
  694THF     O110150   2.532   0.276   4.202 -0.0833  0.0112 -0.3740
  694THF     C210151   2.506   0.142   4.246  0.5184 -0.6238 -0.4202
  694THF     C310152   2.655   0.332   4.270 -0.5098  0.6508  1.3158
  694THF     H410153   2.453   0.097   4.162  0.6180  0.8526 -1.3098
  694THF     H510154   2.447   0.123   4.335 -0.3464 -2.0159 -1.2561
  694THF     H610155   2.714   0.402   4.210 -2.7742  1.4030 -0.1551
  694THF     H710156   2.626   0.395   4.354 -4.3573  0.2938  0.4374
  694THF     C810157   2.729   0.213   4.320  0.3778  0.3262  0.2928
  694THF     C910158   2.648   0.096   4.264  0.0898  0.0536  0.5658
  694THF    H1010159   2.722   0.225   4.428  1.7631  0.5087  0.3734
  694THF    H1110160   2.829   0.204   4.277 -0.1467  1.6462 -1.3554
  694THF    H1210161   2.691   0.069   4.168  2.0663 -0.9246  1.6709
  694THF    H1310162   2.651   0.010   4.331  0.6902  0.3318  0.9086
  695THF     O110163   3.753   3.311   5.449  0.3226  0.1224  0.1423
  695THF     C210164   3.818   3.238   5.556  0.1472 -0.0790 -0.2651
  695THF     C310165   3.711   3.432   5.511 -0.2129 -0.1289  0.5429
  695THF     H410166   3.868   3.147   5.524  1.3544  0.1631  0.8875
  695THF     H510167   3.750   3.205   5.635  0.6060  1.8889  1.0053
  695THF     H610168   3.682   3.514   5.445 -1.4638 -0.4525  0.6601
  695THF     H710169   3.633   3.409   5.583 -0.7087  2.5490  0.9549
  695THF     C810170   3.843   3.472   5.579  0.0392 -0.0928 -0.2065
  695THF     C910171   3.913   3.334   5.619  0.9817 -0.0485 -0.0142
  695THF    H1010172   3.814   3.531   5.666 -0.9237 -1.4390  0.4183
  695THF    H1110173   3.902   3.536   5.514 -0.1015  1.6536  1.3227
  695THF    H1210174   4.008   3.320   5.567  0.2732 -0.5628 -1.2152
  695THF    H1310175   3.922   3.324   5.727  0.9426  1.6611  0.1867
  696THF     O110176   0.986   5.205   3.691 -0.1434 -0.2285  0.2781
  696THF     C210177   0.946   5.215   3.555  0.3354 -0.7155 -0.0354
  696THF     C310178   1.113   5.272   3.699  0.3734  0.4872 -0.0499
  696THF     H410179   0.933   5.320   3.529 -1.9148 -1.2515 -1.3024
  696THF     H510180   0.852   5.162   3.539  0.2283 -0.8467  1.0107
  696THF     H610181   1.096   5.380   3.693 -0.7626  0.3582  0.7057
  696THF     H710182   1.144   5.248   3.801  0.6143  1.6025  0.1539
  696THF     C810183   1.186   5.202   3.581  0.2880 -0.1947  0.1172
  696THF     C910184   1.072   5.155   3.485  0.4459 -0.0907 -0.0425
  696THF    H1010185   1.244   5.115   3.612 -1.7321 -2.2797 -1.5118
  696THF    H1110186   1.255   5.267   3.529 -0.7426  2.2819  1.6431
  696THF    H1210187   1.087   5.172   3.379 -0.4410  0.0997 -0.1474
  696THF    H1310188   1.062   5.048   3.500  3.0974 -0.5138 -0.7974
  697THF     O110189   2.373   4.224   5.275 -0.1909 -0.3002  0.0726
  697THF     C210190   2.237   4.228   5.322  0.4048  0.4955 -0.9020
  697THF     C310191   2.452   4.138   5.352  0.1616  0.1156 -0.7129
  697THF     H410192   2.169   4.245   5.238 -2.9014 -0.0994  1.4676
  697THF     H510193   2.223   4.303   5.400 -0.5425 -0.4177 -0.1606
  697THF     H610194   2.540   4.115   5.292  0.5043  0.2616 -0.2740
  697THF     H710195   2.469   4.187   5.448  0.2068  3.4660 -2.3175
  697THF     C810196   2.364   4.017   5.375  0.4192 -0.0671 -0.1266
  697THF     C910197   2.226   4.083   5.388  0.2059  0.3059 -0.1803
  697THF    H1010198   2.392   3.962   5.465 -0.1618  0.7331  0.5670
  697THF    H1110199   2.381   3.966   5.280  0.4457  0.9245 -0.6702
  697THF    H1210200   2.157   4.023   5.329 -0.4586 -0.6119  1.4729
  697THF    H1310201   2.188   4.087   5.490 -3.1175  1.8358 -1.3441
  698THF     O110202   4.335   3.375   1.397  0.1060 -0.0079  0.1655
  698THF     C210203   4.362   3.233   1.391  0.3077  0.5271 -0.2177
  698THF     C310204   4.446   3.447   1.356 -0.1820 -0.5904 -0.2043
  698THF     H410205   4.367   3.199   1.287 -0.9813 -0.5877  0.0548
  698THF     H510206   4.299   3.173   1.457 -0.1275  2.2534  0.9855
  698THF     H610207   4.455   3.439   1.248 -0.0124  2.7771 -0.5393
  698THF     H710208   4.440   3.550   1.392 -1.4543 -1.0656  1.0299
  698THF     C810209   4.558   3.381   1.432 -0.1176  0.8973  0.4550
  698THF     C910210   4.505   3.237   1.445 -0.5720 -0.2094 -0.2935
  698THF    H1010211   4.582   3.423   1.530 -0.2739  1.8233  0.1116
  698THF    H1110212   4.645   3.381   1.365 -0.4855 -0.0946 -0.0440
  698THF    H1210213   4.573   3.161   1.405 -1.6205 -1.1462 -0.3519
  698THF    H1310214   4.506   3.214   1.551  2.5448 -0.2819 -0.2432
  699THF     O110215   1.186   3.373   5.050 -0.0471 -0.1842  0.2414
  699THF     C210216   1.131   3.255   5.022 -0.1396  1.2386  0.5659
  699THF     C310217   1.110   3.438   5.157  0.7681 -0.1334  0.1477
  699THF     H410218   1.204   3.185   4.981  0.0065 -0.0693  2.8692
  699THF     H510219   1.043   3.259   4.958 -0.3586  0.2991  0.7859
  699THF     H610220   1.176   3.477   5.234 -0.1473 -0.4856  1.1351
  699THF     H710221   1.040   3.515   5.126  0.6218 -0.4661 -0.3615
  699THF     C810222   1.033   3.324   5.220  0.5808  0.1498 -0.4710
  699THF     C910223   1.087   3.193   5.158 -0.5949 -0.0541  0.1694
  699THF    H1010224   0.931   3.337   5.183 -0.3121 -0.6409  1.5326
  699THF    H1110225   1.036   3.334   5.329  1.1336  1.3954 -0.5840
  699THF    H1210226   1.179   3.153   5.201 -0.2355 -0.9860 -1.3477
  699THF    H1310227   1.007   3.119   5.154  0.0727 -0.7536 -1.1649
  700THF     O110228   0.298   2.247   4.006 -0.2171 -0.0024 -0.1253
  700THF     C210229   0.207   2.284   4.106  0.1199 -0.2455  0.0777
  700THF     C310230   0.391   2.355   3.980  0.4862 -0.3868 -0.4802
  700THF     H410231   0.254   2.252   4.199  1.9431 -1.2354 -1.1233
  700THF     H510232   0.107   2.240   4.098  0.7069 -1.4199 -1.2436
  700THF     H610233   0.491   2.322   4.006 -0.1362 -2.3911 -0.4410
  700THF     H710234   0.385   2.365   3.871  3.1017  0.1392 -0.6290
  700THF     C810235   0.339   2.474   4.056 -0.0753 -0.2445  0.7337
  700THF     C910236   0.196   2.437   4.087  0.0465 -0.3989 -0.0662
  700THF    H1010237   0.354   2.570   4.006 -2.4791  0.0789  0.5097
  700THF    H1110238   0.401   2.488   4.145 -1.1549 -1.6784  1.7451
  700THF    H1210239   0.162   2.491   4.175  0.4632  0.6867 -0.5420
  700THF    H1310240   0.131   2.471   4.006 -1.2368 -1.7538  0.3602
  701THF     O110241   2.920   0.457   1.397  0.2051  0.3706  0.0543
  701THF     C210242   2.995   0.574   1.398 -0.2013 -0.5921  0.5348
  701THF     C310243   2.907   0.408   1.534  0.1974  0.0899 -0.1733
  701THF     H410244   3.001   0.630   1.305 -1.8549 -1.4790 -0.1466
  701THF     H510245   3.097   0.541   1.419  0.4435 -0.5794 -2.1969
  701THF     H610246   2.819   0.344   1.539 -0.1917  0.6964  1.4444
  701THF     H710247   2.995   0.367   1.582 -0.2878  0.9967  1.6080
  701THF     C810248   2.882   0.543   1.606  0.2123 -0.0389 -0.1624
  701THF     C910249   2.937   0.650   1.509 -0.3164  0.2991 -0.6736
  701THF    H1010250   2.920   0.534   1.708 -0.0443 -1.2689 -0.1623
  701THF    H1110251   2.775   0.563   1.616  0.1173 -0.1632 -0.9045
  701THF    H1210252   2.855   0.713   1.474 -0.0255  1.1885  0.1930
  701THF    H1310253   3.007   0.715   1.560 -2.2830  0.7922  1.6218
  702THF     O110254   1.645   0.438   1.753 -0.0747  0.2964 -0.4303
  702THF     C210255   1.595   0.472   1.624 -0.4812  0.7659  0.4355
  702THF     C310256   1.613   0.299   1.772 -0.3212 -0.3489 -0.1314
  702THF     H410257   1.639   0.566   1.594 -0.7458  0.6102 -0.4768
  702THF     H510258   1.489   0.492   1.636 -0.3323  0.2387  3.2679
  702THF     H610259   1.664   0.263   1.862  2.5707  2.0527 -0.6485
  702THF     H710260   1.508   0.278   1.791  0.4137 -1.8647  2.8994
  702THF     C810261   1.661   0.238   1.646  0.4742 -0.0565  0.3638
  702THF     C910262   1.629   0.347   1.540  0.3527 -0.3919 -0.6051
  702THF    H1010263   1.608   0.146   1.622  1.5230 -1.0934  1.8896
  702THF    H1110264   1.768   0.217   1.650  0.9832  2.5058  2.4242
  702THF    H1210265   1.705   0.340   1.462  0.3607  1.7186 -0.8597
  702THF    H1310266   1.537   0.327   1.485 -1.2829  0.6391  1.5975
  703THF     O110267   0.157   1.224   2.611 -0.3508 -0.0585 -0.3055
  703THF     C210268   0.128   1.357   2.584 -0.1618 -0.6325  0.5236
  703THF     C310269   0.301   1.207   2.645  0.4200 -0.1630  0.0013
  703THF     H410270   0.128   1.419   2.674  0.7011  1.1683 -0.6763
  703THF     H510271   0.029   1.381   2.545 -0.7164 -0.8279  1.7418
  703THF     H610272   0.333   1.228   2.747  0.1397 -1.9987  0.5137
  703THF     H710273   0.338   1.106   2.626  3.2918  1.1725 -2.1918
  703THF     C810274   0.358   1.300   2.535 -0.4621  0.2142  0.1631
  703THF     C910275   0.245   1.394   2.494 -0.4201  0.3791 -0.9471
  703THF    H1010276   0.389   1.248   2.445 -0.0230  2.2730 -0.9371
  703THF    H1110277   0.438   1.358   2.581  0.3369 -0.7489 -0.0034
  703THF    H1210278   0.257   1.501   2.513 -2.8476  0.2279  2.0630
  703THF    H1310279   0.219   1.364   2.392 -1.1543  1.0695 -0.9665
  704THF     O110280   3.932   4.431   0.497  0.4543  0.1315  0.1456
  704THF     C210281   3.875   4.394   0.622 -0.4223 -1.0445  0.2305
  704THF     C310282   3.934   4.311   0.418 -0.2088 -1.1458 -0.4793
  704THF     H410283   3.769   4.377   0.603 -0.6870  0.7696 -0.0536
  704THF     H510284   3.904   4.475   0.688 -1.4440 -0.2548 -0.2528
  704THF     H610285   3.832   4.295   0.384  0.2646 -0.8346 -2.1833
  704THF     H710286   3.993   4.320   0.326  1.6417 -0.4607  0.7091
  704THF     C810287   3.980   4.204   0.511 -0.3983 -0.2098 -0.6699
  704THF     C910288   3.943   4.260   0.654 -0.0677 -0.3601  0.1293
  704THF    H1010289   4.087   4.183   0.512 -0.0633  1.3048  1.0103
  704THF    H1110290   3.924   4.111   0.507  0.9100 -1.0464 -0.3606
  704THF    H1210291   3.867   4.198   0.700 -1.0691  0.6231 -0.1705
  704THF    H1310292   4.030   4.261   0.720 -0.0087 -0.8437  0.0582
  705THF     O110293   0.667   0.840   1.214  0.1592  0.1201 -0.9080
  705THF     C210294   0.629   0.765   1.330 -0.0166  0.5182 -0.2194
  705THF     C310295   0.684   0.973   1.260 -0.5796 -0.0110 -0.8172
  705THF     H410296   0.636   0.657   1.317 -0.2529  0.5495 -0.6186
  705THF     H510297   0.525   0.797   1.335 -0.3797 -0.7574  1.4284
  705THF     H610298   0.757   1.026   1.199 -0.8740  1.7564  0.2758
  705THF     H710299   0.592   1.032   1.259 -0.1160  0.7332 -0.7826
  705THF     C810300   0.749   0.964   1.395  0.1098  0.0642  0.2536
  705THF     C910301   0.725   0.818   1.436 -0.6566  0.6929 -0.5397
  705THF    H1010302   0.697   1.040   1.453 -0.9864  0.7107 -1.4995
  705THF    H1110303   0.856   0.982   1.404 -0.0813  0.7055  1.3493
  705THF    H1210304   0.821   0.766   1.437 -0.5994  0.7475 -1.6430
  705THF    H1310305   0.676   0.795   1.531 -1.5315 -0.7193 -1.2839
  706THF     O110306   0.185   0.893   1.130  0.1058 -0.5592 -0.0466
  706THF     C210307   0.285   0.961   1.211 -0.1251  0.0560 -0.1555
  706THF     C310308   0.135   0.986   1.035  0.2260 -0.1996 -0.6522
  706THF     H410309   0.359   0.895   1.256  0.0639  1.6536  2.0315
  706THF     H510310   0.240   1.021   1.290  1.6324  0.2844  0.7207
  706THF     H610311   0.085   0.926   0.959  0.7608  1.6035 -2.5365
  706THF     H710312   0.065   1.052   1.087  0.2306 -0.7841  0.1113
  706THF     C810313   0.257   1.054   0.994  0.3620 -0.1621 -0.0105
  706THF     C910314   0.355   1.042   1.107 -0.0318 -0.1518  0.5544
  706THF    H1010315   0.241   1.157   0.962  0.3138 -0.1661  0.0013
  706THF    H1110316   0.310   1.009   0.909  2.5161  1.2170  0.5119
  706THF    H1210317   0.449   0.999   1.074 -0.4206 -0.2812 -0.4215
  706THF    H1310318   0.380   1.145   1.130 -3.1208  0.3758  2.1846
  707THF     O110319   3.572   2.080   0.528  0.0957 -0.1698  0.1292
  707THF     C210320   3.643   2.184   0.470 -0.5100  0.1342 -0.1016
  707THF     C310321   3.632   2.074   0.656  0.1917  0.2342  0.4335
  707THF     H410322   3.598   2.210   0.374 -0.2961  1.7996  0.2237
  707THF     H510323   3.747   2.163   0.443 -0.8392 -0.6502 -0.8123
  707THF     H610324   3.567   2.015   0.720  0.0710 -1.4369 -1.1347
  707THF     H710325   3.729   2.024   0.648  0.1458  0.3020 -0.7216
  707THF     C810326   3.638   2.223   0.702 -0.1346 -0.2228 -0.0495
  707THF     C910327   3.643   2.299   0.566  0.1212  0.0049 -0.2137
  707THF    H1010328   3.712   2.250   0.778  0.5721  1.6310 -1.3282
  707THF    H1110329   3.546   2.253   0.752  0.1228  1.4506 -0.5168
  707THF    H1210330   3.556   2.361   0.544  0.5334  0.1435 -1.5861
  707THF    H1310331   3.737   2.354   0.557 -0.2635  0.3786 -2.8337
  708THF     O110332   0.579   0.060   1.173  0.2269  0.4638 -0.4711
  708THF     C210333   0.565   0.089   1.310  0.5581  0.5285 -0.2558
  708THF     C310334   0.697   0.124   1.127  0.0152 -0.0640  0.1269
  708THF     H410335   0.642   0.031   1.361  2.3655  1.9794 -1.2285
  708THF     H510336   0.461   0.061   1.327  0.3703  2.1391  1.6661
  708THF     H610337   0.790   0.069   1.146 -0.3925 -0.9338 -0.3287
  708THF     H710338   0.688   0.129   1.019 -0.4798 -1.8756  0.0491
  708THF     C810339   0.705   0.258   1.210  0.4016  0.2486  0.6720
  708THF     C910340   0.599   0.244   1.315 -0.1088  0.0132  0.0875
  708THF    H1010341   0.689   0.349   1.151  0.2795 -0.0865  0.1825
  708THF    H1110342   0.805   0.269   1.251  0.1646  2.6896  0.7961
  708THF    H1210343   0.621   0.272   1.418 -0.2511 -0.0903  0.1471
  708THF    H1310344   0.510   0.297   1.282 -0.3588 -0.3283  0.2065
  709THF     O110345   2.832   2.551   1.669 -0.6706  0.7249 -0.0482
  709THF     C210346   2.845   2.685   1.697  0.1866 -0.5794  0.1527
  709THF     C310347   2.899   2.485   1.782  0.1474 -0.1156 -0.4136
  709THF     H410348   2.769   2.740   1.642 -1.1697 -1.9966  0.5414
  709THF     H510349   2.947   2.722   1.684 -0.0101  0.4907  1.4179
  709THF     H610350   2.846   2.391   1.800  2.5415 -1.5555 -0.4756
  709THF     H710351   2.998   2.457   1.746 -0.1678  0.0211 -1.4216
  709THF     C810352   2.884   2.570   1.906  0.1969  0.6881 -0.0884
  709THF     C910353   2.828   2.695   1.852  0.3138  0.0583  0.4418
  709THF    H1010354   2.971   2.583   1.970  0.6026 -0.9114 -0.2591
  709THF    H1110355   2.820   2.531   1.986 -0.7896 -0.4252 -1.3665
  709THF    H1210356   2.721   2.703   1.872  0.6168 -1.2703  3.1074
  709THF    H1310357   2.887   2.783   1.873  2.6675 -0.5686 -2.7696
  710THF     O110358   4.201   1.767   4.131  0.4261 -0.4464  0.1393
  710THF     C210359   4.176   1.720   4.002 -0.4224 -0.2365  0.0422
  710THF     C310360   4.223   1.904   4.125 -0.0627  0.2430 -0.4973
  710THF     H410361   4.102   1.641   4.012 -2.1095  1.4809  2.3630
  710THF     H510362   4.269   1.691   3.953 -0.0513  2.8662 -1.2869
  710THF     H610363   4.205   1.949   4.222 -2.2029  0.0600 -0.7726
  710THF     H710364   4.328   1.911   4.097  0.2929  0.4126  0.8211
  710THF     C810365   4.145   1.964   4.010 -0.4245 -0.1982  0.1014
  710THF     C910366   4.102   1.841   3.935 -0.4392 -0.0670  0.1529
  710THF    H1010367   4.217   2.018   3.948 -0.5082  1.0255  1.0288
  710THF    H1110368   4.058   2.025   4.033 -0.2216  0.5023 -0.9659
  710THF    H1210369   3.994   1.825   3.939 -0.7802  1.2170 -2.0972
  710THF    H1310370   4.128   1.839   3.829  2.1715  1.1067  0.6861
  711THF     O110371   3.059   1.019   3.345 -0.1276 -0.1940  0.7712
  711THF     C210372   3.165   1.085   3.283  0.1120 -0.2546 -0.1813
  711THF     C310373   3.066   0.883   3.312  0.7126 -0.3936  0.4764
  711THF     H410374   3.258   1.077   3.339 -0.5843 -1.9392  0.8145
  711THF     H510375   3.147   1.192   3.271  0.0816 -0.3581 -1.1450
  711THF     H610376   3.141   0.832   3.372  1.0513  1.6879  1.9545
  711THF     H710377   2.967   0.840   3.323  0.1827  0.7034  0.1776
  711THF     C810378   3.115   0.880   3.167  0.0018  0.3489 -0.4362
  711THF     C910379   3.191   1.010   3.157  0.3254 -0.4393  0.0677
  711THF    H1010380   3.037   0.887   3.091  0.5673 -0.3870 -1.0992
  711THF    H1110381   3.184   0.800   3.142  1.6407  1.5041  0.2713
  711THF    H1210382   3.292   0.991   3.121 -0.4623 -2.4544 -1.2957
  711THF    H1310383   3.156   1.062   3.067  1.2256 -0.6084 -0.3886
  712THF     O110384   2.737   5.262   5.384 -0.2072 -0.7359  0.2494
  712THF     C210385   2.866   5.300   5.429 -0.4563  0.8877 -0.2035
  712THF     C310386   2.662   5.226   5.495  0.4620 -0.5496 -0.4261
  712THF     H410387   2.848   5.404   5.457 -1.2110  1.6371 -3.1079
  712THF     H510388   2.929   5.289   5.341  0.2873 -3.0627  0.6446
  712THF     H610389   2.626   5.305   5.561  0.0886 -1.4220  0.4477
  712THF     H710390   2.576   5.165   5.465 -2.1124  2.1546  0.8973
  712THF     C810391   2.766   5.147   5.578  0.0421  0.1284  0.0348
  712THF     C910392   2.898   5.220   5.553 -0.0068 -0.0022  0.1445
  712THF    H1010393   2.778   5.057   5.518 -2.0691 -0.1298 -0.0568
  712THF    H1110394   2.737   5.134   5.683  0.0008  0.1244  0.0229
  712THF    H1210395   2.912   5.286   5.639  1.6474  1.4773 -1.2033
  712THF    H1310396   2.985   5.156   5.535  0.7001  1.2004 -0.9276
  713THF     O110397   3.012   4.077   5.231 -0.1615 -0.2760 -0.0325
  713THF     C210398   3.000   4.106   5.087  0.5386  0.0057  0.3574
  713THF     C310399   2.952   3.948   5.261  0.4548 -0.3190 -0.3082
  713THF     H410400   3.072   4.046   5.032  0.3344 -1.0011  1.1522
  713THF     H510401   3.029   4.208   5.063 -2.3279  1.1490  1.2078
  713THF     H610402   3.019   3.867   5.232 -0.8065 -0.7009 -2.3007
  713THF     H710403   2.933   3.945   5.369  1.2993  1.4855 -0.0682
  713THF     C810404   2.821   3.956   5.181 -0.3944  0.6118  0.0388
  713THF     C910405   2.858   4.065   5.069 -0.0043  0.6663 -0.3441
  713THF    H1010406   2.744   3.995   5.248  2.4575  2.8508  2.2527
  713THF    H1110407   2.791   3.861   5.137 -0.1797  0.2929  0.5848
  713THF    H1210408   2.838   4.016   4.973 -1.6247 -2.4763  1.4344
  713THF    H1310409   2.786   4.146   5.073 -2.2257 -1.2228  0.3585
  714THF     O110410   1.630   2.755   3.598  0.2584  0.1817 -0.9892
  714THF     C210411   1.548   2.724   3.710  0.4183  0.0546 -0.0274
  714THF     C310412   1.584   2.698   3.477 -0.4793 -0.2620  1.0536
  714THF     H410413   1.475   2.804   3.719  0.5391 -0.0227  2.1775
  714THF     H510414   1.596   2.715   3.807 -2.1694  2.2770  1.5877
  714THF     H610415   1.538   2.778   3.420  1.1098  0.4272  0.6981
  714THF     H710416   1.663   2.659   3.414  0.9147  1.4379  1.6684
  714THF     C810417   1.486   2.584   3.520 -0.6729 -0.3810 -0.1672
  714THF     C910418   1.486   2.583   3.672  0.1860 -0.4173 -0.6050
  714THF    H1010419   1.532   2.493   3.482 -0.7441 -0.3214 -0.3977
  714THF    H1110420   1.383   2.595   3.486 -0.8798  0.2410  0.6307
  714THF    H1210421   1.389   2.575   3.721  2.0056  0.5137  3.5562
  714THF    H1310422   1.545   2.498   3.705 -0.7382 -1.0587 -0.5584
  715THF     O110423   2.758   2.874   3.048 -0.2006 -0.2067  0.0630
  715THF     C210424   2.857   2.781   3.087 -0.7328  0.2305  1.0000
  715THF     C310425   2.649   2.801   3.011 -0.0214  0.0837 -0.0272
  715THF     H410426   2.843   2.738   3.186  0.7415 -0.2277  1.0483
  715THF     H510427   2.961   2.814   3.087 -0.7909  0.5856 -1.3811
  715THF     H610428   2.593   2.770   3.099 -1.4642 -1.0025 -1.2640
  715THF     H710429   2.584   2.861   2.947  0.0957  0.8136  0.5213
  715THF     C810430   2.689   2.671   2.955 -0.7220  0.9163 -0.6613
  715THF     C910431   2.836   2.672   2.977 -0.3340  0.3278 -0.0105
  715THF    H1010432   2.669   2.676   2.848  0.6483  0.1544 -0.9865
  715THF    H1110433   2.645   2.581   2.998  0.3016  0.9325  0.4789
  715THF    H1210434   2.875   2.573   2.999  2.1865  1.2102 -0.1684
  715THF    H1310435   2.890   2.712   2.891  2.1016 -0.4664  1.0406
  716THF     O110436   5.039   0.072   2.485 -0.2821 -0.2623 -0.0065
  716THF     C210437   5.049   0.054   2.341 -0.4804  0.1029 -0.7369
  716THF     C310438   4.922   0.147   2.523 -0.2512  0.1361  0.2972
  716THF     H410439   5.043  -0.053   2.323  2.3683 -0.4715  1.0717
  716THF     H510440   5.148   0.090   2.314 -1.2115  0.9663 -2.3799
  716THF     H610441   4.843   0.078   2.556  1.3024 -0.8013  2.2532
  716THF     H710442   4.940   0.202   2.615 -1.8515  0.2085  0.5998
  716THF     C810443   4.897   0.233   2.398  0.4851  0.3306  0.3209
  716THF     C910444   4.927   0.130   2.283  0.5248  0.0157  0.2911
  716THF    H1010445   4.975   0.309   2.389  1.0269 -0.3991 -1.5053
  716THF    H1110446   4.800   0.281   2.391  0.2158 -0.2699 -0.1440
  716THF    H1210447   4.851   0.066   2.239  0.2499  1.0401 -0.7915
  716THF    H1310448   4.964   0.194   2.203 -0.2448 -0.8663 -0.8053
  717THF     O110449   5.489   4.012   1.481 -0.1962 -0.1260  0.5671
  717THF     C210450   5.415   3.986   1.364  0.5796 -0.2033 -1.1181
  717THF     C310451   5.529   4.147   1.470 -0.2270  0.1997  1.0752
  717THF     H410452   5.346   3.903   1.381 -0.0085  0.3755 -0.6017
  717THF     H510453   5.494   3.975   1.290  2.1661 -1.6811  0.6849
  717THF     H610454   5.560   4.196   1.562  0.3849  2.4512 -0.2429
  717THF     H710455   5.610   4.164   1.399 -0.9389 -2.0513 -0.3910
  717THF     C810456   5.415   4.223   1.412 -0.7079  0.0416  0.2060
  717THF     C910457   5.339   4.117   1.328 -0.1284 -0.8888 -0.0530
  717THF    H1010458   5.452   4.303   1.348  1.0212 -1.1824 -0.3571
  717THF    H1110459   5.356   4.256   1.498  1.3597  2.6181  0.7564
  717THF    H1210460   5.241   4.106   1.376 -0.2778 -0.4238 -0.2477
  717THF    H1310461   5.318   4.130   1.222 -1.2899  1.9875  0.4142
  718THF     O110462   3.294   4.778   4.802 -0.0558 -0.0540  0.0777
  718THF     C210463   3.389   4.710   4.716  0.6131 -0.2594  0.2459
  718THF     C310464   3.232   4.700   4.904 -0.0966 -0.2116  0.1800
  718THF     H410465   3.489   4.754   4.713  1.3802 -1.6342  2.5399
  718THF     H510466   3.347   4.698   4.617 -1.8357  0.4968  1.1029
  718THF     H610467   3.258   4.739   5.002  1.8317  0.8484 -0.7051
  718THF     H710468   3.123   4.711   4.902 -0.0755  0.0186  0.2362
  718THF     C810469   3.282   4.563   4.870 -0.7837 -0.2159 -0.1682
  718THF     C910470   3.413   4.587   4.798 -0.0243  0.3844 -0.3620
  718THF    H1010471   3.210   4.515   4.803 -2.2602  0.7329  0.6904
  718THF    H1110472   3.296   4.505   4.961  1.2627  0.6656  0.1371
  718THF    H1210473   3.490   4.595   4.875 -0.2550 -0.5254 -0.0231
  718THF    H1310474   3.454   4.516   4.725 -2.5063 -1.0504 -0.4749
  719THF     O110475   5.257   0.990   2.908 -0.3821 -0.1124 -0.1781
  719THF     C210476   5.176   1.088   2.831 -0.5903  0.3144  0.6365
  719THF     C310477   5.396   1.025   2.875  0.6931  0.2429 -0.0082
  719THF     H410478   5.081   1.095   2.885 -1.3333  1.1773 -0.7121
  719THF     H510479   5.158   1.045   2.732 -0.1737  2.1905 -0.3030
  719THF     H610480   5.473   0.988   2.943  0.7980  1.0269  0.3037
  719THF     H710481   5.413   0.996   2.771 -0.8914 -3.2141  0.5272
  719THF     C810482   5.385   1.177   2.884 -0.1433 -0.1929  0.5376
  719THF     C910483   5.257   1.212   2.810  0.3339 -0.3587 -0.2559
  719THF    H1010484   5.470   1.236   2.851  0.0088  0.4014  1.9396
  719THF    H1110485   5.367   1.215   2.984  0.7489  2.9022 -0.3623
  719THF    H1210486   5.215   1.303   2.853 -0.5334 -0.5216 -0.7335
  719THF    H1310487   5.279   1.226   2.704 -0.9579 -1.3849 -0.6866
  720THF     O110488   4.397   2.446   5.421 -0.0798  0.2426  0.0249
  720THF     C210489   4.508   2.385   5.362 -0.2681  0.1844 -0.2640
  720THF     C310490   4.289   2.439   5.330  0.3741 -0.5434 -0.5310
  720THF     H410491   4.585   2.337   5.422  0.4148 -0.4289 -1.5850
  720THF     H510492   4.549   2.455   5.289 -1.4560  0.3219 -0.8338
  720THF     H610493   4.192   2.444   5.381 -0.0377 -1.3955 -1.1991
  720THF     H710494   4.307   2.523   5.263 -1.1837  0.6901  0.5111
  720THF     C810495   4.309   2.320   5.240  0.6997  0.6803  0.2188
  720THF     C910496   4.438   2.264   5.291  0.1188  0.2262 -0.2560
  720THF    H1010497   4.312   2.343   5.134 -1.1359  1.3446  0.2738
  720THF    H1110498   4.232   2.244   5.253  0.1668  0.5670 -2.9748
  720THF    H1210499   4.426   2.187   5.367 -0.0273  0.6714  0.1816
  720THF    H1310500   4.494   2.217   5.211  0.1639 -1.7119  0.8583
  721THF     O110501   5.256   1.277   5.129 -0.0297  0.1602 -0.0008
  721THF     C210502   5.332   1.397   5.124 -0.2711 -0.6116  0.1053
  721THF     C310503   5.344   1.163   5.137  0.0654  0.3810 -0.0177
  721THF     H410504   5.349   1.440   5.223  0.6041 -1.6749  0.4491
  721THF     H510505   5.284   1.470   5.060  1.1073  0.9534  0.7949
  721THF     H610506   5.375   1.156   5.241  1.0589 -0.7834 -0.3601
  721THF     H710507   5.300   1.066   5.115  0.4739 -0.0480  1.0001
  721THF     C810508   5.460   1.202   5.046  0.3506 -0.1477  0.4654
  721THF     C910509   5.468   1.357   5.080 -0.2119  0.1905 -0.3695
  721THF    H1010510   5.433   1.177   4.943 -0.2800  1.3449  0.2404
  721THF    H1110511   5.557   1.158   5.069  0.0469 -0.8140  0.5036
  721THF    H1210512   5.536   1.377   5.163 -1.9906  2.1958  0.6818
  721THF    H1310513   5.500   1.413   4.992 -1.5468  2.8385  0.7167
  722THF     O110514   1.386   4.127   3.456  0.1021 -0.4403 -0.0085
  722THF     C210515   1.476   4.236   3.458 -0.2813  0.0923  0.5291
  722THF     C310516   1.390   4.066   3.324  0.2780 -0.3253 -0.5594
  722THF     H410517   1.499   4.281   3.555  1.8525 -0.9551  0.5523
  722THF     H510518   1.432   4.309   3.390  3.1185  1.4619 -0.4155
  722THF     H610519   1.352   3.964   3.328  2.1545 -1.1613 -2.3639
  722THF     H710520   1.332   4.131   3.258 -0.3719  1.2529  1.4808
  722THF     C810521   1.536   4.067   3.294 -0.1225  0.2071 -0.6351
  722THF     C910522   1.597   4.168   3.400 -0.3699 -0.4402 -0.2515
  722THF    H1010523   1.540   4.105   3.192  0.6941 -0.6298 -0.9277
  722THF    H1110524   1.576   3.966   3.297 -0.1179  0.2328  0.4081
  722THF    H1210525   1.654   4.120   3.480 -2.5780 -1.5935  0.6981
  722THF    H1310526   1.662   4.239   3.348 -0.1573  0.3008  0.9862
  723THF     O110527   3.949   5.442   4.489  0.0670  0.3672 -0.3798
  723THF     C210528   3.957   5.300   4.483  0.0405 -0.2212  0.1089
  723THF     C310529   3.964   5.488   4.616 -0.0811 -0.0315  0.6193
  723THF     H410530   3.978   5.269   4.380 -3.7779  1.5759 -1.3985
  723THF     H510531   3.854   5.269   4.499 -0.0530  0.6385  1.2900
  723THF     H610532   3.987   5.594   4.602 -0.1458  0.0207  0.9071
  723THF     H710533   3.869   5.486   4.670 -0.8706  0.2637 -0.6985
  723THF     C810534   4.061   5.396   4.677  0.5172  1.0351  0.0633
  723THF     C910535   4.071   5.277   4.577  0.1843 -0.0834  0.0291
  723THF    H1010536   4.021   5.361   4.773 -1.5321 -2.8210 -1.9463
  723THF    H1110537   4.164   5.430   4.675  1.2755 -0.9976  1.1058
  723THF    H1210538   4.158   5.279   4.511 -2.0997  0.6323 -3.1940
  723THF    H1310539   4.062   5.174   4.609  1.5524  0.1551  1.3160
  724THF     O110540   4.688   5.257   2.412 -0.4475 -0.0355  0.1386
  724THF     C210541   4.830   5.281   2.423  1.0017  0.0735 -0.3503
  724THF     C310542   4.638   5.143   2.489 -0.0403 -0.5170 -0.2744
  724THF     H410543   4.835   5.355   2.503  1.0499 -1.5108  1.1809
  724THF     H510544   4.869   5.332   2.334  0.8484 -0.3021 -0.6360
  724THF     H610545   4.570   5.174   2.568 -0.1714  0.2380 -0.6768
  724THF     H710546   4.585   5.085   2.413  1.3002 -0.0455 -1.6373
  724THF     C810547   4.771   5.078   2.537  0.0097  0.3930 -0.0204
  724THF     C910548   4.886   5.148   2.460  0.1098  0.7629  0.2040
  724THF    H1010549   4.767   4.973   2.508  1.1895  0.5806 -0.9629
  724THF    H1110550   4.789   5.093   2.643  0.5934  0.4564 -0.1221
  724THF    H1210551   4.970   5.157   2.530  0.0329  0.9956  0.2666
  724THF    H1310552   4.917   5.092   2.372 -2.4090 -1.5090  0.6485
  725THF     O110553   4.624   4.817   2.629 -0.6578 -0.3747 -0.3561
  725THF     C210554   4.530   4.874   2.712  0.6203 -0.4324 -0.2846
  725THF     C310555   4.685   4.715   2.713  0.1073 -0.2757 -0.0354
  725THF     H410556   4.445   4.810   2.739 -1.2413  2.8626  2.4001
  725THF     H510557   4.476   4.955   2.664 -0.4004 -1.4276 -0.8769
  725THF     H610558   4.614   4.633   2.716 -1.0810  0.6858 -0.7202
  725THF     H710559   4.771   4.676   2.660 -1.4862 -1.4890 -1.8456
  725THF     C810560   4.707   4.780   2.842 -0.6392 -0.4871  0.1304
  725THF     C910561   4.605   4.894   2.843 -0.5461  0.3254 -0.3983
  725THF    H1010562   4.806   4.825   2.844 -1.5062  1.6142 -0.7058
  725THF    H1110563   4.684   4.703   2.916 -2.8749 -0.3934 -0.4029
  725THF    H1210564   4.545   4.906   2.934 -2.9312  2.6654 -2.1291
  725THF    H1310565   4.657   4.989   2.829  2.0546 -0.8761  0.5175
  726THF     O110566   3.701   0.012   1.263 -0.3834 -0.1789 -0.5281
  726THF     C210567   3.575  -0.038   1.237 -0.4477  0.7278 -0.1045
  726THF     C310568   3.794  -0.041   1.166 -0.7164  0.1590  0.0800
  726THF     H410569   3.535   0.034   1.166 -0.5928  0.6951 -0.0560
  726THF     H510570   3.499  -0.040   1.316 -2.7267  0.6476 -2.1800
  726THF     H610571   3.821   0.039   1.097 -0.9099  1.0021  0.9545
  726THF     H710572   3.884  -0.068   1.221 -0.1880 -1.6185 -1.5363
  726THF     C810573   3.727  -0.156   1.090 -0.2950  0.0422 -0.6136
  726THF     C910574   3.599  -0.173   1.170  0.8086  0.1841 -0.2598
  726THF    H1010575   3.793  -0.242   1.091  2.4788  2.0093 -1.2693
  726THF    H1110576   3.704  -0.123   0.989 -1.2015 -3.0268 -1.5258
  726THF    H1210577   3.514  -0.196   1.106 -1.1468  2.2092  1.4347
  726THF    H1310578   3.615  -0.250   1.245  0.4038 -0.1750 -0.5334
  727THF     O110579   3.435   0.606   2.394 -0.3579  0.5073 -0.0595
  727THF     C210580   3.514   0.636   2.281 -0.6584 -0.4885  0.0436
  727THF     C310581   3.301   0.600   2.346  0.2568  0.2076 -0.4831
  727THF     H410582   3.540   0.549   2.221  2.4194  0.5808 -0.3791
  727THF     H510583   3.616   0.662   2.311 -0.7138 -0.6834  0.4054
  727THF     H610584   3.270   0.504   2.303 -2.0413  0.7063 -0.0469
  727THF     H710585   3.235   0.618   2.431  1.4031 -1.0715  0.7493
  727THF     C810586   3.290   0.719   2.258 -0.6895 -0.4558 -0.1016
  727THF     C910587   3.436   0.749   2.211 -0.1697 -0.6301  0.6540
  727THF    H1010588   3.249   0.804   2.312  2.4755  1.8009 -0.9148
  727THF    H1110589   3.223   0.710   2.173 -1.2563  2.1961 -0.0135
  727THF    H1210590   3.443   0.741   2.103 -2.9355  2.4126  0.0895
  727THF    H1310591   3.464   0.849   2.245 -2.2959  0.1593  0.2410
  728THF     O110592   0.852   2.901   5.327 -0.1621  0.2045  0.4158
  728THF     C210593   0.874   2.762   5.333 -0.4912  0.1396  0.2090
  728THF     C310594   0.788   2.939   5.445  0.2295  0.0981 -0.6942
  728THF     H410595   0.971   2.752   5.383  0.9283  3.0024 -1.6898
  728THF     H510596   0.878   2.716   5.234 -1.4119 -0.6008  0.4983
  728THF     H610597   0.842   2.943   5.540 -0.9713  4.3414  0.0063
  728THF     H710598   0.736   3.033   5.429 -0.5215 -0.3358 -0.8215
  728THF     C810599   0.696   2.821   5.465  0.5836 -0.1442 -0.7898
  728THF     C910600   0.778   2.697   5.431 -0.1296 -0.7296  0.1619
  728THF    H1010601   0.604   2.823   5.406 -0.5043 -1.0698  0.8120
  728THF    H1110602   0.656   2.815   5.566 -1.0676  2.7738 -1.1440
  728THF    H1210603   0.839   2.660   5.514 -1.6530  0.5897  1.9847
  728THF    H1310604   0.724   2.618   5.380 -1.2003  1.1278 -1.7542
  729THF     O110605   1.436   5.497   3.510 -0.3483  0.2918 -0.2880
  729THF     C210606   1.330   5.568   3.567  0.6881 -1.0189  0.4670
  729THF     C310607   1.532   5.596   3.475 -0.5441  0.7841  0.2430
  729THF     H410608   1.341   5.577   3.675  0.0774 -0.7857  0.5135
  729THF     H510609   1.234   5.521   3.545  0.4408 -0.4582  0.3429
  729THF     H610610   1.580   5.632   3.567 -1.6890  0.8440  0.8323
  729THF     H710611   1.614   5.566   3.409 -1.6562 -1.4944 -0.1913
  729THF     C810612   1.449   5.715   3.418  0.8501 -0.0036  0.0953
  729THF     C910613   1.325   5.712   3.503 -0.4751  0.2446  0.4615
  729THF    H1010614   1.441   5.708   3.310  0.8950 -1.4488  0.1678
  729THF    H1110615   1.509   5.803   3.444  0.0872  1.0237 -1.4793
  729THF    H1210616   1.329   5.782   3.587 -2.0999  2.2429 -1.0240
  729THF    H1310617   1.239   5.733   3.440  0.1457 -0.1138 -0.5261
  730THF     O110618   2.409   4.037   4.779 -0.5073 -0.0748  0.7933
  730THF     C210619   2.390   4.096   4.908  0.5337 -0.6988 -0.4237
  730THF     C310620   2.472   4.141   4.701  0.4455  0.8284  0.7099
  730THF     H410621   2.391   4.026   4.991  3.1471 -0.4831 -0.1946
  730THF     H510622   2.294   4.147   4.920  1.2691  0.4801  0.6217
  730THF     H610623   2.508   4.105   4.605  0.7482  1.3863  0.6070
  730THF     H710624   2.390   4.210   4.680 -0.1558 -0.2057 -0.4049
  730THF     C810625   2.577   4.201   4.794  0.6534  0.1874  0.0228
  730THF     C910626   2.505   4.200   4.928  0.7237 -0.6543 -0.1173
  730THF    H1010627   2.610   4.301   4.766  0.6237  0.5889  1.3660
  730THF    H1110628   2.668   4.141   4.793 -0.5576 -1.7509  0.3930
  730THF    H1210629   2.562   4.170   5.016  1.0793 -0.6760 -0.3533
  730THF    H1310630   2.466   4.299   4.948 -1.3591 -0.9612 -2.2177
  731THF     O110631   0.166   5.016   5.298 -0.0490  0.0472  0.1458
  731THF     C210632   0.282   5.075   5.265 -0.2600 -0.6298 -0.3993
  731THF     C310633   0.067   5.059   5.207 -0.0849 -0.5004  0.5420
  731THF     H410634   0.349   5.010   5.209  1.9187  0.6718  0.5473
  731THF     H510635   0.333   5.092   5.359  1.2636  1.8270 -1.5621
  731THF     H610636   0.067   4.991   5.121 -3.3003 -0.6479  0.5097
  731THF     H710637  -0.031   5.056   5.256  0.2155  0.1670  1.1875
  731THF     C810638   0.099   5.200   5.163 -0.0569 -0.9370  0.0691
  731THF     C910639   0.251   5.195   5.168 -0.2336 -0.2652  0.1582
  731THF    H1010640   0.068   5.274   5.237  1.6634  1.2861 -1.3270
  731THF    H1110641   0.077   5.234   5.062  1.9991 -1.4619 -0.5906
  731THF    H1210642   0.296   5.181   5.069  0.9411  1.2796  0.4317
  731THF    H1310643   0.299   5.282   5.213  0.9581 -1.8689  2.1476
  732THF     O110644   2.447   3.740   4.732 -0.4044  0.3560 -0.3321
  732THF     C210645   2.448   3.734   4.877  0.8716 -0.4920 -0.2027
  732THF     C310646   2.578   3.722   4.677  0.4482  0.0476 -0.1707
  732THF     H410647   2.439   3.627   4.898  0.4815 -0.6588 -1.1878
  732THF     H510648   2.372   3.802   4.916  1.9357  0.3365  0.4610
  732THF     H610649   2.594   3.616   4.657  0.6876 -0.0686  0.5816
  732THF     H710650   2.584   3.778   4.583 -0.6985 -0.6035 -0.6427
  732THF     C810651   2.671   3.769   4.783 -0.3697  0.6538 -0.1669
  732THF     C910652   2.585   3.790   4.909  0.9267  0.8497  0.3548
  732THF    H1010653   2.704   3.869   4.755 -0.1875  0.7230  0.2882
  732THF    H1110654   2.759   3.707   4.802  0.6528  2.2603  0.5218
  732THF    H1210655   2.628   3.740   4.995  2.3978 -0.1371 -0.9027
  732THF    H1310656   2.572   3.898   4.919 -2.5545  0.3502  2.8845
  733THF     O110657   2.574   3.536   4.388  0.1109 -1.0020 -0.2681
  733THF     C210658   2.672   3.599   4.295 -0.4892  0.3100 -0.2466
  733THF     C310659   2.442   3.569   4.351 -0.5212 -0.8550 -0.1558
  733THF     H410660   2.725   3.527   4.231 -0.1245  0.6799 -0.3647
  733THF     H510661   2.756   3.646   4.347 -0.9281 -1.3716  2.1749
  733THF     H610662   2.396   3.504   4.276 -0.3212 -0.0382 -1.0110
  733THF     H710663   2.390   3.549   4.445  2.9998 -4.4274  1.3028
  733THF     C810664   2.460   3.709   4.299  0.1400 -0.0462 -0.2642
  733THF     C910665   2.587   3.700   4.211 -0.4707 -0.2675  0.0860
  733THF    H1010666   2.475   3.771   4.388  2.4895 -2.1732  0.9559
  733THF    H1110667   2.372   3.732   4.239 -1.4159 -1.3928  1.3867
  733THF    H1210668   2.578   3.654   4.112  2.4535  0.9829 -0.8675
  733THF    H1310669   2.635   3.795   4.187  1.2079 -1.1978 -0.4464
  734THF     O110670   3.983   0.364   3.260 -0.4329  0.1469 -0.2606
  734THF     C210671   4.115   0.357   3.228 -0.3635 -0.2060 -1.1024
  734THF     C310672   3.935   0.493   3.224 -0.2099  0.2399  0.6776
  734THF     H410673   4.144   0.258   3.194 -0.7047 -0.0076 -2.0028
  734THF     H510674   4.173   0.364   3.320  0.3775 -1.0625 -1.4931
  734THF     H610675   3.868   0.492   3.139  0.3712 -0.1432  0.2112
  734THF     H710676   3.879   0.555   3.295  1.5748  2.2780  0.4050
  734THF     C810677   4.062   0.576   3.185  0.3626  0.0242 -0.2325
  734THF     C910678   4.153   0.468   3.133 -0.1123  0.1855  0.0943
  734THF    H1010679   4.108   0.614   3.275  0.6722  0.8639 -0.7384
  734THF    H1110680   4.047   0.657   3.113  1.6663  0.2943 -0.2115
  734THF    H1210681   4.127   0.432   3.033 -2.5987 -1.4143  1.2151
  734THF    H1310682   4.257   0.497   3.146  0.1602 -1.5423  2.3272
  735THF     O110683   0.454   1.317   5.407 -0.0338 -0.1382  0.7179
  735THF     C210684   0.439   1.439   5.343 -0.0665  0.2078 -0.1047
  735THF     C310685   0.465   1.211   5.312 -0.0911 -0.2297  0.2350
  735THF     H410686   0.533   1.488   5.320  0.5294 -0.5422  0.7087
  735THF     H510687   0.382   1.509   5.404  0.3199 -1.0754  1.8103
  735THF     H610688   0.564   1.217   5.265  0.3159  1.1120  1.1988
  735THF     H710689   0.452   1.111   5.352 -0.4027 -0.3413 -0.1421
  735THF     C810690   0.369   1.255   5.206 -0.4323  0.2294 -0.5167
  735THF     C910691   0.362   1.405   5.209  0.0420 -0.0810  0.2277
  735THF    H1010692   0.279   1.197   5.225 -0.1761 -0.8450 -2.3224
  735THF    H1110693   0.408   1.225   5.108 -0.5657 -0.1168 -0.4657
  735THF    H1210694   0.413   1.454   5.126 -0.3457 -1.3773 -0.8184
  735THF    H1310695   0.264   1.453   5.215  1.0010  2.4837 -2.1149
  736THF     O110696   2.637   5.321   3.102  0.8735 -0.4636  0.2992
  736THF     C210697   2.647   5.376   2.970 -0.4398  0.0558 -0.1764
  736THF     C310698   2.696   5.195   3.101 -0.0327 -0.0162  0.0204
  736THF     H410699   2.664   5.483   2.969  0.2453 -0.0318  0.6889
  736THF     H510700   2.553   5.357   2.919 -0.0924  1.0393 -1.2132
  736THF     H610701   2.739   5.182   3.200  1.0138 -0.7444 -0.5145
  736THF     H710702   2.623   5.115   3.089  2.1666 -2.4594  1.8841
  736THF     C810703   2.811   5.198   2.999 -0.4579 -1.0381 -0.0372
  736THF     C910704   2.773   5.310   2.902 -0.3756  0.2933 -0.1578
  736THF    H1010705   2.819   5.103   2.945 -0.9640 -1.3409  0.4186
  736THF    H1110706   2.907   5.213   3.049 -0.8955  1.3215  0.2178
  736THF    H1210707   2.857   5.378   2.890 -1.1265  1.0559 -1.3114
  736THF    H1310708   2.751   5.295   2.796  0.7859  5.1229 -1.3618
  737THF     O110709   2.858   0.215   1.755  0.3039 -0.0137 -0.0221
  737THF     C210710   2.780   0.283   1.861  0.0442  0.3039  0.2311
  737THF     C310711   2.920   0.099   1.815 -0.1937  0.4311 -0.6221
  737THF     H410712   2.683   0.317   1.825 -0.8732 -2.0169  0.3239
  737THF     H510713   2.822   0.367   1.915 -1.9854 -0.1904  2.7944
  737THF     H610714   2.864   0.017   1.770  0.0943  0.5341 -1.1812
  737THF     H710715   3.025   0.080   1.793 -0.3373  0.1816 -1.1159
  737THF     C810716   2.895   0.097   1.961 -0.3400 -0.0849  0.0323
  737THF     C910717   2.764   0.174   1.961  0.5012  0.1073  0.0359
  737THF    H1010718   2.981   0.151   2.000  1.4443 -0.4349 -3.0430
  737THF    H1110719   2.888  -0.001   2.009  1.1916 -0.4786 -0.4803
  737THF    H1210720   2.675   0.115   1.938  0.2340  0.2902  0.5820
  737THF    H1310721   2.754   0.219   2.060 -1.1148 -1.4337  0.6247
  738THF     O110722   3.139   5.348   1.102  0.1841 -0.0612 -0.2085
  738THF     C210723   3.192   5.273   1.211  0.4853  0.4526 -0.1963
  738THF     C310724   3.196   5.305   0.977  0.4331 -0.0221 -0.0946
  738THF     H410725   3.147   5.285   1.310  0.3487  2.0578 -0.4306
  738THF     H510726   3.296   5.304   1.222  0.4303  0.3603  0.6604
  738THF     H610727   3.128   5.311   0.892 -2.1407 -2.1055  1.6333
  738THF     H710728   3.283   5.362   0.944 -0.8279  1.1444 -1.5924
  738THF     C810729   3.242   5.162   1.009  0.6611  0.3775 -0.1639
  738THF     C910730   3.190   5.131   1.148 -0.0829 -0.9370 -0.4333
  738THF    H1010731   3.350   5.156   1.004  0.6340  0.7606 -2.6670
  738THF    H1110732   3.192   5.091   0.943  1.0822 -1.1361  1.0902
  738THF    H1210733   3.084   5.108   1.139 -0.6028 -0.0099  2.3643
  738THF    H1310734   3.239   5.056   1.208 -3.0355 -0.8845  2.3145
  739THF     O110735   0.057   3.588   0.640  0.2504 -0.0080 -0.7258
  739THF     C210736   0.115   3.476   0.572 -0.2864 -0.2436 -0.6186
  739THF     C310737   0.152   3.633   0.736 -0.1797 -0.0306 -0.5115
  739THF     H410738   0.154   3.511   0.476  0.1354  0.5132 -0.1866
  739THF     H510739   0.046   3.394   0.550  0.5990 -1.0305 -0.5146
  739THF     H610740   0.220   3.701   0.684  0.5886  0.8262  1.5109
  739THF     H710741   0.104   3.686   0.819  1.4394  1.4251 -0.4485
  739THF     C810742   0.212   3.510   0.785  0.1071 -0.3473  0.9344
  739THF     C910743   0.230   3.431   0.658 -0.4033 -0.6590 -0.4668
  739THF    H1010744   0.147   3.456   0.853 -0.3695  0.0148  0.7718
  739THF    H1110745   0.303   3.532   0.841  0.9413 -0.5736 -0.2813
  739THF    H1210746   0.331   3.442   0.619  0.5210 -0.2739  1.9045
  739THF    H1310747   0.229   3.322   0.668  0.7070 -0.7960 -1.5180
  740THF     O110748   3.746   1.881   5.475  0.0081 -0.6411 -0.2514
  740THF     C210749   3.796   1.836   5.603  0.3478 -0.1206 -0.0822
  740THF     C310750   3.794   2.011   5.444  0.3998  0.2255 -0.0142
  740THF     H410751   3.887   1.779   5.588 -0.0598 -1.0841  0.9550
  740THF     H510752   3.717   1.775   5.648  0.6407 -0.1921  0.3358
  740THF     H610753   3.856   2.010   5.355  3.0150 -3.3121  1.6379
  740THF     H710754   3.716   2.087   5.435  0.4045  0.0958 -1.2399
  740THF     C810755   3.883   2.053   5.568 -0.0381 -0.3634 -0.6976
  740THF     C910756   3.833   1.960   5.686 -0.2770 -0.6390 -0.0237
  740THF    H1010757   3.866   2.159   5.587 -1.0438 -0.3176 -1.7712
  740THF    H1110758   3.989   2.038   5.550 -0.2141 -1.0560 -1.2005
  740THF    H1210759   3.897   1.942   5.773  1.5992 -0.4518 -1.3112
  740THF    H1310760   3.739   1.999   5.726  0.7997  1.2967  0.7838
  741THF     O110761   0.889   2.269   2.887  0.0477 -0.2529 -0.1341
  741THF     C210762   0.898   2.415   2.881  0.7567  0.2970 -0.5649
  741THF     C310763   0.989   2.213   2.800 -0.0709 -0.6160  0.3714
  741THF     H410764   0.893   2.456   2.982  4.1222 -1.5856  0.5223
  741THF     H510765   0.814   2.428   2.813  2.5470  0.4112 -2.8698
  741THF     H610766   1.064   2.156   2.855  0.7399  0.1156  0.0507
  741THF     H710767   0.936   2.133   2.748  0.2572 -1.4293  1.2665
  741THF     C810768   1.032   2.334   2.719 -0.0050 -0.3726 -0.0300
  741THF     C910769   1.034   2.443   2.820  0.1406 -0.3679 -0.2253
  741THF    H1010770   0.958   2.363   2.643  0.7273  3.0955  0.4073
  741THF    H1110771   1.129   2.318   2.672 -0.9964  0.2556 -2.4751
  741THF    H1210772   1.119   2.427   2.887  1.5492 -2.2710 -2.2796
  741THF    H1310773   1.051   2.542   2.777 -1.3396 -0.3754 -0.8742
  742THF     O110774   4.173   4.555   5.256  0.1770  0.1046 -0.3370
  742THF     C210775   4.068   4.469   5.214  0.0886  0.6489 -0.0346
  742THF     C310776   4.302   4.519   5.195 -0.3084  0.5256  1.1780
  742THF     H410777   3.994   4.536   5.170 -0.6227 -0.8122 -1.1317
  742THF     H510778   4.024   4.411   5.294 -0.6112 -1.6101 -1.9260
  742THF     H610779   4.353   4.604   5.151 -1.3795 -0.2436 -1.7512
  742THF     H710780   4.365   4.470   5.269  1.3465 -1.8011 -1.5477
  742THF     C810781   4.268   4.422   5.082  0.0485  0.5409 -0.2048
  742THF     C910782   4.132   4.365   5.118 -0.0091 -0.1391 -0.4086
  742THF    H1010783   4.336   4.336   5.081  1.4867  1.6481  0.0321
  742THF    H1110784   4.248   4.462   4.983  1.8927 -0.9960 -1.2691
  742THF    H1210785   4.067   4.355   5.032 -1.3256 -1.5001  0.6957
  742THF    H1310786   4.148   4.267   5.165  0.7209  1.4425  2.9632
  743THF     O110787   5.246   5.070   1.146 -0.1551 -0.3742 -0.0249
  743THF     C210788   5.212   4.954   1.072  0.7206  0.7178 -0.3183
  743THF     C310789   5.324   5.159   1.067  0.0542 -0.3284 -0.0599
  743THF     H410790   5.129   4.904   1.122  0.7250  0.0081 -1.0035
  743THF     H510791   5.300   4.889   1.065 -0.4087 -0.6590 -2.7074
  743THF     H610792   5.312   5.261   1.103 -1.3382 -0.4873 -0.0563
  743THF     H710793   5.429   5.127   1.063  1.6236  4.1744 -0.9211
  743THF     C810794   5.264   5.141   0.929 -0.1508  0.0576  0.7474
  743THF     C910795   5.183   5.011   0.934  0.6901  0.0656  0.5818
  743THF    H1010796   5.344   5.127   0.856 -1.6658  0.2687 -1.0428
  743THF    H1110797   5.203   5.224   0.896 -0.5627 -0.6341 -0.2835
  743THF    H1210798   5.077   5.026   0.912  1.1430  2.8199 -0.2041
  743THF    H1310799   5.209   4.940   0.855 -0.4055 -1.1696  1.2892
  744THF     O110800   2.061   2.584   1.018  0.5738  0.0452 -0.5938
  744THF     C210801   1.978   2.627   0.913  0.0538 -0.3211  0.8344
  744THF     C310802   2.189   2.630   0.990 -0.5134 -0.7540 -0.0060
  744THF     H410803   1.875   2.619   0.945 -0.2245 -0.3064 -0.0388
  744THF     H510804   1.989   2.554   0.833 -1.6487 -1.9995  2.0645
  744THF     H610805   2.260   2.626   1.072 -0.2846 -2.7830 -0.2638
  744THF     H710806   2.231   2.566   0.913  0.3232 -0.4036  0.1468
  744THF     C810807   2.172   2.776   0.942 -0.1486  0.0392  0.0311
  744THF     C910808   2.038   2.761   0.872  0.7371  0.1381  0.2016
  744THF    H1010809   2.248   2.810   0.872 -1.2670  0.5280 -0.9816
  744THF    H1110810   2.173   2.835   1.034 -0.1879 -1.5316  1.0682
  744THF    H1210811   1.979   2.845   0.910 -2.6862 -0.1036 -3.8482
  744THF    H1310812   2.048   2.793   0.768  1.5091  3.6869  1.2241
  745THF     O110813   3.203   4.535   3.487 -0.2973  0.5519 -0.5826
  745THF     C210814   3.291   4.621   3.554  0.5139 -0.2980  0.1672
  745THF     C310815   3.168   4.595   3.363 -0.7098  0.2531  0.4505
  745THF     H410816   3.366   4.574   3.617  0.5090 -0.9803 -0.3166
  745THF     H510817   3.234   4.692   3.615 -0.4348 -0.5814 -0.3646
  745THF     H610818   3.133   4.533   3.281  2.4238  0.7624 -1.4355
  745THF     H710819   3.096   4.671   3.394 -0.3723 -0.1660  2.4430
  745THF     C810820   3.296   4.665   3.313  0.1919  0.4062  0.7058
  745THF     C910821   3.367   4.706   3.446 -0.0744  0.7347 -0.4958
  745THF    H1010822   3.261   4.754   3.262  0.5691  1.0294  1.5136
  745THF    H1110823   3.363   4.594   3.264  0.6918  1.1231  0.3293
  745THF    H1210824   3.474   4.685   3.450 -0.0152  0.9953 -0.7266
  745THF    H1310825   3.370   4.810   3.478 -0.1616  0.7916 -0.6732
  746THF     O110826   0.596   3.586   4.839 -0.1680  0.0460 -0.0015
  746THF     C210827   0.616   3.567   4.974  0.1485 -0.3801  0.1639
  746THF     C310828   0.711   3.545   4.767 -0.1348 -0.4514  0.0805
  746THF     H410829   0.522   3.585   5.026 -0.8196  1.5826 -2.0951
  746THF     H510830   0.691   3.641   5.003  0.8765 -1.1745  0.3416
  746THF     H610831   0.679   3.504   4.671  2.5451 -0.1029 -1.0565
  746THF     H710832   0.774   3.632   4.748  0.5594 -0.8566  0.4994
  746THF     C810833   0.768   3.433   4.854  0.4021 -0.7913 -0.5024
  746THF     C910834   0.663   3.425   4.969  0.1561 -0.0170 -0.0944
  746THF    H1010835   0.869   3.457   4.890 -0.4131  2.3260  0.0389
  746THF    H1110836   0.784   3.346   4.791  1.1769  0.5839 -2.2636
  746THF    H1210837   0.585   3.352   4.946  0.9818 -1.5711  1.8010
  746THF    H1310838   0.709   3.399   5.064  2.3144 -2.0782 -1.5964
  747THF     O110839   0.670   1.059   3.469 -0.1168 -0.0865  0.1602
  747THF     C210840   0.539   1.075   3.419 -0.2832  0.6916  0.3943
  747THF     C310841   0.738   1.154   3.395  0.2070  0.8329 -0.4478
  747THF     H410842   0.473   1.015   3.482 -0.5865  0.5329 -0.0693
  747THF     H510843   0.543   1.033   3.319  0.9949  0.8175  0.3712
  747THF     H610844   0.838   1.172   3.433 -0.4415  1.3774  1.0751
  747THF     H710845   0.762   1.118   3.295 -0.7424  2.6040 -1.3625
  747THF     C810846   0.652   1.281   3.398 -0.2964 -0.0114  0.1020
  747THF     C910847   0.512   1.218   3.414  0.1202  0.3216 -0.6533
  747THF    H1010848   0.661   1.333   3.303 -2.7415  0.2759 -0.0226
  747THF    H1110849   0.678   1.347   3.481  0.4137  1.1980 -1.0634
  747THF    H1210850   0.463   1.242   3.509  1.0845  1.8012 -0.4978
  747THF    H1310851   0.453   1.248   3.327  0.4921  1.6952 -0.4569
  748THF     O110852   2.674   5.442   2.421 -0.1725  0.5843  0.0453
  748THF     C210853   2.712   5.386   2.547  1.0328  0.5354 -0.4480
  748THF     C310854   2.531   5.429   2.411 -0.3615 -0.4418  0.2309
  748THF     H410855   2.701   5.456   2.630 -2.7719 -0.3650  0.0033
  748THF     H510856   2.817   5.356   2.546  0.1509 -3.1088 -2.9750
  748THF     H610857   2.491   5.499   2.484 -0.7690 -2.5476  2.1356
  748THF     H710858   2.490   5.444   2.311  1.7492  0.9348 -0.4961
  748THF     C810859   2.511   5.285   2.453 -0.0962  0.1917  0.4115
  748THF     C910860   2.616   5.269   2.564  0.2987  0.5746  0.4999
  748THF    H1010861   2.522   5.211   2.374 -1.5033 -0.6168  0.9520
  748THF    H1110862   2.412   5.261   2.492 -0.3703 -1.2077 -1.0658
  748THF    H1210863   2.564   5.277   2.660 -0.6993 -3.9321  0.5331
  748THF    H1310864   2.660   5.169   2.562  1.1780  0.8285  2.8485
  749THF     O110865   3.722   5.114   0.608  0.5838  0.1466 -1.0188
  749THF     C210866   3.611   5.026   0.617 -0.1683  0.0668 -0.5172
  749THF     C310867   3.726   5.182   0.731 -0.1708  0.0491 -0.2358
  749THF     H410868   3.647   4.938   0.671  1.6057 -0.4360 -2.3858
  749THF     H510869   3.574   4.992   0.521 -0.1661 -0.6497 -0.2671
  749THF     H610870   3.756   5.114   0.810 -2.4281 -0.0412  0.6099
  749THF     H710871   3.799   5.264   0.729 -0.9886  0.7852 -0.9766
  749THF     C810872   3.582   5.226   0.752  0.1015  0.6453 -0.7443
  749THF     C910873   3.504   5.110   0.689  0.3613  0.1341 -0.4723
  749THF    H1010874   3.581   5.318   0.693  0.8973  1.0822 -0.0860
  749THF    H1110875   3.558   5.247   0.856 -0.4787 -0.7353 -0.5713
  749THF    H1210876   3.455   5.049   0.765 -1.9426  0.1582 -1.8477
  749THF    H1310877   3.429   5.154   0.623  0.4119 -0.3150 -0.8335
  750THF     O110878   4.570   5.444   4.787 -0.3399 -0.3178 -0.3244
  750THF     C210879   4.699   5.396   4.841  0.1941 -0.5667  0.1054
  750THF     C310880   4.576   5.489   4.654 -0.0506 -0.6425  0.4717
  750THF     H410881   4.684   5.326   4.924  0.4803  0.2075  0.8184
  750THF     H510882   4.754   5.485   4.872  3.4715 -1.5166 -2.4960
  750THF     H610883   4.479   5.472   4.606  0.8316 -0.9460 -1.2794
  750THF     H710884   4.590   5.597   4.651  1.8624 -0.8655  0.1135
  750THF     C810885   4.692   5.412   4.591  0.1709  0.1421 -0.6043
  750THF     C910886   4.769   5.349   4.717  0.0511  0.1042  0.2436
  750THF    H1010887   4.755   5.477   4.530  1.1437 -0.4987 -0.3105
  750THF    H1110888   4.644   5.335   4.531 -0.5885 -1.1106  1.5203
  750THF    H1210889   4.758   5.242   4.702 -0.5674  0.2434 -0.3871
  750THF    H1310890   4.875   5.372   4.719  0.0389  0.0864  1.4770
  751THF     O110891   1.284   4.309   0.772 -0.1808 -0.0464  0.2584
  751THF     C210892   1.232   4.442   0.786 -0.1487  0.4371 -0.3901
  751THF     C310893   1.228   4.233   0.877  0.1441 -0.4029  0.2791
  751THF     H410894   1.146   4.458   0.721 -0.9833 -0.6699  0.3954
  751THF     H510895   1.312   4.513   0.763  0.0116 -0.4340 -2.9260
  751THF     H610896   1.122   4.212   0.860  0.5097 -2.2110  0.1089
  751THF     H710897   1.279   4.143   0.911 -1.3182 -0.3469  2.9336
  751THF     C810898   1.218   4.323   0.998 -0.3893 -0.8683 -0.0744
  751THF     C910899   1.182   4.456   0.923 -0.3126  0.3456 -0.2507
  751THF    H1010900   1.318   4.333   1.039 -1.0518  1.3698  1.1157
  751THF    H1110901   1.141   4.284   1.064 -1.8797  1.9829  0.0196
  751THF    H1210902   1.073   4.453   0.923 -0.2968 -0.7762  0.2857
  751THF    H1310903   1.212   4.548   0.973  0.2600 -0.5362  1.0583
  752THF     O110904   2.634   1.924   1.736  0.1068 -0.2989 -0.1448
  752THF     C210905   2.554   1.975   1.838 -0.7410 -0.1789 -0.6681
  752THF     C310906   2.758   1.997   1.758 -0.4000  0.3091  0.0967
  752THF     H410907   2.577   1.907   1.921  1.0259 -2.3632 -2.7845
  752THF     H510908   2.454   1.957   1.799 -1.1278  0.6236 -0.0671
  752THF     H610909   2.814   1.942   1.834 -0.5238 -1.0413 -0.7519
  752THF     H710910   2.831   1.990   1.678 -0.3882 -1.1831  0.2134
  752THF     C810911   2.722   2.140   1.794  0.0739  0.0932  0.1560
  752THF     C910912   2.576   2.127   1.841  0.1337 -0.5286  0.0816
  752THF    H1010913   2.743   2.192   1.700  1.8180  0.1139  0.5243
  752THF    H1110914   2.797   2.159   1.870 -1.0848 -1.8136  1.8488
  752THF    H1210915   2.564   2.159   1.944 -2.5134  0.8546 -0.5729
  752THF    H1310916   2.512   2.200   1.791 -0.0906 -0.2847  0.7193
  753THF     O110917   0.978   4.506   0.336  0.5283  0.4636  0.3239
  753THF     C210918   0.965   4.546   0.202 -0.0728  0.2248  0.0370
  753THF     C310919   0.862   4.569   0.401  0.5318 -0.4259 -0.0488
  753THF     H410920   0.886   4.483   0.161 -1.4367  1.5967  0.4670
  753THF     H510921   1.059   4.531   0.148 -0.2317 -1.8638  0.2542
  753THF     H610922   0.778   4.502   0.380 -0.0891  0.3622 -0.1327
  753THF     H710923   0.880   4.589   0.507 -0.6982 -0.5748  0.2024
  753THF     C810924   0.832   4.692   0.323 -0.4560  0.1064 -0.4399
  753THF     C910925   0.929   4.695   0.214 -0.3925 -0.1372 -0.0115
  753THF    H1010926   0.849   4.779   0.385 -0.6867 -0.1721  0.0205
  753THF    H1110927   0.728   4.687   0.290 -0.9509  3.1310  0.4126
  753THF    H1210928   0.887   4.737   0.123 -0.4429  0.6431  0.3627
  753THF    H1310929   1.012   4.760   0.242 -1.4781  1.9016 -1.2824
  754THF     O110930   5.017   3.546   1.529 -0.3537 -0.1134  0.3034
  754THF     C210931   4.938   3.483   1.429  0.5762  0.6009  0.1024
  754THF     C310932   4.989   3.691   1.536 -0.1650 -0.1305 -0.4836
  754THF     H410933   4.855   3.429   1.475  1.1410  0.6182  1.1715
  754THF     H510934   4.979   3.419   1.351 -1.5914  0.4902 -1.0460
  754THF     H610935   4.904   3.707   1.602  0.2175  0.2397 -0.0751
  754THF     H710936   5.078   3.745   1.571 -0.3805  0.9900 -1.6021
  754THF     C810937   4.958   3.728   1.397 -0.3007  0.8977 -0.3110
  754THF     C910938   4.880   3.602   1.358  0.4281  0.0611 -0.2370
  754THF    H1010939   5.053   3.734   1.346  0.0766 -2.9272 -0.3320
  754THF    H1110940   4.894   3.816   1.386 -0.6381  0.4334 -2.5720
  754THF    H1210941   4.779   3.607   1.398  0.8003 -2.9324  1.3221
  754THF    H1310942   4.873   3.577   1.253  1.7509  0.3880 -0.4228
  755THF     O110943   4.022   1.694   2.416 -0.0498  0.3779  0.2398
  755THF     C210944   4.077   1.564   2.412  0.6357  0.4718  0.3736
  755THF     C310945   4.037   1.738   2.281  0.3842 -0.6609 -0.0808
  755THF     H410946   4.041   1.497   2.491 -2.4008 -1.3921 -2.3400
  755THF     H510947   4.185   1.565   2.427  0.3932 -0.4284  2.6306
  755THF     H610948   3.966   1.817   2.257  0.6759 -1.0233 -2.3759
  755THF     H710949   4.140   1.771   2.266  0.5413 -2.2085 -3.6692
  755THF     C810950   4.008   1.620   2.185  0.0511  0.5224 -0.6947
  755THF     C910951   4.035   1.499   2.278  0.5640 -0.1742  0.1955
  755THF    H1010952   4.069   1.637   2.097  1.6335  1.5593  0.5431
  755THF    H1110953   3.902   1.621   2.161 -0.3388 -0.8094  0.7971
  755THF    H1210954   3.940   1.455   2.308  0.5821 -0.7859 -0.6026
  755THF    H1310955   4.108   1.424   2.246  2.2251  1.0163  1.0491
  756THF     O110956   2.005   3.799   1.057 -0.3613 -0.0630  0.3750
  756THF     C210957   2.048   3.667   1.043 -0.1309  0.0252  0.3974
  756THF     C310958   1.983   3.848   0.925 -0.4600 -0.1250  0.6463
  756THF     H410959   1.969   3.599   1.011 -0.6254  0.7799 -0.0111
  756THF     H510960   2.082   3.638   1.143  3.4652  2.8008  0.1712
  756THF     H610961   1.878   3.846   0.896 -0.0912 -0.5411 -0.7070
  756THF     H710962   2.006   3.954   0.911 -1.0055 -0.3890 -3.1041
  756THF     C810963   2.069   3.759   0.837 -0.0929 -0.4666  0.6599
  756THF     C910964   2.149   3.679   0.935  0.7123  0.4495 -0.2471
  756THF    H1010965   2.132   3.811   0.765 -0.0674 -0.4283  0.7104
  756THF    H1110966   2.010   3.689   0.777 -2.5572  1.8347  0.2595
  756THF    H1210967   2.169   3.580   0.894 -1.4576 -0.6133  1.0567
  756THF    H1310968   2.243   3.730   0.955  1.9868 -0.7736 -2.6362
  757THF     O110969   5.267   1.213   0.179  0.1869  0.1992 -0.2490
  757THF     C210970   5.275   1.243   0.039 -0.5465  0.8036 -0.1118
  757THF     C310971   5.167   1.304   0.232 -0.2440  0.5775  0.0174
  757THF     H410972   5.349   1.180  -0.009  1.4444  2.5894  0.4486
  757THF     H510973   5.322   1.341   0.025 -2.2306  1.9867  1.8514
  757THF     H610974   5.131   1.267   0.327 -0.1683  0.7243  0.1044
  757THF     H710975   5.200   1.408   0.242  1.6692 -0.0049  0.1443
  757THF     C810976   5.057   1.299   0.122  0.2689 -0.4019 -0.4851
  757THF     C910977   5.124   1.237  -0.002 -0.6396 -0.3594  0.5074
  757THF    H1010978   5.022   1.399   0.099 -1.4995  0.1735  3.6842
  757THF    H1110979   4.971   1.240   0.154  1.1412 -0.5340  1.8040
  757THF    H1210980   5.093   1.134  -0.021 -0.7028  0.0296 -1.7722
  757THF    H1310981   5.112   1.288  -0.098 -0.2904 -0.0407  0.6338
  758THF     O110982   1.071   5.335   3.090 -0.4112  0.7094 -0.3440
  758THF     C210983   0.964   5.419   3.094  0.6884 -0.5377 -0.1837
  758THF     C310984   1.184   5.409   3.147  0.2220  0.1956 -0.3110
  758THF     H410985   0.874   5.356   3.090  0.6824 -0.4876 -3.4155
  758THF     H510986   0.966   5.490   3.012  0.1563  0.1233  0.3646
  758THF     H610987   1.261   5.337   3.177 -0.6619 -0.5220  0.3254
  758THF     H710988   1.231   5.478   3.077  0.7599  1.1459  0.9495
  758THF     C810989   1.125   5.492   3.255  0.0340 -0.3632  0.0914
  758THF     C910990   0.979   5.499   3.224 -0.0438 -0.1213 -0.0918
  758THF    H1010991   1.173   5.589   3.261 -0.7938  0.4776 -4.0518
  758THF    H1110992   1.156   5.454   3.352  0.9607  0.3562  0.0881
  758THF    H1210993   0.924   5.447   3.303 -0.5266  0.7621  0.1704
  758THF    H1310994   0.939   5.600   3.215  1.9086  0.5732 -1.6280
  759THF     O110995   5.186   3.531   5.342  0.1777  0.2620  0.5003
  759THF     C210996   5.278   3.565   5.245  0.3502 -0.1656 -0.8295
  759THF     C310997   5.071   3.478   5.278  0.7483  0.0474  0.2821
  759THF     H410998   5.312   3.467   5.211  0.6193 -0.9113  1.4429
  759THF     H510999   5.371   3.611   5.277  0.4914 -1.5786  0.9317
  759THF     H611000   5.080   3.377   5.239 -2.2749 -1.2426  2.5089
  759THF     H711001   4.982   3.482   5.342  0.6259 -1.9602  0.2921
  759THF     C811002   5.048   3.576   5.166 -0.0138 -0.0003 -0.1918
  759THF     C911003   5.189   3.634   5.141 -0.5339 -0.3339 -0.0919
  759THF    H1011004   4.987   3.662   5.193  0.0654  0.0740 -0.2498
  759THF    H1111005   4.995   3.538   5.079  0.9049 -0.1221 -0.7101
  759THF    H1211006   5.233   3.611   5.044 -0.0475 -0.0767  0.0685
  759THF    H1311007   5.191   3.737   5.175  0.0163 -0.9847  1.9909
  760THF     O111008   0.972   2.713   4.445  0.5448 -0.9149  0.4636
  760THF     C211009   0.953   2.799   4.556 -0.2481 -0.0211  0.0555
  760THF     C311010   1.031   2.598   4.498  0.4886 -0.3008  0.1318
  760THF     H411011   0.887   2.884   4.538  2.1969  1.7555 -1.1422
  760THF     H511012   1.055   2.830   4.580 -0.1909 -0.0260 -0.1760
  760THF     H611013   1.013   2.517   4.427 -0.3824  0.3952 -0.4716
  760THF     H711014   1.138   2.615   4.509 -0.0606  2.2579  2.8320
  760THF     C811015   0.948   2.574   4.621  0.1722 -0.1159 -0.2098
  760THF     C911016   0.896   2.710   4.661  0.5985  0.4707 -0.3784
  760THF    H1011017   1.010   2.536   4.703  0.5333  1.9013  0.5169
  760THF    H1111018   0.861   2.514   4.594 -1.3639  1.8084  0.2006
  760THF    H1211019   0.789   2.710   4.682  0.2866  3.5696 -1.3889
  760THF    H1311020   0.922   2.739   4.763 -2.6886  1.3862  0.3123
  761THF     O111021   3.376   2.299   4.500  0.0652 -0.6909 -0.0425
  761THF     C211022   3.378   2.356   4.371  0.3985 -0.0867 -0.3641
  761THF     C311023   3.475   2.364   4.576 -0.2465  0.3112  0.7618
  761THF     H411024   3.273   2.356   4.342 -0.6266 -3.4039  2.6134
  761THF     H511025   3.442   2.296   4.307  1.2708 -0.0087  0.4099
  761THF     H611026   3.449   2.351   4.681  2.4691  0.7262  1.5718
  761THF     H711027   3.571   2.321   4.547 -1.0817 -0.6949 -0.5694
  761THF     C811028   3.456   2.509   4.543 -0.2278 -0.1994 -0.5133
  761THF     C911029   3.427   2.502   4.391 -0.2438  0.4115  0.0172
  761THF    H1011030   3.530   2.576   4.585 -0.8572  0.6175 -0.6945
  761THF    H1111031   3.363   2.526   4.597  2.4035  0.9211  4.1826
  761THF    H1211032   3.349   2.572   4.359  0.4874  0.6345 -1.3277
  761THF    H1311033   3.514   2.517   4.327  0.6374  0.0880  1.1058
  762THF     O111034   1.455   3.287   2.985  0.1852 -0.1872 -0.3417
  762THF     C211035   1.480   3.354   3.110  0.0201 -0.1333 -0.1762
  762THF     C311036   1.319   3.250   2.981 -0.4042 -0.3980 -0.0152
  762THF     H411037   1.475   3.462   3.096 -0.5617 -0.1545 -0.1584
  762THF     H511038   1.575   3.333   3.157 -0.6035  1.7330  2.1212
  762THF     H611039   1.268   3.342   2.951 -2.7882 -0.4813  3.2851
  762THF     H711040   1.284   3.178   2.907 -1.6987 -0.2570  0.4368
  762THF     C811041   1.287   3.210   3.122  0.4623 -0.1112  0.6517
  762THF     C911042   1.375   3.301   3.203  0.1836 -0.2916 -0.0491
  762THF    H1011043   1.324   3.113   3.158 -1.7048  0.2480  4.2688
  762THF    H1111044   1.180   3.208   3.140  0.3412  0.5449  0.0108
  762THF    H1211045   1.319   3.388   3.235  1.4605  0.6623 -0.2999
  762THF    H1311046   1.415   3.250   3.291 -4.1281 -0.5707  1.9770
  763THF     O111047   4.890   2.596   4.577 -0.4628 -0.2483  0.9723
  763THF     C211048   4.973   2.641   4.681 -0.0185 -0.4213 -0.7347
  763THF     C311049   4.901   2.698   4.478 -0.1872  0.1547 -0.7557
  763THF     H411050   5.073   2.638   4.638 -0.3081  1.3526 -1.6194
  763THF     H511051   4.976   2.580   4.771  1.3567 -1.4511 -1.4379
  763THF     H611052   5.001   2.700   4.434  0.1874  2.1980  0.1031
  763THF     H711053   4.825   2.690   4.399  0.3074 -0.2033 -1.2024
  763THF     C811054   4.867   2.817   4.564 -0.9695  0.8980 -0.2843
  763THF     C911055   4.935   2.785   4.699  0.4709  0.7980  0.3229
  763THF    H1011056   4.761   2.840   4.574 -0.5630  2.1607  1.8079
  763THF    H1111057   4.924   2.898   4.519  1.3220 -0.9520 -0.9172
  763THF    H1211058   5.017   2.852   4.726 -0.8618  1.5563  2.9287
  763THF    H1311059   4.865   2.780   4.783  2.4462 -1.6997  1.9657
  764THF     O111060   4.329   0.110   3.353 -0.3932  0.2929  0.3386
  764THF     C211061   4.393   0.092   3.229 -0.6986 -0.6340  0.1587
  764THF     C311062   4.400   0.199   3.431 -0.3467 -1.3231  0.1927
  764THF     H411063   4.313   0.067   3.159 -0.7464 -2.6958  0.8879
  764THF     H511064   4.478   0.024   3.221  2.2565  2.6605  1.1243
  764THF     H611065   4.338   0.259   3.497  0.9233  1.4884 -1.0249
  764THF     H711066   4.477   0.148   3.490  0.8762 -1.1186 -1.1488
  764THF     C811067   4.464   0.298   3.328 -0.3299 -0.3634 -0.1845
  764THF     C911068   4.448   0.230   3.194 -0.4996 -0.3501  0.5198
  764THF    H1011069   4.565   0.304   3.368 -1.6269  0.5452  3.2710
  764THF    H1111070   4.423   0.399   3.333 -0.8088 -0.3176 -3.0876
  764THF    H1211071   4.384   0.286   3.126  0.6723  1.8638  1.1800
  764THF    H1311072   4.545   0.224   3.146 -0.3236 -1.5600  0.9719
  765THF     O111073   4.330   4.485   3.356 -0.0723 -0.2606 -0.3078
  765THF     C211074   4.220   4.539   3.272 -0.1290  0.1696 -0.5558
  765THF     C311075   4.428   4.585   3.331  0.0545  0.0294 -0.3563
  765THF     H411076   4.180   4.634   3.306  0.6968  0.9788 -1.7559
  765THF     H511077   4.138   4.468   3.267 -0.5050  0.5378  0.2926
  765THF     H611078   4.385   4.681   3.357 -1.8873 -0.7304 -0.5888
  765THF     H711079   4.527   4.571   3.375  0.1059  0.6503 -0.2700
  765THF     C811080   4.428   4.587   3.177 -0.1349  0.6353  0.0129
  765THF     C911081   4.279   4.563   3.138 -0.4946  0.2348  0.3210
  765THF    H1011082   4.495   4.512   3.135 -0.3764  0.7187 -0.5366
  765THF    H1111083   4.470   4.682   3.145 -1.3827  0.7131 -1.5186
  765THF    H1211084   4.237   4.656   3.101 -1.0041  0.3873  1.2660
  765THF    H1311085   4.265   4.494   3.055  1.1333  2.0993 -1.6177
  766THF     O111086   5.166   2.037   2.462 -0.0682  0.4326  0.4515
  766THF     C211087   5.129   1.919   2.536  1.2699  0.0995 -0.3419
  766THF     C311088   5.077   2.143   2.509  0.4445 -0.5201  0.2981
  766THF     H411089   5.161   1.917   2.640 -0.3725 -3.0444  0.2313
  766THF     H511090   5.171   1.830   2.489 -0.0111 -1.9089  2.0248
  766THF     H611091   5.120   2.206   2.587  0.8291 -0.0746 -0.2667
  766THF     H711092   5.040   2.207   2.430 -0.2749  0.9083  1.7443
  766THF     C811093   4.946   2.074   2.551  0.4370  0.5026  0.2986
  766THF     C911094   4.975   1.923   2.550 -1.0406  0.5755  0.4010
  766THF    H1011095   4.876   2.105   2.474  0.9333  0.2024 -0.2791
  766THF    H1111096   4.920   2.105   2.653  1.2563  0.6589  0.4678
  766THF    H1211097   4.948   1.865   2.638  0.5114  0.3790  0.7904
  766THF    H1311098   4.932   1.881   2.459 -0.8664 -0.5422  0.8224
  767THF     O111099   5.426   2.910   1.542  0.1332 -0.3166  0.3393
  767THF     C211100   5.440   2.783   1.609 -0.3374  0.5207  0.5712
  767THF     C311101   5.544   2.944   1.466 -0.1132 -0.1338 -0.4011
  767THF     H411102   5.345   2.731   1.597 -0.3508  0.2707  1.6357
  767THF     H511103   5.463   2.811   1.712 -2.9647  1.1450  1.0781
  767THF     H611104   5.526   3.006   1.378  1.3520  0.5479 -0.2633
  767THF     H711105   5.611   3.004   1.528  0.2479  0.3886 -1.2834
  767THF     C811106   5.586   2.801   1.419  0.2967  0.5609 -0.5175
  767THF     C911107   5.567   2.713   1.542  0.2517 -0.8238  0.0358
  767THF    H1011108   5.686   2.804   1.375  0.2427  0.9111 -0.6225
  767THF    H1111109   5.519   2.773   1.338  0.1381  2.4896 -1.1156
  767THF    H1211110   5.538   2.609   1.528 -1.6563 -0.5005  1.1597
  767THF    H1311111   5.643   2.709   1.620 -0.7777  1.4370  1.2523
  768THF     O111112   2.244   0.952   3.040  0.2148 -0.2665 -0.0045
  768THF     C211113   2.284   1.036   2.931  0.5242  0.8292  0.6886
  768THF     C311114   2.111   0.914   3.023  0.2992  0.7695 -0.0742
  768THF     H411115   2.366   0.979   2.887 -1.0926 -0.4216 -0.8763
  768THF     H511116   2.314   1.131   2.975  0.5657  0.7425  0.8478
  768THF     H611117   2.104   0.808   2.997 -0.3235  0.3577  1.6491
  768THF     H711118   2.074   0.934   3.123  0.5112  1.1331 -0.0652
  768THF     C811119   2.047   1.010   2.930  0.4785 -0.4422 -0.5917
  768THF     C911120   2.165   1.051   2.840 -0.1228 -0.1478  0.1767
  768THF    H1011121   2.012   1.101   2.980  1.6657  0.3607 -1.1702
  768THF    H1111122   1.969   0.971   2.865 -0.3181  0.2989 -0.1164
  768THF    H1211123   2.170   0.972   2.764  1.1296 -0.7560  0.8607
  768THF    H1311124   2.148   1.146   2.789 -1.8008 -0.8945 -0.7274
  769THF     O111125   4.499   1.882   2.759  0.9867  0.1235 -0.1473
  769THF     C211126   4.442   1.806   2.654  0.0268  0.3522 -0.1106
  769THF     C311127   4.634   1.876   2.749 -0.9953 -1.1114 -0.1665
  769THF     H411128   4.448   1.851   2.554  1.2140  1.3298  0.3703
  769THF     H511129   4.345   1.766   2.682 -1.1528  1.5454 -2.2069
  769THF     H611130   4.666   1.952   2.678  0.3523 -1.3462  0.1420
  769THF     H711131   4.683   1.896   2.844 -0.4232 -0.0528 -0.6714
  769THF     C811132   4.667   1.731   2.717 -0.2222 -0.4752 -0.0811
  769THF     C911133   4.533   1.683   2.670  0.1183 -0.2532 -0.5035
  769THF    H1011134   4.690   1.673   2.806  0.5860  1.9712  1.3994
  769THF    H1111135   4.749   1.710   2.649  0.7898 -0.3173  1.0713
  769THF    H1211136   4.541   1.620   2.581  0.1571  0.1107 -0.7614
  769THF    H1311137   4.486   1.631   2.753 -3.9256  2.2433 -0.9439
  770THF     O111138   2.346   3.692   1.441  0.3612  0.1074 -0.0267
  770THF     C211139   2.354   3.621   1.317 -0.5767  0.0259 -0.2861
  770THF     C311140   2.488   3.723   1.475 -0.1310  0.3303  0.0228
  770THF     H411141   2.254   3.608   1.276 -0.2218 -2.1275 -0.6150
  770THF     H511142   2.389   3.520   1.337  0.2734  0.1070 -1.2904
  770THF     H611143   2.494   3.822   1.519 -1.8641  1.1673 -1.5054
  770THF     H711144   2.535   3.653   1.544 -0.4286 -1.3177 -1.3741
  770THF     C811145   2.563   3.722   1.347  0.0457 -0.5999  0.3951
  770THF     C911146   2.452   3.710   1.246 -0.3540 -0.1202  0.0238
  770THF    H1011147   2.641   3.645   1.346 -0.3839 -1.0624 -1.0471
  770THF    H1111148   2.624   3.812   1.338  1.3351 -1.3932  0.8884
  770THF    H1211149   2.403   3.803   1.218  0.4826 -0.3717 -2.4968
  770THF    H1311150   2.477   3.666   1.149 -1.2300 -0.5551 -0.0180
  771THF     O111151   3.575   3.243   0.361 -0.5752 -0.7463  0.0995
  771THF     C211152   3.453   3.190   0.317 -0.1867 -0.0959  0.5949
  771THF     C311153   3.550   3.364   0.417 -0.2183 -0.0078  0.2043
  771THF     H411154   3.473   3.086   0.290  1.6203  0.3971 -0.1391
  771THF     H511155   3.410   3.242   0.231  1.9470 -0.8243 -1.0275
  771THF     H611156   3.642   3.402   0.461  0.0743 -0.0242 -0.3808
  771THF     H711157   3.519   3.432   0.337  0.7739 -0.3178 -0.4623
  771THF     C811158   3.447   3.313   0.518 -0.3308 -0.0658 -0.2709
  771THF     C911159   3.381   3.203   0.446 -0.1828  0.3459  0.3456
  771THF    H1011160   3.398   3.409   0.536  0.3003  0.1635  0.2790
  771THF    H1111161   3.503   3.279   0.605 -0.2111 -0.8450 -0.6469
  771THF    H1211162   3.381   3.115   0.511  0.5148 -1.2403 -1.6709
  771THF    H1311163   3.278   3.234   0.434  0.1771  1.9000  1.0365
  772THF     O111164   0.787   0.520   4.727 -0.7657 -1.2039  0.1675
  772THF     C211165   0.929   0.547   4.702 -0.3744  0.1766  0.4073
  772THF     C311166   0.738   0.622   4.808 -1.1707  0.4245 -0.0984
  772THF     H411167   0.931   0.609   4.612 -0.4860  0.5665  0.6694
  772THF     H511168   0.984   0.458   4.672  0.9530  0.5351  1.6631
  772THF     H611169   0.699   0.707   4.751  2.2442  2.1380 -0.0952
  772THF     H711170   0.661   0.576   4.869 -1.6175  2.8981  1.3592
  772THF     C811171   0.858   0.681   4.883 -0.2438 -0.5474 -0.6990
  772THF     C911172   0.978   0.608   4.832 -0.4584 -0.5339  0.2570
  772THF    H1011173   0.844   0.653   4.988  0.1387  1.0117 -0.1996
  772THF    H1111174   0.850   0.790   4.877 -1.1238 -0.6686 -2.0445
  772THF    H1211175   1.069   0.666   4.820 -0.0364 -0.5955  2.7012
  772THF    H1311176   0.990   0.517   4.892 -1.1935 -1.1036 -0.4430
  773THF     O111177   4.245   1.566   1.503  0.2375 -0.4978 -0.3165
  773THF     C211178   4.327   1.652   1.582 -0.2830  0.9201 -0.2455
  773THF     C311179   4.249   1.619   1.372 -0.3701  0.6069  0.0575
  773THF     H411180   4.432   1.622   1.571 -0.6587 -1.4595  1.8387
  773THF     H511181   4.292   1.648   1.685 -1.1873  1.3466 -0.5261
  773THF     H611182   4.342   1.581   1.329  0.3708  2.4398 -0.0537
  773THF     H711183   4.172   1.575   1.309  1.5051 -3.2855  0.2357
  773THF     C811184   4.255   1.778   1.382  0.4203  0.5444 -0.5804
  773THF     C911185   4.301   1.790   1.528  0.5459  0.0619  0.3163
  773THF    H1011186   4.164   1.835   1.362 -0.1949  0.1755  1.0217
  773THF    H1111187   4.322   1.812   1.303 -0.3191  0.1453 -1.3930
  773THF    H1211188   4.393   1.849   1.532 -0.6600  1.9533  1.7548
  773THF    H1311189   4.225   1.830   1.595 -1.1526 -3.5476  0.7802
  774THF     O111190   5.020   5.018   3.804  0.0036  0.3042  0.4671
  774THF     C211191   5.081   5.041   3.672 -0.4217 -0.0042 -0.5758
  774THF     C311192   5.054   5.129   3.886 -0.0742 -0.1922  0.0415
  774THF     H411193   5.013   5.039   3.587 -1.2887  0.7282  0.0800
  774THF     H511194   5.139   4.950   3.656  0.5385  0.4752  0.0922
  774THF     H611195   4.973   5.201   3.877  0.3847  0.2817 -0.3349
  774THF     H711196   5.085   5.122   3.991 -0.5375  1.9020  0.3507
  774THF     C811197   5.179   5.191   3.830  0.0081  0.3661 -0.0535
  774THF     C911198   5.162   5.169   3.684  0.3191 -0.1607  0.3872
  774THF    H1011199   5.264   5.133   3.867  0.6924  2.0987  1.2146
  774THF    H1111200   5.211   5.292   3.856  4.0204 -0.4045 -1.2481
  774THF    H1211201   5.101   5.253   3.651 -0.8500 -1.1572 -0.0567
  774THF    H1311202   5.260   5.162   3.637  0.1123 -1.7774  0.1281
  775THF     O111203   1.769   3.576   2.947  0.1671 -0.3155 -0.1926
  775THF     C211204   1.840   3.506   3.050  0.1179 -0.0807 -0.2922
  775THF     C311205   1.787   3.487   2.837 -0.3660 -0.9241  0.5695
  775THF     H411206   1.780   3.434   3.107 -1.2761  2.8802  2.3481
  775THF     H511207   1.873   3.573   3.130  2.3288  0.4897 -1.6049
  775THF     H611208   1.717   3.404   2.847 -1.3105 -0.1211  0.7820
  775THF     H711209   1.781   3.547   2.746  0.6411 -2.3079 -0.4460
  775THF     C811210   1.931   3.436   2.839  0.0817 -0.0534 -0.0723
  775THF     C911211   1.952   3.434   2.986 -0.9675 -0.1638  0.1439
  775THF    H1011212   1.998   3.498   2.779 -0.0382  0.6770  0.5359
  775THF    H1111213   1.929   3.337   2.793  0.1047  0.4851 -1.2727
  775THF    H1211214   1.953   3.334   3.029  0.9880 -2.3297 -4.3032
  775THF    H1311215   2.045   3.485   3.014 -1.9754  2.8142 -1.4752
  776THF     O111216   3.420   3.404   5.163 -0.6697  0.3896 -0.0200
  776THF     C211217   3.436   3.414   5.299 -0.2257 -0.7574 -0.4683
  776THF     C311218   3.287   3.427   5.129  0.2076  0.2731  0.3305
  776THF     H411219   3.540   3.407   5.332  0.0338  2.0381 -0.4927
  776THF     H511220   3.381   3.334   5.350 -0.1062 -0.1217  0.6961
  776THF     H611221   3.280   3.435   5.021  1.3647 -1.4302  0.0962
  776THF     H711222   3.210   3.356   5.159  0.5493 -0.1466  0.2165
  776THF     C811223   3.251   3.546   5.215  0.0364  0.0092 -0.3323
  776THF     C911224   3.371   3.550   5.315  0.7211 -0.1762 -0.6947
  776THF    H1011225   3.167   3.531   5.282  0.4713  0.1213  0.2438
  776THF    H1111226   3.249   3.638   5.157 -0.4130  0.9689  1.1578
  776THF    H1211227   3.444   3.629   5.305  0.0244  0.6782  0.6273
  776THF    H1311228   3.331   3.554   5.417  1.8388  0.5721 -0.2719
  777THF     O111229   2.270   1.243   3.877 -0.3187  0.0863  0.2503
  777THF     C211230   2.258   1.106   3.852  0.0899  0.6578  0.5462
  777THF     C311231   2.155   1.289   3.946 -0.1042 -0.4455  0.2670
  777THF     H411232   2.292   1.051   3.939 -0.4457 -0.0927  0.2929
  777THF     H511233   2.304   1.071   3.760  0.1209  0.2433  0.7210
  777THF     H611234   2.177   1.338   4.041  0.1503 -0.5765  0.2765
  777THF     H711235   2.100   1.358   3.882 -0.1836  1.0650  1.8595
  777THF     C811236   2.058   1.179   3.950  0.5144  0.2027 -0.6259
  777THF     C911237   2.105   1.090   3.841  0.2169 -0.1211 -0.0183
  777THF    H1011238   1.955   1.211   3.937  0.6233  0.0609 -1.8972
  777THF    H1111239   2.067   1.137   4.051  0.8385  3.2278  0.6901
  777THF    H1211240   2.063   0.991   3.859 -0.4049  0.5274  2.6889
  777THF    H1311241   2.071   1.129   3.745  0.0589 -1.9614 -0.7497
  778THF     O111242   3.489   1.438   1.541  0.0248 -0.2566 -0.0945
  778THF     C211243   3.424   1.560   1.559 -0.1034  0.2779  0.6249
  778THF     C311244   3.471   1.369   1.661 -0.3559  0.3209  0.2716
  778THF     H411245   3.330   1.536   1.510  1.0051 -2.7533 -0.2328
  778THF     H511246   3.449   1.641   1.489  1.7488 -0.3809  0.4601
  778THF     H611247   3.420   1.278   1.629 -0.0614  0.9368 -2.1874
  778THF     H711248   3.570   1.342   1.699 -0.7281 -0.0729  0.9709
  778THF     C811249   3.393   1.446   1.763 -0.5434 -0.0135 -0.0762
  778THF     C911250   3.410   1.587   1.710  0.2536 -0.2434  0.8179
  778THF    H1011251   3.441   1.429   1.859  1.1911 -1.4842 -1.1423
  778THF    H1111252   3.289   1.415   1.760 -1.2220  2.0387 -3.4249
  778THF    H1211253   3.328   1.653   1.738 -1.3282 -2.9955  3.2115
  778THF    H1311254   3.509   1.623   1.739  0.6322  1.1474 -1.8115
  779THF     O111255   1.740   0.041   4.776  0.3389 -0.0659  0.3718
  779THF     C211256   1.660   0.002   4.882  0.7456  0.7998 -0.7138
  779THF     C311257   1.874  -0.002   4.791 -0.1501 -0.0783  0.0531
  779THF     H411258   1.577  -0.061   4.850  0.2836  0.5830  0.8265
  779THF     H511259   1.617   0.089   4.932 -0.4851 -0.8013  1.1482
  779THF     H611260   1.922  -0.015   4.694  0.5284  1.2334  0.1984
  779THF     H711261   1.927   0.078   4.843 -2.1761  0.1291  1.9287
  779THF     C811262   1.868  -0.121   4.887  0.3009  0.0572 -0.0305
  779THF     C911263   1.753  -0.079   4.977  0.4852 -0.2695 -0.4127
  779THF    H1011264   1.963  -0.146   4.934  0.6001  1.2692  0.0451
  779THF    H1111265   1.838  -0.210   4.832  0.6699  0.0697 -0.2527
  779THF    H1211266   1.721  -0.178   5.009 -0.1320  0.0255 -0.1100
  779THF    H1311267   1.790  -0.012   5.054 -1.1436  0.3262 -0.1104
  780THF     O111268   4.475   4.050   4.214  0.0164 -0.0084 -0.1815
  780THF     C211269   4.437   3.992   4.342  0.3235  0.4385  0.4083
  780THF     C311270   4.600   3.997   4.178 -0.6737 -0.1743  0.2949
  780THF     H411271   4.389   3.895   4.327  2.6119 -0.7742  0.5279
  780THF     H511272   4.368   4.055   4.398 -0.9443 -0.7769  0.2658
  780THF     H611273   4.598   3.943   4.084 -2.5239 -1.7709  1.1824
  780THF     H711274   4.667   4.082   4.165 -0.8194 -0.2638 -1.1620
  780THF     C811275   4.653   3.908   4.281 -0.5108  0.9484  0.0398
  780THF     C911276   4.569   3.957   4.405 -0.0315  0.7237  0.3935
  780THF    H1011277   4.758   3.927   4.300 -0.4579  0.9745 -0.2747
  780THF    H1111278   4.629   3.803   4.263  0.2825  0.6314  0.7762
  780THF    H1211279   4.555   3.895   4.494 -1.4124 -0.7181 -0.7602
  780THF    H1311280   4.614   4.051   4.436  1.1149 -0.1663  1.5659
  781THF     O111281   3.666   1.828   4.939  0.4756 -0.4700 -0.5258
  781THF     C211282   3.730   1.912   4.841  0.1531 -0.3072 -0.8158
  781THF     C311283   3.605   1.914   5.030  0.2689  0.3886  0.1260
  781THF     H411284   3.663   1.958   4.769 -0.2408  0.8715  0.2820
  781THF     H511285   3.811   1.862   4.787  0.1567 -0.7621 -0.3990
  781THF     H611286   3.500   1.936   5.008 -0.3700 -0.2219  2.3010
  781THF     H711287   3.602   1.867   5.128  0.4232 -4.3396 -1.8756
  781THF     C811288   3.674   2.049   5.032  0.9855  0.0715  0.1250
  781THF     C911289   3.784   2.020   4.935 -0.1078 -0.1874  0.3773
  781THF    H1011290   3.694   2.089   5.131  0.1677  2.5913 -0.6622
  781THF    H1111291   3.618   2.129   4.984  1.9334 -0.2322 -1.5672
  781THF    H1211292   3.820   2.106   4.878 -0.9912  0.3223  0.5725
  781THF    H1311293   3.864   1.976   4.995 -1.0828 -0.0394  1.8265
  782THF     O111294   4.648   4.442   4.810 -0.1627  0.4430  0.7229
  782THF     C211295   4.666   4.472   4.673  1.0022 -0.4717 -0.7767
  782THF     C311296   4.553   4.344   4.817 -0.3941  0.3844  0.0580
  782THF     H411297   4.751   4.534   4.646 -0.3556  0.8310 -2.3085
  782THF     H511298   4.581   4.534   4.644 -1.2079 -2.3772  1.1849
  782THF     H611299   4.544   4.283   4.906  0.4286 -1.8449 -1.3023
  782THF     H711300   4.459   4.396   4.796  0.5504  2.2832  0.2999
  782THF     C811301   4.598   4.253   4.701  0.7787  0.8468 -0.0191
  782THF     C911302   4.682   4.338   4.608 -0.6165 -0.1531 -0.2774
  782THF    H1011303   4.506   4.228   4.647  2.0823 -1.6465 -1.2786
  782THF    H1111304   4.648   4.162   4.732  0.0131 -0.0549 -1.3416
  782THF    H1211305   4.788   4.319   4.623 -0.1380  1.1678 -1.7735
  782THF    H1311306   4.661   4.348   4.502  0.3145  0.9300 -0.3834
  783THF     O111307   2.624   1.399   2.803 -0.0069  0.2204  0.2772
  783THF     C211308   2.722   1.383   2.699 -0.0786 -0.0407 -0.1069
  783THF     C311309   2.607   1.277   2.870 -0.0748 -0.5560 -0.0158
  783THF     H411310   2.816   1.415   2.744  0.0401 -0.6182  0.0720
  783THF     H511311   2.695   1.432   2.605 -0.8996  1.0280  0.6763
  783THF     H611312   2.649   1.303   2.968 -0.3437  2.2536 -0.5863
  783THF     H711313   2.510   1.230   2.879 -0.4922  0.4216  0.8074
  783THF     C811314   2.700   1.172   2.816 -0.1654  0.2057 -0.6996
  783THF     C911315   2.735   1.230   2.684 -0.0977 -0.1554  0.2433
  783THF    H1011316   2.665   1.069   2.822  0.8704 -0.1035  0.6795
  783THF    H1111317   2.790   1.170   2.878 -0.5651 -0.6077 -0.1254
  783THF    H1211318   2.830   1.188   2.652 -0.5172 -0.3241 -0.8091
  783THF    H1311319   2.662   1.199   2.609  0.4744 -0.3466 -0.2387
  784THF     O111320   5.499   0.669   3.971  0.0964 -0.0002 -0.5591
  784THF     C211321   5.463   0.585   4.085 -0.0672 -0.4846  0.2895
  784THF     C311322   5.580   0.586   3.886  0.1275 -0.0279  0.3780
  784THF     H411323   5.361   0.607   4.118  0.4888  1.7817  0.6809
  784THF     H511324   5.535   0.601   4.165 -0.0683 -0.0858  0.2123
  784THF     H611325   5.547   0.595   3.782 -2.1476  0.2163  1.0707
  784THF     H711326   5.681   0.627   3.882  0.9687 -1.9288  1.0285
  784THF     C811327   5.589   0.449   3.944 -0.1016  0.1298  0.1377
  784THF     C911328   5.470   0.442   4.035  0.2235  0.4203  0.2053
  784THF    H1011329   5.676   0.442   4.009 -1.0360 -0.9570  1.3517
  784THF    H1111330   5.580   0.364   3.875  1.2183 -1.3830  1.7375
  784THF    H1211331   5.392   0.398   3.973  0.7365  0.7084 -0.6594
  784THF    H1311332   5.485   0.376   4.120 -0.2614  0.7812  0.5762
  785THF     O111333   1.212   1.080   2.251  0.4714 -0.3150  0.1845
  785THF     C211334   1.341   1.117   2.297  0.3802  0.0317 -0.4254
  785THF     C311335   1.225   1.037   2.118 -0.1242  0.4179  0.2559
  785THF     H411336   1.347   1.123   2.405 -0.0438  1.9304 -0.4677
  785THF     H511337   1.365   1.218   2.264  0.5208 -0.1785 -0.9949
  785THF     H611338   1.148   0.964   2.091  0.2310 -0.6749  2.0327
  785THF     H711339   1.230   1.121   2.050  0.0322 -0.9209 -1.4466
  785THF     C811340   1.358   0.960   2.117 -0.2982  0.2259  0.2180
  785THF     C911341   1.436   1.012   2.239  0.4764  0.1289  0.5931
  785THF    H1011342   1.421   0.972   2.028  0.7684 -0.9123  0.7848
  785THF    H1111343   1.339   0.853   2.128 -1.0217  0.3738  0.4145
  785THF    H1211344   1.441   0.944   2.324 -0.0062  0.1012  0.6052
  785THF    H1311345   1.538   1.040   2.214 -0.3489  2.5437 -0.4151
  786THF     O111346   2.694   1.660   2.348  0.0170  0.5206  0.7659
  786THF     C211347   2.822   1.639   2.300 -0.5013  0.3641 -0.0264
  786THF     C311348   2.641   1.771   2.285 -0.7127 -0.1880 -0.0755
  786THF     H411349   2.859   1.540   2.325 -3.0775 -0.3081  1.4353
  786THF     H511350   2.898   1.706   2.340  1.7400 -0.4352 -2.6013
  786THF     H611351   2.533   1.759   2.278 -0.5701 -0.6181 -3.2768
  786THF     H711352   2.669   1.864   2.334 -1.2377  0.0775 -0.2748
  786THF     C811353   2.683   1.755   2.138 -0.7779  0.5093  0.1782
  786THF     C911354   2.818   1.685   2.144  0.0541 -0.5784  0.0623
  786THF    H1011355   2.692   1.849   2.084 -1.5106 -0.0514 -0.9409
  786THF    H1111356   2.606   1.694   2.092 -0.7419  1.6473 -1.5020
  786THF    H1211357   2.821   1.596   2.082  0.4669  0.1707 -1.0181
  786THF    H1311358   2.895   1.759   2.126 -2.4089  2.1604  0.1074
  787THF     O111359   0.246   1.435   0.888  0.0589 -0.3821  0.7651
  787THF     C211360   0.253   1.374   0.759 -0.1551 -0.0468  0.2563
  787THF     C311361   0.225   1.570   0.863 -0.9052  0.2525 -0.5474
  787THF     H411362   0.243   1.265   0.757 -1.0224  0.0273 -1.2947
  787THF     H511363   0.355   1.389   0.721 -0.9274  2.4404 -1.0457
  787THF     H611364   0.187   1.620   0.952  0.0276 -1.2925  0.7781
  787THF     H711365   0.319   1.622   0.844 -0.7419  0.0170 -0.3953
  787THF     C811366   0.153   1.597   0.735  0.2656 -0.1773  1.5595
  787THF     C911367   0.149   1.454   0.676  0.5742 -0.2955 -0.1318
  787THF    H1011368   0.205   1.669   0.673  0.9927 -0.9325  1.2768
  787THF    H1111369   0.052   1.631   0.757 -0.1065 -1.3620  1.7671
  787THF    H1211370   0.051   1.410   0.695  0.7309  0.2067  2.0948
  787THF    H1311371   0.165   1.445   0.568  2.5466  0.2634  0.0784
  788THF     O111372   4.415   1.010   0.075  0.2939  0.5414  0.0878
  788THF     C211373   4.431   0.893   0.149  0.4388  0.1855 -0.4581
  788THF     C311374   4.541   1.076   0.092  0.0039 -0.8486  0.1607
  788THF     H411375   4.498   0.823   0.100 -1.7613 -3.0487  0.8057
  788THF     H511376   4.337   0.838   0.153  0.6575 -0.7012 -4.1684
  788THF     H611377   4.617   1.039   0.024 -0.9695  0.8785 -2.0406
  788THF     H711378   4.527   1.183   0.074 -1.7287 -1.3847 -2.2535
  788THF     C811379   4.582   1.050   0.236 -0.5736  0.4768 -0.6384
  788THF     C911380   4.491   0.940   0.282  0.0778 -0.4597  0.0497
  788THF    H1011381   4.557   1.133   0.301  0.6509 -0.6791  1.4337
  788THF    H1111382   4.688   1.026   0.244 -0.5775 -0.1715 -2.1125
  788THF    H1211383   4.531   0.864   0.349 -0.5116  0.9412  2.0923
  788THF    H1311384   4.415   0.986   0.344  0.6931  1.5569 -0.6078
  789THF     O111385   1.301   4.687   1.635 -0.5993  0.4198  0.2980
  789THF     C211386   1.441   4.691   1.644  0.3582  0.4423  0.6873
  789THF     C311387   1.263   4.570   1.712 -0.3369 -0.0750 -0.1567
  789THF     H411388   1.475   4.793   1.621 -1.0420  1.4231  2.6706
  789THF     H511389   1.490   4.627   1.571 -0.2893  0.0964  0.5518
  789THF     H611390   1.173   4.584   1.772 -0.6708  1.0382 -0.8891
  789THF     H711391   1.227   4.495   1.640  0.4762  0.6281 -1.3300
  789THF     C811392   1.385   4.524   1.792  0.2872  0.0250 -0.4695
  789THF     C911393   1.476   4.647   1.788  0.0278  0.5307 -0.5165
  789THF    H1011394   1.434   4.431   1.762  2.7523  1.2018 -0.4084
  789THF    H1111395   1.357   4.502   1.894 -2.0196  0.4483 -0.9606
  789THF    H1211396   1.445   4.723   1.860  0.5793  0.0605  0.2217
  789THF    H1311397   1.583   4.627   1.795 -0.0910  0.1057  0.1208
  790THF     O111398   4.571   0.175   5.379 -0.7317  0.0982  0.2835
  790THF     C211399   4.576   0.322   5.399  0.6812  0.5539  0.2735
  790THF     C311400   4.654   0.107   5.471 -0.6398  0.1422  0.2707
  790THF     H411401   4.498   0.355   5.467  1.0465  1.8713  0.0774
  790THF     H511402   4.561   0.366   5.300 -0.8363 -0.1996  0.1264
  790THF     H611403   4.592   0.063   5.549 -1.4002  0.9784  0.1495
  790THF     H711404   4.711   0.031   5.419  0.0686  0.2645  0.8462
  790THF     C811405   4.757   0.214   5.517 -0.4042  0.6203 -0.8716
  790THF     C911406   4.720   0.342   5.445  0.3043 -0.7034  0.0064
  790THF    H1011407   4.858   0.181   5.496 -0.6838  0.3531 -1.8423
  790THF    H1111408   4.739   0.235   5.622  0.6049  1.2943 -0.8166
  790THF    H1211409   4.715   0.428   5.511  1.8208 -2.4054  2.5033
  790THF    H1311410   4.789   0.371   5.365  1.3606  0.0397  1.1516
  791THF     O111411   1.201   1.728   5.017 -0.0459  0.1911  0.6314
  791THF     C211412   1.278   1.732   4.900 -0.5152 -0.2136  0.0849
  791THF     C311413   1.088   1.817   5.008  1.2415 -0.0968  0.9668
  791THF     H411414   1.357   1.657   4.887 -1.1694 -0.7635 -0.8983
  791THF     H511415   1.323   1.831   4.888 -1.0737 -0.2557 -3.5400
  791THF     H611416   1.005   1.783   5.071 -0.1226  0.5032 -0.4422
  791THF     H711417   1.107   1.922   5.028  1.1826  0.1208 -0.0943
  791THF     C811418   1.046   1.784   4.865  0.4751  0.5035 -0.6064
  791THF     C911419   1.169   1.719   4.797  0.5329 -0.0537 -0.1467
  791THF    H1011420   1.011   1.872   4.811 -2.3667 -0.8627 -1.2192
  791THF    H1111421   0.961   1.715   4.858  0.3347  0.5939  0.1608
  791THF    H1211422   1.159   1.612   4.778  1.0528 -0.1036 -0.1372
  791THF    H1311423   1.205   1.772   4.710 -1.5155 -0.1007 -1.0782
  792THF     O111424   2.787   5.468   3.434  0.7732 -0.0709  0.1176
  792THF     C211425   2.656   5.478   3.481 -0.5415 -0.5390 -0.1967
  792THF     C311426   2.802   5.573   3.338 -0.4892 -0.2057  0.3068
  792THF     H411427   2.642   5.442   3.583 -2.8661  2.2462  0.6275
  792THF     H511428   2.593   5.411   3.423 -0.1085 -0.4405 -0.7907
  792THF     H611429   2.905   5.595   3.310 -0.4478 -0.2946  0.3900
  792THF     H711430   2.735   5.557   3.253 -0.6869 -0.1338  0.4501
  792THF     C811431   2.753   5.697   3.411 -0.2859 -0.1875  0.6987
  792THF     C911432   2.626   5.628   3.463  1.0348 -0.1964  0.2105
  792THF    H1011433   2.746   5.784   3.346  0.0964  0.8361  1.9753
  792THF    H1111434   2.820   5.739   3.486  0.6264  1.8609 -1.1410
  792THF    H1211435   2.585   5.670   3.555  1.0863  0.8339 -0.2139
  792THF    H1311436   2.548   5.642   3.389 -0.7401  0.2485  2.0569
  793THF     O111437   0.547   2.581   2.027 -0.3403  0.1846 -0.4198
  793THF     C211438   0.601   2.651   1.913  0.3574  0.6955 -0.2867
  793THF     C311439   0.413   2.558   2.005 -0.1590  0.2754  0.1928
  793THF     H411440   0.709   2.646   1.902  0.2444 -0.3867 -1.1863
  793THF     H511441   0.560   2.752   1.910  0.1821  0.6204 -0.5122
  793THF     H611442   0.373   2.474   2.061 -0.8702 -0.2666 -1.0763
  793THF     H711443   0.346   2.641   2.028  0.1375 -0.1702  3.0064
  793THF     C811444   0.392   2.522   1.860  0.1827  0.2439  0.0877
  793THF     C911445   0.518   2.586   1.792 -0.0815  0.1867  0.3280
  793THF    H1011446   0.307   2.575   1.816 -0.0790 -1.0739 -1.0941
  793THF    H1111447   0.389   2.413   1.855 -2.1806  0.3051 -1.4031
  793THF    H1211448   0.591   2.518   1.748 -0.3390  0.6667 -0.8686
  793THF    H1311449   0.500   2.663   1.718  1.1645  2.1342  1.9185
  794THF     O111450   0.530   4.007   0.937 -0.0267 -0.3481 -0.2635
  794THF     C211451   0.500   3.954   0.804  0.0735  0.1400  0.2157
  794THF     C311452   0.663   3.983   0.974  0.1405 -0.1846 -0.0610
  794THF     H411453   0.412   4.011   0.774 -2.9972 -2.1570  4.0894
  794THF     H511454   0.473   3.849   0.802 -0.5646  0.3055 -0.9928
  794THF     H611455   0.698   4.046   1.055 -1.1135  3.4558 -2.1181
  794THF     H711456   0.683   3.877   0.992 -2.1169 -0.5890  0.3480
  794THF     C811457   0.740   4.015   0.842  0.0568 -0.3441  0.1685
  794THF     C911458   0.639   3.984   0.735  0.7605  0.1808  0.1555
  794THF    H1011459   0.828   3.953   0.822 -0.3954 -0.8020 -0.4240
  794THF    H1111460   0.760   4.122   0.832 -1.3255  0.1739  2.3346
  794THF    H1211461   0.630   4.062   0.659  1.4644  0.0354 -0.0889
  794THF    H1311462   0.675   3.897   0.679  0.7423  0.8527 -0.9318
  795THF     O111463   3.019   4.722   4.479  0.1104  0.8212 -0.2756
  795THF     C211464   3.085   4.833   4.425  0.0736  0.7614 -0.8002
  795THF     C311465   2.966   4.642   4.376  0.4637  0.0866  0.0249
  795THF     H411466   3.154   4.865   4.503 -1.0525  0.5399  0.3219
  795THF     H511467   3.011   4.908   4.395 -1.5425 -0.3308  0.2817
  795THF     H611468   2.955   4.542   4.417 -2.4169  0.4749  0.4021
  795THF     H711469   2.864   4.674   4.350 -0.0692  0.0585  1.9724
  795THF     C811470   3.063   4.673   4.257  0.1309  0.6593  0.5300
  795THF     C911471   3.158   4.770   4.310  0.3975 -0.0652 -0.1341
  795THF    H1011472   3.007   4.726   4.180  1.0414  2.8880  1.3423
  795THF    H1111473   3.124   4.593   4.214  0.0129  0.5305  0.6029
  795THF    H1211474   3.249   4.739   4.361 -0.2627  1.1155  1.8992
  795THF    H1311475   3.189   4.841   4.234 -0.1226 -0.2962 -0.5731
  796THF     O111476   0.881   3.596   2.759 -0.7528 -0.9287 -0.3370
  796THF     C211477   0.904   3.475   2.823 -0.4307 -0.1006  0.7084
  796THF     C311478   0.740   3.612   2.750  0.2948 -0.1386  0.4648
  796THF     H411479   1.001   3.468   2.871 -0.4342 -1.4735  0.5405
  796THF     H511480   0.883   3.398   2.749  0.9894 -2.4475  2.5762
  796THF     H611481   0.716   3.712   2.785  0.2881 -0.7612  2.3268
  796THF     H711482   0.708   3.608   2.645  0.8604 -1.6962  0.3263
  796THF     C811483   0.679   3.517   2.851  0.1508 -0.1469 -0.0728
  796THF     C911484   0.798   3.466   2.925 -0.0019  0.3370 -0.8789
  796THF    H1011485   0.640   3.436   2.790 -2.6219 -0.3687  1.8251
  796THF    H1111486   0.591   3.543   2.910 -0.2610 -2.6678  0.5424
  796THF    H1211487   0.829   3.523   3.013 -1.4345 -0.8527  0.4586
  796THF    H1311488   0.791   3.363   2.961  0.9207  1.5591  3.4401
  797THF     O111489   4.709   4.487   1.328 -0.0337 -0.3209 -0.0308
  797THF     C211490   4.736   4.348   1.311  0.5676  0.5505 -0.2817
  797THF     C311491   4.621   4.504   1.440  0.7643  0.2266 -0.0213
  797THF     H411492   4.818   4.326   1.378 -0.2832 -1.4665  0.1611
  797THF     H511493   4.787   4.328   1.217  0.4086  0.0974 -0.2724
  797THF     H611494   4.678   4.519   1.532  1.3785 -0.0281 -0.3601
  797THF     H711495   4.556   4.591   1.430  1.5430  0.9138  0.7641
  797THF     C811496   4.535   4.376   1.442 -0.0597  0.1325 -0.2005
  797THF     C911497   4.591   4.296   1.330 -0.2037 -0.3926  0.0832
  797THF    H1011498   4.430   4.401   1.424 -0.5381 -0.5231  1.5060
  797THF    H1111499   4.535   4.329   1.540  1.6518 -1.7702 -1.0345
  797THF    H1211500   4.592   4.189   1.352 -0.2247 -0.2011  1.0684
  797THF    H1311501   4.539   4.308   1.234 -1.1074 -0.6269  0.5255
  798THF     O111502   2.137   5.210   3.263  0.0160 -0.0659  0.6323
  798THF     C211503   2.237   5.305   3.228  0.4531  0.0064  0.0603
  798THF     C311504   2.071   5.169   3.147 -0.0299  0.6265  0.5240
  798THF     H411505   2.329   5.253   3.199  1.6819  1.2660  1.4620
  798THF     H511506   2.253   5.387   3.298 -1.3094 -0.2119  0.7667
  798THF     H611507   2.139   5.098   3.101 -0.3853 -0.0467  1.0276
  798THF     H711508   1.978   5.115   3.162  1.9243 -2.6372  1.8213
  798THF     C811509   2.057   5.293   3.070  0.3348 -0.9083  0.1890
  798THF     C911510   2.186   5.364   3.099  0.2724 -0.0945 -0.0583
  798THF    H1011511   1.967   5.344   3.104  1.0289 -0.4626  1.4109
  798THF    H1111512   2.057   5.279   2.961  1.9627 -1.0387  0.1761
  798THF    H1211513   2.267   5.360   3.026  1.2791  0.0557  1.0211
  798THF    H1311514   2.163   5.469   3.121  1.2109  0.3669 -1.1731
  799THF     O111515   2.021   1.730   2.168 -0.2318  0.3172 -0.0732
  799THF     C211516   1.996   1.606   2.093  0.1726 -0.2680  0.4841
  799THF     C311517   2.105   1.696   2.279  0.7302 -0.3329 -0.4910
  799THF     H411518   2.074   1.576   2.024  1.1690  2.4955  0.2678
  799THF     H511519   1.900   1.591   2.044 -0.8863 -1.6783  2.8180
  799THF     H611520   2.209   1.682   2.248  1.0735 -0.5237  0.6690
  799THF     H711521   2.104   1.779   2.350 -4.4258  0.2539 -0.8823
  799THF     C811522   2.044   1.575   2.339  0.3116 -0.1175  0.4293
  799THF     C911523   1.983   1.509   2.211  0.3254 -0.3632  0.0093
  799THF    H1011524   1.970   1.599   2.415  0.1373 -4.3750  1.8838
  799THF    H1111525   2.112   1.510   2.394 -0.8475 -0.7749  1.1107
  799THF    H1211526   2.032   1.413   2.192  1.0277  0.0466 -0.2839
  799THF    H1311527   1.880   1.476   2.227  0.4120 -0.5365  0.2244
  800THF     O111528   4.622   0.946   4.756  0.4379 -0.2090 -0.3054
  800THF     C211529   4.560   0.830   4.704 -0.3944  0.0667  0.1720
  800THF     C311530   4.526   1.006   4.837  0.3890  0.0997  0.7152
  800THF     H411531   4.558   0.738   4.763 -2.8895 -0.6890 -0.9409
  800THF     H511532   4.621   0.807   4.617 -0.3958 -2.0474  0.6636
  800THF     H611533   4.551   0.982   4.941  1.7386 -1.2485  0.1197
  800THF     H711534   4.522   1.115   4.836  0.0162  0.0844  0.0530
  800THF     C811535   4.392   0.944   4.796 -0.4068 -0.6088  0.4208
  800THF     C911536   4.419   0.874   4.669 -1.0262  0.1740 -0.1862
  800THF    H1011537   4.310   1.015   4.782 -0.4621 -0.5092  1.1974
  800THF    H1111538   4.346   0.884   4.874 -1.9757  0.6945  0.5613
  800THF    H1211539   4.366   0.779   4.654  1.5385 -1.4781  0.4562
  800THF    H1311540   4.408   0.943   4.586  1.5467  0.7035 -0.1607
  801THF     O111541   3.353   2.204   3.235  0.2742 -0.2828 -0.1081
  801THF     C211542   3.485   2.249   3.212  0.1872  0.5163 -0.2149
  801THF     C311543   3.266   2.316   3.272 -0.6844  0.5410  0.0837
  801THF     H411544   3.546   2.169   3.172  2.5072  1.8506  0.4542
  801THF     H511545   3.529   2.271   3.309 -2.4923  2.8477  0.6253
  801THF     H611546   3.173   2.303   3.217 -0.3757 -0.4909 -0.2236
  801THF     H711547   3.264   2.326   3.380  1.2988 -0.7617  0.2907
  801THF     C811548   3.342   2.433   3.199 -0.2529  0.2127 -0.2544
  801THF     C911549   3.462   2.372   3.132  0.2954 -0.9257 -0.0748
  801THF    H1011550   3.388   2.512   3.258 -0.0994  0.8429 -1.1971
  801THF    H1111551   3.272   2.478   3.128  0.3526 -1.2853 -1.8767
  801THF    H1211552   3.436   2.343   3.031  2.0597 -0.9665 -0.5531
  801THF    H1311553   3.555   2.430   3.138  0.0698 -0.6919  1.8476
  802THF     O111554   4.331   4.435   4.029 -0.7832 -0.1931  0.0172
  802THF     C211555   4.367   4.505   3.911  0.5450 -0.3336 -0.3182
  802THF     C311556   4.391   4.300   4.016 -0.0825  0.1823 -0.1198
  802THF     H411557   4.373   4.613   3.923 -1.3073  0.0961 -2.4309
  802THF     H511558   4.279   4.500   3.847  1.7624  2.0008 -2.3758
  802THF     H611559   4.422   4.265   4.115  0.6436 -1.5668 -0.9271
  802THF     H711560   4.312   4.234   3.981 -1.3239  1.6076 -0.0957
  802THF     C811561   4.503   4.305   3.913  0.1980 -0.1902  0.1663
  802THF     C911562   4.491   4.438   3.849  0.4611  0.3850  0.6119
  802THF    H1011563   4.479   4.227   3.840 -0.1449  1.2456 -1.3147
  802THF    H1111564   4.600   4.273   3.951  0.3445 -0.8918 -0.7670
  802THF    H1211565   4.575   4.505   3.867 -0.3992  1.2881  1.3498
  802THF    H1311566   4.474   4.426   3.742  0.5774 -2.1606  0.8338
  803THF     O111567   2.114   4.510   0.175  0.8591 -0.2855 -0.7278
  803THF     C211568   2.212   4.587   0.098 -0.5428  0.4434  0.4016
  803THF     C311569   2.182   4.423   0.260  0.1152 -0.5824  0.5488
  803THF     H411570   2.199   4.694   0.112  0.7342  0.5170  1.1859
  803THF     H511571   2.196   4.573  -0.009  3.1987 -1.2174 -0.1145
  803THF     H611572   2.192   4.463   0.361 -3.0002 -1.7428  1.4487
  803THF     H711573   2.136   4.325   0.271  0.4220 -0.6679  1.1671
  803THF     C811574   2.317   4.398   0.190  0.1228 -0.1237 -1.0118
  803THF     C911575   2.352   4.537   0.139  0.6422 -0.3340 -0.3822
  803THF    H1011576   2.305   4.326   0.109  1.0747 -1.1808 -0.2504
  803THF    H1111577   2.389   4.342   0.250 -2.2309 -0.4185  1.7474
  803THF    H1211578   2.404   4.593   0.217 -0.3373 -0.3216  0.2704
  803THF    H1311579   2.415   4.533   0.050  0.5691  2.8158 -0.7035
  804THF     O111580   4.537   1.469   2.267  0.3913 -0.2322  0.3423
  804THF     C211581   4.509   1.572   2.169 -0.5997  0.4347 -0.1044
  804THF     C311582   4.452   1.356   2.236  0.5498 -0.7141 -0.1012
  804THF     H411583   4.595   1.629   2.136 -0.5396  1.4087  1.5888
  804THF     H511584   4.435   1.637   2.217 -1.5928 -1.5846  1.2787
  804THF     H611585   4.473   1.263   2.287 -1.7882 -1.2583 -0.0270
  804THF     H711586   4.353   1.371   2.280  0.1076 -1.4788 -0.7982
  804THF     C811587   4.455   1.354   2.082 -0.2709 -0.3958 -0.0815
  804THF     C911588   4.455   1.507   2.044  0.2837  0.1263 -0.0372
  804THF    H1011589   4.367   1.305   2.041 -0.9291  1.1827 -0.6281
  804THF    H1111590   4.550   1.307   2.058 -0.0042 -1.4596  2.6851
  804THF    H1211591   4.513   1.528   1.954 -1.9551  2.2078 -1.1410
  804THF    H1311592   4.353   1.543   2.028 -0.8522 -2.0172  1.8447
  805THF     O111593   1.080   2.113   5.198 -0.1626  0.3291  0.8186
  805THF     C211594   1.144   2.075   5.320 -0.3038 -0.1883  0.1109
  805THF     C311595   1.158   2.220   5.136 -0.1206 -0.2876 -0.7923
  805THF     H411596   1.126   1.973   5.355  0.7282 -0.5851 -0.4615
  805THF     H511597   1.127   2.138   5.408  4.2599  0.0795  1.0788
  805THF     H611598   1.120   2.227   5.034 -1.3777 -1.9544 -0.4826
  805THF     H711599   1.149   2.317   5.185  0.3166 -0.4878 -0.3080
  805THF     C811600   1.306   2.176   5.153 -0.1272 -0.1808  0.1462
  805THF     C911601   1.293   2.092   5.281 -1.5550  0.3366  0.3761
  805THF    H1011602   1.361   2.267   5.177 -1.7676  0.6782  0.8155
  805THF    H1111603   1.343   2.120   5.067  0.8124  0.2934  0.2345
  805THF    H1211604   1.335   1.992   5.277 -0.3312  0.8047  1.0033
  805THF    H1311605   1.353   2.138   5.359  1.6396  0.4950 -2.0059
  806THF     O111606   2.232   2.285   2.813  0.5929 -0.2013 -0.2750
  806THF     C211607   2.313   2.384   2.750  0.0959  0.2462  0.6605
  806THF     C311608   2.271   2.156   2.754  0.1490 -0.1730 -0.1159
  806THF     H411609   2.340   2.466   2.817  0.2657  1.4562 -0.8428
  806THF     H511610   2.253   2.422   2.668  0.7077 -1.1288 -0.4657
  806THF     H611611   2.256   2.068   2.818  2.2740 -0.9305 -0.5941
  806THF     H711612   2.228   2.138   2.656  1.7026  0.0708 -0.8634
  806THF     C811613   2.418   2.178   2.748 -0.0047  0.2009 -0.2117
  806THF     C911614   2.433   2.313   2.694 -0.1453 -0.0027 -0.3548
  806THF    H1011615   2.471   2.100   2.693  3.4218 -0.3296  3.3977
  806THF    H1111616   2.461   2.163   2.848 -0.7849 -2.5999 -0.2141
  806THF    H1211617   2.531   2.347   2.728  0.5658 -0.5974 -1.7196
  806THF    H1311618   2.426   2.323   2.586  0.3309 -0.5169 -0.4388
  807THF     O111619   5.336   3.224   0.049 -0.1873  0.2013  0.4585
  807THF     C211620   5.211   3.242   0.101  0.2954  0.7837 -0.0647
  807THF     C311621   5.319   3.163  -0.085 -0.0075 -0.2680  0.4501
  807THF     H411622   5.174   3.334   0.055  0.6843 -0.5484 -3.2956
  807THF     H511623   5.208   3.252   0.209 -0.9782  0.5999 -0.0648
  807THF     H611624   5.292   3.239  -0.159  2.4835  0.3677  0.1071
  807THF     H711625   5.404   3.102  -0.116 -1.2629 -2.4158  1.0685
  807THF     C811626   5.206   3.073  -0.053  0.5380  0.3335 -0.0436
  807THF     C911627   5.138   3.111   0.072  0.2789  0.0586 -0.7707
  807THF    H1011628   5.241   2.970  -0.050  0.7521  0.2680 -2.5650
  807THF    H1111629   5.138   3.072  -0.138  1.9051  2.6925 -1.2502
  807THF    H1211630   5.033   3.129   0.049  0.5945 -0.5895 -2.9331
  807THF    H1311631   5.145   3.035   0.149 -1.5119  0.7097  0.0992
  808THF     O111632   5.479   1.175   2.287 -0.2293  0.0186 -0.2921
  808THF     C211633   5.365   1.187   2.369  0.4125  0.2243  0.1777
  808THF     C311634   5.554   1.061   2.328 -0.2844  0.2735  0.5633
  808THF     H411635   5.286   1.239   2.315 -3.2140 -3.9739  0.9267
  808THF     H511636   5.388   1.237   2.463 -3.6204 -1.0676  2.0761
  808THF     H611637   5.571   0.997   2.242 -2.7757  1.1274 -0.6666
  808THF     H711638   5.642   1.089   2.385 -1.1089  1.1798  1.4325
  808THF     C811639   5.466   0.988   2.425 -0.4932 -0.6328  0.8016
  808THF     C911640   5.324   1.048   2.405  0.8400  0.3515  0.3098
  808THF    H1011641   5.507   0.988   2.526  2.3709 -0.7309 -0.2940
  808THF    H1111642   5.465   0.880   2.407  0.7101 -1.1092  3.2241
  808THF    H1211643   5.263   1.003   2.327 -0.9372 -0.2420  1.9636
  808THF    H1311644   5.270   1.033   2.498 -0.7072 -0.2284 -0.6414
  809THF     O111645   1.624   1.208   5.206  0.6450 -0.0736 -0.4433
  809THF     C211646   1.483   1.239   5.189  0.0148  0.6305 -0.4931
  809THF     C311647   1.701   1.231   5.096 -0.7586 -0.2770  0.4324
  809THF     H411648   1.458   1.281   5.287 -0.8221 -0.7463 -0.0974
  809THF     H511649   1.412   1.160   5.164 -0.0197  0.6157 -0.3519
  809THF     H611650   1.801   1.255   5.130 -0.8197  1.0338 -0.2345
  809THF     H711651   1.699   1.142   5.034 -1.4274  0.7475 -1.0844
  809THF     C811652   1.621   1.353   5.033 -0.5230 -0.1434 -1.0316
  809THF     C911653   1.474   1.338   5.071 -0.6202  0.5754  0.1207
  809THF    H1011654   1.652   1.359   4.929  1.3452 -1.8165 -0.6214
  809THF    H1111655   1.660   1.444   5.078  1.1968 -0.9840 -0.7530
  809THF    H1211656   1.430   1.432   5.106 -2.0564  0.2583 -0.7570
  809THF    H1311657   1.427   1.291   4.985  2.1746 -1.6981 -0.3181
  810THF     O111658   2.198   5.166   0.797  0.0007  0.2733  0.2481
  810THF     C211659   2.106   5.080   0.728  0.0397  0.3448  0.0710
  810THF     C311660   2.320   5.115   0.747 -0.8351 -0.1902  0.0359
  810THF     H411661   2.109   5.117   0.626  0.2237 -1.0276 -0.4350
  810THF     H511662   2.001   5.086   0.756 -0.1048 -0.0663 -0.3724
  810THF     H611663   2.344   5.162   0.652 -2.7048  1.7148  0.4255
  810THF     H711664   2.396   5.142   0.821 -0.1552 -2.0660  0.0787
  810THF     C811665   2.311   4.960   0.730  0.1582 -0.0183  0.0081
  810THF     C911666   2.159   4.937   0.731 -0.6475 -0.5310  0.0793
  810THF    H1011667   2.354   4.908   0.816 -2.4273  0.3826  1.6326
  810THF    H1111668   2.358   4.917   0.641 -1.1865 -1.7152  0.0687
  810THF    H1211669   2.135   4.893   0.634  0.4230  0.9886 -0.9254
  810THF    H1311670   2.140   4.874   0.818  2.1136  0.8162  1.7926
  811THF     O111671   2.178   0.830   0.548  0.5619  0.0613 -0.2748
  811THF     C211672   2.043   0.859   0.503  0.5448 -0.7171  0.5774
  811THF     C311673   2.171   0.708   0.617 -1.3577  0.0216 -0.4735
  811THF     H411674   2.045   0.848   0.394  3.3707  2.6611  0.0862
  811THF     H511675   2.020   0.964   0.521  2.3684 -0.3038  0.7180
  811THF     H611676   2.192   0.633   0.541  0.3287  0.5201 -0.5335
  811THF     H711677   2.248   0.718   0.693 -1.1477 -1.1378 -0.5222
  811THF     C811678   2.035   0.696   0.677 -0.8881 -0.0603 -0.6287
  811THF     C911679   1.950   0.765   0.577  0.4279 -0.3321 -0.2649
  811THF    H1011680   2.037   0.738   0.778 -0.0340 -0.1104 -0.6181
  811THF    H1111681   1.999   0.596   0.699 -1.8608  0.0845 -1.4596
  811THF    H1211682   1.910   0.694   0.505  0.0196 -0.6236  0.2409
  811THF    H1311683   1.874   0.833   0.617  0.9915  0.0375  0.1994
  812THF     O111684   4.253   5.046   0.465  0.0759  0.2387 -0.1421
  812THF     C211685   4.229   5.096   0.597  0.2915  0.2496 -0.5519
  812THF     C311686   4.321   5.156   0.396  0.5378 -0.1699  0.6124
  812THF     H411687   4.305   5.059   0.666  0.2205 -0.9108 -1.0881
  812THF     H511688   4.134   5.060   0.636  0.4106  1.5367  1.0295
  812THF     H611689   4.427   5.154   0.418  0.9671 -0.1226 -1.2762
  812THF     H711690   4.329   5.150   0.287  1.7318  1.0216  0.6109
  812THF     C811691   4.249   5.276   0.445 -0.3797 -0.7137 -0.1100
  812THF     C911692   4.243   5.247   0.596 -0.3063  0.4383  0.2926
  812THF    H1011693   4.153   5.295   0.397  0.1538 -1.0388 -1.3306
  812THF    H1111694   4.300   5.369   0.421 -1.5761  0.6337  2.2190
  812THF    H1211695   4.333   5.282   0.646 -1.1448  0.2526  1.9766
  812THF    H1311696   4.165   5.300   0.650 -0.7913 -0.2401  0.2700
  813THF     O111697   5.462   3.949   5.478 -0.0130 -1.0807  0.4187
  813THF     C211698   5.599   3.978   5.518  0.4815 -0.4069 -0.1552
  813THF     C311699   5.466   3.921   5.334  0.3811 -0.3981  0.3916
  813THF     H411700   5.593   3.959   5.625 -1.9610 -0.8794 -0.3169
  813THF     H511701   5.629   4.080   5.494 -1.0802  0.4076  1.0956
  813THF     H611702   5.375   3.866   5.308  0.8537 -0.7980 -0.4847
  813THF     H711703   5.466   4.016   5.281  0.1570 -0.2050  0.7410
  813THF     C811704   5.593   3.841   5.315 -0.0934  0.2910  0.2901
  813THF     C911705   5.682   3.876   5.437  0.7609  0.3472  0.2229
  813THF    H1011706   5.620   3.867   5.212 -4.3369  1.1180 -0.8621
  813THF    H1111707   5.566   3.736   5.310  0.2369  0.2457 -1.2837
  813THF    H1211708   5.709   3.794   5.503  0.8745 -1.5149 -2.0152
  813THF    H1311709   5.777   3.918   5.405  1.2285 -2.3024 -2.2308
  814THF     O111710   2.591   4.116   2.199 -0.1422 -0.3628 -0.5525
  814THF     C211711   2.596   4.254   2.217  0.1815 -0.3664  0.1201
  814THF     C311712   2.471   4.063   2.251  0.0651 -0.0121 -0.5448
  814THF     H411713   2.532   4.296   2.139  1.8545  0.4808 -0.8334
  814THF     H511714   2.698   4.289   2.207  0.6553 -1.6047  0.4127
  814THF     H611715   2.395   4.098   2.182  0.1392  2.9570  0.7151
  814THF     H711716   2.468   3.955   2.241  2.8220  0.0248 -3.1141
  814THF     C811717   2.460   4.122   2.387 -0.4021  0.2828  0.3399
  814THF     C911718   2.551   4.250   2.367  0.1833 -0.7466 -0.1844
  814THF    H1011719   2.487   4.049   2.463 -0.7384 -1.7711 -1.4319
  814THF    H1111720   2.358   4.160   2.395  0.1335  2.0488 -0.4523
  814THF    H1211721   2.500   4.344   2.388  0.7987 -0.9161  2.3212
  814THF    H1311722   2.642   4.241   2.425 -0.8860  1.5011  1.9970
  815THF     O111723   0.612   2.042   1.529 -0.5751  0.3242  0.1611
  815THF     C211724   0.638   2.029   1.672 -0.5541  0.0149 -0.2787
  815THF     C311725   0.646   2.172   1.487 -0.4725  0.3052  0.2972
  815THF     H411726   0.733   1.975   1.679 -0.6602 -0.2435 -0.7747
  815THF     H511727   0.567   1.969   1.728 -1.0168  0.9680  0.1671
  815THF     H611728   0.754   2.177   1.479 -0.6065  1.5473 -1.2471
  815THF     H711729   0.620   2.205   1.386 -0.1401  0.4971  0.2750
  815THF     C811730   0.590   2.259   1.601  0.5877 -0.0474 -0.0515
  815THF     C911731   0.647   2.177   1.717 -0.4736 -1.1268  0.3035
  815THF    H1011732   0.482   2.254   1.583  0.8424  0.9608 -2.2147
  815THF    H1111733   0.633   2.358   1.596 -0.5515  0.6445  2.3740
  815THF    H1211734   0.745   2.209   1.751 -1.7669  1.5041  1.8372
  815THF    H1311735   0.581   2.189   1.803  0.3638  1.5701  0.6609
  816THF     O111736   3.346   2.486   1.192  0.2733 -0.0146  0.2869
  816THF     C211737   3.335   2.385   1.092  0.4080  0.1721 -0.0929
  816THF     C311738   3.377   2.427   1.319  0.6399  1.3991  0.3545
  816THF     H411739   3.434   2.371   1.050  0.1163 -1.1826 -0.3671
  816THF     H511740   3.266   2.427   1.019  0.1167  0.2740  0.2354
  816THF     H611741   3.484   2.441   1.336  1.0254  1.2751 -1.7109
  816THF     H711742   3.321   2.471   1.402 -0.8484 -0.6553  0.5052
  816THF     C811743   3.343   2.280   1.303 -0.7133 -0.0202 -0.0530
  816THF     C911744   3.293   2.254   1.160 -0.5491 -0.5000 -0.5945
  816THF    H1011745   3.269   2.243   1.374 -0.8854  1.4110  0.5628
  816THF    H1111746   3.426   2.212   1.320 -2.7173 -2.4930  0.4360
  816THF    H1211747   3.341   2.170   1.110  2.2293 -1.6779  3.5479
  816THF    H1311748   3.184   2.251   1.151 -0.9910  2.3929  1.9962
  817THF     O111749   4.416   1.858   4.603  0.0562 -0.1291  0.6011
  817THF     C211750   4.390   1.998   4.584  0.2443 -0.1950 -0.1840
  817THF     C311751   4.473   1.812   4.476  0.0585  0.0457  0.3645
  817THF     H411752   4.368   2.061   4.670 -2.8755 -0.8742 -0.3648
  817THF     H511753   4.298   1.985   4.527 -0.0764 -2.6143  0.7535
  817THF     H611754   4.541   1.729   4.493 -0.5130 -0.0154  2.7497
  817THF     H711755   4.385   1.779   4.420 -0.1304 -2.6400  2.0553
  817THF     C811756   4.536   1.929   4.410 -0.2756 -0.4396 -0.0498
  817THF     C911757   4.507   2.047   4.498  0.2253 -0.4251  0.5438
  817THF    H1011758   4.495   1.939   4.309  2.3209 -1.6887 -1.3080
  817THF    H1111759   4.644   1.916   4.411 -0.3810 -2.2425  3.5687
  817THF    H1211760   4.599   2.063   4.553  1.8082 -0.7124 -1.8455
  817THF    H1311761   4.485   2.139   4.443 -0.1360 -0.6941  0.2289
  818THF     O111762   4.648   1.652   4.794 -0.4650  0.0169  0.1401
  818THF     C211763   4.778   1.675   4.725 -0.3009 -0.8364 -1.0973
  818THF     C311764   4.675   1.561   4.901 -0.4153  0.0506 -0.0662
  818THF     H411765   4.776   1.768   4.668 -0.5027 -1.3580 -1.9675
  818THF     H511766   4.803   1.589   4.663  1.1005  0.8156 -2.9596
  818THF     H611767   4.599   1.540   4.976  1.0433 -1.0487  1.1453
  818THF     H711768   4.716   1.472   4.854  0.3271  0.7672 -0.8205
  818THF     C811769   4.802   1.623   4.967  0.3625  0.4136  0.4012
  818THF     C911770   4.876   1.687   4.846  0.4602  0.6366 -1.1866
  818THF    H1011771   4.849   1.541   5.021 -1.9384 -1.1979  0.0721
  818THF    H1111772   4.780   1.702   5.040 -1.0916 -0.8718  1.4216
  818THF    H1211773   4.888   1.791   4.877  2.1521 -0.2784  1.5401
  818THF    H1311774   4.977   1.649   4.832  0.5067 -0.7481  1.9217
  819THF     O111775   1.257   2.883   4.953 -0.3176 -0.1938 -0.7381
  819THF     C211776   1.212   2.825   5.078 -0.7890  0.1137 -0.7739
  819THF     C311777   1.326   2.784   4.879 -0.6572  0.1103  0.6140
  819THF     H411778   1.115   2.857   5.118 -0.0410 -0.0424  1.3284
  819THF     H511779   1.289   2.853   5.150 -0.6846  1.8157 -1.4928
  819THF     H611780   1.319   2.791   4.771 -1.5045 -0.3111  0.6262
  819THF     H711781   1.428   2.793   4.915 -1.0154 -0.4335  1.8360
  819THF     C811782   1.256   2.655   4.918 -0.7617  0.2987  0.6314
  819THF     C911783   1.208   2.673   5.062 -0.3334  0.2326  0.1787
  819THF    H1011784   1.320   2.568   4.907 -2.9179 -1.1683 -1.2617
  819THF    H1111785   1.175   2.628   4.850 -0.4201 -3.1604  1.3977
  819THF    H1211786   1.111   2.625   5.076 -0.2603  0.4305  1.5528
  819THF    H1311787   1.289   2.631   5.122  2.0882  2.0886 -1.6052
  820THF     O111788   2.993   0.417   3.284 -0.4904 -0.8273 -0.5095
  820THF     C211789   3.048   0.382   3.160 -0.1417 -0.1776  0.1772
  820THF     C311790   3.097   0.494   3.356 -0.4092 -0.0572 -0.7552
  820THF     H411791   3.045   0.468   3.094 -1.4427  0.0419  0.5024
  820THF     H511792   2.990   0.303   3.111 -0.5058  0.0575  0.2224
  820THF     H611793   3.095   0.603   3.357  0.1086 -0.0235  1.1549
  820THF     H711794   3.103   0.471   3.462  1.8896  0.7607 -0.6471
  820THF     C811795   3.234   0.457   3.298  0.0498  0.0372  0.3099
  820THF     C911796   3.193   0.342   3.196  0.2868  0.4452  0.4898
  820THF    H1011797   3.299   0.431   3.381 -1.5643 -2.6338  0.8737
  820THF    H1111798   3.273   0.543   3.244 -0.7891 -0.7715 -1.6744
  820THF    H1211799   3.249   0.328   3.104  0.0736 -2.6561  0.7180
  820THF    H1311800   3.200   0.245   3.246 -0.2678 -1.5326 -2.9482
  821THF     O111801   1.151   0.209   2.272  0.3264  0.4182  0.2429
  821THF     C211802   1.251   0.287   2.339 -0.4902  0.4089  0.2683
  821THF     C311803   1.207   0.077   2.280 -0.0857 -0.7625 -0.9466
  821THF     H411804   1.253   0.267   2.446 -2.7646 -0.6401  0.1777
  821THF     H511805   1.242   0.393   2.311 -2.0534  0.0693 -0.6425
  821THF     H611806   1.196   0.052   2.385  2.7733 -0.8771 -0.6093
  821THF     H711807   1.152   0.002   2.222  1.2233 -2.4413 -0.0698
  821THF     C811808   1.354   0.093   2.242  0.0634 -0.0806  0.0455
  821THF     C911809   1.383   0.233   2.278  0.3968 -0.2071 -0.3115
  821THF    H1011810   1.385   0.079   2.138  0.6215  3.0308 -0.3158
  821THF    H1111811   1.423   0.029   2.298  0.2910 -0.5506 -0.7533
  821THF    H1211812   1.464   0.252   2.348  0.4908  1.6343 -0.8648
  821THF    H1311813   1.398   0.287   2.185  2.6005 -0.5396 -0.1950
  822THF     O111814   3.196   1.228   0.493  0.7891  0.0969 -0.5321
  822THF     C211815   3.114   1.120   0.525 -0.1689  0.4750 -0.5184
  822THF     C311816   3.325   1.216   0.548 -0.0699  0.1762  0.4580
  822THF     H411817   3.061   1.089   0.434  1.0021  0.5586 -1.2445
  822THF     H511818   3.049   1.149   0.608  0.0451 -1.3793  0.3498
  822THF     H611819   3.386   1.188   0.462 -1.9898 -0.9642 -0.6275
  822THF     H711820   3.354   1.307   0.599 -0.9367  2.3535 -2.6430
  822THF     C811821   3.315   1.097   0.644  0.2724 -0.4578  1.1988
  822THF     C911822   3.205   1.013   0.579  0.5639  0.2492 -0.0538
  822THF    H1011823   3.266   1.129   0.736 -0.0621  1.2503  0.4720
  822THF    H1111824   3.413   1.051   0.656 -0.0280 -1.3229  0.4536
  822THF    H1211825   3.234   0.943   0.500 -0.5325  0.6685 -0.8658
  822THF    H1311826   3.154   0.949   0.651  2.8904 -1.2129  0.3927
  823THF     O111827   5.425   0.742   4.756 -0.2516 -0.2436  0.4151
  823THF     C211828   5.357   0.626   4.812 -0.0496  0.3092  0.2627
  823THF     C311829   5.399   0.857   4.834 -0.0711  0.5155  0.1380
  823THF     H411830   5.429   0.544   4.812  1.0706  1.2300 -1.0058
  823THF     H511831   5.262   0.605   4.762  0.3479  3.6889 -2.2936
  823THF     H611832   5.483   0.926   4.835  0.5860 -0.2499 -0.6550
  823THF     H711833   5.310   0.914   4.811  0.2264  0.7736 -0.3821
  823THF     C811834   5.386   0.793   4.971 -0.5771 -0.1539  0.1383
  823THF     C911835   5.344   0.650   4.962  0.1848  0.1094 -0.4995
  823THF    H1011836   5.327   0.856   5.037 -1.6387 -0.8449 -0.1299
  823THF    H1111837   5.486   0.782   5.013 -0.3176 -1.7455 -0.7921
  823THF    H1211838   5.417   0.589   5.015 -0.4278 -0.6154 -0.4724
  823THF    H1311839   5.241   0.641   4.995 -0.5663  1.3918 -2.3470
  824THF     O111840   2.364   2.282   1.334 -0.6201 -0.2170 -0.7681
  824THF     C211841   2.417   2.256   1.463 -0.6557  0.3029 -0.0045
  824THF     C311842   2.452   2.374   1.278 -0.1569  0.3639  0.8904
  824THF     H411843   2.499   2.184   1.467 -1.9735 -1.1991  1.4640
  824THF     H511844   2.339   2.213   1.526  0.2496  0.2086  1.0882
  824THF     H611845   2.549   2.334   1.248  0.3166  2.7392 -1.0950
  824THF     H711846   2.414   2.416   1.186  0.9626  0.8909  0.6459
  824THF     C811847   2.466   2.483   1.383  0.0555  0.5748  0.2660
  824THF     C911848   2.477   2.392   1.512  0.2836  0.1112 -0.6941
  824THF    H1011849   2.375   2.543   1.382 -1.0895 -1.0428 -0.9897
  824THF    H1111850   2.548   2.552   1.370 -1.4562  2.1336 -1.6027
  824THF    H1211851   2.582   2.388   1.542  0.4514 -0.9066 -1.3741
  824THF    H1311852   2.418   2.428   1.596 -0.2443 -1.0226 -0.5662
  825THF     O111853   2.448   0.214   2.940  0.2487 -0.3694 -0.8427
  825THF     C211854   2.445   0.359   2.927 -0.0343  0.1017 -0.2589
  825THF     C311855   2.360   0.188   3.057  0.0549 -0.5374 -0.9516
  825THF     H411856   2.345   0.384   2.893  0.5792  3.1101 -0.1046
  825THF     H511857   2.519   0.392   2.854  0.0316 -1.2529 -0.8464
  825THF     H611858   2.256   0.194   3.025  0.2048 -0.8434 -1.4890
  825THF     H711859   2.376   0.094   3.110 -0.3451 -0.3681 -0.5176
  825THF     C811860   2.379   0.323   3.149 -0.2452  0.2654  0.1393
  825THF     C911861   2.467   0.413   3.067  0.0145 -0.7121 -0.3248
  825THF    H1011862   2.425   0.302   3.245 -0.3340  0.9655  0.3400
  825THF    H1111863   2.289   0.378   3.178  0.1871 -0.5219  3.3830
  825THF    H1211864   2.435   0.516   3.077 -0.6788 -1.0811  1.9193
  825THF    H1311865   2.566   0.395   3.111 -1.7748 -1.7114  3.8001
  826THF     O111866   3.327   1.995   1.783 -0.5388  0.2032 -0.1879
  826THF     C211867   3.381   2.131   1.811  0.2119 -0.3046 -0.1681
  826THF     C311868   3.200   2.013   1.731 -0.3041  0.4980  0.3264
  826THF     H411869   3.425   2.161   1.716  2.1967  0.4473  0.9351
  826THF     H511870   3.458   2.121   1.888 -0.5964 -1.9093  0.4962
  826THF     H611871   3.196   2.068   1.637 -2.6021  0.7370  0.5127
  826THF     H711872   3.141   1.921   1.733  1.0155 -0.3549  2.5145
  826THF     C811873   3.144   2.118   1.824  0.6366 -0.2916 -0.0719
  826THF     C911874   3.259   2.213   1.852  0.4719 -0.5665 -0.1841
  826THF    H1011875   3.108   2.071   1.915  0.4477  0.9919  0.5336
  826THF    H1111876   3.061   2.165   1.771  0.2146  0.2701  1.0708
  826THF    H1211877   3.253   2.308   1.800 -0.2723 -0.7119 -0.3726
  826THF    H1311878   3.249   2.230   1.960 -1.4114  0.4762 -0.4760
  827THF     O111879   1.303   0.701   2.715 -0.5090 -0.1812  0.3561
  827THF     C211880   1.351   0.705   2.575 -0.2311 -0.1185  0.1443
  827THF     C311881   1.165   0.688   2.707 -0.0874  0.2923  0.5819
  827THF     H411882   1.452   0.664   2.569  0.6651  1.8666  0.9324
  827THF     H511883   1.351   0.810   2.549  1.4019  0.4860  2.3029
  827THF     H611884   1.134   0.634   2.796 -0.4455 -2.4920 -1.0789
  827THF     H711885   1.125   0.789   2.710 -0.2892  0.3221 -1.5022
  827THF     C811886   1.128   0.618   2.581  0.3404  0.2632  0.4690
  827THF     C911887   1.252   0.611   2.501  0.3381  0.2846  0.0500
  827THF    H1011888   1.061   0.677   2.519  0.8375 -0.2989 -0.6332
  827THF    H1111889   1.081   0.520   2.593 -0.1694  0.3907 -0.3837
  827THF    H1211890   1.289   0.509   2.507  1.2793  0.6814  1.6079
  827THF    H1311891   1.251   0.644   2.397  4.0408  0.0901 -0.1865
  828THF     O111892   1.966   0.394   3.360  0.0853 -0.1424  0.2306
  828THF     C211893   1.911   0.266   3.393  0.3472 -0.5383  0.8836
  828THF     C311894   1.870   0.452   3.272 -0.1129  0.2975 -0.1123
  828THF     H411895   1.825   0.267   3.460 -1.4589 -0.8217 -1.2768
  828THF     H511896   1.991   0.199   3.424  0.4317 -0.6584  0.4103
  828THF     H611897   1.797   0.508   3.331  0.8941 -0.1880  1.6637
  828THF     H711898   1.929   0.519   3.209  0.2908  0.3635  0.3303
  828THF     C811899   1.794   0.335   3.199 -0.4872  0.0807 -0.3218
  828THF     C911900   1.854   0.214   3.255  0.0526 -0.0679 -0.0997
  828THF    H1011901   1.790   0.335   3.090  2.1949 -0.0548 -0.4930
  828THF    H1111902   1.689   0.346   3.223  0.2244  0.3329  3.0761
  828THF    H1211903   1.788   0.127   3.262 -0.8296  0.6122  0.1683
  828THF    H1311904   1.940   0.188   3.193  0.9885  2.3215  0.0863
  829THF     O111905   2.231   0.927   2.194 -0.5623 -0.4652 -0.4177
  829THF     C211906   2.121   0.893   2.121  0.6647  0.0761  0.1336
  829THF     C311907   2.315   0.816   2.192  0.1040  0.0218  0.2904
  829THF     H411908   2.156   0.908   2.018 -0.6877 -1.9568 -0.6856
  829THF     H511909   2.036   0.961   2.131 -0.1513 -0.8691 -0.2258
  829THF     H611910   2.361   0.793   2.095  0.0642 -2.2689  0.7472
  829THF     H711911   2.393   0.816   2.268  0.3125  1.6338  0.1013
  829THF     C811912   2.217   0.696   2.217  0.5493 -0.4171 -0.2533
  829THF     C911913   2.088   0.743   2.149 -0.0739 -0.1928  0.4565
  829THF    H1011914   2.194   0.689   2.323 -1.4811  0.1622 -0.6255
  829THF    H1111915   2.253   0.605   2.169 -0.0461  0.1475 -1.8527
  829THF    H1211916   2.072   0.699   2.050  0.0890 -1.8875  1.1486
  829THF    H1311917   2.007   0.747   2.221  0.1200  1.4497  0.6131
  830THF     O111918   3.022   0.739   3.963  0.2886  0.6404  0.7172
  830THF     C211919   3.056   0.613   3.898  0.1092 -0.0162  0.5127
  830THF     C311920   3.025   0.715   4.097  0.7811 -0.1025 -0.1949
  830THF     H411921   3.077   0.632   3.793 -0.4489 -0.1205  0.3767
  830THF     H511922   2.975   0.541   3.911 -0.2709  0.6580  2.1160
  830THF     H611923   3.041   0.812   4.145 -0.4938  1.6514 -3.0482
  830THF     H711924   2.928   0.685   4.136  0.3701  1.2705 -0.1118
  830THF     C811925   3.121   0.602   4.121  0.0622 -0.4650  0.0273
  830THF     C911926   3.174   0.568   3.984  0.6521  0.4320  0.4222
  830THF    H1011927   3.076   0.517   4.174  0.3093 -1.3054 -1.0704
  830THF    H1111928   3.211   0.636   4.172  1.2446 -0.8426 -1.7285
  830THF    H1211929   3.274   0.597   3.951  1.0207 -3.1358 -2.2496
  830THF    H1311930   3.181   0.459   3.982 -0.9446  0.3223 -0.9772
  831THF     O111931   0.977   0.450   1.152 -0.2584 -0.0211 -0.4312
  831THF     C211932   1.041   0.439   1.026 -0.7588  0.5627  0.6935
  831THF     C311933   0.933   0.592   1.161  0.5485  0.1426  0.1746
  831THF     H411934   0.993   0.367   0.960  1.6288 -0.5575  0.0463
  831THF     H511935   1.145   0.406   1.036 -1.0676 -0.7895 -0.2598
  831THF     H611936   0.837   0.601   1.109  0.4860  0.0943  0.2829
  831THF     H711937   0.929   0.624   1.265  1.5360  0.0432  0.2451
  831THF     C811938   1.037   0.671   1.079 -0.1203  0.6415  0.5812
  831THF     C911939   1.055   0.574   0.964 -0.5131 -0.4719  0.1303
  831THF    H1011940   1.127   0.683   1.139  0.0333 -0.8409  0.6767
  831THF    H1111941   1.002   0.768   1.043 -0.4916  0.6897  1.0705
  831THF    H1211942   0.965   0.587   0.904  0.6921 -0.0001 -1.6679
  831THF    H1311943   1.152   0.595   0.917 -0.4854 -1.5104 -0.3171
  832THF     O111944   4.771   1.802   0.234 -0.5275 -0.8283 -0.4131
  832THF     C211945   4.803   1.794   0.376  0.1254 -0.0032  0.5043
  832THF     C311946   4.875   1.873   0.164  0.1678 -0.0393 -0.0215
  832THF     H411947   4.805   1.689   0.405  1.2684 -0.8091 -2.1986
  832THF     H511948   4.728   1.852   0.431  0.5773  0.3139  0.7918
  832THF     H611949   4.892   1.835   0.063 -3.3734 -0.3110 -0.6256
  832THF     H711950   4.847   1.977   0.153 -0.5287 -0.2706 -0.4850
  832THF     C811951   4.995   1.870   0.257  0.5054  0.6949 -0.6008
  832THF     C911952   4.929   1.871   0.391  0.0169  0.2987  0.1591
  832THF    H1011953   5.062   1.949   0.225 -1.1514  1.1985 -3.1136
  832THF    H1111954   5.050   1.778   0.240  1.9277  1.6423 -1.3161
  832THF    H1211955   4.991   1.832   0.472 -2.0924 -1.1139  1.1788
  832THF    H1311956   4.916   1.977   0.414  0.6952  0.1056  1.5761
  833THF     O111957   1.923   5.023   1.915 -0.2491  0.3547 -0.5294
  833THF     C211958   1.904   5.014   1.771  0.1990  0.2843 -0.3879
  833THF     C311959   1.924   4.894   1.971 -0.2740 -0.0348 -0.0513
  833THF     H411960   2.003   5.006   1.726  0.6952 -0.6024  0.7864
  833THF     H511961   1.855   5.102   1.732  1.8660  2.0522  1.2527
  833THF     H611962   2.009   4.834   1.940  0.7370  2.3268 -2.1889
  833THF     H711963   1.914   4.901   2.080  3.1727  0.0315  0.3509
  833THF     C811964   1.809   4.830   1.902  0.4954 -0.8632  0.2946
  833THF     C911965   1.815   4.882   1.759 -0.8398 -0.0958  0.4102
  833THF    H1011966   1.720   4.860   1.957  0.3275  1.0977 -0.9482
  833THF    H1111967   1.821   4.722   1.912  1.1614 -1.0806 -2.2784
  833THF    H1211968   1.868   4.811   1.696 -0.4543  0.2342  0.3620
  833THF    H1311969   1.717   4.890   1.712 -0.5166  0.4589 -0.1805
  834THF     O111970   0.335   4.745   1.386 -0.3798  0.1057  0.1840
  834THF     C211971   0.302   4.802   1.265 -0.1417 -0.1621  0.1910
  834THF     C311972   0.331   4.599   1.364  0.3525 -0.4207 -0.0209
  834THF     H411973   0.394   4.787   1.209 -0.4746 -1.8642  0.0321
  834THF     H511974   0.285   4.909   1.271  2.5846  0.4081 -0.8010
  834THF     H611975   0.420   4.578   1.304  1.0298 -0.9126  1.1327
  834THF     H711976   0.329   4.545   1.458  0.0938 -0.3285  0.0282
  834THF     C811977   0.215   4.575   1.275 -0.3155 -0.0939  0.5937
  834THF     C911978   0.185   4.714   1.215  0.0101 -0.1776 -0.0318
  834THF    H1011979   0.127   4.539   1.330 -1.8444 -0.6734 -2.0695
  834THF    H1111980   0.245   4.505   1.197  0.3660 -2.1473  2.5712
  834THF    H1211981   0.187   4.707   1.106 -2.3811  0.5897 -0.1631
  834THF    H1311982   0.090   4.744   1.258 -1.1457 -1.6087 -1.4870
  835THF     O111983   4.271   5.068   0.914  0.2441 -0.1993 -0.6816
  835THF     C211984   4.163   5.016   0.987  0.6848 -0.2442 -0.1254
  835THF     C311985   4.277   5.201   0.958 -0.5668 -0.0865 -0.6731
  835THF     H411986   4.191   4.987   1.089  2.0867 -4.3859 -1.4639
  835THF     H511987   4.134   4.932   0.924  0.4910  1.9514 -3.1878
  835THF     H611988   4.329   5.197   1.054  1.3427 -1.2720 -1.6898
  835THF     H711989   4.348   5.261   0.901  0.6404 -0.6664  0.1755
  835THF     C811990   4.137   5.251   0.980  0.5615 -1.2805  0.5807
  835THF     C911991   4.056   5.121   0.976 -0.1832 -0.6736  0.7062
  835THF    H1011992   4.106   5.327   0.908 -0.2789  0.4257  2.5997
  835THF    H1111993   4.133   5.303   1.076 -3.6047  1.2907 -0.7175
  835THF    H1211994   3.979   5.107   1.052 -1.9886  0.2455 -0.8477
  835THF    H1311995   4.012   5.127   0.876 -0.8743 -3.5654  0.7414
  836THF     O111996   2.150   5.157   4.781  0.6311 -0.1062  0.6084
  836THF     C211997   2.043   5.066   4.778 -0.2581 -0.0378 -0.7891
  836THF     C311998   2.270   5.090   4.741  1.0335 -0.8671 -0.1014
  836THF     H411999   1.994   5.084   4.682  3.2951  1.3456 -2.5413
  836THF     H512000   1.969   5.074   4.857  1.3205 -1.7832  0.9883
  836THF     H612001   2.329   5.133   4.660 -0.2566  2.0375  0.3746
  836THF     H712002   2.335   5.075   4.827  1.3263 -0.0141 -0.1602
  836THF     C812003   2.227   4.951   4.701  0.3844 -0.2004 -0.1334
  836THF     C912004   2.104   4.930   4.791 -0.5071  0.3513  0.5587
  836THF    H1012005   2.303   4.875   4.719 -0.5647 -1.2602 -0.4177
  836THF    H1112006   2.202   4.929   4.597  2.5950 -1.0755 -0.5294
  836THF    H1212007   2.038   4.850   4.756 -0.2760  0.7387 -0.8340
  836THF    H1312008   2.141   4.906   4.890  1.3558 -1.3567 -0.4751
  837THF     O112009   2.553   3.051   1.778  0.8067 -0.3086  0.7763
  837THF     C212010   2.440   2.975   1.748  0.0259  0.2952  0.1510
  837THF     C312011   2.586   3.117   1.657  0.0177 -0.2867 -0.7323
  837THF     H412012   2.347   3.006   1.795 -0.5915 -1.4763  0.1477
  837THF     H512013   2.462   2.874   1.782  0.0381  0.5867  1.0171
  837THF     H612014   2.632   3.215   1.674 -1.1313  0.2418 -0.5720
  837THF     H712015   2.667   3.068   1.603  2.2495  1.5929  0.7343
  837THF     C812016   2.454   3.139   1.585  0.0688  0.1010 -0.2020
  837THF     C912017   2.398   2.999   1.606 -1.2267  0.0568 -0.0055
  837THF    H1012018   2.470   3.162   1.479  2.1716 -0.7081 -0.1110
  837THF    H1112019   2.390   3.217   1.627  0.8507  0.2153  0.8016
  837THF    H1212020   2.289   2.992   1.597 -1.2805  0.4210  0.3187
  837THF    H1312021   2.437   2.917   1.547 -1.2538 -0.0910  0.1826
  838THF     O112022   1.482   3.462   1.561  0.1507 -0.5606 -0.2535
  838THF     C212023   1.399   3.490   1.451 -0.4098  1.0536  0.1249
  838THF     C312024   1.565   3.573   1.584 -0.2238 -0.2995  0.3522
  838THF     H412025   1.308   3.433   1.470  0.6737  0.3486  4.2136
  838THF     H512026   1.443   3.458   1.356  1.5209  0.8231  1.0522
  838THF     H612027   1.609   3.555   1.682  1.3938 -1.0844 -0.4681
  838THF     H712028   1.639   3.580   1.504 -0.1377 -0.7579  0.3879
  838THF     C812029   1.463   3.680   1.570  0.3013 -0.7734 -0.6498
  838THF     C912030   1.382   3.642   1.446  0.2636 -0.2994 -0.3397
  838THF    H1012031   1.504   3.781   1.575 -0.2297 -0.5812  0.0589
  838THF    H1112032   1.401   3.669   1.659 -0.6517  2.3283 -0.8141
  838THF    H1212033   1.273   3.653   1.446  0.4833  2.5918 -0.0904
  838THF    H1312034   1.439   3.676   1.360  2.1869 -2.2583  0.0798
  839THF     O112035   0.034   3.028   3.488  0.1547 -0.0371  1.0097
  839THF     C212036   0.154   2.951   3.516  0.1695 -1.0005 -0.7265
  839THF     C312037   0.032   3.132   3.582 -0.2060 -0.0293  0.1666
  839THF     H412038   0.236   3.014   3.480 -0.9789  0.5722 -0.6953
  839THF     H512039   0.144   2.856   3.463  0.1708 -0.0174 -2.5696
  839THF     H612040   0.115   3.198   3.557  1.4455 -2.0669  0.0377
  839THF     H712041  -0.061   3.187   3.597 -1.1326 -1.4718 -0.0942
  839THF     C812042   0.055   3.053   3.712 -0.5698 -0.5089  0.5266
  839THF     C912043   0.160   2.944   3.673 -0.4072  0.1176  0.1794
  839THF    H1012044  -0.029   2.993   3.749 -1.7041 -0.3521 -1.6190
  839THF    H1112045   0.078   3.119   3.796 -1.0116  1.4134 -0.7961
  839THF    H1212046   0.260   2.972   3.706 -0.5267  1.7323 -0.6815
  839THF    H1312047   0.135   2.846   3.711  0.5491 -0.7168 -1.2466
  840THF     O112048   5.004   4.567   1.839 -0.4293 -0.7615  0.1176
  840THF     C212049   5.019   4.501   1.963 -0.5353  0.4231  0.4710
  840THF     C312050   4.878   4.628   1.835 -0.4216 -0.0946  0.2194
  840THF     H412051   5.035   4.574   2.042  0.1555  0.1102  0.6307
  840THF     H512052   5.106   4.435   1.970 -1.8509 -1.1833  2.7506
  840THF     H612053   4.883   4.712   1.904  2.0399  1.0427 -1.2186
  840THF     H712054   4.852   4.663   1.735 -2.7050 -0.7922  0.5198
  840THF     C812055   4.794   4.522   1.900  0.9576 -0.1867 -0.4004
  840THF     C912056   4.888   4.428   1.971  0.5613 -0.0409 -0.5176
  840THF    H1012057   4.731   4.465   1.831  1.7496 -1.2183 -0.3028
  840THF    H1112058   4.732   4.566   1.977  0.0296  1.0932 -1.8058
  840THF    H1212059   4.857   4.397   2.071 -0.0036 -0.3906 -0.7965
  840THF    H1312060   4.902   4.334   1.918  0.7534  0.3354 -1.1530
  841THF     O112061   2.109   3.345   1.163  0.4713  0.2373 -0.2619
  841THF     C212062   2.237   3.303   1.170 -0.0273  0.2681  0.1123
  841THF     C312063   2.031   3.251   1.076 -0.0879 -0.2347  0.0604
  841THF     H412064   2.277   3.316   1.271  0.2197  0.0706  0.0396
  841THF     H512065   2.301   3.344   1.092  2.6312 -0.0974  1.9847
  841THF     H612066   1.924   3.269   1.087  0.1807  4.1184 -1.9536
  841THF     H712067   2.047   3.267   0.969 -1.7950  0.4992 -0.1125
  841THF     C812068   2.076   3.121   1.135 -0.0816 -0.8203 -0.6575
  841THF     C912069   2.219   3.149   1.151  0.1832  0.1359  0.2021
  841THF    H1012070   2.050   3.037   1.071 -0.8595  0.9739 -2.8182
  841THF    H1112071   2.035   3.105   1.235  3.1893 -0.2038  0.9298
  841THF    H1212072   2.272   3.087   1.224  0.0587  0.0130  0.1886
  841THF    H1312073   2.272   3.127   1.059 -1.0209  2.6395 -1.1918
  842THF     O112074   1.552   2.179   3.052  0.3474  0.1959  0.1464
  842THF     C212075   1.430   2.118   3.013 -0.1940  0.7919 -0.2739
  842THF     C312076   1.519   2.283   3.142 -0.2956 -0.4397  0.1738
  842THF     H412077   1.383   2.051   3.086  0.4794  1.0188  0.3868
  842THF     H512078   1.451   2.059   2.925  1.1363 -0.2321  0.6905
  842THF     H612079   1.508   2.222   3.232  1.2125  0.3479  0.9261
  842THF     H712080   1.608   2.343   3.154 -0.4002 -0.3723  0.6032
  842THF     C812081   1.395   2.347   3.080 -0.3413 -0.2988 -0.2812
  842THF     C912082   1.337   2.230   2.990  0.1715  0.4932  0.0736
  842THF    H1012083   1.431   2.432   3.023  1.4010 -1.6636 -1.3264
  842THF    H1112084   1.310   2.388   3.134  0.2605  2.5713 -1.3421
  842THF    H1212085   1.233   2.201   3.008 -0.1681  1.8877  0.5309
  842THF    H1312086   1.345   2.268   2.888  0.2623 -1.5536 -0.7258
  843THF     O112087   4.619   3.720   5.212  0.2321  0.1524  0.2727
  843THF     C212088   4.690   3.804   5.120 -0.3503  0.5458 -0.5765
  843THF     C312089   4.485   3.731   5.174  0.1549  1.0681  0.0469
  843THF     H412090   4.690   3.758   5.021  0.2104  2.2476 -1.4185
  843THF     H512091   4.791   3.808   5.159 -0.3889 -1.2765 -0.2202
  843THF     H612092   4.467   3.676   5.082  2.6451 -0.7203  0.5118
  843THF     H712093   4.426   3.698   5.260  0.0765  1.8924  0.3238
  843THF     C812094   4.472   3.882   5.159 -0.4673 -0.7617 -0.2340
  843THF     C912095   4.610   3.937   5.120  0.1247 -0.0048 -0.2012
  843THF    H1012096   4.464   3.912   5.264 -0.0292  1.8303 -0.8519
  843THF    H1112097   4.386   3.919   5.103  1.0369 -0.3482 -2.3573
  843THF    H1212098   4.611   3.984   5.021  2.0547 -0.3751 -0.4090
  843THF    H1312099   4.649   4.002   5.198  0.0947 -0.9593  0.6317
  844THF     O112100   1.731   4.205   0.100  0.0073 -0.9206  0.5510
  844THF     C212101   1.852   4.276   0.133  0.1781  0.6004 -0.2394
  844THF     C312102   1.732   4.206  -0.041  0.0477 -0.5660  0.0417
  844THF     H412103   1.873   4.264   0.239 -1.5088  4.6838  0.7507
  844THF     H512104   1.847   4.380   0.099 -2.0445  1.1297  1.4445
  844THF     H612105   1.661   4.137  -0.087 -1.5329  2.3956 -2.3163
  844THF     H712106   1.712   4.307  -0.078  0.6565 -1.4911 -3.1229
  844THF     C812107   1.877   4.170  -0.085 -0.2620  0.0871 -0.5541
  844THF     C912108   1.949   4.205   0.043  0.4738  0.3793  0.0180
  844THF    H1012109   1.906   4.234  -0.168 -3.6001 -0.3872 -2.2708
  844THF    H1112110   1.892   4.064  -0.106 -0.8124  0.2578 -1.8974
  844THF    H1212111   1.978   4.113   0.094 -0.7421 -0.1103 -0.1144
  844THF    H1312112   2.044   4.257   0.042 -0.2629  1.8540  1.8067
  845THF     O112113   4.150   1.657   1.052 -0.1220  0.1810  0.2836
  845THF     C212114   4.112   1.524   1.022  0.5346  0.6480  0.1489
  845THF     C312115   4.283   1.670   1.000  0.2046  0.2676 -0.3253
  845THF     H412116   4.005   1.506   1.035  0.8494 -0.0435  2.1934
  845THF     H512117   4.161   1.460   1.096  1.5958  1.2498 -0.0136
  845THF     H612118   4.296   1.773   0.964  0.8197  0.0578 -0.7149
  845THF     H712119   4.355   1.655   1.080  0.3666 -1.6846 -0.7961
  845THF     C812120   4.306   1.565   0.891  0.4762 -0.6318  0.2395
  845THF     C912121   4.173   1.490   0.889  0.2095  0.7369 -0.0400
  845THF    H1012122   4.382   1.493   0.922  0.5747 -0.8645 -0.5146
  845THF    H1112123   4.339   1.611   0.798 -1.3947  0.0618 -0.1311
  845THF    H1212124   4.107   1.527   0.811 -0.9297 -0.8364  0.1224
  845THF    H1312125   4.179   1.382   0.872 -1.4916  0.6650 -0.3029
  846THF     O112126   0.775   3.725   3.654  0.0903  0.3711 -0.6456
  846THF     C212127   0.664   3.652   3.703  0.0117 -0.3860 -0.3262
  846THF     C312128   0.732   3.849   3.584  0.0615  0.2222  0.9408
  846THF     H412129   0.656   3.689   3.805  0.8085 -0.8090 -0.0992
  846THF     H512130   0.685   3.546   3.719  1.2166  0.0228  1.0178
  846THF     H612131   0.698   3.924   3.655 -2.8461 -1.2935  1.2962
  846THF     H712132   0.816   3.889   3.527  0.9418 -2.5680  0.0941
  846THF     C812133   0.620   3.795   3.501 -0.2708  0.5056 -0.3496
  846THF     C912134   0.561   3.681   3.593 -0.1920  0.2393  0.0191
  846THF    H1012135   0.661   3.754   3.409  3.7069  2.2903  0.3889
  846THF    H1112136   0.548   3.870   3.471  0.2288  1.1547  0.0484
  846THF    H1212137   0.462   3.711   3.630  0.7236  1.4980  1.5880
  846THF    H1312138   0.542   3.588   3.539  1.3161 -1.6759  2.5670
  847THF     O112139   1.119   0.166   2.629 -0.6361  0.1104  0.5880
  847THF     C212140   1.060   0.254   2.724  0.5598  0.3906 -0.3193
  847THF     C312141   1.007   0.090   2.577  0.1509 -0.1845  0.1084
  847THF     H412142   1.026   0.354   2.698  1.7640  2.5244  4.8858
  847THF     H512143   1.135   0.267   2.802 -0.0293  1.7814  0.0504
  847THF     H612144   0.944   0.142   2.505 -0.0955 -0.5163  0.0772
  847THF     H712145   1.042   0.003   2.521 -1.2438  0.6912 -2.2565
  847THF     C812146   0.928   0.057   2.702 -0.2964  0.5691  0.4351
  847THF     C912147   0.940   0.184   2.787 -0.7121 -0.4734 -0.2222
  847THF    H1012148   0.988  -0.018   2.754 -1.5708 -0.2627  0.7766
  847THF    H1112149   0.828   0.014   2.688  0.2344 -0.2667 -0.9218
  847THF    H1212150   0.852   0.248   2.777 -0.5822 -0.0590  1.1156
  847THF    H1312151   0.960   0.164   2.892 -1.0614 -1.0549 -0.2662
  848THF     O112152   1.539   3.331   0.199  0.6857 -0.5750  0.3710
  848THF     C212153   1.547   3.461   0.146 -0.0236  0.0218 -0.4557
  848THF     C312154   1.405   3.293   0.222  0.5640 -1.0991  0.1469
  848THF     H412155   1.531   3.459   0.038 -0.4611 -2.1204 -0.3940
  848THF     H512156   1.648   3.496   0.169  0.0270 -1.0731  1.1559
  848THF     H612157   1.363   3.241   0.136  1.1073 -2.0723  0.4632
  848THF     H712158   1.406   3.226   0.307  0.0269  0.4626  1.4452
  848THF     C812159   1.334   3.434   0.249 -0.9871  0.7815 -0.6107
  848THF     C912160   1.434   3.542   0.212  0.1770 -0.4014 -0.0715
  848THF    H1012161   1.316   3.440   0.356  0.3028 -2.2524 -0.1132
  848THF    H1112162   1.235   3.445   0.204 -2.1147 -3.2595  0.4551
  848THF    H1212163   1.382   3.616   0.152 -1.3361 -1.6839 -0.4117
  848THF    H1312164   1.469   3.592   0.302 -2.2310 -0.3017  0.8720
  849THF     O112165   3.311   0.365   1.247 -0.3238  0.1750  0.6487
  849THF     C212166   3.230   0.313   1.137  0.2452 -0.1071  0.1925
  849THF     C312167   3.325   0.251   1.338 -0.2964 -0.0684  0.0803
  849THF     H412168   3.284   0.244   1.072  0.4229  1.3611 -1.3065
  849THF     H512169   3.199   0.401   1.081  0.4752 -0.4427 -0.4736
  849THF     H612170   3.400   0.184   1.296 -1.2143  0.0808 -1.8704
  849THF     H712171   3.350   0.276   1.442 -0.9613 -0.1248  0.2610
  849THF     C812172   3.187   0.183   1.323  0.1163  0.0495  0.6804
  849THF     C912173   3.117   0.246   1.205 -0.4804 -0.4931 -0.6810
  849THF    H1012174   3.134   0.211   1.414 -0.0124  1.9527  0.0750
  849THF    H1112175   3.191   0.075   1.308  0.5142  0.1377  0.1105
  849THF    H1212176   3.063   0.169   1.149  0.3020 -1.7951  0.2927
  849THF    H1312177   3.037   0.310   1.243  1.5535  2.3581 -0.8855
  850THF     O112178   4.037   4.961   1.348 -0.3218 -0.3798  0.2271
  850THF     C212179   3.982   4.850   1.274 -0.6945 -0.2312  0.4264
  850THF     C312180   4.131   4.912   1.446  0.2657 -0.7187  0.1710
  850THF     H412181   4.053   4.828   1.195 -0.5996  2.0578 -0.1971
  850THF     H512182   3.884   4.876   1.236  0.7008  3.1684 -1.2941
  850THF     H612183   4.228   4.897   1.400  0.5750 -1.1296  0.9468
  850THF     H712184   4.137   4.992   1.520 -2.0134  0.8500 -1.1965
  850THF     C812185   4.082   4.779   1.488 -0.6338 -0.1479  0.8692
  850THF     C912186   3.983   4.738   1.382  0.6640  0.3483 -0.0651
  850THF    H1012187   4.046   4.798   1.590 -0.5384  0.9141  0.7207
  850THF    H1112188   4.169   4.714   1.488 -0.3244  0.2349  1.7989
  850THF    H1212189   4.002   4.642   1.333  0.4939  0.5239 -0.4797
  850THF    H1312190   3.882   4.730   1.422  1.2792  1.8755  1.9732
  851THF     O112191   2.167   0.241   0.479 -0.4179  0.0764 -0.0790
  851THF     C212192   2.312   0.224   0.488  0.4720  0.9629 -0.1485
  851THF     C312193   2.127   0.266   0.609 -0.5351  0.7386  0.1267
  851THF     H412194   2.364   0.311   0.528 -0.1877  1.2875  0.0222
  851THF     H512195   2.348   0.195   0.389  0.4790  0.1189  0.0991
  851THF     H612196   2.159   0.363   0.645  0.7818  0.3163  0.1653
  851THF     H712197   2.019   0.250   0.609 -0.2935 -1.0900  0.2120
  851THF     C812198   2.202   0.155   0.686 -0.1660 -0.1019  0.3444
  851THF     C912199   2.315   0.116   0.594  0.9448  0.1711  1.2126
  851THF    H1012200   2.132   0.073   0.699 -0.5583  0.1015 -0.3923
  851THF    H1112201   2.240   0.197   0.780  0.2016  0.6016 -0.1014
  851THF    H1212202   2.414   0.111   0.639  1.4179  0.8271  0.2933
  851THF    H1312203   2.294   0.021   0.546 -3.8384  0.4802  2.2303
  852THF     O112204   4.600   1.780   1.317  0.3737 -0.6031 -0.1612
  852THF     C212205   4.679   1.816   1.431  0.6951 -0.1108 -0.4014
  852THF     C312206   4.670   1.684   1.252 -0.4141 -0.1618 -0.7199
  852THF     H412207   4.667   1.748   1.516 -4.7854  0.8855 -0.0658
  852THF     H512208   4.643   1.917   1.450  0.8367  0.0306 -0.8697
  852THF     H612209   4.655   1.584   1.295 -1.7434 -0.2012 -1.2312
  852THF     H712210   4.631   1.680   1.151 -0.0463  3.2530 -1.0962
  852THF     C812211   4.809   1.742   1.248 -0.3458  0.0905  0.4415
  852THF     C912212   4.822   1.819   1.377  0.1366 -0.2344 -0.6598
  852THF    H1012213   4.819   1.791   1.151  1.2933 -1.3996 -0.1997
  852THF    H1112214   4.877   1.657   1.249 -1.3380 -0.7524 -0.9070
  852THF    H1212215   4.885   1.788   1.460 -1.6234  0.2606  0.9256
  852THF    H1312216   4.839   1.923   1.347 -0.7911 -0.6195 -2.7297
  853THF     O112217   4.581   3.045   4.871  0.1972 -0.0040 -0.1312
  853THF     C212218   4.672   3.107   4.783  0.6232  0.4419  0.5807
  853THF     C312219   4.545   3.141   4.969  0.3966  0.0554 -0.2674
  853THF     H412220   4.613   3.146   4.699 -1.0909 -2.6022  0.2086
  853THF     H512221   4.729   3.026   4.739  0.7764  1.1131 -0.4966
  853THF     H612222   4.473   3.217   4.937  1.5696  1.3679  0.1439
  853THF     H712223   4.499   3.086   5.051 -1.6495  0.0268 -1.3498
  853THF     C812224   4.678   3.203   5.008 -0.5358 -0.6159 -0.1676
  853THF     C912225   4.747   3.206   4.868  0.3377 -0.7376  0.5564
  853THF    H1012226   4.741   3.136   5.066  0.5111  0.8773  0.5151
  853THF    H1112227   4.664   3.303   5.049  0.0848  0.3461 -2.1674
  853THF    H1212228   4.749   3.305   4.823  1.4011 -0.4351  1.2447
  853THF    H1312229   4.852   3.183   4.889  0.9220  1.3784  0.1964
  854THF     O112230   3.278   3.737   0.130 -0.1587 -0.8318  0.3404
  854THF     C212231   3.229   3.616   0.182 -0.1424  0.6836 -0.5164
  854THF     C312232   3.388   3.779   0.210  0.2500 -1.1700 -0.2940
  854THF     H412233   3.288   3.526   0.167 -1.1801 -0.0782 -0.1257
  854THF     H512234   3.131   3.579   0.155  0.5098  0.0341 -2.1369
  854THF     H612235   3.485   3.737   0.184  0.3150 -1.9660  1.1511
  854THF     H712236   3.400   3.886   0.191 -0.9612 -1.1972 -1.4057
  854THF     C812237   3.348   3.746   0.344  0.0248 -0.0287 -0.1904
  854THF     C912238   3.227   3.658   0.330  0.2309 -0.2004  0.1980
  854THF    H1012239   3.342   3.828   0.416  1.2722  2.6967 -2.9979
  854THF    H1112240   3.419   3.673   0.383  0.7262  1.1470  0.8456
  854THF    H1212241   3.231   3.583   0.409 -0.7370  0.8853  1.3382
  854THF    H1312242   3.130   3.709   0.337 -0.0822 -0.5862 -1.0005
  855THF     O112243   0.893   1.074   1.856 -0.7478  0.4916  0.3619
  855THF     C212244   0.823   1.175   1.780 -0.5914 -0.2209  0.0564
  855THF     C312245   1.005   1.036   1.786  0.2390 -0.3941  0.8832
  855THF     H412246   0.762   1.236   1.846 -1.0652  0.9022 -1.3697
  855THF     H512247   0.775   1.129   1.693  2.4526 -1.1537 -1.2763
  855THF     H612248   1.086   1.002   1.850  0.7721  3.1765  2.3701
  855THF     H712249   0.982   0.966   1.706  0.5307 -1.1074  1.4129
  855THF     C812250   1.060   1.161   1.721 -0.0209 -0.1962  0.4183
  855THF     C912251   0.941   1.263   1.730  0.4249 -0.3384 -0.3659
  855THF    H1012252   1.108   1.148   1.624  0.3130  1.4608  0.3358
  855THF    H1112253   1.140   1.194   1.787 -0.4383 -1.8036  1.7909
  855THF    H1212254   0.958   1.342   1.803  0.2393  2.4564 -3.1798
  855THF    H1312255   0.909   1.307   1.636  0.2427  0.0312 -0.1369
  856THF     O112256   4.596   1.076   1.884  0.4279 -0.3471  0.0814
  856THF     C212257   4.626   0.969   1.964 -0.2149 -1.0384  0.2329
  856THF     C312258   4.644   1.060   1.754 -0.8947  0.1929 -0.2892
  856THF     H412259   4.546   0.903   1.998 -0.6381 -0.7266 -0.1438
  856THF     H512260   4.658   1.016   2.056 -1.5393 -0.6714  0.5323
  856THF     H612261   4.586   0.985   1.701 -2.9657  0.8591  0.8986
  856THF     H712262   4.660   1.154   1.702  3.0789 -0.9098 -1.3611
  856THF     C812263   4.774   0.991   1.786 -0.7653 -0.1399 -0.1562
  856THF     C912264   4.738   0.892   1.895  0.3976  0.0755  1.0821
  856THF    H1012265   4.848   1.062   1.824 -0.1969  0.6224 -2.5152
  856THF    H1112266   4.812   0.950   1.692 -0.7607  0.2028 -0.3061
  856THF    H1212267   4.706   0.790   1.869 -0.1860  0.3527  0.6854
  856THF    H1312268   4.817   0.885   1.970  0.1201  0.0989  1.3809
  857THF     O112269   0.526   0.459   2.858  0.4703  0.6181 -0.0071
  857THF     C212270   0.415   0.369   2.884  0.3342  0.7203  0.6147
  857THF     C312271   0.586   0.413   2.741  0.1169  0.1298  0.2633
  857THF     H412272   0.326   0.424   2.914 -1.5875 -0.6860 -1.9758
  857THF     H512273   0.450   0.310   2.969  0.8778 -1.0463 -0.7636
  857THF     H612274   0.564   0.472   2.652 -1.3597 -0.1956  0.3992
  857THF     H712275   0.693   0.416   2.766  0.2972  2.1810 -0.5073
  857THF     C812276   0.534   0.272   2.709  0.2851  0.1104  0.2649
  857THF     C912277   0.395   0.273   2.764 -0.2536  1.2489 -0.1210
  857THF    H1012278   0.582   0.206   2.781 -1.0193 -0.3726  0.7177
  857THF    H1112279   0.550   0.231   2.609  1.4943  3.8948 -1.2777
  857THF    H1212280   0.328   0.306   2.684 -0.4591 -0.6418 -0.7755
  857THF    H1312281   0.366   0.174   2.801  0.2668  0.8482 -0.7685
  858THF     O112282   4.024   3.412   0.631 -0.1724 -0.7043 -0.0984
  858THF     C212283   4.003   3.475   0.510 -0.4169 -0.4609 -0.2406
  858THF     C312284   4.142   3.326   0.611 -0.1656  0.5423  0.5409
  858THF     H412285   3.975   3.579   0.525 -1.0733 -0.7459  0.6020
  858THF     H512286   3.923   3.423   0.458  0.0574 -0.8371 -0.6012
  858THF     H612287   4.173   3.296   0.710 -0.2510  1.0492  0.7257
  858THF     H712288   4.105   3.231   0.574 -3.3423  1.0931  2.0016
  858THF     C812289   4.239   3.406   0.528  0.1333  0.1785  0.1372
  858THF     C912290   4.131   3.465   0.439 -0.5119 -0.1484 -0.3010
  858THF    H1012291   4.312   3.340   0.482 -1.5118 -1.1248 -0.7171
  858THF    H1112292   4.278   3.485   0.593  0.7932 -0.4225  0.4739
  858THF    H1212293   4.165   3.557   0.392 -0.4747 -1.5801 -3.3014
  858THF    H1312294   4.131   3.390   0.361 -0.6866  0.3400 -0.7748
  859THF     O112295   0.684   5.320   5.091  0.7545  0.0280 -0.2611
  859THF     C212296   0.671   5.310   5.233  0.2099 -0.1352  0.7492
  859THF     C312297   0.805   5.264   5.047  0.5384  0.9861  0.7486
  859THF     H412298   0.588   5.241   5.247 -1.0008  0.9738 -0.5447
  859THF     H512299   0.640   5.404   5.279 -1.0418 -0.6459  0.9839
  859THF     H612300   0.784   5.161   5.018  0.8907  0.7626  1.2633
  859THF     H712301   0.853   5.317   4.965  2.5065 -1.7309  0.0062
  859THF     C812302   0.897   5.273   5.174  0.4296 -0.5081 -0.6677
  859THF     C912303   0.796   5.250   5.290 -0.1321 -0.5123  0.1521
  859THF    H1012304   0.951   5.368   5.177 -1.1015  0.3586  0.6111
  859THF    H1112305   0.963   5.186   5.178 -0.9710 -1.5698  1.1914
  859THF    H1212306   0.778   5.150   5.330 -1.3569  0.2826  1.7046
  859THF    H1312307   0.848   5.297   5.373 -0.8145 -1.2372  1.0088
  860THF     O112308   1.785   4.552   5.315 -0.0032  0.2583  0.3913
  860THF     C212309   1.778   4.516   5.172  0.2795 -0.0115 -0.3404
  860THF     C312310   1.922   4.595   5.343 -0.0394 -0.1857 -0.0338
  860THF     H412311   1.682   4.533   5.125 -0.6132 -0.9309  1.0506
  860THF     H512312   1.807   4.411   5.171  1.7737  0.3703 -0.3322
  860THF     H612313   1.933   4.694   5.389  1.3282 -0.0783 -0.5756
  860THF     H712314   1.960   4.531   5.422  0.2183  1.9989  1.7316
  860THF     C812315   1.997   4.583   5.206  0.0647 -0.1472  0.4922
  860THF     C912316   1.887   4.594   5.106  0.2265  0.1910 -0.2840
  860THF    H1012317   2.028   4.479   5.190  0.6550 -0.1161  1.3789
  860THF    H1112318   2.084   4.642   5.179  0.1219 -1.2505 -2.0627
  860THF    H1212319   1.842   4.693   5.105 -2.0727 -0.7901 -1.7536
  860THF    H1312320   1.921   4.559   5.009  0.1302 -2.8969  0.6786
  861THF     O112321   2.108   4.168   3.176  0.9322  0.3864 -0.1531
  861THF     C212322   1.967   4.198   3.150 -0.3203 -0.3831 -0.4392
  861THF     C312323   2.125   4.051   3.094 -0.1307 -0.0537 -0.0698
  861THF     H412324   1.952   4.252   3.057  1.3876 -0.1934 -0.6269
  861THF     H512325   1.926   4.264   3.227  0.4959  1.0922 -1.2334
  861THF     H612326   2.120   4.091   2.993 -2.7421 -0.0211 -0.0029
  861THF     H712327   2.216   3.993   3.110  0.7508  0.8961 -1.4457
  861THF     C812328   2.002   3.967   3.118 -0.3646  0.6742  0.7338
  861THF     C912329   1.891   4.071   3.133 -0.2305 -0.6784  0.2230
  861THF    H1012330   2.025   3.906   3.205  3.4542 -0.2765 -0.7261
  861THF    H1112331   1.991   3.892   3.040  1.5851  0.0858  0.9612
  861THF    H1212332   1.846   4.061   3.034  1.8762 -3.1608 -0.5909
  861THF    H1312333   1.811   4.051   3.205 -1.5588  0.9605 -0.7277
  862THF     O112334   3.590   4.434   0.917 -0.4501 -0.2310  0.0486
  862THF     C212335   3.637   4.554   0.851  0.4817 -0.7915 -0.3009
  862THF     C312336   3.472   4.477   0.977  0.5529  0.1631 -0.0056
  862THF     H412337   3.600   4.565   0.749 -1.9368  2.2256  0.7337
  862THF     H512338   3.744   4.543   0.834  0.7537  0.4452  0.4776
  862THF     H612339   3.393   4.476   0.901 -1.3737  1.4665  1.8773
  862THF     H712340   3.452   4.399   1.050  2.7981 -0.1523  0.3362
  862THF     C812341   3.503   4.608   1.038  0.1836 -0.3728 -0.1469
  862THF     C912342   3.602   4.673   0.945  0.3265  0.4435  0.2054
  862THF    H1012343   3.543   4.598   1.139  0.8591  2.0812 -0.1039
  862THF    H1112344   3.417   4.674   1.044 -0.3837 -1.1644  0.7118
  862THF    H1212345   3.560   4.762   0.899 -0.5134 -0.3063 -0.5244
  862THF    H1312346   3.688   4.701   1.006  0.1504  0.6959  0.3422
  863THF     O112347   4.223   4.969   3.352 -0.6925 -0.2473 -0.1047
  863THF     C212348   4.124   5.071   3.325 -0.3200  0.4484 -0.3900
  863THF     C312349   4.344   5.034   3.368 -0.5091  0.2098  0.3266
  863THF     H412350   4.087   5.130   3.408  2.1000  2.2390 -0.4540
  863THF     H512351   4.037   5.019   3.285  0.0169 -2.4750  2.2815
  863THF     H612352   4.365   5.050   3.473 -0.0607 -0.5659  0.3557
  863THF     H712353   4.432   4.981   3.332  0.0479  0.4138  1.3631
  863THF     C812354   4.340   5.167   3.294  0.4136  0.1561 -0.4939
  863THF     C912355   4.206   5.170   3.237  0.4568 -0.4455 -0.0575
  863THF    H1012356   4.419   5.194   3.224 -0.7106  3.1192 -0.7970
  863THF    H1112357   4.339   5.249   3.366  1.1060  0.8460 -1.2526
  863THF    H1212358   4.159   5.268   3.226 -0.6111 -0.6163  2.3798
  863THF    H1312359   4.227   5.132   3.137  0.8339  1.3774 -0.7158
  864THF     O112360   3.341   4.999   4.344  0.7184 -0.5079 -0.3257
  864THF     C212361   3.338   5.144   4.345 -0.1301 -0.0891 -0.0086
  864THF     C312362   3.474   4.965   4.356 -0.2133 -0.5514 -0.7903
  864THF     H412363   3.345   5.167   4.451 -0.9548 -1.6551  0.3993
  864THF     H512364   3.250   5.189   4.298 -0.2235  0.1324  0.3714
  864THF     H612365   3.504   4.964   4.461  0.8013 -0.7952 -1.0656
  864THF     H712366   3.483   4.860   4.331  0.4539 -1.1557  1.7350
  864THF     C812367   3.556   5.071   4.273  0.7166  0.0065  0.4052
  864THF     C912368   3.468   5.199   4.287 -0.4453 -0.1441 -0.5414
  864THF    H1012369   3.552   5.033   4.170 -0.0721 -0.7843  0.7109
  864THF    H1112370   3.659   5.087   4.305  0.1995  1.1778  1.5384
  864THF    H1212371   3.522   5.275   4.344  1.0943 -1.0034 -0.8098
  864THF    H1312372   3.443   5.252   4.195  1.2279  1.2224 -0.2685
  865THF     O112373   4.433   4.847   4.726 -0.1755 -0.1880 -0.9574
  865THF     C212374   4.574   4.853   4.749 -0.8516 -0.1422  0.6329
  865THF     C312375   4.385   4.966   4.670  0.7559 -0.1595  0.5327
  865THF     H412376   4.621   4.809   4.661 -0.6970 -0.5964  0.9373
  865THF     H512377   4.587   4.806   4.847  0.0662  0.9733  1.0697
  865THF     H612378   4.404   4.962   4.562 -0.3726  1.7895  0.2164
  865THF     H712379   4.277   4.979   4.681  0.7561 -0.4714  0.9077
  865THF     C812380   4.469   5.066   4.745 -1.1297  0.0407 -0.3678
  865THF     C912381   4.607   5.003   4.756  0.6710  0.4102  0.3333
  865THF    H1012382   4.425   5.081   4.844 -0.7414  0.2484 -0.2272
  865THF    H1112383   4.477   5.161   4.693 -2.1601  0.1523 -0.3466
  865THF    H1212384   4.672   5.042   4.678  0.3916  0.6686  0.2281
  865THF    H1312385   4.650   5.025   4.854  0.2371  0.4458  0.5197
  866THF     O112386   0.371   4.718   3.717 -0.2468 -0.6400 -0.1447
  866THF     C212387   0.487   4.724   3.812 -0.0587 -0.2423 -1.4202
  866THF     C312388   0.435   4.739   3.584  0.3588  0.2802 -1.1093
  866THF     H412389   0.488   4.629   3.864 -1.3430 -0.6422 -2.0776
  866THF     H512390   0.491   4.812   3.877  0.4038 -1.0536 -0.3163
  866THF     H612391   0.375   4.692   3.505  1.1973 -0.4275 -1.3457
  866THF     H712392   0.436   4.843   3.553 -0.1621 -0.2485 -3.0259
  866THF     C812393   0.573   4.679   3.597 -0.8803  0.6677  0.6410
  866THF     C912394   0.616   4.734   3.728 -0.1018 -0.6074  0.1131
  866THF    H1012395   0.634   4.705   3.511  0.1147  2.6804  1.8726
  866THF    H1112396   0.572   4.571   3.610  0.0610  0.7708  1.7163
  866THF    H1212397   0.694   4.674   3.776  2.6492 -0.1140 -3.3848
  866THF    H1312398   0.657   4.835   3.730  0.2449 -0.7457 -0.0605
  867THF     O112399   0.036   2.530   0.891  0.2471 -0.0210 -0.4623
  867THF     C212400   0.146   2.472   0.954 -0.4742 -0.4110  0.0782
  867THF     C312401   0.050   2.669   0.877 -0.4066 -0.6319  0.6587
  867THF     H412402   0.224   2.455   0.880  0.8987 -3.1274  1.9990
  867THF     H512403   0.135   2.378   1.008 -1.2557  0.0429  0.7315
  867THF     H612404   0.113   2.689   0.790 -0.2600  1.9932  1.2905
  867THF     H712405  -0.042   2.726   0.863  1.5763  2.4822 -0.8559
  867THF     C812406   0.106   2.707   1.009  0.5097  0.1528 -0.0020
  867THF     C912407   0.184   2.578   1.064  0.3580  0.0002  0.5638
  867THF    H1012408   0.025   2.727   1.079 -0.3863 -1.2258 -0.5904
  867THF    H1112409   0.164   2.799   1.016  2.8202 -1.2911  0.9468
  867THF    H1212410   0.288   2.609   1.069 -0.8352  5.1674 -0.8021
  867THF    H1312411   0.148   2.545   1.161  0.1112 -0.6232  0.2686
  868THF     O112412   4.150   2.353   4.888  0.3118  0.4704  0.5363
  868THF     C212413   4.045   2.413   4.962  0.1853  0.3472  0.0973
  868THF     C312414   4.081   2.274   4.784  0.4768  0.1519  0.3554
  868THF     H412415   4.089   2.477   5.039  2.8358 -0.9536 -0.1993
  868THF     H512416   3.994   2.339   5.024 -0.6385  1.6344  0.9885
  868THF     H612417   4.142   2.241   4.699 -2.6019 -3.2757 -0.7798
  868THF     H712418   4.048   2.179   4.825 -0.4569 -0.6012 -1.9575
  868THF     C812419   3.965   2.375   4.747  0.5520  0.3587  0.6882
  868THF     C912420   3.961   2.477   4.861  0.0488  0.6475  0.4633
  868THF    H1012421   3.867   2.328   4.743 -0.3821  2.2545 -0.0595
  868THF    H1112422   3.979   2.425   4.651 -0.1488  0.5366  0.6755
  868THF    H1212423   4.001   2.574   4.830 -0.1572  1.2618  2.0461
  868THF    H1312424   3.866   2.492   4.911  0.2749  0.8524  0.8397
  869THF     O112425   2.341   1.960   3.538 -0.7453  0.2104  0.6102
  869THF     C212426   2.374   2.082   3.475 -0.5391  0.0888  0.6906
  869THF     C312427   2.304   1.999   3.664 -0.6825  0.2644  0.5034
  869THF     H412428   2.288   2.141   3.446  0.1556 -0.2865 -2.5717
  869THF     H512429   2.442   2.076   3.389  1.8558  2.5541  2.2480
  869THF     H612430   2.200   2.026   3.678 -0.2084  1.5762  1.6186
  869THF     H712431   2.318   1.904   3.716  0.8732  0.5182  0.5826
  869THF     C812432   2.395   2.115   3.705  0.4221  0.2744 -0.3557
  869THF     C912433   2.451   2.164   3.575  0.0633  0.5486  0.4005
  869THF    H1012434   2.469   2.080   3.778 -2.1515 -1.9665  1.3513
  869THF    H1112435   2.339   2.199   3.745 -1.2937 -1.0812  0.1857
  869THF    H1212436   2.440   2.270   3.552  1.0355  0.0463 -2.7900
  869THF    H1312437   2.554   2.128   3.571 -0.0822  0.0155  1.1756
  870THF     O112438   0.761   2.459   2.226 -0.1883 -0.1111  0.2057
  870THF     C212439   0.899   2.451   2.266 -0.0443  0.2114  0.2744
  870THF     C312440   0.731   2.334   2.151  0.6529  0.2639  0.4651
  870THF     H412441   0.920   2.527   2.342 -2.3225 -1.7618  3.0971
  870THF     H512442   0.956   2.469   2.175  0.8232  0.5971  0.8832
  870THF     H612443   0.627   2.328   2.117  1.1723 -0.4103 -1.0860
  870THF     H712444   0.776   2.344   2.052 -0.5702 -0.7305 -0.2212
  870THF     C812445   0.803   2.226   2.237  0.2975  0.0391  0.0996
  870THF     C912446   0.907   2.305   2.316 -0.3197 -0.2732  0.3869
  870THF    H1012447   0.853   2.146   2.184  0.4119 -0.4850  0.9674
  870THF    H1112448   0.728   2.181   2.302 -0.2962  1.2162  0.2719
  870THF    H1212449   0.888   2.300   2.424 -0.9274  2.2913  0.4650
  870THF    H1312450   1.007   2.266   2.298 -0.4385 -0.4527  0.1202
  871THF     O112451   3.350   0.666   3.500  0.3319  0.2300 -0.5240
  871THF     C212452   3.356   0.655   3.635  0.4842  0.4894 -0.4740
  871THF     C312453   3.449   0.757   3.453  0.2898  0.0529 -0.0782
  871THF     H412454   3.439   0.586   3.650 -1.3767 -1.8818 -0.3226
  871THF     H512455   3.270   0.602   3.677  1.0221 -0.7510 -0.8779
  871THF     H612456   3.540   0.702   3.426  0.0915 -0.8600  1.0704
  871THF     H712457   3.430   0.825   3.369 -0.3755  1.8566  1.4719
  871THF     C812458   3.478   0.852   3.570 -0.7560  0.4270  0.2825
  871THF     C912459   3.391   0.801   3.678  0.0061  0.4814 -0.2863
  871THF    H1012460   3.457   0.955   3.542 -1.4245  0.2132 -0.0168
  871THF    H1112461   3.584   0.846   3.592  0.3040 -1.3872 -4.3014
  871THF    H1212462   3.444   0.811   3.773 -1.0392 -1.2026  0.5316
  871THF    H1312463   3.298   0.853   3.702  0.1378  0.0390  1.3422
  872THF     O112464   1.349   1.348   0.840 -0.1272 -0.3695  0.7525
  872THF     C212465   1.335   1.476   0.909 -0.3815 -0.2803  0.1090
  872THF     C312466   1.287   1.360   0.713 -0.4456  0.1598 -0.4455
  872THF     H412467   1.409   1.543   0.864 -0.6042  0.1968  0.4432
  872THF     H512468   1.350   1.448   1.014  0.0575 -1.9179 -0.3692
  872THF     H612469   1.358   1.370   0.631  0.8999  0.1336  0.6782
  872THF     H712470   1.223   1.275   0.691 -1.3103  0.7225 -0.1321
  872THF     C812471   1.198   1.478   0.727 -0.0912 -0.3272  0.0298
  872THF     C912472   1.190   1.512   0.875  0.2265  0.9840  0.1600
  872THF    H1012473   1.102   1.463   0.680  0.1490 -1.4108 -0.1363
  872THF    H1112474   1.242   1.561   0.671 -1.0967 -0.1892 -0.5647
  872THF    H1212475   1.169   1.618   0.885  0.4115  0.8363  2.9622
  872THF    H1312476   1.123   1.441   0.923  0.5506  1.2280  0.9891
  873THF     O112477   1.475   0.587   2.160 -0.1244 -0.1719 -0.2720
  873THF     C212478   1.541   0.641   2.272 -0.3206  0.4830  0.2813
  873THF     C312479   1.579   0.530   2.072  0.1184  0.0576 -0.3227
  873THF     H412480   1.576   0.561   2.336  0.3483 -0.2169 -0.9299
  873THF     H512481   1.472   0.704   2.329  0.3270  0.5111  1.0401
  873THF     H612482   1.598   0.425   2.090 -1.5234 -0.9572 -3.7081
  873THF     H712483   1.543   0.527   1.969 -0.4220 -1.1122 -0.1078
  873THF     C812484   1.701   0.617   2.090  0.2616  0.0101 -0.3007
  873THF     C912485   1.664   0.711   2.210 -0.2644 -0.8096 -0.6239
  873THF    H1012486   1.703   0.683   2.002 -1.6562  0.9344  0.2992
  873THF    H1112487   1.792   0.559   2.102  0.5472  0.3524 -0.7353
  873THF    H1212488   1.753   0.722   2.272 -0.5617  1.9692 -0.5472
  873THF    H1312489   1.641   0.810   2.172  2.6916  0.4905  0.6541
  874THF     O112490   4.938   1.292   2.713  0.1930 -0.5109  0.0616
  874THF     C212491   4.856   1.203   2.633  0.2178  0.0285 -0.3744
  874THF     C312492   4.882   1.347   2.831  0.0397 -0.0906  0.4397
  874THF     H412493   4.905   1.115   2.592  0.1316  0.0738 -0.5748
  874THF     H512494   4.819   1.264   2.551  0.3959 -1.1479 -1.3597
  874THF     H612495   4.941   1.311   2.915  0.9453  0.1355 -0.0854
  874THF     H712496   4.889   1.455   2.833 -0.0737 -0.0927  1.0524
  874THF     C812497   4.742   1.300   2.816 -0.2276 -0.4036  0.1424
  874THF     C912498   4.745   1.171   2.740  1.1903  0.6005  0.1058
  874THF    H1012499   4.700   1.381   2.756  1.9583  0.4858 -0.3067
  874THF    H1112500   4.698   1.292   2.915 -2.2576  1.6562 -0.4900
  874THF    H1212501   4.777   1.086   2.801  1.3518 -0.4353 -1.3632
  874THF    H1312502   4.660   1.133   2.684  1.3260 -1.5730  1.2603
  875THF     O112503   0.642   4.522   4.370  0.5671 -0.1636  0.2501
  875THF     C212504   0.583   4.532   4.495  0.4055 -0.7782 -0.1376
  875THF     C312505   0.594   4.633   4.292  0.4779  0.5770  0.2752
  875THF     H412506   0.635   4.603   4.560 -2.1766  0.2586  0.9032
  875THF     H512507   0.597   4.434   4.540  1.3313 -0.4676  0.2898
  875THF     H612508   0.649   4.723   4.317  0.5779  0.2894  1.1534
  875THF     H712509   0.611   4.601   4.189  2.4387  1.3202  0.3234
  875THF     C812510   0.450   4.627   4.321  0.1730 -0.4159 -0.5249
  875THF     C912511   0.443   4.569   4.458 -0.5376 -0.2949  0.5317
  875THF    H1012512   0.387   4.566   4.256 -0.7535  0.0024 -0.0447
  875THF    H1112513   0.415   4.731   4.317  1.3554 -0.0319 -1.8758
  875THF    H1212514   0.392   4.640   4.523 -0.7505 -0.1260  0.1899
  875THF    H1312515   0.378   4.482   4.449  0.0028 -0.5122 -1.9672
  876THF     O112516   5.194   2.655   3.673  0.0729 -0.0487 -0.2812
  876THF     C212517   5.290   2.767   3.674  0.4250  0.4090  0.3385
  876THF     C312518   5.080   2.721   3.606 -0.0463 -0.0435  0.0819
  876THF     H412519   5.391   2.726   3.683 -0.2237 -1.6154 -0.9833
  876THF     H512520   5.258   2.844   3.745  0.1545 -0.4893  1.2163
  876THF     H612521   5.002   2.651   3.575 -0.5608  0.0270  1.1650
  876THF     H712522   5.040   2.784   3.684  1.6960 -0.3215  1.2636
  876THF     C812523   5.124   2.805   3.488 -0.2365 -0.6899  1.1181
  876THF     C912524   5.268   2.832   3.529 -0.4133 -0.1613 -0.0510
  876THF    H1012525   5.062   2.893   3.476 -0.7252 -1.2306 -0.5944
  876THF    H1112526   5.122   2.752   3.393  1.4271  0.9776  0.0854
  876THF    H1212527   5.342   2.794   3.458  1.4607  0.7202  1.3499
  876THF    H1312528   5.284   2.940   3.537 -2.1761  0.1743 -0.7427
  877THF     O112529   5.424   4.939   4.135 -0.4051  0.3261 -0.8071
  877THF     C212530   5.519   4.830   4.129  0.1815  0.5350 -0.3153
  877THF     C312531   5.494   5.023   4.227  0.0227 -0.1043 -1.0984
  877THF     H412532   5.597   4.843   4.053  0.2937  0.3579 -0.2303
  877THF     H512533   5.460   4.742   4.103 -0.6861  0.0028  3.0493
  877THF     H612534   5.573   5.085   4.185 -0.8905  1.0083 -1.2301
  877THF     H712535   5.429   5.101   4.268  1.1711  0.9063 -1.1312
  877THF     C812536   5.547   4.929   4.337 -0.4600 -0.3851  0.2177
  877THF     C912537   5.581   4.799   4.267 -0.0990  0.0863 -0.0302
  877THF    H1012538   5.465   4.908   4.406 -1.2008 -0.5287 -0.6861
  877THF    H1112539   5.633   4.973   4.387 -0.7967 -0.3322  0.7613
  877THF    H1212540   5.689   4.790   4.261  0.0198 -0.6541  2.2703
  877THF    H1312541   5.536   4.709   4.308  1.5111 -0.9959 -0.5072
  878THF     O112542   2.758   3.832   2.802  0.6552 -0.0149  0.4290
  878THF     C212543   2.735   3.939   2.704  0.6743  0.3723  0.1221
  878THF     C312544   2.690   3.874   2.919 -0.0277 -0.1654  0.0182
  878THF     H412545   2.754   3.902   2.604  1.3285 -0.3494  0.4986
  878THF     H512546   2.819   4.007   2.716  3.6565 -3.0451  0.3586
  878THF     H612547   2.670   3.789   2.984 -0.6698 -1.3479 -1.6636
  878THF     H712548   2.757   3.940   2.974 -0.9278  0.7695  0.0176
  878THF     C812549   2.569   3.952   2.872  0.2787  0.0896 -0.4717
  878THF     C912550   2.590   3.997   2.725 -0.0594  0.3514 -0.2955
  878THF    H1012551   2.551   4.045   2.925  1.1845  0.3838 -0.6538
  878THF    H1112552   2.477   3.895   2.886  0.7557 -0.5785  0.0215
  878THF    H1212553   2.506   3.946   2.678 -0.1882 -0.7542  1.0487
  878THF    H1312554   2.576   4.104   2.712 -2.0217  0.2767  0.8026
  879THF     O112555   1.452   3.035   5.439  0.0746  0.2122 -0.1004
  879THF     C212556   1.462   3.069   5.305  0.8475 -0.3471 -0.2392
  879THF     C312557   1.555   2.943   5.470  0.5946  0.0399 -0.0482
  879THF     H412558   1.477   3.177   5.291  2.3351 -0.4125  0.6125
  879THF     H512559   1.368   3.039   5.260 -1.2929  1.0926  2.9168
  879THF     H612560   1.602   2.946   5.568  0.6590 -3.6495  0.1647
  879THF     H712561   1.515   2.842   5.464  1.0109 -0.1125 -0.3264
  879THF     C812562   1.665   2.960   5.364  0.2708  0.0692  0.4569
  879THF     C912563   1.580   2.991   5.244 -0.4848 -0.5198  0.3299
  879THF    H1012564   1.726   2.870   5.351 -0.7614 -0.6357  0.3762
  879THF    H1112565   1.726   3.045   5.396  1.0151 -0.7549  1.2948
  879THF    H1212566   1.639   3.054   5.177 -2.2120  1.8493  0.8823
  879THF    H1312567   1.537   2.909   5.187 -0.5256  0.2884 -0.8483
  880THF     O112568   3.927   2.859   1.446 -0.6448 -0.2193  0.2728
  880THF     C212569   4.057   2.883   1.508  0.0379 -0.4662  0.3657
  880THF     C312570   3.849   2.982   1.451  0.2939  0.4874 -0.1043
  880THF     H412571   4.129   2.874   1.427  0.0054 -2.7817  0.5383
  880THF     H512572   4.096   2.804   1.571  1.4734 -2.2493 -2.5600
  880THF     H612573   3.783   3.006   1.367  1.1786  0.8282 -0.7271
  880THF     H712574   3.799   2.985   1.547  2.2985  0.3858  0.9994
  880THF     C812575   3.955   3.093   1.471  0.6748 -0.2172 -0.0402
  880THF     C912576   4.048   3.020   1.564  0.3906 -0.4047  0.1226
  880THF    H1012577   3.917   3.180   1.524 -0.6255 -0.6595 -0.2033
  880THF    H1112578   4.007   3.126   1.381  1.2893 -0.9021  0.0553
  880THF    H1212579   4.152   3.050   1.561  0.4812 -0.7544 -0.6979
  880THF    H1312580   4.018   3.014   1.668  2.5688 -1.0410  0.7700
  881THF     O112581   2.348   2.945   2.893  0.0940 -0.0173 -0.1853
  881THF     C212582   2.286   2.952   2.765 -0.0476  0.6040  0.4616
  881THF     C312583   2.265   2.869   2.979 -0.3034  0.5150  0.0154
  881THF     H412584   2.334   2.865   2.720 -0.0304  0.1757  1.2915
  881THF     H512585   2.325   3.041   2.716 -0.7751  1.0151  0.6175
  881THF     H612586   2.271   2.767   2.941  0.2608  0.5874 -0.0995
  881THF     H712587   2.297   2.879   3.082  0.5815  2.3563 -0.3931
  881THF     C812588   2.128   2.928   2.946 -0.2705 -0.3778 -0.7916
  881THF     C912589   2.135   2.951   2.797  0.3509  0.1488  0.0551
  881THF    H1012590   2.114   3.021   3.001  0.1234 -1.5404  1.3891
  881THF    H1112591   2.041   2.867   2.971 -2.6983  1.8357 -3.1965
  881THF    H1212592   2.081   2.877   2.738 -1.0901  0.5863  0.7760
  881THF    H1312593   2.091   3.045   2.764  1.0241 -0.2477 -2.1150
  882THF     O112594   2.768   3.524   0.142 -0.3229 -0.2567 -0.2964
  882THF     C212595   2.817   3.546   0.013  0.3384 -0.2714  0.2678
  882THF     C312596   2.678   3.630   0.177  0.4859  0.2153 -0.4581
  882THF     H412597   2.769   3.477  -0.056  0.3339  0.7856 -0.8362
  882THF     H512598   2.926   3.543   0.010  0.3603  0.4210  0.2041
  882THF     H612599   2.591   3.599   0.234 -0.4146 -0.2506 -2.0115
  882THF     H712600   2.742   3.690   0.242  0.2250  0.5136 -0.4786
  882THF     C812601   2.644   3.708   0.056 -0.3427 -0.2010  0.1768
  882THF     C912602   2.773   3.685  -0.021  0.4046 -0.4411  0.1225
  882THF    H1012603   2.638   3.816   0.071 -1.2199 -0.1026 -0.7682
  882THF    H1112604   2.556   3.670   0.004  0.5485 -1.8391 -0.1823
  882THF    H1212605   2.757   3.697  -0.128 -0.6734  0.2774  0.3489
  882THF    H1312606   2.852   3.748   0.017 -0.1682 -0.3805  1.2620
  883THF     O112607   1.514   2.597   1.790 -0.3694  0.5662  0.5380
  883THF     C212608   1.465   2.539   1.670 -0.3592 -0.4400 -0.3355
  883THF     C312609   1.579   2.719   1.751 -0.1356  0.0533 -0.4995
  883THF     H412610   1.361   2.569   1.659 -0.1621  2.4161  3.5848
  883THF     H512611   1.469   2.430   1.674 -2.3665 -0.7846 -3.6626
  883THF     H612612   1.520   2.803   1.788  0.3780 -0.4988  1.7756
  883THF     H712613   1.685   2.715   1.777 -0.3985 -1.4183  0.5056
  883THF     C812614   1.578   2.725   1.596 -0.5967 -0.1530 -0.4158
  883THF     C912615   1.556   2.583   1.556  0.0028  0.3831  0.4681
  883THF    H1012616   1.676   2.752   1.556 -1.3459  0.8205 -1.6259
  883THF    H1112617   1.498   2.791   1.565 -0.8721 -0.6948 -0.8819
  883THF    H1212618   1.534   2.550   1.454  1.3347  0.9467 -0.0240
  883THF    H1312619   1.649   2.530   1.575 -0.6677 -1.2050 -0.4918
  884THF     O112620   1.577   2.251   1.213  0.3876  0.4779 -0.4178
  884THF     C212621   1.640   2.257   1.087  0.3437  0.7718 -0.1523
  884THF     C312622   1.664   2.300   1.315 -1.4560  0.2425  1.0771
  884THF     H412623   1.571   2.280   1.006 -1.4964 -0.3756  0.9973
  884THF     H512624   1.674   2.156   1.063  0.2508  0.5849  0.4592
  884THF     H612625   1.609   2.350   1.395  0.8545  1.8628  1.7850
  884THF     H712626   1.731   2.219   1.344 -1.4665 -0.1816 -0.0357
  884THF     C812627   1.744   2.410   1.246  0.5301  0.8906 -0.1347
  884THF     C912628   1.747   2.359   1.099 -0.2422 -0.2096  0.0298
  884THF    H1012629   1.848   2.414   1.278  0.4833  0.2088  0.1127
  884THF    H1112630   1.694   2.506   1.256 -0.7572  0.2495 -0.1624
  884THF    H1212631   1.731   2.445   1.034  2.1802 -0.7275 -1.3886
  884THF    H1312632   1.848   2.323   1.079  0.3060  1.2440  0.0897
  885THF     O112633   4.118   0.464   2.127 -0.0900  0.4868 -0.3733
  885THF     C212634   4.037   0.499   2.019 -0.6584 -0.4833 -0.4399
  885THF     C312635   4.040   0.366   2.193  0.7128  0.1474 -0.5806
  885THF     H412636   4.051   0.425   1.940 -0.0548 -1.7356  0.8007
  885THF     H512637   4.064   0.597   1.978 -0.2409 -0.8699 -1.1106
  885THF     H612638   4.031   0.276   2.133 -1.7254 -1.0856  1.4705
  885THF     H712639   4.078   0.334   2.290 -0.3434  1.2534  0.2256
  885THF     C812640   3.893   0.420   2.194  0.4271 -0.1800  0.0744
  885THF     C912641   3.891   0.495   2.062 -0.3126 -0.3906  0.7408
  885THF    H1012642   3.876   0.493   2.273 -4.0427 -0.2445 -0.6211
  885THF    H1112643   3.816   0.344   2.206 -0.7870  1.1232  0.8262
  885THF    H1212644   3.831   0.441   1.988  3.1667 -3.3508 -0.2277
  885THF    H1312645   3.840   0.591   2.071  1.1519  0.4563  0.2724
  886THF     O112646   4.165   3.767   1.969  0.2074  0.2299 -0.0502
  886THF     C212647   4.157   3.862   2.068  0.6079 -0.3850 -0.2227
  886THF     C312648   4.271   3.794   1.882  0.4024 -1.1052  0.2393
  886THF     H412649   4.112   3.829   2.162 -0.6745  0.3450 -0.5595
  886THF     H512650   4.091   3.944   2.041 -0.3736 -1.3797 -0.8873
  886THF     H612651   4.335   3.706   1.872  2.7381  0.6447 -1.4710
  886THF     H712652   4.243   3.811   1.778 -1.0582 -0.0654  0.7750
  886THF     C812653   4.344   3.918   1.938 -0.3415  0.5220  1.1475
  886THF     C912654   4.293   3.922   2.077  0.0625  0.2525 -0.0895
  886THF    H1012655   4.297   4.002   1.886 -2.7541 -0.7505  1.1380
  886THF    H1112656   4.452   3.919   1.935 -0.3142 -1.2290 -1.3561
  886THF    H1212657   4.364   3.864   2.136 -0.3674 -0.3231 -0.1386
  886THF    H1312658   4.288   4.026   2.110  0.4433  0.4590 -0.6658
  887THF     O112659   2.897   1.912   4.611 -0.3926  0.3338  0.6356
  887THF     C212660   2.838   1.795   4.666  0.4669  0.1604 -0.0289
  887THF     C312661   2.804   2.015   4.621 -0.6615 -0.0826  0.7056
  887THF     H412662   2.917   1.731   4.704  1.3926  1.8582  1.0547
  887THF     H512663   2.787   1.756   4.578 -0.1522 -0.6914  0.6977
  887THF     H612664   2.842   2.103   4.674 -0.5200  1.0654 -1.1929
  887THF     H712665   2.760   2.035   4.523 -2.4322 -1.0944  1.2591
  887THF     C812666   2.687   1.958   4.708 -0.5008  0.0385  0.1044
  887THF     C912667   2.743   1.837   4.770  0.3210  0.1670 -0.3697
  887THF    H1012668   2.603   1.923   4.648  1.1456 -1.7172 -1.3130
  887THF    H1112669   2.649   2.032   4.779  0.5803  0.4400  0.2737
  887THF    H1212670   2.801   1.850   4.861  0.9075 -2.6739 -0.2560
  887THF    H1312671   2.671   1.766   4.809  1.9650 -1.5697 -0.3516
  888THF     O112672   3.585   5.062   4.751 -0.3266 -0.0618 -0.3049
  888THF     C212673   3.503   5.021   4.864 -0.3221 -0.4233 -0.5408
  888THF     C312674   3.706   5.095   4.807  0.1152  0.1309 -0.0538
  888THF     H412675   3.537   4.918   4.879  0.7107  0.1565  1.4477
  888THF     H512676   3.399   5.014   4.832  0.1124 -0.7593 -1.9476
  888THF     H612677   3.768   5.009   4.833  1.7423  0.9175 -1.1398
  888THF     H712678   3.770   5.142   4.733  2.2028 -3.0686 -0.4681
  888THF     C812679   3.667   5.176   4.932 -0.5381 -0.1697 -0.6970
  888THF     C912680   3.541   5.102   4.985 -0.1293  0.7599  0.8298
  888THF    H1012681   3.630   5.273   4.897  0.5082 -0.8702 -4.0791
  888THF    H1112682   3.746   5.214   4.998 -1.6642  2.0576 -0.5206
  888THF    H1212683   3.557   5.024   5.060 -0.2503  1.1863  1.3062
  888THF    H1312684   3.464   5.163   5.031 -1.5793 -0.6834  0.4022
  889THF     O112685   3.792   4.663   3.046 -0.0122 -0.2798 -0.6383
  889THF     C212686   3.683   4.710   3.121 -0.3994 -0.0249  0.4147
  889THF     C312687   3.891   4.631   3.134  0.0392  0.5761  0.1030
  889THF     H412688   3.595   4.705   3.057  1.0284 -2.1483 -1.5567
  889THF     H512689   3.701   4.817   3.131  1.1144 -0.2452  0.3251
  889THF     H612690   3.970   4.568   3.094 -0.5011 -0.2973  0.3817
  889THF     H712691   3.946   4.722   3.159  1.8176 -0.1123 -1.0950
  889THF     C812692   3.822   4.561   3.253  0.5210  0.0982  0.7737
  889THF     C912693   3.683   4.626   3.253 -0.2906 -0.0556 -0.2023
  889THF    H1012694   3.868   4.579   3.350 -0.7766  0.6120  1.3159
  889THF    H1112695   3.812   4.454   3.237 -0.8215  0.3445 -0.1665
  889THF    H1212696   3.600   4.556   3.264  0.2807 -0.6800  0.2159
  889THF    H1312697   3.686   4.692   3.340  0.8580  0.5076 -0.6435
  890THF     O112698   5.046   5.237   1.416  0.4747 -0.2017 -0.5992
  890THF     C212699   4.925   5.271   1.480  0.1849 -0.3432 -0.6326
  890THF     C312700   5.052   5.096   1.404  0.2755  0.4266  0.2656
  890THF     H412701   4.896   5.376   1.485 -0.7593 -0.6050 -0.4291
  890THF     H512702   4.937   5.257   1.588  1.6181  0.3057 -0.6827
  890THF     H612703   5.129   5.045   1.346 -0.7169 -1.2733  0.3776
  890THF     H712704   5.072   5.051   1.501 -0.6100  0.9363  0.6934
  890THF     C812705   4.911   5.065   1.360 -0.1586  0.0765 -0.1837
  890THF     C912706   4.821   5.175   1.423 -0.3991  0.1111  0.4611
  890THF    H1012707   4.879   4.966   1.394 -0.4933 -1.2086 -3.7389
  890THF    H1112708   4.906   5.065   1.251 -1.4492  1.2562 -0.1425
  890THF    H1212709   4.767   5.227   1.344 -1.2460  0.9667  1.5611
  890THF    H1312710   4.746   5.138   1.493 -0.1707 -1.3249 -0.0238
  891THF     O112711   0.547   4.593   5.381 -0.5008  0.4767 -0.4527
  891THF     C212712   0.524   4.734   5.387 -0.1482 -0.0648  0.1521
  891THF     C312713   0.682   4.558   5.402  0.2634 -1.3976 -0.4866
  891THF     H412714   0.454   4.760   5.466  1.9132 -2.2974  2.9113
  891THF     H512715   0.492   4.758   5.285 -0.5778  1.7169  0.6681
  891THF     H612716   0.699   4.532   5.506 -0.7246 -0.6835 -0.1320
  891THF     H712717   0.717   4.477   5.338  1.2204 -0.1465 -1.6123
  891THF     C812718   0.762   4.687   5.361  0.2660 -0.4637  0.2824
  891THF     C912719   0.667   4.797   5.406 -0.4478  0.2446 -0.6492
  891THF    H1012720   0.777   4.695   5.253 -1.2908 -2.5220 -0.1416
  891THF    H1112721   0.862   4.687   5.404  0.4976  1.7083 -0.1224
  891THF    H1212722   0.679   4.799   5.514 -1.3854  0.7191 -0.5413
  891THF    H1312723   0.675   4.900   5.370 -1.7686  0.8439  0.6793
  892THF     O112724   1.360   4.784   1.051 -0.0556 -0.1738  0.5431
  892THF     C212725   1.266   4.809   1.154  0.5530 -0.0137 -0.3100
  892THF     C312726   1.473   4.718   1.105 -0.3852  0.8077  0.2570
  892THF     H412727   1.166   4.784   1.120  0.8971  0.4933 -1.7971
  892THF     H512728   1.280   4.911   1.190  1.2153  0.1861 -1.1105
  892THF     H612729   1.513   4.672   1.015  0.9397  1.5664  0.4175
  892THF     H712730   1.544   4.792   1.142  0.9409  0.6467 -1.7955
  892THF     C812731   1.409   4.625   1.208  0.2120  0.2017  0.4409
  892THF     C912732   1.305   4.712   1.268 -0.4995  0.5713  0.3825
  892THF    H1012733   1.469   4.566   1.277  0.8106  0.5363  0.2165
  892THF    H1112734   1.351   4.554   1.149 -0.3311 -0.1562  1.3815
  892THF    H1212735   1.215   4.653   1.285 -2.1743  2.8869 -0.0050
  892THF    H1312736   1.331   4.764   1.361 -2.0032  0.6476  0.7857
  893THF     O112737   5.298   3.313   4.042  0.7402  0.1899 -0.1479
  893THF     C212738   5.220   3.237   3.947 -0.5220  0.0928 -0.3820
  893THF     C312739   5.398   3.378   3.964  0.3480  0.0420 -0.2648
  893THF     H412740   5.120   3.215   3.984  0.0540  0.3215  1.4327
  893THF     H512741   5.264   3.143   3.915 -1.0692 -1.1635  2.3170
  893THF     H612742   5.456   3.453   4.018 -0.4756  1.4424 -1.2657
  893THF     H712743   5.461   3.298   3.923  1.0140  0.5014 -0.1451
  893THF     C812744   5.329   3.417   3.841  0.1826 -0.0588  0.0356
  893THF     C912745   5.208   3.327   3.834  0.6860 -0.2101  0.1538
  893THF    H1012746   5.380   3.401   3.746 -1.9713  1.5676 -1.5051
  893THF    H1112747   5.300   3.522   3.854  2.3749  0.3760  2.3439
  893THF    H1212748   5.115   3.384   3.828  1.0130  0.1732 -1.7635
  893THF    H1312749   5.194   3.271   3.741 -2.3248 -1.1210  1.0169
  894THF     O112750   4.458   2.069   3.765 -0.0932  0.0185 -0.3019
  894THF     C212751   4.524   1.950   3.737 -0.3268  0.0479  0.0574
  894THF     C312752   4.560   2.164   3.794  0.0025  0.6403  0.3410
  894THF     H412753   4.474   1.893   3.659 -1.8032  1.0687  0.2156
  894THF     H512754   4.552   1.910   3.835  1.0271  0.3413 -0.1794
  894THF     H612755   4.510   2.260   3.800 -0.1488  0.7328 -1.7704
  894THF     H712756   4.618   2.134   3.881  0.4802  1.3465  0.2701
  894THF     C812757   4.651   2.143   3.670 -1.1467  0.4824 -0.7502
  894THF     C912758   4.646   1.988   3.655  0.1708 -0.7450 -0.4273
  894THF    H1012759   4.752   2.179   3.689 -0.1378 -2.8970  1.0041
  894THF    H1112760   4.607   2.191   3.583 -1.6496  1.1201 -0.1600
  894THF    H1212761   4.645   1.962   3.549  1.8601  0.0061 -0.6528
  894THF    H1312762   4.728   1.934   3.701  0.0606 -0.5294  0.0349
  895THF     O112763   0.203   2.562   3.527  0.5678  0.2165 -0.5588
  895THF     C212764   0.255   2.547   3.660 -0.7825  0.5359  0.3332
  895THF     C312765   0.317   2.582   3.438 -0.4128  0.1488 -0.5963
  895THF     H412766   0.277   2.440   3.670  0.7684  0.8023  0.0830
  895THF     H512767   0.178   2.582   3.729 -0.4734 -1.7559  1.9948
  895THF     H612768   0.326   2.487   3.386  2.7759  0.3790 -0.7074
  895THF     H712769   0.298   2.663   3.367  0.1306  1.8927  1.1496
  895THF     C812770   0.444   2.609   3.516  1.1330 -0.6396 -0.2297
  895THF     C912771   0.382   2.625   3.650 -1.4788 -0.5795 -0.4251
  895THF    H1012772   0.490   2.700   3.477  1.1462 -1.0011 -1.0943
  895THF    H1112773   0.514   2.525   3.519  0.4260 -1.2438 -0.2959
  895THF    H1212774   0.446   2.604   3.735 -2.2954 -0.9608  0.1162
  895THF    H1312775   0.356   2.729   3.667  0.3566 -0.0486 -0.6955
  896THF     O112776   2.421   0.433   0.271  0.0220  0.4235  0.6224
  896THF     C212777   2.365   0.531   0.357  0.4377 -0.5912  0.0301
  896THF     C312778   2.508   0.506   0.190 -0.3343  0.2135  0.4741
  896THF     H412779   2.421   0.534   0.451  0.4179 -1.0148  0.0578
  896THF     H512780   2.265   0.502   0.387 -0.0556  0.7690 -0.2305
  896THF     H612781   2.604   0.510   0.240 -1.7511 -0.4981  3.4837
  896THF     H712782   2.502   0.455   0.093 -0.2903 -0.9692  1.0689
  896THF     C812783   2.440   0.642   0.172  0.6700  0.2454  0.2015
  896THF     C912784   2.353   0.662   0.288 -0.7987 -0.5590  0.2572
  896THF    H1012785   2.381   0.644   0.080  0.5311  2.0528  0.2866
  896THF    H1112786   2.512   0.723   0.166 -0.2169  1.3069  2.6563
  896THF    H1212787   2.391   0.742   0.353  1.6015 -0.2212 -1.4392
  896THF    H1312788   2.251   0.689   0.263 -0.8594  0.7349  1.7150
  897THF     O112789   5.295   1.620   1.174  0.2268  0.4998 -0.5385
  897THF     C212790   5.179   1.547   1.153 -0.5531  0.6974  1.0714
  897THF     C312791   5.356   1.639   1.054  0.2126 -0.0929  0.5443
  897THF     H412792   5.104   1.583   1.224 -0.1917  1.9526  0.8419
  897THF     H512793   5.186   1.441   1.178 -0.9043  0.7005  1.1887
  897THF     H612794   5.421   1.726   1.058 -1.3087  1.0579  3.0568
  897THF     H712795   5.421   1.554   1.032  1.5931  0.0228  3.6554
  897THF     C812796   5.231   1.666   0.959 -0.6819  0.0642  0.1922
  897THF     C912797   5.127   1.573   1.009 -0.4301  0.4309  0.3649
  897THF    H1012798   5.252   1.645   0.854 -1.1289  3.7320 -0.7781
  897THF    H1112799   5.212   1.773   0.968  0.8712  0.4493 -0.7507
  897THF    H1212800   5.025   1.614   1.007 -0.2471  0.8746 -0.5882
  897THF    H1312801   5.140   1.481   0.953 -0.3780  0.4705  0.3120
  898THF     O112802   0.754   0.103   4.212  0.2867 -0.0606  0.5526
  898THF     C212803   0.827   0.088   4.087  0.6030  0.5269  0.1987
  898THF     C312804   0.843   0.070   4.312 -0.4161  0.1648  0.1486
  898THF     H412805   0.881   0.182   4.092  0.7189  0.4444  0.4770
  898THF     H512806   0.762   0.096   3.999 -1.4639 -0.9999  1.4850
  898THF     H612807   0.893   0.160   4.348 -0.1510 -0.6224  1.8635
  898THF     H712808   0.791   0.036   4.402  1.4807 -1.9476  0.5360
  898THF     C812809   0.947  -0.026   4.253 -0.2205 -0.4248 -0.7484
  898THF     C912810   0.917  -0.034   4.106 -0.1968 -0.1335 -0.0785
  898THF    H1012811   0.944  -0.124   4.301  1.0213 -0.2191 -0.2025
  898THF    H1112812   1.047   0.015   4.273 -0.8980  1.2873 -0.6970
  898THF    H1212813   1.005  -0.037   4.041  0.2217 -0.6862  0.5029
  898THF    H1312814   0.861  -0.125   4.086 -0.1489 -0.6546  1.9726
  899THF     O112815   2.303   5.227   1.453  0.0356  0.1724  0.1003
  899THF     C212816   2.346   5.212   1.318 -0.2307 -0.5341  0.3877
  899THF     C312817   2.164   5.224   1.464 -0.5435  0.3397  0.4589
  899THF     H412818   2.389   5.113   1.307 -0.7790 -0.7014 -0.3061
  899THF     H512819   2.431   5.276   1.292  0.9946 -2.5138 -0.7183
  899THF     H612820   2.133   5.138   1.524 -2.0687 -1.3015 -2.4657
  899THF     H712821   2.116   5.313   1.506 -2.5852 -0.0181 -0.9414
  899THF     C812822   2.113   5.201   1.321 -0.1752  0.5326 -0.1996
  899THF     C912823   2.225   5.241   1.231 -0.1287 -0.3347  0.2888
  899THF    H1012824   2.017   5.250   1.306 -0.1598  1.2867  1.8673
  899THF    H1112825   2.101   5.092   1.320 -3.5327  0.7674  1.2484
  899THF    H1212826   2.225   5.193   1.133  1.3893 -0.1820  0.1861
  899THF    H1312827   2.222   5.345   1.197 -2.1557 -0.1753  0.8145
  900THF     O112828   0.382   3.796   2.426 -0.1574 -0.2518  0.2957
  900THF     C212829   0.403   3.736   2.554 -0.2311  0.1851  0.1070
  900THF     C312830   0.494   3.872   2.397  0.5207 -0.4990 -0.5328
  900THF     H412831   0.465   3.646   2.548 -0.8147 -0.1311 -1.5573
  900THF     H512832   0.307   3.719   2.602  0.1957  0.2145  0.9935
  900THF     H612833   0.573   3.803   2.368  0.3267 -0.6699 -0.6603
  900THF     H712834   0.477   3.941   2.313 -1.4469 -1.2728 -0.8200
  900THF     C812835   0.541   3.938   2.523  0.3127  0.5917 -0.1778
  900THF     C912836   0.485   3.844   2.630 -0.0727  0.2214 -0.0139
  900THF    H1012837   0.488   4.033   2.531 -0.4595  0.1077  0.6192
  900THF    H1112838   0.647   3.960   2.536  0.0248  2.5560 -0.7753
  900THF    H1212839   0.546   3.801   2.709  1.3528 -0.8844 -1.6544
  900THF    H1312840   0.402   3.896   2.678  0.5499 -0.4113  1.7991
  901THF     O112841   3.076   2.349   2.722 -0.2004 -0.8655 -0.3549
  901THF     C212842   2.943   2.396   2.730  0.8833 -0.2838 -0.7856
  901THF     C312843   3.123   2.336   2.855 -0.1826 -0.2956 -0.3142
  901THF     H412844   2.890   2.390   2.635  1.8647 -1.0729 -1.2993
  901THF     H512845   2.937   2.500   2.763  0.9650 -1.3638  3.2237
  901THF     H612846   3.209   2.270   2.869 -0.0601  0.1443  1.1506
  901THF     H712847   3.150   2.436   2.887 -2.3250 -0.2739  1.7026
  901THF     C812848   2.997   2.284   2.940  0.1037  0.0128  0.4664
  901THF     C912849   2.888   2.301   2.841  0.9878 -0.3698  0.6678
  901THF    H1012850   2.980   2.334   3.036  0.2533  0.0175  0.4912
  901THF    H1112851   3.000   2.176   2.955 -1.9631 -0.3661 -1.3717
  901THF    H1212852   2.858   2.215   2.782  0.7256  0.4783 -0.4620
  901THF    H1312853   2.806   2.352   2.892  0.0614  0.2235 -1.3258
  902THF     O112854   2.856   1.333   0.746  0.3565 -0.3873  0.3161
  902THF     C212855   2.878   1.267   0.867 -0.5552 -0.3633 -0.2660
  902THF     C312856   2.974   1.417   0.727  0.2267 -0.2531 -0.0229
  902THF     H412857   2.958   1.194   0.868  0.9678  1.2136  1.9327
  902THF     H512858   2.789   1.214   0.901  0.0136 -1.7020 -0.7903
  902THF     H612859   3.046   1.352   0.678 -0.9409 -0.6583 -1.2597
  902THF     H712860   2.946   1.507   0.674 -0.1674 -0.2100  0.2506
  902THF     C812861   3.021   1.455   0.866 -0.1846  0.2982  0.8148
  902THF     C912862   2.922   1.374   0.959 -0.0129  0.1632  0.0442
  902THF    H1012863   3.006   1.561   0.889 -1.1549  0.6724 -1.2810
  902THF    H1112864   3.125   1.424   0.876  0.1634  1.5088  1.2374
  902THF    H1212865   2.972   1.327   1.044 -1.7226 -2.8204 -0.4513
  902THF    H1312866   2.845   1.438   1.000 -0.2744 -0.3990  0.4451
  903THF     O112867   3.658   3.845   2.594  0.0805  0.0998  0.2494
  903THF     C212868   3.588   3.960   2.625 -0.4340  0.1622 -0.0910
  903THF     C312869   3.789   3.851   2.660  0.0542 -0.3325 -0.2053
  903THF     H412870   3.561   3.963   2.731  2.2642 -0.4249  0.6858
  903THF     H512871   3.498   3.976   2.567  0.0691  1.0717 -0.6404
  903THF     H612872   3.781   3.829   2.766  0.9720 -1.0702 -0.2720
  903THF     H712873   3.871   3.792   2.618 -0.0165  0.0949 -0.9569
  903THF     C812874   3.822   3.996   2.634 -0.3232  0.1491  0.0626
  903THF     C912875   3.694   4.063   2.597 -0.0930  0.1787 -0.3079
  903THF    H1012876   3.904   4.010   2.564 -0.8643  0.8877 -0.4391
  903THF    H1112877   3.866   4.034   2.726 -0.3476 -2.9002  1.4581
  903THF    H1212878   3.687   4.161   2.645  0.9786  0.3666 -0.5115
  903THF    H1312879   3.694   4.090   2.491  1.3724 -2.4678 -1.0660
  904THF     O112880   1.064   4.469   3.255  0.3187  0.3196 -0.4518
  904THF     C212881   0.933   4.523   3.241 -0.4548  0.0776  0.1335
  904THF     C312882   1.060   4.330   3.279 -0.0566 -0.2625 -0.0777
  904THF     H412883   0.924   4.550   3.136 -0.1093  0.1633  0.1262
  904THF     H512884   0.919   4.616   3.294 -3.8648  1.6507 -3.0493
  904THF     H612885   1.059   4.278   3.183 -2.0502 -1.0361  0.3302
  904THF     H712886   1.145   4.290   3.334  0.3602 -0.3311 -0.7576
  904THF     C812887   0.925   4.305   3.338 -0.3886  0.2289 -0.5667
  904THF     C912888   0.832   4.415   3.279  0.7831  0.0316 -0.6871
  904THF    H1012889   0.940   4.317   3.445  0.5272 -1.2711 -0.4930
  904THF    H1112890   0.883   4.208   3.311  1.5916 -0.6738 -0.5572
  904THF    H1212891   0.778   4.383   3.190  0.4479 -1.2905 -0.0450
  904THF    H1312892   0.756   4.450   3.350  0.2217 -1.1426 -0.6793
  905THF     O112893   0.476   4.415   4.932 -0.0089  0.6972  0.0115
  905THF     C212894   0.518   4.510   5.027  0.7152  0.5916 -0.8126
  905THF     C312895   0.387   4.471   4.840  0.0821  0.3648  0.2851
  905THF     H412896   0.603   4.486   5.091 -0.5606 -0.5526  0.5292
  905THF     H512897   0.436   4.527   5.098  1.4508 -2.0951  0.8443
  905THF     H612898   0.393   4.414   4.747 -0.1241  0.8162 -0.0078
  905THF     H712899   0.285   4.470   4.878 -0.3151 -0.0831 -0.7455
  905THF     C812900   0.433   4.615   4.828  0.0965 -0.4737  0.3057
  905THF     C912901   0.547   4.622   4.932  0.0673  0.6896 -0.0485
  905THF    H1012902   0.353   4.683   4.857 -0.0104  0.0658 -1.1486
  905THF    H1112903   0.472   4.641   4.729  0.3459  0.6906  0.6993
  905THF    H1212904   0.634   4.601   4.869 -1.3553  0.3527 -1.9836
  905THF    H1312905   0.562   4.719   4.981 -2.3839  1.3702 -0.5032
  906THF     O112906   0.319   1.856   1.998 -0.5670 -0.1806 -0.1635
  906THF     C212907   0.391   1.980   2.021 -0.3834  0.9682  0.0444
  906THF     C312908   0.321   1.782   2.123  0.4884  0.0249 -0.3200
  906THF     H412909   0.375   2.064   1.954  0.3609  1.4976  0.5133
  906THF     H512910   0.497   1.959   2.002 -1.2695 -1.7708 -2.5557
  906THF     H612911   0.243   1.707   2.133  2.5805 -2.3192 -0.4138
  906THF     H712912   0.419   1.735   2.134  0.1803 -0.8017 -1.0056
  906THF     C812913   0.291   1.894   2.225 -0.0754  0.0096 -0.1969
  906THF     C912914   0.351   2.021   2.161  0.1133 -0.1031  0.5120
  906THF    H1012915   0.336   1.874   2.323  0.5404 -0.2691 -0.5326
  906THF    H1112916   0.183   1.900   2.235 -0.2604 -2.3993 -0.2591
  906THF    H1212917   0.269   2.093   2.153  0.3039 -0.0009 -0.5771
  906THF    H1312918   0.433   2.067   2.217 -0.8162 -0.3285  2.1261
  907THF     O112919   5.028   2.407   1.801 -0.2472  0.0772 -0.1035
  907THF     C212920   4.947   2.510   1.748 -0.0097 -0.1850 -0.3746
  907THF     C312921   5.025   2.412   1.941 -0.2752 -0.0434  0.1369
  907THF     H412922   4.844   2.479   1.759  0.0435 -0.0336  0.6725
  907THF     H512923   4.954   2.515   1.639 -0.2110 -0.9490 -0.4225
  907THF     H612924   4.930   2.376   1.979 -0.5422  0.6539  0.1486
  907THF     H712925   5.112   2.369   1.991 -0.1458  0.1756  0.1010
  907THF     C812926   5.028   2.563   1.970  0.1623  0.1136 -0.6483
  907THF     C912927   4.984   2.636   1.840 -0.1446 -0.1720 -0.6910
  907THF    H1012928   5.128   2.602   1.989 -0.0373  0.5989 -0.5627
  907THF    H1112929   4.971   2.591   2.059  2.1406  0.0672  0.7027
  907THF    H1212930   4.906   2.713   1.839 -1.4168 -1.3965 -0.1992
  907THF    H1312931   5.073   2.689   1.806  0.4196 -0.2058  0.6630
  908THF     O112932   1.345   3.009   2.096 -0.7325  0.4233  0.0406
  908THF     C212933   1.279   2.910   2.194 -0.0048  0.0361  0.0610
  908THF     C312934   1.312   2.964   1.967 -0.3610  0.5493 -0.6751
  908THF     H412935   1.251   2.974   2.277 -0.1380  1.6484 -1.1763
  908THF     H512936   1.346   2.825   2.208  0.4275  0.5275  1.0648
  908THF     H612937   1.328   3.039   1.890 -1.8591  0.4149 -1.1537
  908THF     H712938   1.378   2.878   1.957 -1.7328 -0.7444  0.7313
  908THF     C812939   1.168   2.916   1.983 -0.4568  0.3181 -0.0696
  908THF     C912940   1.158   2.855   2.124 -0.0999 -0.3835  0.4614
  908THF    H1012941   1.147   2.844   1.904 -3.1076  0.6984  0.2060
  908THF    H1112942   1.100   2.998   1.964  1.5275  2.3679  1.1845
  908THF    H1212943   1.075   2.889   2.186  0.4651  1.1256  0.4381
  908THF    H1312944   1.158   2.746   2.118 -0.8947 -0.3066 -2.8020
  909THF     O112945   1.269   2.395   1.221 -0.3850  0.0770  0.4461
  909THF     C212946   1.291   2.499   1.125 -0.7833 -0.8770  0.1123
  909THF     C312947   1.185   2.454   1.319 -0.2200 -0.1567 -0.3861
  909THF     H412948   1.198   2.520   1.070 -0.3543 -0.2694 -0.4001
  909THF     H512949   1.374   2.489   1.055  0.0423 -0.8065  1.0765
  909THF     H612950   1.084   2.434   1.284 -0.5461  0.1327  0.3478
  909THF     H712951   1.186   2.414   1.421  0.4454  2.0325  0.5445
  909THF     C812952   1.219   2.603   1.326 -0.1577  0.2605 -0.4462
  909THF     C912953   1.320   2.617   1.213 -0.3344  0.7228  1.0588
  909THF    H1012954   1.274   2.637   1.414 -0.6574  2.9377 -1.0809
  909THF    H1112955   1.133   2.666   1.305  0.1200  1.3436  1.4400
  909THF    H1212956   1.304   2.708   1.155  0.7357 -0.6083 -1.5063
  909THF    H1312957   1.426   2.623   1.241 -0.2285 -3.5595  2.2930
  910THF     O112958   3.843   2.585   3.990 -0.4290 -0.0661 -0.3447
  910THF     C212959   3.740   2.500   4.050 -0.1872  0.3284 -0.0748
  910THF     C312960   3.817   2.571   3.853  0.6816 -0.9844  0.2333
  910THF     H412961   3.637   2.536   4.042 -0.7884 -1.1143  0.7015
  910THF     H512962   3.757   2.476   4.155  0.6608 -0.6297 -0.4102
  910THF     H612963   3.742   2.635   3.808  1.9805  1.3107  1.1765
  910THF     H712964   3.909   2.596   3.799  0.7162 -0.5799  0.4754
  910THF     C812965   3.774   2.425   3.836  0.6469 -0.0933 -0.3472
  910THF     C912966   3.745   2.365   3.975  0.0805 -0.3346  0.0581
  910THF    H1012967   3.856   2.369   3.791  0.5210 -1.3200  0.8993
  910THF    H1112968   3.688   2.412   3.771  0.3349 -0.0246  0.0471
  910THF    H1212969   3.658   2.300   3.984  0.1174 -0.4866 -0.5620
  910THF    H1312970   3.832   2.316   4.020 -0.3430 -1.5799 -0.4347
  911THF     O112971   1.655   0.993   2.670  0.7266 -0.3156  0.6030
  911THF     C212972   1.553   0.966   2.772 -0.4847  0.2252 -0.4473
  911THF     C312973   1.711   0.866   2.641  0.7774 -0.0485 -0.7149
  911THF     H412974   1.464   0.924   2.725 -0.5568 -1.1860  0.8668
  911THF     H512975   1.520   1.062   2.812  2.0701  0.4309  1.3566
  911THF     H612976   1.646   0.821   2.566  0.1547 -0.7286  0.2123
  911THF     H712977   1.816   0.881   2.618  0.9122  1.0580  0.5179
  911THF     C812978   1.696   0.782   2.770 -0.7551  0.6485  0.0560
  911THF     C912979   1.621   0.864   2.869 -0.2170  0.0910  0.6978
  911THF    H1012980   1.795   0.758   2.810 -0.5383 -1.7427 -1.7069
  911THF    H1112981   1.655   0.682   2.764 -1.5671  0.9579  0.3526
  911THF    H1212982   1.529   0.817   2.905 -1.0307 -0.0011 -1.3993
  911THF    H1312983   1.678   0.925   2.940 -0.6785 -0.8020  1.8716
  912THF     O112984   4.188   3.077   4.797 -0.6091 -0.3999  0.6112
  912THF     C212985   4.216   3.205   4.731 -0.5284  0.1253  0.3925
  912THF     C312986   4.251   2.974   4.732  0.4039 -0.0970 -0.3867
  912THF     H412987   4.314   3.233   4.771 -0.2629  2.2947 -1.5821
  912THF     H512988   4.147   3.283   4.761  0.0845  2.3831 -3.3940
  912THF     H612989   4.354   2.990   4.765  0.2171 -0.4521  0.3861
  912THF     H712990   4.212   2.875   4.751 -1.9607  0.6983 -0.8246
  912THF     C812991   4.236   3.017   4.586 -0.0281 -0.1933  0.0783
  912THF     C912992   4.209   3.166   4.590  0.9046  0.7910 -0.5558
  912THF    H1012993   4.156   2.960   4.539  0.9353  1.4168 -3.9972
  912THF    H1112994   4.326   2.990   4.530  1.3016 -0.8151  2.3926
  912THF    H1212995   4.284   3.211   4.524  0.1385  0.6415 -1.5398
  912THF    H1312996   4.108   3.194   4.561  1.9033  1.4800 -3.7176
  913THF     O112997   1.464   3.816   3.155  0.0843 -0.3015  0.0600
  913THF     C212998   1.578   3.790   3.074  0.0958 -0.6865  0.5949
  913THF     C312999   1.356   3.780   3.075  0.2151 -0.3647 -0.0086
  913THF     H413000   1.594   3.682   3.076 -1.3544 -0.9827 -0.9650
  913THF     H513001   1.667   3.839   3.113 -0.3244 -0.5526  1.4027
  913THF     H613002   1.361   3.673   3.055  4.2874 -0.5910  1.2348
  913THF     H713003   1.262   3.810   3.121  0.9316  0.1140  1.1921
  913THF     C813004   1.385   3.848   2.939  0.1380 -0.1613 -0.3405
  913THF     C913005   1.534   3.828   2.930  0.1803 -0.0495 -0.1939
  913THF    H1013006   1.355   3.953   2.942  0.9044  0.0511  2.7922
  913THF    H1113007   1.339   3.793   2.856  0.6107 -2.2881  0.7226
  913THF    H1213008   1.571   3.748   2.865 -0.2310  0.0412 -0.5425
  913THF    H1313009   1.577   3.921   2.894 -0.5160  1.0246  1.6369
  914THF     O113010   2.894   0.243   5.195 -0.1056 -0.3304 -0.3692
  914THF     C213011   2.819   0.318   5.104 -0.2706  0.0336  0.6285
  914THF     C313012   2.801   0.179   5.287 -0.1044  0.2739  0.1752
  914THF     H413013   2.767   0.250   5.037  1.1409 -0.9098  0.4681
  914THF     H513014   2.880   0.386   5.045 -1.0647  0.7694  0.6372
  914THF     H613015   2.756   0.087   5.251 -0.6962  0.7404 -0.3167
  914THF     H713016   2.853   0.153   5.379 -3.0529 -0.8040  1.6737
  914THF     C813017   2.690   0.287   5.296 -0.1870  0.6094 -0.1660
  914THF     C913018   2.729   0.391   5.201 -0.1270 -0.3358  0.1190
  914THF    H1013019   2.672   0.339   5.390  0.9967 -0.4937  0.7223
  914THF    H1113020   2.595   0.246   5.260 -0.0257 -0.2537  0.3448
  914THF    H1213021   2.638   0.431   5.157 -1.3008 -2.6479  0.2873
  914THF    H1313022   2.787   0.471   5.247  0.6213 -1.1992  0.6953
  915THF     O113023   1.539   3.872   2.466 -0.2263  0.0359  0.4702
  915THF     C213024   1.479   3.980   2.535  0.3301 -0.6021  0.0113
  915THF     C313025   1.653   3.828   2.542  0.1389  0.3869  0.0157
  915THF     H413026   1.418   3.950   2.620  1.0322  4.1350  2.4806
  915THF     H513027   1.413   4.037   2.470  0.3420 -1.1829 -0.5180
  915THF     H613028   1.632   3.750   2.614  0.4888  0.6061  0.3651
  915THF     H713029   1.721   3.774   2.476 -0.0155 -0.6736  0.7150
  915THF     C813030   1.711   3.953   2.604 -0.3536  1.4657  0.3392
  915THF     C913031   1.604   4.057   2.580  0.0366 -0.3894 -0.0436
  915THF    H1013032   1.810   3.972   2.564  0.4175 -1.9816  0.2863
  915THF    H1113033   1.715   3.933   2.711 -0.7091 -1.6982 -0.1284
  915THF    H1213034   1.588   4.130   2.659  0.8339  0.3768 -0.5633
  915THF    H1313035   1.641   4.116   2.496 -3.4438  0.3315 -1.2548
  916THF     O113036   1.589   4.226   4.056 -0.2243  0.5032 -0.4378
  916THF     C213037   1.485   4.137   4.093 -0.4682 -0.5018  0.1059
  916THF     C313038   1.588   4.239   3.918 -0.5595  0.5780  0.0560
  916THF     H413039   1.456   4.152   4.197 -1.7496  1.2111 -0.4524
  916THF     H513040   1.517   4.037   4.066 -1.4915 -0.8613  0.1620
  916THF     H613041   1.628   4.335   3.885  1.8246 -0.9139 -1.6126
  916THF     H713042   1.650   4.166   3.867  0.8550  1.6825  0.1160
  916THF     C813043   1.444   4.228   3.878 -0.0227  0.4204 -0.2143
  916THF     C913044   1.370   4.181   4.004 -0.3669  1.0807  0.2108
  916THF    H1013045   1.449   4.158   3.795  1.8476 -0.4938  0.6180
  916THF    H1113046   1.403   4.326   3.852  1.5425  2.1104  3.0863
  916THF    H1213047   1.319   4.256   4.065 -0.6410 -0.7253  2.3444
  916THF    H1313048   1.301   4.098   3.991 -0.5416  1.1664  0.5797
  917THF     O113049   4.377   1.211   5.030  0.5378  0.4166  0.0017
  917THF     C213050   4.429   1.283   5.140 -0.0382 -0.3166  0.0680
  917THF     C313051   4.289   1.109   5.096 -0.1187 -0.1290 -0.1883
  917THF     H413052   4.371   1.371   5.167  0.6042  0.3723 -0.7256
  917THF     H513053   4.526   1.325   5.114 -1.8285  4.1028 -0.2984
  917THF     H613054   4.195   1.157   5.125  0.6736  2.1048 -1.0702
  917THF     H713055   4.275   1.018   5.038 -0.3235  1.0012 -1.9954
  917THF     C813056   4.376   1.063   5.210  0.4671  0.2285 -0.1175
  917THF     C913057   4.430   1.185   5.259 -0.7299  0.3287  0.4257
  917THF    H1013058   4.446   0.998   5.158 -0.6810 -1.2177  0.0760
  917THF    H1113059   4.327   1.013   5.295 -0.3888  1.9850  0.4626
  917THF    H1213060   4.358   1.219   5.333 -0.1649 -0.5897  1.4244
  917THF    H1313061   4.530   1.172   5.302 -0.6318  1.8114  0.7023
  918THF     O113062   1.778   2.836   1.978 -0.3832 -0.5025 -0.4395
  918THF     C213063   1.865   2.914   2.059 -0.9822 -1.1992  0.1972
  918THF     C313064   1.649   2.843   2.038  0.2633 -0.0757  0.4637
  918THF     H413065   1.878   3.015   2.021  3.1854 -1.4968  0.4206
  918THF     H513066   1.957   2.857   2.050 -1.2819 -1.9486  1.5952
  918THF     H613067   1.588   2.926   2.003  1.7274  0.4463 -0.9608
  918THF     H713068   1.591   2.752   2.022 -1.8781  1.6226 -2.3820
  918THF     C813069   1.684   2.848   2.183  0.1734 -0.3745 -0.9116
  918THF     C913070   1.815   2.922   2.199 -0.1991 -0.3534 -0.2073
  918THF    H1013071   1.695   2.746   2.220 -0.3280  0.0435  0.4122
  918THF    H1113072   1.597   2.889   2.234 -0.9543 -0.1190 -2.9235
  918THF    H1213073   1.797   3.024   2.232  0.6865 -0.7677  1.7025
  918THF    H1313074   1.883   2.894   2.279  2.4706  2.4089 -1.3172
  919THF     O113075   0.930   2.004   1.846  0.3767  0.5177  0.3001
  919THF     C213076   0.862   1.916   1.934 -0.7780  0.5072 -0.2716
  919THF     C313077   1.063   2.015   1.882  0.0864  0.1122  0.1944
  919THF     H413078   0.817   1.832   1.881 -0.7964 -0.5299  1.3353
  919THF     H513079   0.792   1.975   1.993 -0.2538  2.3238 -1.3782
  919THF     H613080   1.118   2.045   1.793  0.6801  0.3504  0.6309
  919THF     H713081   1.068   2.109   1.937  0.1115  0.8900 -1.0898
  919THF     C813082   1.097   1.888   1.953 -0.1430  0.0985 -0.3623
  919THF     C913083   0.965   1.855   2.023  0.4535 -0.5179 -1.2596
  919THF    H1013084   1.175   1.904   2.027 -0.4419  1.6834 -0.3632
  919THF    H1113085   1.126   1.814   1.879  0.2306 -0.0376 -0.0825
  919THF    H1213086   0.949   1.751   2.052 -0.6690  0.0065  0.1226
  919THF    H1313087   0.984   1.909   2.116 -0.4161 -1.3645 -0.5750
  920THF     O113088   0.719   5.018   3.173 -0.5600  0.5151  0.3905
  920THF     C213089   0.594   5.085   3.193 -0.2050 -0.0009  0.1930
  920THF     C313090   0.728   4.923   3.284  0.7287 -0.9951  0.6007
  920THF     H413091   0.501   5.031   3.177 -0.7521  0.9943 -0.0292
  920THF     H513092   0.601   5.170   3.127  2.3681 -1.3608 -1.4692
  920THF     H613093   0.676   4.835   3.247 -0.6155  0.6338 -1.5830
  920THF     H713094   0.832   4.903   3.310  1.2576  1.1819  0.3602
  920THF     C813095   0.666   4.991   3.402 -0.5423 -0.0843  0.5748
  920THF     C913096   0.616   5.117   3.341  0.1291  0.3105  0.0213
  920THF    H1013097   0.737   4.994   3.484 -0.9624 -1.0239  0.9871
  920THF    H1113098   0.584   4.937   3.449 -0.6971 -0.4598 -0.1148
  920THF    H1213099   0.521   5.150   3.383 -0.2433  3.4832 -2.8064
  920THF    H1313100   0.690   5.195   3.360 -0.3187  0.4614  1.1957
  921THF     O113101   0.553   0.580   1.763  0.3827  0.4583 -0.1821
  921THF     C213102   0.655   0.514   1.681 -0.2765 -0.5959 -0.1770
  921THF     C313103   0.617   0.693   1.815  0.4254 -0.8080 -0.2481
  921THF     H413104   0.663   0.568   1.586 -0.0746  0.3189  0.3547
  921THF     H513105   0.644   0.408   1.658 -0.9616 -0.3781 -0.9258
  921THF     H613106   0.630   0.771   1.741  1.9182  0.9982  1.7843
  921THF     H713107   0.557   0.734   1.896  1.5153 -2.5264  1.5194
  921THF     C813108   0.759   0.656   1.850 -0.9477  0.2348 -0.1193
  921THF     C913109   0.780   0.526   1.766 -0.2966  0.5766 -0.6150
  921THF    H1013110   0.778   0.626   1.953  1.1149 -2.4986 -1.1635
  921THF    H1113111   0.821   0.742   1.828  0.5739 -1.0858 -1.2496
  921THF    H1213112   0.873   0.522   1.710 -0.8079 -3.9746 -1.5120
  921THF    H1313113   0.785   0.447   1.840 -0.6356  1.0545 -0.0683
  922THF     O113114   0.140   4.755   4.635  0.3750 -0.5690 -0.6569
  922THF     C213115   0.087   4.626   4.662  0.0973  0.0000  0.8031
  922THF     C313116   0.086   4.844   4.731 -0.3501  0.1751 -0.3720
  922THF     H413117   0.165   4.550   4.656  1.8931  1.8162 -0.0133
  922THF     H513118   0.022   4.589   4.583  1.0194  1.3987 -0.6695
  922THF     H613119   0.159   4.859   4.811  1.1866 -1.5145 -1.3822
  922THF     H713120   0.063   4.941   4.686 -1.9962  0.6734  1.3964
  922THF     C813121  -0.033   4.768   4.786 -0.1181 -0.5403  0.5819
  922THF     C913122   0.002   4.621   4.787  0.3192 -0.4190  0.0614
  922THF    H1013123  -0.117   4.785   4.718  0.1286  1.2061  0.6921
  922THF    H1113124  -0.064   4.813   4.880  0.0740  1.9131 -0.4705
  922THF    H1213125   0.065   4.595   4.872  1.1313  0.8737 -0.1098
  922THF    H1313126  -0.078   4.546   4.787 -0.6442  0.5906 -0.0079
  923THF     O113127   4.218   0.579   1.570 -0.7615 -0.0959  0.2448
  923THF     C213128   4.138   0.663   1.647  0.3421 -0.0961 -0.4292
  923THF     C313129   4.312   0.661   1.492 -0.1086  0.4701 -0.0177
  923THF     H413130   4.077   0.617   1.724 -0.6838  2.8467  0.6591
  923THF     H513131   4.069   0.695   1.568  1.1550 -0.9540 -1.5263
  923THF     H613132   4.405   0.606   1.479 -0.5865 -0.0648 -1.3611
  923THF     H713133   4.271   0.689   1.395 -1.0855 -0.1072  0.2136
  923THF     C813134   4.323   0.795   1.573 -0.1312  0.1517 -0.0523
  923THF     C913135   4.231   0.779   1.693 -0.4390 -0.6456 -0.1325
  923THF    H1013136   4.290   0.871   1.502  1.8703  1.5162  0.3848
  923THF    H1113137   4.425   0.822   1.599 -0.1516  0.2778 -0.1026
  923THF    H1213138   4.285   0.765   1.786  0.0700  1.5594 -0.0453
  923THF    H1313139   4.174   0.870   1.710  0.1921 -0.2763  0.0206
  924THF     O113140   3.251   2.694   3.369  0.0111  0.0389 -1.1111
  924THF     C213141   3.374   2.721   3.430 -0.4883 -0.1209 -0.5824
  924THF     C313142   3.151   2.731   3.462  0.2502 -0.2636  0.2053
  924THF     H413143   3.383   2.829   3.438  1.6315 -0.3246  0.1317
  924THF     H513144   3.461   2.690   3.373  0.4511  2.0742 -0.4480
  924THF     H613145   3.116   2.834   3.450  1.4418 -0.0986 -2.7668
  924THF     H713146   3.066   2.668   3.435  0.3251 -0.3662  0.2099
  924THF     C813147   3.219   2.703   3.599  0.7069  0.2290  0.4013
  924THF     C913148   3.352   2.647   3.558 -0.1873  0.1580 -0.2814
  924THF    H1013149   3.156   2.642   3.663 -1.3319  0.6864 -1.0839
  924THF    H1113150   3.243   2.787   3.665  0.3311  0.6053  0.0583
  924THF    H1213151   3.434   2.671   3.627  1.1384  0.2282 -1.8192
  924THF    H1313152   3.358   2.540   3.542  0.5679  0.4125 -1.8507
  925THF     O113153   2.385   5.038   0.411 -0.9954 -0.4622  0.4236
  925THF     C213154   2.447   5.161   0.392 -0.5843  0.6199 -0.0291
  925THF     C313155   2.281   5.023   0.319  0.2062  0.7161 -0.3137
  925THF     H413156   2.548   5.141   0.357 -1.4251 -0.8569 -1.8429
  925THF     H513157   2.451   5.207   0.490  1.4446 -1.3031  0.8755
  925THF     H613158   2.315   4.980   0.225 -1.8348 -0.6063 -0.5219
  925THF     H713159   2.219   4.950   0.372  2.9967  0.9257  3.6679
  925THF     C813160   2.231   5.160   0.303 -0.0291 -0.3684  0.5177
  925THF     C913161   2.366   5.235   0.284  0.1048  0.7785 -0.6252
  925THF    H1013162   2.188   5.202   0.395  1.2093  0.0185  0.9371
  925THF    H1113163   2.158   5.168   0.223  1.3718 -0.6281 -0.8181
  925THF    H1213164   2.408   5.209   0.186 -0.0639  2.7059 -1.2556
  925THF    H1313165   2.377   5.342   0.302  1.5337  0.9435 -2.1521
  926THF     O113166   4.113   0.438   2.664 -0.0961 -0.3561 -0.6470
  926THF     C213167   4.172   0.520   2.563 -0.0995 -0.2315  0.7083
  926THF     C313168   3.974   0.473   2.691  0.3707 -0.1137  0.3369
  926THF     H413169   4.184   0.468   2.468  2.1092  2.9887 -0.9759
  926THF     H513170   4.272   0.554   2.593  0.1714  1.8529 -2.0755
  926THF     H613171   3.900   0.393   2.683  1.1687 -0.7421 -0.9210
  926THF     H713172   3.949   0.531   2.780 -1.8751  1.2266 -1.0440
  926THF     C813173   3.948   0.575   2.583  0.7066 -0.2054  0.1519
  926THF     C913174   4.075   0.634   2.546 -0.5384 -0.0111  0.4061
  926THF    H1013175   3.869   0.646   2.607  2.0381  3.5296 -4.7439
  926THF    H1113176   3.908   0.519   2.499  0.6364 -0.1620  0.1563
  926THF    H1213177   4.064   0.684   2.450 -0.7344  0.3927  0.6346
  926THF    H1313178   4.087   0.714   2.619  0.5056  1.7090 -1.5420
  927THF     O113179   2.574   0.443   4.817 -0.3576  0.9702 -0.5458
  927THF     C213180   2.664   0.499   4.731  0.5225 -0.0487 -0.1927
  927THF     C313181   2.495   0.544   4.872  0.0769 -1.1573  0.0573
  927THF     H413182   2.614   0.511   4.635  2.6012 -1.2311 -1.4917
  927THF     H513183   2.747   0.431   4.716  2.0094  2.1220 -2.5167
  927THF     H613184   2.403   0.560   4.816  0.9148  2.0562 -0.5944
  927THF     H713185   2.469   0.508   4.972  2.5439 -1.5949  0.6028
  927THF     C813186   2.575   0.682   4.846  0.4386 -0.1970  0.2577
  927THF     C913187   2.705   0.637   4.780 -0.6528 -0.1107 -0.2324
  927THF    H1013188   2.587   0.738   4.939 -1.3312 -0.7305  0.8683
  927THF    H1113189   2.518   0.749   4.781 -0.1102 -0.2351  0.6859
  927THF    H1213190   2.734   0.701   4.697  0.6942  0.2626  0.4921
  927THF    H1313191   2.792   0.640   4.846 -0.4361 -0.4217 -0.5026
  928THF     O113192   1.155   1.247   4.662 -0.0377  0.4848 -0.3325
  928THF     C213193   1.291   1.220   4.641  0.0163 -0.2947  0.1351
  928THF     C313194   1.138   1.244   4.805 -0.7488  0.6698  0.3363
  928THF     H413195   1.347   1.313   4.655  0.7684 -0.5900 -0.8510
  928THF     H513196   1.308   1.181   4.541  0.5786 -0.3432  0.2489
  928THF     H613197   1.173   1.340   4.843 -0.4838  0.6394  0.1694
  928THF     H713198   1.032   1.227   4.826 -1.0473  1.8066 -0.1534
  928THF     C813199   1.228   1.127   4.854  1.0735  0.2530 -0.5065
  928THF     C913200   1.332   1.112   4.746  0.3622 -0.2546  0.6394
  928THF    H1013201   1.168   1.036   4.858  0.6736  0.3613 -2.7317
  928THF    H1113202   1.266   1.148   4.954  0.9854  2.3810 -0.8835
  928THF    H1213203   1.432   1.126   4.786  0.8996 -0.6556 -0.5446
  928THF    H1313204   1.338   1.015   4.698 -1.3068  0.1326 -0.4505
  929THF     O113205   0.927   2.772   0.830  0.0616  0.1299  0.1270
  929THF     C213206   0.854   2.656   0.865 -0.2816 -1.0396  0.3184
  929THF     C313207   1.029   2.786   0.930  0.3637 -0.1506 -0.3145
  929THF     H413208   0.910   2.570   0.826  0.1533 -0.8279  0.4613
  929THF     H513209   0.765   2.660   0.803 -0.4853 -1.6031  0.5688
  929THF     H613210   1.097   2.704   0.909 -0.3144 -0.8540  0.1517
  929THF     H713211   1.090   2.876   0.934  0.9064 -0.1511 -4.2591
  929THF     C813212   0.942   2.764   1.055 -0.4752 -0.2632  0.1279
  929THF     C913213   0.840   2.664   1.015  0.5051 -0.7797  0.3928
  929THF    H1013214   0.898   2.859   1.084  2.2095  0.3568  2.6253
  929THF    H1113215   1.010   2.732   1.134  0.0954 -0.4806 -0.4356
  929THF    H1213216   0.860   2.569   1.064 -0.1681  0.0868  2.4601
  929THF    H1313217   0.735   2.686   1.035  0.3553 -0.3129 -0.8119
  930THF     O113218   3.614   3.320   1.377  0.1388 -0.9614  0.5165
  930THF     C213219   3.494   3.384   1.428  0.0877  0.5813  0.2359
  930THF     C313220   3.726   3.398   1.417 -0.6337  0.0391 -0.2126
  930THF     H413221   3.414   3.312   1.446 -0.9426  1.6372 -0.0258
  930THF     H513222   3.465   3.466   1.362  1.6152  1.9917  1.2436
  930THF     H613223   3.813   3.336   1.435  0.0749  0.3387 -2.3476
  930THF     H713224   3.763   3.459   1.335  1.3346 -1.0830 -0.2166
  930THF     C813225   3.676   3.496   1.528 -0.0377 -0.0613  0.5171
  930THF     C913226   3.538   3.441   1.561  0.3765 -0.6602 -0.2250
  930THF    H1013227   3.661   3.600   1.500 -1.6691 -0.1376  1.0468
  930THF    H1113228   3.729   3.489   1.623  1.0513  1.6699  0.0906
  930THF    H1213229   3.542   3.358   1.632 -0.2858  1.3956  2.3475
  930THF    H1313230   3.484   3.518   1.615  0.4240 -1.2295  0.6587
  931THF     O113231   3.807   0.231   4.912 -0.0497  0.0652  0.4822
  931THF     C213232   3.724   0.306   4.991 -0.1125 -0.3966 -0.4593
  931THF     C313233   3.771   0.099   4.900  0.3858  1.0002  0.3721
  931THF     H413234   3.649   0.341   4.920 -0.5395  1.1800  0.7042
  931THF     H513235   3.782   0.388   5.034 -1.4110  0.9438 -1.1780
  931THF     H613236   3.721   0.082   4.805  0.5528 -2.9847  0.7988
  931THF     H713237   3.865   0.043   4.907 -0.5481 -1.0948 -2.1407
  931THF     C813238   3.677   0.071   5.024  0.6496 -0.6313  0.5782
  931THF     C913239   3.678   0.205   5.097  0.1726 -0.1936 -0.1028
  931THF    H1013240   3.709  -0.013   5.086  2.3761  0.3826  1.1317
  931THF    H1113241   3.574   0.051   4.995  0.6129  0.0875  0.1889
  931THF    H1213242   3.582   0.233   5.142 -1.0289 -2.1259 -1.3228
  931THF    H1313243   3.759   0.199   5.170 -0.1943 -1.1207  0.2359
  932THF     O113244   2.687   3.261   2.155  0.6737  0.1551 -0.8499
  932THF     C213245   2.702   3.256   2.011  0.0886 -0.3234  0.2113
  932THF     C313246   2.731   3.135   2.210  0.2893  0.0302  0.2034
  932THF     H413247   2.723   3.353   1.966 -0.7154 -1.1862 -2.1689
  932THF     H513248   2.604   3.230   1.972  0.5576 -1.9095 -0.0146
  932THF     H613249   2.814   3.150   2.279 -1.0542 -3.2753  2.8039
  932THF     H713250   2.647   3.102   2.271 -0.8192  1.8712 -0.2256
  932THF     C813251   2.765   3.042   2.092  0.5676  0.3513 -0.2945
  932THF     C913252   2.801   3.151   1.985  0.0659  0.6853  0.9130
  932THF    H1013253   2.671   3.000   2.057  0.6578  2.2412 -3.0474
  932THF    H1113254   2.842   2.966   2.105 -0.0239 -0.3266 -0.6848
  932THF    H1213255   2.901   3.190   2.003  0.0801  1.9851 -1.6426
  932THF    H1313256   2.797   3.113   1.883  2.8708 -0.0641  0.9935
  933THF     O113257   1.547   4.664   4.701 -0.2291  0.0924 -0.0823
  933THF     C213258   1.654   4.617   4.778  0.1968 -0.1628  0.0055
  933THF     C313259   1.514   4.800   4.734 -0.0591  0.4298  0.8818
  933THF     H413260   1.716   4.539   4.733 -0.1494 -1.2392  1.3485
  933THF     H513261   1.615   4.574   4.870 -1.1861 -0.7535 -0.8235
  933THF     H613262   1.448   4.847   4.662 -1.6632 -1.0641  1.2965
  933THF     H713263   1.444   4.807   4.817  0.1170  1.9396  0.9327
  933THF     C813264   1.661   4.858   4.750  0.0726 -0.3155  0.0233
  933THF     C913265   1.746   4.739   4.795 -0.1162  0.3399 -0.5445
  933THF    H1013266   1.647   4.937   4.825  1.6355  1.3024 -1.3078
  933THF    H1113267   1.697   4.899   4.656  1.0610 -1.2466 -0.0207
  933THF    H1213268   1.839   4.742   4.737  0.4109 -1.2061  0.1576
  933THF    H1313269   1.758   4.752   4.902 -0.4567 -2.0227 -0.1716
  934THF     O113270   5.361   2.387   4.652  0.7313 -0.1094 -0.2529
  934THF     C213271   5.464   2.385   4.563 -0.5868  0.1873  0.4689
  934THF     C313272   5.258   2.300   4.607  0.2929 -0.3263  0.9129
  934THF     H413273   5.551   2.425   4.615 -0.6539  1.4425 -0.3515
  934THF     H513274   5.442   2.454   4.482  1.7470  0.5441  0.0705
  934THF     H613275   5.191   2.278   4.690  2.4997 -0.9913  2.6186
  934THF     H713276   5.206   2.349   4.525  0.0081 -0.4654  1.0119
  934THF     C813277   5.336   2.179   4.554 -0.1873 -0.1547  0.4308
  934THF     C913278   5.478   2.238   4.534  0.7912 -0.1184  0.7213
  934THF    H1013279   5.279   2.147   4.467 -0.1757 -0.1045  0.4050
  934THF    H1113280   5.333   2.104   4.634  0.6940  1.1909  1.7744
  934THF    H1213281   5.549   2.175   4.588  1.6115  0.1053 -0.0648
  934THF    H1313282   5.517   2.236   4.432  1.6296 -0.2809  1.0376
  935THF     O113283   0.433   4.533   3.199  0.0664  0.2325  0.1247
  935THF     C213284   0.363   4.645   3.151  0.0955  0.3712  0.1249
  935THF     C313285   0.355   4.415   3.155  0.1828  0.2760 -0.7986
  935THF     H413286   0.417   4.740   3.144  0.9619 -0.2078 -1.9301
  935THF     H513287   0.267   4.662   3.200 -0.5424 -1.3842 -0.4314
  935THF     H613288   0.421   4.331   3.129 -0.7641  0.1019 -2.8464
  935THF     H713289   0.297   4.386   3.243  0.7901  0.6513 -0.2592
  935THF     C813290   0.275   4.450   3.032  0.0682 -0.0525 -0.6771
  935THF     C913291   0.331   4.594   3.008 -0.1703  0.1209  0.5616
  935THF    H1013292   0.170   4.453   3.062  0.4264  2.4528  0.5747
  935THF    H1113293   0.285   4.369   2.960  1.0703 -1.2333  0.7484
  935THF    H1213294   0.424   4.583   2.952  0.2733 -0.4604  1.3976
  935THF    H1313295   0.260   4.662   2.960  0.2969 -0.8720 -1.6943
  936THF     O113296   5.053   3.229   1.612  0.3579  0.1157 -0.2306
  936THF     C213297   4.938   3.231   1.693  0.3704 -0.3166 -0.0106
  936THF     C313298   5.077   3.099   1.567 -0.5564 -0.2224 -0.1997
  936THF     H413299   4.913   3.337   1.700  0.4909 -0.3261  0.5678
  936THF     H513300   4.964   3.185   1.788  0.4750  0.8933  0.5614
  936THF     H613301   5.132   3.097   1.473 -2.2493  0.0618 -1.2316
  936THF     H713302   5.152   3.055   1.633  0.2976 -1.4267 -1.9037
  936THF     C813303   4.937   3.031   1.559  0.1119  0.6507 -0.0096
  936THF     C913304   4.845   3.132   1.625  0.4592 -0.4052  0.7515
  936THF    H1013305   4.941   2.935   1.611  1.5476 -0.2628 -1.7127
  936THF    H1113306   4.897   3.027   1.458 -2.0337  0.8337  0.7777
  936THF    H1213307   4.785   3.189   1.554 -0.9226  1.3851  3.1905
  936THF    H1313308   4.779   3.085   1.697  3.8317 -1.3535  3.4651
  937THF     O113309   1.715   2.899   2.550 -0.2540 -0.4598  0.2434
  937THF     C213310   1.841   2.959   2.574 -0.1075 -0.0979  0.0715
  937THF     C313311   1.619   3.004   2.524 -0.2330  0.0545  0.2722
  937THF     H413312   1.914   2.918   2.504  3.9341  3.0544  1.9643
  937THF     H513313   1.871   2.926   2.673 -1.2922 -1.8670 -0.1134
  937THF     H613314   1.559   2.973   2.437 -0.4906 -1.2622  0.8973
  937THF     H713315   1.556   3.001   2.613  1.9170 -0.2392  1.8458
  937THF     C813316   1.691   3.139   2.501  0.0682 -0.0997 -0.0353
  937THF     C913317   1.827   3.111   2.570  0.5187 -0.0188  0.0453
  937THF    H1013318   1.632   3.229   2.522 -1.5683 -0.8843 -1.0014
  937THF    H1113319   1.718   3.152   2.396 -0.5461 -1.5052 -0.3887
  937THF    H1213320   1.902   3.169   2.518 -0.2144  0.0708 -0.9463
  937THF    H1313321   1.813   3.150   2.671  1.1850 -1.1331  0.5852
  938THF     O113322   2.597   3.561   3.545 -0.1427  0.1165  0.2359
  938THF     C213323   2.586   3.420   3.556 -0.1091  0.1465  1.3086
  938THF     C313324   2.602   3.625   3.672 -0.0838  0.7127 -0.2373
  938THF     H413325   2.678   3.373   3.519 -0.5971  0.5790 -0.5353
  938THF     H513326   2.505   3.381   3.495  0.3839 -2.4375  2.1815
  938THF     H613327   2.675   3.706   3.681  0.0868  0.5526 -0.1624
  938THF     H713328   2.511   3.680   3.692  0.4565  1.2142  0.9546
  938THF     C813329   2.629   3.509   3.770  0.1683  0.4932 -0.3033
  938THF     C913330   2.561   3.391   3.700 -0.5941 -0.1568 -0.9294
  938THF    H1013331   2.597   3.525   3.873  0.2158  0.1284 -0.2298
  938THF    H1113332   2.737   3.491   3.770  0.0267 -1.0333  2.9458
  938THF    H1213333   2.596   3.291   3.728 -0.1289  0.6044  1.4405
  938THF    H1313334   2.453   3.392   3.718 -1.0142 -0.6420 -3.1330
  939THF     O113335   3.679   1.685   0.758  0.3553 -1.0211  0.1484
  939THF     C213336   3.536   1.713   0.779  0.0350  0.1769 -0.2489
  939THF     C313337   3.686   1.602   0.649  0.2759  0.9426  0.1843
  939THF     H413338   3.505   1.808   0.823 -1.0349  0.0424 -0.6738
  939THF     H513339   3.489   1.630   0.831 -0.2189  0.7726  0.5043
  939THF     H613340   3.775   1.623   0.588  1.7053 -1.0258  1.4626
  939THF     H713341   3.716   1.501   0.679  1.1907 -0.5443 -4.7648
  939THF     C813342   3.541   1.591   0.583  0.0302 -0.7055 -0.0443
  939THF     C913343   3.482   1.717   0.639 -0.5856  0.0983  0.2784
  939THF    H1013344   3.488   1.503   0.619 -0.3702  0.6246  2.9262
  939THF    H1113345   3.538   1.580   0.475  0.8227 -1.1327 -0.0245
  939THF    H1213346   3.525   1.802   0.585  0.4045 -0.8392 -0.4534
  939THF    H1313347   3.373   1.713   0.639 -0.5509 -0.9925  0.4251
  940THF     O113348   3.739   2.100   1.663  0.3296  0.0178  0.0910
  940THF     C213349   3.755   2.055   1.532 -0.4591  0.1605 -0.1530
  940THF     C313350   3.827   2.033   1.748 -0.4769 -0.6397 -0.0438
  940THF     H413351   3.754   2.141   1.464  2.4732  1.9193  1.8513
  940THF     H513352   3.682   1.978   1.506  0.2708 -0.1301 -1.4489
  940THF     H613353   3.827   2.081   1.847 -0.3381 -1.2422  0.2504
  940THF     H713354   3.790   1.932   1.766  0.4847 -0.7404  1.6199
  940THF     C813355   3.957   2.025   1.666 -0.3130 -0.3036 -0.4672
  940THF     C913356   3.899   2.003   1.530 -0.4879 -0.0982 -0.2057
  940THF    H1013357   4.027   1.952   1.707 -0.1928  1.3266  2.4992
  940THF    H1113358   4.021   2.113   1.658 -0.2720 -0.2775  0.0679
  940THF    H1213359   3.962   2.041   1.450 -1.5051 -0.4082 -1.1730
  940THF    H1313360   3.892   1.895   1.517 -0.8236 -0.4015  2.1027
  941THF     O113361   0.134   4.401   4.212 -0.1522  0.4063  0.0291
  941THF     C213362   0.046   4.350   4.314  0.0470 -0.6219  0.4859
  941THF     C313363   0.051   4.421   4.093  0.0843 -0.4370  0.7266
  941THF     H413364  -0.010   4.435   4.354 -1.8813 -1.5901 -0.0068
  941THF     H513365   0.100   4.301   4.395  1.9456  2.1183  1.0384
  941THF     H613366  -0.004   4.515   4.103 -0.2786 -0.7079  1.3182
  941THF     H713367   0.109   4.417   4.001 -1.5466 -1.1107 -0.3309
  941THF     C813368  -0.033   4.295   4.092  1.0211 -0.1967  0.1191
  941THF     C913369  -0.044   4.251   4.234 -0.3109 -0.4764  0.3516
  941THF    H1013370  -0.009   4.217   4.020  0.5735  0.1010 -0.3622
  941THF    H1113371  -0.134   4.321   4.061  1.1971 -1.5930 -1.7771
  941THF    H1213372  -0.143   4.246   4.280  0.4913  1.9901  2.6435
  941THF    H1313373   0.008   4.157   4.251  1.2083  0.4971  1.2954
  942THF     O113374   4.222   3.929   4.669  0.0542 -0.1448  0.1919
  942THF     C213375   4.109   3.885   4.741  0.1946 -0.7583 -0.0388
  942THF     C313376   4.319   3.958   4.768 -0.6222 -0.8532  0.6726
  942THF     H413377   4.135   3.784   4.770  2.3874 -0.4526 -0.7126
  942THF     H513378   4.018   3.891   4.682  0.7360  1.3040 -0.7531
  942THF     H613379   4.370   3.866   4.795  0.5039 -0.4655 -0.0537
  942THF     H713380   4.390   4.026   4.721 -0.9868 -0.6346  0.4254
  942THF     C813381   4.244   4.042   4.869 -1.0135 -0.1674  0.2551
  942THF     C913382   4.109   3.973   4.863  0.0963 -0.1462 -0.2681
  942THF    H1013383   4.229   4.142   4.827 -1.3013  0.2620  1.3495
  942THF    H1113384   4.299   4.050   4.963  2.9913 -1.7473 -1.7295
  942THF    H1213385   4.088   3.899   4.941 -1.4044  0.1685 -0.3364
  942THF    H1313386   4.022   4.039   4.865 -0.6619 -1.0857 -1.3615
  943THF     O113387   0.674   2.872   4.934  0.1972 -0.2433 -0.2737
  943THF     C213388   0.783   2.949   4.913  0.0427 -0.5169  0.4052
  943THF     C313389   0.609   2.929   5.047 -0.5168 -0.4442  0.1108
  943THF     H413390   0.802   2.936   4.806 -0.6115 -2.1306  0.4578
  943THF     H513391   0.863   2.914   4.979  0.7208  2.7538  1.5073
  943THF     H613392   0.505   2.894   5.049 -0.9117  0.5385 -1.2678
  943THF     H713393   0.667   2.893   5.131  0.3879 -0.7695 -0.6322
  943THF     C813394   0.612   3.078   5.027  0.5653 -0.0275  0.2908
  943THF     C913395   0.738   3.093   4.946 -0.2524  0.2721  0.1666
  943THF    H1013396   0.616   3.126   5.125 -0.1357  3.3682 -1.1908
  943THF    H1113397   0.528   3.122   4.974  0.6532 -0.0388  0.1412
  943THF    H1213398   0.713   3.154   4.859 -0.8434  0.0045  0.1361
  943THF    H1313399   0.812   3.139   5.011 -0.5627 -0.0497  0.7512
  944THF     O113400   0.158   1.938   4.297 -0.5659 -0.0788  0.4456
  944THF     C213401   0.155   1.897   4.159 -0.5800 -0.6088  0.4471
  944THF     C313402   0.054   1.871   4.370 -0.2359 -0.1783 -0.1802
  944THF     H413403   0.254   1.860   4.131 -0.0756 -0.5489  2.0778
  944THF     H513404   0.129   1.980   4.093 -4.3221 -2.3084 -0.4235
  944THF     H613405   0.085   1.866   4.474  1.6558  3.5675 -0.3885
  944THF     H713406  -0.028   1.940   4.351  0.9913  0.6247 -3.2494
  944THF     C813407   0.012   1.747   4.284 -0.1883  0.1355  1.2839
  944THF     C913408   0.035   1.801   4.141 -0.2025 -1.0120  0.3885
  944THF    H1013409  -0.090   1.711   4.300 -1.2040  2.6563  0.9252
  944THF    H1113410   0.082   1.665   4.297 -0.6200 -0.9798 -2.1292
  944THF    H1213411   0.055   1.721   4.069  2.6614  0.2561 -0.3578
  944THF    H1313412  -0.051   1.865   4.122  0.1423 -0.3552  1.0147
  945THF     O113413   5.363   3.679   0.395  0.2913 -0.2347  0.7242
  945THF     C213414   5.438   3.767   0.308  0.3607  0.2064 -0.6059
  945THF     C313415   5.294   3.588   0.313  0.2140 -0.3458  0.0679
  945THF     H413416   5.524   3.810   0.359  2.2691 -2.7338 -1.0847
  945THF     H513417   5.375   3.852   0.284 -0.9776 -0.9127 -1.2267
  945THF     H613418   5.255   3.506   0.373  0.1101 -0.5999 -0.3423
  945THF     H713419   5.219   3.640   0.253  1.6677  1.3310 -0.3896
  945THF     C813420   5.408   3.552   0.218 -0.4969 -0.2770 -0.2849
  945THF     C913421   5.476   3.689   0.183  0.5759  0.2319  0.3932
  945THF    H1013422   5.372   3.493   0.134  0.0039  0.5318 -1.0935
  945THF    H1113423   5.479   3.489   0.271 -0.3784 -0.4413 -0.6403
  945THF    H1213424   5.583   3.666   0.176  0.3942 -0.3636 -0.6367
  945THF    H1313425   5.434   3.722   0.088 -1.4254  1.9154  1.7845
  946THF     O113426   4.717   4.236   2.295  0.6443  0.2150  0.3571
  946THF     C213427   4.602   4.302   2.234 -0.1550  0.2619  0.2757
  946THF     C313428   4.762   4.142   2.203  0.3064  0.0781 -0.1784
  946THF     H413429   4.640   4.374   2.161 -0.8057 -0.3722 -0.7100
  946THF     H513430   4.539   4.366   2.295 -1.3612 -0.3762 -0.2821
  946THF     H613431   4.805   4.194   2.118  1.1942 -0.3751 -0.0136
  946THF     H713432   4.842   4.083   2.247 -0.4817 -0.4054  0.6571
  946THF     C813433   4.635   4.070   2.157  0.0583 -0.6443  0.4870
  946THF     C913434   4.535   4.185   2.168  0.1998 -0.2962  0.2632
  946THF    H1013435   4.605   3.985   2.219 -1.6304  0.1450  0.8031
  946THF    H1113436   4.654   4.025   2.060 -0.9547  0.2335 -0.1367
  946THF    H1213437   4.502   4.223   2.071 -2.1422  2.5897  2.0070
  946THF    H1313438   4.444   4.157   2.221  1.4837 -0.1015  2.7094
  947THF     O113439   5.251   4.317   4.503 -0.0942 -0.0831 -0.0133
  947THF     C213440   5.131   4.288   4.424 -0.1140  0.3632  0.0045
  947THF     C313441   5.243   4.445   4.553 -0.1774 -0.3234  0.2110
  947THF     H413442   5.108   4.182   4.413  1.0537  0.0500  0.4682
  947THF     H513443   5.147   4.337   4.328  1.7504  2.1585  1.1470
  947THF     H613444   5.270   4.440   4.659  0.0139  0.0149  0.1787
  947THF     H713445   5.302   4.511   4.490 -3.0104  0.4747 -1.8034
  947THF     C813446   5.096   4.495   4.530 -0.3539  0.1302  0.3247
  947THF     C913447   5.024   4.367   4.502 -0.3826 -0.2332 -0.0075
  947THF    H1013448   5.104   4.559   4.441  2.6877 -0.0404  0.3814
  947THF    H1113449   5.068   4.550   4.620 -1.0567  0.4229 -0.0632
  947THF    H1213450   5.006   4.299   4.586 -3.5275  0.3660 -0.1039
  947THF    H1313451   4.925   4.372   4.457 -1.8628  0.5102  3.0136
  948THF     O113452   3.064   3.476   4.766  0.1786 -0.0024  0.0186
  948THF     C213453   2.964   3.407   4.691 -0.6800 -0.5023 -0.8363
  948THF     C313454   3.066   3.617   4.724 -0.7350  0.1028  0.4452
  948THF     H413455   2.871   3.436   4.741  1.0489  3.8474  0.3481
  948THF     H513456   2.977   3.299   4.678  3.2012 -0.1261 -1.1979
  948THF     H613457   2.980   3.665   4.771 -1.4725 -0.7885  0.0334
  948THF     H713458   3.153   3.677   4.751  0.2816 -0.9048 -0.5275
  948THF     C813459   3.030   3.610   4.570 -0.2559 -0.0188 -0.1174
  948THF     C913460   2.965   3.471   4.550 -0.4191  0.5612 -0.1713
  948THF    H1013461   3.111   3.633   4.501 -1.5866 -1.9964 -2.5297
  948THF    H1113462   2.951   3.679   4.540  0.6307  1.8380  1.5717
  948THF    H1213463   2.874   3.465   4.491  0.1184  0.6511 -1.0312
  948THF    H1313464   3.034   3.413   4.488  1.7249  0.3815  2.2009
  949THF     O113465   5.399   0.307   4.385  0.6827  0.0339 -0.0796
  949THF     C213466   5.277   0.384   4.415 -0.3623  1.1845  0.0831
  949THF     C313467   5.362   0.179   4.324  0.4286 -0.0181  0.3702
  949THF     H413468   5.273   0.470   4.347  1.1954  0.6774 -0.7071
  949THF     H513469   5.264   0.417   4.518 -1.1683 -0.2600  0.4699
  949THF     H613470   5.433   0.148   4.248 -0.8819 -0.3081 -0.7575
  949THF     H713471   5.359   0.107   4.406  0.0651 -1.1473 -0.6218
  949THF     C813472   5.227   0.205   4.260 -0.1469  0.4635 -0.5165
  949THF     C913473   5.161   0.299   4.365 -0.2452  0.0190  0.2129
  949THF    H1013474   5.162   0.120   4.236  0.1919 -0.0529  0.3540
  949THF    H1113475   5.249   0.251   4.164 -0.3665 -1.8303 -1.7515
  949THF    H1213476   5.080   0.356   4.318 -1.1190 -0.4888  1.0515
  949THF    H1313477   5.106   0.228   4.427 -0.2726  0.4906  0.7475
  950THF     O113478   5.495   3.580   4.800 -0.4707 -0.4755 -0.0739
  950THF     C213479   5.478   3.707   4.869 -0.7839  0.7217  0.5935
  950THF     C313480   5.620   3.580   4.735 -0.2854 -0.1632  0.2499
  950THF     H413481   5.412   3.701   4.956 -1.5197 -0.2188 -0.0074
  950THF     H513482   5.445   3.774   4.790  2.1447  1.6925  0.0885
  950THF     H613483   5.639   3.481   4.693  0.9489  0.1067  0.1514
  950THF     H713484   5.626   3.652   4.654  1.0461 -0.5956 -0.0552
  950THF     C813485   5.707   3.632   4.849  0.0313 -0.5641 -0.0556
  950THF     C913486   5.619   3.733   4.911  0.3974  0.4618  0.1352
  950THF    H1013487   5.806   3.664   4.816 -0.0674 -0.0962  0.1025
  950THF    H1113488   5.716   3.547   4.917  1.1056 -1.7076 -1.5431
  950THF    H1213489   5.623   3.725   5.020  1.0137  0.6435  0.1329
  950THF    H1313490   5.651   3.833   4.880  0.1634  0.4865 -0.0199
  951THF     O113491   0.406   0.621   2.479  0.1038 -0.1157  0.2242
  951THF     C213492   0.332   0.651   2.597 -0.4625  0.1393  0.4222
  951THF     C313493   0.372   0.724   2.383  0.1550 -0.5213 -0.0516
  951THF     H413494   0.401   0.711   2.657 -0.3486  0.0237  0.4083
  951THF     H513495   0.312   0.558   2.650 -2.6280  0.8213  0.9095
  951THF     H613496   0.424   0.815   2.410  1.5023 -0.8663 -1.3614
  951THF     H713497   0.400   0.699   2.281 -0.0829 -0.4645 -0.1327
  951THF     C813498   0.221   0.732   2.397  0.1211 -0.2145  0.1262
  951THF     C913499   0.199   0.703   2.547  1.2859 -0.1043  0.6817
  951THF    H1013500   0.184   0.644   2.344  0.7620  0.6524 -1.8606
  951THF    H1113501   0.179   0.821   2.350 -0.9789 -0.3538  0.8209
  951THF    H1213502   0.178   0.798   2.597 -1.8750 -0.2217 -0.2128
  951THF    H1313503   0.122   0.632   2.575  0.3157  0.5110 -0.3624
  952THF     O113504   0.458   4.283   3.421  0.5224 -0.1151  0.4036
  952THF     C213505   0.475   4.143   3.418  0.3142  0.3317 -0.3150
  952THF     C313506   0.409   4.326   3.547  0.0726 -0.3000 -0.1400
  952THF     H413507   0.563   4.111   3.473 -0.1076  2.0604  1.4361
  952THF     H513508   0.476   4.118   3.312  1.9296 -1.2108  0.0102
  952THF     H613509   0.489   4.309   3.620 -0.3585  0.4731  0.5266
  952THF     H713510   0.384   4.431   3.539  1.2974  0.1526  1.5217
  952THF     C813511   0.305   4.215   3.573  0.0759 -0.2022  0.3433
  952THF     C913512   0.344   4.091   3.490 -0.0723 -0.0458  1.3319
  952THF    H1013513   0.209   4.256   3.541 -0.1945 -0.9680  0.1420
  952THF    H1113514   0.296   4.187   3.678  1.3042 -3.1004 -0.2509
  952THF    H1213515   0.360   4.000   3.548 -0.6282 -0.6113  0.6159
  952THF    H1313516   0.260   4.067   3.425  0.1193 -0.4019  1.2108
  953THF     O113517   0.193   1.442   4.656 -0.2202 -0.4874 -0.0227
  953THF     C213518   0.248   1.348   4.750 -0.4611  0.1343  0.4154
  953THF     C313519   0.111   1.385   4.554 -0.2811  0.3754  0.3517
  953THF     H413520   0.223   1.370   4.854  1.1993 -1.0977  1.1073
  953THF     H513521   0.356   1.343   4.738 -0.6042  1.0924 -1.6675
  953THF     H613522   0.012   1.409   4.593 -0.1506 -0.4365  1.2086
  953THF     H713523   0.121   1.436   4.458  0.0089  0.4365  0.4145
  953THF     C813524   0.150   1.237   4.564 -0.1751  0.2287 -0.3913
  953THF     C913525   0.175   1.224   4.712  0.0028  0.7084  0.2388
  953THF    H1013526   0.229   1.221   4.491 -0.8842 -1.6103 -0.8065
  953THF    H1113527   0.073   1.171   4.524 -1.1020  1.6741 -1.0766
  953THF    H1213528   0.076   1.202   4.751 -0.4252 -1.4150 -1.8537
  953THF    H1313529   0.241   1.141   4.739 -1.8754 -0.0559  2.8278
  954THF     O113530   2.151   1.552   3.423 -0.1736 -0.7566  0.2378
  954THF     C213531   2.209   1.625   3.527 -0.3389  0.3583  0.5658
  954THF     C313532   2.029   1.607   3.382  0.1000 -0.0273  0.3100
  954THF     H413533   2.276   1.699   3.483  0.5033  0.4944  1.9759
  954THF     H513534   2.270   1.562   3.592 -0.2260 -0.9357 -0.7441
  954THF     H613535   2.032   1.659   3.287  2.5259 -1.4512 -0.4869
  954THF     H713536   1.961   1.523   3.364 -0.3532  0.2970  0.5000
  954THF     C813537   1.982   1.688   3.505 -0.1081  0.3703 -0.1933
  954THF     C913538   2.096   1.685   3.602 -0.0057  0.7397 -0.0540
  954THF    H1013539   1.893   1.646   3.552 -0.9096 -0.2935 -2.2021
  954THF    H1113540   1.962   1.792   3.479  2.2156  1.1146  0.7551
  954THF    H1213541   2.115   1.778   3.656 -0.0948  0.4939  0.4070
  954THF    H1313542   2.069   1.616   3.682  1.1850 -1.8964 -1.7974
  955THF     O113543   0.278   0.066   0.832  0.1882  0.4529  0.1837
  955THF     C213544   0.260  -0.069   0.780 -0.5430  0.3447  0.0157
  955THF     C313545   0.416   0.078   0.871  0.0856 -0.2875  0.1975
  955THF     H413546   0.225  -0.081   0.678  1.3506  1.1831 -0.7826
  955THF     H513547   0.185  -0.125   0.835 -0.0058 -1.6521 -1.1951
  955THF     H613548   0.471   0.137   0.798 -1.9713 -0.1122 -1.2953
  955THF     H713549   0.416   0.106   0.976 -1.8658 -3.1914  1.1026
  955THF     C813550   0.467  -0.057   0.878 -0.5961  0.5633  0.4974
  955THF     C913551   0.401  -0.125   0.761 -0.5056  0.3194 -0.5498
  955THF    H1013552   0.432  -0.113   0.965 -3.9850  1.2384 -0.2541
  955THF    H1113553   0.575  -0.049   0.877 -0.4481 -1.1102  0.1191
  955THF    H1213554   0.445  -0.088   0.668  0.0287 -0.7598 -0.7395
  955THF    H1313555   0.406  -0.233   0.757  2.5075  0.3687 -0.4340
  956THF     O113556   1.801   1.897   0.316  0.2349  0.0340 -0.2560
  956THF     C213557   1.740   1.983   0.225 -0.4511  0.2265 -0.7951
  956THF     C313558   1.896   1.824   0.244 -0.3091  0.4641 -0.5611
  956THF     H413559   1.812   2.061   0.199 -2.3569  2.8889  1.3512
  956THF     H513560   1.648   2.030   0.259  1.0195  2.4910  0.3771
  956THF     H613561   1.971   1.898   0.216 -0.6574 -0.1343 -3.3506
  956THF     H713562   1.955   1.748   0.295  1.1477  0.1550 -2.5925
  956THF     C813563   1.826   1.777   0.122  0.3156 -0.0721 -0.7685
  956THF     C913564   1.720   1.889   0.102 -1.3142  0.4379 -0.0111
  956THF    H1013565   1.771   1.684   0.135 -1.7561  0.9773 -1.5384
  956THF    H1113566   1.895   1.768   0.038  1.9069  1.0745  0.3575
  956THF    H1213567   1.737   1.947   0.012  0.1513 -0.3978 -0.2980
  956THF    H1313568   1.619   1.847   0.111 -0.8567 -0.2382  3.2970
  957THF     O113569   5.192   2.187   0.023  0.5755  0.2564 -0.5738
  957THF     C213570   5.302   2.186   0.119  0.6983  0.2797  0.3062
  957THF     C313571   5.104   2.297   0.056 -0.0068  1.1824 -0.3472
  957THF     H413572   5.362   2.267   0.079 -0.3357  2.4026  2.7587
  957THF     H513573   5.351   2.089   0.134  0.0202 -0.0706  0.2708
  957THF     H613574   5.149   2.384   0.008  1.9649 -0.8405 -2.4429
  957THF     H713575   5.007   2.280   0.009  0.1243 -0.1339 -0.1881
  957THF     C813576   5.102   2.289   0.205  0.7291  0.5131  0.4967
  957THF     C913577   5.224   2.221   0.246  0.3914 -0.0143 -0.2323
  957THF    H1013578   5.012   2.239   0.240  0.4852  2.2394  2.5839
  957THF    H1113579   5.095   2.388   0.251 -2.0011 -0.5631  2.6865
  957THF    H1213580   5.293   2.282   0.303 -0.0882  0.3683 -0.0631
  957THF    H1313581   5.202   2.136   0.311  0.4410 -1.1008 -1.5764
  958THF     O113582   3.827   0.735   1.810  0.1556  0.0565 -0.4093
  958THF     C213583   3.900   0.860   1.801 -0.8966  0.6008 -0.4460
  958THF     C313584   3.694   0.775   1.798 -0.1991 -0.2221 -0.9105
  958THF     H413585   3.914   0.894   1.698 -1.6332 -1.2050 -1.1880
  958THF     H513586   3.999   0.854   1.847 -0.5960  2.1284 -0.8522
  958THF     H613587   3.674   0.803   1.695  0.3367  1.2619 -0.6360
  958THF     H713588   3.635   0.686   1.821  0.2151 -0.2641  0.0764
  958THF     C813589   3.687   0.894   1.895  0.4593 -0.3056 -0.2336
  958THF     C913590   3.821   0.955   1.880 -0.6655 -0.3613 -0.4948
  958THF    H1013591   3.660   0.869   1.997  1.3013  2.7008  0.8454
  958THF    H1113592   3.614   0.962   1.851  0.3527 -1.1244 -1.3645
  958THF    H1213593   3.824   1.061   1.852 -2.6849  0.7591  2.9702
  958THF    H1313594   3.882   0.954   1.970 -1.5282 -1.6159  0.0943
  959THF     O113595   2.227   0.115   4.766  0.2319 -0.0848  0.2199
  959THF     C213596   2.312   0.192   4.853  0.2985  0.3682 -0.7869
  959THF     C313597   2.297  -0.008   4.744  0.3469 -0.4793 -0.3331
  959THF     H413598   2.272   0.185   4.954 -0.4876  2.0116 -0.9631
  959THF     H513599   2.323   0.293   4.813  0.2500  0.0114 -1.7249
  959THF     H613600   2.277  -0.069   4.832  0.5414  0.7232  0.5692
  959THF     H713601   2.256  -0.046   4.650 -0.8994 -0.3871  0.1539
  959THF     C813602   2.441   0.026   4.728  0.8691  0.3098  0.7419
  959THF     C913603   2.452   0.126   4.838  0.1587 -0.2129 -0.6927
  959THF    H1013604   2.444   0.065   4.627  0.2950  1.2727  1.0868
  959THF    H1113605   2.495  -0.069   4.729 -1.1784 -1.1177 -3.2532
  959THF    H1213606   2.486   0.081   4.932 -0.4225 -0.6508 -0.6846
  959THF    H1313607   2.521   0.205   4.807 -1.6921  1.3134 -1.0925
  960THF     O113608   0.484   1.353   1.892 -0.5531 -0.0941  0.5817
  960THF     C213609   0.484   1.225   1.966  0.8981  0.7909 -0.2876
  960THF     C313610   0.588   1.429   1.956 -0.3166  0.4713  0.4798
  960THF     H413611   0.558   1.155   1.926  1.6360 -0.0140  2.2804
  960THF     H513612   0.389   1.172   1.957  0.8109  0.9929 -0.5734
  960THF     H613613   0.695   1.412   1.942 -0.6032  0.3491 -2.2203
  960THF     H713614   0.569   1.533   1.930  1.1998  0.2908 -1.6720
  960THF     C813615   0.552   1.417   2.102 -0.4481 -0.3048  0.3042
  960THF     C913616   0.511   1.270   2.114 -0.0552 -0.3164 -0.0755
  960THF    H1013617   0.473   1.487   2.129 -0.9076 -0.9726  0.7180
  960THF    H1113618   0.645   1.435   2.157  1.7821 -0.4046 -3.1204
  960THF    H1213619   0.586   1.208   2.163  1.7500  1.2831 -0.6994
  960THF    H1313620   0.426   1.253   2.179  2.1858 -0.9893  2.8897
  961THF     O113621   3.883   2.538   1.847  0.0088 -0.6230 -0.3803
  961THF     C213622   3.855   2.456   1.742 -0.5537 -0.9995 -0.3442
  961THF     C313623   3.771   2.619   1.871 -0.3209 -0.5188 -0.0598
  961THF     H413624   3.897   2.358   1.764  2.1089  0.2111  0.2929
  961THF     H513625   3.916   2.498   1.663 -1.0532  0.9471  0.2404
  961THF     H613626   3.773   2.661   1.972  0.6446  3.0490 -1.4002
  961THF     H713627   3.776   2.703   1.801  1.2473 -0.7029 -0.2060
  961THF     C813628   3.657   2.528   1.840 -0.1402  0.6434  0.0630
  961THF     C913629   3.709   2.455   1.724  0.8100 -0.7064  0.1052
  961THF    H1013630   3.567   2.587   1.825 -0.6837  0.3216  1.7753
  961THF    H1113631   3.637   2.461   1.924 -1.1171  2.3014  1.2153
  961THF    H1213632   3.662   2.357   1.718 -2.1415  0.4250  2.3147
  961THF    H1313633   3.683   2.512   1.634 -1.0916  0.6420  1.4169
  962THF     O113634   3.273   5.392   3.054 -0.1919 -0.2655 -0.0346
  962THF     C213635   3.163   5.326   2.989 -0.1307  0.4316 -0.1201
  962THF     C313636   3.325   5.480   2.959 -0.3877 -0.5355  0.2892
  962THF     H413637   3.084   5.389   2.948  0.4457  0.7589 -0.7349
  962THF     H513638   3.113   5.247   3.045 -0.0382  0.7896  0.4773
  962THF     H613639   3.268   5.573   2.951  2.0848  1.1660  1.0124
  962THF     H713640   3.427   5.503   2.988 -0.3521 -0.8758  0.4348
  962THF     C813641   3.321   5.403   2.827 -0.1197 -0.3448  0.2950
  962THF     C913642   3.233   5.283   2.855 -0.2301 -0.1268 -0.0495
  962THF    H1013643   3.425   5.374   2.808 -0.1851 -1.6215  1.7050
  962THF    H1113644   3.284   5.469   2.749 -0.0767 -0.0107  0.5560
  962THF    H1213645   3.159   5.260   2.777  0.1987 -1.3660 -0.1127
  962THF    H1313646   3.306   5.204   2.868  1.5001  1.7054  2.0311
  963THF     O113647   3.213   0.049   3.603  0.7127 -0.6477 -0.0497
  963THF     C213648   3.189   0.102   3.471  0.6543  0.4460  0.6895
  963THF     C313649   3.300  -0.059   3.577  0.2622 -0.0891 -0.2126
  963THF     H413650   3.276   0.157   3.437  0.6140  0.1826  0.1570
  963THF     H513651   3.111   0.177   3.488  0.5511 -0.2569  3.8766
  963THF     H613652   3.400  -0.017   3.591  0.5031 -0.9419  0.7698
  963THF     H713653   3.291  -0.138   3.652  1.4152 -0.0186  0.0155
  963THF     C813654   3.273  -0.118   3.432  0.1710  0.1551  0.1781
  963THF     C913655   3.167  -0.019   3.383  0.5970  0.5689  0.2004
  963THF    H1013656   3.237  -0.221   3.437 -0.7282  0.4553  0.1736
  963THF    H1113657   3.368  -0.108   3.380  0.6531  0.1076  1.0304
  963THF    H1213658   3.174   0.011   3.279 -1.3392 -2.3633 -0.9000
  963THF    H1313659   3.068  -0.062   3.398  1.6024 -2.2161 -0.4689
  964THF     O113660   3.355   3.175   4.975  0.9797  0.0084  0.5244
  964THF     C213661   3.351   3.095   5.086  0.5073  0.5373  0.3613
  964THF     C313662   3.287   3.106   4.874  0.7882  0.0389 -0.5922
  964THF     H413663   3.386   3.152   5.172 -2.4929  1.0193  1.3752
  964THF     H513664   3.414   3.006   5.074 -0.7595 -0.7204  2.3666
  964THF     H613665   3.239   3.167   4.796 -0.4106 -3.3003 -2.6825
  964THF     H713666   3.352   3.026   4.840  1.1920 -0.6406  1.6906
  964THF     C813667   3.164   3.052   4.948  0.0860 -0.1247  0.7345
  964THF     C913668   3.208   3.054   5.093  0.5626  0.2728  0.7717
  964THF    H1013669   3.146   2.952   4.907  0.2696  0.2052 -0.1881
  964THF    H1113670   3.078   3.115   4.927  1.0538  1.2206  0.6767
  964THF    H1213671   3.158   3.122   5.161  0.2484  2.2237 -1.2778
  964THF    H1313672   3.195   2.957   5.141  0.3985 -0.4826 -0.7248
  965THF     O113673   0.163   1.902   0.873  0.1563  0.4214  0.4900
  965THF     C213674   0.272   1.972   0.803 -0.2460 -0.6999 -0.7488
  965THF     C313675   0.055   1.997   0.874 -0.1427  0.3596 -0.0477
  965THF     H413676   0.347   1.912   0.751  1.8917  2.0785 -1.1408
  965THF     H513677   0.332   2.030   0.873 -0.0540 -0.0790 -1.4178
  965THF     H613678  -0.039   1.944   0.860 -1.1031  1.8491  0.6010
  965THF     H713679   0.043   2.050   0.968  0.7508  2.5619 -1.1087
  965THF     C813680   0.083   2.102   0.761  0.3742 -0.4512 -0.1512
  965THF     C913681   0.216   2.065   0.698 -0.2073  0.4160 -0.5134
  965THF    H1013682   0.087   2.197   0.815  0.7775  0.3475 -1.5175
  965THF    H1113683   0.006   2.110   0.683  0.8364  1.1038 -0.4937
  965THF    H1213684   0.206   2.010   0.604  2.0020 -0.9188 -0.0565
  965THF    H1313685   0.295   2.138   0.680  0.0974  0.5826  1.3206
  966THF     O113686   2.732   1.040   4.380  0.4563 -0.1970 -0.2923
  966THF     C213687   2.812   0.942   4.324  0.8459  0.6538 -0.0508
  966THF     C313688   2.603   0.982   4.389 -0.4685 -0.6032  0.3232
  966THF     H413689   2.920   0.957   4.327  0.9847 -0.4544  1.8515
  966THF     H513690   2.781   0.939   4.219 -2.4840 -1.6326  0.8526
  966THF     H613691   2.544   1.046   4.455 -0.9277  0.4347 -1.0312
  966THF     H713692   2.549   0.995   4.295 -0.3409  0.4400  0.3736
  966THF     C813693   2.624   0.833   4.420 -0.0633 -0.5228 -0.1471
  966THF     C913694   2.764   0.800   4.367 -0.1521  0.5993 -0.1838
  966THF    H1013695   2.550   0.772   4.368  1.3623 -2.4040 -0.0473
  966THF    H1113696   2.626   0.819   4.528  3.1260 -0.9118 -0.1607
  966THF    H1213697   2.817   0.758   4.452 -1.7951 -1.3568 -0.0660
  966THF    H1313698   2.761   0.731   4.283 -0.8426 -0.8004  0.9468
  967THF     O113699   5.222   5.431   0.481  0.0349  0.4481  0.1240
  967THF     C213700   5.077   5.410   0.483 -0.0054  0.0018  0.2103
  967THF     C313701   5.281   5.307   0.447 -0.1397 -0.6630 -1.0166
  967THF     H413702   5.025   5.437   0.391 -0.9131  0.6747  0.9149
  967THF     H513703   5.038   5.482   0.554  2.3340  2.4729 -0.8173
  967THF     H613704   5.293   5.295   0.339  0.5570 -1.3528 -0.8633
  967THF     H713705   5.380   5.289   0.489 -0.2829  0.5262 -0.1170
  967THF     C813706   5.186   5.200   0.513 -0.5112 -0.1770  0.6370
  967THF     C913707   5.048   5.266   0.516  0.2216 -0.7810 -0.3504
  967THF    H1013708   5.209   5.175   0.617  0.1902 -4.2700 -0.3299
  967THF    H1113709   5.173   5.104   0.463  0.1287 -0.6304  1.3097
  967THF    H1213710   4.984   5.217   0.443 -0.3431 -0.9557  0.2504
  967THF    H1313711   5.009   5.254   0.617  3.8333 -0.1287  1.3104
  968THF     O113712   1.038   3.687   0.453  0.1140 -0.0330  0.2553
  968THF     C213713   1.042   3.659   0.593  0.5524 -0.1805 -0.3468
  968THF     C313714   0.953   3.587   0.394 -0.2420  0.4920 -0.9518
  968THF     H413715   0.950   3.696   0.639  2.5021  1.5280  2.5470
  968THF     H513716   1.121   3.699   0.656 -0.9099 -0.9305  2.1372
  968THF     H613717   0.850   3.621   0.404 -0.2046  0.0044  1.8818
  968THF     H713718   0.974   3.568   0.289  0.4231 -1.4766 -0.5100
  968THF     C813719   0.982   3.454   0.473  1.0261 -0.3127 -0.0157
  968THF     C913720   1.033   3.502   0.604 -0.3310 -0.0699 -0.0658
  968THF    H1013721   1.058   3.395   0.422  0.6656 -1.4074  0.6948
  968THF    H1113722   0.893   3.393   0.474 -0.3790  1.6368  0.9869
  968THF    H1213723   0.964   3.477   0.684  0.2611  1.4446  0.9702
  968THF    H1313724   1.125   3.445   0.620 -1.2618 -1.8589 -0.8820
  969THF     O113725   1.322   1.525   1.628  0.2835 -0.2848 -0.1758
  969THF     C213726   1.339   1.383   1.615  0.4649 -0.0435  0.5431
  969THF     C313727   1.344   1.586   1.498 -0.5746  0.2422  0.0346
  969THF     H413728   1.245   1.340   1.580  0.9437 -2.2335  1.7486
  969THF     H513729   1.364   1.330   1.708  0.4787  0.8818  1.0772
  969THF     H613730   1.254   1.556   1.444 -2.9050  0.9804  3.1917
  969THF     H713731   1.360   1.694   1.499  2.2557 -0.0898  0.5720
  969THF     C813732   1.469   1.510   1.444  0.1523  0.0142  0.3578
  969THF     C913733   1.439   1.368   1.500  0.4043 -1.0704  0.7244
  969THF    H1013734   1.554   1.555   1.496  0.8721  0.3567 -1.0594
  969THF    H1113735   1.477   1.514   1.335  0.7096 -0.9171  0.3517
  969THF    H1213736   1.372   1.313   1.433 -0.6277  0.9857  0.0024
  969THF    H1313737   1.530   1.309   1.512  0.6036 -1.2868 -1.4300
  970THF     O113738   2.742   4.745   1.365 -0.0605  0.3693 -0.4396
  970THF     C213739   2.731   4.882   1.410  0.2345  0.1658  0.6786
  970THF     C313740   2.719   4.652   1.476  0.2714 -0.5045  0.2991
  970THF     H413741   2.655   4.941   1.359  2.4986  1.9672 -0.7998
  970THF     H513742   2.825   4.921   1.372 -1.3445  1.9135 -1.6848
  970THF     H613743   2.611   4.642   1.486  0.5848 -3.5541  1.7213
  970THF     H713744   2.766   4.555   1.464  0.9155 -0.1006 -0.5886
  970THF     C813745   2.763   4.735   1.600 -0.6596 -0.1537  0.3408
  970THF     C913746   2.730   4.881   1.566  0.8478 -0.3108  0.1196
  970THF    H1013747   2.871   4.719   1.605 -0.8366 -2.1216 -0.7550
  970THF    H1113748   2.730   4.704   1.699  0.4866 -0.0078  0.7809
  970THF    H1213749   2.630   4.912   1.598  1.0551  2.1915 -1.3848
  970THF    H1313750   2.798   4.955   1.607  1.5859 -0.3392 -1.0344
  971THF     O113751   4.710   2.838   2.629  0.1458 -0.0525  0.5464
  971THF     C213752   4.616   2.770   2.708  0.2474 -0.3040 -0.4834
  971THF     C313753   4.627   2.926   2.549  0.0396 -0.0245  0.0864
  971THF     H413754   4.575   2.824   2.794  0.6203 -0.8640  0.0535
  971THF     H513755   4.662   2.684   2.757  1.9166  0.6251 -0.3670
  971THF     H613756   4.604   3.018   2.602 -2.2760 -0.2842 -0.3667
  971THF     H713757   4.677   2.943   2.453  1.8857  0.0936  1.0134
  971THF     C813758   4.511   2.840   2.517 -0.3652 -0.0495  0.0387
  971THF     C913759   4.498   2.735   2.625  0.0094  0.7543 -0.1844
  971THF    H1013760   4.527   2.797   2.418  0.3157  0.7142 -0.1995
  971THF    H1113761   4.418   2.897   2.507  0.1577  1.1169  1.5544
  971THF    H1213762   4.403   2.726   2.677  0.1342  0.4422 -0.0094
  971THF    H1313763   4.530   2.640   2.582  0.3865 -0.7028  3.0434
  972THF     O113764   1.139   4.515   3.724 -0.2972 -0.6383  0.2942
  972THF     C213765   1.025   4.602   3.744 -0.5600  0.7140  0.6435
  972THF     C313766   1.204   4.542   3.599  1.0352 -0.8715 -0.4709
  972THF     H413767   1.068   4.670   3.818 -0.1365  1.8620 -0.6287
  972THF     H513768   0.937   4.558   3.791  0.2841  0.1286  1.7483
  972THF     H613769   1.307   4.573   3.619  0.9481  1.1582 -2.8277
  972THF     H713770   1.204   4.458   3.530  0.1290 -0.5263 -0.9013
  972THF     C813771   1.136   4.668   3.543  1.0932 -0.2935  0.7639
  972THF     C913772   0.999   4.669   3.612  0.5588  0.0118 -0.4386
  972THF    H1013773   1.118   4.661   3.436 -0.7520  0.9106  0.9474
  972THF    H1113774   1.196   4.753   3.577  1.0077  0.2216 -0.3263
  972THF    H1213775   0.971   4.773   3.630 -0.7247 -0.4244  0.1990
  972THF    H1313776   0.919   4.622   3.554  0.5125 -0.0742 -0.3055
  973THF     O113777   3.146   2.902   2.857 -0.1143 -0.2425  0.1811
  973THF     C213778   3.170   2.832   2.734 -0.6338 -0.1518  0.2711
  973THF     C313779   3.257   2.873   2.941  0.5007  0.2916 -0.1345
  973THF     H413780   3.255   2.878   2.684  0.5277 -0.7568  1.6149
  973THF     H513781   3.084   2.829   2.667  0.0220 -0.2413 -0.5751
  973THF     H613782   3.343   2.931   2.905  0.9628 -1.2783 -1.6757
  973THF     H713783   3.227   2.890   3.044 -1.7581 -0.9631 -0.5349
  973THF     C813784   3.268   2.723   2.926 -0.0103 -0.6139  0.0826
  973THF     C913785   3.207   2.698   2.787 -0.6805  0.0774 -0.7460
  973THF    H1013786   3.217   2.683   3.013 -2.3747  0.6215 -0.6242
  973THF    H1113787   3.375   2.705   2.921  0.5078  2.1764 -0.5545
  973THF    H1213788   3.282   2.652   2.723  1.0125  0.0498  1.1650
  973THF    H1313789   3.122   2.633   2.805  0.7107 -1.3582  1.1336
  974THF     O113790   3.496   1.467   3.195  0.2842  0.1154  0.2338
  974THF     C213791   3.604   1.500   3.285  0.5306 -0.1995  0.0499
  974THF     C313792   3.401   1.397   3.275  0.2927 -0.6002  0.2057
  974THF     H413793   3.584   1.589   3.344 -1.8151  0.6865 -1.9314
  974THF     H513794   3.699   1.519   3.235  0.0093 -0.4890 -1.0700
  974THF     H613795   3.338   1.469   3.328 -0.9755  0.1514 -2.1911
  974THF     H713796   3.331   1.348   3.208 -0.6306  2.0402 -0.8993
  974THF     C813797   3.496   1.308   3.349 -0.5585 -0.2875 -0.0330
  974THF     C913798   3.622   1.384   3.378  0.5877 -0.3705 -0.1126
  974THF    H1013799   3.520   1.232   3.275 -1.6752 -0.4206 -0.2699
  974THF    H1113800   3.456   1.259   3.437 -0.6132  0.7091  0.5188
  974THF    H1213801   3.617   1.428   3.478 -0.9340  2.3559 -1.2936
  974THF    H1313802   3.717   1.330   3.369  0.3905 -1.0856  1.6261
  975THF     O113803   1.570   1.054   3.442  0.3689  0.3746  0.0896
  975THF     C213804   1.703   1.075   3.384  0.8006 -0.1572 -0.1132
  975THF     C313805   1.474   1.119   3.361  0.4192  0.2442 -0.3262
  975THF     H413806   1.747   0.977   3.365  3.0076  0.6811  0.4435
  975THF     H513807   1.773   1.128   3.449 -1.3295  0.1119  2.1187
  975THF     H613808   1.379   1.065   3.362  1.6986 -2.2191 -1.5509
  975THF     H713809   1.470   1.223   3.393 -0.3074  0.4583 -1.0608
  975THF     C813810   1.538   1.109   3.223  0.3760  0.0839  0.6018
  975THF     C913811   1.680   1.155   3.257 -0.0276  0.5402 -0.2153
  975THF    H1013812   1.488   1.170   3.148  2.0224 -0.2471 -0.8377
  975THF    H1113813   1.535   1.006   3.188  3.0636  0.1134  0.0970
  975THF    H1213814   1.764   1.137   3.189 -0.0077  2.3995 -0.7527
  975THF    H1313815   1.683   1.262   3.279 -2.4648  0.8890 -1.2382
  976THF     O113816   1.774   4.121   0.957 -0.5160  0.3669  0.4233
  976THF     C213817   1.838   4.221   1.033 -0.5668 -0.4611 -0.1695
  976THF     C313818   1.659   4.179   0.895  0.4391  0.0346  0.4102
  976THF     H413819   1.890   4.285   0.961  1.7788 -1.4881  0.5099
  976THF     H513820   1.927   4.195   1.091  0.7047  2.2221 -0.7491
  976THF     H613821   1.691   4.238   0.809 -3.4938  0.8606 -0.6846
  976THF     H713822   1.579   4.110   0.870  1.7874 -1.2195 -0.6120
  976THF     C813823   1.610   4.285   0.990  0.4887 -0.0611  0.0877
  976THF     C913824   1.721   4.297   1.092  0.0885 -0.4283 -0.4736
  976THF    H1013825   1.517   4.257   1.039  1.2954 -0.3585  1.5164
  976THF    H1113826   1.593   4.379   0.938 -0.9616  0.2674  1.0777
  976THF    H1213827   1.745   4.402   1.104 -2.0985 -0.1027  1.8301
  976THF    H1313828   1.688   4.241   1.180 -1.9781  0.5995 -0.5419
  977THF     O113829   0.936   0.383   3.088 -0.6127  0.5112 -0.3226
  977THF     C213830   0.796   0.416   3.107 -0.2301  0.8185 -0.8622
  977THF     C313831   1.012   0.433   3.200 -0.9335  0.1300  0.4177
  977THF     H413832   0.722   0.339   3.084 -2.8221  1.7804  3.1964
  977THF     H513833   0.769   0.508   3.056  0.3587  0.0144 -2.7090
  977THF     H613834   1.054   0.344   3.247  0.3563  1.2316  1.4203
  977THF     H713835   1.105   0.482   3.171 -0.2285 -0.8990  0.8880
  977THF     C813836   0.914   0.515   3.292 -0.3585  0.5833  0.2061
  977THF     C913837   0.778   0.452   3.255 -0.5102 -0.3544 -0.2030
  977THF    H1013838   0.932   0.620   3.268  0.3853  0.3478 -0.3049
  977THF    H1113839   0.926   0.504   3.400 -1.0378  0.7521  0.3015
  977THF    H1213840   0.760   0.358   3.308 -1.8036  0.7129  1.3669
  977THF    H1313841   0.686   0.508   3.270 -0.6298 -0.7418  0.5828
  978THF     O113842   3.181   1.034   4.619 -0.1036 -0.1456 -0.3710
  978THF     C213843   3.178   0.902   4.665  0.2624  0.0580 -0.6644
  978THF     C313844   3.238   1.030   4.490 -0.0834  0.3016 -0.1705
  978THF     H413845   3.088   0.845   4.643 -1.1522  0.9913  2.2470
  978THF     H513846   3.191   0.909   4.773 -0.3910 -0.4069 -0.5503
  978THF     H613847   3.167   0.983   4.422 -0.9488  1.0080  0.2283
  978THF     H713848   3.269   1.129   4.457  2.7982 -0.5064 -0.2108
  978THF     C813849   3.351   0.939   4.496  0.2769 -0.5120  0.5540
  978THF     C913850   3.308   0.844   4.613  0.5241 -0.3554 -0.1050
  978THF    H1013851   3.438   0.996   4.526  0.7372 -0.4378 -0.8618
  978THF    H1113852   3.366   0.886   4.402 -0.8017 -0.3510  0.2682
  978THF    H1213853   3.285   0.742   4.583 -0.6129 -0.4719  1.0975
  978THF    H1313854   3.382   0.835   4.693 -2.0298 -1.9128  2.2513
  979THF     O113855   4.371   5.113   3.851  0.3649 -0.3394 -0.4934
  979THF     C213856   4.299   5.211   3.769 -0.1897  0.6726  0.1066
  979THF     C313857   4.318   4.981   3.826 -0.0736  0.0554 -0.0472
  979THF     H413858   4.350   5.200   3.672 -1.2129 -1.6122 -0.2372
  979THF     H513859   4.293   5.314   3.802 -0.5748 -0.2835  3.3275
  979THF     H613860   4.384   4.926   3.760  0.5027  0.2055  0.3878
  979THF     H713861   4.305   4.921   3.916 -0.4169 -0.1972 -0.2627
  979THF     C813862   4.183   5.004   3.751  0.9386  0.3750 -0.0823
  979THF     C913863   4.154   5.155   3.763  0.1689 -0.7632 -0.8671
  979THF    H1013864   4.105   4.942   3.795  1.8524 -0.4046  0.4885
  979THF    H1113865   4.199   4.981   3.646  2.5297 -0.4628  0.3093
  979THF    H1213866   4.084   5.190   3.687 -1.1991 -0.1417  0.6354
  979THF    H1313867   4.102   5.184   3.854  1.0299 -0.7178 -0.3711
  980THF     O113868   4.610   0.858   1.437  0.1493  0.1786 -0.4892
  980THF     C213869   4.722   0.796   1.387 -1.3130  0.5534 -0.2379
  980THF     C313870   4.572   0.960   1.338  0.0973  0.3481  0.2708
  980THF     H413871   4.735   0.706   1.446 -1.7131  0.4296 -0.3340
  980THF     H513872   4.806   0.865   1.398 -0.6729 -0.2434 -0.0400
  980THF     H613873   4.465   0.965   1.322 -0.0418 -1.9786  0.1026
  980THF     H713874   4.598   1.060   1.373 -1.6983  0.8860  0.1199
  980THF     C813875   4.644   0.922   1.207  0.0700  0.2683 -0.4301
  980THF     C913876   4.689   0.780   1.240  0.0400 -0.4170  0.6089
  980THF    H1013877   4.732   0.976   1.171 -0.0242 -1.2746 -3.2577
  980THF    H1113878   4.573   0.926   1.124  0.6924 -0.2022 -1.0087
  980THF    H1213879   4.605   0.713   1.221 -1.2354  1.0423  0.8460
  980THF    H1313880   4.774   0.747   1.181  0.7748  1.4893  0.5161
  981THF     O113881   0.037   2.903   0.382 -0.3263  1.0060 -0.2224
  981THF     C213882  -0.016   3.020   0.313 -0.6988  0.3035 -0.0204
  981THF     C313883  -0.021   2.905   0.515 -0.0713 -0.8881  0.6877
  981THF     H413884  -0.117   2.994   0.280 -0.9428 -0.0469  0.9813
  981THF     H513885   0.057   3.044   0.235  2.3613 -1.4764  2.0960
  981THF     H613886  -0.119   2.862   0.495 -0.4069  0.7659 -1.4842
  981THF     H713887   0.026   2.834   0.584 -1.6656 -2.3706  0.3076
  981THF     C813888  -0.008   3.056   0.551 -0.2726 -0.1544  0.0651
  981THF     C913889  -0.036   3.123   0.422  0.7954 -0.2240  0.0600
  981THF    H1013890   0.097   3.076   0.573 -0.3232  0.1077  0.0676
  981THF    H1113891  -0.073   3.084   0.634 -0.4242 -3.3595  1.1745
  981THF    H1213892  -0.142   3.147   0.421  0.7582 -0.3913 -1.0607
  981THF    H1313893   0.034   3.207   0.416  3.0458 -1.9007  1.1903
  982THF     O113894   3.962   1.230   0.105  0.1367  0.6643  0.6361
  982THF     C213895   4.087   1.166   0.083 -0.0727 -0.3038 -0.7365
  982THF     C313896   3.981   1.357   0.157 -0.0419 -0.5396  0.0917
  982THF     H413897   4.110   1.169  -0.023  0.4170 -0.8245 -0.6567
  982THF     H513898   4.102   1.065   0.123  0.3758  0.5853  1.4902
  982THF     H613899   4.021   1.419   0.077  2.1420  0.2311  1.6976
  982THF     H713900   3.889   1.408   0.186 -0.5094 -0.4056 -1.5175
  982THF     C813901   4.090   1.339   0.261 -0.5367  0.1796 -1.3100
  982THF     C913902   4.188   1.248   0.171  0.2827 -0.0548 -0.4920
  982THF    H1013903   4.050   1.288   0.349 -1.0180 -0.1791 -1.7320
  982THF    H1113904   4.143   1.431   0.284 -1.4341  0.2236  0.7514
  982THF    H1213905   4.250   1.308   0.105 -1.1671 -0.0837 -1.9620
  982THF    H1313906   4.253   1.188   0.235 -0.4918  0.6871  1.0320
  983THF     O113907   4.244   1.290   1.329 -0.1706  0.1176  0.4311
  983THF     C213908   4.382   1.295   1.331 -0.0233 -0.4069 -0.0181
  983THF     C313909   4.215   1.186   1.229 -0.3543  0.2271 -0.1421
  983THF     H413910   4.421   1.206   1.381  0.9254  0.2928  0.5073
  983THF     H513911   4.422   1.373   1.396  0.8729 -1.8170  1.2207
  983THF     H613912   4.216   1.089   1.277 -1.1517 -0.1872 -0.9427
  983THF     H713913   4.118   1.196   1.180  0.2384  2.2348 -1.0288
  983THF     C813914   4.328   1.207   1.123  0.2525  0.1168  0.1376
  983THF     C913915   4.440   1.285   1.194  0.2272  0.0190  0.1963
  983THF    H1013916   4.302   1.259   1.031  0.9523  1.0733  0.4588
  983THF    H1113917   4.370   1.111   1.093  1.1437 -0.1743  2.1585
  983THF    H1213918   4.536   1.233   1.193  1.5834  2.3346  1.3255
  983THF    H1313919   4.442   1.386   1.152  0.4225 -0.1749 -0.2707
  984THF     O113920   0.603   4.277   1.152  0.2430  0.8929 -0.1740
  984THF     C213921   0.711   4.312   1.238  0.1615 -0.0838 -0.0898
  984THF     C313922   0.609   4.348   1.026 -0.5586 -0.2079 -0.4831
  984THF     H413923   0.747   4.214   1.271 -0.2706  0.2270  1.3566
  984THF     H513924   0.688   4.377   1.322 -0.2183 -0.2998 -0.0261
  984THF     H613925   0.655   4.273   0.961 -1.1715 -0.6806 -0.3774
  984THF     H713926   0.512   4.385   0.992 -0.4555  0.4914 -0.0444
  984THF     C813927   0.707   4.463   1.055 -0.0180  0.5163  0.5639
  984THF     C913928   0.803   4.400   1.147  0.0041 -0.6076  0.6539
  984THF    H1013929   0.656   4.548   1.100 -1.2965 -0.2923  0.7170
  984THF    H1113930   0.755   4.497   0.963  1.6639  0.7988  1.5223
  984THF    H1213931   0.884   4.340   1.106 -0.8980 -1.0378 -0.5216
  984THF    H1313932   0.857   4.481   1.197  1.1159 -1.3313  0.6463
  985THF     O113933   0.594   4.931   4.729 -0.1292  0.2556 -0.0400
  985THF     C213934   0.457   4.959   4.718 -0.0245 -0.3283 -0.4341
  985THF     C313935   0.662   5.040   4.681  0.4657  0.4623  0.3785
  985THF     H413936   0.395   4.903   4.787 -1.9552 -0.1375 -1.9176
  985THF     H513937   0.417   4.943   4.618  0.2256 -1.0298 -0.4243
  985THF     H613938   0.754   5.025   4.738  1.0747 -2.0660 -1.1142
  985THF     H713939   0.669   5.023   4.573 -2.1527  2.7475 -0.2633
  985THF     C813940   0.581   5.161   4.721 -0.1792  0.2163 -0.5022
  985THF     C913941   0.441   5.104   4.755 -0.1148 -0.1980  0.2274
  985THF    H1013942   0.582   5.220   4.629 -1.9661  0.0540 -0.6602
  985THF    H1113943   0.647   5.194   4.801  0.4281 -0.4617 -0.7108
  985THF    H1213944   0.418   5.108   4.861  0.2950 -5.3776  0.7702
  985THF    H1313945   0.359   5.150   4.699  0.1696 -0.7363 -0.6600
  986THF     O113946   4.420   0.263   5.058  0.0194  0.0632 -0.9179
  986THF     C213947   4.488   0.224   4.944 -0.3412 -0.4851  0.0792
  986THF     C313948   4.381   0.400   5.061 -0.3685 -0.0765  0.0361
  986THF     H413949   4.448   0.130   4.907 -2.1573 -0.2228  1.2561
  986THF     H513950   4.593   0.211   4.969  0.6932  0.9526 -3.0698
  986THF     H613951   4.294   0.414   5.125 -1.8059 -1.0956 -1.6147
  986THF     H713952   4.468   0.449   5.106  1.2288 -2.1626 -0.6168
  986THF     C813953   4.371   0.426   4.908 -0.1099 -0.0650  0.4894
  986THF     C913954   4.486   0.346   4.850  0.7466  0.0554  0.3542
  986THF    H1013955   4.381   0.532   4.885 -3.4349  0.2508  0.0720
  986THF    H1113956   4.278   0.383   4.871  0.6546 -0.0158 -1.5822
  986THF    H1213957   4.479   0.324   4.744  0.9784  0.8890  0.1611
  986THF    H1313958   4.573   0.409   4.869  1.2325 -1.0614  2.1475
  987THF     O113959   3.959   1.919   0.549 -0.4425 -0.8288 -0.3915
  987THF     C213960   3.979   1.850   0.668  0.3094  0.3974 -0.3016
  987THF     C313961   4.040   2.043   0.556 -0.3286  0.4693  0.2406
  987THF     H413962   3.940   1.748   0.669 -0.4574  0.6428 -1.8921
  987THF     H513963   3.919   1.904   0.742  1.2987 -1.7321  2.1740
  987THF     H613964   4.077   2.063   0.455  2.3992  2.0967  1.4456
  987THF     H713965   3.982   2.129   0.591 -0.4300  1.3645 -1.9550
  987THF     C813966   4.159   2.013   0.647 -0.2060 -0.5626 -0.2801
  987THF     C913967   4.135   1.867   0.694  0.0095  0.1764 -0.4984
  987THF    H1013968   4.165   2.080   0.733 -0.2004  0.5357 -1.1104
  987THF    H1113969   4.247   2.019   0.584 -0.6894 -1.2882 -1.0434
  987THF    H1213970   4.202   1.795   0.646  2.6931  0.9425  1.8550
  987THF    H1313971   4.134   1.850   0.802 -3.4952  2.9830  0.1055
  988THF     O113972   3.796   3.264   2.607  0.0605 -0.1931 -0.0132
  988THF     C213973   3.867   3.261   2.480 -0.4790  0.6532 -0.2590
  988THF     C313974   3.734   3.385   2.615  0.7369  0.6472 -0.0828
  988THF     H413975   3.805   3.224   2.398  2.2540 -2.6263 -1.1044
  988THF     H513976   3.945   3.187   2.500 -1.9660 -1.0252 -0.4296
  988THF     H613977   3.631   3.359   2.588  0.1961  0.6104  1.8493
  988THF     H713978   3.716   3.415   2.718  0.5020 -1.0942  0.4288
  988THF     C813979   3.823   3.486   2.544  0.0804 -1.1085  0.0776
  988THF     C913980   3.913   3.403   2.457 -0.0641  0.0474 -0.0602
  988THF    H1013981   3.892   3.529   2.617 -0.1630 -2.1131  0.9321
  988THF    H1113982   3.768   3.564   2.492 -2.2854 -1.8894  1.2501
  988THF    H1213983   3.897   3.425   2.352  0.3269 -1.3815 -0.4296
  988THF    H1313984   4.018   3.422   2.477  0.4870 -1.9020 -0.9156
  989THF     O113985   0.724   1.341   0.466 -0.2449  0.1989  0.3963
  989THF     C213986   0.586   1.335   0.452  0.6683  0.3810 -0.3048
  989THF     C313987   0.772   1.410   0.349  0.5362 -0.2973  0.0245
  989THF     H413988   0.531   1.429   0.460  0.7021  0.4977 -1.3323
  989THF     H513989   0.538   1.254   0.507 -1.8182 -0.9358 -4.0269
  989THF     H613990   0.777   1.512   0.387 -1.5139 -0.2579  0.3077
  989THF     H713991   0.869   1.368   0.324  0.4769 -1.3139  1.4005
  989THF     C813992   0.662   1.388   0.228  0.6499  0.1372 -0.0348
  989THF     C913993   0.559   1.305   0.304 -0.2658  0.5722  0.3997
  989THF    H1013994   0.710   1.350   0.138  0.5661 -0.3628  0.1274
  989THF    H1113995   0.605   1.478   0.205 -2.4501 -1.6992 -0.0689
  989THF    H1213996   0.459   1.334   0.274 -0.3341 -0.4716 -0.4378
  989THF    H1313997   0.582   1.202   0.275  2.7646  1.1184  0.4546
  990THF     O113998   4.387   2.372   4.114 -1.2926  0.2780 -0.4057
  990THF     C213999   4.354   2.491   4.058 -0.1013 -0.5644  0.4030
  990THF     C314000   4.310   2.267   4.061 -0.4259 -0.6408  0.0081
  990THF     H414001   4.399   2.499   3.959 -3.4786 -1.7362 -1.3966
  990THF     H514002   4.383   2.572   4.125  1.7476 -1.4732  0.7725
  990THF     H614003   4.346   2.239   3.963  0.6320  0.5062  0.0431
  990THF     H714004   4.311   2.189   4.137  0.0757  1.3161  2.1577
  990THF     C814005   4.175   2.334   4.048 -0.0046 -1.0153 -0.2222
  990THF     C914006   4.202   2.482   4.059 -0.4072 -0.2768  0.3381
  990THF    H1014007   4.108   2.314   4.132  1.8681 -0.7250  1.4259
  990THF    H1114008   4.129   2.313   3.952  1.2574  0.1013 -1.1054
  990THF    H1214009   4.166   2.537   3.972  1.8875 -0.5993 -0.8976
  990THF    H1314010   4.161   2.526   4.150 -1.0467  0.8323 -0.4627
  991THF     O114011   4.664   2.021   2.396  0.0776  0.3010  0.0866
  991THF     C214012   4.670   1.935   2.283 -0.2474  0.1476  0.4594
  991THF     C314013   4.547   2.099   2.376 -0.2200 -0.0726 -0.1432
  991THF     H414014   4.719   1.838   2.297 -2.2134 -0.9740 -0.1496
  991THF     H514015   4.724   1.978   2.198  2.4566 -0.0544  1.9452
  991THF     H614016   4.494   2.108   2.471 -0.9697  0.2041 -0.5849
  991THF     H714017   4.584   2.194   2.339  0.8697 -1.3819 -2.6801
  991THF     C814018   4.462   2.038   2.263 -0.5113 -0.0149 -0.5348
  991THF     C914019   4.523   1.907   2.247 -0.3707 -0.1825  0.1717
  991THF    H1014020   4.491   2.088   2.171  2.7665  0.3165  0.5721
  991THF    H1114021   4.353   2.038   2.275 -0.6569 -1.0255 -1.6860
  991THF    H1214022   4.486   1.845   2.329  1.5573 -0.9414  0.5132
  991THF    H1314023   4.507   1.862   2.149  3.6746 -0.1276 -0.6763
  992THF     O114024   2.821   0.899   2.700  0.1387 -0.6302 -0.2135
  992THF     C214025   2.863   0.806   2.793 -0.5672  0.2444  0.0091
  992THF     C314026   2.897   0.884   2.575 -0.0579 -0.4700 -0.1878
  992THF     H414027   2.774   0.750   2.824 -1.1824  1.1988  0.0005
  992THF     H514028   2.889   0.848   2.890 -0.1697 -1.2270  0.5614
  992THF     H614029   2.830   0.882   2.489  1.0724  1.2100 -1.1730
  992THF     H714030   2.971   0.963   2.561  1.6253 -1.5061  2.1191
  992THF     C814031   2.970   0.754   2.580  0.1614  0.3773  0.5632
  992THF     C914032   2.984   0.736   2.726  0.1667  0.7180 -0.9364
  992THF    H1014033   3.067   0.752   2.531  1.5211 -0.4418  3.0955
  992THF    H1114034   2.914   0.674   2.532 -0.7650  1.4309 -0.1806
  992THF    H1214035   2.996   0.630   2.747  3.9143  1.3451  0.8254
  992THF    H1314036   3.075   0.777   2.769 -0.3542 -0.1538  1.1117
  993THF     O114037   1.845   1.789   2.576 -0.4468 -0.2734 -0.3087
  993THF     C214038   1.949   1.857   2.649 -0.2780  0.7220 -0.6530
  993THF     C314039   1.719   1.855   2.605  0.2473 -0.5617  0.0167
  993THF     H414040   2.034   1.880   2.585  1.1306 -0.3282  0.7776
  993THF     H514041   1.984   1.793   2.729 -1.6059  0.7002 -0.0616
  993THF     H614042   1.697   1.923   2.523  0.9229 -0.6574 -0.2508
  993THF     H714043   1.637   1.784   2.613 -0.5437  0.3999  0.7313
  993THF     C814044   1.738   1.938   2.723 -0.0443  0.4231  0.7281
  993THF     C914045   1.883   1.985   2.702  0.3186  0.0948 -0.1569
  993THF    H1014046   1.737   1.870   2.808  1.5491 -0.2684  0.2351
  993THF    H1114047   1.673   2.025   2.731 -0.0540  0.5214 -0.2456
  993THF    H1214048   1.895   2.064   2.628 -1.0155  0.4956  0.0366
  993THF    H1314049   1.935   2.022   2.790  0.6969 -0.8257  0.0233
  994THF     O114050   2.421   1.667   4.363 -0.1167 -0.4046  0.4089
  994THF     C214051   2.506   1.753   4.442  0.4411  0.2412 -0.6860
  994THF     C314052   2.477   1.682   4.229 -0.5132 -0.2701  0.1127
  994THF     H414053   2.602   1.702   4.445 -0.7202 -2.1156 -0.6811
  994THF     H514054   2.452   1.767   4.535 -0.0003 -0.9186 -0.7424
  994THF     H614055   2.551   1.605   4.207 -1.4746 -1.4627  0.8876
  994THF     H714056   2.401   1.663   4.154  1.1140 -0.2552 -1.6220
  994THF     C814057   2.523   1.826   4.221  0.4388  0.1662  0.7431
  994THF     C914058   2.506   1.884   4.360  0.1022 -0.1346 -0.6134
  994THF    H1014059   2.486   1.886   4.137 -0.7780  1.4657  2.1533
  994THF    H1114060   2.630   1.807   4.208  0.3793 -0.1294  0.6803
  994THF    H1214061   2.589   1.948   4.388  0.5296 -0.1464 -1.7908
  994THF    H1314062   2.404   1.923   4.373  0.0397 -0.4592 -0.1175
  995THF     O114063   1.990   3.358   4.534 -0.2473  0.1578  0.2506
  995THF     C214064   2.050   3.235   4.495 -0.4324  0.4929  0.2209
  995THF     C314065   1.873   3.367   4.461 -0.1528  0.0792  0.2375
  995THF     H414066   1.982   3.159   4.533 -0.4389  0.7569  0.7565
  995THF     H514067   2.150   3.226   4.537 -0.1413  0.1482 -0.5375
  995THF     H614068   1.782   3.326   4.505 -0.2885  0.5764  0.4348
  995THF     H714069   1.851   3.473   4.443 -2.9926 -0.8052 -2.3765
  995THF     C814070   1.900   3.296   4.324  0.6375 -0.0821 -0.5707
  995THF     C914071   2.042   3.244   4.348 -0.1525  0.4688  0.4962
  995THF    H1014072   1.888   3.362   4.237 -1.1738 -0.4051 -0.6172
  995THF    H1114073   1.838   3.207   4.315 -1.2440  0.9910  0.8608
  995THF    H1214074   2.062   3.148   4.300  0.9315 -0.2207  2.1925
  995THF    H1314075   2.120   3.308   4.306  1.5170 -1.5829  0.3036
  996THF     O114076   2.601   4.460   0.564  0.0966 -0.2489  0.0838
  996THF     C214077   2.500   4.525   0.641  0.0584 -0.2555 -0.3854
  996THF     C314078   2.674   4.374   0.650 -0.3727 -0.7529  0.1976
  996THF     H414079   2.411   4.464   0.651  0.9145 -1.3710  0.7487
  996THF     H514080   2.480   4.623   0.597 -1.2520 -0.4107 -0.1721
  996THF     H614081   2.619   4.279   0.648 -0.4418 -0.7202  0.4993
  996THF     H714082   2.776   4.369   0.614 -0.2446  1.4945  0.1309
  996THF     C814083   2.674   4.440   0.787  0.1270  0.4860 -0.2048
  996THF     C914084   2.571   4.547   0.775  0.4183  0.1438  0.0470
  996THF    H1014085   2.765   4.495   0.812 -0.9422  1.9324  0.7265
  996THF    H1114086   2.648   4.367   0.864  0.4994 -0.6184 -1.1040
  996THF    H1214087   2.503   4.554   0.860 -0.5158  1.6350 -0.7604
  996THF    H1314088   2.622   4.643   0.782  3.5019 -1.2502 -1.4777
  997THF     O114089   2.266   5.003   2.659  0.5093  0.1516  0.2593
  997THF     C214090   2.394   4.964   2.616 -0.1165 -0.3754  0.2595
  997THF     C314091   2.245   4.994   2.796 -0.8746  0.1366  0.4520
  997THF     H414092   2.433   5.041   2.549  2.0021 -0.9149  0.7807
  997THF     H514093   2.396   4.877   2.550  1.9216 -0.3325  0.1875
  997THF     H614094   2.176   5.069   2.832 -1.3540 -0.3928  0.6513
  997THF     H714095   2.205   4.896   2.825  0.1693 -0.9796 -1.6169
  997THF     C814096   2.384   5.017   2.851  0.7014 -0.2183  0.3310
  997THF     C914097   2.462   4.942   2.745 -0.1998  0.3783 -0.3132
  997THF    H1014098   2.386   4.972   2.950 -2.0523 -0.6938  0.2575
  997THF    H1114099   2.398   5.125   2.852  1.4163 -0.3115  0.6962
  997THF    H1214100   2.568   4.970   2.745  0.3689 -1.4312 -2.3998
  997THF    H1314101   2.461   4.838   2.776 -1.6952  0.2240 -0.8208
  998THF     O114102   4.003   3.029   0.932 -0.2056  0.0449 -0.2142
  998THF     C214103   3.944   2.914   0.999 -0.4469 -0.1600 -0.1373
  998THF     C314104   4.069   3.098   1.031  0.4665  0.7187  0.1878
  998THF     H414105   3.908   2.834   0.934  0.4504 -0.7173  0.0323
  998THF     H514106   3.864   2.954   1.062 -0.5308  0.6323 -0.7409
  998THF     H614107   4.136   3.176   0.995  0.7134  0.4848  0.1375
  998THF     H714108   4.002   3.143   1.104 -0.7274  0.6089 -0.8181
  998THF     C814109   4.150   2.984   1.105  0.0241  0.0409 -0.0975
  998THF     C914110   4.067   2.861   1.070 -0.5836  0.7828  0.4208
  998THF    H1014111   4.146   3.002   1.212 -0.8363 -1.2779  0.1046
  998THF    H1114112   4.253   2.980   1.070 -0.4521 -0.1906 -1.5501
  998THF    H1214113   4.124   2.811   0.991 -1.2606  0.1484  0.3217
  998THF    H1314114   4.037   2.791   1.148 -0.3001 -0.3875 -0.4937
  999THF     O114115   1.406   4.258   3.030  0.2043 -0.0192 -0.5937
  999THF     C214116   1.525   4.302   2.980  0.1260 -0.6668  0.7524
  999THF     C314117   1.295   4.327   2.974  0.1341 -0.1187 -0.0897
  999THF     H414118   1.586   4.220   2.943  0.7508 -0.7992  2.0138
  999THF     H514119   1.585   4.349   3.058  2.0804 -1.1304 -0.4145
  999THF     H614120   1.254   4.264   2.895  1.1973 -0.9036 -0.0333
  999THF     H714121   1.218   4.344   3.048  1.6674 -2.5257  2.2332
  999THF     C814122   1.357   4.454   2.907 -0.1910 -0.5862  0.4554
  999THF     C914123   1.490   4.406   2.864  0.4183  0.5721  0.4170
  999THF    H1014124   1.367   4.522   2.991  0.6332  1.1003 -0.9603
  999THF    H1114125   1.298   4.496   2.825  0.6782  0.0649  0.1592
  999THF    H1214126   1.490   4.346   2.773 -1.1932 -0.2955  0.9389
  999THF    H1314127   1.556   4.492   2.864 -0.9080  1.6272 -0.4973
 1000THF     O114128   1.563   4.587   0.203 -0.1846  0.1570  0.2970
 1000THF     C214129   1.564   4.459   0.273 -0.1081 -0.7108  0.3917
 1000THF     C314130   1.429   4.634   0.216 -0.0265  0.0642  0.0702
 1000THF     H414131   1.668   4.438   0.300  0.9000  0.2929 -2.3426
 1000THF     H514132   1.537   4.383   0.200  1.3426 -1.4998  0.6294
 1000THF     H614133   1.423   4.741   0.196 -1.1703  0.4840  2.3745
 1000THF     H714134   1.366   4.572   0.152  1.5411  0.0816 -1.5744
 1000THF     C814135   1.380   4.600   0.363 -0.3729  1.0105  0.0683
 1000THF     C914136   1.469   4.476   0.390  0.0868  0.2847 -0.9173
 1000THF    H1014137   1.276   4.574   0.346 -0.6966  0.5671  2.4832
 1000THF    H1114138   1.382   4.677   0.440  1.8054  0.3727  0.7398
 1000THF    H1214139   1.525   4.473   0.483  0.8421 -1.5875 -1.3911
 1000THF    H1314140   1.406   4.387   0.395  1.0292 -0.3973 -0.8300
 1001THF     O114141   2.812   3.990   4.073 -0.2762  0.2205 -0.0774
 1001THF     C214142   2.828   4.055   3.952  0.4767  0.9389  0.5011
 1001THF     C314143   2.896   3.877   4.071  0.0176 -0.3966 -0.4675
 1001THF     H414144   2.927   4.100   3.949  0.5611  0.7807 -2.6999
 1001THF     H514145   2.763   4.137   3.922 -0.5267 -0.1324 -0.3703
 1001THF     H614146   2.996   3.909   4.100 -0.7531  1.4955  0.2972
 1001THF     H714147   2.864   3.796   4.137  1.8716 -1.0898 -0.3830
 1001THF     C814148   2.895   3.828   3.926  0.3640 -0.6749 -0.1413
 1001THF     C914149   2.814   3.937   3.850 -0.0409  0.3916 -0.6590
 1001THF    H1014150   2.849   3.729   3.921 -0.3371 -0.4118  0.8517
 1001THF    H1114151   2.999   3.816   3.894  0.2477 -1.8844 -0.1038
 1001THF    H1214152   2.856   3.960   3.752 -0.2087 -0.1307 -0.8589
 1001THF    H1314153   2.706   3.923   3.848 -0.1078  0.4623  1.0189
 1002THF     O114154   3.374   0.728   0.945 -0.1538  0.1765 -0.3079
 1002THF     C214155   3.400   0.669   0.814 -0.2609  0.0686  0.5546
 1002THF     C314156   3.436   0.854   0.941  0.3557  0.0659 -1.1357
 1002THF     H414157   3.327   0.695   0.738  0.0517  1.2327  0.6335
 1002THF     H514158   3.384   0.561   0.817 -0.3756  0.0417 -0.6712
 1002THF     H614159   3.377   0.912   0.870  1.3263  0.4790 -1.6337
 1002THF     H714160   3.440   0.914   1.032 -0.3477  0.0112 -1.0641
 1002THF     C814161   3.573   0.826   0.876  0.3963  0.4309 -0.6604
 1002THF     C914162   3.544   0.707   0.791 -0.2262  0.4821  0.6651
 1002THF    H1014163   3.641   0.795   0.955  1.4086  1.0038 -1.2788
 1002THF    H1114164   3.613   0.909   0.817  1.4773  1.2901  1.1741
 1002THF    H1214165   3.573   0.727   0.688  3.0470  1.7540  1.7008
 1002THF    H1314166   3.607   0.627   0.828 -2.7326 -1.0567  1.8134
 1003THF     O114167   3.541   4.601   2.530 -0.2441 -0.4650 -0.6162
 1003THF     C214168   3.462   4.648   2.639 -0.0366 -0.3481  0.2325
 1003THF     C314169   3.586   4.475   2.569  0.7097 -0.0791 -0.2625
 1003THF     H414170   3.357   4.617   2.637 -0.2782  0.3214  1.5494
 1003THF     H514171   3.440   4.755   2.633 -0.9226 -0.3717  2.2870
 1003THF     H614172   3.507   4.400   2.563  0.4291  0.0713  1.1815
 1003THF     H714173   3.666   4.457   2.498 -1.2390 -1.2025 -2.3018
 1003THF     C814174   3.638   4.498   2.715 -0.1651 -0.3147  0.6053
 1003THF     C914175   3.553   4.616   2.753  0.5940  0.0635  0.6576
 1003THF    H1014176   3.741   4.533   2.705 -0.7893  1.8751  1.2309
 1003THF    H1114177   3.638   4.410   2.779 -1.4989 -0.8151 -0.0554
 1003THF    H1214178   3.506   4.599   2.849  0.2297  0.0545  0.4794
 1003THF    H1314179   3.622   4.700   2.759  1.4072 -0.5596  0.3236
 1004THF     O114180   4.883   2.277   4.119 -0.0655  0.4492  0.4365
 1004THF     C214181   4.926   2.394   4.186 -0.1161  0.1716  0.0653
 1004THF     C314182   4.759   2.251   4.173 -0.3239  0.0294  0.5011
 1004THF     H414183   4.861   2.476   4.158 -1.2410 -1.2561 -1.7532
 1004THF     H514184   5.028   2.424   4.163 -1.7324  3.3704 -4.0519
 1004THF     H614185   4.680   2.324   4.151 -0.2331 -0.6423 -2.3866
 1004THF     H714186   4.735   2.158   4.122  0.1948  0.3645 -0.3687
 1004THF     C814187   4.792   2.246   4.329 -0.8951  0.2302  0.4038
 1004THF     C914188   4.872   2.375   4.334 -0.3898  0.9043 -0.0052
 1004THF    H1014189   4.856   2.158   4.343 -1.7542 -0.8254 -1.8163
 1004THF    H1114190   4.710   2.248   4.401 -0.4688  1.5526  0.8857
 1004THF    H1214191   4.804   2.449   4.376 -1.8101 -1.6473  2.5581
 1004THF    H1314192   4.956   2.366   4.404 -1.0012  0.8352  0.7368
 1005THF     O114193   3.409   3.184   2.443  0.2494  0.3609 -0.1709
 1005THF     C214194   3.504   3.181   2.343  0.1423 -0.3828 -0.1427
 1005THF     C314195   3.324   3.071   2.427 -0.0487  0.0694  0.2728
 1005THF     H414196   3.577   3.102   2.359  1.0913  0.9712  3.3312
 1005THF     H514197   3.558   3.276   2.338 -1.0818  0.3087 -0.8200
 1005THF     H614198   3.369   2.973   2.440 -0.1530  0.0806  0.7364
 1005THF     H714199   3.243   3.083   2.499 -0.8574  2.2618 -0.9292
 1005THF     C814200   3.286   3.083   2.286  0.6606 -0.1827  0.0717
 1005THF     C914201   3.407   3.149   2.220  0.0205 -0.2086  0.6188
 1005THF    H1014202   3.205   3.155   2.274  0.0729 -0.7106  0.7782
 1005THF    H1114203   3.269   2.986   2.240  0.3884  0.2195 -0.6991
 1005THF    H1214204   3.473   3.085   2.161  0.7513  1.1614 -0.0943
 1005THF    H1314205   3.379   3.231   2.154 -1.0682 -1.7782 -0.9971
 1006THF     O114206   4.348   1.241   2.526  0.1465 -0.0062  0.3577
 1006THF     C214207   4.315   1.145   2.626 -0.3825  0.3049 -0.0632
 1006THF     C314208   4.374   1.372   2.587  0.1326  0.6285  0.2426
 1006THF     H414209   4.414   1.106   2.653 -0.2088 -0.0194 -1.1230
 1006THF     H514210   4.247   1.072   2.583  0.5764  0.4233 -1.8661
 1006THF     H614211   4.478   1.389   2.615  0.1859 -0.2835  0.6401
 1006THF     H714212   4.356   1.459   2.524 -0.4439  0.2096 -0.1716
 1006THF     C814213   4.285   1.381   2.711  0.1060 -0.3313  0.4828
 1006THF     C914214   4.260   1.229   2.740 -0.3978 -0.1050  0.3458
 1006THF    H1014215   4.187   1.412   2.674  0.1372  0.2150  0.8608
 1006THF    H1114216   4.311   1.444   2.795  0.2204 -0.2080  0.3565
 1006THF    H1214217   4.301   1.200   2.837 -2.0378  1.7239  1.6556
 1006THF    H1314218   4.152   1.211   2.748 -0.4152 -0.0535  0.2326
 1007THF     O114219   2.008   1.026   1.854 -0.4476 -0.2880 -0.5491
 1007THF     C214220   2.141   1.045   1.800 -0.3768  0.0371  0.4144
 1007THF     C314221   1.954   1.152   1.888  0.5174 -0.0969  0.3485
 1007THF     H414222   2.127   1.058   1.693  1.8941 -1.9430 -0.1930
 1007THF     H514223   2.201   0.955   1.806 -0.9840 -0.5917 -1.8521
 1007THF     H614224   1.892   1.185   1.804 -1.4352 -2.1523  0.8901
 1007THF     H714225   1.886   1.145   1.973  0.1704  0.2187  0.0994
 1007THF     C814226   2.071   1.245   1.904  0.5443 -0.4239 -0.0096
 1007THF     C914227   2.192   1.166   1.880  0.7167 -0.0989 -0.2515
 1007THF    H1014228   2.079   1.278   2.007  3.0391 -0.0646 -0.2549
 1007THF    H1114229   2.069   1.323   1.827 -1.9164 -1.5411 -1.2011
 1007THF    H1214230   2.268   1.228   1.832  1.0628  0.0451  0.4700
 1007THF    H1314231   2.233   1.126   1.973  1.3163 -0.5091 -0.6865
 1008THF     O114232   2.083   0.604   1.469  0.2947 -0.4021  0.0921
 1008THF     C214233   2.122   0.733   1.416  0.2589  0.0688 -0.0963
 1008THF     C314234   1.976   0.625   1.561 -0.0105  0.2292 -0.2914
 1008THF     H414235   2.181   0.727   1.325 -0.9215 -1.0440 -0.8286
 1008THF     H514236   2.183   0.791   1.485  2.0995  1.0862 -2.4656
 1008THF     H614237   1.924   0.533   1.585 -1.9247  1.2369 -0.4009
 1008THF     H714238   2.011   0.674   1.652  1.0555  2.0283 -1.5945
 1008THF     C814239   1.897   0.730   1.487  0.0116  0.1141 -0.1136
 1008THF     C914240   1.996   0.812   1.399 -0.2891 -0.4148 -0.7969
 1008THF    H1014241   1.848   0.802   1.554 -0.6745  0.6252 -1.1381
 1008THF    H1114242   1.815   0.693   1.426 -1.4386  2.3415  0.3316
 1008THF    H1214243   1.960   0.822   1.296 -0.0199 -0.8972 -0.9427
 1008THF    H1314244   2.019   0.906   1.447  0.2781 -1.0753  0.2522
 1009THF     O114245   4.161   4.132   3.245  0.5615  0.0790  0.3043
 1009THF     C214246   4.190   4.135   3.102 -0.1773  0.4177 -0.6167
 1009THF     C314247   4.277   4.150   3.320 -0.1076 -0.2058  0.5125
 1009THF     H414248   4.161   4.230   3.057  1.4135 -0.0814 -2.8539
 1009THF     H514249   4.128   4.055   3.061 -0.9126  0.5370  0.2132
 1009THF     H614250   4.256   4.221   3.400 -0.9484  0.4908 -0.3029
 1009THF     H714251   4.303   4.053   3.360  1.3956  0.0608  0.2309
 1009THF     C814252   4.384   4.184   3.218  0.5091 -0.1425 -0.2233
 1009THF     C914253   4.345   4.118   3.092 -0.2692 -0.5372  0.3242
 1009THF    H1014254   4.484   4.155   3.250  0.4059 -0.7153 -0.4092
 1009THF    H1114255   4.379   4.291   3.201 -0.7300 -0.1809 -0.1945
 1009THF    H1214256   4.392   4.177   3.013  1.6866 -2.7399 -0.2808
 1009THF    H1314257   4.378   4.014   3.087 -0.7107 -0.6470 -0.4665
 1010THF     O114258   4.418   4.936   5.481  0.4758 -0.5977 -0.1968
 1010THF     C214259   4.335   5.022   5.551  0.0782 -0.6144 -0.8277
 1010THF     C314260   4.340   4.869   5.381 -0.1218  0.0179  0.1628
 1010THF     H414261   4.379   5.120   5.568 -1.1945  0.1306 -1.6931
 1010THF     H514262   4.309   4.963   5.639  0.7175 -2.5895 -1.8876
 1010THF     H614263   4.387   4.855   5.283  1.2791 -0.1990  0.8384
 1010THF     H714264   4.339   4.764   5.407  0.8355  0.5152  2.4018
 1010THF     C814265   4.199   4.928   5.381 -0.1367  0.2847 -0.0828
 1010THF     C914266   4.219   5.056   5.458  0.5327 -0.0948 -1.0422
 1010THF    H1014267   4.138   4.868   5.448  1.3724 -0.4489  0.6624
 1010THF    H1114268   4.150   4.941   5.284  0.6568  1.9984 -0.3016
 1010THF    H1214269   4.238   5.131   5.382 -1.4859  1.5143 -0.0621
 1010THF    H1314270   4.125   5.078   5.509  0.3154  1.1606 -1.9499
 1011THF     O114271   2.712   3.873   1.746 -0.1997 -0.3229  0.1816
 1011THF     C214272   2.795   3.987   1.751 -0.5295 -0.0726  0.5787
 1011THF     C314273   2.776   3.776   1.668  0.3115  0.4147  0.1193
 1011THF     H414274   2.785   4.058   1.833  0.9892  0.9672 -0.1022
 1011THF     H514275   2.781   4.042   1.657  1.7956 -1.4540 -0.6562
 1011THF     H614276   2.739   3.674   1.684 -1.5776  1.1897  0.9909
 1011THF     H714277   2.741   3.797   1.567 -0.6317  1.4778  0.6530
 1011THF     C814278   2.925   3.799   1.672 -1.3326  0.4600 -0.1972
 1011THF     C914279   2.943   3.933   1.746  0.0759 -0.3898  0.3575
 1011THF    H1014280   2.961   3.799   1.569 -3.6817 -3.4861 -1.1977
 1011THF    H1114281   2.992   3.720   1.705 -1.8156 -0.1896 -0.7542
 1011THF    H1214282   2.961   3.926   1.854 -0.2084  0.4893  0.4679
 1011THF    H1314283   3.010   4.008   1.706 -0.5260  1.6793  2.9337
 1012THF     O114284   1.949   2.413   0.044 -0.2173 -0.5854 -0.4370
 1012THF     C214285   1.837   2.350  -0.014  0.1851  0.0206 -0.1085
 1012THF     C314286   1.910   2.545   0.076 -0.6362 -0.1550  0.8075
 1012THF     H414287   1.849   2.242  -0.003 -1.6504 -0.2220 -0.1578
 1012THF     H514288   1.837   2.383  -0.117  0.0060  4.5599  1.1273
 1012THF     H614289   1.979   2.586   0.149 -1.1720 -0.3465  1.4291
 1012THF     H714290   1.923   2.611  -0.010 -0.6639 -0.2115  0.7598
 1012THF     C814291   1.774   2.530   0.137  0.1654 -0.3970  0.4597
 1012THF     C914292   1.718   2.410   0.063  0.5461 -0.6284  0.0899
 1012THF    H1014293   1.716   2.620   0.118 -1.7123 -1.3090  1.5357
 1012THF    H1114294   1.778   2.511   0.245 -2.7736  0.5082  0.8397
 1012THF    H1214295   1.672   2.347   0.139  0.7682  0.1632  0.9048
 1012THF    H1314296   1.637   2.423  -0.008 -0.9196  1.6399  2.0279
 1013THF     O114297   0.673   4.205   4.442 -0.0890  0.8589 -0.1168
 1013THF     C214298   0.564   4.131   4.383 -0.4155  0.0275  0.1559
 1013THF     C314299   0.752   4.119   4.521  1.1618  0.0604  0.2602
 1013THF     H414300   0.575   4.143   4.275 -1.4517 -1.3981 -0.1422
 1013THF     H514301   0.463   4.157   4.415  0.0070 -0.5908  2.1724
 1013THF     H614302   0.857   4.147   4.529  0.5334  1.9514  4.0456
 1013THF     H714303   0.710   4.107   4.621  1.0034 -0.6691  0.1136
 1013THF     C814304   0.726   3.977   4.453 -0.6444  0.5131  0.2034
 1013THF     C914305   0.585   3.988   4.407  0.3716  0.0931  0.4432
 1013THF    H1014306   0.755   3.894   4.518  0.9846  1.5724  0.8734
 1013THF    H1114307   0.789   3.968   4.365 -1.6756 -2.5373 -0.3625
 1013THF    H1214308   0.566   3.914   4.330 -0.7196 -0.0695  0.8456
 1013THF    H1314309   0.523   3.945   4.486 -0.2841  2.3228  1.2271
 1014THF     O114310   4.765   2.106   5.397  0.2970  0.5370  0.0185
 1014THF     C214311   4.761   1.983   5.325 -0.4470  0.3986  0.1059
 1014THF     C314312   4.845   2.202   5.328  0.8982 -0.2054 -1.3053
 1014THF     H414313   4.666   1.934   5.346 -1.1049  2.1475  1.5263
 1014THF     H514314   4.838   1.915   5.361 -1.6744 -1.2379 -0.2612
 1014THF     H614315   4.828   2.303   5.364  1.5580  0.1884 -2.0763
 1014THF     H714316   4.949   2.172   5.339  0.7749 -0.3184 -0.3210
 1014THF     C814317   4.798   2.167   5.190 -0.5786  0.0547  0.5109
 1014THF     C914318   4.781   2.024   5.181 -0.3990  0.3646 -0.4786
 1014THF    H1014319   4.873   2.202   5.119 -1.5033 -0.3468 -0.7000
 1014THF    H1114320   4.701   2.215   5.177 -0.8998 -0.9155 -0.8249
 1014THF    H1214321   4.696   2.005   5.116 -0.9689  0.5491  0.2007
 1014THF    H1314322   4.870   1.976   5.140  1.7069  3.4009  0.1662
 1015THF     O114323   0.052   2.869   5.375 -0.6108  0.1081  0.2902
 1015THF     C214324   0.076   2.898   5.235  0.0766  0.5612 -0.0195
 1015THF     C314325   0.167   2.922   5.450 -0.8901 -0.5575 -0.0908
 1015THF     H414326   0.053   3.004   5.223 -1.4252  0.2355 -0.2704
 1015THF     H514327   0.018   2.843   5.161  0.9092 -1.5306  0.8070
 1015THF     H614328   0.139   3.023   5.479 -1.2514 -0.0705 -2.0496
 1015THF     H714329   0.196   2.859   5.535  1.6128  1.0814  0.3860
 1015THF     C814330   0.282   2.928   5.348 -0.3339 -0.7260  0.0012
 1015THF     C914331   0.225   2.879   5.217  0.7509 -0.4791 -0.7889
 1015THF    H1014332   0.368   2.866   5.374  0.6031  0.3999 -0.2775
 1015THF    H1114333   0.330   3.026   5.345 -0.0739 -0.6566  3.0005
 1015THF    H1214334   0.254   2.925   5.123  0.7698  0.3986 -0.3613
 1015THF    H1314335   0.247   2.772   5.217  1.5063 -0.3394  0.2149
 1016THF     O114336   0.219   2.127   3.264  0.2503 -0.2941 -0.2545
 1016THF     C214337   0.247   2.099   3.119 -0.2740  0.6128  0.0571
 1016THF     C314338   0.345   2.127   3.324  0.7109  0.1037 -0.4730
 1016THF     H414339   0.162   2.139   3.063 -0.2577 -1.5850 -1.6624
 1016THF     H514340   0.246   1.990   3.114  0.7952  0.4757  1.9888
 1016THF     H614341   0.351   2.180   3.419 -0.9349 -0.7999  0.1838
 1016THF     H714342   0.380   2.026   3.344  1.6064  0.8013  1.7229
 1016THF     C814343   0.434   2.190   3.224 -0.2903 -0.1738 -0.4251
 1016THF     C914344   0.385   2.151   3.083 -0.5157  0.3152 -0.4722
 1016THF    H1014345   0.538   2.163   3.242  0.0581 -0.1359 -2.1877
 1016THF    H1114346   0.428   2.299   3.226 -1.8130 -0.2367 -0.8166
 1016THF    H1214347   0.390   2.237   3.016  1.8964  0.5018 -0.1674
 1016THF    H1314348   0.442   2.064   3.048 -1.2520 -0.7284  0.8123
 1017THF     O114349   3.720   4.470   4.858 -0.1619 -0.0781 -0.1915
 1017THF     C214350   3.838   4.469   4.783 -0.5269 -0.3182  0.8086
 1017THF     C314351   3.731   4.371   4.955 -0.9212  0.4650  0.6875
 1017THF     H414352   3.900   4.545   4.830 -1.9921  1.4073  0.0838
 1017THF     H514353   3.824   4.503   4.680 -0.7435  1.6664  1.4393
 1017THF     H614354   3.809   4.401   5.026 -1.3387  1.1477  0.8614
 1017THF     H714355   3.634   4.356   5.001 -0.9358 -2.2757 -0.0193
 1017THF     C814356   3.775   4.255   4.870  0.0734  0.3690 -0.0731
 1017THF     C914357   3.880   4.324   4.779 -0.0899  0.5372  0.2095
 1017THF    H1014358   3.688   4.214   4.818 -0.0468 -1.1472  1.2526
 1017THF    H1114359   3.828   4.172   4.917  0.2252  0.5044 -0.0036
 1017THF    H1214360   3.980   4.312   4.820  0.6121 -1.9751 -1.9604
 1017THF    H1314361   3.880   4.271   4.684 -0.3933  0.9852 -0.0395
 1018THF     O114362   4.668   3.562   2.538 -0.5346 -0.6558 -0.3915
 1018THF     C214363   4.772   3.471   2.554  0.2044 -1.2018 -0.3884
 1018THF     C314364   4.623   3.551   2.409  0.1679 -0.2844  0.1990
 1018THF     H414365   4.802   3.456   2.658 -1.0611 -0.8056  0.0455
 1018THF     H514366   4.851   3.533   2.512  0.0082 -0.9100 -0.3293
 1018THF     H614367   4.525   3.593   2.392  0.5374 -0.2258 -2.1291
 1018THF     H714368   4.700   3.603   2.352  0.2608 -1.8920 -1.2202
 1018THF     C814369   4.619   3.399   2.384  0.2473  0.1072 -0.1826
 1018THF     C914370   4.730   3.347   2.481  0.8925 -0.5455  0.1538
 1018THF    H1014371   4.638   3.380   2.279 -0.8053 -0.0128 -0.3588
 1018THF    H1114372   4.522   3.356   2.405 -0.1493  0.1760 -1.7357
 1018THF    H1214373   4.676   3.289   2.556  0.7584 -0.5347  0.0664
 1018THF    H1314374   4.816   3.293   2.441  2.1738  1.9634 -0.7034
 1019THF     O114375   5.153   0.666   3.975  0.3750  0.8440  0.6282
 1019THF     C214376   5.113   0.533   3.979  0.6006 -0.1553  0.4045
 1019THF     C314377   5.061   0.738   4.062 -0.0664  0.1804 -0.8522
 1019THF     H414378   5.149   0.480   4.067 -0.9291  0.6416  1.5525
 1019THF     H514379   5.145   0.484   3.887 -1.3127 -2.0745  0.6821
 1019THF     H614380   5.109   0.739   4.160 -1.7627  1.1723  0.0157
 1019THF     H714381   5.040   0.841   4.032 -0.5542  0.9019  1.7025
 1019THF     C814382   4.929   0.659   4.068 -0.4549  0.0606 -0.1813
 1019THF     C914383   4.958   0.543   3.984 -0.0662  0.1584 -0.1805
 1019THF    H1014384   4.843   0.724   4.052  0.2174  0.7419 -1.1263
 1019THF    H1114385   4.908   0.634   4.172 -0.8169  1.6048  0.1522
 1019THF    H1214386   4.918   0.448   4.020  1.5607 -0.4952 -0.0010
 1019THF    H1314387   4.920   0.555   3.882  1.3689 -3.0348 -1.2311
 1020THF     O114388   2.475   3.535   2.482  0.0892 -0.3620  0.3454
 1020THF     C214389   2.413   3.418   2.527 -1.1544  0.3070  0.5569
 1020THF     C314390   2.527   3.603   2.599 -0.0781 -0.1615 -0.4708
 1020THF     H414391   2.494   3.347   2.547 -1.1481  0.1494 -0.0053
 1020THF     H514392   2.345   3.378   2.452  0.4059 -1.5268 -0.0019
 1020THF     H614393   2.621   3.555   2.625  0.3211  1.0313  0.3702
 1020THF     H714394   2.542   3.708   2.574 -0.5461  0.0390  0.0787
 1020THF     C814395   2.426   3.572   2.705 -0.4649 -0.2973  0.1748
 1020THF     C914396   2.335   3.463   2.648 -0.3963 -0.2097  0.6602
 1020THF    H1014397   2.382   3.670   2.726  1.1443  0.5660 -0.3267
 1020THF    H1114398   2.474   3.543   2.798 -1.6578 -2.0724  0.2877
 1020THF    H1214399   2.320   3.380   2.716 -1.5828 -1.7007 -1.3056
 1020THF    H1314400   2.236   3.498   2.617 -0.6760 -1.4119  0.1471
 1021THF     O114401   3.812   3.631   4.317  0.2456 -0.5753  0.1961
 1021THF     C214402   3.801   3.587   4.457  0.2881 -1.0193  0.3340
 1021THF     C314403   3.942   3.631   4.264 -0.1078 -0.5849  0.2846
 1021THF     H414404   3.775   3.481   4.456  0.2590 -1.0051 -0.2892
 1021THF     H514405   3.726   3.636   4.520 -1.1467  0.9088 -2.6400
 1021THF     H614406   3.952   3.573   4.173 -1.1551  0.4348 -0.5042
 1021THF     H714407   3.972   3.735   4.246  0.4984 -0.7211  0.4668
 1021THF     C814408   4.024   3.576   4.385 -0.4476 -0.0538  1.2628
 1021THF     C914409   3.942   3.607   4.511  0.7424 -0.7410 -0.2324
 1021THF    H1014410   4.122   3.624   4.384  0.5155 -1.8639 -0.8660
 1021THF    H1114411   4.029   3.468   4.369 -0.4804  0.4416 -3.2922
 1021THF    H1214412   3.954   3.543   4.599  1.9699  0.3181  0.4194
 1021THF    H1314413   3.967   3.703   4.557  0.2407 -1.1176  0.8712
 1022THF     O114414   0.307   3.151   0.183 -0.5882  0.8373 -0.3882
 1022THF     C214415   0.352   3.056   0.287  0.7785 -0.4075 -0.1126
 1022THF     C314416   0.316   3.284   0.242  0.8441  0.0832  0.1743
 1022THF     H414417   0.392   2.958   0.261 -0.4635 -1.5833  2.0712
 1022THF     H514418   0.269   3.046   0.358  1.6297  1.1301  1.1718
 1022THF     H614419   0.347   3.359   0.169 -1.2250  1.6362  0.8111
 1022THF     H714420   0.222   3.312   0.288  0.3542 -3.6279  1.7612
 1022THF     C814421   0.425   3.280   0.344 -0.1399  0.3724 -0.5229
 1022THF     C914422   0.466   3.137   0.345 -0.7432  0.9904  0.0710
 1022THF    H1014423   0.372   3.314   0.433 -1.1504  1.1573 -1.3943
 1022THF    H1114424   0.509   3.345   0.322 -0.5223  0.2955 -2.3821
 1022THF    H1214425   0.557   3.139   0.285 -1.1480  0.7765 -0.5542
 1022THF    H1314426   0.493   3.114   0.448 -1.7851 -0.8958 -0.0306
 1023THF     O114427   5.248   4.164   2.480 -0.0641  0.0357  0.3723
 1023THF     C214428   5.301   4.299   2.480  0.3679  1.1817 -0.2121
 1023THF     C314429   5.103   4.165   2.485 -0.2183 -0.5416  1.1929
 1023THF     H414430   5.382   4.306   2.408 -0.0837  2.0214 -0.6606
 1023THF     H514431   5.328   4.350   2.573 -0.2834  2.2390 -0.5740
 1023THF     H614432   5.083   4.138   2.381  2.1184 -1.2889  0.8727
 1023THF     H714433   5.057   4.096   2.555  0.9991 -1.4228  1.1677
 1023THF     C814434   5.064   4.314   2.499  0.3395 -0.1945 -0.6572
 1023THF     C914435   5.188   4.391   2.439  0.2606 -0.2688 -0.5697
 1023THF    H1014436   5.055   4.335   2.606 -3.3146  1.0576 -1.0798
 1023THF    H1114437   4.968   4.337   2.453  0.2054  0.9555  0.1514
 1023THF    H1214438   5.168   4.386   2.332 -2.3310 -2.1754 -0.0969
 1023THF    H1314439   5.189   4.497   2.466 -1.2158 -0.7202  1.4716
 1024THF     O114440   2.286   4.717   5.086 -0.4144  0.3548  0.5614
 1024THF     C214441   2.332   4.690   4.958  0.2936  0.6446  0.1771
 1024THF     C314442   2.392   4.673   5.172  1.3688 -0.3776 -0.6881
 1024THF     H414443   2.415   4.759   4.938  0.3661  0.6994  0.6625
 1024THF     H514444   2.246   4.682   4.892  0.2675  2.7886 -0.1184
 1024THF     H614445   2.479   4.739   5.167  0.9636  0.3440  1.1292
 1024THF     H714446   2.348   4.677   5.272  0.5852  0.2523 -1.0553
 1024THF     C814447   2.421   4.534   5.125 -0.8354 -0.2321 -0.4014
 1024THF     C914448   2.392   4.553   4.979  0.1067 -0.2096 -0.1634
 1024THF    H1014449   2.356   4.463   5.177 -0.6807  0.5054  0.8577
 1024THF    H1114450   2.525   4.501   5.137 -0.6973  0.2933 -0.1315
 1024THF    H1214451   2.484   4.539   4.922 -0.1374  0.3289 -0.6936
 1024THF    H1314452   2.321   4.476   4.948 -0.3835  0.8792 -1.9044
 1025THF     O114453   4.081   5.494   2.969  0.3317  0.0021 -0.7026
 1025THF     C214454   3.936   5.521   2.953 -1.3335  0.6702 -0.5365
 1025THF     C314455   4.140   5.531   2.846 -0.4109 -0.4596  0.5367
 1025THF     H414456   3.891   5.530   3.052  0.5627  0.8156  0.3732
 1025THF     H514457   3.884   5.450   2.889 -0.5700  0.4374 -0.9115
 1025THF     H614458   4.248   5.544   2.856 -0.4081  1.0410 -0.9915
 1025THF     H714459   4.122   5.445   2.781 -1.4652  0.3255 -0.2518
 1025THF     C814460   4.059   5.649   2.789  0.5036  0.0165  0.1220
 1025THF     C914461   3.942   5.660   2.888  0.6089 -0.3254  0.0832
 1025THF    H1014462   4.034   5.632   2.685  0.1175 -1.3837  0.4247
 1025THF    H1114463   4.126   5.734   2.801  1.0000 -0.3879  0.2762
 1025THF    H1214464   3.970   5.737   2.960  0.7765 -0.3794  0.0760
 1025THF    H1314465   3.847   5.678   2.838  1.7731 -0.8116 -2.4722
 1026THF     O114466   4.372   0.388   0.433 -0.2778 -0.1647  0.2806
 1026THF     C214467   4.375   0.444   0.305 -0.2620 -0.4264 -0.1714
 1026THF     C314468   4.479   0.454   0.499  0.2577 -0.0904 -0.3556
 1026THF     H414469   4.290   0.411   0.245 -0.1571 -1.5543  0.2624
 1026THF     H514470   4.459   0.407   0.245 -0.9944  0.8253 -2.0718
 1026THF     H614471   4.482   0.436   0.607 -0.7509 -0.9305 -0.4546
 1026THF     H714472   4.577   0.432   0.458  0.2777  0.8105 -0.8150
 1026THF     C814473   4.445   0.606   0.467 -0.5286  0.2914  0.0601
 1026THF     C914474   4.403   0.595   0.321  0.4114  0.1891 -0.3441
 1026THF    H1014475   4.522   0.680   0.488  0.0555  0.7078 -3.1151
 1026THF    H1114476   4.354   0.637   0.520 -2.0429 -0.7142 -1.8286
 1026THF    H1214477   4.314   0.655   0.298  0.2328 -0.3499 -1.0772
 1026THF    H1314478   4.478   0.628   0.250  1.8683 -0.8425  0.6598
 1027PF6-    P114479   1.678   2.464   5.028  0.1747  0.1430 -0.0797
 1027PF6-    F214480   1.758   2.340   4.970  0.0901  0.0783  0.8263
 1027PF6-    F314481   1.590   2.588   5.078 -0.6229  0.0524 -0.0961
 1027PF6-    F414482   1.665   2.523   4.881 -0.4087 -0.8390 -0.5371
 1027PF6-    F514483   1.684   2.400   5.173  0.4513 -0.3293 -0.3863
 1027PF6-    F614484   1.809   2.543   5.050 -0.2592  0.3175  0.0905
 1027PF6-    F714485   1.539   2.390   5.000 -0.0575  0.2513 -0.4790
 1028PF6-    P114486   4.113   2.981   2.738  0.1482  0.0246  0.2222
 1028PF6-    F214487   3.966   3.016   2.689 -0.0517 -0.5738 -0.0851
 1028PF6-    F314488   4.267   2.937   2.782  0.0085 -0.2485 -0.0316
 1028PF6-    F414489   4.093   2.837   2.675  0.1893  0.2523  0.6887
 1028PF6-    F514490   4.126   3.127   2.797  0.4893 -0.0076 -0.2271
 1028PF6-    F614491   4.062   2.928   2.882 -0.2566  0.2979  0.1150
 1028PF6-    F714492   4.175   3.031   2.598 -0.0166 -0.6806 -0.0645
 1029PF6-    P114493   3.874   1.084   1.461  0.0553  0.2089  0.2474
 1029PF6-    F214494   4.016   1.030   1.515  0.2647  0.1599  0.1324
 1029PF6-    F314495   3.731   1.141   1.407 -0.1392 -0.0081 -0.4070
 1029PF6-    F414496   3.951   1.224   1.437 -0.5377  0.6466  0.3290
 1029PF6-    F514497   3.815   0.934   1.481 -0.4427  0.3581  0.0984
 1029PF6-    F614498   3.835   1.122   1.608  0.1786  0.4820  0.1547
 1029PF6-    F714499   3.910   1.049   1.304 -0.1084  0.4088  0.5582
 1030PF6-    P114500   1.710   1.462   4.066 -0.3061 -0.4035  0.0252
 1030PF6-    F214501   1.603   1.497   3.957  0.4465 -0.8699  0.2593
 1030PF6-    F314502   1.817   1.423   4.176 -0.1505  0.2792 -0.3846
 1030PF6-    F414503   1.596   1.462   4.173 -0.1074  0.0552 -0.0638
 1030PF6-    F514504   1.830   1.461   3.955  0.4468 -0.4547 -0.3225
 1030PF6-    F614505   1.743   1.614   4.095  0.1175  0.4313  0.3271
 1030PF6-    F714506   1.688   1.306   4.035  0.0566 -0.0894 -0.2213
 1031PF6-    P114507   5.386   3.153   1.010  0.0968 -0.2438  0.4028
 1031PF6-    F214508   5.414   3.086   1.160  0.0078 -0.3779  0.4661
 1031PF6-    F314509   5.360   3.215   0.863  1.0044 -0.2104  0.2366
 1031PF6-    F414510   5.284   3.027   0.979 -0.3677 -0.2203  0.3572
 1031PF6-    F514511   5.479   3.276   1.044 -0.1266  0.3146 -0.1417
 1031PF6-    F614512   5.509   3.071   0.947  0.3025 -0.5251  0.1541
 1031PF6-    F714513   5.266   3.232   1.073 -0.1163 -0.1571  0.4153
 1032PF6-    P114514   0.076   3.825   3.758  0.3390 -0.0193 -0.0044
 1032PF6-    F214515   0.083   3.805   3.917 -0.0776  0.2657 -0.5576
 1032PF6-    F314516   0.074   3.842   3.596  0.5692 -0.4463  0.0042
 1032PF6-    F414517  -0.084   3.815   3.766  0.5238 -0.1335  0.0970
 1032PF6-    F514518   0.233   3.842   3.753 -0.1075  0.5396 -0.0212
 1032PF6-    F614519   0.080   3.670   3.742  0.7402 -0.4036 -0.2667
 1032PF6-    F714520   0.060   3.986   3.779  0.1435  0.3104 -0.3636
 1033PF6-    P114521   0.211   5.033   2.901  0.3857 -0.0621 -0.1873
 1033PF6-    F214522   0.158   4.995   3.050 -0.6340 -0.3133  0.2414
 1033PF6-    F314523   0.266   5.067   2.754  0.3800  0.1936  0.4109
 1033PF6-    F414524   0.280   5.164   2.960  0.4611 -0.3609 -0.2242
 1033PF6-    F514525   0.141   4.899   2.842 -0.1134  0.0641  0.1715
 1033PF6-    F614526   0.071   5.114   2.871 -0.3028  0.4203  0.0766
 1033PF6-    F714527   0.347   4.950   2.934  0.0256 -0.3981  0.0739
 1034PF6-    P114528   0.649   1.290   2.934 -0.1097  0.0101 -0.0678
 1034PF6-    F214529   0.595   1.213   3.066 -0.0857 -0.8885 -0.0541
 1034PF6-    F314530   0.707   1.379   2.812  0.0857  0.2379  0.7040
 1034PF6-    F414531   0.731   1.378   3.036 -0.4283  0.1323 -0.3111
 1034PF6-    F514532   0.569   1.193   2.838 -0.7820  0.0512  0.3321
 1034PF6-    F614533   0.519   1.383   2.950 -0.2123  0.3189  1.0806
 1034PF6-    F714534   0.779   1.192   2.924  0.0583 -0.2139  0.1133
 1035PF6-    P114535   0.429   3.327   2.340 -0.0417 -0.2293 -0.1537
 1035PF6-    F214536   0.342   3.220   2.416 -0.5162 -0.2083 -0.4400
 1035PF6-    F314537   0.506   3.444   2.257  0.4884 -0.0929  0.2138
 1035PF6-    F414538   0.472   3.388   2.482 -0.1917 -0.1705  0.5885
 1035PF6-    F514539   0.383   3.262   2.196  0.3730  0.0089 -0.6108
 1035PF6-    F614540   0.308   3.430   2.345  0.3230  0.5372 -0.2151
 1035PF6-    F714541   0.562   3.231   2.333  0.3315  0.7959 -0.6432
 1036PF6-    P114542   3.925   3.978   5.242  0.5387  0.3119 -0.2258
 1036PF6-    F214543   3.891   4.112   5.160 -0.0421 -0.3144 -0.0333
 1036PF6-    F314544   3.958   3.836   5.315  0.2618 -0.0944  0.1727
 1036PF6-    F414545   4.079   4.013   5.222 -0.3736 -0.3497 -0.2945
 1036PF6-    F514546   3.769   3.946   5.251 -0.0733 -0.8575  0.1634
 1036PF6-    F614547   3.930   3.890   5.102  0.5257 -0.1433  0.2302
 1036PF6-    F714548   3.922   4.050   5.388 -0.2046  0.3129  0.9280
 1037PF6-    P114549   4.751   1.902   1.806 -0.0011 -0.1119  0.2806
 1037PF6-    F214550   4.649   1.865   1.924  0.1272 -0.2899  0.1968
 1037PF6-    F314551   4.855   1.924   1.685 -0.6393 -0.0335 -0.5061
 1037PF6-    F414552   4.870   1.901   1.907  0.0620 -0.4285 -0.4746
 1037PF6-    F514553   4.631   1.906   1.703  0.6219  0.5180 -0.0192
 1037PF6-    F614554   4.735   2.059   1.835  0.0083 -0.6877  0.2148
 1037PF6-    F714555   4.771   1.746   1.783 -0.6563 -0.2353 -0.3684
 1038PF6-    P114556   0.708   2.694   0.392  0.0629 -0.3214 -0.0742
 1038PF6-    F214557   0.740   2.739   0.545  0.0148  0.0828  0.4784
 1038PF6-    F314558   0.688   2.653   0.240 -0.1677 -0.2675 -0.5211
 1038PF6-    F414559   0.571   2.786   0.393  0.1392 -0.0342  0.1114
 1038PF6-    F514560   0.840   2.605   0.392 -0.1541  0.5600  0.1906
 1038PF6-    F614561   0.621   2.569   0.446  0.1646  0.0029 -0.4298
 1038PF6-    F714562   0.807   2.824   0.351  0.4332 -0.0300  0.0803
 1039PF6-    P114563   1.183   1.076   2.998 -0.4187  0.0540 -0.1757
 1039PF6-    F214564   1.309   1.051   2.912 -0.8112  0.5151 -0.4426
 1039PF6-    F314565   1.053   1.104   3.087 -0.0846  0.3726  0.2362
 1039PF6-    F414566   1.261   1.011   3.124  0.7271 -0.6290  0.2278
 1039PF6-    F514567   1.109   1.147   2.879 -0.0027 -0.1900  0.5223
 1039PF6-    F614568   1.131   0.939   2.957 -0.0179 -0.2636 -0.0966
 1039PF6-    F714569   1.250   1.214   3.041  0.2641  0.4428  0.0909
 1040PF6-    P114570   2.297   2.260   4.524 -0.0498 -0.0689  0.0558
 1040PF6-    F214571   2.443   2.239   4.590 -0.0053  0.5524  0.2901
 1040PF6-    F314572   2.142   2.269   4.470 -0.2506  0.7898  0.3301
 1040PF6-    F414573   2.343   2.392   4.438  0.2830 -0.1945  0.2642
 1040PF6-    F514574   2.241   2.136   4.614 -0.4705  0.3154 -0.1405
 1040PF6-    F614575   2.265   2.354   4.645  0.5915  0.4260 -0.0679
 1040PF6-    F714576   2.335   2.165   4.404 -0.5624  0.0088  0.1915
 1041PF6-    P114577   4.731   0.690   3.278 -0.1413  0.1722  0.2656
 1041PF6-    F214578   4.705   0.730   3.128  0.2548  0.4367 -0.9696
 1041PF6-    F314579   4.758   0.656   3.436 -0.2070  0.4960  0.3382
 1041PF6-    F414580   4.810   0.564   3.235  0.2370  0.1434 -0.3576
 1041PF6-    F514581   4.654   0.819   3.324  0.1117 -0.2560  0.0045
 1041PF6-    F614582   4.588   0.606   3.277  0.1394  0.0772  0.4877
 1041PF6-    F714583   4.868   0.779   3.282 -0.2793 -0.6186 -0.3590
 1042PF6-    P114584   5.189   0.658   5.337  0.2523  0.3240 -0.3849
 1042PF6-    F214585   5.126   0.775   5.417  0.2271 -0.8152 -0.3034
 1042PF6-    F314586   5.254   0.532   5.258  0.3167 -0.0627 -0.2695
 1042PF6-    F414587   5.097   0.673   5.207 -0.4937 -0.4279 -0.3907
 1042PF6-    F514588   5.290   0.628   5.462  0.5439  0.0906  0.5060
 1042PF6-    F614589   5.087   0.557   5.405  0.7636 -0.0009 -0.0758
 1042PF6-    F714590   5.299   0.759   5.280  0.4024  0.1795 -0.3997
 1043PF6-    P114591   4.842   2.637   3.092  0.0743 -0.2736  0.3348
 1043PF6-    F214592   4.915   2.768   3.147  0.2751  0.4544 -0.7686
 1043PF6-    F314593   4.773   2.512   3.018  0.5355  0.1409  0.1090
 1043PF6-    F414594   4.854   2.696   2.943  0.2231  0.3849  0.4499
 1043PF6-    F514595   4.826   2.563   3.235  0.0970  0.1270  0.2198
 1043PF6-    F614596   4.704   2.706   3.117 -0.0672  0.2641 -0.2425
 1043PF6-    F714597   4.986   2.564   3.070  0.4423  0.2108 -0.5392
 1044PF6-    P114598   1.176   1.023   5.487  0.3922  0.4005 -0.2154
 1044PF6-    F214599   1.301   1.064   5.577  0.2579  0.1482 -0.6500
 1044PF6-    F314600   1.057   0.979   5.401  0.1483  0.2782 -1.0201
 1044PF6-    F414601   1.089   1.149   5.532  0.0238  0.4224  0.0137
 1044PF6-    F514602   1.264   0.898   5.435  0.0419  0.5145 -0.1359
 1044PF6-    F614603   1.120   0.932   5.609 -0.2953  0.0378  0.5075
 1044PF6-    F714604   1.231   1.114   5.370  0.3260  0.1332 -0.4462
 1045PF6-    P114605   2.557   4.232   3.340 -0.2225 -0.1272  0.3760
 1045PF6-    F214606   2.713   4.276   3.369 -0.0006  0.2515  0.4440
 1045PF6-    F314607   2.400   4.190   3.305 -0.2304 -0.1498  0.3096
 1045PF6-    F414608   2.566   4.108   3.442 -0.4188 -0.0065  0.1218
 1045PF6-    F514609   2.538   4.353   3.237  0.0413 -0.0381 -0.3246
 1045PF6-    F614610   2.608   4.135   3.223  0.6577  0.3552  0.6924
 1045PF6-    F714611   2.504   4.325   3.460  0.2489 -0.4060 -0.2284
 1046PF6-    P114612   0.314   0.146   1.616 -0.1762 -0.2739 -0.0553
 1046PF6-    F214613   0.266   0.184   1.470  0.5327 -0.0450 -0.0725
 1046PF6-    F314614   0.361   0.108   1.767  0.2724  0.0789 -0.3375
 1046PF6-    F414615   0.284   0.286   1.670 -0.3874 -0.6174 -0.2604
 1046PF6-    F514616   0.353  -0.000   1.562 -0.0580 -0.0368 -0.6634
 1046PF6-    F614617   0.466   0.186   1.591 -0.0687  0.4894  0.1286
 1046PF6-    F714618   0.165   0.102   1.649  0.1706  0.6683 -0.2420
 1047PF6-    P114619   0.677   2.673   2.589 -0.2471 -0.1205 -0.1769
 1047PF6-    F214620   0.588   2.801   2.622  0.3901  0.0015 -0.0303
 1047PF6-    F314621   0.763   2.542   2.553  0.3844 -0.0513 -0.0370
 1047PF6-    F414622   0.646   2.618   2.735 -0.2279  0.0493  0.5408
 1047PF6-    F514623   0.716   2.733   2.446  0.5041  0.3794 -0.1934
 1047PF6-    F614624   0.807   2.743   2.640  0.0526  0.0250 -0.1458
 1047PF6-    F714625   0.542   2.607   2.532  0.1137  0.4357 -0.1350
 1048PF6-    P114626   3.833   0.560   3.673 -0.0663  0.3968  0.1443
 1048PF6-    F214627   3.783   0.470   3.789 -0.1036  0.1769 -0.2947
 1048PF6-    F314628   3.888   0.656   3.560  0.0300  0.4249  0.4687
 1048PF6-    F414629   3.702   0.523   3.579 -0.1235  0.2604  0.3075
 1048PF6-    F514630   3.962   0.606   3.762  0.5972 -0.0535 -0.1382
 1048PF6-    F614631   3.918   0.437   3.612  0.0316 -0.3378 -0.3505
 1048PF6-    F714632   3.755   0.686   3.735 -0.3950 -0.1162  0.6388
 1049PF6-    P114633   2.453   5.190   4.335 -0.0612 -0.0010 -0.1349
 1049PF6-    F214634   2.420   5.339   4.383 -0.3392 -0.1238 -0.0579
 1049PF6-    F314635   2.474   5.041   4.284  0.2725 -0.4000  0.6668
 1049PF6-    F414636   2.510   5.160   4.487 -0.5024  0.6580  0.5015
 1049PF6-    F514637   2.404   5.236   4.193  0.2173  0.1819 -0.1332
 1049PF6-    F614638   2.607   5.225   4.292  0.1844  0.1607 -0.2472
 1049PF6-    F714639   2.309   5.153   4.377  0.5181 -0.2843 -0.4372
 1050PF6-    P114640   1.766   1.187   4.560  0.1663 -0.0474 -0.4028
 1050PF6-    F214641   1.689   1.047   4.584  0.2151 -0.4979 -0.1012
 1050PF6-    F314642   1.842   1.331   4.545  0.0748 -0.1461 -0.0745
 1050PF6-    F414643   1.668   1.255   4.662  0.0349  0.1338  0.4397
 1050PF6-    F514644   1.863   1.117   4.454 -0.1878  0.3771  0.2953
 1050PF6-    F614645   1.675   1.229   4.434 -0.3289  0.0785  0.9863
 1050PF6-    F714646   1.863   1.147   4.674 -0.0369 -0.1537  0.2551
 1051PF6-    P114647   4.994   0.447   0.969 -0.2819 -0.6480 -0.3281
 1051PF6-    F214648   4.958   0.303   0.906  0.0433  0.2009 -0.3890
 1051PF6-    F314649   5.033   0.595   1.023  0.0429  0.1881 -0.5215
 1051PF6-    F414650   4.839   0.479   0.960 -0.2020 -0.3099 -0.2350
 1051PF6-    F514651   5.147   0.407   0.977 -0.5049  0.0395  0.2597
 1051PF6-    F614652   5.016   0.503   0.818 -0.1921 -0.1923 -0.0697
 1051PF6-    F714653   4.969   0.386   1.121  0.2797  0.3172 -0.1041
 1052PF6-    P114654   2.857   0.646   2.146 -0.2796  0.0308  0.1206
 1052PF6-    F214655   2.926   0.658   2.288 -0.2187 -0.2235 -0.4335
 1052PF6-    F314656   2.786   0.632   1.994  0.1905 -0.3562 -0.5659
 1052PF6-    F414657   2.764   0.771   2.182 -0.6049 -0.1839  0.0144
 1052PF6-    F514658   2.949   0.517   2.113 -0.6913 -0.3652 -0.4300
 1052PF6-    F614659   2.743   0.548   2.204  0.5803  0.4847 -0.1763
 1052PF6-    F714660   2.966   0.748   2.081 -0.6160  0.2303 -0.4831
 1053PF6-    P114661   0.574   2.263   0.958 -0.2089 -0.2357 -0.3959
 1053PF6-    F214662   0.662   2.135   0.908  0.2604  0.4135 -0.8113
 1053PF6-    F314663   0.489   2.390   0.992 -0.0598  0.7301  0.2563
 1053PF6-    F414664   0.472   2.177   1.045  0.2181 -0.0253 -0.2672
 1053PF6-    F514665   0.679   2.351   0.878 -0.1584  0.1086  0.4742
 1053PF6-    F614666   0.482   2.240   0.825  0.1666  0.3312  0.1312
 1053PF6-    F714667   0.668   2.287   1.090  0.0756  0.0205  0.5897
 1054PF6-    P114668   0.960   4.234   1.558 -0.1535  0.2634 -0.1698
 1054PF6-    F214669   0.815   4.295   1.526  0.1854  0.1144  0.0082
 1054PF6-    F314670   1.107   4.177   1.587 -0.4601  0.0349 -0.1129
 1054PF6-    F414671   1.028   4.312   1.432  0.0121 -0.2430 -0.1016
 1054PF6-    F514672   0.904   4.154   1.680  0.3453 -0.2871  0.3688
 1054PF6-    F614673   0.932   4.104   1.457  0.2152 -0.1523 -0.0746
 1054PF6-    F714674   0.991   4.348   1.659  0.7098 -0.2208  0.0667
 1055PF6-    P114675   2.058   3.589   4.032  0.3781 -0.1896 -0.1401
 1055PF6-    F214676   2.204   3.606   3.968 -0.4268 -0.0968  0.4811
 1055PF6-    F314677   1.909   3.573   4.091  0.0203  0.0046  0.0912
 1055PF6-    F414678   2.051   3.749   4.052 -0.5483 -0.5534 -0.4548
 1055PF6-    F514679   2.056   3.432   4.009  0.2255  0.6535 -0.3659
 1055PF6-    F614680   2.124   3.575   4.173 -0.5513  0.2190 -0.3569
 1055PF6-    F714681   2.005   3.610   3.880 -0.1696 -0.2480 -0.0638
 1056PF6-    P114682   4.708   0.220   4.287  0.0455  0.0684 -0.0053
 1056PF6-    F214683   4.791   0.238   4.150  0.2747 -0.2023 -0.0499
 1056PF6-    F314684   4.632   0.202   4.431 -0.0300  0.2826  0.9823
 1056PF6-    F414685   4.659   0.074   4.238 -0.0823  0.3425 -0.6356
 1056PF6-    F514686   4.753   0.371   4.326  0.5004  0.2676 -0.0758
 1056PF6-    F614687   4.575   0.289   4.225  0.5622  0.2126 -0.1087
 1056PF6-    F714688   4.836   0.152   4.345 -0.0098  0.3770 -0.4426
 1057PF6-    P114689   1.309   4.772   2.598  0.2763 -0.2861  0.0222
 1057PF6-    F214690   1.225   4.912   2.577 -0.0504  0.2619 -0.5626
 1057PF6-    F314691   1.393   4.640   2.625 -0.4419  0.0081 -0.1059
 1057PF6-    F414692   1.438   4.840   2.526 -0.6786  0.2817 -0.7148
 1057PF6-    F514693   1.176   4.712   2.663 -0.0115  0.5095 -0.5664
 1057PF6-    F614694   1.260   4.722   2.454 -0.5695  0.6052 -0.1975
 1057PF6-    F714695   1.353   4.828   2.745 -0.1478 -0.2651 -0.2480
 1058PF6-    P114696   2.993   3.413   1.418 -0.1900 -0.5405  0.0544
 1058PF6-    F214697   3.043   3.412   1.571  0.3156  0.0815 -0.1232
 1058PF6-    F314698   2.940   3.410   1.270  0.1203  0.0106 -0.4943
 1058PF6-    F414699   3.051   3.565   1.402  0.2893  0.1049 -0.5567
 1058PF6-    F514700   2.952   3.260   1.425 -0.0189  0.2727  0.0296
 1058PF6-    F614701   2.846   3.451   1.460 -0.4125 -0.1844 -0.0938
 1058PF6-    F714702   3.138   3.361   1.368  0.0252  0.3167 -0.3909
 1059PF6-    P114703   5.191   3.282   3.345  0.1630 -0.1148 -0.1194
 1059PF6-    F214704   5.332   3.344   3.313 -0.0303  0.6257  0.6627
 1059PF6-    F314705   5.049   3.207   3.382 -0.4139  0.3744 -0.3303
 1059PF6-    F414706   5.202   3.193   3.211 -0.4061 -0.4805  0.2646
 1059PF6-    F514707   5.172   3.378   3.473 -0.1301  0.2218 -0.1552
 1059PF6-    F614708   5.115   3.400   3.254 -0.1179 -0.6559 -0.2730
 1059PF6-    F714709   5.276   3.168   3.424 -0.1842 -0.4384 -0.3961
 1060PF6-    P114710   5.332   1.408   4.136  0.0619 -0.4387 -0.2170
 1060PF6-    F214711   5.191   1.486   4.156 -0.2421 -0.4409  0.5244
 1060PF6-    F314712   5.475   1.344   4.116 -0.0997  0.1051 -0.2044
 1060PF6-    F414713   5.289   1.357   3.984  0.1249 -0.0254 -0.0765
 1060PF6-    F514714   5.373   1.454   4.285 -0.4859  0.8566 -0.3218
 1060PF6-    F614715   5.282   1.267   4.189 -1.0153  0.1737 -0.0429
 1060PF6-    F714716   5.394   1.542   4.077 -0.1385 -0.4806  0.0145
 1061PF6-    P114717   5.284   2.788   2.534 -0.0090 -0.5187  0.1699
 1061PF6-    F214718   5.376   2.902   2.469  0.5613  0.1083  0.2663
 1061PF6-    F314719   5.190   2.664   2.583  0.0099 -0.0167 -0.8088
 1061PF6-    F414720   5.333   2.833   2.684 -0.0433  0.1675  0.5151
 1061PF6-    F514721   5.241   2.739   2.385  0.0505  0.0625  0.8827
 1061PF6-    F614722   5.415   2.693   2.527  0.1111 -0.1103  0.3650
 1061PF6-    F714723   5.157   2.882   2.543  0.7152  0.2077 -0.0495
 1062PF6-    P114724   5.064   3.589   4.517 -0.2091 -0.2086  0.5399
 1062PF6-    F214725   5.007   3.738   4.527  0.0680  0.3018 -0.5668
 1062PF6-    F314726   5.125   3.439   4.503  0.2242 -0.1838  0.1993
 1062PF6-    F414727   5.142   3.633   4.380  0.2004 -0.2109  0.1090
 1062PF6-    F514728   4.991   3.547   4.648  0.4534  0.0718  0.3322
 1062PF6-    F614729   4.932   3.543   4.431  0.1458  0.0341  0.3764
 1062PF6-    F714730   5.193   3.634   4.600  0.1680  0.5417 -0.1865
 1063PF6-    P114731   2.329   2.109   2.273 -0.2188  0.2065 -0.1268
 1063PF6-    F214732   2.374   2.257   2.243  0.2271 -0.0654  0.2306
 1063PF6-    F314733   2.291   1.957   2.304  0.2713  0.2675 -0.2730
 1063PF6-    F414734   2.393   2.064   2.130  0.1900 -0.2546  0.2159
 1063PF6-    F514735   2.265   2.147   2.419  0.4834 -0.0924  0.9111
 1063PF6-    F614736   2.189   2.136   2.204  0.0951 -0.0259  0.6990
 1063PF6-    F714737   2.472   2.084   2.347 -0.1857  0.4847  0.1918
 1064PF6-    P114738   5.101   5.158   5.008  0.0365 -0.1105  0.1961
 1064PF6-    F214739   5.161   5.173   5.153 -0.3430  0.1390 -0.3969
 1064PF6-    F314740   5.036   5.136   4.865 -0.4251 -0.2483  0.3410
 1064PF6-    F414741   5.134   5.312   4.973 -0.1199  0.3539  0.2145
 1064PF6-    F514742   5.070   5.005   5.032  0.2621 -0.2555 -0.2203
 1064PF6-    F614743   4.954   5.199   5.063 -0.2255  0.4460  0.6779
 1064PF6-    F714744   5.244   5.117   4.951 -0.3197 -0.0333 -0.3714
 1065PF6-    P114745   1.441   1.846   1.110 -0.3680 -0.4427 -0.1475
 1065PF6-    F214746   1.588   1.807   1.054 -0.1665 -0.0636 -0.0456
 1065PF6-    F314747   1.303   1.889   1.173  0.1712  0.4585 -0.2083
 1065PF6-    F414748   1.403   1.693   1.150 -0.1140  0.6261  0.3794
 1065PF6-    F514749   1.473   1.995   1.071 -0.4062 -0.1006 -0.0818
 1065PF6-    F614750   1.380   1.818   0.967  0.2515  0.3982  0.0867
 1065PF6-    F714751   1.509   1.868   1.254  0.2009 -0.3695 -0.1675
 1066PF6-    P114752   4.299   3.444   3.447  0.1130 -0.3489 -0.1361
 1066PF6-    F214753   4.309   3.563   3.342 -0.7458  0.1591  0.5164
 1066PF6-    F314754   4.291   3.324   3.552 -0.0258  0.2571  0.0651
 1066PF6-    F414755   4.154   3.408   3.391  1.0594 -0.2284  0.5884
 1066PF6-    F514756   4.441   3.479   3.505 -0.3045 -0.1435  0.2793
 1066PF6-    F614757   4.231   3.545   3.553 -0.6402  0.0366 -0.1292
 1066PF6-    F714758   4.362   3.344   3.345  0.1538 -0.3423  0.1567
 1067PF6-    P114759   4.168   0.199   0.796 -0.1032  0.0983 -0.2364
 1067PF6-    F214760   4.179   0.115   0.925 -0.5810  0.0548  0.3124
 1067PF6-    F314761   4.153   0.282   0.665 -0.1748  0.0592 -0.3264
 1067PF6-    F414762   4.243   0.326   0.867 -0.1356 -0.1107 -0.1696
 1067PF6-    F514763   4.092   0.073   0.727  0.1830  0.2078 -0.1629
 1067PF6-    F614764   4.031   0.259   0.841 -0.0995 -0.0967 -0.3355
 1067PF6-    F714765   4.304   0.142   0.743  0.2620  0.4338  0.4917
 1068PF6-    P114766   0.364   3.523   1.796 -0.0952  0.1569  0.0652
 1068PF6-    F214767   0.304   3.377   1.834  0.1093 -0.7444  0.2057
 1068PF6-    F314768   0.425   3.664   1.756 -0.1772 -0.1558 -0.7487
 1068PF6-    F414769   0.514   3.470   1.805  0.0605  0.4604  0.1369
 1068PF6-    F514770   0.217   3.584   1.791  0.0038 -0.1176  0.0417
 1068PF6-    F614771   0.371   3.561   1.952 -0.0917 -0.2764  0.2762
 1068PF6-    F714772   0.361   3.488   1.641  0.2574 -0.3200  0.1253
 1069PF6-    P114773   0.469   4.735   2.070 -0.0727  0.2032 -0.3272
 1069PF6-    F214774   0.479   4.748   1.915 -0.1322  0.3863  0.3368
 1069PF6-    F314775   0.463   4.726   2.224  0.2736  0.0564  0.1625
 1069PF6-    F414776   0.549   4.594   2.061 -0.2686 -0.2261  0.0160
 1069PF6-    F514777   0.395   4.874   2.076 -0.4938 -0.0741  0.0920
 1069PF6-    F614778   0.326   4.656   2.059 -0.1421  0.4788 -0.1912
 1069PF6-    F714779   0.604   4.821   2.077  0.0816  0.6629  0.0492
 1070PF6-    P114780   5.086   3.767   2.294  0.4785  0.1928  0.1898
 1070PF6-    F214781   5.143   3.863   2.411 -0.3258 -0.1568 -0.2608
 1070PF6-    F314782   5.038   3.668   2.181  0.3577 -0.0161 -0.0394
 1070PF6-    F414783   5.229   3.780   2.222  0.6698 -0.0931  0.0445
 1070PF6-    F514784   4.948   3.746   2.372  0.2424  0.1010  0.1243
 1070PF6-    F614785   5.043   3.899   2.213 -0.2168 -0.0785 -0.0681
 1070PF6-    F714786   5.138   3.639   2.379 -0.6544 -0.5660  0.2249
 1071PF6-    P114787   1.393   4.424   5.302  0.4453 -0.0811 -0.3202
 1071PF6-    F214788   1.283   4.541   5.323  0.1793 -0.0386 -0.0513
 1071PF6-    F314789   1.506   4.311   5.283  0.1753  0.6626 -0.1937
 1071PF6-    F414790   1.456   4.461   5.444  0.5383  0.8880 -0.3657
 1071PF6-    F514791   1.336   4.397   5.157  0.3647  0.1156 -0.5248
 1071PF6-    F614792   1.492   4.538   5.235 -0.3086  0.3377  0.0496
 1071PF6-    F714793   1.304   4.314   5.370  0.3583 -0.2207 -0.0380
 1072PF6-    P114794   4.551   2.799   1.563 -0.0339  0.4671  0.0481
 1072PF6-    F214795   4.559   2.663   1.482 -0.5051 -0.2906  0.0447
 1072PF6-    F314796   4.539   2.939   1.644  0.4378  0.3940  0.1052
 1072PF6-    F414797   4.705   2.831   1.528  0.0770  0.1112 -0.1797
 1072PF6-    F514798   4.397   2.772   1.597  0.4215 -0.0695 -0.3385
 1072PF6-    F614799   4.589   2.723   1.699 -0.1170 -0.1996 -0.0468
 1072PF6-    F714800   4.507   2.876   1.431 -0.6054 -0.0150 -0.1059
 1073PF6-    P114801   2.103   0.430   1.087 -0.3934  0.3616  0.3232
 1073PF6-    F214802   2.063   0.584   1.120 -0.3995  0.4448 -0.0067
 1073PF6-    F314803   2.143   0.279   1.043 -0.1207  0.6387 -0.1548
 1073PF6-    F414804   1.954   0.396   1.056  0.1880  0.1496  0.2722
 1073PF6-    F514805   2.262   0.455   1.118  0.7911 -0.2949 -0.1563
 1073PF6-    F614806   2.086   0.381   1.238 -0.0485 -0.3449 -0.0934
 1073PF6-    F714807   2.122   0.465   0.930 -0.0646 -0.0067 -0.6265
 1074PF6-    P114808   1.285   3.386   0.947 -0.2126  0.3648 -0.2054
 1074PF6-    F214809   1.374   3.456   0.840  0.2468 -0.3211  0.2145
 1074PF6-    F314810   1.195   3.313   1.057  0.4417  0.0713  0.6113
 1074PF6-    F414811   1.152   3.434   0.869  0.5927  0.5940  0.2271
 1074PF6-    F514812   1.413   3.329   1.022 -0.0841  0.0153 -0.5208
 1074PF6-    F614813   1.289   3.515   1.032  0.3452 -0.2428  0.0999
 1074PF6-    F714814   1.284   3.250   0.858 -0.1105 -0.5393 -0.3033
 1075PF6-    P114815   2.015   4.240   4.743 -0.4517  0.2291  0.1316
 1075PF6-    F214816   2.058   4.270   4.902  0.5155  0.1297 -0.4184
 1075PF6-    F314817   1.964   4.209   4.595 -0.0538  0.0503 -0.0804
 1075PF6-    F414818   1.920   4.367   4.747  0.1135 -0.3473  0.4709
 1075PF6-    F514819   2.111   4.109   4.728  0.2593 -0.5399  0.1198
 1075PF6-    F614820   1.899   4.144   4.805  0.6324  0.2340 -0.0069
 1075PF6-    F714821   2.133   4.329   4.693 -0.6148  0.5515 -0.0527
 1076PF6-    P114822   0.634   3.510   0.876 -0.1169 -0.1331 -0.2661
 1076PF6-    F214823   0.530   3.385   0.880  0.0506 -0.1153  0.1243
 1076PF6-    F314824   0.743   3.629   0.880  0.1726 -0.3318  0.1059
 1076PF6-    F414825   0.687   3.451   1.020 -0.3406  0.4659  0.1574
 1076PF6-    F514826   0.577   3.561   0.738  0.0985  0.0607  0.0380
 1076PF6-    F614827   0.531   3.604   0.951 -0.0701  0.1937  0.0844
 1076PF6-    F714828   0.737   3.414   0.805 -0.3150  0.1198  0.5577
 1077PF6-    P114829   3.857   4.715   1.855 -0.0985 -0.2365  0.0803
 1077PF6-    F214830   3.842   4.874   1.876  0.3423  0.4233 -0.0030
 1077PF6-    F314831   3.868   4.559   1.835  0.3261  0.1877  0.2332
 1077PF6-    F414832   3.695   4.698   1.877 -0.6192  0.0756  0.1763
 1077PF6-    F514833   4.014   4.732   1.826 -0.5026 -0.0422 -0.8727
 1077PF6-    F614834   3.883   4.698   2.008  0.3526  0.1501  0.0843
 1077PF6-    F714835   3.826   4.736   1.704  0.0826 -0.2992 -0.1771
 1078PF6-    P114836   1.913   4.384   1.794 -0.2794  0.4449  0.1156
 1078PF6-    F214837   2.007   4.267   1.846 -0.5053 -0.4625 -0.2869
 1078PF6-    F314838   1.816   4.499   1.729 -0.1179 -0.2841  0.1607
 1078PF6-    F414839   1.791   4.282   1.801 -0.1018  0.2910  0.6710
 1078PF6-    F514840   2.041   4.479   1.785  0.0224 -0.1630  0.1021
 1078PF6-    F614841   1.942   4.335   1.643  0.4481  0.6782  0.0268
 1078PF6-    F714842   1.883   4.430   1.943  0.0261 -0.6695 -0.4953
 1079PF6-    P114843   4.664   0.044   0.500  0.4537  0.1819  0.2673
 1079PF6-    F214844   4.517  -0.003   0.459  0.0261 -1.0775 -0.0964
 1079PF6-    F314845   4.813   0.086   0.548  0.8942  0.0593  0.3031
 1079PF6-    F414846   4.618   0.039   0.654 -0.5043  0.4157 -0.1294
 1079PF6-    F514847   4.701   0.043   0.351  0.1151  0.4767  0.2615
 1079PF6-    F614848   4.615   0.196   0.498 -0.3835  0.2743 -0.1277
 1079PF6-    F714849   4.702  -0.108   0.508  0.1965  0.4196 -0.0857
 1080PF6-    P114850   2.143   1.297   0.537  0.2407 -0.5976  0.0428
 1080PF6-    F214851   2.128   1.330   0.380 -0.1821  0.2837  0.2592
 1080PF6-    F314852   2.152   1.258   0.694 -0.3966 -0.4067 -0.4930
 1080PF6-    F414853   1.999   1.234   0.537 -0.2132  0.1210 -0.3707
 1080PF6-    F514854   2.287   1.367   0.539  0.1273 -0.3939 -0.2871
 1080PF6-    F614855   2.071   1.433   0.568 -0.1241 -0.0075  0.1809
 1080PF6-    F714856   2.215   1.154   0.493  0.2725  0.6918  0.2247
 1081PF6-    P114857   1.179   0.589   3.988 -0.0067 -0.2434 -0.4412
 1081PF6-    F214858   1.108   0.545   3.850 -0.0573  0.0628  0.5294
 1081PF6-    F314859   1.241   0.639   4.131  0.1601  0.1584  0.1220
 1081PF6-    F414860   1.058   0.692   4.005 -0.1032  0.3234  0.4780
 1081PF6-    F514861   1.304   0.486   3.960 -0.2763  0.2905 -0.0869
 1081PF6-    F614862   1.262   0.705   3.910  0.0648 -0.1713 -0.1166
 1081PF6-    F714863   1.099   0.472   4.065 -0.2536  0.3579  0.0488
 1082PF6-    P114864   1.299   5.392   5.088  0.3937  0.1653 -0.3986
 1082PF6-    F214865   1.338   5.273   4.994 -0.2808 -0.1282 -0.2331
 1082PF6-    F314866   1.250   5.509   5.181  0.4379  0.0350  0.3801
 1082PF6-    F414867   1.157   5.408   5.011 -0.4635  0.1684 -0.2218
 1082PF6-    F514868   1.435   5.374   5.172 -0.0317 -0.0785 -0.3335
 1082PF6-    F614869   1.366   5.505   4.991 -0.5209  0.3845  0.2245
 1082PF6-    F714870   1.227   5.280   5.183  0.1033 -0.3754 -0.6323
 1083PF6-    P114871   4.711   1.512   5.395  0.2076  0.2586 -0.1312
 1083PF6-    F214872   4.619   1.378   5.407  0.0319  0.1000 -0.3622
 1083PF6-    F314873   4.807   1.643   5.380  0.1445  0.2079  0.0164
 1083PF6-    F414874   4.789   1.465   5.528  0.9458  0.1690 -0.1000
 1083PF6-    F514875   4.627   1.549   5.258 -0.2086  0.3528 -0.6352
 1083PF6-    F614876   4.609   1.595   5.487 -0.2557  0.6407  0.2342
 1083PF6-    F714877   4.813   1.430   5.309 -0.1668 -0.0431  0.4305
 1084PF6-    P114878   0.376   0.304   0.508  0.2959 -0.4309 -0.0957
 1084PF6-    F214879   0.418   0.288   0.348 -0.4855 -0.0943 -0.4913
 1084PF6-    F314880   0.340   0.309   0.666 -0.5076 -0.0738 -0.2959
 1084PF6-    F414881   0.298   0.163   0.503 -0.1432  0.1581 -0.0064
 1084PF6-    F514882   0.447   0.448   0.508  0.0922 -0.0775  0.3939
 1084PF6-    F614883   0.238   0.376   0.465 -0.1621 -0.0257  0.3745
 1084PF6-    F714884   0.515   0.231   0.546 -0.3145  0.5193  0.0137
 1085PF6-    P114885   3.275   2.924   4.490  0.4123  0.2297 -0.1907
 1085PF6-    F214886   3.283   2.793   4.581 -0.4749  0.1197  0.6244
 1085PF6-    F314887   3.264   3.059   4.400 -0.7288  0.5431  0.1577
 1085PF6-    F414888   3.378   3.001   4.585 -0.1143 -0.2152  0.7684
 1085PF6-    F514889   3.177   2.845   4.394  0.5041  0.2399  0.0779
 1085PF6-    F614890   3.146   2.961   4.577  0.0109 -0.7656  0.3093
 1085PF6-    F714891   3.405   2.871   4.410  0.3922 -0.0554 -0.0751
 1086PF6-    P114892   3.594   4.549   0.320  0.1871 -0.4494 -0.1441
 1086PF6-    F214893   3.446   4.584   0.373 -0.4572 -0.1711  0.3769
 1086PF6-    F314894   3.740   4.515   0.269 -0.4708 -0.1839 -0.3184
 1086PF6-    F414895   3.659   4.620   0.451 -0.1120  0.0542  0.1210
 1086PF6-    F514896   3.530   4.488   0.185 -0.3568  0.0374  0.2332
 1086PF6-    F614897   3.596   4.689   0.246  0.1641  0.3097 -0.1110
 1086PF6-    F714898   3.584   4.410   0.401  0.1414  0.4941  0.0501
 1087PF6-    P114899   3.048   3.192   0.092  0.1110 -0.1128  0.0690
 1087PF6-    F214900   3.098   3.073  -0.006  0.1474  0.9194 -0.3557
 1087PF6-    F314901   3.001   3.311   0.193  0.0512  0.8184 -0.0728
 1087PF6-    F414902   3.168   3.286   0.044  0.0488 -0.0083  0.1838
 1087PF6-    F514903   2.920   3.103   0.138  0.5703 -0.4457  0.1397
 1087PF6-    F614904   3.136   3.123   0.209  0.1667 -0.6330  0.0495
 1087PF6-    F714905   2.948   3.246  -0.022  0.4536 -0.0281 -0.0306
 1088PF6-    P114906   3.660   2.461   2.686 -0.0817 -0.1903  0.2148
 1088PF6-    F214907   3.606   2.590   2.605  0.0567  0.7245 -0.7010
 1088PF6-    F314908   3.719   2.336   2.760  0.0732 -0.0094 -0.4601
 1088PF6-    F414909   3.670   2.383   2.550 -0.5716  0.4504 -0.0878
 1088PF6-    F514910   3.652   2.545   2.822  0.5295 -0.1702  0.1664
 1088PF6-    F614911   3.514   2.399   2.705  0.1228 -0.4801 -0.3897
 1088PF6-    F714912   3.812   2.514   2.664 -0.0552 -0.1353  0.0076
 1089PF6-    P114913   3.142   4.779   2.862 -0.0827 -0.0350  0.2764
 1089PF6-    F214914   3.279   4.863   2.836  0.4631 -0.1003  0.3105
 1089PF6-    F314915   3.003   4.692   2.886 -0.0105 -0.2893 -0.2195
 1089PF6-    F414916   3.136   4.755   2.700  0.4645 -0.3949  0.2401
 1089PF6-    F514917   3.148   4.800   3.023 -0.1141  1.2170 -0.1158
 1089PF6-    F614918   3.052   4.912   2.841  0.2027  0.1325  0.0658
 1089PF6-    F714919   3.224   4.643   2.885  0.4462 -0.4313  0.1895
 1090PF6-    P114920   1.638   2.340   0.580 -0.2486 -0.0507  0.0232
 1090PF6-    F214921   1.700   2.289   0.717 -0.1263  0.0978 -0.1455
 1090PF6-    F314922   1.582   2.401   0.441  0.4107  0.0931  0.3178
 1090PF6-    F414923   1.625   2.487   0.635 -0.1191 -0.2294 -0.0191
 1090PF6-    F514924   1.656   2.190   0.516 -0.2961  0.4111 -0.6305
 1090PF6-    F614925   1.493   2.310   0.634  0.5217 -0.0821 -0.2437
 1090PF6-    F714926   1.788   2.380   0.527  0.3877  0.0178 -0.4162
 1091PF6-    P114927   1.208   1.981   2.418 -0.2358 -0.3947  0.3116
 1091PF6-    F214928   1.050   1.977   2.420 -0.2541 -0.4549 -0.0583
 1091PF6-    F314929   1.364   1.991   2.411 -0.2215  0.8770 -0.5364
 1091PF6-    F414930   1.196   2.128   2.353 -0.5544 -0.1689 -0.3649
 1091PF6-    F514931   1.206   1.836   2.480  0.2987 -0.0614 -0.0969
 1091PF6-    F614932   1.214   1.913   2.271 -0.1913 -0.2566 -0.9843
 1091PF6-    F714933   1.205   2.046   2.566 -0.0527  0.0630 -0.1920
 1092PF6-    P114934   4.249   3.877   2.550 -0.1139  0.1896 -0.1852
 1092PF6-    F214935   4.360   3.801   2.469 -0.5055  0.0898  0.0730
 1092PF6-    F314936   4.135   3.956   2.634  0.0133  0.3846  0.0015
 1092PF6-    F414937   4.230   3.988   2.437 -0.0731 -0.2289  0.1825
 1092PF6-    F514938   4.258   3.770   2.667 -0.0380 -0.1095  0.1202
 1092PF6-    F614939   4.363   3.968   2.621 -0.1884  0.2295 -0.4417
 1092PF6-    F714940   4.138   3.789   2.480  0.4012 -0.3834 -0.8699
 1093PF6-    P114941   3.271   5.484   0.000 -0.0230 -0.5232 -0.0037
 1093PF6-    F214942   3.231   5.623   0.073  0.0300  0.0759 -0.2453
 1093PF6-    F314943   3.311   5.350  -0.076 -0.3184 -0.0003  0.0170
 1093PF6-    F414944   3.254   5.396   0.132 -0.3783 -0.4061 -0.0369
 1093PF6-    F514945   3.295   5.558  -0.143  0.2438 -0.0956 -0.0439
 1093PF6-    F614946   3.428   5.516   0.038 -0.1921 -0.3066 -0.6646
 1093PF6-    F714947   3.122   5.467  -0.037  0.1594 -0.0797  0.5802
 1094PF6-    P114948   3.763   3.243   1.960  0.2085 -0.1398 -0.1879
 1094PF6-    F214949   3.859   3.215   1.840 -0.0671 -0.4025  0.7947
 1094PF6-    F314950   3.667   3.280   2.086 -0.3273 -0.0040  0.4650
 1094PF6-    F414951   3.852   3.149   2.054 -0.2414  0.1587 -0.1313
 1094PF6-    F514952   3.670   3.336   1.868 -0.1194 -0.2560  0.1014
 1094PF6-    F614953   3.670   3.125   1.930  0.0255  0.2852 -0.1851
 1094PF6-    F714954   3.850   3.369   1.999 -0.1934  0.4922  0.0678
 1095PF6-    P114955   0.363   0.957   1.676  0.1122 -0.2776  0.3135
 1095PF6-    F214956   0.396   0.949   1.835 -0.0127 -0.0815  0.1918
 1095PF6-    F314957   0.315   0.968   1.522  0.3443  0.5271  0.5590
 1095PF6-    F414958   0.211   0.942   1.718 -0.1798  0.1941 -0.0767
 1095PF6-    F514959   0.516   0.971   1.640  0.0764 -0.1234 -0.3720
 1095PF6-    F614960   0.375   0.799   1.657 -0.2145  0.2538 -0.2378
 1095PF6-    F714961   0.345   1.115   1.683 -0.3780  0.5234 -0.4369
 1096PF6-    P114962   3.785   5.332   4.008 -0.0143  0.0334 -0.1703
 1096PF6-    F214963   3.786   5.385   4.160  0.7517 -0.2714  0.1512
 1096PF6-    F314964   3.775   5.280   3.857 -0.5380  0.2651  0.7906
 1096PF6-    F414965   3.938   5.284   4.028  0.3031 -0.2986 -0.5706
 1096PF6-    F514966   3.630   5.390   4.005  0.4011  0.4578  0.0273
 1096PF6-    F614967   3.838   5.477   3.956  0.0007 -0.0803  0.0163
 1096PF6-    F714968   3.735   5.192   4.058  0.0887 -0.0096 -0.6464
 1097PF6-    P114969   3.123   4.220   2.561 -0.2895  0.5937 -0.1150
 1097PF6-    F214970   3.282   4.191   2.556  0.2399 -0.0909 -0.2617
 1097PF6-    F314971   2.964   4.247   2.570  0.4451 -0.0554  0.3551
 1097PF6-    F414972   3.108   4.213   2.403  0.3214  0.1217  0.1706
 1097PF6-    F514973   3.136   4.232   2.720 -0.2166  0.0105 -0.5643
 1097PF6-    F614974   3.152   4.378   2.559  0.4897  0.2809  0.2692
 1097PF6-    F714975   3.103   4.062   2.577 -0.0745  0.0136 -0.1329
 1098PF6-    P114976   4.818   4.260   0.362  0.4671  0.3978 -0.0133
 1098PF6-    F214977   4.943   4.167   0.385  0.0695  0.1375 -0.0012
 1098PF6-    F314978   4.689   4.358   0.343  0.1499 -0.3197 -0.4971
 1098PF6-    F414979   4.795   4.205   0.216 -0.6681  0.5059  0.6899
 1098PF6-    F514980   4.842   4.324   0.510  0.1709  0.4998  0.2143
 1098PF6-    F614981   4.912   4.375   0.302  0.0106  0.1704  0.2311
 1098PF6-    F714982   4.727   4.145   0.424  0.4885 -0.5881 -0.3411
 1099PF6-    P114983   0.674   2.969   4.198  0.1435 -0.9155  0.5954
 1099PF6-    F214984   0.520   2.939   4.221  0.3443 -0.3800  0.5063
 1099PF6-    F314985   0.825   3.008   4.167  0.1520 -0.2245 -0.4131
 1099PF6-    F414986   0.727   2.874   4.321 -0.0083  0.4683 -0.1392
 1099PF6-    F514987   0.629   3.073   4.083  0.4433 -0.3634 -0.4853
 1099PF6-    F614988   0.667   3.093   4.301  0.5849 -0.1577 -0.0081
 1099PF6-    F714989   0.685   2.853   4.093  0.1043  0.3377  0.0915
 1100PF6-    P114990   2.495   5.255   1.842  0.0133  0.0209 -0.1623
 1100PF6-    F214991   2.510   5.103   1.789  0.5037 -0.0594 -0.6011
 1100PF6-    F314992   2.483   5.407   1.903 -0.3482 -0.2506  0.1096
 1100PF6-    F414993   2.334   5.242   1.849 -0.1255  0.0912  0.2577
 1100PF6-    F514994   2.648   5.273   1.835 -0.2423  0.0764  0.6005
 1100PF6-    F614995   2.483   5.312   1.686  0.1587  0.3601 -0.2816
 1100PF6-    F714996   2.512   5.200   1.996 -0.2480 -0.2639 -0.4531
 1101PF6-    P114997   3.850   1.364   2.902 -0.3203  0.2526  0.0552
 1101PF6-    F214998   3.785   1.509   2.875  0.2788  0.0353 -0.0438
 1101PF6-    F314999   3.917   1.218   2.928 -0.2565 -0.1418  0.5622
 1101PF6-    F415000   3.815   1.324   2.748  0.3900 -0.0393  0.1346
 1101PF6-    F515001   3.892   1.411   3.047 -0.0479 -0.1443  0.3886
 1101PF6-    F615002   3.708   1.305   2.951 -0.0839  0.0279 -0.3556
 1101PF6-    F715003   3.990   1.418   2.846 -0.1016 -0.1688  0.0558
 1102PF6-    P115004   3.056   0.458   4.573 -0.1477  0.1446  0.2827
 1102PF6-    F215005   3.129   0.324   4.516 -0.3778 -0.5029  0.0622
 1102PF6-    F315006   2.987   0.586   4.633 -0.4656 -0.1880 -0.1049
 1102PF6-    F415007   2.940   0.436   4.468  0.0006 -0.1237  0.1033
 1102PF6-    F515008   3.180   0.476   4.671 -0.0441  0.4407 -0.1600
 1102PF6-    F615009   3.126   0.550   4.462  0.1430 -0.1381 -0.1411
 1102PF6-    F715010   2.985   0.366   4.679 -0.0651 -0.3090 -0.0927
 1103PF6-    P115011   2.307   3.593   5.290 -0.2180  0.4438  0.4421
 1103PF6-    F215012   2.161   3.528   5.290 -0.4192 -0.2155 -0.0871
 1103PF6-    F315013   2.446   3.666   5.277  0.1327 -0.2690 -0.0096
 1103PF6-    F415014   2.326   3.594   5.452  0.3835  0.1587  0.6842
 1103PF6-    F515015   2.294   3.607   5.128  0.0181 -0.1969 -0.1747
 1103PF6-    F615016   2.244   3.739   5.308  0.5689 -0.1035  0.3055
 1103PF6-    F715017   2.374   3.449   5.277 -0.0298  0.1631  0.1652
 1104PF6-    P115018   0.161   0.346   3.275 -0.6133 -0.2191  0.2028
 1104PF6-    F215019   0.093   0.333   3.417  0.1003 -0.1331 -0.4271
 1104PF6-    F315020   0.231   0.358   3.130  0.2004  0.0548  0.1302
 1104PF6-    F415021   0.305   0.359   3.341  0.0860 -0.3290 -0.3545
 1104PF6-    F515022   0.014   0.340   3.214 -0.3560  0.5955 -0.4540
 1104PF6-    F615023   0.146   0.503   3.275 -0.1445  0.0038 -0.5703
 1104PF6-    F715024   0.178   0.186   3.267  0.5647 -0.5960 -0.7262
 1105PF6-    P115025   2.403   1.052   1.435 -0.1927 -0.0341 -0.2719
 1105PF6-    F215026   2.256   1.024   1.392  0.3328  0.5187 -0.0979
 1105PF6-    F315027   2.549   1.085   1.486 -0.0937 -0.4083 -0.1796
 1105PF6-    F415028   2.417   0.901   1.478  0.1872  0.4331  0.2361
 1105PF6-    F515029   2.392   1.200   1.385  0.5676  0.0328  0.0686
 1105PF6-    F615030   2.345   1.098   1.580  0.1266  0.3399  0.2994
 1105PF6-    F715031   2.450   1.005   1.285  0.1092 -0.2720 -0.0910
 1106PF6-    P115032   4.299   3.954   1.438  0.1798 -0.0243 -0.2444
 1106PF6-    F215033   4.431   3.933   1.349  0.3188  0.1161  0.0894
 1106PF6-    F315034   4.168   3.977   1.525 -0.0417  0.0861 -0.0008
 1106PF6-    F415035   4.209   3.879   1.329 -0.0276  0.3311  0.4518
 1106PF6-    F515036   4.387   4.029   1.559 -0.1033  0.1405  0.4676
 1106PF6-    F615037   4.271   4.099   1.361  0.1434 -0.7699  0.3222
 1106PF6-    F715038   4.327   3.815   1.509  0.0691  0.6926  0.0585
 1107PF6-    P115039   3.498   0.564   0.412  0.1741 -0.0978 -0.1176
 1107PF6-    F215040   3.625   0.640   0.466  0.5332 -0.2820 -0.0265
 1107PF6-    F315041   3.375   0.486   0.350  0.3344  0.3008 -0.0820
 1107PF6-    F415042   3.591   0.444   0.370  0.2280  0.5738  0.5660
 1107PF6-    F515043   3.409   0.694   0.462 -0.0307 -0.4848 -0.0361
 1107PF6-    F615044   3.526   0.629   0.268  0.0808 -0.9667  0.0289
 1107PF6-    F715045   3.469   0.493   0.552 -0.3151  0.0689  0.2458
 1108PF6-    P115046   4.992   4.090   3.244  0.2430  0.0811 -0.3058
 1108PF6-    F215047   4.957   4.241   3.253  0.4377  0.1192 -0.1793
 1108PF6-    F315048   5.028   3.935   3.246  0.7301 -0.1903 -0.2221
 1108PF6-    F415049   4.988   4.084   3.409  0.0320  0.2843  0.0381
 1108PF6-    F515050   4.997   4.093   3.080  0.6282 -0.1340 -0.0070
 1108PF6-    F615051   5.151   4.117   3.259  0.2224 -0.2875 -0.1088
 1108PF6-    F715052   4.834   4.049   3.226  0.2141 -0.6078 -0.0206
 1109PF6-    P115053   2.913   1.437   3.210 -0.1246  0.0909  0.3743
 1109PF6-    F215054   2.947   1.326   3.100  0.2543  0.0884 -0.1868
 1109PF6-    F315055   2.873   1.547   3.319  0.2448  0.1222 -0.0823
 1109PF6-    F415056   2.756   1.440   3.163  0.2046  0.1065 -0.0244
 1109PF6-    F515057   3.061   1.434   3.258 -0.3508 -0.4175 -0.1253
 1109PF6-    F615058   2.938   1.548   3.102  0.9428  0.2708 -0.5070
 1109PF6-    F715059   2.879   1.321   3.317 -0.1301 -0.1456 -0.3276
 1110PF6-    P115060   1.581   5.203   1.418  0.0640 -0.0101 -0.1180
 1110PF6-    F215061   1.694   5.120   1.495  0.5456 -0.5319 -0.1382
 1110PF6-    F315062   1.470   5.283   1.342 -0.0071  0.3104  0.6522
 1110PF6-    F415063   1.483   5.167   1.539  0.5068 -0.5841  0.4248
 1110PF6-    F515064   1.691   5.235   1.302 -0.3180  0.0651 -0.2141
 1110PF6-    F615065   1.537   5.070   1.347  0.5226  0.0014  0.3779
 1110PF6-    F715066   1.622   5.341   1.487  0.2289  0.0542  0.0475
 1111PF6-    P115067   4.703   1.369   0.892  0.1389  0.1013 -0.1559
 1111PF6-    F215068   4.720   1.256   0.775  0.1323 -0.3005 -0.2483
 1111PF6-    F315069   4.674   1.481   1.014 -0.1071 -0.0775  0.2871
 1111PF6-    F415070   4.586   1.282   0.946  0.1066  0.7781 -0.3146
 1111PF6-    F515071   4.823   1.449   0.835  0.0913 -0.1282  0.1924
 1111PF6-    F615072   4.599   1.452   0.805  0.2154  0.3587  0.5583
 1111PF6-    F715073   4.809   1.289   0.986  0.0546  0.3209 -0.3392
 1112PF6-    P115074   3.028   2.597   0.838 -0.1077  0.3856  0.3077
 1112PF6-    F215075   2.959   2.741   0.798  0.4487  0.3455  0.3790
 1112PF6-    F315076   3.101   2.454   0.870 -0.2530  0.0993  0.2524
 1112PF6-    F415077   3.145   2.674   0.929  0.4334  0.1697  0.3078
 1112PF6-    F515078   2.919   2.521   0.752 -0.0746  0.4681 -0.1443
 1112PF6-    F615079   3.120   2.613   0.709 -0.0776  0.0299  0.4206
 1112PF6-    F715080   2.931   2.573   0.966  0.5161 -0.4110  0.1843
 1113PF6-    P115081   5.142   0.113   3.769 -0.2755 -0.5669  0.2642
 1113PF6-    F215082   5.257   0.229   3.775 -0.0387 -0.3594 -0.2606
 1113PF6-    F315083   5.023   0.003   3.770 -0.0922 -0.0048  0.0768
 1113PF6-    F415084   5.195   0.045   3.904  0.0001 -0.0578  0.2768
 1113PF6-    F515085   5.080   0.185   3.638  0.2500 -0.0763  0.9239
 1113PF6-    F615086   5.231   0.028   3.677  0.2828  0.4127 -0.0467
 1113PF6-    F715087   5.054   0.207   3.868 -0.1540 -0.0198 -0.1122
 1114PF6-    P115088   2.420   0.787   5.247  0.4574  0.4473 -0.1487
 1114PF6-    F215089   2.476   0.841   5.385 -0.2739  0.1152 -0.1967
 1114PF6-    F315090   2.366   0.730   5.109 -0.0346  0.1450 -0.2135
 1114PF6-    F415091   2.568   0.757   5.196  0.7235 -0.0273  0.2442
 1114PF6-    F515092   2.267   0.806   5.301 -0.5075 -0.0550  0.1576
 1114PF6-    F615093   2.422   0.939   5.193 -0.7999 -0.0772  0.0838
 1114PF6-    F715094   2.413   0.641   5.311 -0.1266  0.4642  0.4782
 1115PF6-    P115095   2.909   2.265   5.493  0.2679  0.5118 -0.2844
 1115PF6-    F215096   3.066   2.290   5.519 -0.0124  0.2144 -0.0011
 1115PF6-    F315097   2.750   2.240   5.479 -0.0833 -0.2498  0.2941
 1115PF6-    F415098   2.940   2.119   5.425 -0.0722  0.1058  0.2803
 1115PF6-    F515099   2.891   2.406   5.560  0.3567  0.0995 -0.1434
 1115PF6-    F615100   2.919   2.328   5.345  0.5747  0.0846  0.1623
 1115PF6-    F715101   2.903   2.193   5.637  0.3167  0.3395 -0.5337
 1116PF6-    P115102   3.184   2.552   3.999 -0.1600 -0.6224 -0.1911
 1116PF6-    F215103   3.313   2.594   3.908  0.0869  0.1491 -0.5156
 1116PF6-    F315104   3.062   2.517   4.097  0.2040 -0.0719  0.6948
 1116PF6-    F415105   3.218   2.677   4.095  0.3282  0.1604 -0.4555
 1116PF6-    F515106   3.166   2.418   3.912  0.6432  0.4240  0.2076
 1116PF6-    F615107   3.290   2.464   4.093  0.5152 -0.7241 -0.0909
 1116PF6-    F715108   3.088   2.628   3.907  0.2966 -0.2679  0.0841
 1117PF6-    P115109   0.718   2.944   3.125 -0.1445  0.2289 -0.5497
 1117PF6-    F215110   0.761   2.808   3.049  0.3037 -0.6866  0.1387
 1117PF6-    F315111   0.670   3.077   3.197  0.3014 -0.4436  0.1767
 1117PF6-    F415112   0.786   2.890   3.262 -0.1530 -0.0261 -0.2917
 1117PF6-    F515113   0.646   2.996   2.990  0.3251 -0.4789  0.3795
 1117PF6-    F615114   0.581   2.866   3.164 -0.1524  0.2805  0.2314
 1117PF6-    F715115   0.854   3.026   3.086  0.1227 -0.1732 -0.4952
 1118PF6-    P115116   3.749   2.468   5.308  0.0260 -0.0786 -0.1389
 1118PF6-    F215117   3.784   2.552   5.441 -0.2940  0.0099 -0.5987
 1118PF6-    F315118   3.717   2.387   5.176 -0.0090 -0.1814 -0.3090
 1118PF6-    F415119   3.757   2.335   5.390 -0.1349 -0.5043 -0.5784
 1118PF6-    F515120   3.736   2.606   5.225 -0.2786 -0.0967  0.0713
 1118PF6-    F615121   3.903   2.456   5.282 -0.2715  0.2322  0.2796
 1118PF6-    F715122   3.593   2.485   5.344  0.4847 -0.4576 -0.1047
 1119PF6-    P115123   3.686   2.992   3.452  0.1831 -0.3529  0.1192
 1119PF6-    F215124   3.556   3.041   3.534 -0.0927  0.3061  0.3435
 1119PF6-    F315125   3.825   2.952   3.376  0.2468  0.3155 -0.3135
 1119PF6-    F415126   3.689   2.854   3.530  0.4063 -0.3878  0.0804
 1119PF6-    F515127   3.686   3.134   3.376  0.2188  0.2102  0.1233
 1119PF6-    F615128   3.767   3.050   3.574  0.3085  0.3167 -0.2143
 1119PF6-    F715129   3.594   2.932   3.335  0.7268  0.0526 -0.1448
 1120PF6-    P115130   4.204   0.027   0.121 -0.3684  0.5676 -0.1889
 1120PF6-    F215131   4.206  -0.035  -0.026 -0.3276 -0.4956 -0.5713
 1120PF6-    F315132   4.200   0.090   0.269  0.2966 -0.1614  0.6797
 1120PF6-    F415133   4.304   0.141   0.078 -0.3021  0.0295  0.2394
 1120PF6-    F515134   4.111  -0.094   0.172 -0.0617  0.2592  0.1159
 1120PF6-    F615135   4.332  -0.062   0.166  0.1015  0.6502  0.1158
 1120PF6-    F715136   4.077   0.121   0.086  0.0231  0.2858 -0.2888
 1121PF6-    P115137   1.165   4.170   4.404  0.0461  0.0155  0.5671
 1121PF6-    F215138   1.186   4.092   4.262 -0.2805 -0.4633  0.4796
 1121PF6-    F315139   1.129   4.248   4.540  0.4245 -0.0439  0.5260
 1121PF6-    F415140   1.307   4.129   4.458  0.2037  0.0820  0.1169
 1121PF6-    F515141   1.020   4.215   4.340 -0.4395 -0.3984  0.7266
 1121PF6-    F615142   1.094   4.043   4.465  0.0592  0.2295 -0.2338
 1121PF6-    F715143   1.238   4.295   4.339 -0.1132  0.6874 -0.9964
 1122PF6-    P115144   1.813   4.583   3.903  0.2261 -0.0587 -0.1303
 1122PF6-    F215145   1.694   4.543   3.810 -0.1322 -0.1134 -0.0428
 1122PF6-    F315146   1.928   4.612   4.007 -0.1062 -0.0039  0.3330
 1122PF6-    F415147   1.903   4.613   3.781 -0.1834  0.4659  0.5731
 1122PF6-    F515148   1.712   4.553   4.025 -0.0331  0.4946 -0.3959
 1122PF6-    F615149   1.852   4.429   3.903 -0.2111 -0.5389  0.5594
 1122PF6-    F715150   1.771   4.736   3.909 -0.2998  0.0705 -0.1286
 1123PF6-    P115151   3.574   2.690   0.837 -0.1046 -0.2003 -0.4604
 1123PF6-    F215152   3.657   2.742   0.956  0.6649  0.5495  0.2329
 1123PF6-    F315153   3.490   2.626   0.717 -1.0310 -0.2469  0.9280
 1123PF6-    F415154   3.530   2.838   0.791  0.2218  0.1807 -0.1890
 1123PF6-    F515155   3.621   2.536   0.874 -0.1472  0.4160  0.2080
 1123PF6-    F615156   3.441   2.683   0.938  0.6273  0.0417  0.4526
 1123PF6-    F715157   3.705   2.694   0.741  0.2206  0.0726  0.4628
 1124PF6-    P115158   4.396   1.379   4.608 -0.0514 -0.3385  0.0563
 1124PF6-    F215159   4.282   1.495   4.593 -0.3283  0.2992 -0.0067
 1124PF6-    F315160   4.517   1.272   4.623  0.2357 -0.2001  0.1415
 1124PF6-    F415161   4.426   1.436   4.755  0.0843 -0.1034 -0.6096
 1124PF6-    F515162   4.362   1.327   4.460  0.1229  0.8859 -0.1241
 1124PF6-    F615163   4.503   1.485   4.550  0.3462  0.3098  0.4498
 1124PF6-    F715164   4.297   1.274   4.669 -0.2619 -0.2314 -0.0015
 1125PF6-    P115165   4.129   1.558   3.437 -0.4915 -0.4279  0.0287
 1125PF6-    F215166   4.246   1.451   3.418 -0.2123 -0.1282 -0.0237
 1125PF6-    F315167   4.012   1.668   3.459 -0.2827 -0.5592  0.3374
 1125PF6-    F415168   4.244   1.675   3.455 -0.1435 -0.5882 -0.1619
 1125PF6-    F515169   4.017   1.443   3.429  0.3828  0.0036 -0.1670
 1125PF6-    F615170   4.136   1.537   3.594 -0.3358 -0.5205  0.1578
 1125PF6-    F715171   4.117   1.583   3.276  0.5785  0.1161 -0.0576
 1126PF6-    P115172   1.165   5.078   4.518 -0.0179  0.1877  0.1503
 1126PF6-    F215173   1.258   5.024   4.633  0.8754  0.2660 -0.0292
 1126PF6-    F315174   1.079   5.137   4.398  0.0183 -0.2278 -0.1246
 1126PF6-    F415175   1.302   5.127   4.443  0.7357 -0.2616  0.1634
 1126PF6-    F515176   1.031   5.029   4.600  0.6176 -0.0154  0.4669
 1126PF6-    F615177   1.159   5.221   4.594 -0.1293 -0.2092 -0.8970
 1126PF6-    F715178   1.167   4.930   4.448 -0.0571  0.5724 -0.3778
 1127Na+     N115179   4.045   3.552   1.985  0.1439  0.2718 -0.3575
 1128Na+     N115180   1.542   2.128   2.336  0.0620 -0.1919 -0.1919
 1129Na+     N115181   4.503   2.465   1.351  0.0021 -0.5639  0.7413
 1130Na+     N115182   5.319   0.721   3.803 -0.0318  0.1331  0.1102
 1131Na+     N115183   0.462   3.682   1.527  0.0835  0.2694  0.2590
 1132Na+     N115184   4.195   2.375   3.259 -0.2171 -0.2194 -0.0390
 1133Na+     N115185   3.814   0.916   4.308 -0.4041 -0.2321  0.0543
 1134Na+     N115186   4.964   2.764   2.692  0.0896 -0.0248  0.0713
 1135Na+     N115187   4.064   4.437   1.959  0.7396  0.1967  0.5338
 1136Na+     N115188   1.088   3.665   4.041 -0.1928 -0.3504 -0.3517
 1137Na+     N115189   4.749   1.157   4.695 -0.0870 -0.1217 -0.1435
 1138Na+     N115190   3.115   3.706   2.170  0.2500 -0.2692 -0.3500
 1139Na+     N115191   2.888   4.994   3.802 -0.6349 -0.0999 -0.2510
 1140Na+     N115192   1.309   4.172   5.042 -0.1254  0.0189 -0.3010
 1141Na+     N115193   1.676   4.817   4.117 -0.0180  0.2640  0.0146
 1142Na+     N115194   5.332   3.674   0.652  0.1411 -0.3906  0.3194
 1143Na+     N115195   3.117   0.796   5.352 -0.5640  0.2506 -0.1446
 1144Na+     N115196   1.754   0.254   1.010 -0.0593  0.0215 -0.0417
 1145Na+     N115197   3.580   0.210   0.403 -0.2341 -0.2788  0.1603
 1146Na+     N115198   0.565   3.179   1.005 -0.4923 -0.0980  0.3282
 1147Na+     N115199   1.626   4.640   5.441 -0.3435 -0.3456 -0.2933
 1148Na+     N115200   4.159   0.534   1.039  0.1992 -0.6910 -0.4636
 1149Na+     N115201   2.341   2.589   4.625  0.1954  0.1859 -0.1599
 1150Na+     N115202   2.774   3.305   0.251 -0.1250  0.2616 -0.1943
 1151Na+     N115203   0.832   4.379   4.414  0.2355 -0.3443 -0.2962
 1152Na+     N115204   0.660   1.587   1.239  0.2892  0.1828 -0.0556
 1153Na+     N115205   2.875   5.281   4.894  0.0629  0.3169  0.0787
 1154Na+     N115206   0.220   5.023   1.977  0.1742 -0.2053  0.5173
 1155Na+     N115207   4.052   3.663   3.685  0.0445  0.1460 -0.5706
 1156Na+     N115208   3.843   0.256   3.473  0.0087  0.4204  0.0085
 1157Na+     N115209   3.022   2.734   4.259  0.0556 -0.0304 -0.1102
 1158Na+     N115210   3.967   3.541   0.855 -0.0273  0.0711 -0.5247
 1159Na+     N115211   5.352   1.412   1.753 -0.0675 -0.4689 -0.3229
 1160Na+     N115212   3.921   4.650   0.370 -0.2687 -0.1853  0.0058
 1161Na+     N115213   0.413   3.661   2.165 -0.7074 -0.1641 -0.2227
 1162Na+     N115214   4.386   1.682   4.779  0.1449  0.0342 -0.1147
 1163Na+     N115215   2.322   2.203   5.198 -0.3784  0.2023  0.1194
 1164Na+     N115216   5.340   3.984   2.596 -0.0729 -0.5393  0.4697
 1165Na+     N115217   2.219   3.882   4.709  0.2092 -0.1379 -0.1215
 1166Na+     N115218   0.871   0.989   2.881 -0.0223 -0.3630 -0.2299
 1167Na+     N115219   0.518   2.819   2.857 -0.2909  0.2453 -0.0200
 1168Na+     N115220   0.333   0.537   1.695 -0.4310 -0.0785 -0.1652
 1169Na+     N115221   2.217   1.027   0.760  0.0578  0.5769 -0.0376
 1170Na+     N115222   1.887   4.165   1.494  0.2378  0.0039  0.3839
 1171Na+     N115223   0.003   3.160   3.271 -0.1645 -0.4372  0.2876
 1172Na+     N115224   3.506   1.561   2.929  0.1376 -0.6071  0.2846
 1173Na+     N115225   2.809   1.139   3.455  0.5999  0.3463  0.1697
 1174Na+     N115226   0.919   2.734   4.218  0.3118 -0.6635 -0.1760
 1175Na+     N115227   3.060   4.457   2.821  0.1251  0.1161  0.0405
 1176Na+     N115228   0.120   2.434   0.172 -0.0205 -0.4373  0.3154
 1177Na+     N115229   0.873   0.520   0.149 -0.0994  0.0095 -0.1584
 1178Na+     N115230   0.132   0.264   0.803 -0.0454 -0.2817  0.0048
 1179Na+     N115231   4.541   1.741   0.193 -0.0097 -0.4446 -0.0712
 1180Na+     N115232   1.805   1.518   4.394  0.2152  0.0228  0.0925
 1181Na+     N115233   1.974   0.582   4.404 -0.0116  0.1599  0.2055
 1182Na+     N115234   2.646   1.597   2.949  0.2341  0.4560 -0.1810
 1183Na+     N115235   4.121   1.372   1.515  0.1236 -0.1480  0.1740
 1184Na+     N115236   2.191   4.075   3.432 -0.3650  0.0707 -0.1454
 1185Na+     N115237   3.946   2.433   2.477  0.3674  0.5238  0.0498
 1186Na+     N115238   3.160   3.534   3.045  0.4726 -0.1752  0.6890
 1187Na+     N115239   4.836   0.115   0.844 -0.1422  0.4458 -0.2688
 1188Na+     N115240   1.305   0.934   3.841 -0.3216  0.1236 -0.2923
 1189Na+     N115241   1.801   4.332   4.136 -0.1420 -0.3993 -0.4469
 1190Na+     N115242   1.954   5.219   2.116  0.3060 -0.2380  0.7463
 1191Na+     N115243   3.298   2.729   1.121  0.0331  0.2372 -0.0402
 1192Na+     N115244   0.816   5.009   1.565  0.2500  0.1659 -0.2448
 1193Na+     N115245   3.486   2.675   5.203 -0.2238 -0.0287  0.1187
 1194Na+     N115246   4.152   1.450   3.068 -0.4373 -0.3344 -0.0718
 1195Na+     N115247   3.547   3.308   4.955  0.0646 -0.1466  0.6527
 1196Na+     N115248   5.384   4.000   3.513 -0.2540  0.4958 -0.2694
 1197Na+     N115249   4.318   0.149   0.479 -0.1930 -0.4633  0.4741
 1198Na+     N115250   0.996   2.734   0.586 -0.1326  0.8544 -0.2570
 1199Na+     N115251   1.847   2.030   0.535 -0.0254  0.5777 -0.2316
 1200Na+     N115252   5.331   0.204   3.104  0.1060 -0.3858 -0.3175
 1201Na+     N115253   1.764   1.139   5.399 -0.1306 -0.3790 -0.7241
 1202Na+     N115254   2.248   0.415   1.417 -0.1669  0.1031 -0.4845
 1203Na+     N115255   1.205   4.270   2.087  0.1853 -0.3550 -0.1300
 1204Na+     N115256   0.304   5.420   3.898 -0.3761 -0.4746 -0.0788
 1205Na+     N115257   4.888   0.061   3.987 -0.0390 -0.2247 -0.3310
 1206Na+     N115258   0.988   4.924   2.627  0.2012  0.1347  0.4535
 1207Na+     N115259   4.636   4.876   5.458 -0.3070  0.2952 -0.0027
 1208Na+     N115260   1.275   1.455   2.938  0.6433 -0.2434 -0.1007
 1209Na+     N115261   4.459   3.135   3.457 -0.5273 -0.2407  0.1194
 1210Na+     N115262   5.195   3.418   1.680  0.0132 -0.1305 -0.0149
 1211Na+     N115263   4.031   0.040   4.260  0.2951 -0.2899  0.0900
 1212Na+     N115264   4.643   1.317   3.888  0.3203  0.2374  0.3035
 1213Na+     N115265   1.173   3.838   0.323  0.2527 -0.5871 -0.2932
 1214Na+     N115266   5.199   0.583   0.202  0.4656  0.0663 -0.0779
 1215Na+     N115267   2.497   1.418   1.343  0.0066 -0.3091 -0.1672
 1216Na+     N115268   1.251   5.382   4.749 -0.4230  0.5300  0.1715
 1217Na+     N115269   3.351   4.357   0.049 -0.0912 -0.0394 -0.2027
 1218Na+     N115270   1.341   2.173   1.217  0.3458  0.0282  0.0875
 1219Na+     N115271   5.244   3.421   4.251 -0.3217 -0.1214  0.0017
 1220Na+     N115272   2.986   0.956   1.918  0.2977  0.0381  0.0324
 1221Na+     N115273   4.533   3.700   2.702 -0.1889  0.2089 -0.1714
 1222Na+     N115274   0.589   2.627   2.265  0.1159  0.2640 -0.3111
 1223Na+     N115275   4.365   0.100   5.259 -0.4013  0.2302  0.3835
 1224Na+     N115276   3.303   2.557   0.570 -0.2731 -0.4505  0.5987
 1225Na+     N115277   3.090   4.854   2.114 -0.3077  0.3836  0.0293
 1226Na+     N115278   3.894   3.218   2.831 -0.1736  0.1731  0.0769
   5.50001   5.50001   5.50001
