DG-THF-PF6-Na    Amber RESP
15350
    1DG      C1    1   2.609   2.285   3.180 -0.1137  0.1894  0.0639
    1DG      C2    2   3.083   1.589   3.195  0.3571  0.5979  0.4347
    1DG      H3    3   2.541   2.346   3.121  2.6642  2.8203 -0.6625
    1DG      H4    4   2.702   2.292   3.123 -1.5588  0.3610 -2.4283
    1DG      H5    5   2.620   2.331   3.278 -0.2352 -2.0257  1.1893
    1DG      H6    6   3.177   1.640   3.172  0.8909 -0.2344  0.7438
    1DG      H7    7   3.070   1.594   3.304 -0.4753  0.8814  0.3299
    1DG      H8    8   3.092   1.485   3.167  0.5013 -0.4288  3.7755
    1DG      O9    9   2.589   2.140   3.180  0.4866  0.1286 -0.3961
    1DG     O10   10   2.967   1.658   3.139 -0.3146  0.7657 -0.8275
    1DG     C11   11   2.700   2.061   3.214 -0.3848  0.0423 -0.3990
    1DG     C12   12   2.839   1.595   3.173 -0.1279 -0.0711  0.2027
    1DG     H13   13   2.715   2.065   3.322 -2.1496  1.0391 -0.1478
    1DG     H14   14   2.791   2.097   3.166 -0.1140 -1.5257 -1.1298
    1DG     H15   15   2.834   1.579   3.280  0.6861 -0.1682  0.2334
    1DG     H16   16   2.822   1.502   3.120  0.8477 -0.1876  0.0670
    1DG     C17   17   2.667   1.923   3.145  0.2371  0.5928 -0.2999
    1DG     C18   18   2.732   1.694   3.131  1.0226  0.0214  0.9213
    1DG     O19   19   2.761   1.824   3.192  0.5464 -0.2388  0.3738
    1DG     H20   20   2.672   1.935   3.036  1.6902  1.8057 -0.1256
    1DG     H21   21   2.565   1.901   3.177 -0.0028  1.1074 -0.6927
    1DG     H22   22   2.736   1.724   3.026 -2.1448  2.8830  1.4448
    1DG     H23   23   2.627   1.672   3.153  0.1690 -1.0857 -3.3520
    2DG      C1   24   5.047   4.505   0.202 -0.1084  0.0093 -0.3335
    2DG      C2   25   4.308   4.161  -0.042 -0.1782  0.3959  0.0597
    2DG      H3   26   5.061   4.590   0.268 -1.8444  0.3247 -0.3272
    2DG      H4   27   5.099   4.516   0.107 -1.8505 -1.2271 -1.4939
    2DG      H5   28   5.097   4.421   0.251  0.6379  1.0040  0.6608
    2DG      H6   29   4.361   4.099   0.031  0.9172 -1.6793 -2.3398
    2DG      H7   30   4.212   4.206  -0.015  0.3705  1.6369 -0.0230
    2DG      H8   31   4.291   4.096  -0.128  0.6061 -1.7153  1.4041
    2DG      O9   32   4.915   4.469   0.174 -0.2128  0.2040 -0.4280
    2DG     O10   33   4.383   4.274  -0.088  0.0545  0.4466 -0.5148
    2DG     C11   34   4.841   4.587   0.151  0.4058 -1.1331 -0.0069
    2DG     C12   35   4.433   4.350   0.022  0.0795 -0.0808  0.1559
    2DG     H13   36   4.910   4.665   0.118  1.2944 -1.7750  0.3205
    2DG     H14   37   4.803   4.630   0.244  0.5427  1.8994 -1.2209
    2DG     H15   38   4.479   4.293   0.103 -3.0870 -0.4090  1.8887
    2DG     H16   39   4.355   4.406   0.073 -0.0187 -1.4838  1.6320
    2DG     C17   40   4.743   4.561   0.037 -0.7031 -0.0002  0.2672
    2DG     C18   41   4.539   4.446  -0.031  0.1370 -0.3883 -0.2379
    2DG     O19   42   4.619   4.492   0.082  0.7787  0.0969  0.1782
    2DG     H20   43   4.785   4.510  -0.050  4.4373  0.8170  1.9685
    2DG     H21   44   4.715   4.655  -0.011  0.9989  1.0062  1.1672
    2DG     H22   45   4.612   4.403  -0.099  1.2240 -1.2092  1.3976
    2DG     H23   46   4.495   4.525  -0.092  0.8172  0.4904  0.3833
    3DG      C1   47   3.500   2.568   0.686  0.4915 -0.1089 -0.4030
    3DG      C2   48   4.125   2.451   0.403  0.5292 -0.0971  0.0086
    3DG      H3   49   3.501   2.468   0.642  1.7725 -0.7966  1.0656
    3DG      H4   50   3.480   2.648   0.614 -0.7898  0.7357  0.8401
    3DG      H5   51   3.432   2.582   0.770  0.8026 -0.2431 -0.1268
    3DG      H6   52   4.225   2.494   0.407  1.0265 -1.0196 -1.5351
    3DG      H7   53   4.133   2.343   0.388 -2.9013 -0.1845 -2.4949
    3DG      H8   54   4.085   2.490   0.310 -0.7316  0.8843  0.9343
    3DG      O9   55   3.635   2.580   0.719 -0.4233  0.3957  0.6761
    3DG     O10   56   4.056   2.486   0.523  0.1603 -0.5479 -0.1502
    3DG     C11   57   3.673   2.490   0.825  0.0446  0.3923 -0.1262
    3DG     C12   58   4.093   2.401   0.630 -0.0021  0.0248 -0.5380
    3DG     H13   59   3.635   2.389   0.811  0.5063  0.4666 -2.1377
    3DG     H14   60   3.617   2.518   0.914  0.0278 -0.5033  0.1593
    3DG     H15   61   4.200   2.395   0.614 -0.1757 -1.5306 -1.2788
    3DG     H16   62   4.056   2.299   0.618 -0.5171  0.2153 -0.6297
    3DG     C17   63   3.820   2.489   0.853  0.7059  0.3329 -0.5581
    3DG     C18   64   4.032   2.465   0.758  0.2506 -0.5402 -0.8906
    3DG     O19   65   3.893   2.468   0.738 -0.0060 -0.2121  0.2535
    3DG     H20   66   3.841   2.419   0.934  1.1917  0.4058 -0.6177
    3DG     H21   67   3.852   2.583   0.899  3.2346  0.1885 -1.8056
    3DG     H22   68   4.063   2.420   0.852 -2.2441 -0.0164  0.2545
    3DG     H23   69   4.066   2.569   0.761  0.1249 -0.4517  3.3964
    4DG      C1   70   3.949   0.394   2.086  0.6457 -0.0122  0.4489
    4DG      C2   71   3.424   0.232   2.292  0.6427  0.6486 -0.3521
    4DG      H3   72   3.935   0.294   2.128 -1.1679 -0.8808 -1.9462
    4DG      H4   73   3.985   0.455   2.168  0.3888 -0.7768  1.1423
    4DG      H5   74   4.023   0.377   2.008  0.0518  0.1062 -0.1581
    4DG      H6   75   3.417   0.224   2.400  2.1528 -0.5403 -0.3214
    4DG      H7   76   3.319   0.236   2.261  1.1171 -1.6357 -2.5719
    4DG      H8   77   3.460   0.132   2.269  0.7093  0.2154  1.5151
    4DG      O9   78   3.825   0.431   2.025  0.5876  0.2161  0.5127
    4DG     O10   79   3.519   0.320   2.233  0.1431  0.0685 -0.5306
    4DG     C11   80   3.819   0.563   1.973  0.0988 -0.4379 -0.0795
    4DG     C12   81   3.483   0.454   2.254 -0.4393  0.1484 -1.3520
    4DG     H13   82   3.870   0.568   1.877 -1.3949 -0.6713 -0.9172
    4DG     H14   83   3.858   0.636   2.044 -0.1681 -0.5295  0.1644
    4DG     H15   84   3.490   0.484   2.359  2.0183  0.9276 -1.6809
    4DG     H16   85   3.383   0.467   2.213 -1.1670  0.8318  0.5229
    4DG     C17   86   3.669   0.604   1.957 -0.4902  0.1512 -1.0624
    4DG     C18   87   3.579   0.551   2.177 -0.0488 -0.3057 -0.2390
    4DG     O19   88   3.582   0.524   2.037 -0.0265 -0.3888 -0.1734
    4DG     H20   89   3.640   0.595   1.853 -0.2164 -0.6057 -1.0823
    4DG     H21   90   3.657   0.709   1.985  2.0280  0.3907 -0.6091
    4DG     H22   91   3.547   0.654   2.193  1.8885 -0.0438  2.6443
    4DG     H23   92   3.682   0.543   2.211 -0.0415 -2.2321 -0.5687
    5DG      C1   93   0.585   1.276   0.164  0.6377  0.3155  0.6660
    5DG      C2   94  -0.007   0.946  -0.131 -1.1696 -0.2417 -0.6631
    5DG      H3   95   0.582   1.219   0.257 -1.2857 -0.6079  0.0812
    5DG      H4   96   0.516   1.360   0.160  0.3791  0.0990  0.5598
    5DG      H5   97   0.688   1.311   0.156  0.5046  0.3373 -1.6478
    5DG      H6   98  -0.060   1.028  -0.179 -2.1257 -0.1097  0.5724
    5DG      H7   99  -0.044   0.852  -0.171 -0.1778 -0.5775 -0.8181
    5DG      H8  100  -0.039   0.940  -0.027  0.6702  0.7642  0.0267
    5DG      O9  101   0.547   1.192   0.048  0.1728  0.7769 -1.2736
    5DG     O10  102   0.137   0.968  -0.137  0.8080 -0.4215 -0.3144
    5DG     C11  103   0.534   1.255  -0.076 -1.1677  0.1616  0.0787
    5DG     C12  104   0.187   1.006  -0.261  0.0801 -0.2333 -0.0143
    5DG     H13  105   0.631   1.301  -0.097 -0.5502 -1.3467 -0.4620
    5DG     H14  106   0.452   1.327  -0.071 -1.6149 -0.1822 -1.5015
    5DG     H15  107   0.151   1.100  -0.302  2.1978  0.7424  0.2111
    5DG     H16  108   0.155   0.928  -0.330  0.9452 -0.4522 -0.1832
    5DG     C17  109   0.507   1.151  -0.181 -0.3061  0.0340 -0.4402
    5DG     C18  110   0.338   1.010  -0.264 -0.5579  0.7122  0.0491
    5DG     O19  111   0.382   1.100  -0.164  0.4841 -0.1517  0.1751
    5DG     H20  112   0.581   1.072  -0.181 -1.8400 -1.4723 -0.2547
    5DG     H21  113   0.512   1.200  -0.279 -1.0298 -1.8953 -1.4917
    5DG     H22  114   0.383   0.911  -0.252 -0.0908  0.9252  0.0941
    5DG     H23  115   0.358   1.050  -0.363 -2.2689  1.4504 -0.0208
    6DG      C1  116   0.929   5.106   4.090  0.5200 -0.0368  0.9171
    6DG      C2  117   0.934   5.175   3.361  0.4751 -0.5762  0.7651
    6DG      H3  118   1.000   5.189   4.086  0.8776 -0.2775  2.0008
    6DG      H4  119   0.968   5.031   4.159 -1.2342 -1.5809  0.3073
    6DG      H5  120   0.832   5.145   4.119 -0.0818 -1.6400  1.1348
    6DG      H6  121   0.944   5.123   3.265 -1.4339  3.7019 -2.0799
    6DG      H7  122   0.842   5.233   3.365  0.2533 -0.9654  1.3946
    6DG      H8  123   1.019   5.243   3.359  1.3826 -1.5996 -2.3111
    6DG      O9  124   0.917   5.031   3.967  0.2958 -0.2049 -0.1625
    6DG     O10  125   0.936   5.098   3.479 -0.0164 -0.0102 -0.4610
    6DG     C11  126   1.030   4.941   3.950  0.1725  0.5377  0.6247
    6DG     C12  127   1.039   4.998   3.473  0.3744 -0.0636 -0.1724
    6DG     H13  128   1.034   4.869   4.032  3.3013 -0.8536 -0.5803
    6DG     H14  129   1.128   4.990   3.956 -0.2179  1.3892  0.2434
    6DG     H15  130   1.135   5.044   3.496 -0.0504  0.8988 -0.2935
    6DG     H16  131   1.035   4.955   3.373 -1.6264 -0.4581  0.0185
    6DG     C17  132   1.017   4.864   3.816 -0.3519  0.0708  0.2783
    6DG     C18  133   1.006   4.900   3.585  0.9588 -0.2642 -0.0426
    6DG     O19  134   1.011   4.962   3.715 -0.0358 -0.5141  0.1250
    6DG     H20  135   0.931   4.799   3.799  0.3223 -0.4349 -1.5514
    6DG     H21  136   1.093   4.791   3.788 -2.6953 -2.4953  0.1817
    6DG     H22  137   0.907   4.862   3.559  0.3195  0.7829  0.7734
    6DG     H23  138   1.069   4.812   3.581 -1.8171 -2.4404  1.1074
    7DG      C1  139   1.680   0.901   1.984  0.4602  0.3287  0.9081
    7DG      C2  140   1.822   1.108   1.325  0.0670 -0.0918  0.1531
    7DG      H3  141   1.706   0.803   2.023 -1.5781 -0.8313 -0.4908
    7DG      H4  142   1.598   0.890   1.914  0.0461 -0.2435  1.4811
    7DG      H5  143   1.643   0.961   2.067  0.1313  0.4379  0.6825
    7DG      H6  144   1.751   1.130   1.245  0.1170  1.1666  0.4342
    7DG      H7  145   1.877   1.197   1.356 -1.8360  0.6149  1.6366
    7DG      H8  146   1.892   1.031   1.293 -0.3391 -0.6472  0.5945
    7DG      O9  147   1.787   0.964   1.912  0.0628 -0.0647 -0.3895
    7DG     O10  148   1.759   1.064   1.440 -0.2159  0.4000 -0.1088
    7DG     C11  149   1.849   0.884   1.816 -0.0117  0.3265 -0.2373
    7DG     C12  150   1.677   0.949   1.415  0.6207  0.3550 -0.2544
    7DG     H13  151   1.907   0.808   1.868  0.4359  0.7549 -0.1003
    7DG     H14  152   1.928   0.936   1.761  1.0853 -1.5107 -0.4709
    7DG     H15  153   1.744   0.865   1.393  1.7547  1.2608 -0.3326
    7DG     H16  154   1.615   0.961   1.325 -1.6925 -0.9233  1.0727
    7DG     C17  155   1.750   0.833   1.701 -0.2605 -0.3893 -0.8884
    7DG     C18  156   1.596   0.904   1.539 -0.0819 -0.1919  0.0122
    7DG     O19  157   1.656   0.935   1.661  0.1611  0.3387 -0.6737
    7DG     H20  158   1.712   0.736   1.733  1.3542 -1.0112 -0.7358
    7DG     H21  159   1.805   0.807   1.610 -2.6651  1.4377 -3.0213
    7DG     H22  160   1.517   0.980   1.539 -0.0300 -0.0966 -1.6519
    7DG     H23  161   1.567   0.801   1.519 -0.1718 -0.1692  0.0234
    8DG      C1  162   5.050   0.015   3.484  0.0857 -0.3873 -0.2394
    8DG      C2  163   4.524   0.394   3.726 -0.1854 -0.1212 -0.5673
    8DG      H3  164   5.038   0.022   3.376 -0.5183  0.2256 -0.1421
    8DG      H4  165   5.007  -0.077   3.522  0.2359  0.1195  1.2438
    8DG      H5  166   5.157  -0.001   3.496 -0.3942 -2.5656  1.9497
    8DG      H6  167   4.488   0.387   3.623  0.8758 -1.1546 -0.8893
    8DG      H7  168   4.485   0.307   3.778 -1.4388 -0.4289 -1.9693
    8DG      H8  169   4.479   0.486   3.762 -0.8509 -0.6634  0.0046
    8DG      O9  170   4.993   0.126   3.555 -0.0277  0.0016  0.2308
    8DG     O10  171   4.667   0.394   3.736 -0.2371  0.2897  0.3060
    8DG     C11  172   5.062   0.169   3.666  0.0082 -0.0742  0.9752
    8DG     C12  173   4.727   0.506   3.689 -0.3652 -0.1453  0.2549
    8DG     H13  174   5.160   0.204   3.633 -0.1178 -1.2520 -0.7971
    8DG     H14  175   5.086   0.077   3.720  0.5946 -0.5089  0.0095
    8DG     H15  176   4.684   0.592   3.741 -0.6562  0.0513 -0.2938
    8DG     H16  177   4.700   0.509   3.583  1.8266  1.5432 -0.3343
    8DG     C17  178   4.978   0.276   3.741 -0.4981 -0.5079 -0.7485
    8DG     C18  179   4.879   0.494   3.719  0.2105 -0.4812 -0.5753
    8DG     O19  180   4.920   0.377   3.649 -0.1578  0.6441 -0.6785
    8DG     H20  181   5.050   0.319   3.811  0.9400 -3.5649 -0.1692
    8DG     H21  182   4.902   0.233   3.806 -1.3004  0.2200 -1.1762
    8DG     H22  183   4.929   0.582   3.679 -0.2784 -0.0392 -0.2353
    8DG     H23  184   4.892   0.482   3.827 -1.1177  1.5616 -0.1425
    9DG      C1  185   2.046   5.330   2.888  0.0335 -0.5235  0.5276
    9DG      C2  186   2.029   5.013   3.459 -0.3527 -0.2099 -0.3330
    9DG      H3  187   2.099   5.356   2.797 -0.2097 -0.7804  0.3140
    9DG      H4  188   1.975   5.409   2.913  2.1143  1.9235 -0.8521
    9DG      H5  189   1.992   5.239   2.863  1.1223 -0.9979 -0.1532
    9DG      H6  190   1.961   4.957   3.395  1.8766 -2.4297 -0.8846
    9DG      H7  191   2.059   4.943   3.537  0.3075  1.3426  0.8564
    9DG      H8  192   1.964   5.089   3.502 -0.2512 -1.3777  2.0042
    9DG      O9  193   2.136   5.307   2.993  0.5738 -0.2546  0.2652
    9DG     O10  194   2.144   5.069   3.404 -0.4265 -0.1832 -0.1824
    9DG     C11  195   2.193   5.423   3.058  0.5960  0.2966  0.0709
    9DG     C12  196   2.214   5.174   3.467  0.1432 -0.0297  0.1792
    9DG     H13  197   2.107   5.487   3.078  2.0695  1.7143  2.2677
    9DG     H14  198   2.263   5.470   2.989  0.8117  3.0556  2.0037
    9DG     H15  199   2.284   5.135   3.540 -0.5190 -1.1041  0.2503
    9DG     H16  200   2.140   5.246   3.502  0.5786  1.0128 -0.9759
    9DG     C17  201   2.278   5.388   3.184  0.0409  0.2340 -0.1484
    9DG     C18  202   2.302   5.242   3.370  1.0168  0.5224  0.6169
    9DG     O19  203   2.212   5.289   3.262  0.3518 -0.2189  0.1577
    9DG     H20  204   2.313   5.478   3.235 -0.4804  1.0009 -1.0922
    9DG     H21  205   2.367   5.338   3.145  0.0869  0.6699 -0.6286
    9DG     H22  206   2.343   5.327   3.425 -0.6521  0.4261  2.0923
    9DG     H23  207   2.384   5.194   3.317 -0.3308  1.6663 -2.8085
   10DG      C1  208   4.740   0.809   4.091  0.1209 -0.5717  0.3757
   10DG      C2  209   4.585   0.371   4.603  0.1606 -0.0055  0.1629
   10DG      H3  210   4.757   0.872   4.178  0.4210 -0.8241  0.5017
   10DG      H4  211   4.675   0.860   4.020 -1.8619 -0.3825  2.2291
   10DG      H5  212   4.839   0.788   4.049  1.5965  1.9838  2.2622
   10DG      H6  213   4.583   0.459   4.667 -0.5682 -0.2893  0.5358
   10DG      H7  214   4.520   0.295   4.646 -1.1771  0.2248 -1.3524
   10DG      H8  215   4.688   0.336   4.592  0.4331  1.3673 -2.8403
   10DG      O9  216   4.679   0.693   4.139  0.8922 -0.7236 -0.2600
   10DG     O10  217   4.543   0.387   4.471  0.4237 -0.0373 -0.3200
   10DG     C11  218   4.656   0.592   4.045 -0.5013  0.1379  0.2083
   10DG     C12  219   4.550   0.274   4.392  0.0837 -0.1227  0.4474
   10DG     H13  220   4.749   0.545   4.014 -0.1590 -1.0855  2.7751
   10DG     H14  221   4.613   0.638   3.956  0.3475 -0.7890 -0.6994
   10DG     H15  222   4.476   0.205   4.432  0.3069 -2.2723 -2.4994
   10DG     H16  223   4.652   0.236   4.396 -0.4292 -1.4842  1.0578
   10DG     C17  224   4.565   0.478   4.093 -0.1912 -0.0622  0.1744
   10DG     C18  225   4.514   0.321   4.251  1.0659 -0.0889 -0.7798
   10DG     O19  226   4.610   0.423   4.217  0.4277 -0.6993  0.1018
   10DG     H20  227   4.578   0.396   4.022 -0.1524 -1.8147  2.1062
   10DG     H21  228   4.459   0.505   4.091 -0.7636 -2.1687 -1.5288
   10DG     H22  229   4.508   0.244   4.174 -0.6707  0.9265 -1.7242
   10DG     H23  230   4.412   0.359   4.249  0.1561 -2.3883 -0.6293
   11DG      C1  231   3.929   2.770   3.114 -0.2322 -0.0383 -0.0636
   11DG      C2  232   3.246   2.763   2.946 -0.1532 -0.2444  0.0745
   11DG      H3  233   4.028   2.743   3.076  0.5648  1.0435  1.1148
   11DG      H4  234   3.926   2.728   3.215 -2.6858  0.3432  0.0642
   11DG      H5  235   3.922   2.879   3.119  2.6493  0.1936  0.8174
   11DG      H6  236   3.204   2.758   3.046 -0.3666  1.8947  0.1496
   11DG      H7  237   3.258   2.871   2.934  0.4833 -0.3163  0.0633
   11DG      H8  238   3.174   2.731   2.870  1.2942 -0.7197 -1.1574
   11DG      O9  239   3.824   2.711   3.047  0.3260  0.7347 -0.2511
   11DG     O10  240   3.375   2.698   2.934  0.4404 -0.0878  0.3375
   11DG     C11  241   3.837   2.567   3.041 -0.4054 -0.5450  0.2909
   11DG     C12  242   3.374   2.561   2.977 -0.4092 -0.5487 -0.5869
   11DG     H13  243   3.806   2.528   3.138  0.8538 -0.7902  0.6048
   11DG     H14  244   3.937   2.535   3.012 -0.3631 -1.1911  1.1275
   11DG     H15  245   3.288   2.510   2.933 -0.6153 -0.0862 -0.7174
   11DG     H16  246   3.357   2.559   3.084  1.9581 -0.2316 -0.1467
   11DG     C17  247   3.739   2.506   2.945  0.2360 -0.0234  0.0105
   11DG     C18  248   3.499   2.480   2.933  0.1337 -0.2360 -0.5155
   11DG     O19  249   3.614   2.562   2.957 -0.4273 -0.2104  0.1903
   11DG     H20  250   3.748   2.398   2.952  3.9287  0.1536  0.0576
   11DG     H21  251   3.778   2.519   2.844  0.5246 -2.2306 -0.2182
   11DG     H22  252   3.501   2.385   2.986  1.0211  0.2088  0.2768
   11DG     H23  253   3.505   2.459   2.826  0.7022  1.9060 -0.9612
   12DG      C1  254   3.897   0.372   3.177 -0.0402 -0.3494  0.1581
   12DG      C2  255   3.579   0.071   3.677 -0.5242 -0.0110  0.0028
   12DG      H3  256   3.922   0.477   3.192 -1.9840  0.3250 -0.9440
   12DG      H4  257   3.928   0.347   3.075  1.6070  1.1356  0.2449
   12DG      H5  258   3.964   0.312   3.238  0.9986  0.8803  0.2752
   12DG      H6  259   3.489   0.034   3.725 -0.7004  1.5925  0.9872
   12DG      H7  260   3.627  -0.013   3.627  1.1571  1.6500 -1.2932
   12DG      H8  261   3.651   0.118   3.744  1.0277 -0.3819 -1.3431
   12DG      O9  262   3.762   0.327   3.204 -0.4259 -0.6439  0.2905
   12DG     O10  263   3.548   0.166   3.573 -0.2288 -0.4415 -0.4082
   12DG     C11  264   3.660   0.416   3.198 -0.2600  0.7874 -0.4639
   12DG     C12  265   3.434   0.128   3.489 -0.1610 -0.5558 -0.1365
   12DG     H13  266   3.667   0.449   3.095 -0.2066  0.7471 -0.4732
   12DG     H14  267   3.666   0.496   3.271 -1.8326  0.4436  0.0812
   12DG     H15  268   3.346   0.124   3.553  0.5426 -0.4960  0.8543
   12DG     H16  269   3.445   0.034   3.434 -3.5735 -2.1559  1.6061
   12DG     C17  270   3.524   0.349   3.218 -0.5073 -0.3511  0.0198
   12DG     C18  271   3.413   0.249   3.394 -0.7353 -0.4830 -0.5741
   12DG     O19  272   3.541   0.266   3.330  0.0486  0.3877 -0.0386
   12DG     H20  273   3.486   0.296   3.131 -1.7544  0.4492  0.0598
   12DG     H21  274   3.447   0.422   3.242 -0.2354 -0.2840  0.7201
   12DG     H22  275   3.333   0.211   3.330 -2.3617 -2.2673  2.3118
   12DG     H23  276   3.381   0.342   3.441  0.5743 -1.0358  1.5766
   13DG      C1  277   3.670   0.844   0.972  0.1565  0.2998  0.2033
   13DG      C2  278   3.567   1.581   0.738  0.2552  0.5951 -0.3680
   13DG      H3  279   3.760   0.790   1.003 -0.3590  0.1018  1.4221
   13DG      H4  280   3.617   0.781   0.900  0.3546  2.8217 -2.3216
   13DG      H5  281   3.599   0.869   1.051 -1.9339 -1.8243 -0.8899
   13DG      H6  282   3.648   1.653   0.732  0.2361  0.8555  1.7658
   13DG      H7  283   3.504   1.593   0.650 -0.9687 -1.3864  0.1602
   13DG      H8  284   3.507   1.621   0.820 -1.4494 -0.3859 -1.0635
   13DG      O9  285   3.709   0.966   0.905 -0.5971  0.7514  0.2548
   13DG     O10  286   3.616   1.451   0.757 -0.0022 -0.0517 -0.6343
   13DG     C11  287   3.795   1.058   0.981  0.2917  0.2144 -0.3492
   13DG     C12  288   3.679   1.389   0.639  0.9058 -0.3064 -0.1118
   13DG     H13  289   3.879   1.004   1.024 -0.2654  1.0982  1.9726
   13DG     H14  290   3.742   1.106   1.063  0.5700  2.6803 -1.5182
   13DG     H15  291   3.728   1.467   0.581  1.5717 -0.1384  0.6563
   13DG     H16  292   3.591   1.343   0.593  0.0278 -0.3689  1.5172
   13DG     C17  293   3.851   1.151   0.868  0.2451 -0.3858  0.4720
   13DG     C18  294   3.784   1.301   0.694 -0.2238  0.6973  0.5823
   13DG     O19  295   3.745   1.234   0.816 -0.4534  0.2486  0.0566
   13DG     H20  296   3.907   1.087   0.799  1.1392  1.1764 -0.3018
   13DG     H21  297   3.925   1.207   0.926  0.0727  1.6457 -1.1367
   13DG     H22  298   3.829   1.242   0.614  1.8814  2.0362  0.7003
   13DG     H23  299   3.868   1.356   0.735 -0.5294  1.1608  0.5900
   14DG      C1  300   0.432   5.009   3.398  0.2603  0.3364 -0.2772
   14DG      C2  301   0.152   5.258   3.992  0.0614  0.2309  0.0717
   14DG      H3  302   0.526   4.991   3.449 -1.2587 -0.3331  2.5396
   14DG      H4  303   0.418   5.110   3.360  1.3733  0.8454  0.6094
   14DG      H5  304   0.422   4.929   3.326  1.4072  0.7113 -0.8738
   14DG      H6  305   0.155   5.357   3.947  0.5527  0.3667  0.4010
   14DG      H7  306   0.084   5.276   4.075  1.0618  0.7115  0.8040
   14DG      H8  307   0.251   5.243   4.035  0.8003  1.9002 -0.9733
   14DG      O9  308   0.331   5.000   3.503  0.3473  0.3237 -0.4316
   14DG     O10  309   0.116   5.171   3.882 -0.4583 -0.1200 -0.0231
   14DG     C11  310   0.309   4.867   3.558  0.0164 -0.0990 -0.1612
   14DG     C12  311   0.074   5.048   3.926  0.2928  0.2408 -0.3366
   14DG     H13  312   0.390   4.852   3.629 -1.0155  2.6689  1.7846
   14DG     H14  313   0.308   4.795   3.476  0.7516 -3.1969  2.3778
   14DG     H15  314  -0.021   5.046   3.981 -0.3215 -0.0402 -1.3829
   14DG     H16  315   0.151   5.012   3.995 -0.9116 -0.8632  0.4966
   14DG     C17  316   0.168   4.859   3.625  0.4461  0.2665 -0.4582
   14DG     C18  317   0.063   4.950   3.810 -0.1972  0.0301  0.5072
   14DG     O19  318   0.171   4.961   3.722 -0.1057 -0.0302 -0.8543
   14DG     H20  319   0.163   4.757   3.663  0.8859 -0.1907 -1.5776
   14DG     H21  320   0.083   4.862   3.556 -1.8080 -1.7180  2.0105
   14DG     H22  321   0.043   4.846   3.838 -0.7190  0.0943  0.3692
   14DG     H23  322  -0.016   4.995   3.750  1.5712  1.2054 -1.0898
   15DG      C1  323   2.096   3.652   0.538  0.0151  0.2152  0.2747
   15DG      C2  324   1.510   3.161   0.421 -0.2655  0.1370  0.1798
   15DG      H3  325   2.096   3.723   0.456 -1.9410  0.8980  0.8166
   15DG      H4  326   2.155   3.564   0.511  1.6561  1.3575 -0.0036
   15DG      H5  327   2.163   3.696   0.613  1.0766 -3.0742  1.4307
   15DG      H6  328   1.434   3.212   0.362 -0.6640 -0.8073 -0.1453
   15DG      H7  329   1.581   3.124   0.348  0.2888  0.5609  0.4968
   15DG      H8  330   1.463   3.073   0.467 -1.9768  0.3329 -1.1101
   15DG      O9  331   1.973   3.617   0.589  0.3734  0.2155 -0.1151
   15DG     O10  332   1.589   3.237   0.514  0.4432  0.4390  0.2323
   15DG     C11  333   1.901   3.543   0.490 -0.8214  0.2606  0.1086
   15DG     C12  334   1.688   3.157   0.569  0.0346  0.0055  0.5220
   15DG     H13  335   1.964   3.481   0.426  1.7766  1.5091  1.2995
   15DG     H14  336   1.858   3.612   0.418 -1.7520 -0.1316  0.2750
   15DG     H15  337   1.753   3.123   0.489 -1.0092  0.7808 -0.6908
   15DG     H16  338   1.643   3.069   0.616 -1.1929 -0.0261 -0.6690
   15DG     C17  339   1.800   3.449   0.552 -0.3887 -0.1283  1.1529
   15DG     C18  340   1.771   3.239   0.668 -0.5064  0.3230  0.5874
   15DG     O19  341   1.862   3.329   0.592 -0.0450  0.2512 -0.0236
   15DG     H20  342   1.731   3.429   0.469 -0.4837  2.0597  0.6398
   15DG     H21  343   1.741   3.498   0.630  0.2250 -0.4015  1.7985
   15DG     H22  344   1.706   3.286   0.743 -1.6471  0.0638 -0.2203
   15DG     H23  345   1.828   3.174   0.734  1.7005 -1.0905 -2.4546
   16DG      C1  346   2.517   1.327   3.617  0.5791 -0.0641 -0.3766
   16DG      C2  347   3.125   1.660   3.811  0.0090 -0.4065 -0.0169
   16DG      H3  348   2.464   1.254   3.556  0.9151  1.1650 -2.2543
   16DG      H4  349   2.500   1.426   3.575  0.2041 -0.0919 -0.2890
   16DG      H5  350   2.475   1.323   3.717 -1.5303 -0.4372 -1.2363
   16DG      H6  351   3.147   1.742   3.743 -1.0144  2.0327  2.3995
   16DG      H7  352   3.056   1.679   3.893  0.2817 -2.6677  0.7824
   16DG      H8  353   3.215   1.633   3.866  0.9019  0.4778 -0.9980
   16DG      O9  354   2.658   1.305   3.618 -0.1775  0.3220 -0.2052
   16DG     O10  355   3.066   1.547   3.744 -0.1930 -0.0429  0.5560
   16DG     C11  356   2.708   1.313   3.490 -0.8570  0.2660  0.9202
   16DG     C12  357   3.141   1.506   3.626 -0.7102 -1.1218 -0.5931
   16DG     H13  358   2.694   1.397   3.423  1.5158 -1.1079 -1.5004
   16DG     H14  359   2.670   1.230   3.430 -2.3372  0.2876  1.7930
   16DG     H15  360   3.240   1.478   3.663 -1.2627 -2.0471  0.2406
   16DG     H16  361   3.151   1.573   3.541  0.7159  0.5583  0.8204
   16DG     C17  362   2.861   1.290   3.499 -0.1548 -0.5555  0.2602
   16DG     C18  363   3.067   1.378   3.591  0.3910  0.4721  0.2141
   16DG     O19  364   2.929   1.399   3.564  0.1623 -0.7283 -0.4833
   16DG     H20  365   2.904   1.294   3.399  0.1824 -1.3017  0.3668
   16DG     H21  366   2.890   1.193   3.540  1.7369  0.2626  0.9640
   16DG     H22  367   3.109   1.326   3.505 -0.7422  0.1624 -0.1712
   16DG     H23  368   3.078   1.303   3.669 -0.6448 -0.8122 -0.8276
   17DG      C1  369   2.922   4.671   2.490 -0.1848 -0.5932  0.1059
   17DG      C2  370   3.417   4.247   2.790 -0.0351  0.1745  0.4356
   17DG      H3  371   2.820   4.678   2.453 -0.6262  1.9682  1.5581
   17DG      H4  372   2.982   4.637   2.405 -1.2253  1.2136 -1.4193
   17DG      H5  373   2.969   4.768   2.507  1.3777 -1.3093  0.1103
   17DG      H6  374   3.455   4.200   2.881  0.9276  0.1686  0.0418
   17DG      H7  375   3.404   4.158   2.727 -1.1197 -0.3574  1.3789
   17DG      H8  376   3.495   4.299   2.733 -0.3765  0.2295  0.0102
   17DG      O9  377   2.938   4.569   2.591 -0.2405 -0.2977  0.1969
   17DG     O10  378   3.296   4.317   2.806  0.0043  0.9133 -0.1210
   17DG     C11  379   2.900   4.620   2.714 -0.4067  0.3227 -0.2189
   17DG     C12  380   3.292   4.433   2.879  0.5872 -0.1295  0.2896
   17DG     H13  381   2.793   4.634   2.701 -0.5437 -1.2670 -0.9578
   17DG     H14  382   2.950   4.715   2.730 -1.1400  0.2764  3.0656
   17DG     H15  383   3.343   4.509   2.819  0.2841  1.1848  1.6510
   17DG     H16  384   3.363   4.417   2.961  2.4943  0.7862 -1.0858
   17DG     C17  385   2.938   4.526   2.827 -0.0820  0.0898 -0.0423
   17DG     C18  386   3.152   4.465   2.928 -0.2919 -0.8604  0.9573
   17DG     O19  387   3.078   4.509   2.814 -0.1754  0.2486 -0.0797
   17DG     H20  388   2.895   4.427   2.808 -1.3748  0.3773  1.1547
   17DG     H21  389   2.894   4.560   2.921 -1.3869 -0.6041 -0.3798
   17DG     H22  390   3.095   4.379   2.962  1.2105 -1.3991  2.1881
   17DG     H23  391   3.149   4.543   3.004 -1.6924 -1.9280  2.0503
   18DG      C1  392   2.276   1.214   0.595 -0.4097  0.1715 -0.1832
   18DG      C2  393   1.923   1.441   1.083  0.7224 -0.4353 -0.0703
   18DG      H3  394   2.262   1.122   0.539 -0.3153  1.5363 -2.6194
   18DG      H4  395   2.382   1.239   0.591 -0.7826  2.1514  0.6853
   18DG      H5  396   2.208   1.288   0.553  1.0723  1.0067 -1.2346
   18DG      H6  397   1.896   1.491   1.175 -1.9614  1.4951 -1.7673
   18DG      H7  398   1.870   1.491   1.002 -0.9163 -0.4551  0.9461
   18DG      H8  399   1.874   1.343   1.086  2.0070 -1.0896  1.9628
   18DG      O9  400   2.247   1.200   0.729 -0.2562  0.2563  0.4610
   18DG     O10  401   2.064   1.434   1.066  0.2418  0.5880 -0.5437
   18DG     C11  402   2.318   1.098   0.795 -0.5570 -0.5351 -0.0547
   18DG     C12  403   2.123   1.343   1.163  0.5975 -0.3817 -0.6335
   18DG     H13  404   2.420   1.133   0.811 -0.7104 -0.1304  0.0395
   18DG     H14  405   2.314   1.010   0.731 -1.7452  0.4422 -1.3892
   18DG     H15  406   2.065   1.339   1.255  0.4513 -1.5664 -0.7553
   18DG     H16  407   2.224   1.370   1.192  0.1661 -0.4436  1.0410
   18DG     C17  408   2.244   1.081   0.927  0.4034 -0.2409  0.6029
   18DG     C18  409   2.133   1.199   1.114 -0.1987 -0.6064  0.2536
   18DG     O19  410   2.218   1.205   0.997 -0.6141  0.7099  0.0466
   18DG     H20  411   2.288   1.007   0.993  0.7215  0.9512  1.7678
   18DG     H21  412   2.148   1.041   0.896  0.1194  1.2481 -0.5496
   18DG     H22  413   2.184   1.149   1.195  0.9472 -0.0051 -0.0816
   18DG     H23  414   2.032   1.157   1.108 -0.6727  0.0345  2.7079
   19DG      C1  415   0.776   4.771   1.850 -0.0491  0.4911 -0.1041
   19DG      C2  416   0.867   4.725   1.146  0.4193 -0.2947 -0.3580
   19DG      H3  417   0.821   4.678   1.885 -1.2684 -0.1675 -0.2532
   19DG      H4  418   0.669   4.754   1.846  0.1983 -0.9954 -1.3694
   19DG      H5  419   0.792   4.846   1.927 -1.0193  0.6682 -0.0716
   19DG      H6  420   0.943   4.704   1.071  1.6485 -1.2883  1.1232
   19DG      H7  421   0.807   4.638   1.173 -1.2514  1.3154  1.3995
   19DG      H8  422   0.794   4.797   1.109 -0.9094 -1.7677 -0.7306
   19DG      O9  423   0.832   4.819   1.729  0.1486 -0.0360 -0.0884
   19DG     O10  424   0.933   4.755   1.270  0.3571 -0.3927  0.6125
   19DG     C11  425   0.971   4.814   1.743 -0.2191  0.2830  0.7001
   19DG     C12  426   1.008   4.872   1.256 -0.7368  0.1676 -0.5719
   19DG     H13  427   1.016   4.714   1.752  2.3261  1.3380  0.6253
   19DG     H14  428   0.999   4.871   1.832  0.1585 -0.3572  1.0035
   19DG     H15  429   0.942   4.945   1.211 -1.4888 -0.6670 -0.8422
   19DG     H16  430   1.094   4.846   1.195  0.2997 -0.1467  0.9403
   19DG     C17  431   1.035   4.898   1.626  0.1804  0.0767  0.4286
   19DG     C18  432   1.072   4.911   1.389  0.5063  0.1939 -0.3673
   19DG     O19  433   0.981   4.876   1.495 -0.2798  0.4584 -0.2580
   19DG     H20  434   1.140   4.875   1.608  0.2650 -0.6204  1.6547
   19DG     H21  435   1.037   5.006   1.639 -0.7585 -0.0519  2.0187
   19DG     H22  436   1.168   4.860   1.393  0.0399 -0.6317  1.7347
   19DG     H23  437   1.080   5.020   1.396 -0.9908  0.2684  0.7674
   20DG      C1  438   3.848   0.016   1.391  0.1224 -0.0232 -0.6198
   20DG      C2  439   3.884  -0.611   1.107  0.3167  0.5078  0.5608
   20DG      H3  440   3.920  -0.034   1.455 -0.3268  0.7239  0.5015
   20DG      H4  441   3.754   0.010   1.445  0.8081  0.3384  0.6538
   20DG      H5  442   3.881   0.119   1.377  0.4169  0.1952  1.4377
   20DG      H6  443   3.969  -0.646   1.166  1.5302 -0.2601 -1.5315
   20DG      H7  444   3.792  -0.650   1.150  0.6086  2.0794  2.7912
   20DG      H8  445   3.894  -0.661   1.011  1.2618  0.9139  0.4356
   20DG      O9  446   3.838  -0.053   1.267 -0.0817 -0.6900 -0.2843
   20DG     O10  447   3.878  -0.469   1.085  0.1229 -0.1949 -0.7310
   20DG     C11  448   3.768   0.024   1.166  0.4623  0.1010 -0.3571
   20DG     C12  449   3.781  -0.433   0.986  0.8573 -0.1387  0.2281
   20DG     H13  450   3.816   0.121   1.149 -0.0694  0.0370 -2.4694
   20DG     H14  451   3.664   0.046   1.186  0.0504 -0.5550 -1.6878
   20DG     H15  452   3.680  -0.461   1.016  0.0936 -0.7313 -2.5992
   20DG     H16  453   3.799  -0.485   0.891  0.5094  1.0764 -0.5210
   20DG     C17  454   3.778  -0.049   1.037  0.4238  0.1995 -0.2482
   20DG     C18  455   3.798  -0.285   0.963 -0.5131  0.4884  0.7614
   20DG     O19  456   3.747  -0.191   1.062 -0.4718  0.1047  0.2784
   20DG     H20  457   3.883  -0.035   1.008  0.3708  0.5740 -0.2609
   20DG     H21  458   3.718   0.008   0.965  0.2734  1.3315  0.7371
   20DG     H22  459   3.907  -0.278   0.974 -0.4044 -1.4448  1.2284
   20DG     H23  460   3.765  -0.259   0.863  2.1332 -2.0287 -0.9202
   21DG      C1  461   4.354   0.775   4.180  0.5927  0.3670 -0.1021
   21DG      C2  462   4.869   0.619   4.394  0.0739 -0.1018  0.1190
   21DG      H3  463   4.272   0.841   4.151  2.0719  1.3509 -2.3231
   21DG      H4  464   4.318   0.672   4.181  0.2631  0.4814  1.3699
   21DG      H5  465   4.416   0.799   4.094 -0.2196  2.0483 -0.2658
   21DG      H6  466   4.842   0.694   4.320 -0.5897  0.1953  0.6577
   21DG      H7  467   4.977   0.633   4.406  0.2856 -1.5835  0.2066
   21DG      H8  468   4.854   0.518   4.356  2.1936 -0.7599  0.8582
   21DG      O9  469   4.420   0.802   4.307 -0.3222 -0.1616 -0.0416
   21DG     O10  470   4.815   0.626   4.524 -0.9531 -0.5299 -0.5916
   21DG     C11  471   4.463   0.936   4.328 -0.4442 -0.1612  0.3346
   21DG     C12  472   4.838   0.746   4.602  0.0125 -0.2660 -0.3063
   21DG     H13  473   4.387   1.014   4.329  0.7626  1.1554  3.3439
   21DG     H14  474   4.536   0.965   4.252 -0.0871 -1.6078  0.0880
   21DG     H15  475   4.941   0.781   4.598  0.0390  0.5664  3.5190
   21DG     H16  476   4.824   0.711   4.704 -0.0960  2.0321  0.5382
   21DG     C17  477   4.536   0.940   4.462  0.0707 -0.5637  0.2410
   21DG     C18  478   4.742   0.865   4.569  0.2827 -1.1555 -0.6854
   21DG     O19  479   4.628   0.838   4.482  0.0884 -0.1305 -0.0704
   21DG     H20  480   4.455   0.918   4.532 -0.8940 -0.8230 -0.9365
   21DG     H21  481   4.578   1.041   4.468  1.9129 -1.2866  0.1663
   21DG     H22  482   4.717   0.909   4.666 -1.1315 -1.9863 -0.6403
   21DG     H23  483   4.795   0.941   4.511 -0.6612  0.7868  0.8712
   22DG      C1  484   0.122   1.910   3.594 -0.5293 -1.1640 -0.4758
   22DG      C2  485  -0.391   2.293   3.224  0.1564  0.1466 -0.2541
   22DG      H3  486   0.102   1.981   3.675 -0.1997  0.6379 -1.9185
   22DG      H4  487   0.196   1.951   3.525 -0.5775 -0.1958  0.0318
   22DG      H5  488   0.151   1.811   3.628  0.8263 -0.0575  1.8277
   22DG      H6  489  -0.435   2.293   3.124  1.9722  0.6198 -1.1105
   22DG      H7  490  -0.457   2.320   3.306  2.4518  0.8623  1.4828
   22DG      H8  491  -0.323   2.379   3.219  1.3210 -0.5642  2.0286
   22DG      O9  492   0.021   1.898   3.500  0.2537 -0.4319  0.2582
   22DG     O10  493  -0.329   2.167   3.243  0.2740  0.0312  0.4024
   22DG     C11  494  -0.083   1.816   3.547  0.2625  0.2167 -0.8229
   22DG     C12  495  -0.412   2.081   3.311 -0.4534 -0.2854 -0.5294
   22DG     H13  496  -0.116   1.829   3.650  0.1818 -4.0689 -0.0942
   22DG     H14  497  -0.048   1.713   3.547  0.7567  0.3694 -2.0853
   22DG     H15  498  -0.514   2.084   3.271 -1.0779 -0.5301  0.9855
   22DG     H16  499  -0.424   2.134   3.405 -0.7491  1.2831 -1.4145
   22DG     C17  500  -0.199   1.819   3.453  0.2163 -0.3581  0.0482
   22DG     C18  501  -0.363   1.939   3.329 -0.0497  0.1170  0.4677
   22DG     O19  502  -0.232   1.936   3.391 -0.3001 -0.4478  0.0234
   22DG     H20  503  -0.284   1.792   3.515  1.6209  0.6733  2.5558
   22DG     H21  504  -0.195   1.735   3.383 -0.1057 -0.1142 -0.2682
   22DG     H22  505  -0.430   1.873   3.385 -2.4704  1.7661 -0.3897
   22DG     H23  506  -0.353   1.894   3.230 -0.3204  2.1535 -0.5189
   23DG      C1  507   0.677   2.562   3.867  0.7469  0.1788 -0.1322
   23DG      C2  508   0.418   2.531   4.564 -0.3564  0.3519  0.0854
   23DG      H3  509   0.685   2.669   3.887 -2.9955  0.2125  2.2754
   23DG      H4  510   0.627   2.551   3.771  1.1539  0.1611 -0.3452
   23DG      H5  511   0.780   2.526   3.864  0.0173 -2.2435  0.7454
   23DG      H6  512   0.332   2.506   4.627 -0.3470 -2.6532 -0.9331
   23DG      H7  513   0.501   2.480   4.614 -2.3415 -1.8014  1.3807
   23DG      H8  514   0.440   2.638   4.573 -2.6778  0.8401  0.7558
   23DG      O9  515   0.607   2.521   3.985  0.4852  0.6746 -0.2912
   23DG     O10  516   0.396   2.494   4.425 -0.5087  0.4801  0.2106
   23DG     C11  517   0.586   2.379   3.976 -0.1933  0.7013 -0.1112
   23DG     C12  518   0.403   2.346   4.405  0.3563  0.0168 -0.5393
   23DG     H13  519   0.680   2.328   3.996 -0.2284  1.1340  1.2592
   23DG     H14  520   0.558   2.352   3.874 -1.5689  0.2963  0.3503
   23DG     H15  521   0.336   2.295   4.474 -0.1820  0.1074 -0.9895
   23DG     H16  522   0.502   2.314   4.440  0.1623  0.4245  0.4381
   23DG     C17  523   0.476   2.320   4.062 -0.4909 -0.3781 -0.2649
   23DG     C18  524   0.370   2.307   4.265  0.6855  0.7319  0.2229
   23DG     O19  525   0.480   2.362   4.195  0.2089  0.2092 -0.5943
   23DG     H20  526   0.473   2.212   4.046 -0.6165 -0.8448  2.5067
   23DG     H21  527   0.379   2.358   4.029 -1.0479  0.9146  2.6142
   23DG     H22  528   0.373   2.199   4.249  0.4563  1.0530 -2.5501
   23DG     H23  529   0.276   2.351   4.233 -0.3568 -1.6042 -0.1117
   24DG      C1  530   3.691   0.819   3.239  0.0975 -0.2679 -0.3597
   24DG      C2  531   3.715   1.327   2.710 -0.2587 -0.1993 -0.2731
   24DG      H3  532   3.739   0.884   3.312 -0.2929 -1.6889  1.2339
   24DG      H4  533   3.765   0.761   3.184  1.7220  0.3730  1.0554
   24DG      H5  534   3.625   0.748   3.290  1.0003 -0.1208  1.0766
   24DG      H6  535   3.748   1.335   2.607 -0.9437  1.9653 -0.3700
   24DG      H7  536   3.619   1.374   2.733 -0.9391  0.0809 -3.3383
   24DG      H8  537   3.785   1.381   2.773 -1.0756  0.8715 -0.2510
   24DG      O9  538   3.617   0.908   3.148 -0.2487 -0.4835  0.7197
   24DG     O10  539   3.691   1.194   2.772  0.7497 -0.3229  0.1526
   24DG     C11  540   3.517   0.829   3.078  0.1426  0.1792 -0.5219
   24DG     C12  541   3.625   1.099   2.691  0.0483 -0.2562 -0.0841
   24DG     H13  542   3.423   0.884   3.078  0.4208  0.6932  0.9715
   24DG     H14  543   3.498   0.725   3.103  0.4540 -0.5309 -2.9225
   24DG     H15  544   3.675   1.103   2.594 -0.9711 -0.2584 -0.6289
   24DG     H16  545   3.521   1.132   2.685  0.3546  0.6775 -0.3821
   24DG     C17  546   3.561   0.833   2.935 -0.0282  0.0283 -0.1147
   24DG     C18  547   3.636   0.961   2.751  0.0869 -0.4498 -0.0683
   24DG     O19  548   3.586   0.964   2.885  0.4699 -0.7065 -0.3421
   24DG     H20  549   3.483   0.793   2.870  1.0115 -2.4620  0.0308
   24DG     H21  550   3.653   0.775   2.937  0.9822  1.5781  0.3621
   24DG     H22  551   3.593   0.885   2.686 -1.2438  0.2749 -0.0572
   24DG     H23  552   3.743   0.939   2.759  0.0587 -0.3063  0.7669
   25DG      C1  553   4.518   0.842   4.912 -0.1684  0.0920 -0.1988
   25DG      C2  554   5.112   0.744   5.204  0.1648 -0.1116  0.3231
   25DG      H3  555   4.446   0.834   4.993  0.7296  1.1626  0.7250
   25DG      H4  556   4.472   0.822   4.815  0.6316 -2.2832 -0.1685
   25DG      H5  557   4.576   0.934   4.916  1.1359 -0.6880 -0.3296
   25DG      H6  558   5.075   0.825   5.266 -3.2060  0.7512 -2.4575
   25DG      H7  559   5.188   0.679   5.246  0.9212 -1.9859 -3.4352
   25DG      H8  560   5.142   0.791   5.110  0.6072 -2.5551 -0.8454
   25DG      O9  561   4.611   0.749   4.947 -0.0284  1.0231  0.0242
   25DG     O10  562   5.001   0.659   5.177 -0.3123  0.1613  0.3083
   25DG     C11  563   4.564   0.614   4.966  0.9171 -0.2849  0.1578
   25DG     C12  564   5.027   0.549   5.086  0.7458  0.2782 -0.4634
   25DG     H13  565   4.485   0.578   4.900  1.0753  1.1154 -0.8452
   25DG     H14  566   4.518   0.605   5.065 -1.3345 -2.4635 -0.9792
   25DG     H15  567   5.103   0.483   5.128 -0.2726  0.3261  1.6030
   25DG     H16  568   5.060   0.596   4.993  1.9676  1.3809  0.4836
   25DG     C17  569   4.673   0.512   4.975 -0.9631 -0.4580  0.3963
   25DG     C18  570   4.895   0.468   5.069 -0.1615  0.4498 -0.1250
   25DG     O19  571   4.785   0.560   5.042  0.3729  0.0433 -0.1479
   25DG     H20  572   4.699   0.488   4.872  1.0289  0.2701  0.6884
   25DG     H21  573   4.644   0.423   5.029 -0.0285 -1.7570 -1.1564
   25DG     H22  574   4.915   0.390   4.996  0.6895  1.4048 -0.9530
   25DG     H23  575   4.875   0.427   5.168 -1.1029 -1.1284 -0.9348
   26DG      C1  576   4.334   1.124   3.378  0.3614  0.2159  0.6119
   26DG      C2  577   4.067   1.645   3.691 -0.6353  0.5412  0.2226
   26DG      H3  578   4.348   1.110   3.485  0.6928 -0.4692  0.4833
   26DG      H4  579   4.403   1.061   3.322 -0.2896  1.1893 -1.3667
   26DG      H5  580   4.236   1.095   3.340  0.4485  0.9790 -0.2329
   26DG      H6  581   3.969   1.605   3.664  0.3686 -1.4187 -0.7356
   26DG      H7  582   4.092   1.600   3.788  1.5349 -0.6463 -0.8132
   26DG      H8  583   4.064   1.753   3.700  0.5831  0.7430 -1.3615
   26DG      O9  584   4.350   1.262   3.350  0.3658  0.5380  0.1831
   26DG     O10  585   4.160   1.615   3.583  0.7232  0.0295 -0.5498
   26DG     C11  586   4.296   1.305   3.224 -0.1318  0.4612  0.5108
   26DG     C12  587   4.131   1.674   3.454 -0.0451  0.3542 -0.3629
   26DG     H13  588   4.194   1.270   3.208  0.0437 -0.5058  1.3996
   26DG     H14  589   4.355   1.295   3.133 -0.9255 -0.4300  0.0867
   26DG     H15  590   4.139   1.782   3.469 -1.2575  0.7016 -1.9644
   26DG     H16  591   4.031   1.643   3.424  1.0735 -2.8651 -1.1352
   26DG     C17  592   4.302   1.461   3.223 -0.5625  1.1117  0.1468
   26DG     C18  593   4.230   1.634   3.349  0.6259 -0.3012 -0.4585
   26DG     O19  594   4.219   1.500   3.333 -0.0852  0.0846  0.0226
   26DG     H20  595   4.275   1.503   3.126  0.3178 -0.0268 -0.6047
   26DG     H21  596   4.408   1.482   3.236 -0.6617  1.1333  0.9772
   26DG     H22  597   4.206   1.682   3.254  0.6934  1.7246  0.4915
   26DG     H23  598   4.327   1.668   3.386  0.4949 -0.7387  0.3233
   27DG      C1  599   4.152   2.192   3.902 -0.4534 -0.0015  0.1664
   27DG      C2  600   4.286   1.633   4.137  0.1557  0.4293  0.2780
   27DG      H3  601   4.136   2.278   3.838  0.9015  0.1834  0.0619
   27DG      H4  602   4.186   2.215   4.003  1.1740  2.8742 -0.9285
   27DG      H5  603   4.058   2.136   3.914  0.5210 -1.2622  2.7734
   27DG      H6  604   4.183   1.652   4.166 -0.3015  0.4427 -1.2825
   27DG      H7  605   4.284   1.528   4.107  0.5546  0.6367 -0.5215
   27DG      H8  606   4.352   1.651   4.222  2.4444  1.0286 -1.4957
   27DG      O9  607   4.260   2.108   3.863  0.0542  0.0224 -0.2697
   27DG     O10  608   4.300   1.714   4.023  0.5666  0.0552 -0.3218
   27DG     C11  609   4.278   2.066   3.728 -0.1210 -0.3164  0.9121
   27DG     C12  610   4.415   1.676   3.954  0.3442 -0.6641  0.0311
   27DG     H13  611   4.311   2.150   3.666 -0.5654  0.5949  1.8850
   27DG     H14  612   4.178   2.040   3.693 -1.5044  0.8736  3.6901
   27DG     H15  613   4.416   1.573   3.919 -1.3416 -0.1050 -1.8328
   27DG     H16  614   4.510   1.700   4.003  0.5710 -1.1536 -0.1587
   27DG     C17  615   4.381   1.954   3.723  0.0022 -0.0640  0.6297
   27DG     C18  616   4.422   1.751   3.816  0.4250 -0.3875 -0.0111
   27DG     O19  617   4.352   1.869   3.828 -0.5957  0.4792  0.4792
   27DG     H20  618   4.476   2.006   3.736 -0.9232  1.7893  0.3630
   27DG     H21  619   4.365   1.897   3.631 -0.0028 -1.7643  1.6457
   27DG     H22  620   4.521   1.761   3.772 -0.1654  0.2066 -1.2498
   27DG     H23  621   4.367   1.683   3.751 -1.6340  1.5870 -0.4696
   28DG      C1  622   2.418   1.574   0.959  0.0499 -0.1692  0.4077
   28DG      C2  623   1.933   1.201   0.690 -0.5419 -0.1727 -0.2718
   28DG      H3  624   2.461   1.673   0.974  0.7226 -0.1323 -1.5947
   28DG      H4  625   2.505   1.514   0.932  0.5979  0.5241  0.5705
   28DG      H5  626   2.377   1.533   1.052  0.4192 -0.3111  0.5099
   28DG      H6  627   1.998   1.185   0.604 -0.2905  3.0203 -0.8133
   28DG      H7  628   1.977   1.142   0.770  2.3262 -1.0890 -2.3486
   28DG      H8  629   1.837   1.156   0.663  0.3161 -0.8258 -2.4320
   28DG      O9  630   2.327   1.578   0.846 -0.2199  0.0496  0.1401
   28DG     O10  631   1.923   1.340   0.712 -0.7066 -0.4555  0.2040
   28DG     C11  632   2.249   1.701   0.840 -0.6041 -0.3120  0.0154
   28DG     C12  633   1.925   1.422   0.597  0.0872  0.3056 -0.7494
   28DG     H13  634   2.314   1.787   0.823 -1.7546  0.4942 -0.4356
   28DG     H14  635   2.188   1.706   0.930  0.8149 -1.8976  1.1364
   28DG     H15  636   1.827   1.409   0.551 -0.6083 -2.3345  1.2358
   28DG     H16  637   2.002   1.385   0.529 -0.8121  0.7680 -2.0692
   28DG     C17  638   2.152   1.695   0.716 -0.2695 -0.0035 -0.5450
   28DG     C18  639   1.966   1.571   0.645  0.4256  0.6064 -0.2622
   28DG     O19  640   2.078   1.570   0.729  0.5070  0.5168 -0.3305
   28DG     H20  641   2.213   1.716   0.628  1.2950  1.6287  0.8521
   28DG     H21  642   2.082   1.778   0.718  0.3269  0.5099 -0.3543
   28DG     H22  643   1.982   1.631   0.555  3.5838  1.5110  0.7798
   28DG     H23  644   1.878   1.602   0.701  0.0874  0.9237 -0.9585
   29DG      C1  645   3.273   1.090   4.489 -0.0073 -0.2405 -0.0024
   29DG      C2  646   3.406   1.532   4.074 -0.7897 -0.5075 -0.5634
   29DG      H3  647   3.232   1.169   4.552 -0.6432 -1.0093  0.5844
   29DG      H4  648   3.380   1.102   4.504 -0.0932 -0.1777  0.6301
   29DG      H5  649   3.238   1.003   4.546  0.2260  0.5590  1.3953
   29DG      H6  650   3.403   1.522   3.966 -2.3897  0.4785 -0.6455
   29DG      H7  651   3.389   1.640   4.075 -1.0863 -0.5351 -1.5999
   29DG      H8  652   3.507   1.504   4.106 -0.1367 -0.1881 -2.2365
   29DG      O9  653   3.227   1.105   4.356  0.5338 -0.0096  0.0619
   29DG     O10  654   3.307   1.453   4.139  0.1725  0.9757  0.7123
   29DG     C11  655   3.086   1.098   4.352  0.6472 -0.3133 -0.1420
   29DG     C12  656   3.169   1.490   4.123  0.2389  0.1348 -0.4601
   29DG     H13  657   3.040   1.156   4.432  1.3312 -0.4224  0.3411
   29DG     H14  658   3.046   0.996   4.354 -0.0489 -0.0976  3.2201
   29DG     H15  659   3.141   1.475   4.018 -0.1305 -1.5021 -0.1450
   29DG     H16  660   3.155   1.591   4.162  1.6456 -0.4676  1.7248
   29DG     C17  661   3.041   1.151   4.216 -0.3354  0.1606  0.5584
   29DG     C18  662   3.085   1.388   4.210  0.0571 -0.2055  0.2460
   29DG     O19  663   3.124   1.251   4.172 -0.0211 -0.2708  0.0489
   29DG     H20  664   2.934   1.170   4.203 -0.4131  0.4362  1.5377
   29DG     H21  665   3.065   1.066   4.152 -1.0480 -1.0730  1.8638
   29DG     H22  666   3.095   1.398   4.318  0.6895 -1.4096  0.3192
   29DG     H23  667   2.978   1.391   4.188  0.1707 -0.6672 -0.4107
   30DG      C1  668   0.347   2.235   0.101  0.0954 -0.5044 -0.2799
   30DG      C2  669   0.305   2.813  -0.122 -0.1281  0.3720  0.4663
   30DG      H3  670   0.440   2.188   0.133  0.3928 -1.2878 -2.1446
   30DG      H4  671   0.326   2.209  -0.002  1.8355  1.3860 -1.1700
   30DG      H5  672   0.257   2.204   0.155 -0.0147  0.1231 -0.0996
   30DG      H6  673   0.329   2.784  -0.224 -2.0802  0.3573 -0.0347
   30DG      H7  674   0.308   2.922  -0.126 -0.0800  0.3933  1.0284
   30DG      H8  675   0.380   2.772  -0.054  0.0357  3.7584  2.6183
   30DG      O9  676   0.327   2.375   0.103  0.0167 -0.2915  0.0856
   30DG     O10  677   0.180   2.753  -0.094 -0.3750 -0.2649  0.1046
   30DG     C11  678   0.345   2.423   0.230 -0.2780 -0.2878 -0.5622
   30DG     C12  679   0.114   2.787   0.028 -0.9516  0.0271 -0.2173
   30DG     H13  680   0.447   2.413   0.268 -0.5878  1.4501  0.8459
   30DG     H14  681   0.271   2.394   0.304  0.0068  2.6030  0.9902
   30DG     H15  682   0.021   2.733   0.049 -0.2252 -0.5944  1.5832
   30DG     H16  683   0.076   2.889   0.026 -1.0176  0.0353  1.0127
   30DG     C17  684   0.325   2.573   0.234  0.0527  0.2796 -0.0889
   30DG     C18  685   0.206   2.752   0.144 -0.1878 -0.2250  0.4423
   30DG     O19  686   0.220   2.617   0.150  0.2153  0.4952 -0.3882
   30DG     H20  687   0.411   2.620   0.186  0.6777  0.8713  1.5447
   30DG     H21  688   0.313   2.608   0.336 -0.8921  1.2426 -0.5090
   30DG     H22  689   0.301   2.806   0.134  0.4330 -1.2374  0.7480
   30DG     H23  690   0.157   2.788   0.235 -3.2212 -1.1051 -0.7315
   31DG      C1  691   2.360   4.781   0.861 -0.0170  0.5182 -0.3611
   31DG      C2  692   2.589   4.869   0.211 -0.1306 -0.5425  0.8554
   31DG      H3  693   2.296   4.699   0.828  0.2465 -0.5097  1.5084
   31DG      H4  694   2.418   4.742   0.945 -0.4714  1.1708  0.2614
   31DG      H5  695   2.432   4.797   0.781  1.0024 -2.2808 -0.1380
   31DG      H6  696   2.623   4.929   0.127 -1.5243 -0.2336  0.4915
   31DG      H7  697   2.678   4.821   0.253  0.6672  0.2661  0.1351
   31DG      H8  698   2.525   4.791   0.169 -0.4860 -0.1136  0.5967
   31DG      O9  699   2.291   4.899   0.890 -0.3347 -0.0142  0.3576
   31DG     O10  700   2.532   4.955   0.310  0.4333 -0.0784  0.7469
   31DG     C11  701   2.196   4.949   0.797 -0.1686 -0.0839 -0.7200
   31DG     C12  702   2.504   4.883   0.426  0.5651 -0.3661 -0.3087
   31DG     H13  703   2.134   5.027   0.842 -0.9305 -0.5318 -0.9607
   31DG     H14  704   2.127   4.872   0.761 -0.4439  0.7912 -2.1342
   31DG     H15  705   2.591   4.842   0.479  1.1123 -0.6499 -1.4090
   31DG     H16  706   2.436   4.799   0.411 -1.9255  1.3239  0.8431
   31DG     C17  707   2.259   5.011   0.672  0.2371  0.3329  0.0696
   31DG     C18  708   2.426   4.983   0.517 -0.2520 -0.9913 -0.5481
   31DG     O19  709   2.336   4.916   0.600 -0.6479  0.0990  0.0526
   31DG     H20  710   2.311   5.104   0.691  0.3374  0.4729 -0.8563
   31DG     H21  711   2.178   5.026   0.600  1.2859 -1.3875 -1.5915
   31DG     H22  712   2.489   5.057   0.565  0.4119 -2.1133  0.3643
   31DG     H23  713   2.357   5.044   0.459 -2.7340 -1.6377  1.5441
   32DG      C1  714   0.425   2.737   4.203  0.3476 -0.1024 -0.3975
   32DG      C2  715   0.804   2.265   4.408  0.2651 -0.3012  0.1535
   32DG      H3  716   0.381   2.667   4.132 -1.1181 -0.2634  0.6216
   32DG      H4  717   0.399   2.831   4.154  1.2568 -0.9214 -2.6085
   32DG      H5  718   0.358   2.723   4.288  0.8224 -2.6531 -0.3601
   32DG      H6  719   0.756   2.217   4.493  0.3473 -0.4005  0.1430
   32DG      H7  720   0.766   2.212   4.320  0.7398  2.1613 -1.6529
   32DG      H8  721   0.905   2.225   4.412 -0.0366 -1.1326 -0.2469
   32DG      O9  722   0.561   2.739   4.241  0.0106  0.2623 -0.4131
   32DG     O10  723   0.791   2.407   4.404 -0.6287 -0.5867  0.1845
   32DG     C11  724   0.596   2.833   4.340  0.1714 -0.5756 -0.2346
   32DG     C12  725   0.840   2.485   4.520  0.4477  0.9813  0.4447
   32DG     H13  726   0.526   2.818   4.422  0.8114  3.2201  1.2158
   32DG     H14  727   0.582   2.932   4.297 -1.5430  0.3220  2.1518
   32DG     H15  728   0.942   2.455   4.541 -0.0599  0.4666  2.3618
   32DG     H16  729   0.785   2.464   4.612 -0.7762  0.6882 -0.3348
   32DG     C17  730   0.745   2.806   4.381  0.3455 -0.1979  0.4831
   32DG     C18  731   0.864   2.630   4.490  0.0803 -0.7296 -0.7546
   32DG     O19  732   0.742   2.674   4.440  0.1954 -0.3911  0.1742
   32DG     H20  733   0.784   2.888   4.441  1.5611 -0.3979 -0.0129
   32DG     H21  734   0.800   2.816   4.287 -0.7071  1.2722 -0.0041
   32DG     H22  735   0.900   2.682   4.579  0.4991 -3.2362  0.6490
   32DG     H23  736   0.938   2.631   4.411  1.2755 -2.5051  0.2800
   33DG      C1  737   3.817   4.559   4.263  0.3961 -0.1938  0.2947
   33DG      C2  738   3.674   3.923   4.101 -0.2267 -0.0644 -0.1659
   33DG      H3  739   3.894   4.552   4.187  1.7768  0.0085  1.6311
   33DG      H4  740   3.853   4.514   4.355 -2.1774 -1.4515  0.7884
   33DG      H5  741   3.801   4.665   4.285  1.9234 -0.1897  1.5289
   33DG      H6  742   3.781   3.923   4.082 -0.4766  0.8355 -1.6849
   33DG      H7  743   3.644   3.837   4.160  1.9770 -1.8395 -1.4807
   33DG      H8  744   3.627   3.897   4.007  1.8554  0.3557 -1.3963
   33DG      O9  745   3.702   4.482   4.222 -0.5919 -0.0793  0.0555
   33DG     O10  746   3.626   4.043   4.157 -0.2682 -0.4887  0.0897
   33DG     C11  747   3.601   4.497   4.316 -0.3525 -0.1746 -0.1543
   33DG     C12  748   3.495   4.034   4.213 -0.3206 -0.2251 -0.2560
   33DG     H13  749   3.566   4.600   4.313 -0.0843 -0.0058  1.4784
   33DG     H14  750   3.634   4.465   4.415 -1.2837 -1.7234 -0.3198
   33DG     H15  751   3.516   3.985   4.308 -4.8994 -0.3012  0.9526
   33DG     H16  752   3.431   3.967   4.155 -0.0263 -1.7985  1.1574
   33DG     C17  753   3.489   4.407   4.260 -0.0807  0.5278  0.3888
   33DG     C18  754   3.437   4.175   4.234 -1.1060  0.2091 -0.2170
   33DG     O19  755   3.541   4.277   4.247  0.2709  0.1927 -0.6569
   33DG     H20  756   3.472   4.444   4.159  2.0824 -0.9910 -0.6118
   33DG     H21  757   3.397   4.419   4.317  0.3983  1.3036  1.0033
   33DG     H22  758   3.385   4.194   4.140  0.5092  0.2115 -1.1555
   33DG     H23  759   3.353   4.173   4.303 -0.1493 -0.0704  0.9714
   34DG      C1  760   4.542   3.971   1.833 -0.3352 -0.0217 -0.1548
   34DG      C2  761   4.186   4.064   1.071 -0.0467  0.6254 -0.3124
   34DG      H3  762   4.648   3.978   1.809 -0.2808 -1.8959 -0.5756
   34DG      H4  763   4.516   3.873   1.793 -2.2039 -0.1432  1.1766
   34DG      H5  764   4.525   3.978   1.941  0.8641  2.9207 -0.0455
   34DG      H6  765   4.283   4.038   1.030 -0.1638  1.5395 -1.2206
   34DG      H7  766   4.116   3.980   1.072 -0.3443  0.8572  1.6816
   34DG      H8  767   4.154   4.133   0.992 -0.1969  0.5791 -0.2927
   34DG      O9  768   4.463   4.077   1.773  0.0141  0.1115  0.2975
   34DG     O10  769   4.201   4.117   1.198  0.2978  0.5096 -0.0158
   34DG     C11  770   4.454   4.060   1.629 -0.5188  0.0726 -0.7771
   34DG     C12  771   4.283   4.231   1.211 -0.3808 -0.4030  0.4757
   34DG     H13  772   4.447   3.955   1.602 -0.0699  0.0432 -0.7767
   34DG     H14  773   4.554   4.082   1.593 -0.1065 -0.8713 -0.2468
   34DG     H15  774   4.247   4.320   1.160  1.6740 -0.9435 -2.1295
   34DG     H16  775   4.389   4.218   1.188  0.5326  3.1134  2.0523
   34DG     C17  776   4.349   4.158   1.574 -0.1950 -0.7447  0.1038
   34DG     C18  777   4.290   4.264   1.360  0.1383  0.6161  0.0888
   34DG     O19  778   4.369   4.167   1.434 -0.3193 -0.7428  0.1974
   34DG     H20  779   4.374   4.251   1.623 -1.7886 -0.3649  0.2232
   34DG     H21  780   4.248   4.141   1.609 -0.6914 -1.0835 -1.3960
   34DG     H22  781   4.333   4.364   1.366  0.1189  0.6216  0.1349
   34DG     H23  782   4.191   4.280   1.403  1.3728  1.3097  2.9412
   35DG      C1  783   5.267   5.277   0.629 -0.2736  0.1375  0.0712
   35DG      C2  784   4.957   5.623   1.118 -0.2265  0.2254  0.0019
   35DG      H3  785   5.360   5.335   0.631 -0.0618 -0.1805  2.5480
   35DG      H4  786   5.270   5.231   0.530  2.3492  0.7630 -0.2209
   35DG      H5  787   5.267   5.198   0.704 -0.7156  0.2761  0.2210
   35DG      H6  788   4.870   5.608   1.182 -0.6882  2.2530 -0.0601
   35DG      H7  789   5.048   5.593   1.169 -0.6799 -0.2402  0.5492
   35DG      H8  790   4.968   5.731   1.104  0.7678  0.1389  0.0867
   35DG      O9  791   5.154   5.358   0.643  0.2692  0.1151 -0.0849
   35DG     O10  792   4.934   5.549   1.000  0.0314  0.0638  0.5052
   35DG     C11  793   5.036   5.296   0.610  0.2327  0.0864 -0.1795
   35DG     C12  794   4.838   5.611   0.913  0.1883  0.1567  0.4543
   35DG     H13  795   5.013   5.216   0.680  0.0682  1.3641  1.2795
   35DG     H14  796   5.049   5.264   0.507  0.4896 -0.6650  0.0746
   35DG     H15  797   4.865   5.715   0.894  2.2253 -0.3218  0.5267
   35DG     H16  798   4.734   5.611   0.946 -0.4651  1.9732 -1.3661
   35DG     C17  799   4.923   5.397   0.627  0.3714  0.1349  0.0995
   35DG     C18  800   4.819   5.534   0.785 -0.1974  0.4064  0.8563
   35DG     O19  801   4.940   5.472   0.750 -0.7879 -0.5170 -0.2904
   35DG     H20  802   4.837   5.330   0.629 -0.6020  1.3530  0.2088
   35DG     H21  803   4.912   5.464   0.541 -0.9731 -1.3318 -0.9409
   35DG     H22  804   4.743   5.457   0.797 -0.7615  0.9971  1.1155
   35DG     H23  805   4.789   5.597   0.701  0.2177  1.1122  1.2266
   36DG      C1  806   1.782   5.069   4.291  0.4216 -0.5599 -0.1002
   36DG      C2  807   1.353   5.015   5.134 -0.3496 -0.4353  0.2954
   36DG      H3  808   1.842   4.981   4.268  1.6015  0.4298 -0.9316
   36DG      H4  809   1.841   5.149   4.335 -0.6963 -0.1420  0.6856
   36DG      H5  810   1.749   5.101   4.192  2.5503 -0.7115 -0.8980
   36DG      H6  811   1.426   5.094   5.156 -0.4085 -0.0941 -0.6831
   36DG      H7  812   1.266   5.044   5.193 -1.7952  0.6187 -2.2110
   36DG      H8  813   1.387   4.924   5.184  2.4679  0.8837  1.0136
   36DG      O9  814   1.660   5.054   4.375 -0.3328  0.0972  0.2569
   36DG     O10  815   1.328   4.998   4.995 -0.1899 -0.6640 -0.6832
   36DG     C11  816   1.680   5.004   4.502 -0.0629  0.1622 -0.5798
   36DG     C12  817   1.451   5.008   4.924 -0.3373  0.0891  0.0065
   36DG     H13  818   1.755   5.065   4.553 -1.3242  3.2611 -2.1339
   36DG     H14  819   1.718   4.903   4.488  2.5748  1.1528 -1.3489
   36DG     H15  820   1.511   4.924   4.958  0.7818  0.8559 -0.0388
   36DG     H16  821   1.514   5.094   4.946 -0.5699  1.1100 -2.8587
   36DG     C17  822   1.544   5.020   4.565  0.6312  0.6407 -0.0366
   36DG     C18  823   1.424   4.994   4.775  0.1205  0.1579  0.0620
   36DG     O19  824   1.549   4.992   4.703 -0.2595 -0.1457 -0.4841
   36DG     H20  825   1.457   4.982   4.512  0.0963  2.5550 -0.6063
   36DG     H21  826   1.514   5.124   4.552 -1.6240 -0.2000 -2.4313
   36DG     H22  827   1.358   4.908   4.763 -0.2614  0.6095 -1.2194
   36DG     H23  828   1.360   5.075   4.739 -1.7675  0.3046  3.3458
   37DG      C1  829   4.230   1.199   5.286 -0.8459  0.2313 -0.0947
   37DG      C2  830   4.430   1.787   5.599 -0.4036 -0.4990  0.2333
   37DG      H3  831   4.232   1.277   5.210  1.0001 -1.3776 -1.7911
   37DG      H4  832   4.124   1.194   5.311 -1.6573  1.5131 -2.8815
   37DG      H5  833   4.245   1.099   5.246 -2.1716 -0.0294  0.0088
   37DG      H6  834   4.344   1.832   5.648 -1.0047  0.9206 -1.9691
   37DG      H7  835   4.520   1.832   5.640 -0.7031  2.1268 -1.7031
   37DG      H8  836   4.430   1.823   5.496 -0.2185 -0.6051  0.1957
   37DG      O9  837   4.307   1.243   5.399 -0.1398  0.7046  0.2286
   37DG     O10  838   4.425   1.646   5.594 -0.3906 -0.8802  0.4467
   37DG     C11  839   4.257   1.192   5.523 -0.1259 -0.9030  0.8465
   37DG     C12  840   4.418   1.595   5.727  0.1660  0.5932  0.1056
   37DG     H13  841   4.245   1.084   5.520 -0.3171 -0.9141 -3.6975
   37DG     H14  842   4.156   1.231   5.530  0.0613  0.0366 -1.0566
   37DG     H15  843   4.314   1.612   5.756  0.6007  2.4195  0.7465
   37DG     H16  844   4.482   1.652   5.794  1.1961 -0.0121 -0.3483
   37DG     C17  845   4.345   1.248   5.638 -0.3359 -0.1041  0.0626
   37DG     C18  846   4.448   1.444   5.728  0.1785 -0.3282 -0.0061
   37DG     O19  847   4.344   1.389   5.651 -0.0203  0.4478  0.7433
   37DG     H20  848   4.448   1.220   5.617 -0.0036  0.2941  1.1448
   37DG     H21  849   4.312   1.196   5.728  2.4368 -1.1534  0.5754
   37DG     H22  850   4.545   1.432   5.680  1.1245  2.8683  0.8491
   37DG     H23  851   4.452   1.404   5.830 -1.5468  1.0706  0.6678
   38DG      C1  852   0.621   4.384   1.012 -0.3421 -1.4584 -0.2632
   38DG      C2  853   0.204   3.955   0.400 -0.2615  0.0533 -0.4200
   38DG      H3  854   0.663   4.356   1.109  0.0089  0.3260  0.1295
   38DG      H4  855   0.596   4.489   1.000  0.3396 -1.5396 -3.1749
   38DG      H5  856   0.704   4.376   0.941  1.2545  0.2555  1.2909
   38DG      H6  857   0.301   3.909   0.387 -0.4774 -0.1348 -1.3783
   38DG      H7  858   0.135   3.885   0.353 -0.1744  0.2536 -0.8506
   38DG      H8  859   0.208   4.050   0.348 -0.7959  0.0722 -0.4313
   38DG      O9  860   0.492   4.324   0.977 -0.2459 -0.4250 -0.6692
   38DG     O10  861   0.188   3.957   0.545 -0.4709  0.0984  0.3417
   38DG     C11  862   0.470   4.193   1.029 -0.7571 -0.0913  0.1127
   38DG     C12  863   0.289   4.035   0.617 -0.3410 -0.6834  0.2833
   38DG     H13  864   0.457   4.201   1.137  2.8332 -0.2736  0.6781
   38DG     H14  865   0.557   4.130   1.013 -0.3478 -0.2197  2.4834
   38DG     H15  866   0.288   4.141   0.589 -0.6157  0.5326  4.3116
   38DG     H16  867   0.381   3.982   0.594  0.2839 -0.1467  1.4787
   38DG     C17  868   0.349   4.122   0.971  0.5361 -0.1033  0.4711
   38DG     C18  869   0.267   4.030   0.771  0.1519 -0.2242 -0.3719
   38DG     O19  870   0.368   4.111   0.834 -0.4040  0.1554  0.1695
   38DG     H20  871   0.257   4.176   0.991 -0.1388 -0.6082 -1.0762
   38DG     H21  872   0.345   4.022   1.015 -0.2729  0.6872  2.2894
   38DG     H22  873   0.166   4.065   0.795  0.1621 -0.1502 -0.4379
   38DG     H23  874   0.281   3.928   0.807  1.0888 -0.2024 -0.6614
   39DG      C1  875   0.458   4.518   1.541 -0.4092 -0.2482  0.2981
   39DG      C2  876   0.761   5.117   1.462  0.6122  0.1495 -0.0792
   39DG      H3  877   0.417   4.427   1.495 -0.9128  0.7163 -1.2372
   39DG      H4  878   0.377   4.591   1.539  0.8915  1.2727 -2.0792
   39DG      H5  879   0.480   4.497   1.645  0.2421  1.5769  0.5548
   39DG      H6  880   0.735   5.222   1.459  0.6209  0.1909  1.0407
   39DG      H7  881   0.778   5.090   1.566 -1.3377 -1.5560 -0.1305
   39DG      H8  882   0.852   5.100   1.404  0.0074  0.8982 -1.2804
   39DG      O9  883   0.567   4.574   1.463  0.4284  0.3126  0.0484
   39DG     O10  884   0.666   5.022   1.425  0.3357 -0.9257  0.4164
   39DG     C11  885   0.533   4.572   1.324  0.4491 -0.1239  0.3389
   39DG     C12  886   0.623   5.046   1.294  0.5912  0.5776  0.5507
   39DG     H13  887   0.479   4.484   1.292 -1.1428  0.9969 -0.1711
   39DG     H14  888   0.629   4.554   1.275  0.6341 -1.0431  1.0171
   39DG     H15  889   0.703   5.053   1.221  0.1937  3.0672  0.2348
   39DG     H16  890   0.574   5.144   1.289 -0.0813  0.1969 -1.6797
   39DG     C17  891   0.479   4.707   1.276  0.4762  0.3257  0.0507
   39DG     C18  892   0.523   4.936   1.253  0.2706  0.7627  0.0112
   39DG     O19  893   0.576   4.804   1.291  0.2451 -0.4086  0.4653
   39DG     H20  894   0.391   4.744   1.330  1.6834  2.3865  0.7404
   39DG     H21  895   0.459   4.703   1.169 -0.1115  1.4121  0.1061
   39DG     H22  896   0.432   4.963   1.307  0.1322  2.3246 -0.9579
   39DG     H23  897   0.511   4.929   1.145  2.2703 -0.8556 -0.1716
   40DG      C1  898   0.947   2.653   4.044 -0.7092  0.5398 -0.1630
   40DG      C2  899   1.019   1.851   3.844  0.0497 -0.6120  0.2790
   40DG      H3  900   1.033   2.696   4.095 -0.4981  1.5965 -1.3577
   40DG      H4  901   0.851   2.679   4.089 -0.4454  1.5296 -0.1341
   40DG      H5  902   0.946   2.684   3.940  0.4162  1.0268 -0.0452
   40DG      H6  903   1.126   1.864   3.859 -0.2103  0.2603  1.5388
   40DG      H7  904   0.991   1.756   3.887 -0.5536 -0.9609 -0.8500
   40DG      H8  905   1.001   1.845   3.736 -0.3974 -0.1193  0.3196
   40DG      O9  906   0.958   2.508   4.058  0.1846  0.6431  0.1575
   40DG     O10  907   0.949   1.960   3.895 -0.1962 -0.5544  0.3148
   40DG     C11  908   1.047   2.443   3.964 -0.1102  0.1144 -0.2086
   40DG     C12  909   0.988   1.998   4.024 -0.1760  1.1278 -0.3659
   40DG     H13  910   1.147   2.487   3.969  0.5475 -1.1697 -1.5163
   40DG     H14  911   0.996   2.451   3.868 -0.8662 -0.7947  0.0969
   40DG     H15  912   1.096   2.016   4.016  0.2723 -2.0101 -3.4617
   40DG     H16  913   0.971   1.917   4.094  2.7404  0.8150  0.1276
   40DG     C17  914   1.059   2.292   4.004 -0.1520  0.1403 -0.0384
   40DG     C18  915   0.916   2.125   4.077 -0.5563  0.5479  0.3210
   40DG     O19  916   0.929   2.235   3.992  0.3718  0.8254 -0.1980
   40DG     H20  917   1.109   2.286   4.100  0.6144  2.1216 -0.2690
   40DG     H21  918   1.123   2.236   3.936 -0.6986 -0.7198  0.1434
   40DG     H22  919   0.811   2.098   4.089 -0.1083 -2.2391 -1.0884
   40DG     H23  920   0.940   2.154   4.179  2.7337  0.4207 -0.3279
   41DG      C1  921   3.024   3.766   3.381  0.6432  0.1183 -0.2496
   41DG      C2  922   3.029   2.803   3.238 -0.2954  0.4328  0.0342
   41DG      H3  923   2.992   3.854   3.324 -1.8831 -0.5715 -0.0266
   41DG      H4  924   3.120   3.786   3.429  0.5219 -0.7897  0.3849
   41DG      H5  925   2.959   3.751   3.467  1.7040  1.9237  0.9589
   41DG      H6  926   2.996   2.805   3.342 -0.6408  1.7145 -0.0715
   41DG      H7  927   2.952   2.777   3.165 -0.8400  0.9430  0.4141
   41DG      H8  928   3.106   2.726   3.231 -0.6462  0.1017 -0.2224
   41DG      O9  929   3.034   3.657   3.297  0.4163  0.5248 -0.4525
   41DG     O10  930   3.100   2.928   3.221 -0.0261 -0.6800  0.7788
   41DG     C11  931   3.016   3.530   3.362 -0.4710  0.1756 -0.2524
   41DG     C12  932   3.041   3.041   3.292 -0.7016  0.8982  0.2261
   41DG     H13  933   2.926   3.518   3.422 -0.4551 -0.7821 -0.4071
   41DG     H14  934   3.102   3.519   3.427  0.1610 -0.4414 -1.1581
   41DG     H15  935   3.085   3.041   3.392  0.1956  0.1243 -0.1453
   41DG     H16  936   2.932   3.038   3.288 -0.7016 -1.8001 -0.2563
   41DG     C17  937   3.038   3.415   3.251  0.3849  0.6343  0.0042
   41DG     C18  938   3.081   3.182   3.232  0.2672 -0.3322  0.3141
   41DG     O19  939   3.039   3.293   3.317 -0.3100 -0.4700 -0.3989
   41DG     H20  940   3.131   3.431   3.198 -0.5930  1.0649 -1.6311
   41DG     H21  941   2.957   3.429   3.180  0.5241  1.2193 -0.0421
   41DG     H22  942   3.189   3.179   3.219  0.4617  1.2062  1.2654
   41DG     H23  943   3.035   3.198   3.135  2.4600  0.4870 -0.6529
   42DG      C1  944   0.783   2.320   5.437 -0.0373 -0.4376  0.3124
   42DG      C2  945   0.659   1.666   5.217 -0.0990  0.4082 -0.4640
   42DG      H3  946   0.713   2.322   5.520  0.0677  1.8586  0.4010
   42DG      H4  947   0.740   2.364   5.347 -0.9571 -0.5280  0.7006
   42DG      H5  948   0.862   2.392   5.462 -0.8271  0.3448  0.5852
   42DG      H6  949   0.725   1.588   5.254 -0.2120  1.4625  2.2126
   42DG      H7  950   0.579   1.649   5.289  0.9508 -0.2415  0.5779
   42DG      H8  951   0.635   1.653   5.111  0.1117 -0.0647 -0.4563
   42DG      O9  952   0.838   2.187   5.418  0.0347 -0.7653  0.0266
   42DG     O10  953   0.710   1.799   5.235  0.2403  0.1758  0.1979
   42DG     C11  954   0.962   2.185   5.350  0.4587  0.0859  0.2977
   42DG     C12  955   0.816   1.821   5.142  0.5617 -0.4947 -0.1809
   42DG     H13  956   1.030   2.254   5.400  0.2953  1.1084 -0.8540
   42DG     H14  957   0.937   2.229   5.254 -0.2614 -0.7582  0.0786
   42DG     H15  958   0.783   1.814   5.038  1.3107 -2.2959 -0.3196
   42DG     H16  959   0.889   1.742   5.150  0.3200 -0.5535  2.0874
   42DG     C17  960   1.022   2.040   5.341 -0.8837 -0.1633 -0.0606
   42DG     C18  961   0.874   1.955   5.174 -0.4159 -0.2151 -0.3041
   42DG     O19  962   0.931   1.943   5.299  0.2352 -0.4688 -0.3390
   42DG     H20  963   1.062   2.031   5.442 -0.6772  3.8792  0.3482
   42DG     H21  964   1.095   2.038   5.259 -0.2994 -3.5474  0.3671
   42DG     H22  965   0.952   1.967   5.099  0.4675 -3.2159  0.0378
   42DG     H23  966   0.815   2.046   5.158  2.4452  1.6780 -0.7675
   43DG      C1  967   4.421   2.076   2.648  0.5396  0.0401  0.2591
   43DG      C2  968   4.415   2.661   2.365 -0.2115 -0.0421 -0.4967
   43DG      H3  969   4.350   1.995   2.637  0.8795 -0.5010  1.7093
   43DG      H4  970   4.380   2.143   2.724 -2.8037 -1.0705 -0.4202
   43DG      H5  971   4.515   2.044   2.693  0.4404  1.2586  1.3970
   43DG      H6  972   4.355   2.696   2.281 -2.6728  0.3871  1.3421
   43DG      H7  973   4.340   2.670   2.444 -0.0187 -1.1302 -0.1711
   43DG      H8  974   4.505   2.719   2.386  1.4708 -2.6528  0.0342
   43DG      O9  975   4.445   2.145   2.529 -0.2682 -0.2232 -0.1414
   43DG     O10  976   4.446   2.525   2.349 -0.4597 -0.0222 -0.4541
   43DG     C11  977   4.530   2.065   2.443  0.1659 -0.8212 -0.1139
   43DG     C12  978   4.534   2.494   2.245  0.2954  0.4338  0.5858
   43DG     H13  979   4.483   1.968   2.426 -0.3377 -0.3692 -1.5147
   43DG     H14  980   4.623   2.053   2.498 -0.1082  1.3324  0.9121
   43DG     H15  981   4.636   2.511   2.279  0.0460  1.5692  0.8049
   43DG     H16  982   4.502   2.548   2.156 -0.5681 -4.4907 -2.4952
   43DG     C17  983   4.537   2.132   2.304 -0.0379  0.4511 -0.8077
   43DG     C18  984   4.512   2.348   2.210 -0.2935 -0.1295 -0.3073
   43DG     O19  985   4.531   2.271   2.331 -0.3881 -0.4683 -0.4055
   43DG     H20  986   4.444   2.105   2.254  0.1497  0.9394 -1.4431
   43DG     H21  987   4.630   2.104   2.255 -0.4248 -2.9255  0.1408
   43DG     H22  988   4.411   2.342   2.170 -0.7205 -1.8058  0.9074
   43DG     H23  989   4.581   2.318   2.132  0.3593  1.2587 -0.2988
   44DG      C1  990   4.941   0.838   2.297 -0.0476  0.0326 -0.5635
   44DG      C2  991   4.521   0.547   2.728 -0.4665 -0.5060 -0.1054
   44DG      H3  992   4.864   0.789   2.238  0.6459 -1.9860  0.1388
   44DG      H4  993   5.027   0.855   2.231 -0.7492 -2.3860 -2.2324
   44DG      H5  994   4.903   0.938   2.317 -3.4446 -0.6246 -2.9040
   44DG      H6  995   4.502   0.482   2.642  0.9893 -0.6369 -0.3503
   44DG      H7  996   4.488   0.487   2.813  0.2823  0.0962  0.6280
   44DG      H8  997   4.455   0.634   2.724 -0.0103 -0.0269  1.9178
   44DG      O9  998   4.964   0.765   2.415  0.3687  0.1037 -0.0327
   44DG     O10  999   4.657   0.589   2.702 -0.1059 -0.1017 -0.3836
   44DG     C11 1000   5.025   0.839   2.519  0.0431 -0.0285  0.7323
   44DG     C12 1001   4.713   0.654   2.820 -0.3345 -0.4981  0.4169
   44DG     H13 1002   4.963   0.924   2.548 -2.6579 -0.7424 -2.4411
   44DG     H14 1003   5.127   0.861   2.489  0.1599 -1.5783 -0.0942
   44DG     H15 1004   4.702   0.598   2.913 -2.6535  0.6591  0.9066
   44DG     H16 1005   4.680   0.757   2.832 -0.2186 -0.3418 -0.5389
   44DG     C17 1006   5.030   0.751   2.647 -0.0862  0.7185  0.1788
   44DG     C18 1007   4.863   0.665   2.800  0.0290 -0.2575 -0.5669
   44DG     O19 1008   4.898   0.717   2.667 -0.0553  0.2458  0.7958
   44DG     H20 1009   5.077   0.797   2.734  0.9290 -0.2426  0.1518
   44DG     H21 1010   5.077   0.656   2.625 -1.1488  0.7194 -2.4124
   44DG     H22 1011   4.909   0.734   2.871 -1.7481  0.2285  0.1463
   44DG     H23 1012   4.911   0.568   2.816 -2.4468 -1.3126  1.0005
   45DG      C1 1013   4.075   1.347   4.423 -0.5076  0.1772 -0.3975
   45DG      C2 1014   3.935   1.033   4.893 -0.0762  0.1172  0.0894
   45DG      H3 1015   4.074   1.343   4.314 -0.0123 -1.7919 -0.3662
   45DG      H4 1016   4.178   1.340   4.458  0.6697 -0.5719 -3.6411
   45DG      H5 1017   4.030   1.437   4.466  2.9394  1.1236  1.6951
   45DG      H6 1018   4.024   1.017   4.953 -0.3352  1.1778  0.8020
   45DG      H7 1019   3.964   1.093   4.807 -2.6579 -0.3852 -1.2469
   45DG      H8 1020   3.866   1.092   4.954 -1.0564  0.2523 -1.1035
   45DG      O9 1021   3.990   1.243   4.474 -0.4183  0.4024  0.2376
   45DG     O10 1022   3.876   0.913   4.852  0.5717  0.5022 -0.1957
   45DG     C11 1023   4.027   1.120   4.400 -0.3484  0.0002  0.3594
   45DG     C12 1024   3.963   0.827   4.775 -0.2084 -0.0473  0.0814
   45DG     H13 1025   4.133   1.096   4.398  0.0056  1.4420 -1.3626
   45DG     H14 1026   4.010   1.144   4.295  0.7059 -0.7035  0.0129
   45DG     H15 1027   3.933   0.728   4.809 -1.0045  0.0681 -0.2445
   45DG     H16 1028   4.067   0.848   4.797 -0.6857  1.8929  0.7264
   45DG     C17 1029   3.942   1.002   4.445 -0.4666  0.1334 -0.6112
   45DG     C18 1030   3.933   0.839   4.625  0.5283  0.2725  0.7003
   45DG     O19 1031   3.971   0.977   4.583  0.9221  0.4823 -0.1525
   45DG     H20 1032   3.981   0.916   4.392  0.3309 -0.2791  0.5905
   45DG     H21 1033   3.836   1.018   4.426 -0.3353  1.5346 -0.3158
   45DG     H22 1034   3.988   0.764   4.568  0.0456  1.0518 -0.8450
   45DG     H23 1035   3.830   0.820   4.593  1.0381  0.3328 -1.0911
   46DG      C1 1036   1.705   1.074   3.238  0.1638  0.0996 -0.7288
   46DG      C2 1037   2.337   1.159   3.237 -0.5162 -0.5690  0.0011
   46DG      H3 1038   1.619   1.020   3.278  0.8091  0.3272  1.0903
   46DG      H4 1039   1.745   1.020   3.153 -0.5108  1.3193 -1.8629
   46DG      H5 1040   1.699   1.175   3.198  3.2652  1.5918  2.0425
   46DG      H6 1041   2.330   1.078   3.165 -0.0908 -1.1718  0.6261
   46DG      H7 1042   2.373   1.249   3.186  0.8835 -0.4320  1.1641
   46DG      H8 1043   2.406   1.127   3.315 -0.3292  1.2908  0.6575
   46DG      O9 1044   1.798   1.098   3.346 -0.2149  0.6529 -0.0030
   46DG     O10 1045   2.210   1.180   3.304 -0.2628 -0.2961  0.1730
   46DG     C11 1046   1.768   1.188   3.447 -0.0927  0.0915 -0.2007
   46DG     C12 1047   2.193   1.303   3.376  0.1376 -0.4015 -0.1383
   46DG     H13 1048   1.675   1.173   3.502 -0.0004 -0.7952 -0.2708
   46DG     H14 1049   1.745   1.287   3.407  1.1512  1.3978  2.0965
   46DG     H15 1050   2.234   1.381   3.312  2.4524 -1.5533 -0.1369
   46DG     H16 1051   2.259   1.292   3.462 -0.0978 -2.6814 -0.1992
   46DG     C17 1052   1.890   1.211   3.543  0.0938  0.2304 -0.1318
   46DG     C18 1053   2.045   1.315   3.404  1.1652 -0.1686  0.2564
   46DG     O19 1054   2.013   1.199   3.480  0.0817  0.0535  0.2801
   46DG     H20 1055   1.891   1.129   3.614  1.4928 -0.3463 -0.7837
   46DG     H21 1056   1.882   1.308   3.593  2.5325  2.5266 -3.7013
   46DG     H22 1057   2.018   1.411   3.447  0.2160  0.2184 -1.1185
   46DG     H23 1058   1.987   1.311   3.311  0.9660 -0.9002  0.4081
   47DG      C1 1059   0.819   3.366   0.069  0.0912  0.0087  0.2933
   47DG      C2 1060   0.267   3.616   0.156 -0.0531 -0.0507 -0.4517
   47DG      H3 1061   0.809   3.321  -0.030 -2.1363  1.8599 -0.4008
   47DG      H4 1062   0.788   3.289   0.140 -1.2525  1.9050  1.8792
   47DG      H5 1063   0.922   3.401   0.071 -0.3685  1.5701 -1.1824
   47DG      H6 1064   0.185   3.683   0.182 -0.6121 -0.6386 -0.6461
   47DG      H7 1065   0.248   3.596   0.051 -1.3068  0.3568 -0.3254
   47DG      H8 1066   0.254   3.524   0.215  0.4115  1.0243  1.4122
   47DG      O9 1067   0.727   3.476   0.070  0.4877  0.4680  0.2539
   47DG     O10 1068   0.392   3.676   0.177  0.0053  0.2145 -1.0213
   47DG     C11 1069   0.766   3.583  -0.026  0.4236  0.3963  0.1796
   47DG     C12 1070   0.414   3.793   0.102  0.5796 -0.3044  0.1400
   47DG     H13 1071   0.770   3.546  -0.129 -0.6669 -0.0981  0.2958
   47DG     H14 1072   0.859   3.627   0.011  0.8802 -0.7285  0.4134
   47DG     H15 1073   0.340   3.870   0.122 -0.4505 -0.6613 -2.0241
   47DG     H16 1074   0.405   3.774  -0.005  1.7046  0.5408 -0.1296
   47DG     C17 1075   0.659   3.678  -0.026  0.2534 -0.5600 -0.5630
   47DG     C18 1076   0.559   3.832   0.125 -0.3958 -0.0811  0.6366
   47DG     O19 1077   0.646   3.719   0.114  1.0974  0.7435 -0.3627
   47DG     H20 1078   0.568   3.637  -0.071  0.9635 -2.4184 -0.3915
   47DG     H21 1079   0.691   3.762  -0.087 -2.6823  0.2949 -1.0966
   47DG     H22 1080   0.570   3.915   0.055 -0.8021  0.9961  1.7936
   47DG     H23 1081   0.561   3.866   0.229  1.2451 -0.2948  0.6922
   48DG      C1 1082   2.113   0.317   1.343  0.0375  0.2472  0.5268
   48DG      C2 1083   2.281  -0.202   0.922  0.4190  0.0660  0.1755
   48DG      H3 1084   2.024   0.257   1.323  1.0875 -0.2984 -3.1407
   48DG      H4 1085   2.074   0.418   1.328  0.1781 -0.1470 -3.7612
   48DG      H5 1086   2.143   0.291   1.445  2.2464 -0.1629 -0.1827
   48DG      H6 1087   2.329  -0.267   0.995 -1.0507  0.8085  1.8704
   48DG      H7 1088   2.175  -0.224   0.938  0.4436 -0.6615 -0.5954
   48DG      H8 1089   2.301  -0.228   0.818 -0.5123  1.0252 -0.2561
   48DG      O9 1090   2.199   0.280   1.240  0.6404 -0.3149  0.6928
   48DG     O10 1091   2.306  -0.066   0.959  0.4718 -0.2709  0.4066
   48DG     C11 1092   2.328   0.281   1.285 -0.4059  0.4384 -0.1653
   48DG     C12 1093   2.442  -0.037   0.940  0.0784  0.0983  0.2535
   48DG     H13 1094   2.350   0.211   1.365  0.3979 -0.2192 -0.9387
   48DG     H14 1095   2.351   0.376   1.333  2.8677  0.8185 -2.1306
   48DG     H15 1096   2.476  -0.032   0.836  1.0076 -0.4049  0.5162
   48DG     H16 1097   2.498  -0.106   1.003  0.2561  2.6820  3.1440
   48DG     C17 1098   2.429   0.244   1.174  0.2094  0.0169  0.3917
   48DG     C18 1099   2.464   0.102   0.995  0.6739 -0.3364 -0.3545
   48DG     O19 1100   2.389   0.122   1.118 -0.1744  0.5544  0.0324
   48DG     H20 1101   2.533   0.244   1.207  0.2877  0.1647  0.1516
   48DG     H21 1102   2.432   0.321   1.097 -0.2482  0.0784  0.4342
   48DG     H22 1103   2.570   0.121   1.014  0.6254  0.1082 -0.5237
   48DG     H23 1104   2.429   0.180   0.927 -0.4270 -2.0516 -1.8554
   49DG      C1 1105   1.722   1.430   1.444 -0.5107 -0.1049  0.6017
   49DG      C2 1106   2.065   1.467   2.105  0.0519 -0.4013  0.1964
   49DG      H3 1107   1.822   1.465   1.420 -0.5539  0.0822  0.6939
   49DG      H4 1108   1.652   1.498   1.395  0.0352 -0.0074 -0.0605
   49DG      H5 1109   1.693   1.338   1.394 -1.5379 -0.1903  1.3362
   49DG      H6 1110   2.095   1.401   2.187 -3.0045 -0.7891  1.1554
   49DG      H7 1111   2.128   1.554   2.093  0.3256 -0.2801  2.1200
   49DG      H8 1112   1.967   1.501   2.139  0.5738  0.1856  1.1616
   49DG      O9 1113   1.710   1.413   1.582 -0.8233  0.7246  0.2566
   49DG     O10 1114   2.065   1.381   1.991 -0.1842 -0.3740  0.8263
   49DG     C11 1115   1.771   1.519   1.655  0.2912 -0.2236  0.5449
   49DG     C12 1116   1.975   1.270   1.994 -0.2427  0.3541 -0.6169
   49DG     H13 1117   1.718   1.611   1.628  0.7262 -0.1207  0.0407
   49DG     H14 1118   1.878   1.528   1.640  0.6145 -3.8964 -0.4069
   49DG     H15 1119   1.974   1.206   2.083  0.5355  1.4703  0.2218
   49DG     H16 1120   2.002   1.192   1.922 -0.7396 -0.0068 -0.4208
   49DG     C17 1121   1.743   1.479   1.799  0.1150  0.8927 -0.3052
   49DG     C18 1122   1.838   1.317   1.951 -0.0643 -0.0852 -0.7925
   49DG     O19 1123   1.835   1.376   1.830 -0.1111  0.1684  0.3978
   49DG     H20 1124   1.637   1.462   1.817  0.1870  1.0664  0.3035
   49DG     H21 1125   1.771   1.564   1.862 -0.3877 -0.5811  2.0080
   49DG     H22 1126   1.768   1.235   1.946  1.3088 -1.2110 -3.1435
   49DG     H23 1127   1.792   1.380   2.028  2.4736  0.8430  0.1094
   50DG      C1 1128   2.340   2.458   1.219  0.0058 -0.0064 -0.2912
   50DG      C2 1129   2.594   2.027   0.691 -0.1816 -0.2253  0.4599
   50DG      H3 1130   2.348   2.556   1.266  2.0969 -0.9946  1.6139
   50DG      H4 1131   2.363   2.380   1.291  1.0981  1.1646  0.6734
   50DG      H5 1132   2.241   2.445   1.174  0.4228  1.6470 -1.8004
   50DG      H6 1133   2.688   2.020   0.637  0.3423 -0.4019  1.3722
   50DG      H7 1134   2.574   1.947   0.762 -3.0208 -1.3633 -1.4726
   50DG      H8 1135   2.506   2.019   0.627 -1.4625 -0.5572  2.1932
   50DG      O9 1136   2.433   2.445   1.112  0.2959 -0.0278  0.6205
   50DG     O10 1137   2.596   2.156   0.756  0.9177  0.0649  0.3874
   50DG     C11 1138   2.563   2.486   1.144  0.4032 -0.0981  1.0507
   50DG     C12 1139   2.727   2.207   0.783  0.4057 -0.3359 -0.4777
   50DG     H13 1140   2.599   2.415   1.218 -0.6298 -0.5931  1.0942
   50DG     H14 1141   2.571   2.586   1.187  0.4272 -0.9449  3.1213
   50DG     H15 1142   2.801   2.182   0.708  0.5059 -0.9280 -0.1855
   50DG     H16 1143   2.772   2.162   0.872 -1.6128 -0.9008  0.3144
   50DG     C17 1144   2.639   2.489   1.008 -0.0684 -0.8139 -0.2481
   50DG     C18 1145   2.719   2.359   0.821 -0.0883  0.1666  0.1810
   50DG     O19 1146   2.638   2.366   0.942  0.0605  0.6033  0.5045
   50DG     H20 1147   2.740   2.514   1.039  0.0712  0.1288 -1.3739
   50DG     H21 1148   2.605   2.569   0.941 -0.9338  0.2702  1.3997
   50DG     H22 1149   2.815   2.411   0.827  0.7427 -1.3164  0.2729
   50DG     H23 1150   2.672   2.410   0.738  0.5714 -0.3793 -0.5492
   51DG      C1 1151   2.949   1.340   0.356 -0.0470 -0.5870 -0.0106
   51DG      C2 1152   2.640   1.794   0.131  0.3015  0.2920  0.9323
   51DG      H3 1153   2.963   1.350   0.249  3.0739 -2.5111  0.0934
   51DG      H4 1154   2.943   1.233   0.378 -0.2975 -0.5598  0.0546
   51DG      H5 1155   3.038   1.385   0.400  0.8393  0.0861 -2.3852
   51DG      H6 1156   2.583   1.888   0.134  0.0465  0.1229  1.5731
   51DG      H7 1157   2.748   1.804   0.124  0.4712 -1.6867  0.3651
   51DG      H8 1158   2.618   1.742   0.038  1.3313 -0.3972  1.0610
   51DG      O9 1159   2.829   1.389   0.390  0.4269 -0.1085 -0.5092
   51DG     O10 1160   2.588   1.719   0.235 -1.1476  0.0499 -0.1815
   51DG     C11 1161   2.772   1.363   0.514  0.5876  0.0140 -0.0492
   51DG     C12 1162   2.605   1.788   0.360  0.1702 -0.3097  0.5749
   51DG     H13 1163   2.852   1.384   0.586  1.2069  0.6090 -0.8841
   51DG     H14 1164   2.752   1.256   0.510  0.2883  0.0354  0.7450
   51DG     H15 1165   2.533   1.870   0.369  1.9047  1.3922 -0.4521
   51DG     H16 1166   2.708   1.818   0.376 -0.0667  0.6346  0.3824
   51DG     C17 1167   2.650   1.464   0.540  0.2340  0.4107  0.2107
   51DG     C18 1168   2.573   1.692   0.472 -0.3295  0.4855  0.1229
   51DG     O19 1169   2.673   1.587   0.468 -0.1985 -0.1535 -0.7079
   51DG     H20 1170   2.616   1.487   0.641 -1.1271  1.0412 -0.3723
   51DG     H21 1171   2.564   1.427   0.485  0.1423  0.3399  0.4015
   51DG     H22 1172   2.571   1.739   0.571  2.4262 -2.8137  1.9872
   51DG     H23 1173   2.476   1.646   0.455 -0.7234  1.4130 -0.2074
   52DG      C1 1174   3.999   5.398   5.350 -0.0981 -0.2713  0.1637
   52DG      C2 1175   3.812   5.503   4.702  0.0085  0.2774  0.2710
   52DG      H3 1176   3.981   5.296   5.317 -0.2889  0.0174 -0.6393
   52DG      H4 1177   3.991   5.393   5.459 -1.5248 -0.0667  0.0912
   52DG      H5 1178   4.102   5.427   5.332  0.0455  0.2566  1.6943
   52DG      H6 1179   3.846   5.560   4.616  1.9735 -0.0109  0.8169
   52DG      H7 1180   3.863   5.407   4.710 -0.0296  0.2401  0.0618
   52DG      H8 1181   3.710   5.482   4.668  0.2705  0.2708 -0.5060
   52DG      O9 1182   3.903   5.470   5.287 -0.2190  0.1738  0.1980
   52DG     O10 1183   3.795   5.573   4.826  0.2468  0.5409 -0.1055
   52DG     C11 1184   3.928   5.610   5.295  0.2192  0.5087  0.4404
   52DG     C12 1185   3.920   5.624   4.871 -0.5657  0.2339  0.1440
   52DG     H13 1186   4.019   5.654   5.253 -1.4643  2.3297 -1.5242
   52DG     H14 1187   3.917   5.643   5.398 -0.3538  2.6944 -0.2632
   52DG     H15 1188   3.975   5.682   4.796  1.4663 -2.3881 -0.5347
   52DG     H16 1189   3.989   5.547   4.906  0.7588  0.5986 -1.4864
   52DG     C17 1190   3.814   5.676   5.220  0.1732 -0.1535 -0.7743
   52DG     C18 1191   3.904   5.711   4.999 -0.5395  0.3525  0.1042
   52DG     O19 1192   3.823   5.630   5.089  0.0341  0.1248  0.0223
   52DG     H20 1193   3.831   5.784   5.217  0.9171 -0.1308  1.8336
   52DG     H21 1194   3.715   5.652   5.258 -0.0990  0.5156 -1.0418
   52DG     H22 1195   3.994   5.738   5.055 -0.2724 -1.1643  0.4535
   52DG     H23 1196   3.848   5.802   4.980  1.7802  1.7483 -0.5254
   53DG      C1 1197   0.126   3.478   4.760  0.2729 -0.4105  0.1478
   53DG      C2 1198  -0.393   3.338   5.150  0.2560  0.4681  0.0851
   53DG      H3 1199   0.182   3.389   4.733  2.1048  1.4500 -2.7577
   53DG      H4 1200   0.169   3.515   4.853  1.2715  3.4715 -1.6356
   53DG      H5 1201   0.158   3.553   4.687 -0.4215  0.3270  0.5843
   53DG      H6 1202  -0.378   3.236   5.187 -1.3979 -0.4467 -1.6217
   53DG      H7 1203  -0.335   3.410   5.208 -0.0479  1.6778 -1.0684
   53DG      H8 1204  -0.499   3.359   5.157  0.1268  0.1426 -0.7754
   53DG      O9 1205  -0.014   3.463   4.760 -0.2266 -0.4675 -0.0832
   53DG     O10 1206  -0.349   3.357   5.018 -0.3845 -0.8521  0.0909
   53DG     C11 1207  -0.069   3.439   4.636  0.2796  0.8692  0.4861
   53DG     C12 1208  -0.415   3.279   4.919  0.1098 -0.4231  0.4299
   53DG     H13 1209  -0.026   3.350   4.591 -0.8101  0.3333  0.4826
   53DG     H14 1210  -0.047   3.521   4.566  0.2794 -0.0350 -0.6035
   53DG     H15 1211  -0.523   3.274   4.935 -0.2260  0.7010 -1.1764
   53DG     H16 1212  -0.377   3.178   4.905  1.7998  0.1432  0.7016
   53DG     C17 1213  -0.224   3.432   4.639 -0.0811 -0.5029  0.5923
   53DG     C18 1214  -0.397   3.335   4.775  0.1763 -0.0202 -0.8076
   53DG     O19 1215  -0.255   3.353   4.747  0.2033  0.0656  0.0355
   53DG     H20 1216  -0.275   3.403   4.548  0.1525 -1.5758  0.7849
   53DG     H21 1217  -0.256   3.532   4.669 -1.1249 -1.0490  1.3674
   53DG     H22 1218  -0.465   3.282   4.708 -2.7090  0.9103  1.2182
   53DG     H23 1219  -0.441   3.434   4.783  0.6216  0.1130  0.0648
   54DG      C1 1220   0.656   0.425   4.298 -0.2434  0.1302  0.5642
   54DG      C2 1221   0.393   1.058   4.266  0.1141  0.0985  0.0613
   54DG      H3 1222   0.691   0.371   4.210 -2.4538 -0.8774  0.2392
   54DG      H4 1223   0.592   0.509   4.270 -2.7041 -1.5033  0.9804
   54DG      H5 1224   0.593   0.353   4.351 -0.4227 -0.2574 -0.1705
   54DG      H6 1225   0.346   1.138   4.324 -0.6853 -0.4499  0.1947
   54DG      H7 1226   0.402   1.103   4.167  1.7151 -1.3509 -0.5050
   54DG      H8 1227   0.320   0.977   4.265 -1.3561  1.3783  0.1323
   54DG      O9 1228   0.757   0.468   4.392  1.0146 -0.0408  0.0603
   54DG     O10 1229   0.516   1.029   4.325 -0.7846 -0.2285 -0.4407
   54DG     C11 1230   0.858   0.551   4.330  0.1110  0.4449 -0.2814
   54DG     C12 1231   0.556   0.893   4.307 -0.7395  0.9260 -0.3102
   54DG     H13 1232   0.869   0.540   4.222 -0.9437  3.2292 -0.7695
   54DG     H14 1233   0.952   0.518   4.375  0.4313  0.4946 -0.9003
   54DG     H15 1234   0.541   0.868   4.202 -3.1511 -0.8753  0.3707
   54DG     H16 1235   0.488   0.830   4.365  0.5766 -0.1957  0.0504
   54DG     C17 1236   0.853   0.701   4.373 -0.5419  0.3636  0.1639
   54DG     C18 1237   0.696   0.877   4.356  0.0920  0.3710 -0.0754
   54DG     O19 1238   0.733   0.744   4.327 -0.0870  0.0540 -0.2720
   54DG     H20 1239   0.944   0.756   4.349  0.4621 -0.6923  1.3489
   54DG     H21 1240   0.840   0.706   4.482  0.6881 -1.6780  0.4439
   54DG     H22 1241   0.764   0.940   4.299  1.0467  0.9893  1.6611
   54DG     H23 1242   0.690   0.908   4.460 -2.0511  0.2225 -0.1063
   55DG      C1 1243   5.039   2.052   5.400  0.3512 -0.5638  0.5990
   55DG      C2 1244   4.721   2.187   6.010  0.1924  0.0845  1.2838
   55DG      H3 1245   5.132   2.048   5.457  0.2123 -0.4440  0.8341
   55DG      H4 1246   5.052   2.140   5.337 -3.0741  0.6946  1.4227
   55DG      H5 1247   5.033   1.960   5.341  1.2932  1.3845 -2.8174
   55DG      H6 1248   4.736   2.293   6.033  0.4541  0.4933 -0.5995
   55DG      H7 1249   4.627   2.168   6.062  0.0272 -0.0819  0.9297
   55DG      H8 1250   4.795   2.132   6.067 -0.5633 -1.1014  1.1522
   55DG      O9 1251   4.924   2.063   5.477  0.1673  0.7029  0.0038
   55DG     O10 1252   4.715   2.149   5.875  0.2519 -0.0887 -0.0412
   55DG     C11 1253   4.807   2.093   5.402  0.8985  0.1108  0.4333
   55DG     C12 1254   4.619   2.230   5.810 -0.2085  0.5689  0.8794
   55DG     H13 1255   4.791   2.033   5.313  2.5056  0.0428  0.1610
   55DG     H14 1256   4.803   2.199   5.374 -2.0277 -0.4823 -1.8864
   55DG     H15 1257   4.679   2.317   5.786  1.3153 -1.1109 -1.9853
   55DG     H16 1258   4.533   2.262   5.869 -0.9511 -1.3301  0.9011
   55DG     C17 1259   4.683   2.074   5.489 -0.2600 -0.7889  0.0166
   55DG     C18 1260   4.582   2.165   5.676  0.4578  0.1603  0.3541
   55DG     O19 1261   4.706   2.110   5.620  0.3548  0.3829 -0.6436
   55DG     H20 1262   4.651   1.971   5.499  1.1963 -1.2421  0.2526
   55DG     H21 1263   4.610   2.137   5.438  0.2489  1.1428  1.5226
   55DG     H22 1264   4.507   2.087   5.694  0.6507 -0.4171 -1.2190
   55DG     H23 1265   4.522   2.239   5.623  1.0137  2.0786  2.2770
   56DG      C1 1266   0.740   1.448   3.109 -0.5947 -0.1484  0.4476
   56DG      C2 1267   0.624   1.068   2.608 -0.1457  0.2473  0.4841
   56DG      H3 1268   0.635   1.474   3.119 -0.5989 -0.4100  1.1396
   56DG      H4 1269   0.801   1.512   3.173 -0.7981  0.9935 -0.4815
   56DG      H5 1270   0.759   1.347   3.147  1.4701 -0.6775 -1.7634
   56DG      H6 1271   0.522   1.084   2.644  0.5871  0.0742  2.7248
   56DG      H7 1272   0.629   1.012   2.515  3.3010  0.8748  0.1851
   56DG      H8 1273   0.683   1.010   2.678  2.0642  2.7349  0.8072
   56DG      O9 1274   0.792   1.451   2.977 -0.6769 -0.5317 -0.2962
   56DG     O10 1275   0.692   1.189   2.618  0.2774 -0.3086 -0.6782
   56DG     C11 1276   0.787   1.575   2.911  0.4138 -0.1062  0.6420
   56DG     C12 1277   0.636   1.298   2.546 -0.5988 -1.0497  0.2549
   56DG     H13 1278   0.872   1.635   2.942 -0.6294  1.7024  0.1998
   56DG     H14 1279   0.688   1.622   2.916  0.5496  0.4041 -0.8693
   56DG     H15 1280   0.538   1.327   2.585 -0.4064 -0.7110  0.4914
   56DG     H16 1281   0.620   1.275   2.441 -1.5120  3.0834 -0.6806
   56DG     C17 1282   0.816   1.544   2.759 -0.3233 -0.2696 -0.4581
   56DG     C18 1283   0.724   1.424   2.572 -0.1352 -0.0239 -0.1038
   56DG     O19 1284   0.717   1.445   2.709 -0.4818 -0.2478 -0.3596
   56DG     H20 1285   0.917   1.512   2.736 -0.0157 -0.8616  1.4974
   56DG     H21 1286   0.800   1.636   2.703 -1.8866 -0.0052  0.3625
   56DG     H22 1287   0.825   1.400   2.536  0.5552 -1.1599  2.3617
   56DG     H23 1288   0.683   1.510   2.520  0.5790 -0.0556 -0.7328
   57DG      C1 1289   2.415   3.381   0.901  0.1654  0.8422 -0.2582
   57DG      C2 1290   2.293   2.738   0.887 -0.1065  0.2691  0.0797
   57DG      H3 1291   2.497   3.315   0.872 -1.3018 -1.6872  0.8936
   57DG      H4 1292   2.420   3.366   1.009  0.2064 -2.8783 -0.6161
   57DG      H5 1293   2.420   3.485   0.870  2.5311  1.0337  0.5989
   57DG      H6 1294   2.317   2.701   0.986 -0.3366  0.9616  0.4034
   57DG      H7 1295   2.227   2.665   0.841 -0.7810  0.0885  1.2849
   57DG      H8 1296   2.386   2.740   0.830  0.3597  1.1203  0.8396
   57DG      O9 1297   2.303   3.315   0.853 -0.1080 -0.1928  0.5715
   57DG     O10 1298   2.239   2.864   0.882 -0.0979 -0.0712  0.0431
   57DG     C11 1299   2.175   3.363   0.899 -0.3777  0.2014  0.3206
   57DG     C12 1300   2.128   2.882   0.970 -0.7032 -0.4225  0.1523
   57DG     H13 1301   2.150   3.452   0.841  0.9756 -1.0166 -2.3238
   57DG     H14 1302   2.172   3.395   1.003 -2.4271  0.2390  0.2942
   57DG     H15 1303   2.157   2.893   1.074  0.0869 -0.5129 -0.0516
   57DG     H16 1304   2.059   2.799   0.960  1.0889 -2.0344  0.5875
   57DG     C17 1305   2.072   3.246   0.888  0.0977 -1.0975  0.3498
   57DG     C18 1306   2.060   3.008   0.922 -0.3007  0.4369 -0.1303
   57DG     O19 1307   2.139   3.127   0.936  0.2141 -0.0662 -0.5658
   57DG     H20 1308   2.031   3.250   0.787  1.2012  3.2508 -0.1443
   57DG     H21 1309   1.986   3.271   0.951 -0.0531 -0.4340 -0.0988
   57DG     H22 1310   2.038   2.990   0.817  2.7994  1.5503 -1.0789
   57DG     H23 1311   1.973   3.027   0.985  0.3524  2.0411  0.3351
   58DG      C1 1312   1.434   1.590   2.008 -0.2379  0.7428  0.7680
   58DG      C2 1313   1.648   2.167   1.802 -0.2441 -0.1830  0.2750
   58DG      H3 1314   1.376   1.498   2.001  0.8137  0.1072  0.3609
   58DG      H4 1315   1.387   1.674   2.059  0.6261  0.6004  1.8363
   58DG      H5 1316   1.521   1.569   2.070 -0.9519 -2.0750  0.9496
   58DG      H6 1317   1.626   2.171   1.909  0.5223 -0.5112  0.4520
   58DG      H7 1318   1.753   2.198   1.796 -0.4545  0.5019  0.0255
   58DG      H8 1319   1.577   2.238   1.759 -0.6706 -0.2066  0.9224
   58DG      O9 1320   1.478   1.641   1.884 -0.2757  0.5876  0.0732
   58DG     O10 1321   1.622   2.037   1.759 -0.1201  0.4057  0.3811
   58DG     C11 1322   1.384   1.632   1.776  0.4592 -0.5542 -0.7252
   58DG     C12 1323   1.613   2.019   1.621  0.1357  0.2170  0.4038
   58DG     H13 1324   1.297   1.687   1.814  0.8788 -0.0644 -0.4724
   58DG     H14 1325   1.338   1.534   1.760 -0.7929 -0.1534  0.2050
   58DG     H15 1326   1.707   2.048   1.576 -0.1786 -1.0568 -1.1646
   58DG     H16 1327   1.539   2.093   1.592 -0.7630 -1.2948 -1.3953
   58DG     C17 1328   1.434   1.705   1.655 -0.0013 -0.0051  0.6595
   58DG     C18 1329   1.553   1.884   1.582  0.1672  0.8399  0.4619
   58DG     O19 1330   1.489   1.830   1.694  0.5187 -0.2032 -0.2499
   58DG     H20 1331   1.342   1.730   1.601 -0.4011 -3.1531 -0.3180
   58DG     H21 1332   1.504   1.640   1.602  0.7852  1.4615 -0.1745
   58DG     H22 1333   1.478   1.886   1.503  0.3064  1.8886  0.3448
   58DG     H23 1334   1.632   1.816   1.549 -0.5135 -0.3252  1.1598
   59DG      C1 1335   1.905   4.071   2.626 -0.0521 -0.3266 -0.1295
   59DG      C2 1336   1.486   3.780   2.327 -0.3579  0.1060 -0.2289
   59DG      H3 1337   1.967   3.988   2.659 -1.9290 -1.8553 -0.2684
   59DG      H4 1338   1.953   4.162   2.665  1.5754  0.4653 -3.6018
   59DG      H5 1339   1.908   4.070   2.517  1.9896  1.9866 -0.2036
   59DG      H6 1340   1.447   3.738   2.235  1.8337 -3.0172  0.1232
   59DG      H7 1341   1.568   3.711   2.349  0.7120  1.2816 -0.3783
   59DG      H8 1342   1.416   3.762   2.409 -1.8687  1.1456 -1.2391
   59DG      O9 1343   1.774   4.061   2.673  0.5549  0.2882  0.6303
   59DG     O10 1344   1.542   3.911   2.329  0.1396 -0.0582 -0.0929
   59DG     C11 1345   1.698   4.179   2.663  0.9540  0.6779 -0.0061
   59DG     C12 1346   1.445   4.013   2.305 -0.8912 -0.7612  0.1107
   59DG     H13 1347   1.745   4.265   2.711 -0.3130  1.3527  0.0660
   59DG     H14 1348   1.598   4.162   2.703  0.8127 -0.4843 -0.8024
   59DG     H15 1349   1.350   3.994   2.354 -1.4651  0.0331 -0.6565
   59DG     H16 1350   1.426   4.016   2.198 -0.0861  1.5061 -0.0362
   59DG     C17 1351   1.678   4.218   2.514 -0.4905  0.7204 -0.4204
   59DG     C18 1352   1.520   4.146   2.341 -0.0591  0.5860 -0.1816
   59DG     O19 1353   1.587   4.120   2.463  0.0926 -0.0117 -0.8296
   59DG     H20 1354   1.771   4.216   2.457 -0.1736  0.2133  0.1028
   59DG     H21 1355   1.645   4.321   2.506  3.2121  2.1428  0.5282
   59DG     H22 1356   1.599   4.157   2.266  1.2107  0.2471  1.0481
   59DG     H23 1357   1.467   4.240   2.357 -1.4422 -0.4648  1.9301
   60DG      C1 1358   3.245   0.990   2.853  0.5060  0.1291 -0.5207
   60DG      C2 1359   3.906   1.335   3.057  0.1726  0.7634  0.5235
   60DG      H3 1360   3.286   0.983   2.752  0.0067  0.0833 -0.7205
   60DG      H4 1361   3.140   1.019   2.850  0.4754  0.0949  0.0767
   60DG      H5 1362   3.254   0.896   2.907 -0.5078  1.1844  1.5569
   60DG      H6 1363   3.946   1.411   3.124  0.6485 -0.2905  1.4694
   60DG      H7 1364   3.955   1.239   3.077  2.1201  1.5743 -0.1190
   60DG      H8 1365   3.921   1.361   2.953  3.1075 -0.2353  0.6094
   60DG      O9 1366   3.308   1.089   2.931 -0.4217  0.4445 -0.1823
   60DG     O10 1367   3.765   1.322   3.082 -0.3063  0.6793  0.5204
   60DG     C11 1368   3.294   1.222   2.874 -0.1356  0.1309 -0.0038
   60DG     C12 1369   3.693   1.443   3.061 -0.3187  1.3908 -0.1395
   60DG     H13 1370   3.191   1.239   2.840 -0.3771  0.9576  1.0721
   60DG     H14 1371   3.343   1.239   2.779  0.4083 -0.2126  0.2159
   60DG     H15 1372   3.726   1.476   2.963  0.9449 -1.0694 -0.6196
   60DG     H16 1373   3.736   1.518   3.128 -0.6786  1.6766 -0.2275
   60DG     C17 1374   3.338   1.335   2.973  0.2199 -0.2692  0.5130
   60DG     C18 1375   3.533   1.437   3.062 -0.0712 -0.2665 -0.1276
   60DG     O19 1376   3.480   1.342   2.966  0.4075  0.2201 -0.2132
   60DG     H20 1377   3.310   1.310   3.075  2.4695 -0.2490  1.1908
   60DG     H21 1378   3.298   1.430   2.939  1.2430  0.4928  1.3656
   60DG     H22 1379   3.499   1.418   3.164 -0.5954 -0.6213 -0.3671
   60DG     H23 1380   3.486   1.533   3.041  0.1000 -0.4473 -1.4472
   61DG      C1 1381   4.742   3.337   0.865  0.4477  0.0887 -0.6812
   61DG      C2 1382   4.898   3.117   0.249 -0.0080 -0.3054 -0.7515
   61DG      H3 1383   4.846   3.373   0.865  0.5769 -0.2838 -0.6772
   61DG      H4 1384   4.727   3.252   0.931 -2.6464 -0.4218 -1.9146
   61DG      H5 1385   4.691   3.425   0.903  0.5615  0.2306 -0.8533
   61DG      H6 1386   4.879   3.198   0.180 -1.2310 -0.5996 -0.7876
   61DG      H7 1387   4.994   3.129   0.300  0.7335 -0.0152 -2.1693
   61DG      H8 1388   4.908   3.025   0.191  3.0302  0.6921 -2.0044
   61DG      O9 1389   4.696   3.314   0.735  0.4305 -0.6439  0.1522
   61DG     O10 1390   4.793   3.103   0.342 -0.3566  0.3751  0.0366
   61DG     C11 1391   4.549   3.295   0.709 -0.6986 -0.0877 -0.4763
   61DG     C12 1392   4.668   3.103   0.289  0.4223  0.0550 -0.4881
   61DG     H13 1393   4.499   3.381   0.754  1.1438 -0.1374  1.8411
   61DG     H14 1394   4.516   3.207   0.763 -0.2622  0.4872  0.7700
   61DG     H15 1395   4.627   3.007   0.319  0.8037 -0.0456 -0.2814
   61DG     H16 1396   4.669   3.111   0.180  1.2118  1.6117 -0.3993
   61DG     C17 1397   4.518   3.300   0.564  0.0834  0.2835  0.0957
   61DG     C18 1398   4.573   3.208   0.354  0.2071  0.2165 -0.2944
   61DG     O19 1399   4.591   3.203   0.493  0.4426 -0.2805 -0.5042
   61DG     H20 1400   4.543   3.397   0.522 -2.2785  0.9935  0.2171
   61DG     H21 1401   4.412   3.299   0.540  0.2876  0.5059 -0.8391
   61DG     H22 1402   4.591   3.310   0.320  0.6214 -0.5510 -2.5268
   61DG     H23 1403   4.471   3.189   0.321 -0.0030 -0.5868  0.7337
   62DG      C1 1404   4.531   1.539   3.555 -0.3462  0.0065  0.2584
   62DG      C2 1405   4.005   1.388   3.919  0.3863 -0.9169  0.0668
   62DG      H3 1406   4.474   1.632   3.566  0.8415  0.5983  1.7769
   62DG      H4 1407   4.511   1.502   3.455  1.2093 -1.1416  0.3356
   62DG      H5 1408   4.639   1.553   3.564 -0.7082  1.4903  3.9306
   62DG      H6 1409   3.952   1.322   3.987  0.4717 -1.2544 -0.1908
   62DG      H7 1410   4.048   1.471   3.975  1.0219 -0.2166 -1.3923
   62DG      H8 1411   3.933   1.431   3.849 -0.6824 -1.6590  0.6825
   62DG      O9 1412   4.485   1.453   3.656 -0.2480 -0.2949 -0.4856
   62DG     O10 1413   4.108   1.321   3.850  0.4253  0.2852  0.3408
   62DG     C11 1414   4.540   1.330   3.647 -0.6756  0.0773  0.5116
   62DG     C12 1415   4.200   1.257   3.938 -0.4136 -0.1771 -0.1601
   62DG     H13 1416   4.649   1.328   3.653 -0.7202 -2.3527  1.5340
   62DG     H14 1417   4.504   1.290   3.552  1.0050 -0.9431  0.2589
   62DG     H15 1418   4.147   1.195   4.010  0.8364  0.6278  1.5224
   62DG     H16 1419   4.258   1.335   3.989  2.6429 -2.1246 -0.3769
   62DG     C17 1420   4.492   1.238   3.762  0.3051 -0.0449  0.9181
   62DG     C18 1421   4.293   1.163   3.858  0.3024 -0.1109 -0.2452
   62DG     O19 1422   4.349   1.234   3.745  0.6405  0.1475 -0.4813
   62DG     H20 1423   4.526   1.275   3.858  2.2425 -1.8088  0.9828
   62DG     H21 1424   4.542   1.141   3.751 -1.6423 -1.3511  2.7144
   62DG     H22 1425   4.367   1.130   3.931 -0.9223 -0.7535  0.7525
   62DG     H23 1426   4.237   1.078   3.818 -0.1667 -1.1476  2.4133
   63DG      C1 1427   2.390   4.963   3.111  0.4923  0.7277 -0.3888
   63DG      C2 1428   1.780   5.253   3.159 -0.2709 -0.2738 -0.3500
   63DG      H3 1429   2.401   4.932   3.215  0.5057  1.4907 -0.1568
   63DG      H4 1430   2.438   5.059   3.095  0.7048  0.5981 -0.5498
   63DG      H5 1431   2.451   4.893   3.052  0.7547  0.6238  0.0042
   63DG      H6 1432   1.756   5.225   3.261  2.0431 -1.4496 -0.0640
   63DG      H7 1433   1.833   5.348   3.155 -0.2760 -0.3053 -2.5264
   63DG      H8 1434   1.678   5.268   3.123 -1.3025 -1.9342  1.6624
   63DG      O9 1435   2.256   4.969   3.070  0.6295  0.1314 -0.6937
   63DG     O10 1436   1.836   5.158   3.073  0.3126  0.7116  0.0419
   63DG     C11 1437   2.215   4.835   3.044  0.5305 -0.0903 -0.4329
   63DG     C12 1438   1.780   5.024   3.101  0.2601 -0.1128 -0.0010
   63DG     H13 1439   2.212   4.767   3.129 -0.2955 -2.1024 -1.9716
   63DG     H14 1440   2.276   4.780   2.973  0.7996 -0.0856 -0.2049
   63DG     H15 1441   1.679   5.023   3.061 -0.4642  1.0565  1.6927
   63DG     H16 1442   1.768   5.005   3.208  0.6914 -0.6926 -0.0500
   63DG     C17 1443   2.074   4.845   2.978  0.3646  0.6448  0.7064
   63DG     C18 1444   1.852   4.913   3.025 -0.1208 -0.2787  0.2704
   63DG     O19 1445   1.992   4.925   3.059  0.1485 -0.2998  0.2885
   63DG     H20 1446   2.026   4.746   2.984  1.2800  0.2530  2.2411
   63DG     H21 1447   2.094   4.885   2.879  2.3746 -0.1525  0.7419
   63DG     H22 1448   1.799   4.820   3.044 -2.4543  0.8937 -0.0279
   63DG     H23 1449   1.846   4.936   2.918 -2.3672  3.0660  0.9287
   64DG      C1 1450   0.438   3.261   0.869 -0.2678 -0.4614  0.4276
   64DG      C2 1451   0.496   2.611   0.875  0.6222 -0.4136  0.3181
   64DG      H3 1452   0.449   3.338   0.946 -0.1791  1.8615 -1.7790
   64DG      H4 1453   0.344   3.275   0.816  0.0090 -1.5297 -0.3639
   64DG      H5 1454   0.514   3.255   0.792 -0.1178  0.9750  0.4344
   64DG      H6 1455   0.596   2.632   0.836  0.5979  0.1440  0.5419
   64DG      H7 1456   0.522   2.532   0.946  1.5282 -0.7473 -0.3680
   64DG      H8 1457   0.437   2.570   0.793  1.4768 -1.3000  0.1248
   64DG      O9 1458   0.409   3.134   0.926  0.0452  0.0690  0.5305
   64DG     O10 1459   0.443   2.729   0.932  0.1998 -0.6049  0.5237
   64DG     C11 1460   0.308   3.144   1.027 -0.2704  0.0621 -0.4530
   64DG     C12 1461   0.322   2.707   0.996  0.4144  0.4900 -0.9108
   64DG     H13 1462   0.233   3.212   0.987  0.8637  1.2708 -0.5859
   64DG     H14 1463   0.347   3.189   1.118  0.0208 -1.7972  0.3912
   64DG     H15 1464   0.299   2.606   1.032 -0.3222  1.1644  0.6154
   64DG     H16 1465   0.244   2.746   0.930  0.7275 -1.9030 -2.8639
   64DG     C17 1466   0.246   3.010   1.057  0.1492  0.5260  0.2244
   64DG     C18 1467   0.312   2.799   1.127  0.4964 -0.4388  0.7294
   64DG     O19 1468   0.351   2.934   1.109 -0.2642  0.2683 -0.2218
   64DG     H20 1469   0.204   2.961   0.969  2.0909  0.1700 -0.5498
   64DG     H21 1470   0.174   3.027   1.137  0.0284 -0.1470  0.2655
   64DG     H22 1471   0.222   2.775   1.183  0.1829 -0.7005  0.1194
   64DG     H23 1472   0.395   2.755   1.182  0.4368 -0.8630  0.4871
   65DG      C1 1473   3.109   0.151   2.822  0.0832 -0.1878 -0.5804
   65DG      C2 1474   3.077   0.580   2.212  0.1436 -0.6912  0.3359
   65DG      H3 1475   3.119   0.061   2.883 -0.5789  1.2059  1.7084
   65DG      H4 1476   3.012   0.150   2.772  0.0836 -1.8855 -0.6028
   65DG      H5 1477   3.112   0.223   2.904 -1.6294  1.7493 -2.1036
   65DG      H6 1478   3.005   0.548   2.136  0.0050 -2.5071  1.1788
   65DG      H7 1479   3.036   0.647   2.287  1.1351  0.7088 -0.3111
   65DG      H8 1480   3.143   0.642   2.151 -1.4786  1.7870  0.9399
   65DG      O9 1481   3.231   0.174   2.747  0.2206  0.0102 -0.5133
   65DG     O10 1482   3.117   0.458   2.276  0.3276  0.5782  0.1695
   65DG     C11 1483   3.247   0.082   2.636  0.0884  0.4818 -1.0427
   65DG     C12 1484   3.014   0.407   2.366 -0.2955  0.2447 -0.6493
   65DG     H13 1485   3.229  -0.022   2.665  0.6682  0.4965 -0.6337
   65DG     H14 1486   3.351   0.102   2.610  0.2626  0.3494 -0.4572
   65DG     H15 1487   2.915   0.420   2.322 -0.3527 -0.4252 -0.7317
   65DG     H16 1488   3.023   0.455   2.463  0.4557  0.3817 -0.7841
   65DG     C17 1489   3.151   0.097   2.518  0.4129  0.4683  0.6350
   65DG     C18 1490   3.036   0.254   2.387 -0.0124 -0.3867  0.0251
   65DG     O19 1491   3.148   0.228   2.470  0.2373 -0.5557 -0.0116
   65DG     H20 1492   3.051   0.060   2.539 -0.1962  1.4743 -0.3568
   65DG     H21 1493   3.189   0.036   2.435 -0.3208 -0.1173  0.7186
   65DG     H22 1494   2.947   0.198   2.415 -0.3682 -0.8945 -1.9596
   65DG     H23 1495   3.061   0.213   2.289  1.7752 -0.5351  0.5032
   66DG      C1 1496   5.119   5.109   2.149  0.1290 -0.5995 -0.4632
   66DG      C2 1497   5.722   5.399   2.063 -0.2361  0.4776 -0.2040
   66DG      H3 1498   5.053   5.193   2.125  0.3107 -0.2419  0.2509
   66DG      H4 1499   5.053   5.037   2.198  1.8366 -1.3510  0.8425
   66DG      H5 1500   5.166   5.072   2.058 -0.0506 -0.6818 -0.5226
   66DG      H6 1501   5.664   5.481   2.022 -0.0366  1.2278  0.9519
   66DG      H7 1502   5.808   5.443   2.114 -0.1057  0.3811 -0.3389
   66DG      H8 1503   5.763   5.335   1.984  0.7316  1.0411 -0.1669
   66DG      O9 1504   5.229   5.148   2.233 -0.3803  0.0674  0.1993
   66DG     O10 1505   5.645   5.330   2.155 -0.2300 -0.2336  0.4674
   66DG     C11 1506   5.308   5.037   2.275  0.1097 -0.0929  0.0551
   66DG     C12 1507   5.717   5.262   2.255 -0.1927 -0.4552  0.0318
   66DG     H13 1508   5.364   4.997   2.190 -2.0118 -1.2973 -0.8621
   66DG     H14 1509   5.247   4.955   2.314  0.6972 -1.0898 -1.0288
   66DG     H15 1510   5.785   5.331   2.305  1.6185 -0.5080 -2.1640
   66DG     H16 1511   5.783   5.193   2.202  1.3204  1.3800 -0.5902
   66DG     C17 1512   5.409   5.081   2.374  0.5275  0.0963 -0.1211
   66DG     C18 1513   5.629   5.189   2.355 -0.1106  0.1301 -0.4363
   66DG     O19 1514   5.513   5.139   2.289  0.3061 -0.0328  0.0306
   66DG     H20 1515   5.437   5.002   2.444  0.9067  1.1865  0.9865
   66DG     H21 1516   5.355   5.156   2.433 -0.6322 -0.2606 -0.7048
   66DG     H22 1517   5.688   5.107   2.395 -1.7564 -1.4989 -1.2420
   66DG     H23 1518   5.602   5.257   2.435  0.3103  1.0168 -1.0276
   67DG      C1 1519   1.955   5.051   2.562 -0.4729 -0.1572 -0.3035
   67DG      C2 1520   2.555   4.898   2.203 -0.6325 -0.4928  0.5186
   67DG      H3 1521   1.902   5.136   2.519  1.4063  1.0789 -0.2768
   67DG      H4 1522   2.020   5.099   2.636 -0.8738 -0.1187  0.0340
   67DG      H5 1523   1.882   4.990   2.616  0.2425 -2.0907 -1.4351
   67DG      H6 1524   2.633   4.908   2.278 -1.4290 -1.1634  1.4665
   67DG      H7 1525   2.592   4.818   2.139  0.0106  2.5608 -3.2421
   67DG      H8 1526   2.558   4.995   2.153 -2.5094 -0.5344  0.2542
   67DG      O9 1527   2.019   4.965   2.478 -0.2766 -0.1497  0.4796
   67DG     O10 1528   2.419   4.870   2.235  0.1106  0.4371 -0.4856
   67DG     C11 1529   1.933   4.932   2.371 -0.2271 -0.2661 -0.8950
   67DG     C12 1530   2.330   4.840   2.122  0.0052 -0.2872 -0.4194
   67DG     H13 1531   1.935   5.022   2.309  1.0850  1.2546  1.2275
   67DG     H14 1532   1.829   4.913   2.398 -0.1795  0.7649  0.0600
   67DG     H15 1533   2.384   4.770   2.059 -0.5047 -0.6632 -0.4475
   67DG     H16 1534   2.306   4.937   2.079  0.2385  1.1012  2.3214
   67DG     C17 1535   1.995   4.819   2.292  0.7237 -0.3078  0.1421
   67DG     C18 1536   2.200   4.774   2.172 -0.2175  0.0235 -0.1510
   67DG     O19 1537   2.129   4.860   2.258 -0.0783  0.1362 -0.1981
   67DG     H20 1538   1.936   4.814   2.201 -0.9950 -1.1261  1.2542
   67DG     H21 1539   1.999   4.723   2.344  3.0177  0.3894  1.3933
   67DG     H22 1540   2.135   4.752   2.088  1.1381  0.7958 -1.4401
   67DG     H23 1541   2.224   4.678   2.218  2.6575 -0.0314 -1.5495
   68DG      C1 1542   3.862   3.490   3.474  1.1911 -0.2273  0.4932
   68DG      C2 1543   4.066   3.272   4.044  0.8358 -0.3240  0.4632
   68DG      H3 1544   3.795   3.530   3.398  1.9648 -1.3554 -0.8373
   68DG      H4 1545   3.914   3.397   3.450 -0.2575 -0.6486 -1.2134
   68DG      H5 1546   3.942   3.564   3.478 -0.2063  1.3023  1.3242
   68DG      H6 1547   4.090   3.171   4.009 -0.7336 -0.5362 -0.0676
   68DG      H7 1548   4.152   3.339   4.034  0.6281  0.5030  3.2908
   68DG      H8 1549   4.059   3.272   4.153  1.5983  1.9191  0.5548
   68DG      O9 1550   3.805   3.486   3.601 -0.0132 -0.6793  0.3318
   68DG     O10 1551   3.941   3.318   3.985 -0.8588 -0.0323 -0.6127
   68DG     C11 1552   3.683   3.407   3.613  0.1588  0.8112 -0.5645
   68DG     C12 1553   3.832   3.249   4.034 -0.0973 -0.1222 -0.0187
   68DG     H13 1554   3.683   3.315   3.554 -0.7167  1.5916 -1.8296
   68DG     H14 1555   3.619   3.482   3.567 -1.3015 -0.3197 -0.4374
   68DG     H15 1556   3.827   3.246   4.142  2.1012  1.1562  0.1948
   68DG     H16 1557   3.852   3.147   4.001 -0.7663 -0.7829  1.5661
   68DG     C17 1558   3.637   3.381   3.758 -0.0869  0.7632 -0.4063
   68DG     C18 1559   3.703   3.300   3.973  0.1908 -0.2752  0.3995
   68DG     O19 1560   3.740   3.335   3.841  0.2394  0.6383 -0.4111
   68DG     H20 1561   3.553   3.312   3.766 -0.5841  1.4389  0.3828
   68DG     H21 1562   3.605   3.478   3.798  0.9545 -0.4537  3.8451
   68DG     H22 1563   3.626   3.223   3.973 -1.0527  0.9425  0.2827
   68DG     H23 1564   3.666   3.383   4.033  0.3258 -0.0420  0.1632
   69DG      C1 1565   4.535   3.216   1.364  1.0011  0.5365 -0.1993
   69DG      C2 1566   4.956   3.703   1.594  0.5589 -0.2668  0.1472
   69DG      H3 1567   4.605   3.196   1.282  0.6791 -1.5128 -0.0264
   69DG      H4 1568   4.436   3.192   1.326  1.3884 -1.2056 -0.1918
   69DG      H5 1569   4.556   3.151   1.449 -1.4188  0.1063  0.1323
   69DG      H6 1570   5.018   3.649   1.523  0.2271 -0.3267 -0.1049
   69DG      H7 1571   4.988   3.807   1.581 -1.1614  0.6851  2.7798
   69DG      H8 1572   4.987   3.666   1.691  0.7890 -0.6273 -0.0640
   69DG      O9 1573   4.539   3.352   1.403 -0.5857 -0.1793 -0.1543
   69DG     O10 1574   4.816   3.694   1.574 -0.2056 -0.3464  0.3853
   69DG     C11 1575   4.450   3.438   1.342  0.2864 -0.0778 -0.6023
   69DG     C12 1576   4.775   3.773   1.458 -0.1440 -0.0713 -0.5669
   69DG     H13 1577   4.345   3.410   1.347  0.7487 -1.7443  1.1493
   69DG     H14 1578   4.463   3.439   1.234 -0.9379  2.6985 -0.8273
   69DG     H15 1579   4.817   3.723   1.370  0.3325  0.0935 -0.4369
   69DG     H16 1580   4.796   3.880   1.462  0.8409 -0.1894 -1.6976
   69DG     C17 1581   4.468   3.575   1.402  0.3439 -0.4707 -0.4290
   69DG     C18 1582   4.624   3.740   1.460 -0.1105  0.8787 -1.4870
   69DG     O19 1583   4.607   3.606   1.418  0.9151  0.0493  0.1781
   69DG     H20 1584   4.412   3.589   1.494 -0.7146  2.8778 -1.4553
   69DG     H21 1585   4.424   3.651   1.339  0.0157  1.4638  1.9956
   69DG     H22 1586   4.572   3.752   1.555 -0.1946 -0.8694 -1.2761
   69DG     H23 1587   4.581   3.813   1.391 -2.7998  1.6330  0.7940
   70DG      C1 1588   0.706   0.597   5.084 -0.1419 -0.6235  0.3406
   70DG      C2 1589   0.382   0.288   4.583  0.2893  0.3947 -0.0674
   70DG      H3 1590   0.602   0.563   5.084  0.0785 -1.2974 -0.0215
   70DG      H4 1591   0.714   0.687   5.146 -0.4227  0.1784 -0.7548
   70DG      H5 1592   0.777   0.522   5.117  1.2367  1.3158  2.0751
   70DG      H6 1593   0.290   0.256   4.533  0.8871  0.2760 -1.1160
   70DG      H7 1594   0.419   0.387   4.555  4.1185 -0.8183  0.1813
   70DG      H8 1595   0.452   0.222   4.532 -0.2228 -1.7495  1.8401
   70DG      O9 1596   0.740   0.642   4.950  0.5766  0.3880  0.3694
   70DG     O10 1597   0.384   0.279   4.724 -0.1940  0.1552  0.0612
   70DG     C11 1598   0.733   0.529   4.858 -0.4184  0.0889  0.4681
   70DG     C12 1599   0.289   0.362   4.793 -0.1813 -0.1901 -0.0509
   70DG     H13 1600   0.764   0.437   4.908 -1.7140 -0.7152 -0.1634
   70DG     H14 1601   0.811   0.552   4.784  0.3768  1.4148  1.6542
   70DG     H15 1602   0.255   0.311   4.884 -2.3132  0.5431 -0.3810
   70DG     H16 1603   0.199   0.399   4.745  0.8994  1.2275 -1.0522
   70DG     C17 1604   0.599   0.494   4.783  0.3883 -0.5343 -0.5289
   70DG     C18 1605   0.364   0.484   4.837  0.7797  0.0057  0.2934
   70DG     O19 1606   0.496   0.483   4.884  0.4285  0.0112  0.4344
   70DG     H20 1607   0.616   0.402   4.728  0.7152  0.4197 -2.0961
   70DG     H21 1608   0.569   0.570   4.710 -0.7489  0.5668  1.0007
   70DG     H22 1609   0.371   0.560   4.759  2.7357 -0.6474 -0.2384
   70DG     H23 1610   0.306   0.519   4.922  0.6987  0.5771  0.0089
   71DG      C1 1611   1.021   4.448   3.571 -0.1257  0.3215 -0.5483
   71DG      C2 1612   1.551   4.144   3.794  0.1977  0.1132  1.1119
   71DG      H3 1613   0.975   4.433   3.473  0.1925 -1.6511 -0.4248
   71DG      H4 1614   1.006   4.553   3.599  0.0560  0.5914 -1.4251
   71DG      H5 1615   0.985   4.390   3.656 -0.8565  0.1362 -0.9740
   71DG      H6 1616   1.484   4.058   3.787  3.1497 -2.2501 -1.1674
   71DG      H7 1617   1.652   4.103   3.801  0.7984  0.5195 -2.7581
   71DG      H8 1618   1.525   4.197   3.885  0.9422  0.8493  0.9076
   71DG      O9 1619   1.159   4.445   3.556 -0.1350  0.2592  0.2685
   71DG     O10 1620   1.529   4.238   3.687  0.0694  0.2214 -1.0576
   71DG     C11 1621   1.220   4.548   3.481  0.0151 -0.4249 -0.0706
   71DG     C12 1622   1.616   4.350   3.689  0.0603 -0.5108 -0.0094
   71DG     H13 1623   1.208   4.644   3.533  0.0761  0.9094 -2.3828
   71DG     H14 1624   1.176   4.557   3.382 -1.0268  0.3943  0.4484
   71DG     H15 1625   1.720   4.322   3.678  0.1478 -0.7677  1.3543
   71DG     H16 1626   1.606   4.408   3.780  2.6324  0.4884 -0.2867
   71DG     C17 1627   1.366   4.515   3.467 -0.5350  0.0785  0.1077
   71DG     C18 1628   1.569   4.437   3.569 -0.4569 -0.5092  0.2116
   71DG     O19 1629   1.429   4.461   3.585  0.5245 -0.6768  0.6026
   71DG     H20 1630   1.422   4.604   3.435  0.6578 -1.0506 -1.1242
   71DG     H21 1631   1.389   4.442   3.389 -1.7806  0.3819 -0.5713
   71DG     H22 1632   1.616   4.535   3.556 -0.6261 -0.4537  0.0199
   71DG     H23 1633   1.605   4.376   3.486  0.8350 -1.4851  1.4395
   72DG      C1 1634   2.804   1.204   3.855 -0.3585  0.2030 -0.1875
   72DG      C2 1635   2.517   1.680   3.449 -0.2246  0.0046 -0.3213
   72DG      H3 1636   2.867   1.183   3.769 -0.2560 -0.0875 -0.0452
   72DG      H4 1637   2.719   1.140   3.829  1.0097 -0.9877 -1.9646
   72DG      H5 1638   2.853   1.161   3.942  0.1508  0.5903 -0.2791
   72DG      H6 1639   2.516   1.782   3.412 -2.3716  0.0678 -0.2511
   72DG      H7 1640   2.590   1.624   3.392 -0.3606 -1.3810  0.8212
   72DG      H8 1641   2.421   1.631   3.431  0.3702 -1.7652  1.0051
   72DG      O9 1642   2.763   1.339   3.878 -0.3228  0.5383 -0.5384
   72DG     O10 1643   2.568   1.677   3.579 -0.0392  0.0677  0.1151
   72DG     C11 1644   2.654   1.361   3.958 -0.0800 -0.3297 -0.0606
   72DG     C12 1645   2.457   1.698   3.675  1.3011  0.1466 -0.1214
   72DG     H13 1646   2.671   1.337   4.063  0.0516 -1.1229 -0.2574
   72DG     H14 1647   2.572   1.303   3.915  0.7697 -1.0424 -0.7625
   72DG     H15 1648   2.371   1.636   3.650  0.4277  1.0878  0.4198
   72DG     H16 1649   2.423   1.800   3.656  1.5091  0.2089 -0.1619
   72DG     C17 1650   2.611   1.511   3.958 -0.6787  0.2399  0.3005
   72DG     C18 1651   2.513   1.692   3.815 -0.6139 -0.5380 -0.3017
   72DG     O19 1652   2.553   1.554   3.833  0.0427 -0.5995  0.2122
   72DG     H20 1653   2.704   1.567   3.965  0.6418 -1.5608 -1.6111
   72DG     H21 1654   2.536   1.532   4.034 -0.2028 -0.8789  1.1062
   72DG     H22 1655   2.615   1.731   3.816 -0.0989 -1.8021  1.5130
   72DG     H23 1656   2.455   1.725   3.900 -0.8410 -0.6437 -0.4162
   73DG      C1 1657   5.188   1.832   4.695 -0.4657  0.5338 -0.5766
   73DG      C2 1658   5.781   1.810   5.006  0.3059 -0.7387  0.4125
   73DG      H3 1659   5.156   1.744   4.639  1.8781 -0.6760 -0.1645
   73DG      H4 1660   5.132   1.920   4.666 -0.7005  1.1433  1.5322
   73DG      H5 1661   5.178   1.815   4.802  3.5629 -2.9048 -0.4853
   73DG      H6 1662   5.885   1.778   5.007  0.7602  0.6579  0.8319
   73DG      H7 1663   5.760   1.901   5.062 -0.9196 -0.9961  0.3818
   73DG      H8 1664   5.723   1.733   5.055  2.1915 -1.8186  1.0619
   73DG      O9 1665   5.330   1.851   4.674  0.6223 -0.4062 -0.3125
   73DG     O10 1666   5.717   1.848   4.887  0.2240  0.0891  0.0759
   73DG     C11 1667   5.372   1.841   4.543 -0.0842  0.5827  0.3141
   73DG     C12 1668   5.783   1.815   4.767 -0.0892  0.0259  0.1701
   73DG     H13 1669   5.307   1.903   4.481 -0.9206 -0.7181 -0.1470
   73DG     H14 1670   5.379   1.739   4.504 -1.8813  1.3721 -2.4186
   73DG     H15 1671   5.780   1.708   4.751 -0.1521 -0.0428  0.6165
   73DG     H16 1672   5.887   1.848   4.769  0.0256 -0.3159 -0.1513
   73DG     C17 1673   5.509   1.900   4.543 -0.1257  0.1775 -0.2509
   73DG     C18 1674   5.717   1.883   4.650  0.0434 -0.6150  0.4390
   73DG     O19 1675   5.582   1.843   4.655 -0.2432 -0.3486  0.4555
   73DG     H20 1676   5.501   2.009   4.551  0.0596  0.2915 -1.4221
   73DG     H21 1677   5.550   1.874   4.445  1.4634  1.7464 -0.0526
   73DG     H22 1678   5.725   1.991   4.656 -3.7315  0.0793 -2.6726
   73DG     H23 1679   5.754   1.835   4.559  0.3757 -0.3252  0.4196
   74DG      C1 1680   0.853   1.025   3.873 -0.0308  0.1163 -0.0733
   74DG      C2 1681   1.533   1.127   3.964  0.6341 -0.5514 -0.2471
   74DG      H3 1682   0.761   0.998   3.925  0.6717 -1.3448  0.4387
   74DG      H4 1683   0.856   0.962   3.784  1.7025  1.0938 -0.7576
   74DG      H5 1684   0.843   1.127   3.835 -1.1626 -0.4962 -1.5470
   74DG      H6 1685   1.617   1.171   4.017  1.7177  0.2246 -2.4869
   74DG      H7 1686   1.579   1.058   3.894 -0.4626 -1.3051 -0.2490
   74DG      H8 1687   1.485   1.199   3.898  2.0134 -1.7400 -2.6708
   74DG      O9 1688   0.963   1.007   3.961 -0.4178  0.0794 -0.6055
   74DG     O10 1689   1.435   1.054   4.038  0.1238 -0.4942 -0.6618
   74DG     C11 1690   0.955   1.085   4.081 -0.2247  0.5816 -0.2782
   74DG     C12 1691   1.410   1.123   4.161 -0.0363  0.0246  0.2968
   74DG     H13 1692   0.853   1.074   4.118  0.7331  1.3358  2.9405
   74DG     H14 1693   0.960   1.191   4.054  2.4228  0.6776  0.4058
   74DG     H15 1694   1.379   1.222   4.129 -0.9553 -0.6196 -0.8441
   74DG     H16 1695   1.492   1.132   4.233 -1.3476  1.5343  1.7148
   74DG     C17 1696   1.060   1.037   4.183  0.6253 -0.5239  0.6879
   74DG     C18 1697   1.291   1.045   4.217 -0.6402  0.3514 -0.3875
   74DG     O19 1698   1.185   1.049   4.124 -0.0704  0.3658  0.8144
   74DG     H20 1699   1.048   0.934   4.217  0.7539 -0.7583  0.0384
   74DG     H21 1700   1.048   1.090   4.278  0.0632  1.5975 -0.5008
   74DG     H22 1701   1.315   0.941   4.241  2.3172  1.2333  0.9339
   74DG     H23 1702   1.259   1.080   4.315 -2.1036  0.0782 -0.7451
   75DG      C1 1703   2.289   0.909   5.407 -0.1037  0.0856  0.7624
   75DG      C2 1704   2.802   0.509   4.984 -0.5600 -0.2992 -0.4631
   75DG      H3 1705   2.250   0.954   5.316  1.7575  1.4626  0.5899
   75DG      H4 1706   2.350   0.989   5.447 -0.1212 -0.2915  1.5590
   75DG      H5 1707   2.216   0.898   5.487  1.4229  1.7149  2.4774
   75DG      H6 1708   2.793   0.602   4.929 -0.0712 -0.2481 -0.4680
   75DG      H7 1709   2.901   0.506   5.031  0.5143  0.0163 -2.5618
   75DG      H8 1710   2.820   0.432   4.909  2.4225 -0.2783  0.0750
   75DG      O9 1711   2.357   0.783   5.366 -0.0587  0.5053 -0.7130
   75DG     O10 1712   2.691   0.494   5.062 -0.2162  0.0361 -0.2734
   75DG     C11 1713   2.479   0.797   5.289  0.0669 -0.1992  0.2495
   75DG     C12 1714   2.564   0.470   4.995 -0.3332  0.7276  0.3560
   75DG     H13 1715   2.566   0.837   5.341 -0.5550  2.1573 -0.4039
   75DG     H14 1716   2.477   0.860   5.200  1.0037  0.7192  0.8569
   75DG     H15 1717   2.559   0.374   4.944 -0.7691  1.4624 -1.0518
   75DG     H16 1718   2.549   0.550   4.923 -0.0277  0.6768  0.2344
   75DG     C17 1719   2.514   0.652   5.248  0.2689  0.4791 -0.2759
   75DG     C18 1720   2.455   0.477   5.103 -0.2433 -0.1125 -0.4656
   75DG     O19 1721   2.427   0.610   5.138 -0.0380 -0.0344 -0.8436
   75DG     H20 1722   2.492   0.603   5.343 -1.2563  0.3980 -0.6544
   75DG     H21 1723   2.621   0.643   5.230  0.0821  0.0242 -1.2250
   75DG     H22 1724   2.361   0.440   5.063 -0.4213 -2.7325  2.0407
   75DG     H23 1725   2.488   0.414   5.186 -1.7399 -0.5696 -0.1856
   76DG      C1 1726   0.495   2.016   5.313  0.0658 -0.3889  0.2926
   76DG      C2 1727   1.013   1.672   5.491  0.1015 -1.0169 -0.3976
   76DG      H3 1728   0.441   2.108   5.335 -0.6916  0.3881 -4.0335
   76DG      H4 1729   0.430   1.962   5.245  1.4253 -2.2402  0.4038
   76DG      H5 1730   0.587   2.049   5.263  0.4943  1.9221  2.3884
   76DG      H6 1731   1.001   1.675   5.382  0.8533 -0.6900 -0.4773
   76DG      H7 1732   1.094   1.745   5.502 -1.3838  1.0031 -1.9699
   76DG      H8 1733   1.038   1.569   5.516  2.1606 -0.2868  0.7888
   76DG      O9 1734   0.540   1.947   5.421  0.0301 -0.2916 -0.4420
   76DG     O10 1735   0.892   1.713   5.556 -0.1860 -0.0454  0.1968
   76DG     C11 1736   0.448   1.875   5.497 -0.1528  0.1123  0.2807
   76DG     C12 1737   0.827   1.614   5.628  0.2258  0.0077 -0.6428
   76DG     H13 1738   0.392   1.807   5.433 -0.1256 -0.2231  0.6066
   76DG     H14 1739   0.372   1.932   5.553 -1.1317 -4.0654  3.7725
   76DG     H15 1740   0.898   1.578   5.702 -0.0382  1.5564  0.4271
   76DG     H16 1741   0.802   1.528   5.566  0.9995  1.1745 -2.6826
   76DG     C17 1742   0.506   1.807   5.622 -0.3895  0.5610  0.0279
   76DG     C18 1743   0.705   1.684   5.690  0.3631  0.0557  0.0216
   76DG     O19 1744   0.624   1.740   5.582  0.1034  0.2260 -0.6924
   76DG     H20 1745   0.429   1.733   5.643  0.2132 -0.0541  0.1029
   76DG     H21 1746   0.523   1.875   5.705  0.8200 -0.2902  0.5184
   76DG     H22 1747   0.641   1.619   5.750  0.4689 -0.7714 -0.7345
   76DG     H23 1748   0.738   1.765   5.754  0.0032  1.4935 -1.5336
   77DG      C1 1749   4.122   3.132   3.682  0.1091 -0.2335 -1.0746
   77DG      C2 1750   3.819   3.709   3.848 -0.1219 -1.1241  0.2231
   77DG      H3 1751   4.204   3.060   3.687  0.1273 -0.2114 -1.0574
   77DG      H4 1752   4.084   3.115   3.581  0.1802 -2.3613 -0.7997
   77DG      H5 1753   4.045   3.112   3.757  0.9634  3.6300  1.0393
   77DG      H6 1754   3.818   3.811   3.887 -1.1795 -1.5597  1.4221
   77DG      H7 1755   3.760   3.712   3.757 -0.3271  2.0458  0.3652
   77DG      H8 1756   3.754   3.653   3.916 -1.2498  0.4207  0.4740
   77DG      O9 1757   4.164   3.266   3.705 -0.2803 -0.1645  0.5246
   77DG     O10 1758   3.943   3.659   3.809  0.0902 -0.3271  0.4553
   77DG     C11 1759   4.236   3.316   3.597 -0.4807 -0.4404  0.2272
   77DG     C12 1760   4.015   3.732   3.708 -0.1303 -0.4878 -0.3863
   77DG     H13 1761   4.172   3.313   3.508 -0.2910 -2.3053  0.1032
   77DG     H14 1762   4.333   3.272   3.574 -0.6315  0.3311 -2.2256
   77DG     H15 1763   4.039   3.828   3.752 -1.4849 -0.2985 -0.0244
   77DG     H16 1764   3.957   3.740   3.616 -0.4861  1.2230 -0.0366
   77DG     C17 1765   4.259   3.465   3.628  0.1094  0.2390 -0.0810
   77DG     C18 1766   4.157   3.673   3.685  0.1098 -0.6335  0.0197
   77DG     O19 1767   4.141   3.538   3.655  0.2292  0.3306  0.1939
   77DG     H20 1768   4.317   3.511   3.548 -2.3929  1.1299 -1.4712
   77DG     H21 1769   4.316   3.489   3.718  0.0618 -0.3721  0.1194
   77DG     H22 1770   4.197   3.720   3.595  1.0857 -0.7275  0.3937
   77DG     H23 1771   4.232   3.684   3.763  0.6709 -1.9390 -0.2925
   78DG      C1 1772   4.868   4.401   2.460  1.0651 -0.5910  0.2803
   78DG      C2 1773   4.147   4.634   2.640  0.8950 -0.4127  0.5930
   78DG      H3 1774   4.899   4.399   2.564  2.9327 -2.4155 -0.2611
   78DG      H4 1775   4.868   4.503   2.422  0.7423 -0.7407 -0.1360
   78DG      H5 1776   4.921   4.331   2.395 -0.7914 -0.2401 -1.7300
   78DG      H6 1777   4.129   4.652   2.746 -2.8853  2.5401 -0.3350
   78DG      H7 1778   4.074   4.700   2.593 -0.5439 -2.7897 -0.7389
   78DG      H8 1779   4.113   4.531   2.623 -1.1673  0.3322 -0.1008
   78DG      O9 1780   4.732   4.364   2.444  0.0653  0.2838 -0.3362
   78DG     O10 1781   4.275   4.664   2.585  0.6846 -0.3621 -0.2270
   78DG     C11 1782   4.674   4.379   2.322  0.0242  0.1948  0.8847
   78DG     C12 1783   4.277   4.638   2.442 -0.2487 -0.0572 -0.1717
   78DG     H13 1784   4.590   4.314   2.296  0.3116  0.4371 -0.8041
   78DG     H14 1785   4.749   4.378   2.242  0.8956 -0.0605  1.6859
   78DG     H15 1786   4.223   4.718   2.391  0.4010  1.2478  1.1086
   78DG     H16 1787   4.220   4.548   2.423 -1.2028  0.6622 -0.7899
   78DG     C17 1788   4.610   4.515   2.315  0.9428  0.0265 -0.0868
   78DG     C18 1789   4.416   4.644   2.374  0.2346 -0.1542 -0.2748
   78DG     O19 1790   4.496   4.523   2.397  0.6036  0.3668  0.7309
   78DG     H20 1791   4.577   4.526   2.212 -3.6714  1.2500  1.2847
   78DG     H21 1792   4.680   4.595   2.341  1.0331 -0.1389  0.1801
   78DG     H22 1793   4.397   4.661   2.268  0.8912 -1.2488 -0.5767
   78DG     H23 1794   4.469   4.732   2.410 -1.0068  0.6330 -0.3039
   79DG      C1 1795   3.945   2.430   4.305  0.0513  0.3709 -0.1861
   79DG      C2 1796   3.327   2.473   4.195 -0.2376 -0.4364 -0.4269
   79DG      H3 1797   3.925   2.512   4.236  2.0394  0.0629 -1.1918
   79DG      H4 1798   3.962   2.334   4.255  1.5703  1.2628 -1.4579
   79DG      H5 1799   4.035   2.460   4.358  0.2993  1.9789 -1.4412
   79DG      H6 1800   3.367   2.430   4.103 -2.0260 -0.8714 -1.0459
   79DG      H7 1801   3.329   2.383   4.255 -0.1380  0.1728  0.4962
   79DG      H8 1802   3.228   2.510   4.166 -0.7722 -1.8535 -0.4771
   79DG      O9 1803   3.823   2.419   4.378  0.3752  0.6338 -0.0918
   79DG     O10 1804   3.424   2.570   4.235  0.3430  0.0027  0.2309
   79DG     C11 1805   3.809   2.458   4.513  0.8842 -0.5531 -0.5613
   79DG     C12 1806   3.401   2.619   4.371  0.2000 -0.5790  0.0718
   79DG     H13 1807   3.846   2.560   4.524 -0.7711  0.2627 -1.9530
   79DG     H14 1808   3.870   2.396   4.578  0.2685  0.5631  1.1325
   79DG     H15 1809   3.293   2.632   4.372  0.1557 -0.4956 -1.9539
   79DG     H16 1810   3.442   2.719   4.385 -0.6123 -0.1030 -0.8161
   79DG     C17 1811   3.662   2.450   4.558  0.6241  0.5354  0.1261
   79DG     C18 1812   3.440   2.521   4.476  0.3079 -0.1303 -0.8134
   79DG     O19 1813   3.574   2.514   4.457 -0.5449 -0.6583 -0.0260
   79DG     H20 1814   3.627   2.504   4.646 -0.7872  1.7118 -1.0886
   79DG     H21 1815   3.626   2.348   4.551 -1.5322  1.2534  0.0195
   79DG     H22 1816   3.421   2.565   4.574 -2.4222  1.4787 -1.9396
   79DG     H23 1817   3.384   2.428   4.477 -0.9701  0.6169 -0.6236
   80DG      C1 1818   0.007   2.400   0.260 -0.7203 -0.9884 -0.6070
   80DG      C2 1819   0.435   2.460  -0.218 -0.0891 -0.0442  0.1830
   80DG      H3 1820   0.057   2.315   0.305 -1.2610 -1.1321 -0.2704
   80DG      H4 1821  -0.090   2.410   0.309  0.6315 -0.1108  2.1042
   80DG      H5 1822   0.064   2.485   0.297 -0.7065 -0.7478 -1.1665
   80DG      H6 1823   0.456   2.551  -0.161 -2.1808  0.5731  0.0500
   80DG      H7 1824   0.508   2.390  -0.176  0.8789  0.9985  0.2896
   80DG      H8 1825   0.481   2.477  -0.315  3.1174  2.9976  2.0151
   80DG      O9 1826   0.008   2.381   0.118  0.3911  0.5106 -0.0641
   80DG     O10 1827   0.297   2.435  -0.216  0.0103 -0.0770  0.1452
   80DG     C11 1828  -0.043   2.247   0.081  0.0846  0.2305 -0.3716
   80DG     C12 1829   0.259   2.317  -0.287 -0.9877  0.1185  0.5246
   80DG     H13 1830  -0.145   2.236   0.117  0.8617 -0.7093  1.6937
   80DG     H14 1831   0.011   2.162   0.123  3.0019  1.7818 -0.7211
   80DG     H15 1832   0.325   2.230  -0.279  0.4397  0.8033 -2.4566
   80DG     H16 1833   0.264   2.350  -0.390 -1.2498  1.4857  0.9294
   80DG     C17 1834  -0.035   2.233  -0.078  0.8563  0.9275  0.0329
   80DG     C18 1835   0.119   2.265  -0.255  0.5267 -0.4044  0.2199
   80DG     O19 1836   0.093   2.263  -0.120  0.0023 -0.5379 -0.1989
   80DG     H20 1837  -0.114   2.284  -0.133  0.5141  1.4565  0.9816
   80DG     H21 1838  -0.048   2.127  -0.098  0.5037  0.9198  0.2943
   80DG     H22 1839   0.045   2.326  -0.306 -0.1139 -1.8035 -0.6080
   80DG     H23 1840   0.115   2.164  -0.297 -0.6004 -0.7958  1.2168
   81DG      C1 1841   4.664   0.110   3.970  0.1072 -0.0646 -0.3287
   81DG      C2 1842   5.130  -0.309   4.150 -0.2563 -0.0610  0.5928
   81DG      H3 1843   4.687   0.206   3.924 -1.4483  0.4031 -0.1879
   81DG      H4 1844   4.681   0.119   4.077  1.9155 -0.4143 -0.5492
   81DG      H5 1845   4.560   0.089   3.945  0.1656  1.5607 -2.1336
   81DG      H6 1846   5.149  -0.413   4.122 -0.1685 -0.0434  0.5853
   81DG      H7 1847   5.229  -0.270   4.173 -0.6054  1.0047  0.3438
   81DG      H8 1848   5.071  -0.304   4.242  0.0725  1.2933  0.7570
   81DG      O9 1849   4.750   0.008   3.915 -0.4248  0.6582  0.0451
   81DG     O10 1850   5.069  -0.241   4.039 -0.0768  0.3333 -0.8090
   81DG     C11 1851   4.736  -0.043   3.782 -0.0214  0.4807  0.0650
   81DG     C12 1852   5.144  -0.247   3.920 -0.4982  0.0529 -0.0280
   81DG     H13 1853   4.759   0.035   3.709 -1.1605  0.0903 -0.7547
   81DG     H14 1854   4.631  -0.065   3.759  0.5683 -1.6801 -0.8226
   81DG     H15 1855   5.199  -0.341   3.912  1.6637  1.1101  1.4505
   81DG     H16 1856   5.210  -0.161   3.910  0.7262 -0.7440  0.8996
   81DG     C17 1857   4.819  -0.172   3.764  0.3811  0.5001  0.2454
   81DG     C18 1858   5.057  -0.235   3.794  0.5530  0.6704  0.4861
   81DG     O19 1859   4.950  -0.137   3.805 -0.2174 -0.3857  0.8687
   81DG     H20 1860   4.815  -0.212   3.662 -0.6149 -1.5898  1.0538
   81DG     H21 1861   4.780  -0.254   3.824 -0.6459 -0.5515 -1.7480
   81DG     H22 1862   5.114  -0.209   3.705 -0.4081 -2.5106 -1.1922
   81DG     H23 1863   5.008  -0.330   3.771 -1.2815  1.3088  1.4844
   82DG      C1 1864   3.486   4.684   3.611  0.4967  0.2455  0.5708
   82DG      C2 1865   2.924   4.344   3.985 -0.0734 -0.8940  0.3655
   82DG      H3 1866   3.549   4.612   3.559 -1.3161  1.3948 -3.6795
   82DG      H4 1867   3.558   4.761   3.638  0.9372 -0.2139  0.7163
   82DG      H5 1868   3.408   4.723   3.544 -1.7963 -2.7797  1.2866
   82DG      H6 1869   2.856   4.423   3.954 -0.3156 -1.1725  0.1717
   82DG      H7 1870   2.929   4.268   3.907 -2.3321 -1.5837  0.8223
   82DG      H8 1871   2.876   4.290   4.067 -2.5187  0.8580  0.1810
   82DG      O9 1872   3.416   4.630   3.722 -0.2765  0.1781 -1.2074
   82DG     O10 1873   3.049   4.386   4.022  0.0473 -0.6821 -0.1441
   82DG     C11 1874   3.337   4.525   3.694  0.4540  0.6356 -0.1051
   82DG     C12 1875   3.062   4.523   4.055  0.8530  0.5874 -0.7220
   82DG     H13 1876   3.394   4.442   3.653 -0.3720  0.5867 -1.1717
   82DG     H14 1877   3.255   4.546   3.625 -1.7817 -0.4423  2.0991
   82DG     H15 1878   3.018   4.546   4.153 -0.6407  1.9386 -1.6450
   82DG     H16 1879   2.996   4.587   3.996  0.8884  2.9890  1.6081
   82DG     C17 1880   3.275   4.486   3.831  0.1749  0.0467 -0.1604
   82DG     C18 1881   3.205   4.575   4.046  0.2505  0.0943 -0.4071
   82DG     O19 1882   3.257   4.601   3.911  0.1364 -0.0624  0.2548
   82DG     H20 1883   3.335   4.420   3.894 -2.2003 -1.1028  1.0697
   82DG     H21 1884   3.182   4.430   3.820 -1.2191  1.6862  2.1642
   82DG     H22 1885   3.213   4.671   4.098  0.6232  0.5342 -1.2508
   82DG     H23 1886   3.265   4.503   4.102  0.5649  0.5625 -0.1272
   83DG      C1 1887   4.156   2.092   3.007 -0.7357 -0.0361 -0.0931
   83DG      C2 1888   4.382   2.421   3.465 -0.4203  0.1482 -0.8727
   83DG      H3 1889   4.106   2.105   2.911  2.2881  2.4349 -1.5422
   83DG      H4 1890   4.116   1.999   3.045  2.9807 -1.5045  0.6448
   83DG      H5 1891   4.262   2.074   2.986 -0.3809  1.6265  0.1035
   83DG      H6 1892   4.458   2.422   3.387 -2.6663 -1.5088 -3.2721
   83DG      H7 1893   4.412   2.495   3.539  1.5081 -3.6920  2.6130
   83DG      H8 1894   4.389   2.322   3.511 -1.0594 -0.6279 -2.3485
   83DG      O9 1895   4.131   2.198   3.096 -0.1791 -0.3534 -0.0745
   83DG     O10 1896   4.262   2.451   3.406  0.1615 -0.1769  0.7094
   83DG     C11 1897   3.991   2.216   3.119 -0.1766  0.2310 -0.4548
   83DG     C12 1898   4.141   2.446   3.477  0.2450 -0.7465  0.2455
   83DG     H13 1899   3.930   2.127   3.105 -0.4877  0.3944 -0.1653
   83DG     H14 1900   3.961   2.281   3.037  1.9053 -1.0500 -2.3651
   83DG     H15 1901   4.143   2.515   3.561  0.1797 -0.1942 -0.2045
   83DG     H16 1902   4.137   2.347   3.524 -2.2647  0.3593  2.6368
   83DG     C17 1903   3.956   2.286   3.253  0.4861 -0.4775 -0.7100
   83DG     C18 1904   4.011   2.472   3.385 -0.3627  1.5478 -0.0083
   83DG     O19 1905   4.025   2.413   3.252 -0.3425 -0.2163  0.1132
   83DG     H20 1906   3.986   2.219   3.334 -1.1886 -1.4208 -0.8232
   83DG     H21 1907   3.848   2.290   3.253  0.4009 -2.1200 -1.0818
   83DG     H22 1908   3.918   2.449   3.437 -0.6595 -0.4125 -1.3224
   83DG     H23 1909   4.004   2.580   3.377  0.9573  1.7677  1.1952
   84DG      C1 1910   3.835   2.872   2.766 -0.7362 -0.1384  0.7422
   84DG      C2 1911   3.445   2.796   3.299 -0.2637  0.4620 -0.1207
   84DG      H3 1912   3.885   2.919   2.682  1.1927 -1.0466  1.3167
   84DG      H4 1913   3.854   2.765   2.758 -1.1506 -0.1899  0.4707
   84DG      H5 1914   3.892   2.888   2.858  1.4270 -1.3759 -0.2974
   84DG      H6 1915   3.541   2.745   3.300  0.8415  2.3995 -1.5012
   84DG      H7 1916   3.423   2.853   3.389 -0.6016  0.9074 -0.4795
   84DG      H8 1917   3.367   2.722   3.281 -0.8226  0.6318  1.4872
   84DG      O9 1918   3.702   2.910   2.771  0.1567  0.0263 -0.7999
   84DG     O10 1919   3.451   2.888   3.192 -0.1777  0.2030 -0.2340
   84DG     C11 1920   3.679   3.053   2.782  0.1082  0.5210  0.1154
   84DG     C12 1921   3.520   3.011   3.219 -0.2154 -0.7688 -0.5612
   84DG     H13 1922   3.680   3.104   2.686 -0.0662  1.0838  0.4046
   84DG     H14 1923   3.757   3.094   2.846  0.2653 -1.5275  1.3379
   84DG     H15 1924   3.623   2.993   3.248  0.1692  1.0069 -0.7197
   84DG     H16 1925   3.486   3.063   3.309  1.4672  1.1198 -0.9437
   84DG     C17 1926   3.544   3.074   2.858 -0.1952  0.5918 -0.0305
   84DG     C18 1927   3.506   3.092   3.090  0.1371 -0.1873  0.2320
   84DG     O19 1928   3.568   3.022   2.986  0.3528 -0.4933 -0.4336
   84DG     H20 1929   3.461   3.027   2.805  0.2176 -0.6985  0.4213
   84DG     H21 1930   3.521   3.180   2.864 -0.6372  0.4511  0.9232
   84DG     H22 1931   3.404   3.128   3.078 -0.4558 -2.2613 -1.4261
   84DG     H23 1932   3.552   3.190   3.105  0.3114 -0.4147  1.2956
   85DG      C1 1933   0.451   4.939   1.714 -0.2390  0.7357 -0.1337
   85DG      C2 1934   0.086   5.695   1.832 -0.1853  0.2050 -0.2312
   85DG      H3 1935   0.441   4.834   1.742  0.2420  1.0906  1.4903
   85DG      H4 1936   0.557   4.958   1.696  0.0896 -1.3044 -0.6316
   85DG      H5 1937   0.408   4.953   1.615 -1.1103  1.4637  0.3351
   85DG      H6 1938  -0.003   5.748   1.798 -0.6844 -0.4359  0.0615
   85DG      H7 1939   0.091   5.707   1.940  1.5788 -2.5914  0.1058
   85DG      H8 1940   0.173   5.749   1.793 -0.1538  0.7909  0.6314
   85DG      O9 1941   0.396   5.029   1.807  0.0030 -0.0697 -0.0747
   85DG     O10 1942   0.100   5.556   1.795  0.4162 -0.1337  0.2971
   85DG     C11 1943   0.396   5.162   1.764  0.4855 -0.2664 -0.1919
   85DG     C12 1944   0.096   5.523   1.661 -0.2512  0.0022 -0.4290
   85DG     H13 1945   0.483   5.182   1.701 -0.5749  0.6355 -1.4273
   85DG     H14 1946   0.412   5.214   1.858 -0.5569 -1.7710  0.8655
   85DG     H15 1947   0.164   5.592   1.611  1.3008 -0.9311  0.3066
   85DG     H16 1948  -0.001   5.548   1.618 -0.0902 -0.9836 -1.4169
   85DG     C17 1949   0.268   5.205   1.693 -0.0722  0.5371 -0.9197
   85DG     C18 1950   0.124   5.377   1.642  0.4496  0.0473 -0.0885
   85DG     O19 1951   0.255   5.344   1.680  0.2054  0.0159  0.0756
   85DG     H20 1952   0.186   5.166   1.754  0.7167 -0.0681 -0.2274
   85DG     H21 1953   0.270   5.156   1.595  0.6977  0.8216 -1.0550
   85DG     H22 1954   0.050   5.323   1.702 -1.3010  3.1168  0.7416
   85DG     H23 1955   0.107   5.339   1.541  0.7294 -2.4414  0.7221
   86DG      C1 1956   3.143   3.301   5.240  0.1281  0.3240 -0.7113
   86DG      C2 1957   3.109   3.037   4.647 -0.0665  0.3953 -0.5381
   86DG      H3 1958   3.094   3.386   5.288  0.5054  0.0239  0.2220
   86DG      H4 1959   3.230   3.334   5.185  0.3490  0.4324 -0.3003
   86DG      H5 1960   3.166   3.224   5.313  0.1970  0.6217 -0.4184
   86DG      H6 1961   3.108   2.941   4.596 -0.0979  0.6845 -1.0855
   86DG      H7 1962   3.053   3.113   4.594 -1.2909  0.4881  0.8036
   86DG      H8 1963   3.211   3.077   4.644  0.1457 -0.1791 -1.0917
   86DG      O9 1964   3.067   3.236   5.142 -0.6525  0.2769  0.0720
   86DG     O10 1965   3.058   3.022   4.781  0.1249 -0.8183  0.5213
   86DG     C11 1966   2.955   3.168   5.205 -0.7428 -0.8191 -0.4851
   86DG     C12 1967   2.917   3.015   4.770  0.3755  0.0882 -0.1063
   86DG     H13 1968   2.899   3.234   5.271  1.0357 -0.7111  1.0037
   86DG     H14 1969   2.991   3.098   5.281 -2.4732 -0.0591  1.1106
   86DG     H15 1970   2.889   2.925   4.716  0.8681  0.0395 -0.2854
   86DG     H16 1971   2.876   3.105   4.725 -0.3728  0.2573  0.8758
   86DG     C17 1972   2.849   3.128   5.109 -0.4645 -0.1983  0.0406
   86DG     C18 1973   2.853   3.000   4.908  0.4901  1.2504 -0.1712
   86DG     O19 1974   2.923   3.094   4.991  0.3639  0.4518  0.0326
   86DG     H20 1975   2.785   3.211   5.077  0.1499 -0.0039 -0.6909
   86DG     H21 1976   2.792   3.041   5.142 -1.3033 -0.2917 -1.5845
   86DG     H22 1977   2.744   3.008   4.909  0.2916 -0.1746 -2.4935
   86DG     H23 1978   2.888   2.901   4.938 -0.8442  0.9822  0.5602
   87DG      C1 1979   5.346   3.404   2.558  0.3461 -0.1458 -0.0474
   87DG      C2 1980   5.731   2.930   2.734 -0.3869 -0.1059  0.3483
   87DG      H3 1981   5.328   3.411   2.666 -1.8316  0.6877 -0.4135
   87DG      H4 1982   5.272   3.475   2.520 -1.3327 -0.8584  1.7382
   87DG      H5 1983   5.449   3.432   2.539  0.5671 -0.1546  1.0599
   87DG      H6 1984   5.834   2.894   2.732 -0.5814 -0.6660  0.2130
   87DG      H7 1985   5.716   2.974   2.833  1.3322  1.1803  0.0928
   87DG      H8 1986   5.665   2.846   2.715  0.2769 -0.2529 -1.5125
   87DG      O9 1987   5.310   3.270   2.530 -0.3509 -0.2889  0.6260
   87DG     O10 1988   5.703   3.022   2.634 -0.0199 -0.6855  0.7560
   87DG     C11 1989   5.318   3.227   2.394  0.0397  0.4671  0.5702
   87DG     C12 1990   5.686   2.974   2.509 -0.5288 -0.2133  0.3452
   87DG     H13 1991   5.259   3.282   2.322  0.3889 -0.3950 -0.3895
   87DG     H14 1992   5.268   3.131   2.402 -0.1738  0.4100 -1.2168
   87DG     H15 1993   5.617   2.890   2.506  0.7095 -1.2421 -0.5645
   87DG     H16 1994   5.777   2.933   2.465 -0.2918 -0.0463  0.6717
   87DG     C17 1995   5.465   3.210   2.353  0.5123 -0.1599  0.9117
   87DG     C18 1996   5.650   3.079   2.411 -0.0900  0.1922  0.2936
   87DG     O19 1997   5.519   3.108   2.438  0.1789 -0.5271  0.4696
   87DG     H20 1998   5.507   3.310   2.367 -2.0444  1.1408  0.0065
   87DG     H21 1999   5.478   3.174   2.251 -0.1768  1.0632  0.3719
   87DG     H22 2000   5.718   3.164   2.402  1.2544 -0.6101  2.2000
   87DG     H23 2001   5.656   3.026   2.316  0.4339 -0.3898  0.6403
   88DG      C1 2002   5.154   0.487   2.415 -0.0276 -0.1106 -0.1114
   88DG      C2 2003   4.540   0.787   2.425  0.1444  0.2442  0.3844
   88DG      H3 2004   5.149   0.494   2.524 -0.9443  1.0005 -0.2009
   88DG      H4 2005   5.192   0.582   2.378 -0.5412  1.3595  2.8192
   88DG      H5 2006   5.208   0.396   2.390  1.9640  1.3456 -1.4860
   88DG      H6 2007   4.514   0.760   2.527  1.0037  1.3099  0.9063
   88DG      H7 2008   4.614   0.866   2.436 -1.9483  2.0663  2.3357
   88DG      H8 2009   4.444   0.814   2.383  1.0899 -1.1275 -3.0396
   88DG      O9 2010   5.022   0.472   2.369 -0.1967  0.0578  0.5939
   88DG     O10 2011   4.594   0.667   2.365  0.0861  0.6403 -0.2173
   88DG     C11 2012   5.015   0.469   2.224  0.3826  0.0356  0.5235
   88DG     C12 2013   4.573   0.650   2.223 -0.0408  0.0423  0.0360
   88DG     H13 2014   5.074   0.386   2.186  0.0026  0.2742 -0.6328
   88DG     H14 2015   5.065   0.554   2.178  1.0473 -1.3308 -1.4074
   88DG     H15 2016   4.589   0.745   2.173 -0.7462  0.8079  1.2262
   88DG     H16 2017   4.472   0.613   2.204  0.6315 -1.6285 -0.4941
   88DG     C17 2018   4.881   0.453   2.171 -0.0009  0.9121 -0.4904
   88DG     C18 2019   4.664   0.540   2.160 -0.5145 -0.1604 -0.4248
   88DG     O19 2020   4.785   0.538   2.231  0.2207  0.2000  0.3287
   88DG     H20 2021   4.861   0.350   2.198 -0.3005  0.9482 -0.5718
   88DG     H21 2022   4.885   0.461   2.062 -0.3416  1.2680 -0.4780
   88DG     H22 2023   4.621   0.440   2.164  0.7617 -0.7082  0.3225
   88DG     H23 2024   4.683   0.570   2.057 -3.4391  3.6042 -0.0920
   89DG      C1 2025   1.054   2.034   1.243 -0.1925 -0.3151 -0.0745
   89DG      C2 2026   1.413   2.361   0.791  0.1067  0.0854 -0.0002
   89DG      H3 2027   0.966   1.974   1.264 -0.1160 -1.1943 -2.0381
   89DG      H4 2028   1.041   2.132   1.289 -1.5657 -0.5389  0.0622
   89DG      H5 2029   1.143   1.992   1.291  0.7336 -0.6634 -1.9825
   89DG      H6 2030   1.513   2.333   0.823  1.3837  1.4541 -2.4951
   89DG      H7 2031   1.418   2.404   0.691 -1.1785  1.8856  0.6604
   89DG      H8 2032   1.380   2.437   0.862  1.3221  1.5191 -0.8957
   89DG      O9 2033   1.065   2.046   1.105 -0.6239 -0.1115  0.2112
   89DG     O10 2034   1.320   2.255   0.800  0.9089  0.6622  0.2177
   89DG     C11 2035   1.072   1.918   1.045 -0.0204 -0.1760 -0.0378
   89DG     C12 2036   1.370   2.128   0.754  0.3883 -0.1592 -0.1875
   89DG     H13 2037   0.981   1.860   1.062 -0.6847  0.1213 -2.2003
   89DG     H14 2038   1.151   1.862   1.094  0.3781  0.4498  0.0461
   89DG     H15 2039   1.424   2.074   0.832 -0.3350  0.3224  0.6774
   89DG     H16 2040   1.426   2.150   0.663 -2.6479  1.2116 -1.8631
   89DG     C17 2041   1.086   1.926   0.891  0.4149 -0.2301 -0.5849
   89DG     C18 2042   1.235   2.036   0.726 -0.3603 -0.6756  0.8081
   89DG     O19 2043   1.189   2.019   0.861 -0.0832 -0.2633 -0.0538
   89DG     H20 2044   1.001   1.956   0.829  1.1140  0.6844 -1.1344
   89DG     H21 2045   1.117   1.827   0.856 -2.4856 -2.2821  2.1668
   89DG     H22 2046   1.168   2.097   0.665  2.1966  2.3763  0.7801
   89DG     H23 2047   1.258   1.946   0.669  2.2195  0.4574 -0.1068
   90DG      C1 2048   2.442   4.139   4.262 -0.1372  0.1454 -0.3925
   90DG      C2 2049   2.034   4.153   3.799 -0.4736  0.5999  0.0095
   90DG      H3 2050   2.435   4.158   4.369 -2.6604  0.3240 -0.5389
   90DG      H4 2051   2.546   4.157   4.234  0.4157  1.2262  2.0960
   90DG      H5 2052   2.423   4.036   4.232  1.9851 -0.3919 -0.0760
   90DG      H6 2053   1.990   4.099   3.883  1.3509 -2.4213 -0.8393
   90DG      H7 2054   1.948   4.186   3.741 -2.0178 -2.5643  0.2766
   90DG      H8 2055   2.108   4.100   3.739 -2.5315 -0.5981 -1.5508
   90DG      O9 2056   2.345   4.223   4.205 -0.1648 -0.0289 -1.1161
   90DG     O10 2057   2.103   4.260   3.849  0.5718  0.1729 -0.1665
   90DG     C11 2058   2.379   4.361   4.228 -0.1471 -0.1597 -0.0243
   90DG     C12 2059   2.015   4.352   3.918 -0.5197  0.1232 -0.0614
   90DG     H13 2060   2.477   4.385   4.187 -0.5736  2.9827  0.5246
   90DG     H14 2061   2.380   4.379   4.335  0.9457 -2.1643  0.3410
   90DG     H15 2062   1.943   4.310   3.988  0.8447  0.2555  1.4777
   90DG     H16 2063   1.954   4.413   3.851 -0.3340  0.7510  0.3261
   90DG     C17 2064   2.271   4.454   4.156 -0.0340  0.1652  0.7102
   90DG     C18 2065   2.113   4.453   3.980  1.0166  0.2278  0.2335
   90DG     O19 2066   2.212   4.377   4.054 -0.0526 -0.3067  0.3884
   90DG     H20 2067   2.309   4.548   4.118  2.1960 -0.3382  1.5518
   90DG     H21 2068   2.190   4.491   4.218 -1.8115 -1.1678 -0.7117
   90DG     H22 2069   2.151   4.520   3.904 -0.2314  2.8447  1.7836
   90DG     H23 2070   2.047   4.506   4.049  0.3304 -0.1151 -0.1451
   91DG      C1 2071   3.772   1.952   4.595 -0.7156 -1.0169  0.1344
   91DG      C2 2072   4.024   1.485   5.004 -0.5904 -0.1160 -0.0073
   91DG      H3 2073   3.787   1.975   4.490 -0.9494  0.7461  0.4614
   91DG      H4 2074   3.832   2.028   4.646 -1.2421 -0.0846 -0.6047
   91DG      H5 2075   3.666   1.974   4.600 -0.7654 -1.0813 -0.5880
   91DG      H6 2076   4.064   1.392   5.044  1.6537  0.6963 -0.2239
   91DG      H7 2077   4.065   1.565   5.065  1.4273  0.2321 -1.7001
   91DG      H8 2078   3.920   1.497   5.033 -0.3172  2.8437  0.0678
   91DG      O9 2079   3.807   1.821   4.622  0.1502  0.6158 -0.2231
   91DG     O10 2080   4.037   1.503   4.863  0.2267 -0.2223  0.2624
   91DG     C11 2081   3.734   1.732   4.542 -0.0986 -0.1046 -0.2387
   91DG     C12 2082   3.996   1.394   4.785 -0.5315  0.1232 -0.9733
   91DG     H13 2083   3.784   1.722   4.446 -1.8759  0.5569 -1.2796
   91DG     H14 2084   3.637   1.773   4.512 -0.0262  0.3393  0.1298
   91DG     H15 2085   3.984   1.307   4.850 -2.1449  1.3771  0.4966
   91DG     H16 2086   4.068   1.381   4.704 -2.3136  0.0956 -2.6033
   91DG     C17 2087   3.734   1.593   4.605 -0.5507 -0.4765  0.3158
   91DG     C18 2088   3.856   1.429   4.729 -0.0155  0.1933 -0.4341
   91DG     O19 2089   3.863   1.557   4.663  0.0764 -0.3253  0.0444
   91DG     H20 2090   3.700   1.525   4.527  1.7205  0.8250 -1.9532
   91DG     H21 2091   3.670   1.591   4.693  3.8698 -0.9474  3.8874
   91DG     H22 2092   3.814   1.341   4.679  0.0841 -2.0518  3.0555
   91DG     H23 2093   3.797   1.443   4.819 -0.6265  0.1274 -0.8170
   92DG      C1 2094   5.245   4.220   4.364  0.1032 -0.7717  0.0481
   92DG      C2 2095   5.267   4.007   4.996  0.0812 -0.7945 -0.2345
   92DG      H3 2096   5.170   4.220   4.284  0.3579 -3.7776 -0.3125
   92DG      H4 2097   5.307   4.138   4.330  1.9970  1.0359 -1.0634
   92DG      H5 2098   5.303   4.312   4.369 -0.8541 -0.0721 -1.2241
   92DG      H6 2099   5.301   3.919   4.942  0.6296 -0.5657 -0.2729
   92DG      H7 2100   5.349   4.045   5.057 -0.4854 -3.1229  2.1653
   92DG      H8 2101   5.192   3.960   5.059  0.4014 -1.3673 -0.2804
   92DG      O9 2102   5.178   4.196   4.483  0.3672  0.3225 -0.3690
   92DG     O10 2103   5.215   4.094   4.903  0.3179  0.2542  0.0668
   92DG     C11 2104   5.090   4.309   4.515  0.5445  1.2940 -0.1164
   92DG     C12 2105   5.156   4.206   4.962  0.5950  0.0671 -0.8297
   92DG     H13 2106   5.017   4.326   4.436  2.4609  1.0791 -1.9992
   92DG     H14 2107   5.145   4.401   4.538 -0.3469  1.7597  0.2303
   92DG     H15 2108   5.221   4.290   4.984  1.2608 -1.1495  2.5185
   92DG     H16 2109   5.113   4.172   5.057  1.0396  1.5476 -0.0622
   92DG     C17 2110   5.013   4.292   4.639  0.9223 -0.2831 -0.3760
   92DG     C18 2111   5.038   4.249   4.870 -0.3387 -0.4765 -0.6332
   92DG     O19 2112   5.099   4.263   4.742 -0.4153  0.3048 -0.3246
   92DG     H20 2113   4.935   4.217   4.624  0.3155  0.0870  0.7750
   92DG     H21 2114   4.956   4.383   4.662 -0.3208 -1.5998  2.2129
   92DG     H22 2115   4.958   4.176   4.858  0.0648 -0.8378 -1.1609
   92DG     H23 2116   5.003   4.348   4.901  1.2265 -0.2164  0.4280
   93DG      C1 2117   0.563   2.845   0.613  0.2443 -0.5071 -0.4660
   93DG      C2 2118   0.645   2.904   1.299  0.4200 -0.2836  0.0190
   93DG      H3 2119   0.597   2.894   0.522  2.6247 -1.4412 -0.1733
   93DG      H4 2120   0.461   2.877   0.632  0.4373  0.2092 -0.6215
   93DG      H5 2121   0.553   2.738   0.596  2.0814 -0.6487 -0.9321
   93DG      H6 2122   0.631   2.805   1.345  1.8262 -0.7100 -0.4308
   93DG      H7 2123   0.709   2.962   1.365  1.1866  1.6748 -2.2996
   93DG      H8 2124   0.545   2.946   1.294  0.3979  0.1150  2.4954
   93DG      O9 2125   0.647   2.876   0.726 -0.5972  0.1066 -0.1172
   93DG     O10 2126   0.703   2.894   1.170 -0.1920  0.4726 -0.0066
   93DG     C11 2127   0.778   2.816   0.701 -0.5553  0.5880 -0.0398
   93DG     C12 2128   0.837   2.849   1.179  0.8653 -0.0747 -0.4847
   93DG     H13 2129   0.812   2.832   0.599  0.0251 -0.8747 -0.1020
   93DG     H14 2130   0.765   2.708   0.707  1.3688  0.1711 -2.0476
   93DG     H15 2131   0.835   2.742   1.201  0.4475  0.1853  0.7992
   93DG     H16 2132   0.894   2.888   1.263  0.1757 -0.1294  0.0155
   93DG     C17 2133   0.879   2.857   0.809 -0.8419 -0.2635  0.4623
   93DG     C18 2134   0.909   2.875   1.049  0.3005 -0.3649 -0.0725
   93DG     O19 2135   0.820   2.847   0.936  0.3062  0.1990  0.0526
   93DG     H20 2136   0.909   2.959   0.785 -1.0872 -0.1251  0.7357
   93DG     H21 2137   0.972   2.800   0.807 -0.3034  0.6012 -0.2532
   93DG     H22 2138   0.931   2.980   1.033 -2.6653  0.5940  1.4570
   93DG     H23 2139   1.005   2.823   1.053 -0.3536 -1.5823  0.5029
   94DG      C1 2140   4.534   3.562   4.615  0.6114  0.1916 -0.4446
   94DG      C2 2141   4.250   3.967   4.423 -0.0829  0.7022  0.1839
   94DG      H3 2142   4.553   3.503   4.525  0.9253  1.0130 -0.9260
   94DG      H4 2143   4.588   3.520   4.700 -2.6818  1.1874  2.3478
   94DG      H5 2144   4.584   3.653   4.582  1.7924 -0.7924 -1.4636
   94DG      H6 2145   4.342   3.968   4.481 -0.5545  2.6821  0.9885
   94DG      H7 2146   4.275   3.931   4.324 -2.5599 -1.0954  0.1018
   94DG      H8 2147   4.232   4.074   4.412 -1.2314  0.4601 -0.4409
   94DG      O9 2148   4.398   3.595   4.655 -0.5432  0.1312 -0.0727
   94DG     O10 2149   4.143   3.899   4.492 -0.1844  0.5139  0.3298
   94DG     C11 2150   4.392   3.644   4.786 -0.0157  0.2293  0.7093
   94DG     C12 2151   4.115   3.950   4.626  0.1948  0.0213 -0.2697
   94DG     H13 2152   4.437   3.743   4.798 -0.3183  0.1543  3.0585
   94DG     H14 2153   4.439   3.578   4.859 -0.3558 -0.8696 -0.0517
   94DG     H15 2154   4.010   3.935   4.652  0.3408 -2.1329 -0.6614
   94DG     H16 2155   4.140   4.056   4.630 -1.3933  0.4575 -1.0015
   94DG     C17 2156   4.242   3.663   4.819 -0.0942  0.1037 -0.1534
   94DG     C18 2157   4.184   3.883   4.737 -0.0465  0.1600  0.0219
   94DG     O19 2158   4.174   3.742   4.723  0.4061  0.3007 -0.2801
   94DG     H20 2159   4.228   3.711   4.916 -1.7603 -0.1413 -0.2495
   94DG     H21 2160   4.181   3.573   4.831 -0.2525  0.2445  0.1075
   94DG     H22 2161   4.292   3.898   4.737 -0.2027  1.9397 -2.8027
   94DG     H23 2162   4.144   3.916   4.833 -3.9063 -0.2261 -1.2814
   95DG      C1 2163   4.859   2.765   4.716  0.6554 -0.1444 -0.1040
   95DG      C2 2164   4.264   3.002   5.005  0.2631  0.2006  0.0413
   95DG      H3 2165   4.903   2.860   4.746  0.1402 -0.1446  0.6871
   95DG      H4 2166   4.840   2.773   4.609 -0.7830 -2.0350 -0.0441
   95DG      H5 2167   4.928   2.684   4.738  0.8121  0.1200  0.4018
   95DG      H6 2168   4.224   3.060   4.922  1.5225 -0.1088 -0.8148
   95DG      H7 2169   4.180   2.965   5.063 -0.0074 -2.6257 -1.9660
   95DG      H8 2170   4.336   3.066   5.057  2.6278 -1.7121 -0.6929
   95DG      O9 2171   4.742   2.747   4.796 -0.0317 -0.3907 -0.1069
   95DG     O10 2172   4.341   2.886   4.964  0.0141  0.6711 -0.5586
   95DG     C11 2173   4.664   2.641   4.752 -0.0410  0.0873 -0.0713
   95DG     C12 2174   4.380   2.802   5.079  0.0529  0.4809  0.0448
   95DG     H13 2175   4.710   2.549   4.715 -0.2322 -1.1372  2.5131
   95DG     H14 2176   4.608   2.674   4.665  0.4445  0.7822 -0.1299
   95DG     H15 2177   4.298   2.783   5.149 -0.6415 -0.8156 -1.0822
   95DG     H16 2178   4.467   2.846   5.129  0.0594  0.4955  0.0195
   95DG     C17 2179   4.564   2.596   4.861  0.1449 -0.8371  0.0696
   95DG     C18 2180   4.428   2.673   5.032  0.0868  0.3058 -0.8610
   95DG     O19 2181   4.516   2.703   4.926 -0.3563  0.1960 -0.0826
   95DG     H20 2182   4.605   2.524   4.931 -1.0424  0.0829  1.7770
   95DG     H21 2183   4.480   2.545   4.813 -1.8793  0.3648  2.1462
   95DG     H22 2184   4.475   2.626   5.119 -1.0809  0.3748 -0.1783
   95DG     H23 2185   4.357   2.599   4.995 -0.8980 -0.4876  2.3194
   96DG      C1 2186   1.379   2.196   2.137 -0.7341 -0.4449  0.4406
   96DG      C2 2187   1.860   1.832   1.897 -0.2591 -0.6192  0.0046
   96DG      H3 2188   1.365   2.276   2.064 -0.0871 -0.0780  0.7090
   96DG      H4 2189   1.479   2.206   2.180 -0.6136 -1.5876  0.4436
   96DG      H5 2190   1.306   2.224   2.213 -1.8337 -0.6212 -0.5072
   96DG      H6 2191   1.957   1.823   1.946  1.0661  1.0063 -2.1928
   96DG      H7 2192   1.850   1.765   1.812  0.9668  1.1371 -1.5823
   96DG      H8 2193   1.843   1.932   1.858  0.1037 -0.5148  0.1162
   96DG      O9 2194   1.346   2.076   2.072  0.1626 -0.1709  0.1795
   96DG     O10 2195   1.764   1.809   1.999  0.3551 -0.4796  0.2170
   96DG     C11 2196   1.316   1.968   2.155  0.2572  0.5603  0.3216
   96DG     C12 2197   1.793   1.875   2.123  0.1001 -0.0150 -0.3081
   96DG     H13 2198   1.282   1.880   2.100  0.1847  0.6900  0.1581
   96DG     H14 2199   1.235   2.002   2.220 -0.8120 -0.6150 -0.3419
   96DG     H15 2200   1.827   1.977   2.104  0.2771 -0.2491 -1.3479
   96DG     H16 2201   1.882   1.831   2.168  0.9071 -0.1755 -1.9750
   96DG     C17 2202   1.440   1.924   2.244  0.2309  0.1544  0.0539
   96DG     C18 2203   1.678   1.878   2.225 -0.1080 -0.3757  0.2535
   96DG     O19 2204   1.562   1.930   2.160  0.1120 -0.0228  0.3408
   96DG     H20 2205   1.421   1.824   2.281  1.4823 -0.4257 -0.8116
   96DG     H21 2206   1.456   1.985   2.333  2.0019 -1.3558  0.8372
   96DG     H22 2207   1.659   1.783   2.275 -1.3432  0.3639  1.2112
   96DG     H23 2208   1.700   1.940   2.311 -1.1864  0.7968 -0.2881
   97DG      C1 2209   1.929   0.767   0.023 -0.0867  1.1383 -0.0173
   97DG      C2 2210   1.684   0.789  -0.578 -0.4267  0.2020  1.0515
   97DG      H3 2211   1.955   0.829   0.109 -1.1747 -0.1276  1.2844
   97DG      H4 2212   2.022   0.742  -0.028 -0.5618 -0.6229 -0.0992
   97DG      H5 2213   1.894   0.673   0.066  0.2153  0.7536 -0.5911
   97DG      H6 2214   1.790   0.790  -0.606 -0.6138 -2.5645 -0.1152
   97DG      H7 2215   1.650   0.689  -0.549 -0.8792 -0.4979 -1.6216
   97DG      H8 2216   1.628   0.827  -0.664  1.8778  2.6206  0.4824
   97DG      O9 2217   1.837   0.832  -0.053  0.4629  0.3433  0.1778
   97DG     O10 2218   1.677   0.878  -0.467  0.6472  0.1684 -0.3241
   97DG     C11 2219   1.722   0.878   0.008 -0.2228  0.7710  0.0091
   97DG     C12 2220   1.548   0.902  -0.416 -0.5410  0.4311 -0.6084
   97DG     H13 2221   1.757   0.931   0.096  0.0432 -0.0667  0.4230
   97DG     H14 2222   1.659   0.791   0.028 -0.3001  0.2304 -2.2469
   97DG     H15 2223   1.486   0.818  -0.385 -0.2961  0.7973  0.9262
   97DG     H16 2224   1.484   0.945  -0.493  1.5949 -0.0536 -2.8084
   97DG     C17 2225   1.651   0.980  -0.070  0.3635  0.3234  0.0962
   97DG     C18 2226   1.551   0.990  -0.290 -0.3717 -0.4564 -0.0188
   97DG     O19 2227   1.610   0.912  -0.190  0.3914  0.1855 -0.3641
   97DG     H20 2228   1.709   1.068  -0.098 -0.3189  0.7216 -0.0694
   97DG     H21 2229   1.558   1.011  -0.023  0.3140 -3.6379  3.1572
   97DG     H22 2230   1.609   1.082  -0.299 -2.1791  0.7524  0.2946
   97DG     H23 2231   1.452   1.018  -0.253  0.5878  1.1171  1.5212
   98DG      C1 2232   3.490   0.009   4.861 -0.1350 -0.1846 -0.6846
   98DG      C2 2233   4.151  -0.148   5.060 -0.6357  0.2764 -0.0198
   98DG      H3 2234   3.536   0.072   4.786 -3.3154  0.7052 -2.0347
   98DG      H4 2235   3.457   0.076   4.940 -1.6993 -2.4868  0.7479
   98DG      H5 2236   3.406  -0.038   4.810  0.6738 -1.8711 -0.5551
   98DG      H6 2237   4.155  -0.058   5.122  0.5017 -1.0983  2.0430
   98DG      H7 2238   4.210  -0.221   5.117 -0.9594  1.2393  1.6189
   98DG      H8 2239   4.210  -0.131   4.970 -0.5036 -0.9955 -0.1987
   98DG      O9 2240   3.571  -0.094   4.921 -0.5762 -0.9144  0.6175
   98DG     O10 2241   4.030  -0.201   5.035  0.4932  0.0347 -0.0208
   98DG     C11 2242   3.577  -0.218   4.844 -0.3203  0.3799 -0.2445
   98DG     C12 2243   4.031  -0.310   4.946 -0.4717  0.2165  0.4515
   98DG     H13 2244   3.614  -0.198   4.744  1.0748  0.1060  0.1917
   98DG     H14 2245   3.477  -0.260   4.835 -0.5677  1.0704 -0.7641
   98DG     H15 2246   4.113  -0.376   4.973 -1.2873  0.0945  2.9080
   98DG     H16 2247   4.050  -0.276   4.844  0.8501 -0.1438  0.5548
   98DG     C17 2248   3.665  -0.318   4.915 -0.3834  0.8122  0.0281
   98DG     C18 2249   3.891  -0.376   4.941  0.4583 -0.0656  0.5687
   98DG     O19 2250   3.797  -0.277   4.907 -0.0530 -0.4483  0.3564
   98DG     H20 2251   3.654  -0.416   4.867  2.3047 -1.4341  3.4516
   98DG     H21 2252   3.645  -0.344   5.019 -0.7223 -1.2509 -0.5097
   98DG     H22 2253   3.885  -0.446   4.858 -0.8411 -0.7710  1.2220
   98DG     H23 2254   3.857  -0.433   5.027 -1.4858 -0.0292 -0.1148
   99DG      C1 2255   4.806   3.448   1.251 -0.0142  0.3020 -0.4928
   99DG      C2 2256   4.841   3.528   1.929 -0.0748 -0.3988 -0.2300
   99DG      H3 2257   4.871   3.535   1.251 -0.7966  0.9061 -0.2859
   99DG      H4 2258   4.703   3.481   1.237 -0.6127  0.9045  3.7493
   99DG      H5 2259   4.844   3.392   1.166  1.0080  0.0853  0.0895
   99DG      H6 2260   4.935   3.571   1.964  0.3277 -0.3645 -1.3182
   99DG      H7 2261   4.783   3.615   1.897 -0.6611 -0.6649  0.0898
   99DG      H8 2262   4.791   3.479   2.012  2.0021 -1.3004  0.5565
   99DG      O9 2263   4.828   3.375   1.370 -0.6904 -0.0184 -0.2759
   99DG     O10 2264   4.856   3.454   1.811  0.6471 -0.2362  0.0364
   99DG     C11 2265   4.927   3.274   1.359 -0.2769 -0.3271 -0.1490
   99DG     C12 2266   4.922   3.331   1.834 -0.1284 -0.6604 -0.5953
   99DG     H13 2267   5.026   3.314   1.338  0.1154 -1.6236 -0.9458
   99DG     H14 2268   4.896   3.209   1.278 -2.3032  0.7589 -0.2894
   99DG     H15 2269   4.902   3.291   1.933  0.7072  2.0463  0.7422
   99DG     H16 2270   5.027   3.358   1.841 -0.4487  0.7811 -1.0686
   99DG     C17 2271   4.919   3.198   1.490  0.0572 -0.3240  0.1942
   99DG     C18 2272   4.903   3.231   1.721 -0.1886 -0.0820 -0.0194
   99DG     O19 2273   4.939   3.283   1.597 -0.9150 -0.2196 -0.2639
   99DG     H20 2274   4.986   3.112   1.492  1.0129  0.2872 -2.1831
   99DG     H21 2275   4.815   3.165   1.492 -0.7011  1.7553 -1.2234
   99DG     H22 2276   4.955   3.137   1.739 -0.5103 -0.2078  0.2840
   99DG     H23 2277   4.797   3.203   1.724 -0.0359 -0.9285 -1.4691
  100DG      C1 2278   1.467   0.753   3.916 -0.5775  0.2347  0.6476
  100DG      C2 2279   1.131   1.328   3.816 -0.1750  1.1992  0.1789
  100DG      H3 2280   1.442   0.787   4.016 -3.2290  0.0354  0.1323
  100DG      H4 2281   1.575   0.743   3.914 -0.7606 -2.9678  1.2113
  100DG      H5 2282   1.422   0.654   3.905  2.3433 -1.5034  2.8712
  100DG      H6 2283   1.163   1.340   3.919  1.0035 -0.5374  0.0644
  100DG      H7 2284   1.135   1.424   3.764  1.6235  0.7903 -0.5028
  100DG      H8 2285   1.031   1.285   3.821 -0.1908  0.9780 -1.4067
  100DG      O9 2286   1.420   0.849   3.823 -0.4341  0.4567  0.1085
  100DG     O10 2287   1.229   1.242   3.757 -0.5737  0.2774  0.6204
  100DG     C11 2288   1.431   0.804   3.685  0.0815 -0.2476 -0.3940
  100DG     C12 2289   1.216   1.228   3.610 -0.1722  0.1774  0.4578
  100DG     H13 2290   1.350   0.740   3.650 -0.0951 -0.1174 -0.2248
  100DG     H14 2291   1.524   0.749   3.668  0.8642  1.2276 -1.0986
  100DG     H15 2292   1.218   1.325   3.560 -2.3919 -0.8338 -1.8166
  100DG     H16 2293   1.118   1.190   3.581  0.5277 -0.6530 -0.9510
  100DG     C17 2294   1.439   0.933   3.600 -0.0545 -0.0262  0.5674
  100DG     C18 2295   1.327   1.138   3.552 -0.1925  0.0097  0.0254
  100DG     O19 2296   1.322   1.010   3.624 -0.3672 -0.5559 -0.1615
  100DG     H20 2297   1.450   0.915   3.493 -3.0826 -1.3450  0.3746
  100DG     H21 2298   1.531   0.989   3.621  0.8993 -0.0440 -2.9313
  100DG     H22 2299   1.327   1.134   3.443  1.0574 -0.9564  0.0418
  100DG     H23 2300   1.420   1.192   3.569  0.2954 -0.3714 -1.2719
  101DG      C1 2301   3.345   3.114   0.082  0.5495 -0.0615 -0.5757
  101DG      C2 2302   3.976   3.289  -0.201  0.0586 -0.1544 -0.2179
  101DG      H3 2303   3.285   3.130   0.172  0.3967  0.4502 -0.7696
  101DG      H4 2304   3.324   3.016   0.037  2.1386 -0.2178 -1.0197
  101DG      H5 2305   3.321   3.196   0.015  2.2249 -0.1723 -1.3415
  101DG      H6 2306   3.925   3.376  -0.243 -1.7643 -1.1362 -0.1156
  101DG      H7 2307   4.084   3.303  -0.191 -0.0595 -0.4025  1.7841
  101DG      H8 2308   3.966   3.205  -0.269  2.1208  0.0684 -0.8511
  101DG      O9 2309   3.483   3.115   0.114  0.2407  0.0779 -0.0367
  101DG     O10 2310   3.916   3.240  -0.079 -0.6819  0.6672  0.6637
  101DG     C11 2311   3.506   3.219   0.215  0.2576 -0.1730  0.1090
  101DG     C12 2312   3.946   3.319   0.031 -0.0055  0.5862  0.4356
  101DG     H13 2313   3.437   3.203   0.298  0.2076 -1.2504 -0.1246
  101DG     H14 2314   3.480   3.309   0.159 -0.3988 -1.2864 -1.4442
  101DG     H15 2315   3.912   3.420   0.006  0.0084  0.2207 -1.1706
  101DG     H16 2316   4.053   3.308   0.050  0.2359 -0.8640 -1.5100
  101DG     C17 2317   3.654   3.205   0.248  0.8611  0.2563 -0.1963
  101DG     C18 2318   3.865   3.265   0.150  0.1214  0.2355 -0.2145
  101DG     O19 2319   3.726   3.243   0.126  0.0491 -0.4432 -0.1998
  101DG     H20 2320   3.671   3.099   0.261 -1.6380  0.0057  1.6988
  101DG     H21 2321   3.687   3.263   0.335 -1.3695 -0.9482  1.5580
  101DG     H22 2322   3.905   3.169   0.183 -2.7901 -0.2805  2.2688
  101DG     H23 2323   3.880   3.338   0.228 -2.7047  1.7697 -0.9556
  102DG      C1 2324   3.631   4.448   3.811  0.2854 -0.6404  0.7147
  102DG      C2 2325   3.875   4.115   4.366 -0.4146  0.2080 -0.8766
  102DG      H3 2326   3.590   4.374   3.743  0.8712 -0.0597 -0.2992
  102DG      H4 2327   3.658   4.527   3.741  0.6062 -2.5527 -1.4757
  102DG      H5 2328   3.564   4.492   3.884 -0.0568 -0.0629  0.0559
  102DG      H6 2329   3.950   4.165   4.427  0.8618 -0.3476 -1.9365
  102DG      H7 2330   3.776   4.148   4.397  0.1617 -0.5112  2.0501
  102DG      H8 2331   3.875   4.009   4.392 -1.5959  0.1588 -1.0296
  102DG      O9 2332   3.743   4.388   3.881  0.0596  0.0678 -0.1446
  102DG     O10 2333   3.883   4.129   4.225 -0.6545  0.2376 -0.2086
  102DG     C11 2334   3.853   4.371   3.794  0.2594  0.1053  0.2051
  102DG     C12 2335   4.017   4.114   4.181  0.0728  0.0310 -0.5090
  102DG     H13 2336   3.906   4.463   3.815  1.7890 -0.9696  1.2886
  102DG     H14 2337   3.844   4.373   3.686 -0.6979  0.2636  0.2739
  102DG     H15 2338   4.055   4.021   4.225 -2.1908 -1.4453 -1.4701
  102DG     H16 2339   4.074   4.200   4.216 -1.5796 -0.0616  2.8116
  102DG     C17 2340   3.937   4.247   3.835 -0.1142 -0.3152  0.1289
  102DG     C18 2341   4.022   4.115   4.025 -0.9054  0.5723  0.5944
  102DG     O19 2342   3.941   4.225   3.980  0.3541 -0.2492  0.2076
  102DG     H20 2343   4.037   4.266   3.796  0.0463  1.8138  1.4017
  102DG     H21 2344   3.900   4.155   3.791  1.9319 -1.4918  0.7729
  102DG     H22 2345   4.125   4.117   3.989 -0.2008  0.0986  2.4599
  102DG     H23 2346   3.977   4.021   3.994 -1.3335  0.8026  0.5055
  103DG      C1 2347   2.082   2.309   3.778 -0.1044 -0.0017  0.6156
  103DG      C2 2348   2.124   1.707   3.550 -0.4438 -0.5935 -0.6500
  103DG      H3 2349   2.171   2.318   3.716 -0.5303  2.5312  0.2772
  103DG      H4 2350   2.094   2.389   3.851 -0.2085  0.6042 -0.0173
  103DG      H5 2351   1.997   2.337   3.716 -0.4046 -0.7523  0.6836
  103DG      H6 2352   2.193   1.763   3.486 -2.3010  2.4848 -0.1630
  103DG      H7 2353   2.171   1.611   3.570  1.6898  0.0996 -1.9608
  103DG      H8 2354   2.033   1.695   3.492 -0.5691 -0.0870 -0.5665
  103DG      O9 2355   2.057   2.178   3.824 -0.5865  0.1895  0.0065
  103DG     O10 2356   2.094   1.772   3.669  0.6748 -0.9255 -0.5017
  103DG     C11 2357   1.956   2.147   3.914  0.3151 -0.1907  0.0730
  103DG     C12 2358   2.000   1.701   3.755 -1.3986 -0.1773 -0.0486
  103DG     H13 2359   1.853   2.159   3.878  0.4455  1.0912  0.0627
  103DG     H14 2360   1.964   2.212   4.001 -2.3016 -0.8507  0.8995
  103DG     H15 2361   2.019   1.594   3.771 -1.7146 -0.1991  0.1934
  103DG     H16 2362   1.901   1.694   3.711 -1.8573  0.7023  0.8026
  103DG     C17 2363   1.991   2.007   3.966 -0.0113 -0.0415  0.4963
  103DG     C18 2364   2.006   1.784   3.881  0.7636  0.0816 -0.5594
  103DG     O19 2365   2.000   1.924   3.845  0.6230 -0.0238  0.5278
  103DG     H20 2366   1.925   1.974   4.046 -0.0311  1.2240  1.0110
  103DG     H21 2367   2.091   2.002   4.008  1.0113  3.1590 -1.2656
  103DG     H22 2368   1.922   1.758   3.947  1.0524  0.7626  0.0982
  103DG     H23 2369   2.101   1.760   3.929 -0.1867 -4.0336 -0.3736
  104DG      C1 2370   5.443   0.185   3.400 -0.0461  0.0893 -0.9756
  104DG      C2 2371   5.469   0.732   3.661  0.0167  1.0623 -0.2288
  104DG      H3 2372   5.470   0.132   3.309  2.1882  0.2466 -0.4579
  104DG      H4 2373   5.382   0.122   3.464  1.2118  1.0276  1.2687
  104DG      H5 2374   5.527   0.204   3.466 -2.0831  3.1098  1.0422
  104DG      H6 2375   5.561   0.699   3.708 -0.3956 -2.4705 -1.5805
  104DG      H7 2376   5.502   0.826   3.618  1.2416 -0.3706 -2.6243
  104DG      H8 2377   5.408   0.761   3.746  1.5383  1.2024  0.8440
  104DG      O9 2378   5.392   0.313   3.383 -0.4206 -0.1035  0.6052
  104DG     O10 2379   5.405   0.636   3.571 -0.0053  0.0179 -0.5434
  104DG     C11 2380   5.282   0.322   3.289 -0.1426 -0.0020 -0.2737
  104DG     C12 2381   5.269   0.647   3.569  0.6960  0.2815 -0.4491
  104DG     H13 2382   5.190   0.288   3.335 -1.1951  4.0431  1.0017
  104DG     H14 2383   5.295   0.260   3.200  0.8740 -1.1336  0.6323
  104DG     H15 2384   5.240   0.748   3.541 -0.4900 -0.2623 -1.2567
  104DG     H16 2385   5.224   0.628   3.666 -0.3220 -0.2655 -1.0044
  104DG     C17 2386   5.265   0.468   3.243 -0.1673  0.2010  0.1129
  104DG     C18 2387   5.216   0.554   3.467  0.0808  0.3260  0.6892
  104DG     O19 2388   5.311   0.546   3.360  0.4679 -0.5681 -0.0159
  104DG     H20 2389   5.164   0.490   3.208  0.5539  0.5402 -1.8386
  104DG     H21 2390   5.337   0.497   3.167 -0.0267  2.5944  1.0622
  104DG     H22 2391   5.214   0.453   3.509 -0.2189  0.4401  0.9539
  104DG     H23 2392   5.114   0.577   3.436 -0.2905  1.9052  2.8557
  105DG      C1 2393   2.005   4.063   4.217  0.2634 -0.2110 -0.2624
  105DG      C2 2394   2.619   4.190   3.955 -0.0452  0.0358 -0.4125
  105DG      H3 2395   1.915   4.101   4.169 -0.4873  0.9797  1.9033
  105DG      H4 2396   2.046   4.153   4.265  2.2568 -0.6599 -1.0313
  105DG      H5 2397   1.978   3.989   4.292 -1.4543  0.4736 -0.1545
  105DG      H6 2398   2.603   4.280   4.014 -0.2494 -0.6587  0.6085
  105DG      H7 2399   2.680   4.112   4.000 -3.1629 -2.2573  0.1397
  105DG      H8 2400   2.665   4.230   3.864 -0.1394  0.9834 -0.0596
  105DG      O9 2401   2.101   4.015   4.131 -0.4196 -0.0246  0.7090
  105DG     O10 2402   2.492   4.128   3.940 -1.2368  0.2345  0.0573
  105DG     C11 2403   2.097   3.875   4.105  0.2765 -0.6275  0.9890
  105DG     C12 2404   2.512   4.000   3.881 -0.1580  0.0305 -0.0744
  105DG     H13 2405   1.997   3.842   4.077  0.3882 -0.1218 -0.0542
  105DG     H14 2406   2.118   3.827   4.200  0.4242 -2.2807  0.1462
  105DG     H15 2407   2.586   3.938   3.933  1.5478  1.0421 -1.2165
  105DG     H16 2408   2.555   4.009   3.781  2.0905  0.0913  0.8533
  105DG     C17 2409   2.192   3.823   3.994  0.6863  0.2028 -0.2180
  105DG     C18 2410   2.377   3.924   3.871  1.1878 -0.0909  0.0792
  105DG     O19 2411   2.309   3.912   3.994 -0.4208  0.3892  0.3627
  105DG     H20 2412   2.130   3.821   3.904  0.2301 -0.9920  0.1049
  105DG     H21 2413   2.219   3.723   4.025  1.7955  1.3151  2.7220
  105DG     H22 2414   2.306   3.981   3.813  0.6297  0.5707  1.3743
  105DG     H23 2415   2.403   3.827   3.828  1.3106 -0.1467  0.2764
  106DG      C1 2416   0.941   4.486   3.161  0.4736 -0.1434 -0.0768
  106DG      C2 2417   0.672   4.694   3.774 -0.0340  0.0732  0.3868
  106DG      H3 2418   0.852   4.455   3.214 -1.3173  0.6918 -2.4019
  106DG      H4 2419   1.025   4.419   3.178  1.1986  0.7904  0.0915
  106DG      H5 2420   0.921   4.492   3.054 -0.2443  0.2912  0.0768
  106DG      H6 2421   0.737   4.612   3.805 -1.6217 -1.4114 -0.1016
  106DG      H7 2422   0.694   4.791   3.820  2.4871  1.4492 -3.2799
  106DG      H8 2423   0.570   4.663   3.795  0.1371 -0.7144  0.0759
  106DG      O9 2424   0.998   4.606   3.214  0.5747  0.0571  1.0589
  106DG     O10 2425   0.679   4.722   3.632  0.1676  0.2137  1.0835
  106DG     C11 2426   0.918   4.718   3.188  0.0765 -0.5033 -0.1848
  106DG     C12 2427   0.649   4.606   3.554 -0.8418 -0.3676 -0.1798
  106DG     H13 2428   0.908   4.753   3.086 -2.9582  0.3772  0.3216
  106DG     H14 2429   0.966   4.793   3.251 -0.0083 -0.4290 -0.2091
  106DG     H15 2430   0.553   4.570   3.591 -1.4851  1.9843  0.6602
  106DG     H16 2431   0.734   4.538   3.566 -1.5672 -1.4895 -1.1865
  106DG     C17 2432   0.777   4.702   3.223  0.2473  0.2630 -0.2826
  106DG     C18 2433   0.659   4.626   3.409 -0.3463  0.8626 -0.2547
  106DG     O19 2434   0.781   4.677   3.368  0.3030 -0.3928  0.4938
  106DG     H20 2435   0.718   4.628   3.168 -0.7421 -0.2063  1.3297
  106DG     H21 2436   0.719   4.794   3.211 -2.9965 -1.6293 -0.5354
  106DG     H22 2437   0.654   4.523   3.371  2.6066  1.2588 -2.0366
  106DG     H23 2438   0.575   4.687   3.376 -0.1484  1.3022  0.0477
  107DG      C1 2439   0.272   4.959   0.769  0.5399  0.3057 -0.5442
  107DG      C2 2440  -0.070   4.969   0.402  0.3521  0.1177 -0.4329
  107DG      H3 2441   0.168   4.953   0.801  0.3572  0.5752 -1.0724
  107DG      H4 2442   0.302   5.063   0.761  2.0154  0.1887  2.2245
  107DG      H5 2443   0.331   4.914   0.849  0.8179  1.4092 -0.1155
  107DG      H6 2444  -0.093   5.052   0.336  1.1970 -0.5142 -1.5601
  107DG      H7 2445  -0.127   4.887   0.359  1.8106 -0.9409 -0.4065
  107DG      H8 2446  -0.105   4.996   0.502 -2.1769 -1.3693 -0.8211
  107DG      O9 2447   0.302   4.881   0.658 -0.2808 -0.0306 -0.2830
  107DG     O10 2448   0.061   4.939   0.408 -0.1640  0.0181  0.4105
  107DG     C11 2449   0.433   4.908   0.613 -0.4859  0.1245 -0.0671
  107DG     C12 2450   0.135   4.976   0.289 -0.7145  0.3309  0.4738
  107DG     H13 2451   0.514   4.874   0.678 -0.9393  1.4503  1.2307
  107DG     H14 2452   0.456   5.014   0.611  0.5541 -0.0978 -1.4826
  107DG     H15 2453   0.115   5.072   0.241  2.9309 -0.0074 -2.1906
  107DG     H16 2454   0.137   4.903   0.207  0.5985  0.1078  0.6722
  107DG     C17 2455   0.439   4.847   0.470  0.5403 -0.3167  0.0168
  107DG     C18 2456   0.281   4.970   0.335  0.2932  0.2095 -0.3787
  107DG     O19 2457   0.312   4.846   0.402  0.3255 -0.1034  0.4259
  107DG     H20 2458   0.457   4.741   0.482 -0.7221 -0.3951  1.3740
  107DG     H21 2459   0.521   4.891   0.413  0.4616 -0.1761  0.0118
  107DG     H22 2460   0.356   4.983   0.256  3.7246 -2.0065  2.2133
  107DG     H23 2461   0.290   5.051   0.408 -0.6910 -0.9349  1.0440
  108DG      C1 2462   1.698   5.455   2.493  0.5130 -0.1298 -0.2314
  108DG      C2 2463   1.782   6.128   2.291 -0.7645 -0.0828  0.1262
  108DG      H3 2464   1.668   5.386   2.572 -0.9671  0.6516 -0.0795
  108DG      H4 2465   1.762   5.402   2.422  2.9310  1.7420  0.4200
  108DG      H5 2466   1.607   5.496   2.449  1.1772  1.7429  0.0412
  108DG      H6 2467   1.767   6.079   2.195  0.5786 -0.1723 -0.0495
  108DG      H7 2468   1.683   6.173   2.306 -1.9180 -1.8825 -1.6428
  108DG      H8 2469   1.852   6.207   2.266  0.3180 -1.9737 -3.4069
  108DG      O9 2470   1.769   5.571   2.537  0.5411  0.6328 -0.5181
  108DG     O10 2471   1.820   6.043   2.398  0.3742 -0.0030  0.3777
  108DG     C11 2472   1.905   5.553   2.569  0.0291  0.4880 -0.1325
  108DG     C12 2473   1.958   6.019   2.417  0.5840  0.1124  0.5991
  108DG     H13 2474   1.970   5.519   2.488  0.4983 -2.3575  1.3285
  108DG     H14 2475   1.920   5.486   2.653 -0.2798 -2.0324 -1.9835
  108DG     H15 2476   2.013   6.111   2.442  1.2096 -0.5831  1.8776
  108DG     H16 2477   2.000   5.980   2.324 -0.8263  0.4797 -0.2140
  108DG     C17 2478   1.958   5.690   2.602 -0.3781  0.1126 -0.3627
  108DG     C18 2479   1.978   5.926   2.536 -0.3627  0.0421  0.0995
  108DG     O19 2480   1.930   5.792   2.502  0.3848 -0.4405 -0.6088
  108DG     H20 2481   2.066   5.685   2.619 -0.0965  2.3304 -1.1800
  108DG     H21 2482   1.919   5.720   2.699  0.2688  0.6657 -0.2616
  108DG     H22 2483   2.085   5.917   2.552 -0.3421  0.2851  0.1043
  108DG     H23 2484   1.927   5.959   2.627  0.9013  1.7373  0.2253
  109DG      C1 2485   2.498   2.132   1.541  0.0342 -0.7537  0.2838
  109DG      C2 2486   2.717   1.537   1.853  0.6503 -0.1781  0.6838
  109DG      H3 2487   2.397   2.142   1.502  0.1890  0.4662  0.1608
  109DG      H4 2488   2.544   2.058   1.475 -0.2549 -2.2005  1.6485
  109DG      H5 2489   2.541   2.227   1.509  1.3161 -1.2838  0.3355
  109DG      H6 2490   2.618   1.518   1.811  0.8930  0.0491  0.0046
  109DG      H7 2491   2.792   1.488   1.791  0.4307  0.4821 -0.1317
  109DG      H8 2492   2.725   1.485   1.948 -0.3473 -0.6843  0.5009
  109DG      O9 2493   2.523   2.108   1.679 -0.6454  0.0538  0.4394
  109DG     O10 2494   2.744   1.682   1.863 -0.0527  0.8250  0.4503
  109DG     C11 2495   2.657   2.148   1.715  0.6281  0.0205 -0.4302
  109DG     C12 2496   2.676   1.743   1.967  0.3723  0.9594  0.1782
  109DG     H13 2497   2.650   2.256   1.727 -1.0011 -0.2509  1.7086
  109DG     H14 2498   2.723   2.121   1.633  0.3563  0.1302 -0.6875
  109DG     H15 2499   2.698   1.688   2.058 -0.3614 -0.9604 -0.7603
  109DG     H16 2500   2.569   1.735   1.948  0.4933 -0.2297 -0.0271
  109DG     C17 2501   2.708   2.089   1.855  0.7909  0.6439 -0.1349
  109DG     C18 2502   2.711   1.888   1.966  0.9146  0.8358  0.1891
  109DG     O19 2503   2.687   1.951   1.846  0.0158 -0.5248 -0.3088
  109DG     H20 2504   2.651   2.135   1.936  3.7095 -2.5535  4.1611
  109DG     H21 2505   2.808   2.115   1.887  0.6329 -0.0424  0.9671
  109DG     H22 2506   2.643   1.928   2.041  1.1945  0.7181  0.5049
  109DG     H23 2507   2.816   1.886   1.996  1.2179 -1.4614 -0.8446
  110DG      C1 2508   0.298   4.255   2.441 -0.0605  0.0218 -0.3175
  110DG      C2 2509   0.813   4.565   2.763  0.2340  0.0195  0.2765
  110DG      H3 2510   0.209   4.274   2.381  1.1713  1.7401 -1.6752
  110DG      H4 2511   0.280   4.181   2.519  1.6705 -1.5508 -1.3409
  110DG      H5 2512   0.374   4.210   2.378 -2.0463 -2.6445 -0.9945
  110DG      H6 2513   0.806   4.490   2.842 -1.3711 -1.1027 -0.8620
  110DG      H7 2514   0.871   4.515   2.686  1.0828  1.5289 -0.0843
  110DG      H8 2515   0.876   4.649   2.790  0.7814  0.2249 -1.5583
  110DG      O9 2516   0.341   4.374   2.506  0.0779  0.3641  0.2238
  110DG     O10 2517   0.686   4.587   2.707  0.3303  0.5429  0.0940
  110DG     C11 2518   0.236   4.404   2.602  0.2955  0.1287 -0.0516
  110DG     C12 2519   0.587   4.620   2.800  0.2216  0.4636  0.4235
  110DG     H13 2520   0.247   4.335   2.685  1.1093  0.5263  0.1799
  110DG     H14 2521   0.135   4.406   2.562  1.2345  0.1447 -2.6812
  110DG     H15 2522   0.630   4.706   2.854  2.8368 -0.6607  0.3081
  110DG     H16 2523   0.578   4.532   2.863 -0.1132  0.0074 -0.2613
  110DG     C17 2524   0.264   4.539   2.664 -0.5290 -0.5509 -0.1897
  110DG     C18 2525   0.454   4.658   2.740  0.8643  0.5383  0.2401
  110DG     O19 2526   0.400   4.534   2.689 -0.0605  0.2111 -0.0781
  110DG     H20 2527   0.199   4.559   2.749 -0.9352 -1.3884 -0.2902
  110DG     H21 2528   0.242   4.618   2.593 -0.3870 -0.9930 -0.7347
  110DG     H22 2529   0.395   4.703   2.820  2.8567 -1.2193  2.8818
  110DG     H23 2530   0.478   4.730   2.662  0.2719 -2.4417 -2.9346
  111DG      C1 2531   2.977   1.796   0.352  0.9003 -0.1222  0.4880
  111DG      C2 2532   2.509   1.428   0.080 -0.2225 -0.2583  0.4033
  111DG      H3 2533   2.910   1.880   0.331  0.5571 -0.8410 -1.5389
  111DG      H4 2534   3.081   1.826   0.367  1.0339  0.9312 -1.9582
  111DG      H5 2535   2.937   1.773   0.450 -0.6868 -1.3040 -0.3963
  111DG      H6 2536   2.473   1.440   0.183  0.0356  1.1593  0.3376
  111DG      H7 2537   2.442   1.477   0.009 -0.5720 -1.8623 -0.4121
  111DG      H8 2538   2.504   1.324   0.048  0.5908 -0.7134  1.7023
  111DG      O9 2539   2.966   1.691   0.264 -0.4952  0.3960  0.4299
  111DG     O10 2540   2.634   1.479   0.061 -0.2702  0.7525 -0.1429
  111DG     C11 2541   3.034   1.726   0.143  0.0786 -0.1414 -0.0378
  111DG     C12 2542   2.698   1.468  -0.070  0.8111  0.6754 -0.2719
  111DG     H13 2543   3.138   1.748   0.165  0.0228  0.8976 -0.7487
  111DG     H14 2544   2.983   1.813   0.102 -0.1180  0.2310  0.9885
  111DG     H15 2545   2.640   1.524  -0.144  0.9464 -1.0133 -1.7403
  111DG     H16 2546   2.692   1.364  -0.101  4.2071  0.3717 -0.2594
  111DG     C17 2547   3.017   1.612   0.045  0.2007  0.5355 -0.0514
  111DG     C18 2548   2.849   1.490  -0.071  0.5441 -0.2733 -0.6432
  111DG     O19 2549   2.878   1.593   0.023 -0.8776  0.1061 -0.4658
  111DG     H20 2550   3.071   1.527   0.087  0.5563  0.0657 -1.4020
  111DG     H21 2551   3.078   1.625  -0.045  0.7005 -0.0319  0.2003
  111DG     H22 2552   2.903   1.406  -0.028  0.1144  0.3688  1.2289
  111DG     H23 2553   2.893   1.518  -0.166  1.5575 -0.9818 -0.4016
  112DG      C1 2554   4.960   4.847   3.984  0.5755 -0.2246  0.0043
  112DG      C2 2555   4.589   4.735   4.494  0.7582 -0.1865  0.3036
  112DG      H3 2556   4.977   4.740   3.971  1.0176 -0.2808  0.9063
  112DG      H4 2557   5.031   4.875   4.062  2.8480 -1.0703 -1.6351
  112DG      H5 2558   4.986   4.904   3.895  1.2756  0.7097  0.7763
  112DG      H6 2559   4.668   4.795   4.540 -0.5734  1.8788  0.0137
  112DG      H7 2560   4.520   4.744   4.577  0.1629  0.1881 -0.2187
  112DG      H8 2561   4.624   4.634   4.474  1.7271  0.0573  0.7201
  112DG      O9 2562   4.826   4.870   4.021 -0.4819  0.3338  0.5630
  112DG     O10 2563   4.555   4.788   4.367  0.6032  0.0365  0.3836
  112DG     C11 2564   4.791   5.007   4.005 -1.3110 -0.0121  0.1882
  112DG     C12 2565   4.504   4.918   4.375  0.3474 -0.3969  0.5833
  112DG     H13 2566   4.803   5.043   3.903 -0.1901  1.0417  0.6662
  112DG     H14 2567   4.857   5.077   4.057  0.0647 -1.2152  0.1360
  112DG     H15 2568   4.572   4.982   4.432  1.0060 -0.3231 -0.2580
  112DG     H16 2569   4.404   4.927   4.418  0.4645 -0.4663  0.8741
  112DG     C17 2570   4.647   5.027   4.053  0.8019  0.3138  0.1317
  112DG     C18 2571   4.504   4.973   4.231  0.3313 -0.1765 -0.0323
  112DG     O19 2572   4.632   4.969   4.181  0.2528  0.3472 -0.4857
  112DG     H20 2573   4.578   4.980   3.983 -0.7625 -0.6102  2.2026
  112DG     H21 2574   4.627   5.132   4.071 -2.6048 -0.3765  1.0345
  112DG     H22 2575   4.432   4.918   4.170  1.2279 -0.6075 -0.7296
  112DG     H23 2576   4.480   5.079   4.241 -0.9091 -0.6522  2.7768
  113DG      C1 2577   1.845   3.876   3.059  0.3251  0.1041  0.5388
  113DG      C2 2578   1.888   3.729   2.347  0.6955  0.3673 -0.9102
  113DG      H3 2579   1.814   3.973   3.021  1.2950 -0.0435 -0.6808
  113DG      H4 2580   1.954   3.876   3.068  0.2094  1.2540  2.8751
  113DG      H5 2581   1.817   3.866   3.164  0.7261 -2.0013  0.5027
  113DG      H6 2582   1.863   3.789   2.259 -0.6060 -0.4195 -1.1074
  113DG      H7 2583   1.966   3.789   2.393  1.7291 -0.0524 -2.0712
  113DG      H8 2584   1.921   3.634   2.304  0.7387  1.4107 -3.3603
  113DG      O9 2585   1.795   3.771   2.968  0.0706 -1.2589 -0.4624
  113DG     O10 2586   1.790   3.706   2.451  0.5304 -0.3766 -0.3152
  113DG     C11 2587   1.661   3.764   2.936  0.6026  0.6458 -0.5237
  113DG     C12 2588   1.800   3.586   2.525 -0.0437  0.0866  1.1678
  113DG     H13 2589   1.627   3.860   2.895  0.3443  1.7759  2.1085
  113DG     H14 2590   1.608   3.749   3.030  0.0852 -0.9215 -1.0352
  113DG     H15 2591   1.899   3.581   2.572 -0.5910 -0.4698  2.3024
  113DG     H16 2592   1.786   3.504   2.454  0.3555 -0.0915  1.2880
  113DG     C17 2593   1.636   3.647   2.845  0.0308  0.7605  0.7147
  113DG     C18 2594   1.684   3.570   2.626 -0.3522  0.1451  0.2104
  113DG     O19 2595   1.696   3.672   2.717 -0.0695  0.3263  0.5640
  113DG     H20 2596   1.530   3.635   2.825 -0.0376  0.0128  1.4911
  113DG     H21 2597   1.679   3.562   2.898 -0.3351  0.1312  0.0237
  113DG     H22 2598   1.585   3.569   2.580  0.9555  0.7809 -2.8523
  113DG     H23 2599   1.711   3.475   2.672  0.3520 -0.8998 -2.1891
  114DG      C1 2600   1.693   0.574   5.230 -1.1704  0.3903 -0.6782
  114DG      C2 2601   2.050   1.131   5.057 -0.2639 -0.6133  0.9894
  114DG      H3 2602   1.668   0.478   5.186 -0.3104 -0.5109  0.7188
  114DG      H4 2603   1.626   0.658   5.211  0.0794  0.8268 -3.7408
  114DG      H5 2604   1.704   0.564   5.338  0.8236 -0.4186 -0.9130
  114DG      H6 2605   2.141   1.173   5.100  0.0783 -1.6732  1.3544
  114DG      H7 2606   2.058   1.152   4.951  2.2353  1.2278  1.4651
  114DG      H8 2607   1.967   1.191   5.095 -1.1697 -0.4880 -1.0823
  114DG      O9 2608   1.811   0.629   5.177  0.1800  0.0891  0.1097
  114DG     O10 2609   2.049   0.988   5.086 -0.3960  0.0726 -0.3241
  114DG     C11 2610   1.911   0.528   5.163 -0.3797  0.0373 -0.3994
  114DG     C12 2611   2.162   0.924   5.026 -0.2454 -0.4151 -0.9151
  114DG     H13 2612   1.883   0.473   5.073 -2.4293  0.6242 -0.1644
  114DG     H14 2613   1.914   0.458   5.246  0.9437  1.0098  0.4115
  114DG     H15 2614   2.255   0.968   5.062 -0.9140  0.5944 -0.3810
  114DG     H16 2615   2.166   0.929   4.917  0.1760 -1.3298 -0.9556
  114DG     C17 2616   2.049   0.594   5.157 -0.0565  0.5411  0.0109
  114DG     C18 2617   2.175   0.774   5.058 -0.7552  0.4046 -0.2594
  114DG     O19 2618   2.047   0.717   5.087 -0.3945  0.0009  0.3113
  114DG     H20 2619   2.121   0.539   5.096 -0.1861  1.2575 -0.8115
  114DG     H21 2620   2.096   0.599   5.255 -1.2350 -0.8290  0.6888
  114DG     H22 2621   2.235   0.726   4.981  0.0825  1.7115 -0.4491
  114DG     H23 2622   2.228   0.766   5.153 -0.0275  1.0138 -0.6070
  115DG      C1 2623   0.480   3.434   4.202 -0.5912 -0.7211 -0.3726
  115DG      C2 2624   1.101   3.240   4.200 -0.4564 -0.2736  0.2036
  115DG      H3 2625   0.451   3.429   4.307 -0.2838  2.9168  0.0113
  115DG      H4 2626   0.385   3.427   4.148 -0.0223 -0.8496 -1.3834
  115DG      H5 2627   0.513   3.538   4.201  1.4317 -1.3289 -0.9635
  115DG      H6 2628   1.110   3.347   4.215  0.4670 -0.3918  0.5370
  115DG      H7 2629   1.109   3.192   4.297  1.0115  1.5632  1.0577
  115DG      H8 2630   1.186   3.218   4.136 -0.4977 -2.1826  0.7508
  115DG      O9 2631   0.577   3.341   4.168  0.0826 -0.0139  0.4904
  115DG     O10 2632   0.977   3.214   4.132 -0.0166 -0.2824  0.2030
  115DG     C11 2633   0.511   3.213   4.163  0.5755  0.0742 -0.9121
  115DG     C12 2634   0.956   3.073   4.142 -1.0435  0.1414  0.1871
  115DG     H13 2635   0.413   3.228   4.116  0.7069  1.2297 -0.8378
  115DG     H14 2636   0.504   3.158   4.256 -0.4563  0.6184 -0.6531
  115DG     H15 2637   0.959   3.033   4.244  1.9131  0.5949  0.3774
  115DG     H16 2638   1.033   3.005   4.104 -0.6509  0.1984  0.8555
  115DG     C17 2639   0.600   3.135   4.077  0.4403 -0.1458  0.0841
  115DG     C18 2640   0.825   3.046   4.079 -0.5161  0.8782  0.3640
  115DG     O19 2641   0.722   3.125   4.152  0.5090  0.0472  0.5047
  115DG     H20 2642   0.620   3.184   3.982 -1.1528 -0.8958 -0.6799
  115DG     H21 2643   0.551   3.039   4.063  1.8533 -0.7317 -1.1810
  115DG     H22 2644   0.836   3.078   3.976  0.9188  2.3627  0.9377
  115DG     H23 2645   0.789   2.943   4.084 -0.3351  0.7377 -0.9183
  116DG      C1 2646   0.504   2.022   2.364 -0.7359 -0.3814 -0.4859
  116DG      C2 2647   0.243   2.272   1.837  0.5090 -0.0257 -0.3646
  116DG      H3 2648   0.541   1.941   2.427 -0.8309  1.8120  2.5869
  116DG      H4 2649   0.431   2.084   2.416  1.8149  0.8583  1.8037
  116DG      H5 2650   0.580   2.097   2.343 -0.7508 -0.0416  0.6321
  116DG      H6 2651   0.161   2.210   1.800 -1.0097  0.3376  2.1347
  116DG      H7 2652   0.219   2.321   1.932 -2.0299 -2.1588  0.2000
  116DG      H8 2653   0.267   2.350   1.765 -0.8518  1.4134  0.6642
  116DG      O9 2654   0.445   1.959   2.252  0.8650  0.5153 -0.3975
  116DG     O10 2655   0.356   2.188   1.866  0.2280 -0.0990 -0.4497
  116DG     C11 2656   0.537   1.870   2.199  0.1190  0.2640  0.2718
  116DG     C12 2657   0.344   2.054   1.820 -0.1842  0.1804  0.1582
  116DG     H13 2658   0.529   1.768   2.237 -0.7257 -0.4304 -1.6399
  116DG     H14 2659   0.640   1.905   2.206 -0.7105  3.3092 -1.1541
  116DG     H15 2660   0.335   2.048   1.712 -0.8629  0.1095  0.2163
  116DG     H16 2661   0.261   1.992   1.854 -1.3060  1.4080 -0.2565
  116DG     C17 2662   0.504   1.850   2.050  0.5985 -0.1008 -0.3593
  116DG     C18 2663   0.471   1.978   1.857  0.4158 -0.7832  0.4257
  116DG     O19 2664   0.478   1.979   2.001 -0.8173 -0.0879  0.7460
  116DG     H20 2665   0.410   1.798   2.034  0.3262  0.5980 -1.0871
  116DG     H21 2666   0.589   1.798   2.005  1.8985 -0.4129  2.2892
  116DG     H22 2667   0.480   1.876   1.819  1.8120 -0.6495  0.3610
  116DG     H23 2668   0.557   2.023   1.809  0.2725 -0.4302  0.5024
  117DG      C1 2669   3.815   1.819   4.954  0.0939 -0.2053 -0.7426
  117DG      C2 2670   4.294   1.570   4.653 -0.7394  0.7054  0.0153
  117DG      H3 2671   3.822   1.788   5.058 -1.4819 -0.3783 -0.6635
  117DG      H4 2672   3.762   1.753   4.886  0.6300  0.7591 -2.1473
  117DG      H5 2673   3.755   1.910   4.954  0.4483  0.0626  1.2010
  117DG      H6 2674   4.393   1.543   4.618 -0.7954 -0.2071  0.5341
  117DG      H7 2675   4.288   1.506   4.741  1.3198 -1.2445 -1.1727
  117DG      H8 2676   4.226   1.528   4.579  0.6924  1.2624 -1.6847
  117DG      O9 2677   3.951   1.850   4.917 -0.2150  0.4611  0.0289
  117DG     O10 2678   4.270   1.709   4.680 -0.2339 -0.0273  1.0175
  117DG     C11 2679   4.006   1.953   4.992 -0.5296 -0.3350  1.1510
  117DG     C12 2680   4.377   1.784   4.735 -0.5427 -0.3542  0.2130
  117DG     H13 2681   4.024   1.935   5.098 -2.4144 -1.9830  1.2440
  117DG     H14 2682   3.945   2.042   4.974 -0.8006 -0.7545 -0.0303
  117DG     H15 2683   4.455   1.803   4.660 -0.9130  0.4405  0.0158
  117DG     H16 2684   4.424   1.733   4.818 -1.1401  3.3135  3.0646
  117DG     C17 2685   4.141   2.001   4.929 -0.5177  0.6733 -0.6511
  117DG     C18 2686   4.322   1.909   4.804  0.4840  0.3676  0.1645
  117DG     O19 2687   4.211   1.879   4.885  0.1021  0.2546  0.1179
  117DG     H20 2688   4.194   2.056   5.006 -0.9034 -0.7017  0.6483
  117DG     H21 2689   4.131   2.075   4.849  0.5998  1.0537 -0.4566
  117DG     H22 2690   4.395   1.952   4.873 -1.0499 -0.1668  2.2213
  117DG     H23 2691   4.296   1.990   4.736  0.1403  0.4165  0.3516
  118DG      C1 2692   4.960   1.811   4.246 -0.3434  0.2628 -0.4170
  118DG      C2 2693   4.921   1.162   4.345  0.3716 -0.5363  0.7546
  118DG      H3 2694   4.979   1.831   4.140 -0.0227 -0.8747 -0.5881
  118DG      H4 2695   4.984   1.903   4.299 -0.2595 -0.8987  1.6544
  118DG      H5 2696   4.853   1.797   4.266 -0.7326  2.1186 -1.0495
  118DG      H6 2697   4.855   1.186   4.428  1.5834  2.7839  0.8860
  118DG      H7 2698   4.875   1.176   4.247  0.6472 -2.4459  0.3154
  118DG      H8 2699   4.952   1.057   4.339 -0.6256 -0.8967  1.5019
  118DG      O9 2700   5.035   1.701   4.291  0.5671 -0.2523 -0.7226
  118DG     O10 2701   5.020   1.259   4.338  0.3155  0.4073  0.7312
  118DG     C11 2702   5.165   1.700   4.236  0.0821 -0.5149 -0.2323
  118DG     C12 2703   5.128   1.228   4.255 -0.8849  0.4481 -0.2334
  118DG     H13 2704   5.216   1.790   4.271  1.2643 -0.8840 -0.9477
  118DG     H14 2705   5.173   1.698   4.128  2.1041 -1.1426 -0.1149
  118DG     H15 2706   5.094   1.218   4.152 -0.7508 -1.7037 -0.1254
  118DG     H16 2707   5.181   1.137   4.282 -2.3340 -0.1080  0.8444
  118DG     C17 2708   5.241   1.576   4.289  0.2435 -1.0258  0.3841
  118DG     C18 2709   5.226   1.341   4.269 -0.9435 -0.0860 -0.4196
  118DG     O19 2710   5.163   1.467   4.251  0.5049 -0.1875 -0.3078
  118DG     H20 2711   5.232   1.579   4.398  0.5737 -0.1010  0.3937
  118DG     H21 2712   5.345   1.564   4.259  0.9075  0.5479  1.8725
  118DG     H22 2713   5.274   1.350   4.367 -1.6245  0.8140 -0.1503
  118DG     H23 2714   5.308   1.328   4.199  0.3244  1.1054  0.7789
  119DG      C1 2715   5.495   1.544   4.869  0.1765 -0.5316  1.0322
  119DG      C2 2716   5.481   2.167   4.927  0.4559 -0.0403 -0.0782
  119DG      H3 2717   5.577   1.586   4.810  1.0618 -2.7316  0.5927
  119DG      H4 2718   5.413   1.556   4.799  0.7836 -0.6566  0.2863
  119DG      H5 2719   5.512   1.438   4.888 -3.4080 -1.1857  1.2511
  119DG      H6 2720   5.487   2.249   4.998 -1.4089 -0.5408  0.7247
  119DG      H7 2721   5.575   2.152   4.873  0.4684  2.7759 -1.0165
  119DG      H8 2722   5.411   2.183   4.845  1.7802  0.8486 -1.0792
  119DG      O9 2723   5.468   1.633   4.972  0.0316 -0.0193  0.1557
  119DG     O10 2724   5.453   2.053   5.001  0.0160  0.2187  0.5800
  119DG     C11 2725   5.370   1.585   5.066  0.2340  0.6370  0.4990
  119DG     C12 2726   5.328   2.066   5.052 -0.8194 -0.0358 -0.7725
  119DG     H13 2727   5.403   1.500   5.126  1.9605  1.1032  0.2594
  119DG     H14 2728   5.284   1.554   5.007 -0.0545  0.3860  1.0435
  119DG     H15 2729   5.254   2.060   4.972  0.0937  2.5855 -1.9343
  119DG     H16 2730   5.324   2.161   5.107  1.2895  0.0048 -0.6166
  119DG     C17 2731   5.340   1.702   5.151  0.2991  0.2061 -0.0693
  119DG     C18 2732   5.305   1.941   5.138 -0.0108 -0.2221 -0.9920
  119DG     O19 2733   5.317   1.817   5.065 -0.4862  0.9253 -0.1711
  119DG     H20 2734   5.423   1.724   5.218  0.4278  2.6817 -0.9069
  119DG     H21 2735   5.259   1.663   5.213  1.9732 -2.9645  0.2972
  119DG     H22 2736   5.385   1.943   5.212 -0.0566  2.7715 -0.9295
  119DG     H23 2737   5.206   1.946   5.183  0.5225 -1.4255  0.3785
  120DG      C1 2738   0.319   1.554   2.378  0.5028  0.1399 -0.7613
  120DG      C2 2739  -0.339   1.646   2.295  0.5977 -0.3597  0.0578
  120DG      H3 2740   0.414   1.540   2.430  0.6683  0.7719 -0.8847
  120DG      H4 2741   0.324   1.636   2.306  1.9440 -0.5232 -1.4746
  120DG      H5 2742   0.312   1.465   2.314 -2.3068 -0.5407  0.3448
  120DG      H6 2743  -0.300   1.694   2.206 -0.3461 -0.8284 -0.6237
  120DG      H7 2744  -0.375   1.551   2.255 -0.3964  0.9028 -2.2397
  120DG      H8 2745  -0.430   1.691   2.335 -0.2375 -1.7331 -0.2359
  120DG      O9 2746   0.199   1.552   2.444  0.3094 -0.3663  0.3618
  120DG     O10 2747  -0.231   1.631   2.386  0.0146 -0.4718 -0.1518
  120DG     C11 2748   0.202   1.632   2.558  0.1559 -0.1061  0.3219
  120DG     C12 2749  -0.209   1.750   2.464  0.3585  0.1323  0.6728
  120DG     H13 2750   0.204   1.736   2.525  2.9934 -0.6579 -1.6186
  120DG     H14 2751   0.290   1.611   2.618 -0.3766 -2.2997  0.4271
  120DG     H15 2752  -0.279   1.762   2.546  0.5028 -3.2559  1.4210
  120DG     H16 2753  -0.223   1.837   2.399  0.6289 -1.9590 -2.4205
  120DG     C17 2754   0.073   1.597   2.637  0.0647  0.6555 -0.0193
  120DG     C18 2755  -0.068   1.748   2.528  0.3414 -0.4899  0.3684
  120DG     O19 2756  -0.040   1.611   2.553  0.7367  0.4377  0.3686
  120DG     H20 2757   0.057   1.659   2.725 -2.9313  1.4225 -0.9882
  120DG     H21 2758   0.071   1.493   2.667 -0.3340  0.4534 -0.7305
  120DG     H22 2759   0.008   1.785   2.459  1.3711 -1.7663  0.7758
  120DG     H23 2760  -0.073   1.814   2.614  1.9863  1.2617 -0.7975
  121DG      C1 2761   5.291   2.493   3.589  0.2718 -0.0557  0.1151
  121DG      C2 2762   5.122   2.534   3.971 -0.3379  0.3502 -0.7934
  121DG      H3 2763   5.200   2.516   3.533  2.1617  4.2856 -1.6588
  121DG      H4 2764   5.367   2.466   3.515  0.2484  0.0803  0.0405
  121DG      H5 2765   5.314   2.580   3.651 -0.0229 -0.4578  0.7976
  121DG      H6 2766   5.112   2.524   3.863  0.8453 -1.6523 -0.7798
  121DG      H7 2767   5.023   2.548   4.016 -1.2704 -2.8059 -1.5965
  121DG      H8 2768   5.193   2.610   4.001  0.9800 -1.1363  0.0254
  121DG      O9 2769   5.276   2.382   3.676  0.2639 -0.3942 -0.4132
  121DG     O10 2770   5.183   2.416   4.023 -0.1632  0.5349  0.0395
  121DG     C11 2771   5.231   2.261   3.615 -0.0216  0.3963  0.3989
  121DG     C12 2772   5.099   2.309   4.019 -0.2808 -0.1446 -1.1161
  121DG     H13 2773   5.275   2.224   3.523 -3.4117 -0.7220 -0.9156
  121DG     H14 2774   5.127   2.269   3.583 -0.4035 -2.6296  0.5663
  121DG     H15 2775   5.002   2.341   4.058 -0.1026 -0.1007 -0.7056
  121DG     H16 2776   5.131   2.229   4.086 -1.7666  0.1650  0.0247
  121DG     C17 2777   5.232   2.147   3.715  0.0673  0.0531  0.0238
  121DG     C18 2778   5.080   2.243   3.880 -0.1187 -0.4593 -0.4621
  121DG     O19 2779   5.210   2.195   3.843  0.2666 -0.6217 -0.1108
  121DG     H20 2780   5.324   2.088   3.704 -0.7838 -1.6665  1.5048
  121DG     H21 2781   5.156   2.070   3.698  1.1503 -1.6430  2.2759
  121DG     H22 2782   5.012   2.158   3.885 -0.8015  0.1450  1.1565
  121DG     H23 2783   5.044   2.306   3.799  1.0506 -0.7280 -1.2239
  122DG      C1 2784   3.060   1.187   4.796 -0.5194  0.3597 -0.8301
  122DG      C2 2785   2.628   1.565   4.453 -0.2017 -0.9991  0.1185
  122DG      H3 2786   3.058   1.199   4.904  4.0283  1.1124 -0.6293
  122DG      H4 2787   3.153   1.138   4.770 -0.8203 -1.1798  0.8187
  122DG      H5 2788   2.967   1.132   4.783 -3.0197  3.5783  1.6050
  122DG      H6 2789   2.581   1.656   4.415  0.2384 -1.0744 -0.6283
  122DG      H7 2790   2.626   1.495   4.369  1.7684 -0.0375 -0.7939
  122DG      H8 2791   2.567   1.523   4.533 -0.0855 -2.2939 -0.4495
  122DG      O9 2792   3.040   1.302   4.723 -0.0631  0.1151 -0.3329
  122DG     O10 2793   2.751   1.581   4.515  0.0368 -0.4111 -0.3901
  122DG     C11 2794   3.143   1.404   4.749 -0.3947 -0.4569 -0.3535
  122DG     C12 2795   2.852   1.616   4.423  0.2277 -0.5147  0.3731
  122DG     H13 2796   3.239   1.353   4.748 -1.0064 -1.6473 -1.4414
  122DG     H14 2797   3.124   1.437   4.851  0.1701 -1.9627  0.2753
  122DG     H15 2798   2.827   1.706   4.368 -4.6511 -0.0719  2.7984
  122DG     H16 2799   2.856   1.546   4.339 -1.0045 -1.0118  0.7050
  122DG     C17 2800   3.136   1.511   4.643  0.4020  0.0471  0.0885
  122DG     C18 2801   2.990   1.617   4.485 -0.6986 -0.0565  0.5167
  122DG     O19 2802   3.010   1.507   4.576  0.6174  0.2404  0.1583
  122DG     H20 2803   3.210   1.491   4.566  0.9682 -1.4479  0.9723
  122DG     H21 2804   3.159   1.609   4.685 -0.1939  1.2973 -2.3441
  122DG     H22 2805   3.069   1.632   4.412 -2.6149  3.7401 -1.0989
  122DG     H23 2806   2.981   1.702   4.553 -1.6828  0.7140 -0.5340
  123DG      C1 2807   4.248   2.649   1.964 -0.1174  0.0756 -0.2301
  123DG      C2 2808   3.954   2.956   1.521 -0.1879 -0.6483  0.3820
  123DG      H3 2809   4.261   2.564   2.031  1.5415  1.5559  1.4144
  123DG      H4 2810   4.277   2.747   2.001 -0.5578  0.9797 -2.1106
  123DG      H5 2811   4.319   2.638   1.882  1.0930  0.7654  0.7098
  123DG      H6 2812   3.928   3.059   1.496 -2.4299 -1.1984  0.2783
  123DG      H7 2813   4.058   2.960   1.489  0.2838  0.2815  1.9333
  123DG      H8 2814   3.897   2.882   1.465  0.1201 -0.7779  0.2397
  123DG      O9 2815   4.114   2.650   1.912 -0.0418 -0.5683 -0.2035
  123DG     O10 2816   3.956   2.928   1.666  0.3998  0.2236  0.2753
  123DG     C11 2817   4.015   2.649   2.013 -0.2347 -0.3905 -0.0392
  123DG     C12 2818   3.824   2.909   1.701  0.1172  0.1273  0.1769
  123DG     H13 2819   4.018   2.739   2.074 -0.8777 -1.0462  0.9861
  123DG     H14 2820   4.031   2.568   2.084 -1.7408  0.4309  1.3116
  123DG     H15 2821   3.780   2.829   1.641  0.4837 -0.7251  1.0277
  123DG     H16 2822   3.770   3.004   1.695 -1.0603 -0.6019 -2.0893
  123DG     C17 2823   3.879   2.638   1.952  0.0482  0.6287 -0.2392
  123DG     C18 2824   3.827   2.841   1.842 -0.8659 -0.0275 -0.1565
  123DG     O19 2825   3.876   2.708   1.827  0.1318  0.0944  0.7529
  123DG     H20 2826   3.798   2.669   2.018 -1.7977 -1.6972 -1.2939
  123DG     H21 2827   3.869   2.532   1.927 -0.4939  0.1896  1.6808
  123DG     H22 2828   3.888   2.900   1.911 -3.3006  0.9416  1.2993
  123DG     H23 2829   3.727   2.830   1.883 -1.3976 -0.0661 -1.4414
  124DG      C1 2830   2.870   2.495   4.878 -0.4284 -0.1668 -0.3692
  124DG      C2 2831   2.696   1.883   4.692 -0.2012 -0.0116  0.2859
  124DG      H3 2832   2.769   2.488   4.919 -1.1606 -1.1184 -2.2117
  124DG      H4 2833   2.867   2.540   4.779  0.0536 -1.5506 -1.0357
  124DG      H5 2834   2.927   2.562   4.943  0.3590  0.0687 -1.2772
  124DG      H6 2835   2.628   1.905   4.610  0.2409  0.7132  0.1047
  124DG      H7 2836   2.733   1.780   4.693 -0.4323 -0.0933  0.8200
  124DG      H8 2837   2.633   1.884   4.781 -2.7096 -1.0017 -1.3677
  124DG      O9 2838   2.940   2.369   4.875 -0.3231 -0.2631  0.6093
  124DG     O10 2839   2.808   1.974   4.703  0.5637 -0.0843 -0.4285
  124DG     C11 2840   2.965   2.315   5.009 -0.0736  0.2970  0.0421
  124DG     C12 2841   2.902   1.910   4.786 -0.6615 -0.0677 -0.1508
  124DG     H13 2842   2.868   2.294   5.056  0.9462 -1.5333  1.4832
  124DG     H14 2843   3.014   2.382   5.080  1.3553 -0.7700  0.1065
  124DG     H15 2844   2.956   1.838   4.724  2.5792  0.4409  1.7920
  124DG     H16 2845   2.849   1.867   4.871 -1.0045 -0.5652 -0.6096
  124DG     C17 2846   3.041   2.184   4.999 -0.4457 -0.2613 -0.3691
  124DG     C18 2847   3.014   2.000   4.831 -0.2253  0.1217 -0.0954
  124DG     O19 2848   2.955   2.100   4.918  0.6738 -0.5497 -0.2016
  124DG     H20 2849   3.084   2.148   5.092  3.2166  0.6818 -1.5333
  124DG     H21 2850   3.136   2.205   4.948 -1.6144  1.8114 -1.9061
  124DG     H22 2851   3.090   1.946   4.886  1.3736  2.3494  0.0034
  124DG     H23 2852   3.063   2.051   4.748  2.0529  1.3527  1.9094
  125DG      C1 2853   0.469   5.164   4.878  0.2183 -0.3371 -0.0178
  125DG      C2 2854   0.220   4.615   4.691 -0.0740 -0.0611 -0.3100
  125DG      H3 2855   0.430   5.197   4.975  1.9667  0.4545  0.4494
  125DG      H4 2856   0.407   5.206   4.798  1.8270  0.1107 -1.0613
  125DG      H5 2857   0.556   5.226   4.861 -1.3246  1.6734 -0.9648
  125DG      H6 2858   0.179   4.528   4.741  0.1701  0.0405  0.0742
  125DG      H7 2859   0.161   4.700   4.727 -1.1094 -0.2688 -1.4933
  125DG      H8 2860   0.183   4.606   4.589  0.3386 -0.2504 -0.4462
  125DG      O9 2861   0.497   5.028   4.858  0.1759  0.1968  0.2593
  125DG     O10 2862   0.356   4.626   4.703  0.2203 -0.2227  0.1343
  125DG     C11 2863   0.577   4.975   4.967 -0.0673 -0.1780 -0.2818
  125DG     C12 2864   0.411   4.548   4.807 -0.4706 -0.0862 -0.1521
  125DG     H13 2865   0.525   4.951   5.060  1.7868 -1.2461  0.5299
  125DG     H14 2866   0.660   5.042   4.989  1.2188 -1.6907 -0.3193
  125DG     H15 2867   0.435   4.454   4.756  0.4755  0.2424 -0.3207
  125DG     H16 2868   0.344   4.529   4.892 -0.9822 -0.4516 -0.6289
  125DG     C17 2869   0.631   4.834   4.914  0.3590  0.1192 -0.0455
  125DG     C18 2870   0.538   4.613   4.854 -0.1199 -0.6311 -0.2691
  125DG     O19 2871   0.514   4.751   4.891 -0.0268  0.2401 -0.4308
  125DG     H20 2872   0.699   4.800   4.992  1.9009  0.6870 -1.0959
  125DG     H21 2873   0.683   4.846   4.818 -0.2343  2.4136 -0.1370
  125DG     H22 2874   0.568   4.563   4.946 -2.6076  0.6069  1.3406
  125DG     H23 2875   0.611   4.607   4.774 -0.6009 -1.9553 -0.6376
  126DG      C1 2876   4.998   2.229   1.188 -0.4456 -0.1807  0.0443
  126DG      C2 2877   4.570   2.600   0.919  0.3876 -0.1246  0.9904
  126DG      H3 2878   5.033   2.144   1.246 -0.7787  0.3923  1.1048
  126DG      H4 2879   5.076   2.304   1.206 -1.4350  1.4214 -1.9359
  126DG      H5 2880   5.002   2.200   1.083 -0.6891 -0.6714  0.1694
  126DG      H6 2881   4.609   2.559   0.826 -1.1600 -0.2645  0.3809
  126DG      H7 2882   4.465   2.612   0.893 -0.0032 -0.9688  2.1151
  126DG      H8 2883   4.616   2.695   0.945 -1.0843  1.5187 -1.8844
  126DG      O9 2884   4.876   2.270   1.240 -0.2406  0.3582  0.2083
  126DG     O10 2885   4.579   2.494   1.015 -0.3252  0.6743  0.5025
  126DG     C11 2886   4.768   2.170   1.248 -0.1954  0.0542 -1.0732
  126DG     C12 2887   4.497   2.523   1.127  0.0363  0.2976  0.1284
  126DG     H13 2888   4.796   2.092   1.318  0.4714  1.1264 -0.1233
  126DG     H14 2889   4.741   2.135   1.148 -1.6332 -0.5217 -0.5033
  126DG     H15 2890   4.394   2.550   1.101  0.0720 -0.1053 -0.4747
  126DG     H16 2891   4.533   2.611   1.180  0.7278 -0.3234  0.7036
  126DG     C17 2892   4.635   2.231   1.303  0.6855  0.4054 -0.1568
  126DG     C18 2893   4.483   2.400   1.225 -0.1294 -0.4134  0.3640
  126DG     O19 2894   4.610   2.351   1.233 -0.4828  0.6178 -0.1742
  126DG     H20 2895   4.639   2.267   1.406  2.7571  1.9414 -0.7027
  126DG     H21 2896   4.554   2.158   1.297 -0.2584  1.1936  1.8725
  126DG     H22 2897   4.453   2.445   1.320 -3.2614 -4.1551  1.4282
  126DG     H23 2898   4.409   2.326   1.194  1.0931 -1.0051 -1.2329
  127DG      C1 2899   4.364   0.196   1.421  0.3792  0.0965  0.2821
  127DG      C2 2900   4.438   0.883   1.493  0.0407  0.1937  0.3163
  127DG      H3 2901   4.298   0.127   1.368  0.5283  1.0121 -1.1368
  127DG      H4 2902   4.399   0.159   1.517  1.2335  0.1389 -0.0044
  127DG      H5 2903   4.450   0.200   1.353 -1.1532 -0.0434 -1.7608
  127DG      H6 2904   4.446   0.908   1.388  0.4554 -2.6804 -0.4068
  127DG      H7 2905   4.405   0.969   1.553 -0.3532 -0.0781  0.4921
  127DG      H8 2906   4.538   0.868   1.535 -0.2340  0.6274  1.1632
  127DG      O9 2907   4.303   0.322   1.434 -0.6249 -0.0679 -0.7221
  127DG     O10 2908   4.351   0.773   1.506  0.0373  0.8327 -0.3533
  127DG     C11 2909   4.218   0.320   1.550 -0.4046  0.0870 -0.1076
  127DG     C12 2910   4.221   0.782   1.449 -0.6091  0.5118 -0.5371
  127DG     H13 2911   4.274   0.336   1.642 -0.4176  0.9916 -0.2490
  127DG     H14 2912   4.167   0.225   1.564 -0.8282 -0.0735 -2.2981
  127DG     H15 2913   4.227   0.793   1.340 -2.2709  3.2262 -0.4633
  127DG     H16 2914   4.177   0.880   1.468 -0.9148  0.6744 -1.9723
  127DG     C17 2915   4.120   0.439   1.535  0.6213  0.4430  0.3698
  127DG     C18 2916   4.122   0.680   1.500 -0.1285 -0.6518 -0.0315
  127DG     O19 2917   4.186   0.549   1.480  0.5073  0.5033 -0.0506
  127DG     H20 2918   4.080   0.485   1.625  2.2627  2.2571  0.2301
  127DG     H21 2919   4.041   0.419   1.462  2.0305  0.3442 -1.1925
  127DG     H22 2920   4.105   0.707   1.604  0.3867 -0.3359 -0.0270
  127DG     H23 2921   4.027   0.692   1.448  0.2591 -1.3350 -0.9461
  128DG      C1 2922   1.225   4.355   3.866  0.1138  0.2147  0.9609
  128DG      C2 2923   1.579   3.984   3.459 -0.2895 -0.6035 -0.2334
  128DG      H3 2924   1.256   4.341   3.969  1.8600 -0.8285  0.3425
  128DG      H4 2925   1.129   4.407   3.873 -1.0852 -1.8497  0.5654
  128DG      H5 2926   1.304   4.420   3.827 -0.3688  1.4695  2.0095
  128DG      H6 2927   1.659   3.988   3.533 -0.6921 -2.0585  0.3238
  128DG      H7 2928   1.598   3.900   3.392 -2.7093 -2.9632  1.7821
  128DG      H8 2929   1.590   4.074   3.399  2.1313 -0.3628  0.4744
  128DG      O9 2930   1.203   4.238   3.794 -0.4278  0.1113 -0.5085
  128DG     O10 2931   1.449   3.978   3.514  0.3026 -0.4775  0.3383
  128DG     C11 2932   1.171   4.133   3.885 -0.4210 -0.1756  0.8314
  128DG     C12 2933   1.412   3.858   3.584 -0.4889 -0.2164 -0.2446
  128DG     H13 2934   1.077   4.140   3.940 -2.8457 -1.7849 -2.6867
  128DG     H14 2935   1.262   4.102   3.936  2.3258  0.4857 -3.1676
  128DG     H15 2936   1.477   3.831   3.667 -0.0568 -0.0561 -0.5275
  128DG     H16 2937   1.424   3.766   3.527 -0.5131 -0.9169  0.8522
  128DG     C17 2938   1.141   4.021   3.787 -0.0081  0.5551 -0.2989
  128DG     C18 2939   1.263   3.877   3.626 -0.1425 -0.2086  0.1721
  128DG     O19 2940   1.264   3.991   3.710  0.2301 -0.0764 -0.0689
  128DG     H20 2941   1.059   4.043   3.718 -0.3996 -0.3326 -0.1266
  128DG     H21 2942   1.115   3.937   3.852 -1.4578 -0.9929 -2.7360
  128DG     H22 2943   1.200   3.885   3.538  1.1918 -0.0846 -0.8019
  128DG     H23 2944   1.217   3.792   3.677 -0.7624 -0.5206 -0.8664
  129DG      C1 2945   0.183   3.352   2.771  0.0697 -0.1444 -0.4191
  129DG      C2 2946  -0.242   2.907   2.568  0.3626  0.1539  0.2283
  129DG      H3 2947   0.281   3.365   2.817  1.1026  2.6066 -3.1199
  129DG      H4 2948   0.136   3.450   2.764  0.6540  0.1238 -0.6157
  129DG      H5 2949   0.219   3.310   2.677 -0.1092 -2.0936  0.3302
  129DG      H6 2950  -0.324   2.956   2.516  0.6432  1.4957  1.0091
  129DG      H7 2951  -0.158   2.890   2.500  0.0541 -1.0905  0.1276
  129DG      H8 2952  -0.275   2.804   2.585  0.1017  0.0832 -0.6632
  129DG      O9 2953   0.113   3.243   2.829 -0.0774  0.0704  0.6695
  129DG     O10 2954  -0.199   2.973   2.679 -0.2254 -0.3986 -0.0337
  129DG     C11 2955   0.053   3.265   2.959  0.3493 -0.9533  0.3905
  129DG     C12 2956  -0.289   2.991   2.789 -0.9576 -0.4879  0.0989
  129DG     H13 2957  -0.010   3.354   2.964  0.2214 -1.0555  5.1701
  129DG     H14 2958   0.130   3.274   3.036 -0.4910 -1.5231  1.3323
  129DG     H15 2959  -0.346   2.897   2.796 -1.1516 -0.5197 -1.6061
  129DG     H16 2960  -0.359   3.074   2.779 -1.1484 -0.6383  0.1615
  129DG     C17 2961  -0.031   3.140   2.998  0.0984 -0.4340  0.7304
  129DG     C18 2962  -0.217   3.021   2.919 -0.2661 -0.6858 -0.2900
  129DG     O19 2963  -0.122   3.120   2.890 -0.2537  0.1881  0.5737
  129DG     H20 2964  -0.085   3.164   3.090 -0.5314  0.9133  0.0437
  129DG     H21 2965   0.033   3.052   3.005  1.0661  0.2072  0.1907
  129DG     H22 2966  -0.283   3.059   2.997 -0.0948  0.2794 -0.5981
  129DG     H23 2967  -0.175   2.927   2.954  1.1221 -0.3624 -0.9899
  130DG      C1 2968   1.800   1.771   4.280  0.6115 -0.4953  0.0337
  130DG      C2 2969   1.654   1.545   4.895 -0.7681 -0.2069 -0.2924
  130DG      H3 2970   1.695   1.802   4.274  0.6038 -0.7966 -2.6616
  130DG      H4 2971   1.839   1.759   4.179  0.9219 -0.0742  0.1015
  130DG      H5 2972   1.843   1.862   4.322  0.6149 -0.7579  0.6020
  130DG      H6 2973   1.711   1.604   4.967 -0.5339 -1.3129  0.4606
  130DG      H7 2974   1.567   1.602   4.862 -0.0780  0.7572 -0.4874
  130DG      H8 2975   1.621   1.454   4.944  0.9752 -1.0225 -0.5499
  130DG      O9 2976   1.814   1.659   4.370 -0.6652 -0.0936 -0.2838
  130DG     O10 2977   1.733   1.515   4.783  0.1633 -0.1981  0.6435
  130DG     C11 2978   1.948   1.615   4.365  0.1330 -0.1971  0.8570
  130DG     C12 2979   1.867   1.488   4.822  1.0456  0.1339 -0.1883
  130DG     H13 2980   2.010   1.704   4.379  0.3318 -0.2562  0.3972
  130DG     H14 2981   1.967   1.578   4.264  1.4495  2.4984  0.0236
  130DG     H15 2982   1.859   1.403   4.890 -4.1219  0.3930 -0.0800
  130DG     H16 2983   1.916   1.568   4.878 -0.9661  1.0281  0.3689
  130DG     C17 2984   1.977   1.511   4.470 -0.6359 -0.3292 -0.9001
  130DG     C18 2985   1.952   1.459   4.696  0.0503  0.4719 -0.3978
  130DG     O19 2986   1.934   1.555   4.598 -0.6587 -0.0579 -0.1170
  130DG     H20 2987   2.077   1.467   4.465 -0.5906 -0.1243 -2.0322
  130DG     H21 2988   1.919   1.424   4.442 -0.0986  0.1864 -3.9228
  130DG     H22 2989   2.054   1.459   4.734  0.2955  0.5838 -1.0484
  130DG     H23 2990   1.934   1.358   4.659  1.0548 -0.2454  0.9851
  131DG      C1 2991   1.721   2.107   3.568  0.3448  0.3465  0.2145
  131DG      C2 2992   2.376   2.044   3.750 -0.4949  0.2684 -0.0733
  131DG      H3 2993   1.695   2.040   3.650 -0.4657 -1.4505 -1.4322
  131DG      H4 2994   1.633   2.094   3.505  0.0669 -1.4801  0.9122
  131DG      H5 2995   1.732   2.211   3.601  1.1647  0.9843 -1.9043
  131DG      H6 2996   2.389   2.145   3.789  0.3766  0.5196 -0.9850
  131DG      H7 2997   2.336   1.985   3.833 -0.0491 -0.0546 -0.0845
  131DG      H8 2998   2.476   2.008   3.724 -0.5441  1.5730 -2.2666
  131DG      O9 2999   1.843   2.072   3.501 -0.5249  0.0396 -0.4303
  131DG     O10 3000   2.292   2.040   3.640 -0.4824  0.0370  0.4905
  131DG     C11 3001   1.880   2.144   3.379 -0.1236  0.1276 -0.0707
  131DG     C12 3002   2.343   2.131   3.538  0.2550  0.8870  0.1676
  131DG     H13 3003   1.878   2.250   3.407  0.9337  0.0485  0.3431
  131DG     H14 3004   1.803   2.120   3.306 -0.9095 -2.2542  1.4126
  131DG     H15 3005   2.447   2.110   3.510  0.1080  0.7415 -0.2737
  131DG     H16 3006   2.337   2.238   3.557  2.3403  0.9921  0.5453
  131DG     C17 3007   2.033   2.114   3.340  0.1621 -0.1995  0.0172
  131DG     C18 3008   2.257   2.108   3.408 -0.1544  0.0284 -0.1652
  131DG     O19 3009   2.125   2.126   3.450  0.5865  0.3177  0.2441
  131DG     H20 3010   2.061   2.181   3.259 -0.6213 -2.0114 -1.8153
  131DG     H21 3011   2.044   2.021   3.284 -0.3327 -0.0172 -0.3921
  131DG     H22 3012   2.290   2.181   3.334  1.2840  1.6663  1.9735
  131DG     H23 3013   2.272   2.011   3.362 -3.0956  0.1608 -1.6255
  132DG      C1 3014   3.372   3.888   4.511  0.0125  0.7213 -0.3978
  132DG      C2 3015   3.338   4.365   4.919 -0.2522 -0.5608  0.9013
  132DG      H3 3016   3.352   3.802   4.447  0.7295 -1.5247  2.2255
  132DG      H4 3017   3.480   3.906   4.507  0.5022 -1.8410 -0.5425
  132DG      H5 3018   3.317   3.977   4.480 -0.2744  0.7595  0.2107
  132DG      H6 3019   3.430   4.403   4.876  0.4461  2.3920  4.4319
  132DG      H7 3020   3.280   4.457   4.931  1.3434  0.3332  2.1434
  132DG      H8 3021   3.355   4.319   5.016 -0.7973  0.2571  1.4004
  132DG      O9 3022   3.353   3.857   4.646 -0.1037 -0.2460 -0.6650
  132DG     O10 3023   3.279   4.273   4.833  0.2436  0.6233 -0.2547
  132DG     C11 3024   3.220   3.811   4.679 -0.2417  0.1836  0.0071
  132DG     C12 3025   3.145   4.252   4.882 -0.1047  0.4074  0.4562
  132DG     H13 3026   3.222   3.753   4.771  1.2739  0.3644  0.1250
  132DG     H14 3027   3.190   3.735   4.606 -1.4414  1.0778 -0.4569
  132DG     H15 3028   3.084   4.342   4.874 -2.2053 -0.9014  0.7118
  132DG     H16 3029   3.141   4.238   4.990 -1.9243 -0.5890  0.3036
  132DG     C17 3030   3.113   3.919   4.695 -0.4295  0.3501  0.3618
  132DG     C18 3031   3.077   4.140   4.793 -0.7134 -0.8387  0.1850
  132DG     O19 3032   3.165   4.029   4.783  0.0174  0.2341  0.3635
  132DG     H20 3033   3.027   3.865   4.735  0.0038 -0.2862  0.4532
  132DG     H21 3034   3.067   3.948   4.601 -1.2625 -0.2776  0.5704
  132DG     H22 3035   2.989   4.102   4.844 -0.8992  0.8107  1.1770
  132DG     H23 3036   3.053   4.179   4.694  2.6461 -2.0910 -1.2945
  133DG      C1 3037   4.894   1.418   0.731 -0.0678 -0.7877 -0.6174
  133DG      C2 3038   4.173   1.318   0.498 -0.5938 -0.3641 -0.2700
  133DG      H3 3039   4.927   1.329   0.676 -2.8277 -2.0278 -0.4261
  133DG      H4 3040   4.961   1.445   0.813 -1.5822 -0.7027  0.6345
  133DG      H5 3041   4.904   1.511   0.675  2.0485  0.2176  1.2803
  133DG      H6 3042   4.136   1.215   0.509 -0.9532 -0.3178 -0.9992
  133DG      H7 3043   4.102   1.386   0.546 -0.5953 -1.4332  1.3576
  133DG      H8 3044   4.165   1.347   0.394  0.3892  2.6954  0.4028
  133DG      O9 3045   4.765   1.419   0.782  0.0301  0.0808  0.1937
  133DG     O10 3046   4.307   1.348   0.534 -0.1266 -0.2815 -0.0298
  133DG     C11 3047   4.744   1.303   0.848  0.0497  0.0748  0.4678
  133DG     C12 3048   4.330   1.308   0.666 -0.1816 -0.2583 -0.7464
  133DG     H13 3049   4.824   1.293   0.921 -0.4582 -0.5687  0.9496
  133DG     H14 3050   4.741   1.218   0.780  1.0676  0.2648  0.1697
  133DG     H15 3051   4.299   1.204   0.675 -0.2639 -0.4021 -2.3947
  133DG     H16 3052   4.266   1.367   0.731 -2.3932 -0.1111 -2.9313
  133DG     C17 3053   4.606   1.299   0.915 -0.8918 -0.0008 -0.2165
  133DG     C18 3054   4.477   1.324   0.705  0.0044  1.1962 -0.1659
  133DG     O19 3055   4.494   1.264   0.829 -0.2612  0.1094 -0.4541
  133DG     H20 3056   4.594   1.389   0.975  0.5430 -0.5011  0.8847
  133DG     H21 3057   4.606   1.221   0.992  0.0537 -1.6798 -1.8338
  133DG     H22 3058   4.545   1.282   0.630  0.0335  0.0464  0.4798
  133DG     H23 3059   4.503   1.429   0.709  0.3617  1.2009 -1.8089
  134DG      C1 3060   5.411   3.750   3.643  0.3574  0.2448  0.1040
  134DG      C2 3061   5.857   3.340   3.817 -0.5524 -0.1618  0.7609
  134DG      H3 3062   5.371   3.829   3.579  0.3717  0.8613  0.8414
  134DG      H4 3063   5.380   3.776   3.744  0.9428  0.8368  0.1404
  134DG      H5 3064   5.381   3.647   3.625 -1.9684  0.8204  0.4664
  134DG      H6 3065   5.762   3.291   3.799  0.0409 -0.3659 -2.3587
  134DG      H7 3066   5.932   3.281   3.764 -0.2620  0.5339  0.3698
  134DG      H8 3067   5.890   3.341   3.921  0.6383 -0.5284  0.4087
  134DG      O9 3068   5.548   3.740   3.634 -0.1315 -0.0592 -0.2100
  134DG     O10 3069   5.856   3.461   3.746 -0.1433  0.0566 -0.1133
  134DG     C11 3070   5.623   3.858   3.677 -0.4735  0.1713  0.2596
  134DG     C12 3071   5.968   3.543   3.782  0.9405  0.3601  0.0302
  134DG     H13 3072   5.595   3.886   3.778 -1.3193  0.3772 -0.0223
  134DG     H14 3073   5.612   3.950   3.619 -1.0627 -0.2993 -0.3897
  134DG     H15 3074   6.064   3.501   3.752  1.5364  0.1987  2.0188
  134DG     H16 3075   5.966   3.565   3.888  0.9760  3.1168 -0.4680
  134DG     C17 3076   5.771   3.834   3.678  0.5076 -0.8330  0.1426
  134DG     C18 3077   5.939   3.677   3.721 -0.3157  0.0246 -0.3317
  134DG     O19 3078   5.804   3.713   3.743 -0.2967 -0.2070  0.5859
  134DG     H20 3079   5.825   3.917   3.724  0.2900 -1.1666  1.0298
  134DG     H21 3080   5.802   3.835   3.574 -1.3510  0.5105 -0.4493
  134DG     H22 3081   6.010   3.748   3.764  0.3548 -2.3207  2.8257
  134DG     H23 3082   5.962   3.659   3.616  1.3971 -0.3091  0.0747
  135DG      C1 3083   0.857   4.660   4.162 -0.1856 -1.0128 -0.1450
  135DG      C2 3084   1.433   4.900   3.881  0.2470 -0.0821 -0.3296
  135DG      H3 3085   0.844   4.581   4.088 -1.7649  0.4630 -1.5457
  135DG      H4 3086   0.817   4.746   4.108  1.5254  0.2209  0.4675
  135DG      H5 3087   0.800   4.631   4.250 -0.3926 -2.3946 -0.7070
  135DG      H6 3088   1.377   4.970   3.818 -2.5447 -0.2423  1.7839
  135DG      H7 3089   1.536   4.930   3.901  0.6234 -0.7984 -1.1245
  135DG      H8 3090   1.441   4.806   3.828  0.7683 -0.8269  1.0096
  135DG      O9 3091   0.991   4.670   4.184  0.3465 -0.6134  0.1055
  135DG     O10 3092   1.367   4.872   4.008  0.1203 -0.1380 -0.2140
  135DG     C11 3093   1.017   4.750   4.296  0.3648 -0.8646 -1.4846
  135DG     C12 3094   1.383   4.970   4.113  0.6728  0.2247 -0.1280
  135DG     H13 3095   0.978   4.715   4.392  1.6053  0.2528 -0.5236
  135DG     H14 3096   0.973   4.849   4.283  0.1419 -0.8337 -0.5859
  135DG     H15 3097   1.324   5.060   4.097  0.3503  0.0883  0.3058
  135DG     H16 3098   1.488   4.996   4.126  0.5579  0.7981 -0.2959
  135DG     C17 3099   1.166   4.774   4.325 -0.0426 -0.9311 -0.4288
  135DG     C18 3100   1.345   4.895   4.243 -0.3652  0.0993  0.2407
  135DG     O19 3101   1.205   4.856   4.225  1.2342  0.4403  0.8121
  135DG     H20 3102   1.221   4.680   4.323  1.1305 -0.2807 -3.2042
  135DG     H21 3103   1.174   4.819   4.424 -0.2724 -1.0327 -0.3645
  135DG     H22 3104   1.410   4.808   4.254  0.2896  0.4580 -0.6506
  135DG     H23 3105   1.346   4.950   4.337 -0.6506 -0.3698  0.5236
  136DG      C1 3106   2.880   0.318   1.077  0.2444  0.0114 -0.3763
  136DG      C2 3107   2.270   0.324   0.679 -0.5302  0.2946  0.0762
  136DG      H3 3108   2.868   0.313   1.185  0.6253 -1.3487 -0.3823
  136DG      H4 3109   2.854   0.422   1.057 -1.8837 -0.6235 -1.1746
  136DG      H5 3110   2.983   0.295   1.049  0.1239 -0.4439 -0.4369
  136DG      H6 3111   2.248   0.335   0.573 -0.7537  2.8988  0.3337
  136DG      H7 3112   2.225   0.236   0.726  2.2928 -0.6754  1.1582
  136DG      H8 3113   2.226   0.418   0.710  0.6393  0.1837  2.2760
  136DG      O9 3114   2.779   0.224   1.019  0.4537  0.3561 -0.5245
  136DG     O10 3115   2.412   0.326   0.719  0.1082  0.0779  0.0766
  136DG     C11 3116   2.811   0.176   0.900  0.4672  0.3942  0.4957
  136DG     C12 3117   2.476   0.441   0.670  0.2430 -0.1917 -0.5130
  136DG     H13 3118   2.741   0.097   0.873 -0.3548  0.8450  1.2705
  136DG     H14 3119   2.910   0.130   0.902  0.3266  0.0293 -0.4513
  136DG     H15 3120   2.440   0.519   0.737 -0.2200 -1.3213  0.5939
  136DG     H16 3121   2.452   0.466   0.566  1.3065  1.8985 -0.3076
  136DG     C17 3122   2.787   0.280   0.785 -0.1716  0.0929 -0.1490
  136DG     C18 3123   2.630   0.418   0.694  0.2516  0.6566  0.1408
  136DG     O19 3124   2.652   0.315   0.787  0.3824 -0.0567  0.1131
  136DG     H20 3125   2.810   0.224   0.694  0.7756  1.4784 -0.7961
  136DG     H21 3126   2.850   0.368   0.794  1.1385 -0.2773 -3.8090
  136DG     H22 3127   2.677   0.383   0.602  0.0126 -1.2851  0.7179
  136DG     H23 3128   2.677   0.511   0.726 -2.6679  1.3497  2.9323
  137DG      C1 3129   5.407   4.801   0.754 -0.0855 -0.4323  1.1096
  137DG      C2 3130   5.822   4.664   0.160  0.1488 -0.1339 -0.1488
  137DG      H3 3131   5.496   4.860   0.777 -0.1804 -0.6892  2.1957
  137DG      H4 3132   5.378   4.752   0.847 -0.0033 -4.0427 -0.6013
  137DG      H5 3133   5.335   4.875   0.719  0.1463 -1.1903 -1.1153
  137DG      H6 3134   5.791   4.758   0.116 -1.4072 -1.2809 -1.6048
  137DG      H7 3135   5.910   4.689   0.220  1.2280  1.2475 -2.1957
  137DG      H8 3136   5.849   4.609   0.070 -0.5203 -1.1259  0.2342
  137DG      O9 3137   5.440   4.698   0.665 -0.0730 -0.3494  0.3647
  137DG     O10 3138   5.723   4.606   0.246 -0.0945 -0.2524 -0.2859
  137DG     C11 3139   5.330   4.626   0.602  0.5670  0.8711  0.1019
  137DG     C12 3140   5.597   4.584   0.186 -0.2321 -0.4693  0.2337
  137DG     H13 3141   5.248   4.690   0.569  0.0137  0.6790  1.0461
  137DG     H14 3142   5.286   4.570   0.685  0.5744 -0.1244 -0.5526
  137DG     H15 3143   5.610   4.529   0.093 -0.7522  0.9840 -0.7375
  137DG     H16 3144   5.549   4.680   0.166  0.2104 -0.0021  1.3549
  137DG     C17 3145   5.382   4.538   0.483  0.5443 -0.0954  0.2113
  137DG     C18 3146   5.495   4.512   0.284 -0.5157 -0.2226 -0.1366
  137DG     O19 3147   5.466   4.599   0.391  0.3821 -1.0282 -0.2784
  137DG     H20 3148   5.310   4.474   0.430  2.6303 -2.1889 -0.2675
  137DG     H21 3149   5.434   4.460   0.539 -2.1826 -1.9436  0.3818
  137DG     H22 3150   5.409   4.482   0.224  0.6060 -0.8796 -1.4668
  137DG     H23 3151   5.554   4.431   0.327  0.6359 -0.3077 -1.7806
  138DG      C1 3152   2.729   4.177   3.571 -0.2990 -0.3225  0.7610
  138DG      C2 3153   2.450   3.555   3.713 -0.0561 -0.1713  0.1643
  138DG      H3 3154   2.737   4.255   3.647 -1.3560  1.9067 -1.2654
  138DG      H4 3155   2.630   4.178   3.524  0.5026 -0.9212 -1.0138
  138DG      H5 3156   2.787   4.210   3.486 -1.1093  2.7404  1.2547
  138DG      H6 3157   2.457   3.558   3.604  0.2525  1.3284  0.2064
  138DG      H7 3158   2.454   3.452   3.750 -1.0036 -0.3796 -0.2832
  138DG      H8 3159   2.354   3.602   3.734  0.9370  2.3558 -0.6203
  138DG      O9 3160   2.746   4.044   3.611  0.3376  0.4191 -0.3383
  138DG     O10 3161   2.556   3.641   3.766  0.3011  0.4055 -0.0737
  138DG     C11 3162   2.878   4.025   3.663 -0.3309  0.2677  0.3449
  138DG     C12 3163   2.685   3.586   3.733  0.3681 -0.5636  0.1456
  138DG     H13 3164   2.910   4.109   3.724 -1.1577  1.3994 -0.7198
  138DG     H14 3165   2.953   4.030   3.583 -0.2667  1.6722  0.4583
  138DG     H15 3166   2.688   3.556   3.628  0.2768 -0.1986  0.0376
  138DG     H16 3167   2.710   3.498   3.791 -0.3015  1.4189  3.6979
  138DG     C17 3168   2.892   3.884   3.729 -0.2568 -0.4669  0.4450
  138DG     C18 3169   2.791   3.677   3.778  0.6389 -0.2483 -0.0850
  138DG     O19 3170   2.795   3.788   3.686 -0.3375  0.3152 -0.3108
  138DG     H20 3171   2.902   3.887   3.837 -0.9612  1.2370  0.4998
  138DG     H21 3172   2.988   3.848   3.692 -1.1455 -1.7158 -0.7058
  138DG     H22 3173   2.765   3.704   3.881  0.8060 -0.0385 -0.0973
  138DG     H23 3174   2.881   3.617   3.774 -0.4711 -1.9133 -2.4316
  139DG      C1 3175   4.809   0.587   3.305 -0.3855  0.3368  0.5847
  139DG      C2 3176   4.660  -0.065   3.404 -0.7893 -0.6933  0.1979
  139DG      H3 3177   4.777   0.691   3.308  1.1752  0.8860 -0.8708
  139DG      H4 3178   4.853   0.574   3.207  2.2956  0.8896  1.6296
  139DG      H5 3179   4.889   0.582   3.379 -1.1710 -0.3499  1.4111
  139DG      H6 3180   4.619  -0.156   3.449 -2.8756 -1.3781 -2.7923
  139DG      H7 3181   4.598  -0.053   3.315  0.3495 -2.6601 -0.9174
  139DG      H8 3182   4.763  -0.090   3.382 -0.2802  0.3535  1.2709
  139DG      O9 3183   4.714   0.490   3.341 -0.1506  0.4035  0.9808
  139DG     O10 3184   4.658   0.048   3.490 -0.2794  0.0322  0.8126
  139DG     C11 3185   4.612   0.483   3.244  0.3767  1.2586  0.3649
  139DG     C12 3186   4.527   0.096   3.527 -0.9857 -0.1210 -1.2157
  139DG     H13 3187   4.647   0.427   3.157 -0.7842  1.1497 -0.0475
  139DG     H14 3188   4.579   0.580   3.206  0.9687  0.6521 -1.8328
  139DG     H15 3189   4.545   0.158   3.615  3.2496  2.5553 -3.5726
  139DG     H16 3190   4.447   0.031   3.559  1.5281 -2.2027  1.3793
  139DG     C17 3191   4.495   0.403   3.317  0.3742  0.1904  0.4917
  139DG     C18 3192   4.473   0.188   3.419  0.0297  0.1105 -0.0766
  139DG     O19 3193   4.560   0.295   3.380  0.2815  0.3895 -0.7261
  139DG     H20 3194   4.411   0.377   3.252 -1.3746  1.7825  2.0092
  139DG     H21 3195   4.452   0.459   3.400  0.3078 -1.4888  1.6332
  139DG     H22 3196   4.437   0.139   3.329  0.3020  1.0214 -0.6897
  139DG     H23 3197   4.385   0.226   3.471 -0.3501 -0.8147 -0.0170
  140DG      C1 3198   3.275   4.771   2.693  0.0031  0.8248 -0.2052
  140DG      C2 3199   3.342   4.143   2.432 -0.2798 -0.6845 -0.7770
  140DG      H3 3200   3.193   4.838   2.669  0.0291  0.6257 -0.8778
  140DG      H4 3201   3.354   4.841   2.722  0.1012  1.5555 -2.1290
  140DG      H5 3202   3.245   4.724   2.786 -3.5473  1.8323 -0.7132
  140DG      H6 3203   3.331   4.073   2.350 -0.1537 -1.6317 -0.0040
  140DG      H7 3204   3.439   4.192   2.424  0.9425 -2.5587  1.2511
  140DG      H8 3205   3.341   4.091   2.528  0.7592 -0.9610 -0.9006
  140DG      O9 3206   3.292   4.673   2.586  0.2158 -0.0782 -0.7601
  140DG     O10 3207   3.243   4.245   2.435  0.1744  0.2221 -0.1023
  140DG     C11 3208   3.297   4.721   2.453  0.4282 -0.4206  0.2291
  140DG     C12 3209   3.237   4.294   2.304  0.2611  1.0059  0.5449
  140DG     H13 3210   3.383   4.786   2.436  0.1500 -0.1433 -0.1241
  140DG     H14 3211   3.207   4.781   2.439 -0.0470 -0.9225  1.0511
  140DG     H15 3212   3.196   4.225   2.231 -0.1798  1.4671  0.3567
  140DG     H16 3213   3.335   4.322   2.264 -0.0115  0.2843 -0.6758
  140DG     C17 3214   3.287   4.607   2.347 -0.4520  0.2545  0.5738
  140DG     C18 3215   3.154   4.416   2.301  0.0873 -0.8918  0.2350
  140DG     O19 3216   3.186   4.515   2.392 -0.7321 -0.4831 -0.2655
  140DG     H20 3217   3.384   4.563   2.327 -0.9509 -1.5381  1.8208
  140DG     H21 3218   3.256   4.650   2.252  1.9317  1.7008  0.3681
  140DG     H22 3219   3.136   4.456   2.202 -0.9645  0.5340  0.9697
  140DG     H23 3220   3.056   4.385   2.336 -1.3018  1.2945 -1.4952
  141DG      C1 3221   3.488   5.342   1.421  0.1045 -0.3854  0.4892
  141DG      C2 3222   4.126   5.221   1.346  0.3208  0.4082 -0.1535
  141DG      H3 3223   3.483   5.353   1.313  3.0087  0.8544  0.4066
  141DG      H4 3224   3.500   5.441   1.466 -1.7127 -0.3086  0.9014
  141DG      H5 3225   3.392   5.313   1.465 -1.4012  2.9484 -0.2581
  141DG      H6 3226   4.196   5.144   1.312  1.7030  2.1372 -1.5143
  141DG      H7 3227   4.119   5.309   1.282 -0.0865  1.0963  0.8225
  141DG      H8 3228   4.169   5.248   1.442  0.3105 -0.4584  0.1059
  141DG      O9 3229   3.597   5.254   1.463  0.0739 -0.2404  0.4330
  141DG     O10 3230   3.995   5.171   1.358  0.2375 -0.0156  0.3555
  141DG     C11 3231   3.617   5.249   1.604 -0.4235 -0.0177  0.5190
  141DG     C12 3232   3.991   5.042   1.422 -0.5666 -1.1433 -0.6666
  141DG     H13 3233   3.543   5.178   1.640 -0.8955 -0.1560 -0.6879
  141DG     H14 3234   3.602   5.346   1.652  0.2998  0.3479  0.0284
  141DG     H15 3235   4.090   4.998   1.425  1.2598  2.7117  1.5212
  141DG     H16 3236   3.923   4.979   1.363 -0.8861  0.6499 -2.2919
  141DG     C17 3237   3.760   5.196   1.640  0.5984  0.4367  1.1983
  141DG     C18 3238   3.919   5.044   1.557  0.5485 -0.5408 -0.3010
  141DG     O19 3239   3.808   5.126   1.532  0.3479  0.4224  0.1218
  141DG     H20 3240   3.757   5.126   1.724  1.6466 -0.1122  0.7942
  141DG     H21 3241   3.828   5.279   1.659  0.6475  1.2196 -1.8787
  141DG     H22 3242   3.883   4.949   1.595  0.1457  0.7925  2.9926
  141DG     H23 3243   3.983   5.098   1.626 -1.1406  2.3814 -0.8611
  142DG      C1 3244   3.745   3.576   2.127  0.3106 -0.4368 -0.3623
  142DG      C2 3245   3.659   3.247   1.421 -0.4281 -0.9871  0.5087
  142DG      H3 3246   3.691   3.494   2.174  1.8108 -2.1104 -1.4125
  142DG      H4 3247   3.705   3.668   2.168  1.1280 -1.3667  2.8434
  142DG      H5 3248   3.852   3.572   2.150 -0.0397  0.6252  1.6477
  142DG      H6 3249   3.661   3.148   1.466 -2.2801 -0.8729  0.9040
  142DG      H7 3250   3.582   3.265   1.346 -0.4702  1.4790  1.0701
  142DG      H8 3251   3.748   3.261   1.360 -2.5662  0.9216 -2.4500
  142DG      O9 3252   3.706   3.566   1.990  0.0194  0.7382  0.2050
  142DG     O10 3253   3.655   3.350   1.517  0.0541  0.0249  0.0376
  142DG     C11 3254   3.738   3.675   1.905  0.7035 -0.2072  0.3315
  142DG     C12 3255   3.687   3.474   1.465  1.0540 -0.9701  0.3017
  142DG     H13 3256   3.844   3.670   1.883  0.2903  1.8048 -2.6741
  142DG     H14 3257   3.723   3.768   1.959  1.2846 -1.3771  2.6237
  142DG     H15 3258   3.647   3.494   1.365  0.3195 -1.4275  0.4928
  142DG     H16 3259   3.794   3.487   1.449  1.1800 -2.0452  0.1896
  142DG     C17 3260   3.671   3.688   1.761  0.2348 -0.0004 -0.3220
  142DG     C18 3261   3.637   3.581   1.560  0.4033 -0.1223  0.2856
  142DG     O19 3262   3.707   3.577   1.678  0.2034  0.5587 -0.6601
  142DG     H20 3263   3.677   3.786   1.713 -0.7743  0.7315  0.9346
  142DG     H21 3264   3.564   3.685   1.782  0.2495  0.4758 -0.1409
  142DG     H22 3265   3.646   3.676   1.507  4.1115 -0.9841 -0.9147
  142DG     H23 3266   3.532   3.556   1.573  0.4937 -0.9940 -0.5574
  143DG      C1 3267   2.959   4.894   3.852  0.2563  0.4188 -0.0832
  143DG      C2 3268   2.885   4.748   3.186  0.7698  0.7710 -0.2276
  143DG      H3 3269   3.005   4.930   3.944  1.8383  1.2732 -1.1449
  143DG      H4 3270   2.855   4.868   3.867  0.4549  0.0928  0.7968
  143DG      H5 3271   2.965   4.983   3.789 -1.1380  1.1703  0.8018
  143DG      H6 3272   2.910   4.812   3.101  0.9930 -0.0484 -0.7869
  143DG      H7 3273   2.906   4.644   3.162 -3.6484 -0.0303 -1.5585
  143DG      H8 3274   2.777   4.756   3.201  0.1020 -0.9143 -3.3077
  143DG      O9 3275   3.038   4.781   3.814 -0.2228  0.3685  0.1357
  143DG     O10 3276   2.938   4.794   3.307 -0.4850  0.0985 -0.0708
  143DG     C11 3277   2.965   4.690   3.732 -0.3923  0.5666 -0.5321
  143DG     C12 3278   3.077   4.763   3.314  0.5020 -0.2561  0.5491
  143DG     H13 3279   2.860   4.678   3.758  0.3398 -2.8725  1.3751
  143DG     H14 3280   3.010   4.593   3.753 -0.8182  0.3370 -0.6713
  143DG     H15 3281   3.123   4.801   3.223  0.6710 -2.5457 -0.3938
  143DG     H16 3282   3.093   4.655   3.313  1.5131 -0.1378  1.3328
  143DG     C17 3283   2.975   4.728   3.587  0.6225  0.0695 -1.2420
  143DG     C18 3284   3.140   4.820   3.440 -0.1991 -0.2486  0.5366
  143DG     O19 3285   3.110   4.742   3.552 -0.8646  0.0764 -0.4631
  143DG     H20 3286   2.914   4.815   3.561 -0.2288  0.3627  1.4511
  143DG     H21 3287   2.923   4.652   3.528  0.0320 -0.1085 -0.4977
  143DG     H22 3288   3.247   4.832   3.421 -0.3578 -0.6856 -0.7562
  143DG     H23 3289   3.093   4.917   3.456 -0.3237 -0.3543  0.8119
  144DG      C1 3290   3.483   1.371   4.431 -0.6948  0.4337 -0.2689
  144DG      C2 3291   3.250   1.171   3.854  0.3147 -0.0315  0.2540
  144DG      H3 3292   3.489   1.479   4.412 -0.6433  0.5546  0.4319
  144DG      H4 3293   3.526   1.347   4.528  0.7424  0.2131 -0.9386
  144DG      H5 3294   3.374   1.368   4.435 -0.8030  1.6497 -1.3726
  144DG      H6 3295   3.162   1.185   3.916 -0.2246 -3.3162  0.4249
  144DG      H7 3296   3.238   1.256   3.787  1.9200 -0.5698 -0.7695
  144DG      H8 3297   3.237   1.083   3.791 -0.3136  1.0738 -1.2454
  144DG      O9 3298   3.522   1.275   4.333  0.0470 -0.1581  0.0029
  144DG     O10 3299   3.368   1.182   3.936  0.5619  0.6411  0.9063
  144DG     C11 3300   3.658   1.292   4.295  0.0462 -0.0547 -1.1283
  144DG     C12 3301   3.486   1.171   3.857 -0.0724 -0.7212 -0.3926
  144DG     H13 3302   3.723   1.277   4.381  0.0949  0.4909 -1.0625
  144DG     H14 3303   3.674   1.397   4.270 -1.8921  0.1280 -1.7266
  144DG     H15 3304   3.502   1.269   3.813  2.6509 -0.0263  1.8197
  144DG     H16 3305   3.478   1.098   3.776  1.0839  0.1669 -1.3439
  144DG     C17 3306   3.698   1.219   4.173 -0.6483 -0.4689  0.1640
  144DG     C18 3307   3.597   1.144   3.963  0.5368 -0.1072  0.1946
  144DG     O19 3308   3.591   1.231   4.078 -0.2356 -0.3609 -0.7076
  144DG     H20 3309   3.720   1.116   4.199  3.6187  0.0724 -0.5870
  144DG     H21 3310   3.791   1.259   4.133 -1.7277  3.3216  1.0573
  144DG     H22 3311   3.604   1.041   3.999 -4.0430 -0.1650  1.6081
  144DG     H23 3312   3.687   1.173   3.910 -0.3937  3.9765  0.5815
  145DG      C1 3313   0.391   4.572   3.994 -0.5830 -0.3166 -0.4449
  145DG      C2 3314   0.391   3.924   4.160  0.2364 -0.3490  0.0019
  145DG      H3 3315   0.499   4.579   4.003  0.0518 -2.5912 -4.1798
  145DG      H4 3316   0.340   4.668   3.998 -1.8990 -0.9330 -1.4705
  145DG      H5 3317   0.374   4.528   3.895  0.3204 -1.1957 -0.2231
  145DG      H6 3318   0.494   3.940   4.128  0.3177 -0.7569  0.0581
  145DG      H7 3319   0.392   3.933   4.268  2.0662 -1.2052  0.0935
  145DG      H8 3320   0.367   3.821   4.135 -0.5455 -0.7768  2.2851
  145DG      O9 3321   0.324   4.490   4.090 -0.3409 -0.4338  0.5641
  145DG     O10 3322   0.317   4.039   4.105  0.6626  0.2323  0.0222
  145DG     C11 3323   0.187   4.504   4.090  0.3289 -0.4079 -0.2456
  145DG     C12 3324   0.173   4.038   4.122 -0.3468 -0.1875  0.2151
  145DG     H13 3325   0.142   4.514   3.991 -0.2557  1.7018  0.1928
  145DG     H14 3326   0.161   4.603   4.127  1.4158  0.2332 -1.1372
  145DG     H15 3327   0.137   3.952   4.179 -1.0953  0.1052  0.2052
  145DG     H16 3328   0.140   4.036   4.018 -0.0815 -0.0830  0.1276
  145DG     C17 3329   0.133   4.392   4.174 -0.4152  0.1810 -0.4886
  145DG     C18 3330   0.130   4.155   4.206  0.2680 -0.5103  0.1372
  145DG     O19 3331   0.183   4.265   4.139 -0.0258 -0.4112 -0.1235
  145DG     H20 3332   0.024   4.395   4.169 -0.4761 -1.1536 -0.3189
  145DG     H21 3333   0.175   4.408   4.274  1.7147 -1.5752 -1.0374
  145DG     H22 3334   0.021   4.159   4.202  0.2877  0.0953 -0.0082
  145DG     H23 3335   0.161   4.150   4.310  2.4095 -0.9767 -0.4812
  146DG      C1 3336   5.483   0.354   3.748 -0.0287  0.2877 -0.1233
  146DG      C2 3337   5.661   0.337   3.172  0.3083  0.0295 -0.4884
  146DG      H3 3338   5.390   0.385   3.701 -0.3699  0.9338  0.9371
  146DG      H4 3339   5.484   0.402   3.846 -1.2293  1.9188 -0.8599
  146DG      H5 3340   5.478   0.245   3.753 -1.0222  0.1981 -1.9666
  146DG      H6 3341   5.740   0.322   3.099  2.0828 -0.9617  1.4998
  146DG      H7 3342   5.576   0.273   3.149 -0.1332  1.1841 -2.2183
  146DG      H8 3343   5.622   0.438   3.158 -1.8604 -0.7113 -0.2593
  146DG      O9 3344   5.595   0.391   3.677 -0.1250  0.3039  0.2434
  146DG     O10 3345   5.710   0.328   3.306  0.2302  0.2705 -0.2699
  146DG     C11 3346   5.720   0.376   3.744  0.2983 -0.2264 -0.9155
  146DG     C12 3347   5.806   0.220   3.316 -0.2257  0.2781 -0.2482
  146DG     H13 3348   5.730   0.287   3.806  2.0694  1.1356  0.9062
  146DG     H14 3349   5.736   0.456   3.816  1.0488 -1.5452  0.4368
  146DG     H15 3350   5.875   0.227   3.232 -0.8866  1.8793 -0.6905
  146DG     H16 3351   5.760   0.122   3.318  1.2964 -0.4659  1.5396
  146DG     C17 3352   5.833   0.367   3.636  0.9387 -0.1279 -0.2996
  146DG     C18 3353   5.881   0.247   3.441  0.6474  0.5901  0.3144
  146DG     O19 3354   5.790   0.266   3.544  0.2476 -0.6682  0.1248
  146DG     H20 3355   5.932   0.347   3.679  0.3515 -1.4368  0.5036
  146DG     H21 3356   5.846   0.465   3.590  1.6291 -0.1099 -0.0901
  146DG     H22 3357   5.950   0.166   3.463 -1.6125 -1.1289  1.4063
  146DG     H23 3358   5.948   0.334   3.442  0.1297  1.0540 -1.5026
  147DG      C1 3359   4.860   4.922   4.813 -0.4753 -0.1000  0.8367
  147DG      C2 3360   4.888   5.528   4.778 -0.2866  0.3304  0.0676
  147DG      H3 3361   4.834   4.823   4.776 -1.0372 -0.1173  1.2624
  147DG      H4 3362   4.887   4.927   4.918 -1.2260  0.6853  1.0070
  147DG      H5 3363   4.946   4.968   4.764 -0.6796 -0.9075 -0.3173
  147DG      H6 3364   4.906   5.550   4.883  0.2291 -2.0600  0.5257
  147DG      H7 3365   4.980   5.485   4.738 -1.7909 -1.8248 -1.2996
  147DG      H8 3366   4.869   5.616   4.716 -1.2397 -0.5798 -0.9786
  147DG      O9 3367   4.755   5.016   4.786  0.1059  0.0658  0.2121
  147DG     O10 3368   4.779   5.432   4.754  0.1717 -0.0314  0.1482
  147DG     C11 3369   4.617   4.988   4.827  0.3384 -0.0254 -0.7136
  147DG     C12 3370   4.652   5.473   4.799  0.3798  0.6422  0.4193
  147DG     H13 3371   4.611   4.967   4.934 -1.2501  1.3713 -0.4727
  147DG     H14 3372   4.574   4.901   4.778 -0.4808  0.8867 -1.6464
  147DG     H15 3373   4.610   5.561   4.749  0.0686  0.9400  1.1946
  147DG     H16 3374   4.662   5.498   4.904 -0.0714 -0.7602  0.8161
  147DG     C17 3375   4.539   5.114   4.795 -0.2929  0.4831  0.3159
  147DG     C18 3376   4.554   5.356   4.776 -0.1536  0.8607  0.0092
  147DG     O19 3377   4.607   5.234   4.831 -0.1363 -0.0776  0.9789
  147DG     H20 3378   4.434   5.108   4.822 -0.5328  1.3467 -0.3634
  147DG     H21 3379   4.537   5.122   4.686 -1.5055  0.1177  0.2982
  147DG     H22 3380   4.463   5.376   4.833  0.7523 -1.4412  2.4785
  147DG     H23 3381   4.528   5.344   4.671 -1.2766 -1.5529  0.4774
  148DG      C1 3382   0.967   3.065   2.060 -0.3130 -0.0219  0.3337
  148DG      C2 3383   1.440   3.184   1.615  0.5276  0.0739  0.0768
  148DG      H3 3384   1.017   2.970   2.079 -1.4843 -0.2481  2.6954
  148DG      H4 3385   0.861   3.043   2.045  0.0499 -1.5175 -0.2463
  148DG      H5 3386   0.967   3.118   2.155  0.7535 -0.2753  0.4803
  148DG      H6 3387   1.370   3.214   1.537  0.2947  1.1903  0.6926
  148DG      H7 3388   1.528   3.248   1.601 -1.4325  3.1173  0.5984
  148DG      H8 3389   1.472   3.080   1.608  1.2748  0.3217 -0.2928
  148DG      O9 3390   1.033   3.149   1.963  0.2189 -0.2072  0.2572
  148DG     O10 3391   1.398   3.198   1.744  0.6458 -0.0397  0.9393
  148DG     C11 3392   0.950   3.240   1.913 -0.0818 -1.0652  0.3963
  148DG     C12 3393   1.367   3.334   1.786  0.5439 -0.1854 -0.0253
  148DG     H13 3394   0.897   3.283   1.998  1.1326  2.2488 -0.3736
  148DG     H14 3395   0.877   3.203   1.840 -0.8813  0.7556  0.1956
  148DG     H15 3396   1.441   3.401   1.742  1.1291 -0.0724  1.1061
  148DG     H16 3397   1.367   3.341   1.895 -0.9122  0.5083 -0.0457
  148DG     C17 3398   1.035   3.355   1.863  0.6210 -0.1180  0.0628
  148DG     C18 3399   1.235   3.392   1.742 -0.4139  0.6412 -0.9141
  148DG     O19 3400   1.146   3.302   1.797 -0.1199  0.0763 -0.2374
  148DG     H20 3401   1.050   3.416   1.952  0.8912 -0.0157 -0.0540
  148DG     H21 3402   0.986   3.426   1.797  1.4861 -0.7902 -1.3415
  148DG     H22 3403   1.227   3.497   1.770 -1.7873 -0.2840  2.6672
  148DG     H23 3404   1.236   3.389   1.633  1.2049 -0.2995 -0.9164
  149DG      C1 3405   3.755   1.856   3.178 -0.6737 -0.5555 -0.0018
  149DG      C2 3406   3.039   1.972   2.855 -0.1132 -0.2817  0.0247
  149DG      H3 3407   3.817   1.766   3.172 -2.1755 -1.6451 -0.0218
  149DG      H4 3408   3.775   1.899   3.276 -0.0276 -1.6328  0.3547
  149DG      H5 3409   3.770   1.942   3.113 -0.7793 -1.0155 -0.6454
  149DG      H6 3410   2.933   1.976   2.882  0.6836 -1.3328  3.9097
  149DG      H7 3411   3.052   2.051   2.782  4.0086  1.5160  2.3519
  149DG      H8 3412   3.071   1.880   2.808 -0.1303  0.0466 -0.6370
  149DG      O9 3413   3.623   1.807   3.163  0.6829  0.1062  0.3774
  149DG     O10 3414   3.117   2.006   2.973 -0.0270 -0.0531 -0.3722
  149DG     C11 3415   3.528   1.908   3.210 -0.0348 -1.0512  0.1645
  149DG     C12 3416   3.105   1.896   3.059 -0.5759  0.3632 -0.2716
  149DG     H13 3417   3.551   2.005   3.166 -0.9369  0.4054  2.6865
  149DG     H14 3418   3.536   1.925   3.317  0.2838  0.9942 -0.1504
  149DG     H15 3419   3.142   1.805   3.011  0.4947  0.5329  0.2126
  149DG     H16 3420   3.000   1.882   3.085 -0.0377 -0.5715  1.5564
  149DG     C17 3421   3.387   1.863   3.188  0.4808 -0.7663 -0.5663
  149DG     C18 3422   3.165   1.939   3.204 -0.3092  0.6422  0.3531
  149DG     O19 3423   3.293   1.971   3.194 -0.4773 -0.3354 -0.3628
  149DG     H20 3424   3.354   1.788   3.259  1.0036  0.6252  1.2254
  149DG     H21 3425   3.365   1.820   3.090 -4.0440  0.1910 -0.1762
  149DG     H22 3426   3.112   2.028   3.236  0.2033  0.5052  1.6808
  149DG     H23 3427   3.147   1.869   3.286  1.3099  0.4325  0.5786
  150DG      C1 3428   2.008   0.010   0.877  0.2783  0.6305  0.4044
  150DG      C2 3429   2.380  -0.136   1.347 -0.3504 -0.1739  0.3219
  150DG      H3 3430   1.921  -0.021   0.819  0.4889 -1.7906  1.2530
  150DG      H4 3431   2.092  -0.045   0.835  0.1439  0.5947  0.1845
  150DG      H5 3432   2.026   0.117   0.874 -4.5658  1.6526 -1.1696
  150DG      H6 3433   2.409  -0.197   1.433  0.2550 -1.0537 -0.4747
  150DG      H7 3434   2.443  -0.168   1.264  1.7581  0.7534  1.4926
  150DG      H8 3435   2.418  -0.037   1.369  0.6142 -0.1061 -1.4345
  150DG      O9 3436   1.985  -0.030   1.009  0.2978 -0.0616 -0.4397
  150DG     O10 3437   2.246  -0.144   1.311  0.3670  0.0906  0.0545
  150DG     C11 3438   1.865   0.016   1.076 -0.6694  0.6053 -0.3933
  150DG     C12 3439   2.168  -0.095   1.417 -0.3778 -0.0403 -0.1473
  150DG     H13 3440   1.786  -0.042   1.027  1.7579 -2.6742 -0.7599
  150DG     H14 3441   1.867   0.124   1.064 -2.4285  0.5916 -1.2246
  150DG     H15 3442   2.193   0.008   1.445 -0.3063  0.3107 -1.4146
  150DG     H16 3443   2.191  -0.155   1.504 -0.3122  1.1352  0.6750
  150DG     C17 3444   1.861  -0.028   1.223  0.2742  0.2791  0.0663
  150DG     C18 3445   2.015  -0.099   1.394  0.8150 -0.5307  0.5036
  150DG     O19 3446   1.988  -0.024   1.270 -0.3369  0.3884 -0.2088
  150DG     H20 3447   1.835  -0.134   1.220  0.7981  0.1691 -0.8714
  150DG     H21 3448   1.791   0.028   1.285 -1.0935 -0.0167 -1.1627
  150DG     H22 3449   1.984  -0.202   1.375  2.1940 -0.9465  0.4290
  150DG     H23 3450   1.954  -0.070   1.480  0.1533  2.0096 -0.7309
  151DG      C1 3451   0.951   0.060   3.215  0.0930  0.6959  0.8614
  151DG      C2 3452   1.513   0.057   3.300 -0.4971  0.2718 -0.4099
  151DG      H3 3453   0.871   0.050   3.288 -0.1366 -2.4832  0.3368
  151DG      H4 3454   0.900   0.110   3.133 -2.3971 -2.1984  0.4501
  151DG      H5 3455   1.036   0.114   3.257  0.7488 -0.2151  0.7489
  151DG      H6 3456   1.470   0.095   3.393  0.5590  2.5318 -0.7893
  151DG      H7 3457   1.594   0.124   3.274  2.0211 -1.8830  1.3400
  151DG      H8 3458   1.436   0.068   3.223  0.3062  1.0530 -1.1172
  151DG      O9 3459   0.998  -0.070   3.171  0.1327 -0.5571  0.0229
  151DG     O10 3460   1.551  -0.078   3.325  0.6806  0.5785 -0.1751
  151DG     C11 3461   1.088  -0.064   3.063  0.1109  0.2599  0.2245
  151DG     C12 3462   1.433  -0.157   3.365 -0.3081 -0.1728  0.0259
  151DG     H13 3463   1.146   0.027   3.046  2.9127 -1.4963 -0.2685
  151DG     H14 3464   1.041  -0.085   2.966  2.3625 -0.2128 -0.8410
  151DG     H15 3465   1.363  -0.109   3.433 -0.6856 -0.4807 -0.1449
  151DG     H16 3466   1.480  -0.229   3.432  0.6839  0.1646 -0.2942
  151DG     C17 3467   1.195  -0.169   3.085  0.6071  0.3315  0.2569
  151DG     C18 3468   1.359  -0.215   3.244 -0.0294  0.0456  0.7800
  151DG     O19 3469   1.267  -0.120   3.196 -0.6591 -0.3275 -0.0094
  151DG     H20 3470   1.259  -0.190   2.999  1.6004 -1.3606  1.3391
  151DG     H21 3471   1.147  -0.266   3.099 -1.2516  1.2628  0.5814
  151DG     H22 3472   1.430  -0.233   3.163 -1.5072 -1.8539 -0.1695
  151DG     H23 3473   1.307  -0.310   3.253 -0.5398 -0.0431 -2.1493
  152DG      C1 3474   1.460   1.899   3.150  0.1132 -0.4146  0.0072
  152DG      C2 3475   1.359   2.222   2.551 -0.2930  0.3963  0.8521
  152DG      H3 3476   1.539   1.840   3.105 -1.0155 -0.8676 -1.4241
  152DG      H4 3477   1.366   1.866   3.108  0.7390 -1.2504 -0.7634
  152DG      H5 3478   1.460   1.892   3.259  1.2126  0.9128  0.1207
  152DG      H6 3479   1.268   2.168   2.525  1.0144 -1.0700 -0.9832
  152DG      H7 3480   1.367   2.307   2.483 -0.5112  1.2298  1.8373
  152DG      H8 3481   1.440   2.154   2.526 -0.6528  0.8694 -1.8682
  152DG      O9 3482   1.475   2.032   3.111 -0.0476 -0.1608 -0.6675
  152DG     O10 3483   1.335   2.251   2.686  0.1999 -0.3712 -0.0884
  152DG     C11 3484   1.390   2.130   3.167  0.1141  0.3173 -0.6993
  152DG     C12 3485   1.429   2.345   2.739 -0.2904  0.9774 -0.2311
  152DG     H13 3486   1.414   2.149   3.272  3.7163  0.3247 -1.3765
  152DG     H14 3487   1.285   2.109   3.152 -0.6094  0.5661  3.0593
  152DG     H15 3488   1.429   2.436   2.679  0.5386  1.6469  0.7599
  152DG     H16 3489   1.528   2.301   2.729 -0.5075  0.4987 -0.3244
  152DG     C17 3490   1.421   2.260   3.098  0.5513 -0.7685  0.8728
  152DG     C18 3491   1.401   2.383   2.887 -0.3558  0.3967 -0.4477
  152DG     O19 3492   1.399   2.256   2.957 -0.4319  0.2018  0.8100
  152DG     H20 3493   1.528   2.277   3.106  0.7718 -2.2804  1.3790
  152DG     H21 3494   1.357   2.339   3.136 -0.9429 -2.1719  1.3966
  152DG     H22 3495   1.483   2.446   2.919  0.4242  0.8889 -3.1753
  152DG     H23 3496   1.307   2.437   2.899 -2.0590 -2.4143 -0.2579
  153DG      C1 3497   5.236   3.709   2.282 -0.4176  0.5111  0.2455
  153DG      C2 3498   5.883   3.912   2.240  0.3839 -0.6263  0.3942
  153DG      H3 3499   5.128   3.710   2.264 -0.6300  1.6363  1.4015
  153DG      H4 3500   5.259   3.728   2.386  0.2377  1.0111  0.0173
  153DG      H5 3501   5.275   3.612   2.251  0.2130  0.9179 -0.2602
  153DG      H6 3502   5.979   3.919   2.190 -0.3232  1.5754 -0.8008
  153DG      H7 3503   5.889   3.969   2.332  0.2191 -2.1897  1.4125
  153DG      H8 3504   5.864   3.809   2.270  0.8375 -1.0866 -0.8486
  153DG      O9 3505   5.315   3.804   2.208 -0.0824 -0.0460  0.0201
  153DG     O10 3506   5.773   3.955   2.160  0.4463  0.5088  0.3022
  153DG     C11 3507   5.299   3.798   2.060 -0.0041 -0.0348 -0.6358
  153DG     C12 3508   5.767   3.886   2.043  0.1038 -0.1243  0.3263
  153DG     H13 3509   5.200   3.830   2.029 -0.6264 -1.3680 -0.1240
  153DG     H14 3510   5.316   3.694   2.032 -0.7875 -0.9369  1.8622
  153DG     H15 3511   5.760   3.778   2.053  2.5349 -0.3629  0.2034
  153DG     H16 3512   5.841   3.914   1.968  0.2379  0.9095  0.8180
  153DG     C17 3513   5.396   3.895   1.995  0.1206 -0.0431 -0.1654
  153DG     C18 3514   5.633   3.928   1.984  0.6782 -0.2056  0.2502
  153DG     O19 3515   5.526   3.866   2.053 -0.3386 -0.2116 -0.2937
  153DG     H20 3516   5.362   3.994   2.026 -3.6437 -0.9585 -0.8705
  153DG     H21 3517   5.390   3.883   1.887  0.7597 -1.7403 -0.0407
  153DG     H22 3518   5.623   4.036   1.980  0.3288 -0.1790  1.4320
  153DG     H23 3519   5.632   3.887   1.883  1.8813 -2.7542  1.2012
  154DG      C1 3520   5.195   0.876   1.592 -0.7873  0.0974 -0.2355
  154DG      C2 3521   5.151   1.332   1.114  0.1600 -0.0033  0.4632
  154DG      H3 3522   5.210   0.851   1.697 -0.9223  0.8962 -0.0163
  154DG      H4 3523   5.257   0.820   1.521 -1.1833 -2.4345  1.2866
  154DG      H5 3524   5.094   0.847   1.563  0.1518 -1.2700 -2.4386
  154DG      H6 3525   5.156   1.427   1.062 -2.4801 -0.8459 -1.5345
  154DG      H7 3526   5.218   1.260   1.067 -0.4839  0.5050 -1.3030
  154DG      H8 3527   5.056   1.286   1.088  0.3620  1.7427 -4.2080
  154DG      O9 3528   5.216   1.012   1.584  0.4811  0.3134  0.0091
  154DG     O10 3529   5.181   1.346   1.257  0.4717  0.1803  0.9255
  154DG     C11 3530   5.348   1.062   1.623  0.6904 -0.2082  0.4448
  154DG     C12 3531   5.310   1.396   1.278  0.3421 -0.7278  0.3477
  154DG     H13 3532   5.416   1.001   1.563  0.9725  0.7245 -0.2027
  154DG     H14 3533   5.370   1.038   1.727  0.8155  0.3037  0.5395
  154DG     H15 3534   5.320   1.502   1.256  3.0626  0.4837  5.8245
  154DG     H16 3535   5.383   1.342   1.218  0.0202 -2.6497  1.5790
  154DG     C17 3536   5.355   1.211   1.599  0.4918 -0.2108  0.4270
  154DG     C18 3537   5.339   1.379   1.421  0.6200  0.3835 -0.4967
  154DG     O19 3538   5.328   1.246   1.461 -0.7868  0.6691 -0.3810
  154DG     H20 3539   5.454   1.248   1.626  1.1664 -1.4647 -0.2328
  154DG     H21 3540   5.278   1.270   1.650 -0.2384  0.3116 -1.2163
  154DG     H22 3541   5.438   1.418   1.443 -0.1920  3.0249 -1.0770
  154DG     H23 3542   5.273   1.448   1.474  0.0301 -0.4921 -0.0548
  155DG      C1 3543   5.385   3.005   4.877  0.6075 -0.2209 -0.1409
  155DG      C2 3544   5.380   3.624   5.045  0.1175  0.5463  0.6953
  155DG      H3 3545   5.381   3.034   4.773  1.0115  1.5325  0.3008
  155DG      H4 3546   5.288   2.988   4.925  1.9341 -0.1719  2.7907
  155DG      H5 3547   5.438   2.911   4.865  1.2412 -0.3054  2.5823
  155DG      H6 3548   5.357   3.619   4.938  0.5315 -0.4899  0.6375
  155DG      H7 3549   5.288   3.604   5.100  0.9388 -2.7891  1.0902
  155DG      H8 3550   5.420   3.724   5.062  0.1063  1.0212 -1.7472
  155DG      O9 3551   5.468   3.098   4.948  0.1351  0.1054  0.0455
  155DG     O10 3552   5.475   3.517   5.062  0.6896  0.4743 -0.0513
  155DG     C11 3553   5.501   3.046   5.077 -0.0008 -0.3488  0.0264
  155DG     C12 3554   5.503   3.511   5.193 -0.5019 -0.7487  0.1411
  155DG     H13 3555   5.550   2.949   5.066  2.9525  1.1114 -0.8649
  155DG     H14 3556   5.412   3.020   5.134  0.3506 -0.5606  0.4910
  155DG     H15 3557   5.420   3.515   5.263  0.9296  0.4063  1.8417
  155DG     H16 3558   5.569   3.590   5.229  0.9708 -2.6911  1.9070
  155DG     C17 3559   5.581   3.148   5.158  0.3292  0.3883 -0.6877
  155DG     C18 3560   5.588   3.388   5.219 -0.3151 -0.3205 -0.0187
  155DG     O19 3561   5.511   3.275   5.175  0.5244 -0.6214 -0.2592
  155DG     H20 3562   5.672   3.171   5.104  1.9316 -1.7458  0.8882
  155DG     H21 3563   5.614   3.098   5.250  1.2363  2.4095  0.1353
  155DG     H22 3564   5.677   3.388   5.154 -0.8638 -0.4263 -0.7854
  155DG     H23 3565   5.616   3.371   5.323 -1.7785 -1.0395  0.2894
  156DG      C1 3566   3.128   1.630   1.279 -0.2405  0.2943 -0.1227
  156DG      C2 3567   2.958   1.029   0.772  0.2566 -0.1243  0.6920
  156DG      H3 3568   3.125   1.588   1.380  1.1313  0.9275  0.1990
  156DG      H4 3569   3.087   1.731   1.288 -0.5529  0.0576  1.3452
  156DG      H5 3570   3.233   1.639   1.254  0.1263  1.8740  1.7459
  156DG      H6 3571   2.893   0.964   0.831  0.2762 -0.8275 -0.0404
  156DG      H7 3572   2.920   1.035   0.670 -3.7961 -0.3650  2.0138
  156DG      H8 3573   3.061   0.994   0.771  0.8456  1.4309 -1.5446
  156DG      O9 3574   3.071   1.543   1.177 -0.0750 -0.2482 -0.0613
  156DG     O10 3575   2.945   1.153   0.828  0.1827 -0.1420  0.0974
  156DG     C11 3576   2.944   1.488   1.213 -0.1831 -0.1733  0.1464
  156DG     C12 3577   2.809   1.191   0.849  0.0513 -0.5510 -0.3115
  156DG     H13 3578   2.896   1.561   1.277 -2.1885 -0.0512 -1.3733
  156DG     H14 3579   2.954   1.390   1.259 -0.4902  0.5814  1.8715
  156DG     H15 3580   2.762   1.119   0.916 -1.8422  2.2950  1.6821
  156DG     H16 3581   2.757   1.190   0.753 -2.1848 -0.1945  0.8461
  156DG     C17 3582   2.849   1.483   1.091 -0.2375  0.1819  0.0146
  156DG     C18 3583   2.783   1.335   0.912 -0.8896 -0.0117 -0.4009
  156DG     O19 3584   2.873   1.358   1.024 -0.1624  0.6220  0.2193
  156DG     H20 3585   2.859   1.570   1.026 -4.0356  0.3663 -0.5273
  156DG     H21 3586   2.745   1.486   1.121 -0.7731  0.2953 -1.7535
  156DG     H22 3587   2.795   1.414   0.838 -1.0243  0.6624  0.2726
  156DG     H23 3588   2.687   1.342   0.965 -0.4632 -0.2978  0.4289
  157DG      C1 3589   1.455   3.356   4.050  0.4532 -0.1052 -0.6054
  157DG      C2 3590   1.696   2.888   3.699 -0.0587  0.0634  0.8054
  157DG      H3 3591   1.378   3.431   4.036  1.3267  1.4960  2.3032
  157DG      H4 3592   1.533   3.407   4.108  0.2190 -0.2572 -0.1509
  157DG      H5 3593   1.419   3.281   4.120 -0.3934  2.6191  2.1062
  157DG      H6 3594   1.683   2.855   3.803  0.5182 -4.9651 -0.4610
  157DG      H7 3595   1.612   2.853   3.639 -0.4201  0.1829  1.2347
  157DG      H8 3596   1.787   2.859   3.648 -1.8749  0.8172 -3.1922
  157DG      O9 3597   1.494   3.316   3.922  0.1080  0.2163 -0.2418
  157DG     O10 3598   1.702   3.033   3.703  0.2110  0.2547  0.1748
  157DG     C11 3599   1.550   3.423   3.849 -0.2524  0.1489  0.3886
  157DG     C12 3600   1.715   3.106   3.585 -0.3065  0.1505 -0.4307
  157DG     H13 3601   1.656   3.434   3.872  0.7444 -1.5332 -2.8429
  157DG     H14 3602   1.512   3.520   3.884 -1.5401 -0.3405  0.4021
  157DG     H15 3603   1.653   3.059   3.509 -1.1599  0.5948 -0.0325
  157DG     H16 3604   1.817   3.102   3.547  0.3444 -0.5169  1.2767
  157DG     C17 3605   1.535   3.407   3.697 -0.5679  0.4029  0.0382
  157DG     C18 3606   1.691   3.256   3.608 -0.5550 -0.5077 -0.4983
  157DG     O19 3607   1.572   3.273   3.675 -0.1650 -0.1625  0.0414
  157DG     H20 3608   1.600   3.476   3.644 -0.0562 -1.2281 -1.6007
  157DG     H21 3609   1.431   3.417   3.668 -0.9779 -1.1044  0.8555
  157DG     H22 3610   1.769   3.300   3.671 -0.8678 -0.5047 -0.1087
  157DG     H23 3611   1.701   3.308   3.513  0.0052  1.1033  0.3966
  158DG      C1 3612   0.071   0.738   1.602 -0.1655  0.0779  0.0074
  158DG      C2 3613   0.582   1.062   1.771  0.1168  0.0029 -0.2212
  158DG      H3 3614   0.095   0.634   1.626 -1.2899 -0.5250 -1.3227
  158DG      H4 3615   0.118   0.760   1.506  2.2411 -1.3770  0.7522
  158DG      H5 3616  -0.036   0.755   1.593  0.5017  4.3331 -2.6750
  158DG      H6 3617   0.652   1.009   1.706  1.5295 -0.4482  1.5911
  158DG      H7 3618   0.510   1.101   1.700  1.0162  1.7665 -0.2067
  158DG      H8 3619   0.644   1.136   1.821  0.8880 -1.7365  1.5200
  158DG      O9 3620   0.125   0.838   1.697  0.3525 -0.0625 -0.0934
  158DG     O10 3621   0.527   0.988   1.878 -0.4544  0.2679  0.1539
  158DG     C11 3622   0.060   0.821   1.821  0.0880 -0.0532 -0.3024
  158DG     C12 3623   0.451   1.058   1.970  0.2894  0.3588 -0.4468
  158DG     H13 3624   0.063   0.722   1.866  0.6171  0.3678  0.6120
  158DG     H14 3625  -0.045   0.845   1.806  0.4909  0.8908 -1.9004
  158DG     H15 3626   0.468   1.166   1.975 -0.6675  0.5158 -0.2829
  158DG     H16 3627   0.466   1.015   2.069 -2.2852  0.1730 -0.0591
  158DG     C17 3628   0.110   0.930   1.915 -0.3593  0.0773 -0.3429
  158DG     C18 3629   0.306   1.058   1.930  0.5790 -0.1910 -0.1799
  158DG     O19 3630   0.254   0.927   1.916  0.3335 -0.3513  0.5938
  158DG     H20 3631   0.074   0.918   2.017 -0.3449 -0.2497 -0.3751
  158DG     H21 3632   0.063   1.016   1.867 -2.9422 -1.2110 -0.2956
  158DG     H22 3633   0.243   1.111   2.002 -0.5963  2.4535 -2.9489
  158DG     H23 3634   0.277   1.097   1.833  1.4215 -0.7652 -0.6804
  159DG      C1 3635   1.335   3.110   2.117 -0.3445  0.4069  0.1201
  159DG      C2 3636   0.871   3.009   1.621 -0.2906 -0.1606  0.5738
  159DG      H3 3637   1.436   3.151   2.119  0.1981 -0.9129  0.3057
  159DG      H4 3638   1.330   3.053   2.210  0.2457  0.2179  0.0364
  159DG      H5 3639   1.255   3.185   2.121  0.5887  1.4911 -0.9748
  159DG      H6 3640   0.776   2.975   1.661 -0.0781 -0.4520  0.8387
  159DG      H7 3641   0.862   3.115   1.595 -1.4055 -0.8658 -2.3935
  159DG      H8 3642   0.877   2.959   1.524  0.3860  1.3071 -0.1789
  159DG      O9 3643   1.306   3.026   1.998  0.0067  0.2328  0.3039
  159DG     O10 3644   0.991   2.967   1.688  0.0202 -0.5089  0.2039
  159DG     C11 3645   1.358   2.892   1.987  0.5183 -0.2077 -0.0469
  159DG     C12 3646   0.986   2.830   1.710 -1.0745 -0.1825  0.7557
  159DG     H13 3647   1.350   2.841   2.083 -2.1770 -0.0613 -0.1400
  159DG     H14 3648   1.465   2.891   1.966  0.6945  0.6881  0.7528
  159DG     H15 3649   0.945   2.779   1.623 -0.4454 -0.2446  0.4926
  159DG     H16 3650   0.918   2.799   1.790 -1.0202  0.8087  1.2070
  159DG     C17 3651   1.308   2.804   1.875 -0.7560 -0.5170  0.3007
  159DG     C18 3652   1.124   2.765   1.741 -0.0103  0.0911 -0.2253
  159DG     O19 3653   1.173   2.839   1.850  0.4687 -0.1816  0.3042
  159DG     H20 3654   1.310   2.697   1.899  1.0076 -0.0398  2.7236
  159DG     H21 3655   1.368   2.816   1.785  0.8034  0.4056  1.4010
  159DG     H22 3656   1.100   2.665   1.777 -0.3144  0.6405  1.1816
  159DG     H23 3657   1.191   2.752   1.656 -1.9960  0.3229 -1.9236
  160DG      C1 3658   4.863   3.436   0.473  0.0703 -0.5504  0.6771
  160DG      C2 3659   4.851   2.914   0.871 -0.2315  0.5087 -0.0469
  160DG      H3 3660   4.831   3.520   0.535  1.2765  1.0775 -0.8033
  160DG      H4 3661   4.786   3.404   0.403 -0.8189  0.3807  1.2049
  160DG      H5 3662   4.929   3.491   0.406 -2.4884 -1.0885 -2.5395
  160DG      H6 3663   4.926   2.952   0.940  0.6767 -2.0813  0.5136
  160DG      H7 3664   4.759   2.958   0.908 -0.8860  0.3542 -1.4154
  160DG      H8 3665   4.840   2.810   0.903 -1.7561  1.0700  1.3931
  160DG      O9 3666   4.927   3.316   0.531 -0.9624  0.2487 -0.2122
  160DG     O10 3667   4.878   2.918   0.730 -0.4189  0.0116  0.5167
  160DG     C11 3668   5.060   3.334   0.577  0.1202 -0.0561  0.5484
  160DG     C12 3669   5.005   2.874   0.697 -0.4302  0.3639  0.1269
  160DG     H13 3670   5.065   3.439   0.608 -2.1561 -0.0719  1.1347
  160DG     H14 3671   5.119   3.341   0.485 -1.0583 -0.7081 -0.2934
  160DG     H15 3672   5.009   2.837   0.594  0.2598 -3.8975  1.4887
  160DG     H16 3673   5.040   2.790   0.757  1.4563  2.2767  1.8915
  160DG     C17 3674   5.126   3.225   0.665  0.5163 -0.5935 -0.0188
  160DG     C18 3675   5.097   2.997   0.719 -0.1334 -0.2857  0.0036
  160DG     O19 3676   5.062   3.100   0.635  0.1933 -0.9759 -0.4421
  160DG     H20 3677   5.107   3.252   0.769  3.3948  1.2031  0.1856
  160DG     H21 3678   5.234   3.217   0.648  0.5473 -3.6284  1.0017
  160DG     H22 3679   5.092   3.017   0.826  0.9978 -1.2105  0.2521
  160DG     H23 3680   5.202   2.971   0.705  0.2197  1.0938 -0.0812
  161DG      C1 3681   0.702   4.278   3.879  0.8578  0.6775 -0.3144
  161DG      C2 3682   0.433   4.529   4.386 -0.2818 -0.1178  0.1149
  161DG      H3 3683   0.807   4.307   3.878  1.4193 -0.6449  3.5047
  161DG      H4 3684   0.644   4.362   3.841  1.6475  0.3870 -2.2739
  161DG      H5 3685   0.696   4.187   3.819  2.1689  1.4829 -1.7507
  161DG      H6 3686   0.355   4.566   4.319  0.5588 -0.8020 -1.2959
  161DG      H7 3687   0.388   4.570   4.476  0.3755 -0.8657  0.8014
  161DG      H8 3688   0.523   4.584   4.359 -1.7303  2.3686  0.0789
  161DG      O9 3689   0.658   4.252   4.012 -0.2132 -0.0511  0.1987
  161DG     O10 3690   0.456   4.385   4.373  0.1688 -0.4264 -0.2596
  161DG     C11 3691   0.705   4.138   4.074  0.1275 -0.5723  0.7851
  161DG     C12 3692   0.562   4.329   4.445 -0.0194  0.4401  0.0612
  161DG     H13 3693   0.805   4.110   4.041 -1.3281 -1.5574 -3.5067
  161DG     H14 3694   0.638   4.061   4.035 -1.8930  1.1224  0.7108
  161DG     H15 3695   0.543   4.336   4.552  0.2691 -2.8034  0.3978
  161DG     H16 3696   0.660   4.371   4.422  0.0561 -0.1685 -0.7539
  161DG     C17 3697   0.714   4.155   4.220  0.5973 -0.2623 -0.7075
  161DG     C18 3698   0.567   4.185   4.398 -0.4522  0.5318  0.2648
  161DG     O19 3699   0.574   4.173   4.262 -0.7474 -0.3305 -0.1030
  161DG     H20 3700   0.780   4.239   4.241 -1.5144  1.1577  0.6998
  161DG     H21 3701   0.750   4.060   4.258  0.2080 -0.3743 -0.6129
  161DG     H22 3702   0.635   4.125   4.459 -1.0683  1.1240  1.5699
  161DG     H23 3703   0.469   4.147   4.429 -0.4791 -0.5661 -1.0890
  162DG      C1 3704   0.576   4.491   2.252 -0.1376  0.2467 -0.3639
  162DG      C2 3705   0.494   4.147   2.817 -0.7611  0.4455  0.4512
  162DG      H3 3706   0.634   4.537   2.172  1.5590  1.2893  1.3623
  162DG      H4 3707   0.476   4.534   2.262 -0.2063 -0.3239  1.9124
  162DG      H5 3708   0.566   4.384   2.235  0.1563 -0.8489  4.6350
  162DG      H6 3709   0.493   4.210   2.906 -0.0463 -0.4464  1.1090
  162DG      H7 3710   0.394   4.158   2.775 -0.0499 -1.8607 -2.2094
  162DG      H8 3711   0.504   4.041   2.842  1.1521  0.7435  1.1303
  162DG      O9 3712   0.643   4.508   2.374  0.0872 -0.1397  1.1723
  162DG     O10 3713   0.582   4.184   2.707  0.3087 -0.2588 -0.4715
  162DG     C11 3714   0.780   4.475   2.377 -0.2040 -0.0088  0.1743
  162DG     C12 3715   0.610   4.084   2.610 -0.0902  0.5333 -0.0448
  162DG     H13 3716   0.844   4.526   2.450  1.4132  1.4922 -2.1282
  162DG     H14 3717   0.818   4.518   2.284 -0.9401 -0.6863 -0.4513
  162DG     H15 3718   0.521   4.048   2.559 -0.5256 -1.1183  1.7629
  162DG     H16 3719   0.645   3.995   2.663  0.0362  0.9812  0.6427
  162DG     C17 3720   0.798   4.324   2.379 -0.7658  0.2303  0.2066
  162DG     C18 3721   0.718   4.127   2.501  0.4748  0.4064  0.5869
  162DG     O19 3722   0.713   4.270   2.478  0.3264  0.1287  0.1325
  162DG     H20 3723   0.902   4.292   2.388 -0.1219  1.2301 -2.5986
  162DG     H21 3724   0.772   4.281   2.282 -0.9840 -0.9557  0.7696
  162DG     H22 3725   0.824   4.107   2.513  0.6848  0.9964 -0.1634
  162DG     H23 3726   0.695   4.067   2.412 -2.5091  3.6014 -1.0532
  163DG      C1 3727   5.124   5.417   2.513  0.3021  0.5801  0.2108
  163DG      C2 3728   5.442   5.162   1.963 -0.0202 -0.0583  0.5069
  163DG      H3 3729   5.141   5.505   2.575 -0.5734  0.7692  0.2001
  163DG      H4 3730   5.191   5.345   2.559  0.3375  0.9594  0.7628
  163DG      H5 3731   5.019   5.388   2.513  0.8641 -1.6561 -0.0592
  163DG      H6 3732   5.358   5.095   1.943 -1.4265  2.6964 -4.6159
  163DG      H7 3733   5.492   5.185   1.869 -0.7785 -0.2731  0.0379
  163DG      H8 3734   5.517   5.120   2.030  0.0853  0.9556  1.0506
  163DG      O9 3735   5.171   5.444   2.378 -0.0019 -0.3378  0.4999
  163DG     O10 3736   5.387   5.291   2.006  0.6107  0.0162  0.5848
  163DG     C11 3737   5.098   5.548   2.309 -0.5267  0.6135 -0.3260
  163DG     C12 3738   5.297   5.357   1.914  0.3240  0.6469 -0.2114
  163DG     H13 3739   5.112   5.634   2.374  0.4150  0.9662 -0.9824
  163DG     H14 3740   4.990   5.532   2.301 -1.0648  3.5009 -0.1175
  163DG     H15 3741   5.203   5.302   1.908  0.9053 -0.4541  0.4968
  163DG     H16 3742   5.335   5.374   1.813  1.8226 -0.3004  0.1659
  163DG     C17 3743   5.157   5.590   2.173  0.7646 -0.0576  0.2071
  163DG     C18 3744   5.269   5.492   1.981  0.7239  0.4812  0.5155
  163DG     O19 3745   5.198   5.469   2.100  0.0413 -0.0398 -0.3575
  163DG     H20 3746   5.253   5.639   2.189  0.9364 -0.3434  0.0580
  163DG     H21 3747   5.093   5.658   2.117  1.8720  0.5345 -0.3695
  163DG     H22 3748   5.363   5.540   2.011  0.9571  0.3167  0.0513
  163DG     H23 3749   5.207   5.558   1.921  0.8687 -0.6139 -0.8835
  164DG      C1 3750   3.336   4.006   5.192 -0.3837 -0.1316 -0.4674
  164DG      C2 3751   3.514   4.255   4.585  0.1518  0.1574  0.1468
  164DG      H3 3752   3.262   4.085   5.177 -2.3749 -1.5563  1.1559
  164DG      H4 3753   3.378   4.033   5.289 -0.5783 -1.2649 -0.0411
  164DG      H5 3754   3.283   3.911   5.203  1.2168 -0.8582  1.7869
  164DG      H6 3755   3.533   4.345   4.643 -1.6517  1.9618 -1.8903
  164DG      H7 3756   3.571   4.266   4.493  1.7564  3.5879  1.3739
  164DG      H8 3757   3.408   4.251   4.563  0.3671 -1.7950 -0.8445
  164DG      O9 3758   3.421   4.001   5.083 -0.3080 -0.0750  0.0531
  164DG     O10 3759   3.539   4.146   4.665 -0.5472  0.4172 -1.0143
  164DG     C11 3760   3.532   3.917   5.108 -0.3948  0.5608 -0.1670
  164DG     C12 3761   3.674   4.135   4.713 -0.5846 -0.2249  0.1321
  164DG     H13 3762   3.499   3.815   5.125 -0.9325  0.6259 -0.7556
  164DG     H14 3763   3.600   3.958   5.182 -0.5236  0.1379  0.1930
  164DG     H15 3764   3.684   4.223   4.778 -2.3769 -1.0068  1.5631
  164DG     H16 3765   3.743   4.152   4.631  0.4258  0.1636  1.0284
  164DG     C17 3766   3.626   3.902   4.989 -0.6471 -0.2547  0.4362
  164DG     C18 3767   3.694   4.007   4.793  0.1381  0.2748  0.0646
  164DG     O19 3768   3.612   4.018   4.905 -0.0623  0.5542 -0.2162
  164DG     H20 3769   3.612   3.817   4.922 -0.1302 -0.2498  0.3197
  164DG     H21 3770   3.727   3.900   5.030 -0.9636 -1.0603  1.2049
  164DG     H22 3771   3.664   3.916   4.741 -0.2884  0.4895 -0.0679
  164DG     H23 3772   3.801   3.994   4.810  0.0760  0.3080  0.4828
  165DG      C1 3773   1.426   2.135   1.273 -0.0230 -0.4524 -0.5170
  165DG      C2 3774   0.869   2.322   0.978  0.5182  0.2689 -1.0051
  165DG      H3 3775   1.353   2.076   1.329 -0.3481 -2.7980 -3.2240
  165DG      H4 3776   1.515   2.158   1.332 -1.4265  1.3187  1.0317
  165DG      H5 3777   1.458   2.079   1.186 -1.5115  1.0234 -2.0909
  165DG      H6 3778   0.831   2.287   1.074  1.4420 -0.3745 -0.8642
  165DG      H7 3779   0.798   2.403   0.958  1.7206  1.3237 -1.1820
  165DG      H8 3780   0.856   2.243   0.905 -0.2095 -1.0791  0.5241
  165DG      O9 3781   1.358   2.254   1.227  0.5109 -0.0980 -0.1752
  165DG     O10 3782   0.997   2.381   0.985 -0.3641 -0.1129  0.0297
  165DG     C11 3783   1.446   2.343   1.160 -0.2202  0.0035 -0.8105
  165DG     C12 3784   1.007   2.501   1.055 -0.3211  0.1342  0.8090
  165DG     H13 3785   1.482   2.315   1.061  2.8688  0.8876 -0.0455
  165DG     H14 3786   1.532   2.369   1.221 -2.6916  2.0170  2.1353
  165DG     H15 3787   0.984   2.486   1.160 -2.3430 -1.3576  0.2052
  165DG     H16 3788   0.946   2.577   1.007  2.0752  0.7790 -1.4721
  165DG     C17 3789   1.370   2.476   1.137  0.9270  0.1502  1.1386
  165DG     C18 3790   1.148   2.553   1.069 -0.0799  0.3927 -0.1107
  165DG     O19 3791   1.245   2.447   1.079 -0.0206  0.3294 -0.0171
  165DG     H20 3792   1.414   2.545   1.065 -0.6512 -0.1277 -0.1675
  165DG     H21 3793   1.354   2.522   1.234  0.8454  1.3625  0.5742
  165DG     H22 3794   1.174   2.608   0.978 -1.3450 -0.0158 -0.7434
  165DG     H23 3795   1.156   2.609   1.162  1.4951 -0.0984  0.0718
  166DG      C1 3796   3.437   1.060   0.620  0.1984 -0.6283 -0.1995
  166DG      C2 3797   3.455   1.115   1.246 -0.2109  0.0622  0.5695
  166DG      H3 3798   3.436   0.975   0.688  1.9753 -2.5254 -2.3905
  166DG      H4 3799   3.538   1.061   0.579  0.4272 -3.8456  0.0602
  166DG      H5 3800   3.377   1.033   0.533  0.2802 -1.3209 -0.0401
  166DG      H6 3801   3.397   1.071   1.327  0.1675 -0.4496  0.5656
  166DG      H7 3802   3.540   1.049   1.228 -0.9149 -0.7312  0.0673
  166DG      H8 3803   3.511   1.206   1.268  1.4369 -0.5168 -0.9732
  166DG      O9 3804   3.406   1.178   0.691 -0.4988  0.5097  0.0018
  166DG     O10 3805   3.387   1.135   1.118  0.5949 -0.2168  0.1269
  166DG     C11 3806   3.270   1.181   0.702 -0.1101  0.1550  0.2410
  166DG     C12 3807   3.269   1.206   1.139 -0.0555 -0.1506  0.7704
  166DG     H13 3808   3.236   1.098   0.762  0.8197  0.9080  1.8955
  166DG     H14 3809   3.209   1.189   0.612  0.0258  0.3836  0.1671
  166DG     H15 3810   3.289   1.305   1.181 -0.1759  0.4274 -0.4990
  166DG     H16 3811   3.197   1.156   1.203  0.2178 -1.3078  0.1848
  166DG     C17 3812   3.233   1.309   0.788 -0.2863  0.1072  0.5504
  166DG     C18 3813   3.196   1.239   1.004 -0.3548  0.6744  0.0133
  166DG     O19 3814   3.285   1.295   0.919  0.3233 -0.0594  0.0276
  166DG     H20 3815   3.125   1.323   0.781 -0.1105  0.7533 -1.8190
  166DG     H21 3816   3.295   1.383   0.737  2.0068 -1.9486  0.1621
  166DG     H22 3817   3.183   1.143   0.954  2.7464  0.3248 -0.2880
  166DG     H23 3818   3.106   1.300   1.010 -0.7792 -0.0016  0.8206
  167DG      C1 3819   0.595   3.319   2.020 -0.0529  0.3052 -0.5649
  167DG      C2 3820   0.132   3.711   1.705 -0.2167  0.8194 -0.1386
  167DG      H3 3821   0.599   3.232   1.954 -1.9435 -0.3147  0.0859
  167DG      H4 3822   0.500   3.327   2.072  0.5640  0.8744  0.5128
  167DG      H5 3823   0.675   3.324   2.093  0.3785  1.9286 -1.1060
  167DG      H6 3824   0.066   3.644   1.760  0.1385 -2.3208 -3.1882
  167DG      H7 3825   0.092   3.810   1.684 -0.4426  0.7630  0.0170
  167DG      H8 3826   0.147   3.676   1.603 -0.1377 -0.1629  0.1978
  167DG      O9 3827   0.591   3.443   1.955 -0.6180  0.0199  0.1846
  167DG     O10 3828   0.260   3.710   1.768 -0.2859 -0.2070 -0.2940
  167DG     C11 3829   0.574   3.553   2.044 -0.6705  0.3623  0.0262
  167DG     C12 3830   0.360   3.757   1.681  0.1784  0.4621 -0.4560
  167DG     H13 3831   0.651   3.546   2.120  0.1057  1.0506 -0.6748
  167DG     H14 3832   0.476   3.544   2.091 -0.4072 -3.1661  0.1390
  167DG     H15 3833   0.344   3.860   1.647  1.1871  0.9960  0.5966
  167DG     H16 3834   0.377   3.682   1.604 -0.7468  0.0480 -0.2724
  167DG     C17 3835   0.581   3.682   1.969  0.0560 -0.0441  0.4094
  167DG     C18 3836   0.487   3.772   1.767  0.0568 -0.0775  0.2433
  167DG     O19 3837   0.497   3.660   1.851 -0.1503 -0.5595 -0.1967
  167DG     H20 3838   0.684   3.701   1.940 -0.3091  0.1636 -0.8336
  167DG     H21 3839   0.554   3.771   2.025  0.6307 -0.8130  1.9808
  167DG     H22 3840   0.573   3.777   1.701 -1.1335 -0.5117 -1.3933
  167DG     H23 3841   0.488   3.867   1.820 -0.6295 -0.5904  1.2134
  168DG      C1 3842   2.501   3.991   1.496  0.9931 -0.1065 -1.0735
  168DG      C2 3843   2.735   4.549   1.130 -0.0090 -0.8210 -0.5498
  168DG      H3 3844   2.581   3.994   1.570 -0.6335 -0.2450  0.7760
  168DG      H4 3845   2.520   3.913   1.421  2.2378 -0.9645  0.0823
  168DG      H5 3846   2.412   3.963   1.554  0.6746  1.5474 -0.7289
  168DG      H6 3847   2.735   4.652   1.166  0.1984 -0.4072 -1.7132
  168DG      H7 3848   2.832   4.509   1.159  0.0594  1.4939  3.1509
  168DG      H8 3849   2.723   4.559   1.022 -0.7388  0.7757 -0.3447
  168DG      O9 3850   2.480   4.119   1.445 -0.4210  0.1294  0.3504
  168DG     O10 3851   2.623   4.468   1.174 -0.0991  0.4875 -0.0243
  168DG     C11 3852   2.361   4.134   1.373 -0.0879 -0.9210  0.1175
  168DG     C12 3853   2.502   4.518   1.122 -0.5839  0.7184 -0.0143
  168DG     H13 3854   2.273   4.100   1.429  0.4208 -1.5090  0.5692
  168DG     H14 3855   2.363   4.082   1.277 -2.1169  1.0275 -1.0641
  168DG     H15 3856   2.488   4.496   1.016  2.4363 -0.0836 -0.3223
  168DG     H16 3857   2.503   4.627   1.120  0.9237  0.7533  1.0320
  168DG     C17 3858   2.329   4.282   1.343  0.4253 -0.1289 -0.5464
  168DG     C18 3859   2.394   4.459   1.215 -0.9435  0.1054 -0.0586
  168DG     O19 3860   2.426   4.333   1.258 -0.0685  0.7965  0.4341
  168DG     H20 3861   2.321   4.342   1.433  1.5554 -0.5419 -0.1517
  168DG     H21 3862   2.228   4.284   1.302  0.4085 -0.2709 -0.5134
  168DG     H22 3863   2.394   4.523   1.303  2.2719  2.0827 -1.3108
  168DG     H23 3864   2.296   4.461   1.166 -0.0081 -0.3679 -2.0567
  169DG      C1 3865   1.803   1.842   4.720 -1.0935 -0.4268 -0.4640
  169DG      C2 3866   1.659   1.393   4.224  0.5214  0.2061 -0.0071
  169DG      H3 3867   1.874   1.764   4.750  1.3623  1.9922  0.4894
  169DG      H4 3868   1.777   1.897   4.810 -1.4414  1.1496 -1.5002
  169DG      H5 3869   1.852   1.914   4.656 -0.8866  0.2422  0.4223
  169DG      H6 3870   1.722   1.467   4.175 -0.6835  2.2412  1.3631
  169DG      H7 3871   1.734   1.319   4.252 -0.3390 -1.0137 -0.8301
  169DG      H8 3872   1.598   1.334   4.156  0.5577 -1.4813  1.3626
  169DG      O9 3873   1.703   1.781   4.638  0.6610 -0.0346  0.1585
  169DG     O10 3874   1.578   1.448   4.327 -0.2176  0.0700 -0.2999
  169DG     C11 3875   1.612   1.873   4.578  0.5146  0.3970  0.0555
  169DG     C12 3876   1.489   1.540   4.264 -0.3134 -0.8332  0.5423
  169DG     H13 3877   1.661   1.920   4.493 -0.9181  0.8460 -0.5643
  169DG     H14 3878   1.594   1.951   4.653  0.3466  0.6187 -0.2150
  169DG     H15 3879   1.413   1.495   4.201 -0.0186  1.6421 -1.7638
  169DG     H16 3880   1.543   1.594   4.187 -2.2966  0.7903  0.2046
  169DG     C17 3881   1.480   1.806   4.527 -0.1149  0.5355 -0.7988
  169DG     C18 3882   1.429   1.638   4.360  0.1349 -0.3028 -0.3579
  169DG     O19 3883   1.532   1.708   4.432  0.1764 -0.0130 -0.0690
  169DG     H20 3884   1.415   1.883   4.485 -0.9432 -0.5023 -1.4990
  169DG     H21 3885   1.433   1.744   4.604 -0.5834  1.5510 -0.2382
  169DG     H22 3886   1.364   1.703   4.301  0.7001 -1.0958 -1.8797
  169DG     H23 3887   1.373   1.586   4.439 -1.8977 -1.5674 -2.5000
  170DG      C1 3888   2.327   2.397   0.587 -0.1216 -0.9192  0.8935
  170DG      C2 3889   2.540   2.048   1.098  0.0556  0.4450  0.3589
  170DG      H3 3890   2.411   2.448   0.634 -1.0497  0.5105  1.0641
  170DG      H4 3891   2.252   2.461   0.541  1.5029 -0.0753 -0.6814
  170DG      H5 3892   2.387   2.337   0.519  2.2589 -0.1998  2.2522
  170DG      H6 3893   2.611   2.131   1.101  0.6856 -0.1169  1.4577
  170DG      H7 3894   2.531   2.018   1.202 -0.5388  1.1219  0.5144
  170DG      H8 3895   2.578   1.965   1.039 -0.5431  1.4715 -1.5812
  170DG      O9 3896   2.278   2.318   0.696  0.6698  0.0244  0.1438
  170DG     O10 3897   2.418   2.100   1.053  0.2804  0.0380 -0.3398
  170DG     C11 3898   2.185   2.216   0.650  0.2238  0.1232  0.3963
  170DG     C12 3899   2.312   2.004   1.057  0.7108 -0.2281  0.3144
  170DG     H13 3900   2.242   2.150   0.586  0.5548 -0.0746  0.8832
  170DG     H14 3901   2.117   2.272   0.587  1.1951 -0.1025 -0.8895
  170DG     H15 3902   2.277   1.984   1.158  1.4229 -2.1376  0.2202
  170DG     H16 3903   2.337   1.908   1.012  0.0531  0.2085 -1.0626
  170DG     C17 3904   2.127   2.139   0.768 -0.0139  0.0698  0.1713
  170DG     C18 3905   2.188   2.054   0.986  0.2633 -0.2451  0.1069
  170DG     O19 3906   2.232   2.090   0.852 -0.2443  0.1363 -0.2839
  170DG     H20 3907   2.061   2.059   0.736  1.7039 -0.7525 -1.4996
  170DG     H21 3908   2.068   2.206   0.830  1.4994  1.5242  0.1257
  170DG     H22 3909   2.109   1.979   0.984  1.0863 -1.1140 -1.1906
  170DG     H23 3910   2.163   2.144   1.042 -1.4774 -1.0242  0.6408
  171DG      C1 3911   1.779   3.371   3.085  0.3212 -0.2796 -0.0309
  171DG      C2 3912   1.227   3.436   2.949  0.1987 -0.1323 -0.6951
  171DG      H3 3913   1.833   3.444   3.024 -0.1571 -0.5946 -0.8463
  171DG      H4 3914   1.677   3.368   3.048  0.9665 -0.8855 -1.9037
  171DG      H5 3915   1.820   3.273   3.063  2.4932  0.3182  1.0283
  171DG      H6 3916   1.296   3.467   2.870  1.2918 -0.5888  0.0676
  171DG      H7 3917   1.208   3.329   2.941 -2.6762 -0.0076  2.3619
  171DG      H8 3918   1.131   3.487   2.959  0.6660  0.4073  1.6099
  171DG      O9 3919   1.778   3.400   3.222 -0.2236  0.1804  0.2142
  171DG     O10 3920   1.305   3.460   3.065 -0.3187  0.3729 -0.2014
  171DG     C11 3921   1.766   3.540   3.248 -0.5323  0.1036 -1.0242
  171DG     C12 3922   1.322   3.601   3.096  0.1013  0.3550  0.0889
  171DG     H13 3923   1.791   3.606   3.165  0.6058  1.4275  0.3159
  171DG     H14 3924   1.846   3.567   3.317  1.1564 -1.7831 -2.1276
  171DG     H15 3925   1.232   3.661   3.113  0.9270  1.7932 -0.4515
  171DG     H16 3926   1.366   3.646   3.007 -1.7383 -0.1877 -1.1381
  171DG     C17 3927   1.623   3.571   3.291  0.5818  0.1980 -0.6852
  171DG     C18 3928   1.401   3.619   3.229  0.7853 -0.1485 -0.3511
  171DG     O19 3929   1.519   3.553   3.193 -0.3045  0.0503  0.3303
  171DG     H20 3930   1.618   3.670   3.336 -1.2116  0.6072 -1.6818
  171DG     H21 3931   1.599   3.513   3.380 -0.8800  1.5455 -0.1478
  171DG     H22 3932   1.412   3.725   3.254 -2.3384  0.4310 -0.9846
  171DG     H23 3933   1.347   3.584   3.317 -0.1708  1.0370 -0.4282
  172DG      C1 3934   5.150   3.881   4.587 -0.5294 -0.0365 -0.1348
  172DG      C2 3935   5.512   4.297   4.873 -0.0831 -0.2862  0.5484
  172DG      H3 3936   5.089   3.919   4.668  1.1370  0.1026  1.1058
  172DG      H4 3937   5.134   3.775   4.570  2.1957 -0.3112 -1.6052
  172DG      H5 3938   5.107   3.929   4.499  2.3744  2.0767 -0.5902
  172DG      H6 3939   5.421   4.358   4.869 -0.5442 -1.0314 -1.7575
  172DG      H7 3940   5.493   4.223   4.951 -0.7243  0.4863  1.1450
  172DG      H8 3941   5.588   4.367   4.907 -1.2617  1.1937  0.2847
  172DG      O9 3942   5.293   3.911   4.604 -0.1122 -0.1976 -0.1580
  172DG     O10 3943   5.532   4.249   4.741  0.1631 -0.1015  0.7829
  172DG     C11 3944   5.380   3.884   4.497 -0.3748  0.4324  0.7579
  172DG     C12 3945   5.636   4.157   4.719 -0.4918  0.3512 -0.0114
  172DG     H13 3946   5.361   3.937   4.404  0.1772 -0.9719 -0.1922
  172DG     H14 3947   5.379   3.777   4.474 -0.3396  1.1159 -3.1584
  172DG     H15 3948   5.633   4.072   4.788  0.4739 -0.4813 -0.9599
  172DG     H16 3949   5.730   4.209   4.739 -0.5178  0.5774 -0.4660
  172DG     C17 3950   5.531   3.928   4.532 -0.1799  0.5012 -0.2849
  172DG     C18 3951   5.655   4.128   4.566  0.3880 -0.4165 -0.1186
  172DG     O19 3952   5.526   4.070   4.531 -0.1446  0.3505 -0.2600
  172DG     H20 3953   5.593   3.885   4.453  0.9982  0.1946  0.7861
  172DG     H21 3954   5.566   3.881   4.624  2.7879 -2.0354 -2.5064
  172DG     H22 3955   5.661   4.224   4.514 -1.5901 -1.1187 -1.7755
  172DG     H23 3956   5.740   4.070   4.532  0.8683  0.3794 -0.3039
  173DG      C1 3957   4.307   2.769   3.285 -0.6434 -0.4816  0.6939
  173DG      C2 3958   4.329   2.082   3.302  0.1513 -0.2637 -0.0101
  173DG      H3 3959   4.373   2.774   3.372  0.4980 -0.9504 -0.1246
  173DG      H4 3960   4.206   2.748   3.319 -1.0729  0.1285 -0.1886
  173DG      H5 3961   4.309   2.865   3.235 -0.7811 -0.5424  0.5722
  173DG      H6 3962   4.229   2.094   3.343  0.3446  1.9701 -0.0749
  173DG      H7 3963   4.335   1.983   3.256  1.3731  0.6396 -1.9410
  173DG      H8 3964   4.395   2.075   3.389 -0.8664  0.9714  0.8858
  173DG      O9 3965   4.336   2.667   3.191 -0.3108 -0.5146 -0.3838
  173DG     O10 3966   4.363   2.185   3.210 -0.3609  0.3623  0.1627
  173DG     C11 3967   4.470   2.673   3.138 -0.3977  0.1871  0.0600
  173DG     C12 3968   4.494   2.191   3.161 -0.0525 -0.2354 -0.1872
  173DG     H13 3969   4.545   2.686   3.215  0.6522  0.8968 -1.0560
  173DG     H14 3970   4.478   2.761   3.075  0.0806  0.6648  0.7712
  173DG     H15 3971   4.525   2.107   3.099  0.7280  2.1133 -3.2820
  173DG     H16 3972   4.568   2.203   3.239  0.8572 -0.7864 -0.9530
  173DG     C17 3973   4.504   2.546   3.056 -0.0553  0.6092 -0.4615
  173DG     C18 3974   4.514   2.316   3.083 -0.1140  0.1089 -0.5967
  173DG     O19 3975   4.476   2.433   3.139  0.7207  0.2862  0.0968
  173DG     H20 3976   4.606   2.546   3.017  0.5729  2.1388  1.0750
  173DG     H21 3977   4.448   2.544   2.962  0.5585  0.4298 -0.8279
  173DG     H22 3978   4.617   2.328   3.050  0.5227  0.5190  1.4480
  173DG     H23 3979   4.454   2.297   2.994  0.4059 -0.2881 -0.8685
  174DG      C1 3980   3.513   2.826   4.076  0.4877 -0.0978  0.4416
  174DG      C2 3981   3.584   2.209   4.272 -0.7005 -0.5087  0.4331
  174DG      H3 3982   3.459   2.822   4.171  0.4816 -0.7386  0.4146
  174DG      H4 3983   3.445   2.841   3.992  0.7768 -0.1234  0.2008
  174DG      H5 3984   3.577   2.914   4.077  2.1689 -1.2500 -0.9872
  174DG      H6 3985   3.496   2.246   4.325 -1.7348 -2.7681  0.4191
  174DG      H7 3986   3.573   2.105   4.243  2.7804 -0.3634 -2.0644
  174DG      H8 3987   3.667   2.204   4.341  0.7636 -2.2092 -1.3256
  174DG      O9 3988   3.594   2.708   4.061 -0.0555  0.3796  0.0891
  174DG     O10 3989   3.607   2.297   4.165 -0.1802  0.1177  0.3839
  174DG     C11 3990   3.696   2.715   3.960  0.6196 -0.4312 -0.6848
  174DG     C12 3991   3.715   2.251   4.081  1.0028 -0.2848 -0.4978
  174DG     H13 3992   3.795   2.750   3.991  0.7856 -1.8083  0.4518
  174DG     H14 3993   3.673   2.767   3.867 -1.5547  1.1096  0.6057
  174DG     H15 3994   3.692   2.150   4.048  1.0603  0.2299 -2.1901
  174DG     H16 3995   3.808   2.250   4.138  1.6859 -1.1700 -1.5932
  174DG     C17 3996   3.717   2.576   3.907  0.4872  0.5761 -0.1659
  174DG     C18 3997   3.739   2.344   3.961 -0.3650 -0.3549  0.4846
  174DG     O19 3998   3.736   2.475   4.007 -0.5645  0.5089  0.0944
  174DG     H20 3999   3.810   2.581   3.851  0.1851 -0.6692 -0.7981
  174DG     H21 4000   3.635   2.551   3.841 -0.2862  1.5658  0.3814
  174DG     H22 4001   3.834   2.332   3.909 -0.0208  0.6068  0.8539
  174DG     H23 4002   3.661   2.333   3.887 -0.3878  0.2030  0.4182
  175DG      C1 4003   3.518   3.023   1.876 -0.3549 -0.4003 -0.8266
  175DG      C2 4004   3.961   3.381   1.710 -1.0716  0.5618 -0.2413
  175DG      H3 4005   3.520   2.915   1.887  1.4821 -0.2152  1.1835
  175DG      H4 4006   3.513   3.062   1.774  0.3547  3.3093  0.4068
  175DG      H5 4007   3.420   3.051   1.916  0.1509 -1.4481  1.2805
  175DG      H6 4008   4.048   3.337   1.662 -0.9542 -0.0762  0.5317
  175DG      H7 4009   3.909   3.428   1.626 -0.6502 -1.0855 -1.4752
  175DG      H8 4010   3.991   3.461   1.778  0.6863 -1.1991  1.1501
  175DG      O9 4011   3.633   3.077   1.935 -0.3761  0.2548 -0.1138
  175DG     O10 4012   3.892   3.279   1.769  0.0269  0.0920 -0.0332
  175DG     C11 4013   3.615   3.103   2.071 -0.3811  0.0140  0.5105
  175DG     C12 4014   3.947   3.214   1.887 -0.0365  0.0473  0.4581
  175DG     H13 4015   3.608   3.004   2.116 -0.7832 -0.6230 -0.8980
  175DG     H14 4016   3.528   3.164   2.096  0.4409  2.0904 -1.3326
  175DG     H15 4017   4.054   3.207   1.872  0.5417 -0.6183  3.8581
  175DG     H16 4018   3.907   3.112   1.891  0.8769 -0.3438 -0.1776
  175DG     C17 4019   3.732   3.183   2.126 -1.0551 -1.0462 -0.7288
  175DG     C18 4020   3.908   3.296   2.007 -0.4472  0.0723 -0.3878
  175DG     O19 4021   3.771   3.288   2.032 -0.3340  0.0314  0.2658
  175DG     H20 4022   3.816   3.116   2.143  0.6192  0.4844 -2.5247
  175DG     H21 4023   3.711   3.220   2.226  1.2346 -2.4063  0.3455
  175DG     H22 4024   3.968   3.257   2.089  1.0597 -3.0894 -2.7674
  175DG     H23 4025   3.944   3.398   1.994  0.9323  0.0262  2.3084
  176DG      C1 4026   4.283   2.983   1.650  0.3201  0.6977 -0.0054
  176DG      C2 4027   4.010   2.370   1.575  1.0388 -0.6720  0.0624
  176DG      H3 4028   4.220   3.013   1.734  0.1371  1.2048 -0.3213
  176DG      H4 4029   4.257   3.038   1.560 -1.5713 -2.1556 -1.3585
  176DG      H5 4030   4.376   3.023   1.689  0.3459  1.0263 -0.4009
  176DG      H6 4031   3.941   2.294   1.611  0.1552 -1.1105 -2.3515
  176DG      H7 4032   3.944   2.440   1.524  1.2712 -1.9642 -2.1391
  176DG      H8 4033   4.082   2.350   1.495  0.5969 -0.5631 -0.3705
  176DG      O9 4034   4.286   2.843   1.638 -0.4409  0.6523 -0.4603
  176DG     O10 4035   4.068   2.439   1.689  0.0010 -0.5242 -0.3288
  176DG     C11 4036   4.354   2.802   1.522 -0.3387  0.7933  0.6354
  176DG     C12 4037   4.194   2.386   1.721 -0.4944 -0.7295 -0.0720
  176DG     H13 4038   4.443   2.861   1.499  0.4371 -0.9144 -1.0098
  176DG     H14 4039   4.277   2.810   1.445 -0.8068 -0.8448  0.8953
  176DG     H15 4040   4.204   2.278   1.713  2.0861 -0.4623 -1.8584
  176DG     H16 4041   4.223   2.405   1.824  1.1376  3.0464 -1.0375
  176DG     C17 4042   4.396   2.664   1.571  0.0489  0.1731 -0.0591
  176DG     C18 4043   4.298   2.451   1.615 -0.2781 -0.4938  0.0945
  176DG     O19 4044   4.281   2.593   1.614  0.0835  0.6577  0.2878
  176DG     H20 4045   4.464   2.680   1.655 -1.6209  0.3624  1.3213
  176DG     H21 4046   4.439   2.608   1.488 -0.7360 -1.0633  0.3335
  176DG     H22 4047   4.399   2.431   1.652 -0.3159 -0.7056  0.0843
  176DG     H23 4048   4.288   2.411   1.515  1.7516  0.4138 -0.5357
  177DG      C1 4049   3.294   0.366   1.914 -0.2796  0.1821 -0.5456
  177DG      C2 4050   3.768   0.128   2.303 -0.4751 -0.2378 -0.6470
  177DG      H3 4051   3.293   0.399   2.018  2.1281 -0.4524 -0.2841
  177DG      H4 4052   3.198   0.365   1.862  0.4484  1.6636 -1.9953
  177DG      H5 4053   3.355   0.440   1.863  1.9838 -0.4567  1.0998
  177DG      H6 4054   3.719   0.088   2.391  0.3449 -1.2684 -0.6398
  177DG      H7 4055   3.875   0.106   2.301 -0.6992 -1.5586  0.5234
  177DG      H8 4056   3.751   0.235   2.321 -1.3386 -0.6966  1.5739
  177DG      O9 4057   3.371   0.248   1.913 -0.0015 -0.4629  0.1928
  177DG     O10 4058   3.720   0.099   2.175  0.2635  0.2352 -0.2667
  177DG     C11 4059   3.303   0.133   1.959  0.1063  0.0356 -0.1686
  177DG     C12 4060   3.717  -0.041   2.145 -0.0394 -0.3665  0.4523
  177DG     H13 4061   3.214   0.116   1.899  2.0012 -0.2161 -3.0829
  177DG     H14 4062   3.272   0.159   2.061 -1.6641  4.1208 -1.5097
  177DG     H15 4063   3.699  -0.091   2.241 -0.8904  1.0183  1.0361
  177DG     H16 4064   3.812  -0.086   2.115 -1.2928 -1.9276 -1.4922
  177DG     C17 4065   3.390   0.009   1.955 -0.1454  0.4622  0.7391
  177DG     C18 4066   3.590  -0.079   2.053 -0.8044  0.5787  0.2502
  177DG     O19 4067   3.503   0.035   2.042  0.1519 -0.2105 -0.1815
  177DG     H20 4068   3.422  -0.012   1.853  0.3803 -1.3958  1.2386
  177DG     H21 4069   3.338  -0.083   1.984 -0.2458  0.4945  0.6629
  177DG     H22 4070   3.611  -0.112   1.952  0.6274  1.3142  0.2780
  177DG     H23 4071   3.534  -0.158   2.103 -0.3163 -0.4086 -0.7288
  178DG      C1 4072   5.259   2.475   2.370  0.0414  0.1426  0.1338
  178DG      C2 4073   5.254   3.075   2.031 -0.2942  0.3817 -0.2243
  178DG      H3 4074   5.233   2.515   2.468  1.1621 -1.4679  1.1350
  178DG      H4 4075   5.317   2.384   2.386  1.9158  1.7282  3.2140
  178DG      H5 4076   5.162   2.442   2.334 -0.2936 -3.3206  3.5725
  178DG      H6 4077   5.284   3.134   1.944 -1.1899 -2.4988 -2.6473
  178DG      H7 4078   5.148   3.058   2.014  0.2832 -2.7982 -1.2783
  178DG      H8 4079   5.266   3.130   2.125 -0.6443  1.6238 -0.8760
  178DG      O9 4080   5.327   2.576   2.291  0.0046 -0.0308 -0.2811
  178DG     O10 4081   5.316   2.953   2.030  0.2015  0.0367 -0.7459
  178DG     C11 4082   5.430   2.629   2.372 -0.0389 -0.5630  0.3275
  178DG     C12 4083   5.457   2.962   2.025 -0.4184  0.1945 -0.2199
  178DG     H13 4084   5.487   2.551   2.423 -2.0801 -0.5936  2.7692
  178DG     H14 4085   5.402   2.699   2.451  0.8286  2.0676 -1.5781
  178DG     H15 4086   5.500   3.038   2.090 -0.7592 -1.7020  2.3836
  178DG     H16 4087   5.486   2.982   1.922 -1.4148 -0.9648 -0.7553
  178DG     C17 4088   5.520   2.707   2.277  0.5957  0.0094 -0.3175
  178DG     C18 4089   5.510   2.824   2.065 -0.0761  0.2270  0.0873
  178DG     O19 4090   5.446   2.786   2.186  0.4695 -0.8280 -0.0814
  178DG     H20 4091   5.586   2.634   2.230 -0.1310 -0.9806  0.1537
  178DG     H21 4092   5.592   2.766   2.333  0.4110  0.2170 -0.3004
  178DG     H22 4093   5.478   2.750   1.991  1.3725  0.0047 -0.3339
  178DG     H23 4094   5.618   2.835   2.069 -0.1166  0.3408  1.1264
  179DG      C1 4095   0.409   1.538   2.850 -0.1714 -0.1848 -0.6312
  179DG      C2 4096   0.859   1.057   2.974 -0.0458 -0.0044  0.4024
  179DG      H3 4097   0.318   1.521   2.793 -1.7062  1.8195  1.0199
  179DG      H4 4098   0.489   1.555   2.778 -0.6896  1.1100 -0.9299
  179DG      H5 4099   0.394   1.621   2.920  3.8275 -0.0847  0.3729
  179DG      H6 4100   0.866   0.955   2.935  0.9727 -0.2893  1.2868
  179DG      H7 4101   0.929   1.114   2.912  0.4433  0.2584  1.1869
  179DG      H8 4102   0.913   1.064   3.069 -0.5713  1.1580  0.6266
  179DG      O9 4103   0.458   1.432   2.927 -0.2836 -0.3554  0.1867
  179DG     O10 4104   0.726   1.103   2.993 -0.2453 -0.3398 -0.1645
  179DG     C11 4105   0.355   1.350   2.987  0.6651 -0.3676  1.1017
  179DG     C12 4106   0.638   1.009   3.065  0.4699 -0.1226 -0.1279
  179DG     H13 4107   0.281   1.319   2.913  0.2808  2.0096  0.3972
  179DG     H14 4108   0.296   1.406   3.059 -0.0239  0.9187 -0.3922
  179DG     H15 4109   0.638   1.052   3.166  0.6162  2.6937 -1.2198
  179DG     H16 4110   0.682   0.910   3.072  0.8176 -0.0208 -0.7779
  179DG     C17 4111   0.406   1.227   3.056  0.1057  0.2352 -0.0485
  179DG     C18 4112   0.503   1.010   2.999 -0.2798 -0.2123 -1.1511
  179DG     O19 4113   0.471   1.146   2.958 -0.3181 -0.5909  0.0040
  179DG     H20 4114   0.324   1.186   3.115  0.4060  0.8976  0.8442
  179DG     H21 4115   0.491   1.256   3.117 -1.0817  0.7397  1.4224
  179DG     H22 4116   0.504   0.945   2.911  1.7175  0.3897 -1.6340
  179DG     H23 4117   0.418   0.973   3.056 -1.5060  2.1394 -1.3293
  180DG      C1 4118   3.937   2.756   0.149  0.4200  0.8230 -0.2920
  180DG      C2 4119   4.126   2.831   0.478  0.8569 -0.1978 -0.0370
  180DG      H3 4120   3.980   2.856   0.161  0.5159  0.6940  0.4698
  180DG      H4 4121   3.888   2.771   0.053  0.3280 -0.4371 -0.4564
  180DG      H5 4122   4.012   2.678   0.140  1.2865  1.5757  0.2083
  180DG      H6 4123   4.183   2.918   0.512  1.4536 -0.1608 -1.1002
  180DG      H7 4124   4.185   2.743   0.504 -0.6647 -0.7452  1.8669
  180DG      H8 4125   4.115   2.847   0.371 -0.4458  0.8446  0.2298
  180DG      O9 4126   3.840   2.724   0.254 -0.0350  0.0212 -0.4316
  180DG     O10 4127   3.995   2.830   0.538  0.1537  0.3001  0.0984
  180DG     C11 4128   3.718   2.795   0.237 -0.1610  0.0267  0.1983
  180DG     C12 4129   3.909   2.941   0.507 -0.6973 -0.2879  0.9071
  180DG     H13 4130   3.651   2.756   0.161 -0.2842  3.5239 -1.7199
  180DG     H14 4131   3.745   2.899   0.218 -2.6441  0.9018  1.1426
  180DG     H15 4132   3.909   2.958   0.400 -2.3338  1.1299  1.0820
  180DG     H16 4133   3.963   3.020   0.559  2.1015  0.1273 -2.3476
  180DG     C17 4134   3.645   2.804   0.371  0.3933  0.3538  0.5350
  180DG     C18 4135   3.769   2.925   0.552 -0.0893  0.4922 -0.2009
  180DG     O19 4136   3.724   2.800   0.491  0.0655 -0.2678 -0.4768
  180DG     H20 4137   3.590   2.712   0.390 -2.2947  1.9713  1.0197
  180DG     H21 4138   3.577   2.889   0.370  1.0257  0.8616  0.1253
  180DG     H22 4139   3.757   2.902   0.658 -0.7026  1.2913 -0.0906
  180DG     H23 4140   3.698   3.005   0.530 -0.7967 -0.0004  0.2305
  181DG      C1 4141   4.868   0.937   5.047 -0.4450  0.7644  0.6694
  181DG      C2 4142   4.482   0.467   5.375  0.9047 -0.5216 -0.3097
  181DG      H3 4143   4.921   0.847   5.017  0.1126  1.1823  0.3804
  181DG      H4 4144   4.937   1.021   5.038  0.3543  0.1349  0.7836
  181DG      H5 4145   4.789   0.948   4.973 -0.5171 -0.9390  0.4618
  181DG      H6 4146   4.465   0.447   5.481 -1.3938 -1.6792 -0.8438
  181DG      H7 4147   4.387   0.423   5.348  0.8645 -1.3095  1.0618
  181DG      H8 4148   4.555   0.400   5.330 -1.5187 -1.2987 -3.4319
  181DG      O9 4149   4.780   0.929   5.156 -0.3515  0.9490 -0.1584
  181DG     O10 4150   4.501   0.606   5.325 -0.4016  0.1026  0.3227
  181DG     C11 4151   4.708   1.046   5.185 -0.3969  0.3048  0.9011
  181DG     C12 4152   4.396   0.701   5.338  0.0036  0.6955  0.1635
  181DG     H13 4153   4.656   1.084   5.098  0.9907  0.7840  0.2496
  181DG     H14 4154   4.779   1.124   5.215  1.2931 -0.2915 -1.3283
  181DG     H15 4155   4.331   0.668   5.419 -0.4662 -2.3119 -1.2760
  181DG     H16 4156   4.328   0.683   5.255  0.8474 -1.8782 -0.0514
  181DG     C17 4157   4.602   1.019   5.296 -0.2901  0.1011 -0.2460
  181DG     C18 4158   4.446   0.846   5.358 -0.1751 -0.2986 -0.7622
  181DG     O19 4159   4.545   0.888   5.264  0.3190  0.2947 -0.2292
  181DG     H20 4160   4.531   1.102   5.300 -2.4057 -1.4208 -2.7207
  181DG     H21 4161   4.648   1.025   5.395  0.0061  0.6065 -0.4085
  181DG     H22 4162   4.362   0.915   5.348  0.4485  0.5828 -0.1223
  181DG     H23 4163   4.479   0.859   5.462  1.2256 -1.1446 -1.0801
  182DG      C1 4164   3.122   2.259   4.566 -0.0761 -0.0203 -0.1068
  182DG      C2 4165   2.490   2.342   4.768  0.2804 -0.1412 -0.2228
  182DG      H3 4166   3.164   2.159   4.573 -0.2741 -0.1511 -0.6838
  182DG      H4 4167   3.135   2.300   4.666 -2.3797 -0.4998  0.4567
  182DG      H5 4168   3.180   2.319   4.496  0.1999 -2.2053 -1.8472
  182DG      H6 4169   2.394   2.390   4.749  0.5111  0.0354 -0.9617
  182DG      H7 4170   2.469   2.245   4.812  0.0988 -0.4049 -0.8775
  182DG      H8 4171   2.526   2.412   4.843 -0.6378  0.6550 -0.4985
  182DG      O9 4172   2.983   2.261   4.530 -0.0691 -0.3977 -0.3328
  182DG     O10 4173   2.573   2.334   4.656  0.2887 -0.0493 -0.0104
  182DG     C11 4174   2.954   2.179   4.422  0.0506  0.6448  0.2713
  182DG     C12 4175   2.527   2.228   4.574  0.0482  0.6434  0.4103
  182DG     H13 4176   2.947   2.073   4.446  1.1137  0.2444 -1.0473
  182DG     H14 4177   3.035   2.183   4.349 -0.0499 -2.3154 -0.1294
  182DG     H15 4178   2.420   2.232   4.553  0.4665 -0.4797 -2.3186
  182DG     H16 4179   2.546   2.126   4.608 -3.7329 -0.5112 -0.3905
  182DG     C17 4180   2.814   2.215   4.366 -0.6491  0.3889 -0.3979
  182DG     C18 4181   2.597   2.251   4.449  0.2013  0.3714 -0.5060
  182DG     O19 4182   2.733   2.236   4.484 -0.3443  0.3311 -0.3183
  182DG     H20 4183   2.773   2.134   4.306 -0.2856  0.1265 -0.2919
  182DG     H21 4184   2.812   2.301   4.299 -0.4622  0.8994  0.2461
  182DG     H22 4185   2.563   2.195   4.361  0.5816 -0.3335 -0.2177
  182DG     H23 4186   2.586   2.356   4.422 -0.6604 -0.0864 -2.0902
  183DG      C1 4187   4.000   1.522   0.079  0.4186  1.0416  0.5476
  183DG      C2 4188   4.562   1.424  -0.248 -0.5817 -0.5994 -0.3887
  183DG      H3 4189   4.050   1.459   0.153  1.2515  0.1057 -0.7625
  183DG      H4 4190   3.945   1.461   0.007 -0.7861  1.8413  0.7692
  183DG      H5 4191   3.923   1.588   0.119  1.6981  2.8512  0.1078
  183DG      H6 4192   4.536   1.336  -0.307  0.4222 -1.5002  0.4716
  183DG      H7 4193   4.651   1.471  -0.291  0.0457 -0.1581  1.3200
  183DG      H8 4194   4.592   1.386  -0.151 -0.0199 -1.9474 -1.0623
  183DG      O9 4195   4.087   1.594  -0.004  0.2766 -0.4299  0.0747
  183DG     O10 4196   4.459   1.514  -0.236 -0.7142 -0.1013 -0.0866
  183DG     C11 4197   4.038   1.699  -0.095 -0.5433  0.3850  0.3695
  183DG     C12 4198   4.420   1.569  -0.364  0.5626  0.4706 -0.1801
  183DG     H13 4199   3.977   1.774  -0.044 -2.0324 -0.9191  0.5812
  183DG     H14 4200   3.967   1.662  -0.168 -1.1246 -0.1047  1.1652
  183DG     H15 4201   4.366   1.500  -0.429  0.7267  0.0548  0.1267
  183DG     H16 4202   4.515   1.605  -0.405  0.6698 -0.3792 -0.7028
  183DG     C17 4203   4.159   1.754  -0.171 -0.3645  0.2992  0.3301
  183DG     C18 4204   4.332   1.696  -0.324 -0.2751  0.3896 -0.2029
  183DG     O19 4205   4.231   1.650  -0.234  0.1209  0.2136  0.2796
  183DG     H20 4206   4.227   1.802  -0.100 -1.5959  0.4660  1.4304
  183DG     H21 4207   4.123   1.827  -0.243  0.1182 -2.0690 -2.4472
  183DG     H22 4208   4.406   1.761  -0.278  0.6692 -0.5255 -0.3756
  183DG     H23 4209   4.282   1.743  -0.408 -0.3838  2.4897  0.9850
  184DG      C1 4210   4.953   2.902   2.236 -0.3576  0.1280  0.2205
  184DG      C2 4211   5.482   2.460   1.936  0.4433 -0.0325 -0.0610
  184DG      H3 4212   4.990   2.995   2.192 -1.5467  0.0655 -0.9545
  184DG      H4 4213   5.008   2.890   2.330  3.0419 -1.9245 -1.8141
  184DG      H5 4214   4.847   2.918   2.257 -0.8443 -0.6757 -1.4643
  184DG      H6 4215   5.479   2.385   1.856 -0.1323 -1.9668  1.6695
  184DG      H7 4216   5.541   2.546   1.904 -1.8545  1.2648 -1.0380
  184DG      H8 4217   5.532   2.411   2.019  1.0187 -0.2202 -0.5053
  184DG      O9 4218   4.973   2.782   2.168 -0.6152  0.5561 -0.0194
  184DG     O10 4219   5.347   2.504   1.959 -0.0231  0.7530  0.4977
  184DG     C11 4220   4.944   2.667   2.240 -0.2091 -0.4666  0.3294
  184DG     C12 4221   5.245   2.397   1.978 -0.7436  0.0352  0.0699
  184DG     H13 4222   4.851   2.676   2.295  0.6918  0.5075  1.7527
  184DG     H14 4223   5.026   2.654   2.311  0.1083  1.3040  0.3123
  184DG     H15 4224   5.281   2.350   2.070  2.6220  3.2817  0.6678
  184DG     H16 4225   5.275   2.315   1.911 -0.5717 -2.2083  2.7199
  184DG     C17 4226   4.945   2.549   2.134  0.6561  0.5266  0.1731
  184DG     C18 4227   5.098   2.439   1.989 -0.5986  0.3178  0.0701
  184DG     O19 4228   5.078   2.537   2.091 -0.4733 -0.3408 -0.4894
  184DG     H20 4229   4.865   2.561   2.061  1.2252  2.2439 -0.2164
  184DG     H21 4230   4.916   2.456   2.184  0.7526 -0.1877 -1.0458
  184DG     H22 4231   5.071   2.481   1.892 -0.2105  1.8506  0.6050
  184DG     H23 4232   5.029   2.357   2.010 -1.5692  1.0442 -0.2368
  185DG      C1 4233   1.524   0.043   2.800 -0.2512  0.0056  0.2031
  185DG      C2 4234   1.752   0.273   2.195 -0.6574 -0.0655 -0.7287
  185DG      H3 4235   1.471  -0.041   2.755  0.4357 -1.0574  1.3470
  185DG      H4 4236   1.471   0.064   2.893 -0.7615 -1.6368  0.3118
  185DG      H5 4237   1.630   0.026   2.818  0.2818  2.3924 -0.3519
  185DG      H6 4238   1.845   0.267   2.250 -1.2728 -1.8734  0.1899
  185DG      H7 4239   1.766   0.179   2.141  2.9168  0.3814 -0.8116
  185DG      H8 4240   1.750   0.354   2.121 -0.7067  0.5722 -0.0407
  185DG      O9 4241   1.513   0.150   2.705  0.0333 -0.8698 -0.4652
  185DG     O10 4242   1.649   0.288   2.289  0.0383  0.5638  0.3896
  185DG     C11 4243   1.380   0.196   2.677 -0.2761  0.1257  0.0420
  185DG     C12 4244   1.518   0.269   2.236 -0.4268 -0.2919  0.0309
  185DG     H13 4245   1.327   0.220   2.769 -0.3429  1.5880 -0.3490
  185DG     H14 4246   1.326   0.120   2.621  0.1893  1.3666 -2.1900
  185DG     H15 4247   1.488   0.165   2.225 -1.4292  0.0416 -0.5488
  185DG     H16 4248   1.504   0.315   2.138  1.6226 -1.5804 -0.9241
  185DG     C17 4249   1.385   0.312   2.578 -0.2696 -0.0132 -0.2567
  185DG     C18 4250   1.428   0.340   2.339 -0.4350 -0.1075 -0.4651
  185DG     O19 4251   1.451   0.263   2.461 -0.2370  0.1400 -0.5874
  185DG     H20 4252   1.435   0.398   2.623  2.4546 -2.1519  1.1480
  185DG     H21 4253   1.284   0.334   2.543  1.0007  1.5189 -3.3798
  185DG     H22 4254   1.451   0.444   2.357 -0.5217 -0.0514 -0.6759
  185DG     H23 4255   1.323   0.327   2.313 -0.7729  0.0693  0.7551
  186DG      C1 4256   1.811   2.200   2.985 -0.1088  0.3444  0.1817
  186DG      C2 4257   1.353   1.711   2.799  0.0169 -0.2534 -0.1004
  186DG      H3 4258   1.802   2.144   3.078 -1.2191 -0.1680 -0.2221
  186DG      H4 4259   1.750   2.289   2.998  0.7173  1.5894 -3.4739
  186DG      H5 4260   1.910   2.237   2.959 -0.5177  0.7428 -0.8341
  186DG      H6 4261   1.451   1.705   2.847  0.2241 -0.7615 -0.5699
  186DG      H7 4262   1.261   1.716   2.857  0.0847 -1.2486  0.1141
  186DG      H8 4263   1.340   1.636   2.721  2.5634 -0.4932 -0.3735
  186DG      O9 4264   1.767   2.120   2.880 -0.1327  0.3359 -0.2061
  186DG     O10 4265   1.354   1.833   2.724 -0.1008  0.1598 -0.4608
  186DG     C11 4266   1.803   1.979   2.896  0.8908 -0.2532  0.0996
  186DG     C12 4267   1.434   1.833   2.604  0.0528  0.5814  0.9251
  186DG     H13 4268   1.754   1.937   2.984  0.1372 -0.5668 -0.4542
  186DG     H14 4269   1.909   1.956   2.904  0.7518 -1.1909 -0.5550
  186DG     H15 4270   1.410   1.928   2.556 -0.0834  1.6025  2.9069
  186DG     H16 4271   1.396   1.754   2.539 -0.0314  1.6730 -0.3977
  186DG     C17 4272   1.758   1.908   2.770 -0.0955  0.3222  0.0620
  186DG     C18 4273   1.588   1.833   2.621  0.2093  0.1158  0.1718
  186DG     O19 4274   1.627   1.910   2.734  0.2357 -0.4283 -0.2449
  186DG     H20 4275   1.791   1.804   2.771 -1.6217 -0.1863 -0.1336
  186DG     H21 4276   1.805   1.965   2.690  0.0356  0.3650  0.1706
  186DG     H22 4277   1.616   1.729   2.634 -0.8651 -0.2350 -0.2108
  186DG     H23 4278   1.638   1.856   2.527 -0.7157 -2.5362 -1.0706
  187DG      C1 4279   4.922   4.999   4.425  0.9490 -0.7201 -0.7438
  187DG      C2 4280   4.835   5.274   5.084  0.2358  0.1257 -0.0561
  187DG      H3 4281   4.814   4.985   4.437  0.4607  2.7688 -0.1435
  187DG      H4 4282   4.965   4.901   4.447  1.8142  0.0121  0.9984
  187DG      H5 4283   4.953   5.039   4.328  0.6301  1.2798 -0.0610
  187DG      H6 4284   4.857   5.259   5.189 -0.5104 -0.2194  0.0598
  187DG      H7 4285   4.816   5.378   5.056  1.0486  0.0289 -1.0374
  187DG      H8 4286   4.740   5.222   5.073 -0.3419  0.8782  1.1498
  187DG      O9 4287   4.966   5.081   4.533  0.6754  0.0860 -0.3064
  187DG     O10 4288   4.920   5.208   4.994 -0.2931  0.1976  0.2354
  187DG     C11 4289   5.104   5.113   4.528 -0.3640  0.2887 -0.0693
  187DG     C12 4290   5.052   5.263   4.991  0.5134 -0.0930  0.4267
  187DG     H13 4291   5.131   5.208   4.482  1.0745 -0.0102  0.1122
  187DG     H14 4292   5.164   5.039   4.473 -2.3438 -2.0915  0.7954
  187DG     H15 4293   5.091   5.241   5.090 -0.6887  0.0757  0.9457
  187DG     H16 4294   5.055   5.372   4.987 -0.4758 -0.0570  0.5826
  187DG     C17 4295   5.156   5.113   4.667  0.2769 -0.3721 -0.0211
  187DG     C18 4296   5.140   5.184   4.892  0.1642  0.3293 -0.2475
  187DG     O19 4297   5.081   5.193   4.760 -0.1200 -0.0977 -0.0473
  187DG     H20 4298   5.258   5.152   4.657  0.1842 -0.3264 -0.8790
  187DG     H21 4299   5.163   5.011   4.704  0.6155 -0.0747  0.7817
  187DG     H22 4300   5.237   5.234   4.892  1.6927 -1.9842  4.8921
  187DG     H23 4301   5.147   5.079   4.920 -1.6041  0.1324 -0.4258
  188DG      C1 4302   0.580   4.848   4.536  0.3663  0.0935  0.3461
  188DG      C2 4303   0.125   5.102   4.982  1.0411  0.5074  0.2084
  188DG      H3 4304   0.588   4.816   4.432  1.6529  0.6122  0.2594
  188DG      H4 4305   0.601   4.769   4.608  0.5837  0.4284  0.6559
  188DG      H5 4306   0.659   4.919   4.559 -0.6258  1.6727 -0.8643
  188DG      H6 4307   0.200   5.055   5.046  1.7450  0.4371 -0.6604
  188DG      H7 4308   0.133   5.210   4.997 -2.1950  0.9823 -0.7223
  188DG      H8 4309   0.027   5.070   5.017  0.2127  1.8687 -0.8035
  188DG      O9 4310   0.447   4.902   4.561  0.1180  0.3386  0.8798
  188DG     O10 4311   0.159   5.055   4.849  0.4387 -0.4867 -0.4533
  188DG     C11 4312   0.401   4.972   4.450 -0.8770 -0.5487  1.0099
  188DG     C12 4313   0.064   5.102   4.756  0.3260  0.4536 -0.1826
  188DG     H13 4314   0.431   4.941   4.350  2.0320  2.5551  0.7490
  188DG     H14 4315   0.439   5.074   4.446 -0.5961 -0.6655 -2.5834
  188DG     H15 4316   0.070   5.210   4.740  2.0692  0.3664 -0.3447
  188DG     H16 4317  -0.035   5.083   4.798  0.3198  1.7861  0.4455
  188DG     C17 4318   0.252   4.987   4.463 -0.6477 -0.0428 -0.1624
  188DG     C18 4319   0.089   5.038   4.616  0.9745  0.4204 -0.3848
  188DG     O19 4320   0.233   5.029   4.599 -0.0946  0.1080  0.0915
  188DG     H20 4321   0.203   4.893   4.439  0.9211 -1.2693  1.2412
  188DG     H21 4322   0.217   5.062   4.392  1.1501 -0.2634 -1.3759
  188DG     H22 4323   0.046   4.938   4.612 -0.3144  0.9667 -0.5329
  188DG     H23 4324   0.043   5.085   4.529 -0.9120  0.4638  0.5946
  189DG      C1 4325   2.182   0.883   3.573  0.5587  0.9719  0.4645
  189DG      C2 4326   2.020   1.141   2.956  0.0218 -0.6990  0.3722
  189DG      H3 4327   2.165   0.985   3.606 -1.2567  1.6296 -2.2139
  189DG      H4 4328   2.268   0.840   3.625  0.3098 -0.6367 -0.3860
  189DG      H5 4329   2.096   0.821   3.598  0.5827  1.1537  1.0073
  189DG      H6 4330   2.128   1.124   2.955  0.6482  2.5312 -1.2746
  189DG      H7 4331   1.991   1.140   2.851  0.9539  1.4814  0.0240
  189DG      H8 4332   2.008   1.239   3.001 -0.6583 -0.9453  0.7413
  189DG      O9 4333   2.197   0.891   3.432  0.7122 -0.4323  0.0438
  189DG     O10 4334   1.955   1.046   3.040 -0.5642 -0.5410 -0.2426
  189DG     C11 4335   2.229   0.767   3.365 -0.0468  0.3833 -0.2637
  189DG     C12 4336   1.939   0.917   2.989 -0.8337  0.7558  0.2486
  189DG     H13 4337   2.166   0.681   3.388  0.9793 -0.4854 -0.6063
  189DG     H14 4338   2.335   0.745   3.383  0.2004  2.0777  0.5267
  189DG     H15 4339   1.918   0.919   2.882 -0.6656 -2.0335  0.0837
  189DG     H16 4340   1.852   0.864   3.029  1.7526 -3.2710  1.2439
  189DG     C17 4341   2.215   0.785   3.209 -0.6339  0.2773  0.3388
  189DG     C18 4342   2.067   0.835   3.030 -0.5478 -0.5199 -0.0752
  189DG     O19 4343   2.100   0.847   3.166 -0.6155  0.0957  0.0893
  189DG     H20 4344   2.217   0.687   3.162 -1.2407  0.6834 -0.5854
  189DG     H21 4345   2.294   0.854   3.178 -1.2406  0.4734 -0.8593
  189DG     H22 4346   2.068   0.732   2.994  0.8993 -0.2264 -0.9719
  189DG     H23 4347   2.142   0.889   2.973 -2.3110  0.0785 -1.9434
  190DG      C1 4348   2.446   4.769   4.345  0.6238  0.0969  0.1610
  190DG      C2 4349   1.902   4.438   4.458 -0.2131  0.9854 -0.4653
  190DG      H3 4350   2.383   4.851   4.377 -0.6336 -0.4670 -0.8089
  190DG      H4 4351   2.430   4.751   4.239 -1.1174 -2.4089  0.7551
  190DG      H5 4352   2.551   4.798   4.355  1.1297 -0.0223 -3.6363
  190DG      H6 4353   1.847   4.345   4.458 -1.4562  1.6722 -2.3649
  190DG      H7 4354   1.824   4.512   4.475  0.0948  1.2879 -0.3319
  190DG      H8 4355   1.946   4.445   4.359  0.6651 -1.8632 -0.3436
  190DG      O9 4356   2.445   4.643   4.416  0.3074 -0.3517 -0.5627
  190DG     O10 4357   2.003   4.453   4.556 -0.5531 -0.0726 -0.8870
  190DG     C11 4358   2.454   4.666   4.559 -0.0699 -0.7054  0.2826
  190DG     C12 4359   2.103   4.356   4.552 -0.4318  0.2320  0.2187
  190DG     H13 4360   2.381   4.744   4.580 -1.3966 -2.2020  1.5756
  190DG     H14 4361   2.554   4.692   4.591  0.1916  0.9822 -1.7294
  190DG     H15 4362   2.135   4.342   4.448  2.6426 -2.5870  1.3972
  190DG     H16 4363   2.056   4.263   4.582  0.1940  0.6737  2.7775
  190DG     C17 4364   2.407   4.539   4.634 -0.1875 -0.3475 -0.7819
  190DG     C18 4365   2.221   4.395   4.642 -0.2914  0.1930  0.2806
  190DG     O19 4366   2.277   4.506   4.582 -0.6795 -0.8756  0.0271
  190DG     H20 4367   2.410   4.569   4.739  2.6301  0.1707 -0.9153
  190DG     H21 4368   2.483   4.466   4.606  1.4828  1.4364 -1.1528
  190DG     H22 4369   2.198   4.408   4.748  1.8058 -0.7240  0.9048
  190DG     H23 4370   2.294   4.314   4.640 -1.1380 -0.5742 -1.1416
  191DG      C1 4371   5.113   0.944   1.016  0.8573  0.0874 -0.4400
  191DG      C2 4372   4.978   1.379   1.504  0.3168 -0.5643 -0.2246
  191DG      H3 4373   5.144   1.035   0.965  1.6938  1.2506  1.9925
  191DG      H4 4374   5.041   0.900   0.947  2.2660  0.4075 -2.1847
  191DG      H5 4375   5.194   0.873   1.032  0.4789 -0.0581  1.0602
  191DG      H6 4376   5.010   1.436   1.417  1.4014  0.1263  0.6050
  191DG      H7 4377   4.915   1.437   1.571  1.6489  0.6505  0.0362
  191DG      H8 4378   5.064   1.350   1.565  1.1338  2.2617  0.0876
  191DG      O9 4379   5.054   0.971   1.139  0.6366  0.2901  0.0547
  191DG     O10 4380   4.930   1.254   1.452 -0.0150 -0.3818 -0.3933
  191DG     C11 4381   5.029   0.854   1.223  0.4686 -0.0773  0.8026
  191DG     C12 4382   4.887   1.166   1.551  0.4560 -0.1306  0.0083
  191DG     H13 4383   5.122   0.823   1.270 -1.1663 -1.4842  3.3872
  191DG     H14 4384   4.985   0.771   1.168 -1.1860  0.1317  1.7265
  191DG     H15 4385   4.801   1.207   1.605  0.9888  1.4976 -0.3234
  191DG     H16 4386   4.963   1.147   1.627  0.1095  0.5141  0.5319
  191DG     C17 4387   4.925   0.873   1.335 -0.1138 -0.0968 -0.4715
  191DG     C18 4388   4.849   1.034   1.486  0.1730 -0.0460  0.4438
  191DG     O19 4389   4.959   0.977   1.418  0.0292 -0.3257 -0.0058
  191DG     H20 4390   4.912   0.783   1.395 -2.7659 -1.3995 -2.7630
  191DG     H21 4391   4.826   0.889   1.291 -0.8131  1.6798  1.5339
  191DG     H22 4392   4.814   0.957   1.556  0.0882 -0.8453 -0.4625
  191DG     H23 4393   4.768   1.048   1.414 -0.3108  0.5900  1.0913
  192DG      C1 4394   1.239   5.117   1.000  0.4492 -0.0820 -0.1496
  192DG      C2 4395   1.251   5.811   1.018  0.2213 -0.4901  0.1151
  192DG      H3 4396   1.194   5.083   1.094 -0.4443 -0.7501 -0.8061
  192DG      H4 4397   1.288   5.035   0.948 -2.7300 -2.2179 -0.0661
  192DG      H5 4398   1.152   5.138   0.938 -0.2144 -1.4376  0.2817
  192DG      H6 4399   1.212   5.820   0.917  2.3072  0.1720 -0.6655
  192DG      H7 4400   1.171   5.800   1.092  0.5905 -2.2630  0.2978
  192DG      H8 4401   1.315   5.891   1.054 -0.8224 -1.4806  4.8450
  192DG      O9 4402   1.325   5.229   1.008  0.3780 -0.2320  0.1624
  192DG     O10 4403   1.330   5.687   1.015  0.0016 -0.3726 -0.2560
  192DG     C11 4404   1.442   5.214   0.929 -0.3021  0.4050  0.0019
  192DG     C12 4405   1.457   5.704   0.963 -0.1770 -0.5496  0.1853
  192DG     H13 4406   1.395   5.206   0.831 -0.3762 -0.6521  0.1129
  192DG     H14 4407   1.490   5.120   0.956 -1.0051  0.6303  2.2611
  192DG     H15 4408   1.508   5.790   1.007 -1.6263 -0.0474  0.9540
  192DG     H16 4409   1.455   5.726   0.856  0.9692  0.8950  0.4362
  192DG     C17 4410   1.523   5.345   0.938 -0.1241 -0.0703 -0.1721
  192DG     C18 4411   1.539   5.573   0.982  0.4850  0.5918  0.4882
  192DG     O19 4412   1.459   5.469   0.939  0.2436 -0.8344  0.1913
  192DG     H20 4413   1.612   5.348   0.875  1.1779 -1.7719  1.4821
  192DG     H21 4414   1.573   5.338   1.035 -0.8503 -0.5137  0.1826
  192DG     H22 4415   1.633   5.567   0.927  0.0582 -0.1301 -0.1716
  192DG     H23 4416   1.569   5.551   1.085 -0.5118  1.5869  1.0080
  193DG      C1 4417   4.087   5.185   0.595  0.3327  0.0702 -0.1777
  193DG      C2 4418   4.473   5.867   0.781  0.1682 -0.0821 -0.2527
  193DG      H3 4419   4.173   5.166   0.660 -0.1160  0.1615  0.4500
  193DG      H4 4420   4.097   5.127   0.504  0.9153  0.7022 -0.5283
  193DG      H5 4421   3.990   5.164   0.639  0.5340 -1.0138 -0.2253
  193DG      H6 4422   4.479   5.964   0.733  0.4257  1.4365  2.6667
  193DG      H7 4423   4.465   5.880   0.889  2.3720 -0.7020  0.0375
  193DG      H8 4424   4.562   5.810   0.752 -0.2257 -0.5490 -0.5761
  193DG      O9 4425   4.088   5.321   0.571  0.1656 -0.2343 -0.0674
  193DG     O10 4426   4.351   5.806   0.743 -0.5550  0.1750  0.0821
  193DG     C11 4427   4.093   5.402   0.683  0.0136  0.2169 -0.1153
  193DG     C12 4428   4.330   5.799   0.602  0.9009 -0.4749  0.5089
  193DG     H13 4429   4.182   5.380   0.743 -1.1194 -2.6034  0.7187
  193DG     H14 4430   4.022   5.350   0.747  1.8090 -1.9633  0.2711
  193DG     H15 4431   4.408   5.738   0.557  1.6071 -0.6228  1.8718
  193DG     H16 4432   4.337   5.897   0.555  3.0848 -0.2081  1.2634
  193DG     C17 4433   4.073   5.553   0.660 -0.2902  0.1136  0.2228
  193DG     C18 4434   4.192   5.745   0.574 -0.6302  0.8692 -0.3563
  193DG     O19 4435   4.194   5.611   0.617  0.4432  0.5207  0.4995
  193DG     H20 4436   4.036   5.600   0.752 -1.2362 -2.0686  1.0299
  193DG     H21 4437   4.000   5.575   0.583  1.5106  0.6257 -1.4099
  193DG     H22 4438   4.109   5.805   0.610 -0.6949  0.4800  0.1496
  193DG     H23 4439   4.181   5.739   0.465 -4.2851  0.6609 -0.0806
  194DG      C1 4440   2.248   4.713   3.451 -0.2085  0.1661 -0.1221
  194DG      C2 4441   2.003   4.171   3.258 -0.3011  0.2558  0.0026
  194DG      H3 4442   2.257   4.749   3.553 -0.3045 -3.9665  1.5590
  194DG      H4 4443   2.156   4.734   3.398  0.4887  0.5498 -1.2161
  194DG      H5 4444   2.325   4.751   3.384 -0.3691 -2.0430 -1.6542
  194DG      H6 4445   1.965   4.226   3.172 -1.5707 -0.6610 -0.0512
  194DG      H7 4446   2.014   4.072   3.213 -1.0863  0.2651 -0.2223
  194DG      H8 4447   1.937   4.166   3.344 -0.6721  0.0309 -0.2933
  194DG      O9 4448   2.251   4.571   3.461 -0.4755  0.2906  0.0132
  194DG     O10 4449   2.131   4.219   3.304 -0.0305 -0.5574  0.2924
  194DG     C11 4450   2.321   4.520   3.573  0.4229 -0.7787  1.1008
  194DG     C12 4451   2.183   4.144   3.406  0.1592 -0.0080 -0.0071
  194DG     H13 4452   2.271   4.561   3.661 -0.6808 -0.0186  0.1568
  194DG     H14 4453   2.425   4.552   3.564 -0.0062  1.1167  2.3350
  194DG     H15 4454   2.193   4.037   3.384  0.9939  0.4606 -2.1700
  194DG     H16 4455   2.115   4.161   3.489  0.4092 -1.5824  0.5461
  194DG     C17 4456   2.313   4.370   3.582  0.3154 -0.3940 -0.3806
  194DG     C18 4457   2.324   4.183   3.446 -0.0601 -0.6829 -0.3497
  194DG     O19 4458   2.345   4.319   3.455  0.6575 -0.3704  0.1288
  194DG     H20 4459   2.212   4.346   3.615  0.5447 -0.1213  0.5576
  194DG     H21 4460   2.372   4.335   3.667  0.5635  1.2953  0.1889
  194DG     H22 4461   2.336   4.118   3.532  1.3508  0.1073  0.0952
  194DG     H23 4462   2.403   4.141   3.384  1.7038  0.2919  1.1318
  195THF     O1 4463   2.288   3.707   2.871  0.0875 -0.0211  0.5933
  195THF     C2 4464   2.237   3.576   2.917 -0.2269  0.5338 -0.3118
  195THF     C3 4465   2.173   3.786   2.865 -0.2599  0.1896  0.7958
  195THF     H4 4466   2.223   3.575   3.025  0.4231 -0.0841 -0.2243
  195THF     H5 4467   2.303   3.495   2.888 -1.6343 -0.2091 -1.5774
  195THF     H6 4468   2.156   3.812   2.970 -0.5759 -0.8021  1.0024
  195THF     H7 4469   2.200   3.874   2.807 -0.9113 -0.4981 -0.5772
  195THF     C8 4470   2.071   3.696   2.801  0.4142 -0.3620  0.9721
  195THF     C9 4471   2.101   3.560   2.842  0.3082  0.1436  0.2359
  195THF    H10 4472   2.080   3.698   2.692  0.0926 -1.4149  0.9161
  195THF    H11 4473   1.969   3.721   2.831 -0.1586 -0.3250 -0.8561
  195THF    H12 4474   2.024   3.510   2.902 -1.1115 -0.1772 -1.7460
  195THF    H13 4475   2.110   3.498   2.753  1.1723 -0.9613  1.0490
  196THF     O1 4476   5.444   0.069   2.361  0.0164  0.8704  0.6381
  196THF     C2 4477   5.464   0.107   2.500  0.0423  0.1452 -0.2384
  196THF     C3 4478   5.548   0.106   2.286 -0.4985 -0.7364 -0.0379
  196THF     H4 4479   5.518   0.043   2.568 -1.8044 -0.4619  0.7321
  196THF     H5 4480   5.366   0.115   2.548  0.5997 -0.5181  1.0515
  196THF     H6 4481   5.642   0.058   2.313  1.8459  2.7776 -1.1305
  196THF     H7 4482   5.539   0.105   2.177  0.1622 -1.5764 -0.0945
  196THF     C8 4483   5.558   0.246   2.333  0.6312  0.7011  0.2559
  196THF     C9 4484   5.533   0.244   2.483 -0.5521 -0.5955  0.6227
  196THF    H10 4485   5.479   0.301   2.281  0.7997  1.0506  0.3690
  196THF    H11 4486   5.650   0.291   2.298 -0.1464  0.4923 -2.2126
  196THF    H12 4487   5.634   0.265   2.519 -0.7726  0.6626  0.5532
  196THF    H13 4488   5.470   0.328   2.513  2.3611  2.2250 -0.5038
  197THF     O1 4489   2.230   0.375   2.296  0.3166 -0.0634  0.4495
  197THF     C2 4490   2.230   0.328   2.165  0.1192 -0.3700  0.2576
  197THF     C3 4491   2.292   0.279   2.377 -0.6266  0.1999 -0.0503
  197THF     H4 4492   2.204   0.415   2.104  2.2971  0.3350  0.2500
  197THF     H5 4493   2.149   0.255   2.163  2.0929 -2.6883  0.6204
  197THF     H6 4494   2.323   0.333   2.467 -0.5937  0.1257 -0.0178
  197THF     H7 4495   2.225   0.197   2.400 -0.7628  0.1918 -0.4625
  197THF     C8 4496   2.409   0.225   2.292 -0.4714  0.0103 -0.2463
  197THF     C9 4497   2.376   0.280   2.152 -0.2092  0.6496 -0.2417
  197THF    H10 4498   2.416   0.117   2.294 -0.7999  0.0023  1.0243
  197THF    H11 4499   2.505   0.261   2.330  0.1263 -1.6887 -0.0698
  197THF    H12 4500   2.448   0.358   2.130 -0.6474  1.0473 -0.2827
  197THF    H13 4501   2.390   0.200   2.079  1.1335  0.5267  0.1224
  198THF     O1 4502   0.061   1.230   2.368  0.1521 -0.1818  0.6164
  198THF     C2 4503   0.059   1.165   2.497 -0.2317 -0.5117  0.0276
  198THF     C3 4504   0.170   1.199   2.289  0.4911 -0.0035  0.2730
  198THF     H4 4505   0.016   1.065   2.485 -1.0584 -0.2424  0.7298
  198THF     H5 4506   0.010   1.210   2.583  2.1732  0.2395  1.0928
  198THF     H6 4507   0.124   1.114   2.240 -1.5548  1.2457 -0.0833
  198THF     H7 4508   0.197   1.279   2.219  0.0587  0.4967  0.6669
  198THF     C8 4509   0.278   1.166   2.385 -0.3039 -0.2175 -0.8876
  198THF     C9 4510   0.210   1.173   2.521 -0.3015  0.3878 -0.4561
  198THF    H10 4511   0.362   1.236   2.378 -2.2613  2.4279  0.4745
  198THF    H11 4512   0.318   1.065   2.375 -1.2441 -0.6928  0.0347
  198THF    H12 4513   0.238   1.095   2.591  0.4086 -0.4881 -1.6812
  198THF    H13 4514   0.248   1.263   2.571 -2.0184  0.5136  0.6993
  199THF     O1 4515   3.656   0.171   1.796  0.0246 -0.2488  0.0120
  199THF     C2 4516   3.774   0.091   1.802 -0.1403  0.1966 -0.2333
  199THF     C3 4517   3.672   0.260   1.683 -0.5241 -0.1140 -0.4568
  199THF     H4 4518   3.749   0.008   1.736 -1.0623 -0.2903  0.7006
  199THF     H5 4519   3.792   0.052   1.902 -0.1384  0.9297  0.0586
  199THF     H6 4520   3.664   0.202   1.590  0.6433 -0.8531 -0.1188
  199THF     H7 4521   3.600   0.341   1.673 -1.2041 -0.8660 -2.2046
  199THF     C8 4522   3.818   0.297   1.697 -0.1302 -0.7858 -0.1421
  199THF     C9 4523   3.890   0.176   1.748  0.2050  0.2748  0.2542
  199THF    H10 4524   3.833   0.378   1.767 -0.5515  0.2809 -1.2450
  199THF    H11 4525   3.870   0.333   1.609 -0.7941 -1.4838 -0.8415
  199THF    H12 4526   3.933   0.118   1.667  1.1933  0.6672  0.4704
  199THF    H13 4527   3.955   0.210   1.830 -2.9565  1.9430  2.2710
  200THF     O1 4528   0.975   0.976   0.819 -0.3166  0.4266  0.3143
  200THF     C2 4529   0.923   0.945   0.947  0.2865  0.2477 -0.2998
  200THF     C3 4530   1.023   0.851   0.767 -0.1515 -0.2676 -0.0575
  200THF     H4 4531   0.856   1.021   0.987 -0.9703 -0.8463 -0.2395
  200THF     H5 4532   1.007   0.933   1.015 -0.0216  1.1708  0.2527
  200THF     H6 4533   1.038   0.852   0.660 -0.2913  0.8267 -0.0838
  200THF     H7 4534   1.120   0.822   0.806 -0.3378  0.8714  1.3488
  200THF     C8 4535   0.913   0.748   0.797 -0.4177  0.0161 -0.1965
  200THF     C9 4536   0.852   0.806   0.929  0.3762 -0.0002 -0.4554
  200THF    H10 4537   0.953   0.648   0.813  0.4566  0.5178  0.9269
  200THF    H11 4538   0.832   0.748   0.724 -0.1358 -0.7817 -0.5225
  200THF    H12 4539   0.744   0.812   0.923  0.4800  0.6980 -2.0259
  200THF    H13 4540   0.865   0.754   1.024  1.0704  2.4888  0.9108
  201THF     O1 4541   0.171   1.555   4.438  0.1284 -0.6624  0.2718
  201THF     C2 4542   0.114   1.442   4.504 -0.1333 -0.0325  0.3872
  201THF     C3 4543   0.294   1.515   4.376  1.0405 -0.3581 -0.1080
  201THF     H4 4544   0.075   1.372   4.430  1.8566 -0.6316 -0.1581
  201THF     H5 4545   0.026   1.470   4.561  0.8479 -0.7263  2.3396
  201THF     H6 4546   0.259   1.455   4.291  1.5585  1.1956 -1.4666
  201THF     H7 4547   0.349   1.601   4.339 -0.1158  0.2370 -0.4941
  201THF     C8 4548   0.358   1.439   4.494 -0.6877  0.5360  0.1700
  201THF     C9 4549   0.241   1.383   4.569  0.6875  0.3150 -0.9414
  201THF    H10 4550   0.411   1.514   4.552 -1.9038  1.5405  0.0270
  201THF    H11 4551   0.433   1.367   4.462 -0.7019  0.9072 -0.7077
  201THF    H12 4552   0.231   1.274   4.572 -1.8484  0.3980  4.0304
  201THF    H13 4553   0.233   1.417   4.672 -1.3243  0.0157 -0.9551
  202THF     O1 4554   1.488   2.861   4.351  0.2553  0.2427  0.2388
  202THF     C2 4555   1.347   2.838   4.345 -0.1075 -0.2598 -0.2043
  202THF     C3 4556   1.543   2.760   4.264 -0.1223  0.7834  0.3953
  202THF     H4 4557   1.303   2.867   4.250  1.5094 -0.2427 -0.9929
  202THF     H5 4558   1.303   2.892   4.429 -4.4454 -0.1123 -2.3397
  202THF     H6 4559   1.525   2.781   4.159 -1.2161  0.8300  0.5830
  202THF     H7 4560   1.650   2.756   4.283 -0.5249 -1.0911  2.8485
  202THF     C8 4561   1.478   2.632   4.304 -0.5640 -0.3170 -0.4575
  202THF     C9 4562   1.344   2.688   4.362 -0.7329  0.7486  0.4162
  202THF    H10 4563   1.539   2.596   4.386  2.2411  0.7959 -1.9315
  202THF    H11 4564   1.474   2.560   4.223 -2.8360  0.3991 -1.0708
  202THF    H12 4565   1.272   2.639   4.296 -0.1082 -2.7305  2.0651
  202THF    H13 4566   1.326   2.659   4.465 -0.8836 -0.7255 -0.0073
  203THF     O1 4567   3.566   3.138   4.299 -0.0134  0.1338 -0.5482
  203THF     C2 4568   3.520   3.192   4.424 -0.4158  0.4424 -0.3582
  203THF     C3 4569   3.680   3.057   4.325  0.4679  0.1289  0.2747
  203THF     H4 4570   3.422   3.239   4.416  0.0291  1.3619 -0.5408
  203THF     H5 4571   3.591   3.262   4.469  2.5053 -0.4274 -3.2565
  203THF     H6 4572   3.727   2.999   4.245  0.0591  0.8099 -0.4760
  203THF     H7 4573   3.760   3.131   4.333  1.4083 -0.6722 -1.1344
  203THF     C8 4574   3.643   2.985   4.459 -0.0960  0.6821 -0.7764
  203THF     C9 4575   3.535   3.068   4.517  0.3892 -0.1812 -0.3847
  203THF    H10 4576   3.732   2.989   4.522 -1.8198  1.4028  1.7543
  203THF    H11 4577   3.603   2.887   4.433  1.4116  0.0856 -0.9641
  203THF    H12 4578   3.445   3.009   4.502  1.2038 -1.6056  0.1531
  203THF    H13 4579   3.552   3.096   4.621  0.3391  1.7731 -0.8567
  204THF     O1 4580   4.069   3.500   1.316 -0.1177  0.6703 -0.1850
  204THF     C2 4581   4.036   3.364   1.347  0.4053 -0.5927  0.9432
  204THF     C3 4582   3.978   3.544   1.217  0.5573 -0.4043 -0.8523
  204THF     H4 4583   3.961   3.345   1.423 -0.3230  1.0100  0.6784
  204THF     H5 4584   4.123   3.311   1.386  1.8827  0.1022 -1.2262
  204THF     H6 4585   3.905   3.587   1.286  0.0267 -0.1627 -1.5545
  204THF     H7 4586   4.022   3.627   1.162  2.5252  0.8538  2.3018
  204THF     C8 4587   3.925   3.431   1.141 -0.2469  0.0565 -0.2413
  204THF     C9 4588   3.991   3.307   1.208 -0.0438  0.2743 -0.8040
  204THF    H10 4589   3.955   3.442   1.037  0.4964 -1.5391 -0.2353
  204THF    H11 4590   3.816   3.426   1.140 -0.4475  0.2737  3.7094
  204THF    H12 4591   3.923   3.223   1.223  1.2983 -0.7290 -0.1063
  204THF    H13 4592   4.071   3.277   1.140 -0.0582 -1.3659 -0.1455
  205THF     O1 4593   0.711   3.868   2.911  0.1006 -0.1615 -0.0039
  205THF     C2 4594   0.661   3.758   2.839  0.3754 -0.0498  0.0293
  205THF     C3 4595   0.845   3.854   2.953 -0.0023 -0.0615  0.3394
  205THF     H4 4596   0.650   3.785   2.733 -1.5987 -0.6170  0.0505
  205THF     H5 4597   0.567   3.723   2.881 -0.2253  0.4978 -0.8256
  205THF     H6 4598   0.906   3.940   2.926  0.8776  0.3479  3.2621
  205THF     H7 4599   0.850   3.847   3.062 -2.2415 -2.0592  0.3857
  205THF     C8 4600   0.895   3.725   2.890 -1.2197  0.0667  0.1067
  205THF     C9 4601   0.763   3.652   2.856  0.5006  0.6374  0.3017
  205THF    H10 4602   0.959   3.665   2.956 -2.6888 -0.8556  0.7415
  205THF    H11 4603   0.955   3.756   2.804  0.8826  1.7708  2.0546
  205THF    H12 4604   0.767   3.586   2.769 -1.7215  2.4574 -1.2991
  205THF    H13 4605   0.735   3.589   2.941 -1.0358  2.1707  1.0015
  206THF     O1 4606   3.751   4.549   5.446 -0.0438  0.1239  0.2068
  206THF     C2 4607   3.826   4.434   5.416 -0.5068  0.4190 -0.0350
  206THF     C3 4608   3.843   4.631   5.520  0.6885 -0.2952  0.3838
  206THF     H4 4609   3.892   4.458   5.333  0.4394  2.2055  1.1682
  206THF     H5 4610   3.749   4.360   5.393  0.9701 -1.4059  0.6310
  206THF     H6 4611   3.930   4.649   5.456 -0.4446  0.9506 -0.8714
  206THF     H7 4612   3.805   4.728   5.553 -1.3404 -0.8439 -0.2262
  206THF     C8 4613   3.885   4.535   5.628  0.4960  1.2050  0.0560
  206THF     C9 4614   3.898   4.402   5.550 -0.2777  1.2219  0.5881
  206THF    H10 4615   3.812   4.525   5.708  0.2691 -1.7809 -0.4253
  206THF    H11 4616   3.971   4.577   5.681 -1.6632  3.5930  1.9423
  206THF    H12 4617   3.999   4.366   5.532 -0.8900 -0.2746  0.0498
  206THF    H13 4618   3.861   4.327   5.620  0.2237 -1.4633 -1.8246
  207THF     O1 4619   1.147   4.015   0.728  0.6000 -0.2864  0.0311
  207THF     C2 4620   1.280   4.020   0.761 -0.4004 -0.0849 -0.5406
  207THF     C3 4621   1.109   4.151   0.723  0.2349 -0.3568  0.0608
  207THF     H4 4622   1.325   3.931   0.719  0.5852  0.9471 -1.7456
  207THF     H5 4623   1.298   4.003   0.868 -1.4664 -0.1543 -0.3608
  207THF     H6 4624   1.013   4.161   0.671 -0.6509 -1.6234  1.3698
  207THF     H7 4625   1.094   4.187   0.825 -1.3358  0.2007 -0.3291
  207THF     C8 4626   1.223   4.213   0.642  0.1180 -1.2319 -0.7121
  207THF     C9 4627   1.342   4.151   0.705 -0.3019 -0.2856  0.1304
  207THF    H10 4628   1.230   4.321   0.650  0.3885 -1.3418  0.9706
  207THF    H11 4629   1.221   4.194   0.535 -0.7873  1.0069 -1.1479
  207THF    H12 4630   1.426   4.141   0.636 -0.0042  0.3100  0.3987
  207THF    H13 4631   1.373   4.211   0.790 -0.5522  1.1614 -0.7720
  208THF     O1 4632   1.418   3.179   5.449  0.1945 -0.0383 -0.4530
  208THF     C2 4633   1.279   3.157   5.431  0.1416 -0.1356  0.6354
  208THF     C3 4634   1.477   3.164   5.320  0.2370 -0.0222  0.1610
  208THF     H4 4635   1.228   3.247   5.396 -0.4580 -1.5112 -2.3020
  208THF     H5 4636   1.232   3.132   5.526 -0.8549  1.0234  0.4715
  208THF     H6 4637   1.466   3.262   5.274 -0.1409  1.6095  3.4075
  208THF     H7 4638   1.586   3.151   5.322  0.2081 -0.4177 -0.6860
  208THF     C8 4639   1.393   3.061   5.253  0.2990  0.8509  0.3030
  208THF     C9 4640   1.253   3.052   5.324 -0.1764 -0.2381  0.4824
  208THF    H10 4641   1.446   2.967   5.266 -0.5958  0.3872  0.7322
  208THF    H11 4642   1.379   3.090   5.149 -0.4564 -2.5117 -0.6497
  208THF    H12 4643   1.177   3.083   5.253  1.7890 -0.2071 -1.7277
  208THF    H13 4644   1.227   2.952   5.356  0.2124 -1.5438 -2.9174
  209THF     O1 4645   2.938   3.772   0.781  0.8036  0.3140  0.1119
  209THF     C2 4646   3.071   3.830   0.770  0.6750 -0.2456  0.2449
  209THF     C3 4647   2.834   3.867   0.765  0.2530 -0.1644  0.2344
  209THF     H4 4648   3.101   3.817   0.666  2.5052  0.7352  0.6101
  209THF     H5 4649   3.143   3.789   0.841  2.7222  1.7722 -0.5267
  209THF     H6 4650   2.758   3.845   0.690  0.2085 -1.2810  0.5879
  209THF     H7 4651   2.771   3.860   0.854  0.0590  0.3065  0.1405
  209THF     C8 4652   2.910   4.005   0.750  0.3773 -0.6845  0.5519
  209THF     C9 4653   3.042   3.973   0.816 -0.2790  0.2046  0.2200
  209THF    H10 4654   2.861   4.090   0.797  0.4431  0.0085 -0.5967
  209THF    H11 4655   2.931   4.031   0.647 -1.2942 -0.6191  0.1926
  209THF    H12 4656   3.112   4.035   0.760 -2.5735  1.3486 -1.5782
  209THF    H13 4657   3.038   3.992   0.923 -1.6581 -0.1617  0.2635
  210THF     O1 4658   0.426   1.436   5.116  0.2515  0.0463 -0.7149
  210THF     C2 4659   0.416   1.380   4.987  0.1319 -0.3965 -0.2387
  210THF     C3 4660   0.295   1.468   5.164 -0.0163  0.2553  0.1423
  210THF     H4 4661   0.506   1.324   4.962 -0.0768 -0.6686 -0.3905
  210THF     H5 4662   0.416   1.458   4.910  1.3190 -1.8935 -1.8264
  210THF     H6 4663   0.282   1.491   5.270 -1.6805 -0.2651  0.0752
  210THF     H7 4664   0.247   1.553   5.114  0.2701 -0.4204 -1.3360
  210THF     C8 4665   0.217   1.345   5.117  0.2570 -0.4627 -0.9585
  210THF     C9 4666   0.286   1.301   4.988 -0.0463 -0.3004  1.1261
  210THF    H10 4667   0.109   1.353   5.104  0.2384  1.5127  0.0262
  210THF    H11 4668   0.231   1.279   5.203 -1.6801 -0.2138 -0.4077
  210THF    H12 4669   0.306   1.194   4.985  0.9800 -0.0950  0.3160
  210THF    H13 4670   0.214   1.312   4.907 -0.3124  0.8694  1.4938
  211THF     O1 4671   0.307   1.853   0.422 -0.2899 -0.1607  0.1675
  211THF     C2 4672   0.173   1.834   0.454  0.2842  0.2743  0.8174
  211THF     C3 4673   0.347   1.970   0.484  0.1243 -0.3722 -0.4818
  211THF     H4 4674   0.167   1.783   0.550  1.1504 -0.5710  0.4288
  211THF     H5 4675   0.133   1.761   0.384 -1.9105  0.4367  1.8333
  211THF     H6 4676   0.390   1.939   0.579  2.6742 -1.3143 -1.8653
  211THF     H7 4677   0.433   2.021   0.442  0.3096  1.8751  2.3265
  211THF     C8 4678   0.227   2.061   0.487 -0.4195 -0.9268 -0.1340
  211THF     C9 4679   0.110   1.974   0.459  0.6224  0.3913 -0.2577
  211THF    H10 4680   0.236   2.149   0.424  0.5699 -1.6568 -1.0709
  211THF    H11 4681   0.215   2.100   0.588  1.0400 -1.1724  0.1582
  211THF    H12 4682   0.032   1.980   0.535  0.0873 -2.2316 -0.5010
  211THF    H13 4683   0.049   1.992   0.370 -2.5457  0.5215  1.7607
  212THF     O1 4684   5.452   1.591   0.650  0.9844 -0.4526  0.1136
  212THF     C2 4685   5.416   1.456   0.641  0.4599 -0.4647  0.2030
  212THF     C3 4686   5.339   1.664   0.604 -0.0473  0.3880 -1.1292
  212THF     H4 4687   5.485   1.393   0.697  2.0768  1.1102  0.1128
  212THF     H5 4688   5.419   1.429   0.536 -1.9712  1.2040 -0.3647
  212THF     H6 4689   5.351   1.770   0.623  0.5328  0.1446 -0.0449
  212THF     H7 4690   5.318   1.647   0.498  2.1429 -1.6816 -1.3171
  212THF     C8 4691   5.224   1.591   0.692 -0.0452 -0.4148 -0.5717
  212THF     C9 4692   5.273   1.446   0.698  0.4046  0.2337  0.4311
  212THF    H10 4693   5.127   1.619   0.651  0.5872  2.2356 -0.4158
  212THF    H11 4694   5.215   1.624   0.796  1.8097  0.5717 -0.6807
  212THF    H12 4695   5.286   1.425   0.805  0.0384  0.0979  0.4505
  212THF    H13 4696   5.210   1.368   0.656  3.6561 -2.2791 -0.1724
  213THF     O1 4697   1.765   3.511   4.967 -0.6236  0.0617  0.5089
  213THF     C2 4698   1.857   3.438   4.882  0.1268  0.0584  0.5550
  213THF     C3 4699   1.662   3.429   5.024  0.0067  0.0111  0.4051
  213THF     H4 4700   1.960   3.470   4.901 -0.2497  0.3951  2.1899
  213THF     H5 4701   1.836   3.440   4.775  1.1329  0.4335  0.3509
  213THF     H6 4702   1.625   3.482   5.111  0.7788 -0.0836  0.8071
  213THF     H7 4703   1.587   3.405   4.949  0.0885 -4.4352  1.4681
  213THF     C8 4704   1.743   3.302   5.048 -0.0864 -0.1940 -0.4041
  213THF     C9 4705   1.845   3.295   4.937  0.0005  0.2932 -0.3957
  213THF    H10 4706   1.681   3.212   5.039  0.5788 -0.4369 -4.3111
  213THF    H11 4707   1.802   3.309   5.139 -0.4796  0.9048 -0.2156
  213THF    H12 4708   1.935   3.260   4.988 -0.9662  0.0429  1.1965
  213THF    H13 4709   1.809   3.230   4.857 -2.2410  1.1227 -0.1196
  214THF     O1 4710   1.649   3.778   1.882 -0.0920 -0.0852  0.3911
  214THF     C2 4711   1.592   3.649   1.845  0.2536 -0.0122 -0.8498
  214THF     C3 4712   1.754   3.745   1.973  0.3080  0.2648 -0.1284
  214THF     H4 4713   1.647   3.590   1.772  0.8608 -1.6915  0.8659
  214THF     H5 4714   1.493   3.657   1.801 -0.3965  0.2599  0.5816
  214THF     H6 4715   1.844   3.718   1.917  0.2682  0.1674 -0.1457
  214THF     H7 4716   1.772   3.833   2.035 -0.0606 -0.7203  1.4248
  214THF     C8 4717   1.698   3.626   2.056 -0.3942 -0.4076 -0.6338
  214THF     C9 4718   1.580   3.576   1.980  0.2255  0.1451 -0.4187
  214THF    H10 4719   1.673   3.650   2.159  2.2807 -2.7770  0.7131
  214THF    H11 4720   1.777   3.551   2.065  0.7926  0.7068 -1.3377
  214THF    H12 4721   1.579   3.468   1.966  2.3141 -0.1066  0.9840
  214THF    H13 4722   1.489   3.606   2.033  1.0408 -0.1096  1.1873
  215THF     O1 4723   5.139   3.015   4.650  0.0422 -0.2787  0.4114
  215THF     C2 4724   5.114   3.082   4.532  0.8878 -0.1611  0.0417
  215THF     C3 4725   5.206   2.898   4.614 -0.2474  0.0378  0.1203
  215THF     H4 4726   5.200   3.142   4.502  1.9392 -2.2031 -1.2330
  215THF     H5 4727   5.029   3.150   4.546  3.5947  4.0148 -2.0280
  215THF     H6 4728   5.313   2.916   4.601 -0.3862  1.6963  1.0312
  215THF     H7 4729   5.206   2.826   4.697 -2.6419  0.6608  0.7355
  215THF     C8 4730   5.133   2.854   4.487 -0.3984  0.2202  0.0752
  215THF     C9 4731   5.085   2.983   4.428 -0.0210  0.2461 -0.3095
  215THF    H10 4732   5.053   2.781   4.505  1.1588 -1.1117  2.1733
  215THF    H11 4733   5.203   2.802   4.421 -0.9284 -1.4714  0.7736
  215THF    H12 4734   5.114   3.002   4.325  1.3743  0.4836  0.1099
  215THF    H13 4735   4.977   2.973   4.422 -0.1323  1.2513 -0.1412
  216THF     O1 4736   3.424   2.454   3.352  0.0568 -0.1521 -0.2118
  216THF     C2 4737   3.504   2.464   3.466  0.0929  0.2191 -0.1487
  216THF     C3 4738   3.464   2.332   3.287  0.1037 -0.4577 -0.1047
  216THF     H4 4739   3.468   2.536   3.539  1.4046  0.2368  0.5043
  216THF     H5 4740   3.610   2.484   3.447  0.2967  0.7991  1.4583
  216THF     H6 4741   3.396   2.312   3.205 -1.6270  1.5790  0.7471
  216THF     H7 4742   3.566   2.332   3.249  0.4394 -0.0446  0.7575
  216THF     C8 4743   3.462   2.234   3.399  0.6177  0.1817  0.5820
  216THF     C9 4744   3.490   2.317   3.521  0.3954  0.6798  0.2013
  216THF    H10 4745   3.533   2.152   3.389 -0.8759 -1.1298  0.2005
  216THF    H11 4746   3.367   2.187   3.425  1.3755 -1.5753  0.3803
  216THF    H12 4747   3.404   2.309   3.588  0.2275 -1.0052 -0.1867
  216THF    H13 4748   3.579   2.298   3.581  0.0678 -1.7123  0.0097
  217THF     O1 4749   3.790   0.763   2.278 -0.7644  0.1440 -0.1478
  217THF     C2 4750   3.866   0.863   2.208 -0.0319  0.4496  0.2419
  217THF     C3 4751   3.870   0.714   2.381 -0.2905 -0.0178 -0.1851
  217THF     H4 4752   3.803   0.913   2.134 -0.8195 -0.6342  0.1619
  217THF     H5 4753   3.953   0.826   2.153 -0.4698  0.1634 -0.2657
  217THF     H6 4754   3.800   0.683   2.458  1.1587 -0.4009  1.0274
  217THF     H7 4755   3.921   0.628   2.337 -1.2845  0.7181 -2.9942
  217THF     C8 4756   3.958   0.833   2.423  0.4247 -0.0658 -0.0600
  217THF     C9 4757   3.917   0.941   2.321  0.5289  0.0418  0.0691
  217THF    H10 4758   4.061   0.801   2.403  0.2198 -0.2108 -0.9310
  217THF    H11 4759   3.944   0.863   2.526  0.0263  2.6625 -0.8343
  217THF    H12 4760   3.842   1.007   2.363 -1.3005 -2.0324  0.2211
  217THF    H13 4761   3.998   1.007   2.288  1.1771 -0.6861  0.1712
  218THF     O1 4762   0.563   0.236   5.413 -0.0131  0.1975  0.3742
  218THF     C2 4763   0.599   0.347   5.327 -0.1240 -0.4290 -0.6326
  218THF     C3 4764   0.521   0.291   5.538  0.3411 -0.1696 -0.1197
  218THF     H4 4765   0.515   0.398   5.280 -1.3995 -0.2463  1.7206
  218THF     H5 4766   0.665   0.313   5.247 -0.6571  0.9536 -1.7043
  218THF     H6 4767   0.426   0.343   5.529 -0.1721 -0.7813  1.4323
  218THF     H7 4768   0.506   0.217   5.616 -0.4428  1.7161  1.5951
  218THF     C8 4769   0.634   0.383   5.562  0.8735 -0.2569 -0.1466
  218THF     C9 4770   0.684   0.426   5.421 -0.7840  0.0748  0.3137
  218THF    H10 4771   0.708   0.315   5.605  0.2343 -0.0404  1.3625
  218THF    H11 4772   0.620   0.468   5.629  1.2125 -2.1484  2.4997
  218THF    H12 4773   0.671   0.531   5.399 -1.2449  0.1648  0.9948
  218THF    H13 4774   0.791   0.410   5.413 -0.7123  0.1977  0.9207
  219THF     O1 4775   3.280   1.489   2.686 -0.8558 -0.2126  0.0406
  219THF     C2 4776   3.329   1.621   2.693 -0.3954  0.1351  0.1620
  219THF     C3 4777   3.321   1.431   2.558 -0.2916  0.1053 -0.2045
  219THF     H4 4778   3.429   1.629   2.734 -0.8079 -0.4643  1.3158
  219THF     H5 4779   3.266   1.679   2.761 -1.5121 -0.1649 -0.5877
  219THF     H6 4780   3.424   1.399   2.571 -0.6660 -0.8984  0.4405
  219THF     H7 4781   3.262   1.345   2.526  0.9418 -1.6717  1.9783
  219THF     C8 4782   3.318   1.545   2.463  0.7844  0.1320  0.2266
  219THF     C9 4783   3.325   1.675   2.539  0.5969  0.0273  0.3224
  219THF    H10 4784   3.230   1.526   2.402  0.2620 -1.5217  1.4427
  219THF    H11 4785   3.402   1.535   2.394  1.9331  1.4491  1.3737
  219THF    H12 4786   3.408   1.739   2.509  0.3464  0.6410  0.9057
  219THF    H13 4787   3.229   1.723   2.521  0.1586 -1.2237 -0.8149
  220THF     O1 4788   0.839   3.224   4.451 -0.0227 -0.2929  0.4015
  220THF     C2 4789   0.922   3.253   4.568  0.2543  0.0717 -0.5060
  220THF     C3 4790   0.711   3.201   4.497  0.5982 -0.2169  0.2459
  220THF     H4 4791   0.905   3.354   4.607 -0.5074 -0.0422 -0.5238
  220THF     H5 4792   1.029   3.245   4.551  0.0913 -0.7988 -1.1714
  220THF     H6 4793   0.667   3.298   4.523 -0.2484 -0.7750  0.9651
  220THF     H7 4794   0.651   3.162   4.415  0.2724  2.6294 -0.9750
  220THF     C8 4795   0.725   3.114   4.619  1.0228 -0.0980  0.5759
  220THF     C9 4796   0.865   3.155   4.669 -0.4599 -0.5709 -0.2494
  220THF    H10 4797   0.720   3.006   4.604  2.1590 -0.5590  2.9902
  220THF    H11 4798   0.637   3.140   4.677  0.6075 -0.8378  0.2854
  220THF    H12 4799   0.867   3.207   4.765  1.5054  1.2726 -1.1969
  220THF    H13 4800   0.925   3.065   4.684 -0.0849  0.0241  2.4708
  221THF     O1 4801   5.446   4.079   1.664  0.5372  0.2331 -1.5563
  221THF     C2 4802   5.475   4.198   1.743 -0.5348 -0.3156 -0.0887
  221THF     C3 4803   5.536   4.079   1.556  1.2440  0.2032  0.3095
  221THF     H4 4804   5.439   4.192   1.845  1.9997 -0.7167  0.8516
  221THF     H5 4805   5.417   4.273   1.689  0.3309  0.6502  0.2921
  221THF     H6 4806   5.538   3.985   1.501  1.0230  0.2985  0.1365
  221THF     H7 4807   5.493   4.154   1.489 -0.0342 -0.1489  0.7159
  221THF     C8 4808   5.660   4.144   1.595 -0.4024 -0.4211 -0.1715
  221THF     C9 4809   5.630   4.210   1.722 -0.1055  0.1947 -0.6186
  221THF    H10 4810   5.693   4.218   1.522 -1.5291  0.8324  0.5600
  221THF    H11 4811   5.738   4.070   1.616 -1.7409 -2.2270 -1.2821
  221THF    H12 4812   5.685   4.161   1.802  0.4733  0.6030 -0.7616
  221THF    H13 4813   5.662   4.314   1.717  0.1400  0.1644  0.1922
  222THF     O1 4814   2.868   2.863   2.689 -0.0366 -0.0955 -0.0572
  222THF     C2 4815   2.967   2.955   2.651 -1.1703 -0.5774  0.5744
  222THF     C3 4816   2.766   2.887   2.597  0.5688  0.3867 -1.1682
  222THF     H4 4817   3.062   2.912   2.685 -1.2005 -1.5523 -0.4973
  222THF     H5 4818   2.954   3.053   2.695 -2.1014 -1.9798  3.7429
  222THF     H6 4819   2.703   2.798   2.603  1.6350 -0.3321 -0.1099
  222THF     H7 4820   2.703   2.968   2.635 -0.7760 -2.4407  3.5528
  222THF     C8 4821   2.828   2.925   2.465 -0.0856 -0.5845 -0.0512
  222THF     C9 4822   2.962   2.948   2.504 -0.7808  0.2012  0.1802
  222THF    H10 4823   2.792   3.024   2.433  1.1690  0.5003  1.7199
  222THF    H11 4824   2.812   2.850   2.387 -1.0031 -1.0297  0.5456
  222THF    H12 4825   3.022   2.866   2.465  1.0863  1.4098  0.3809
  222THF    H13 4826   3.015   3.027   2.451 -0.2757  0.8354  1.5983
  223THF     O1 4827   3.403   2.127   1.094 -0.3711  0.2415 -0.3709
  223THF     C2 4828   3.408   2.107   1.234 -0.3703 -0.1536  0.0621
  223THF     C3 4829   3.427   1.992   1.046  0.5098  0.6127 -0.2177
  223THF     H4 4830   3.362   2.190   1.287 -0.1163 -0.3030  0.5280
  223THF     H5 4831   3.516   2.114   1.249 -0.0856  1.5115 -2.2704
  223THF     H6 4832   3.383   1.971   0.948  0.9125  0.7513 -0.4332
  223THF     H7 4833   3.535   1.979   1.033  0.4632  0.8060 -0.8305
  223THF     C8 4834   3.377   1.886   1.148 -0.3903  0.3005 -0.3170
  223THF     C9 4835   3.360   1.970   1.276  0.7135  0.4280  0.2755
  223THF    H10 4836   3.447   1.805   1.167 -1.7348 -0.4259  2.0545
  223THF    H11 4837   3.290   1.823   1.127 -0.2806 -0.4558  1.3613
  223THF    H12 4838   3.255   1.980   1.303  0.6271  0.2718  0.0007
  223THF    H13 4839   3.414   1.939   1.366  1.9955  0.8403 -0.3299
  224THF     O1 4840   4.275   2.727   3.734 -0.1479 -0.8172  0.2448
  224THF     C2 4841   4.134   2.736   3.764  0.8236 -0.3922 -0.6396
  224THF     C3 4842   4.339   2.718   3.863 -0.1778 -0.4084  0.1742
  224THF     H4 4843   4.078   2.718   3.672  0.8407 -2.3201 -0.2963
  224THF     H5 4844   4.112   2.834   3.808 -1.2947 -0.7743 -0.7681
  224THF     H6 4845   4.434   2.670   3.838 -0.8904 -0.9329 -1.6727
  224THF     H7 4846   4.347   2.813   3.915 -3.0319 -1.1108  2.1656
  224THF     C8 4847   4.249   2.621   3.947  0.0881  0.6964 -0.3549
  224THF     C9 4848   4.118   2.624   3.871  0.7463 -0.2000  0.1411
  224THF    H10 4849   4.233   2.653   4.050  1.7545  1.5220 -0.3247
  224THF    H11 4850   4.287   2.520   3.957 -0.6368  0.3563 -0.9514
  224THF    H12 4851   4.100   2.537   3.807  2.6237 -0.3541 -0.2586
  224THF    H13 4852   4.035   2.632   3.941  1.1882  1.5639  0.5233
  225THF     O1 4853   0.221   2.167   2.204  0.6455  0.4567  0.1392
  225THF     C2 4854   0.169   2.037   2.157 -0.1610  0.1121 -0.3092
  225THF     C3 4855   0.159   2.195   2.332  0.0449  0.3585 -0.6310
  225THF     H4 4856   0.238   1.978   2.096 -0.6496 -0.1331 -0.6261
  225THF     H5 4857   0.081   2.050   2.095 -1.1543  0.6303  1.1635
  225THF     H6 4858   0.233   2.226   2.406  0.2722  2.1475 -1.5405
  225THF     H7 4859   0.080   2.268   2.318 -2.3376 -2.2483 -1.8906
  225THF     C8 4860   0.089   2.067   2.376 -0.2597 -0.4671  0.4849
  225THF     C9 4861   0.138   1.960   2.286 -0.4347 -0.1386 -0.3591
  225THF    H10 4862  -0.016   2.081   2.351  0.5112 -1.6935 -4.2411
  225THF    H11 4863   0.108   2.031   2.477 -1.5856 -1.6068  0.3567
  225THF    H12 4864   0.225   1.902   2.315 -1.1781 -0.8539  0.4712
  225THF    H13 4865   0.053   1.898   2.257 -0.3503 -0.2798 -0.3035
  226THF     O1 4866   1.093   0.029   0.802 -0.0200 -0.2294 -0.0938
  226THF     C2 4867   1.125   0.067   0.670  0.8882 -0.6090  0.5297
  226THF     C3 4868   0.970  -0.047   0.805  0.2717 -0.8092 -0.5396
  226THF     H4 4869   1.233   0.074   0.658  0.9548 -0.3964  1.1928
  226THF     H5 4870   1.071   0.160   0.658 -0.7958 -1.6364 -0.2275
  226THF     H6 4871   0.977  -0.137   0.866 -1.0280 -1.5332 -1.4165
  226THF     H7 4872   0.890   0.014   0.846  1.6615 -0.4699  1.8384
  226THF     C8 4873   0.951  -0.083   0.661  0.0578 -0.3535 -0.7245
  226THF     C9 4874   1.077  -0.043   0.586 -0.3189 -0.3154  0.5467
  226THF    H10 4875   0.867  -0.025   0.624  0.8060 -0.1814 -2.2433
  226THF    H11 4876   0.932  -0.190   0.651 -1.9148  0.0361 -1.5816
  226THF    H12 4877   1.139  -0.132   0.582 -0.5703 -0.4508 -0.6905
  226THF    H13 4878   1.065  -0.017   0.481 -0.3006 -2.1658  0.0474
  227THF     O1 4879   4.222   0.326   2.209  0.2293 -0.4420 -0.2805
  227THF     C2 4880   4.289   0.320   2.332 -1.1416 -0.4084  0.1017
  227THF     C3 4881   4.245   0.201   2.145 -0.9314  0.7527  0.0895
  227THF     H4 4882   4.262   0.389   2.412  2.3183  1.6319 -0.3064
  227THF     H5 4883   4.391   0.352   2.313 -1.1126  0.9828  2.3003
  227THF     H6 4884   4.166   0.190   2.070  0.3072 -1.8402 -0.9520
  227THF     H7 4885   4.342   0.202   2.095 -0.4344  1.0091  1.0409
  227THF     C8 4886   4.227   0.104   2.258  0.3446  0.3022 -0.3667
  227THF     C9 4887   4.291   0.178   2.375  0.0365  0.5862 -0.2969
  227THF    H10 4888   4.274   0.008   2.235  0.3021  0.0950  0.3873
  227THF    H11 4889   4.120   0.093   2.271  0.6342 -0.6863  1.5775
  227THF    H12 4890   4.240   0.166   2.470  0.4224  0.5147 -0.0984
  227THF    H13 4891   4.395   0.169   2.406  0.0021  0.3799 -0.2438
  228THF     O1 4892   4.807   3.975   3.791 -0.3102 -1.3591 -0.4424
  228THF     C2 4893   4.831   3.840   3.836 -0.8173 -1.0531 -0.5460
  228THF     C3 4894   4.900   4.064   3.855  0.0814  0.2656 -0.1215
  228THF     H4 4895   4.908   3.790   3.777 -1.7452 -0.5513 -2.2671
  228THF     H5 4896   4.744   3.777   3.825 -0.2198 -1.6819 -1.9913
  228THF     H6 4897   4.997   4.059   3.806  1.6384  0.9122  2.6715
  228THF     H7 4898   4.860   4.165   3.839  2.7425  1.1038 -2.2290
  228THF     C8 4899   4.896   4.008   3.990  0.4734 -0.1804  0.2557
  228THF     C9 4900   4.872   3.855   3.981  0.0281 -0.3283  0.3376
  228THF    H10 4901   4.820   4.061   4.047  2.1000  0.6700  1.7172
  228THF    H11 4902   4.993   4.029   4.036  0.1492 -2.0037  1.9063
  228THF    H12 4903   4.963   3.796   3.990  1.3287  0.6777 -3.8809
  228THF    H13 4904   4.785   3.823   4.038 -1.1401  2.4052  0.2462
  229THF     O1 4905   4.095   1.226   2.649  0.8848  0.2981  0.1194
  229THF     C2 4906   4.052   1.103   2.715  0.4342 -0.5814  0.3836
  229THF     C3 4907   4.191   1.174   2.556  0.6174 -0.3632 -0.0074
  229THF     H4 4908   3.988   1.056   2.640 -1.4767 -0.6906  1.9854
  229THF     H5 4909   3.986   1.124   2.799 -1.1173 -1.5072 -0.5392
  229THF     H6 4910   4.148   1.130   2.465  1.6202 -0.7116 -0.3221
  229THF     H7 4911   4.246   1.257   2.512 -0.7963 -0.1420 -1.4730
  229THF     C8 4912   4.271   1.073   2.635  0.3957  0.1680  0.7711
  229THF     C9 4913   4.185   1.031   2.744 -0.6577 -0.0842  0.1067
  229THF    H10 4914   4.370   1.114   2.653  1.3889 -1.7880  0.1376
  229THF    H11 4915   4.287   0.985   2.572  1.1540  0.7670  0.1109
  229THF    H12 4916   4.187   0.925   2.769  1.7216 -0.1347 -0.0492
  229THF    H13 4917   4.235   1.082   2.827  0.8551 -1.6794  0.2385
  230THF     O1 4918   2.062   2.417   3.192 -0.1444 -0.3403  0.1356
  230THF     C2 4919   2.078   2.483   3.068 -0.1392  0.3146 -0.5608
  230THF     C3 4920   2.139   2.495   3.286 -0.0935 -0.8590  0.0296
  230THF     H4 4921   1.990   2.456   3.009 -0.6811 -0.7452  0.6828
  230THF     H5 4922   2.173   2.447   3.027 -0.0996 -0.1149 -0.1110
  230THF     H6 4923   2.108   2.471   3.387  0.9602  3.1011  1.4419
  230THF     H7 4924   2.245   2.469   3.282  0.0052 -0.3484 -2.6577
  230THF     C8 4925   2.130   2.644   3.242  0.3968  0.2461 -0.0520
  230THF     C9 4926   2.091   2.633   3.098  0.1344 -0.2176  0.3121
  230THF    H10 4927   2.217   2.706   3.266 -0.5077  1.1443  0.9722
  230THF    H11 4928   2.049   2.693   3.295  1.1543  1.2157  0.2309
  230THF    H12 4929   1.998   2.680   3.069 -0.0822 -0.2767  0.8827
  230THF    H13 4930   2.172   2.677   3.040 -0.1688 -1.2934 -0.9643
  231THF     O1 4931   3.159   2.652   2.496 -0.5015  0.1292 -0.0947
  231THF     C2 4932   3.246   2.571   2.575 -0.4530 -0.3087  0.1029
  231THF     C3 4933   3.039   2.569   2.469 -0.1988  0.5308 -0.0309
  231THF     H4 4934   3.206   2.569   2.677 -1.7659  0.3086 -0.3874
  231THF     H5 4935   3.347   2.611   2.584  0.3404 -2.4213  1.4884
  231THF     H6 4936   2.990   2.560   2.566 -0.0895 -0.4616 -0.0609
  231THF     H7 4937   2.972   2.607   2.392  1.3584 -0.8150 -2.1679
  231THF     C8 4938   3.111   2.432   2.425  0.4248  0.4126 -0.1970
  231THF     C9 4939   3.238   2.436   2.497 -0.6155 -0.0842 -0.3000
  231THF    H10 4940   3.130   2.437   2.318 -1.4389  0.2931 -0.5516
  231THF    H11 4941   3.051   2.343   2.443 -0.1107  1.0665  1.5066
  231THF    H12 4942   3.256   2.356   2.568  0.8837 -0.1654 -0.7189
  231THF    H13 4943   3.321   2.432   2.426 -0.9071 -1.9316 -0.5722
  232THF     O1 4944   1.339   1.172   0.677  0.1920 -0.3199  0.2375
  232THF     C2 4945   1.223   1.126   0.753  0.3008 -0.0529  0.5347
  232THF     C3 4946   1.396   1.277   0.747  0.2876 -0.2462  0.4521
  232THF     H4 4947   1.223   1.018   0.735 -1.8073 -0.2697  1.4611
  232THF     H5 4948   1.128   1.171   0.723  0.6074  1.3963  1.6126
  232THF     H6 4949   1.502   1.261   0.766  0.5896 -0.0791 -0.9747
  232THF     H7 4950   1.395   1.357   0.673 -0.2336 -0.8784 -0.2427
  232THF     C8 4951   1.307   1.294   0.872  0.3223 -0.2287 -0.3368
  232THF     C9 4952   1.248   1.161   0.896 -0.0106  0.1286  0.1319
  232THF    H10 4953   1.238   1.377   0.854  0.2429  0.2350  1.8038
  232THF    H11 4954   1.353   1.341   0.959  0.4699  0.7989 -0.9415
  232THF    H12 4955   1.321   1.088   0.930  0.5804 -0.2085 -1.7475
  232THF    H13 4956   1.150   1.167   0.945 -0.7555  1.7777 -1.4194
  233THF     O1 4957   5.418   0.306   0.063  0.4948 -0.0077  0.4108
  233THF     C2 4958   5.406   0.276  -0.079 -0.0106  0.0635 -0.5168
  233THF     C3 4959   5.518   0.229   0.115 -0.4900 -0.3935 -0.3840
  233THF     H4 4960   5.364   0.368  -0.120 -3.0678 -1.0281 -0.0986
  233THF     H5 4961   5.336   0.194  -0.092 -0.2628  0.0724  0.6864
  233THF     H6 4962   5.563   0.254   0.211 -2.3774  0.2884  0.3653
  233THF     H7 4963   5.466   0.133   0.122 -0.4255 -0.4144 -0.1648
  233THF     C8 4964   5.625   0.213   0.005  1.0391  0.3635 -0.7494
  233THF     C9 4965   5.550   0.231  -0.121  0.2940 -0.3415  0.5000
  233THF    H10 4966   5.654   0.108   0.012  1.0775  0.3548 -1.0413
  233THF    H11 4967   5.706   0.284   0.016  0.4391  0.8752  0.5834
  233THF    H12 4968   5.592   0.305  -0.189  0.2631  0.1402  0.9941
  233THF    H13 4969   5.532   0.138  -0.176  1.0751 -0.3365  0.2327
  234THF     O1 4970   3.414   5.385   2.422  0.3423 -0.5564  0.7661
  234THF     C2 4971   3.511   5.310   2.494 -0.2874 -0.1752  0.6906
  234THF     C3 4972   3.333   5.293   2.344  0.4649  0.1861 -0.4731
  234THF     H4 4973   3.554   5.357   2.583 -1.6530  1.6540  0.4313
  234THF     H5 4974   3.600   5.299   2.432 -1.0670 -1.1616 -0.2860
  234THF     H6 4975   3.238   5.336   2.314 -0.4311 -2.1855 -1.2897
  234THF     H7 4976   3.390   5.253   2.260  1.5646  0.5731  0.0599
  234THF     C8 4977   3.313   5.180   2.435  0.3541 -0.1611 -0.0338
  234THF     C9 4978   3.435   5.182   2.516 -0.3219 -0.5719 -0.4707
  234THF    H10 4979   3.291   5.081   2.394 -1.4635  0.8535 -1.6323
  234THF    H11 4980   3.226   5.203   2.496 -1.2609 -1.3998 -1.7638
  234THF    H12 4981   3.405   5.160   2.619  1.0437 -0.5965 -0.0581
  234THF    H13 4982   3.489   5.093   2.483 -0.6671 -0.5496 -1.1042
  235THF     O1 4983   1.166   5.039   0.378 -0.0941  0.4712  0.0540
  235THF     C2 4984   1.268   5.131   0.412 -0.1915 -0.6848 -0.0476
  235THF     C3 4985   1.133   4.955   0.493 -0.5489  0.0347  1.0254
  235THF     H4 4986   1.218   5.213   0.464  0.4084  0.5304 -1.3127
  235THF     H5 4987   1.324   5.179   0.332  2.5203 -1.1074  1.4811
  235THF     H6 4988   1.038   4.993   0.531 -1.4065 -0.1807 -0.7701
  235THF     H7 4989   1.111   4.850   0.472  0.1961  0.3298 -1.6297
  235THF     C8 4990   1.244   4.973   0.596 -0.0788  0.2258 -0.1859
  235THF     C9 4991   1.347   5.055   0.516  0.4358 -0.3059  0.0471
  235THF    H10 4992   1.282   4.873   0.618 -0.3071  0.2336  0.2514
  235THF    H11 4993   1.210   5.020   0.688  1.6678  2.2539 -0.4808
  235THF    H12 4994   1.414   5.126   0.565 -2.3050  2.1253  0.5415
  235THF    H13 4995   1.407   4.978   0.468  1.1148  1.0820 -1.4011
  236THF     O1 4996   5.362   2.780   1.242  0.4439  0.0032 -0.8579
  236THF     C2 4997   5.338   2.747   1.103  0.0379  0.5832  0.3203
  236THF     C3 4998   5.293   2.897   1.268 -0.1275 -0.6404  0.2007
  236THF     H4 4999   5.249   2.687   1.085  1.2141 -1.1339 -0.0460
  236THF     H5 5000   5.422   2.694   1.057  1.2109  1.3651  1.4721
  236THF     H6 5001   5.188   2.867   1.271  0.1971 -1.8483 -0.1391
  236THF     H7 5002   5.319   2.951   1.359  2.0417  1.7624 -1.7105
  236THF     C8 5003   5.328   2.984   1.145  0.4077 -0.9805  0.1528
  236THF     C9 5004   5.343   2.882   1.034 -0.1286  0.1297  0.1296
  236THF    H10 5005   5.424   3.029   1.166  0.5310 -1.4783  0.6675
  236THF    H11 5006   5.256   3.064   1.126  2.4890  0.6379 -1.3154
  236THF    H12 5007   5.260   2.886   0.964 -1.0944  0.0328  1.2253
  236THF    H13 5008   5.437   2.901   0.982  0.2113 -0.1015  0.6436
  237THF     O1 5009   0.674   0.045   1.824  0.1742 -0.3006 -0.1233
  237THF     C2 5010   0.566  -0.046   1.820  0.2069  0.0709 -0.2238
  237THF     C3 5011   0.620   0.170   1.781  0.0952 -0.0094  0.2016
  237THF     H4 5012   0.593  -0.144   1.859 -0.3673 -0.4756 -1.1860
  237THF     H5 5013   0.550  -0.061   1.714  0.7273 -1.8422 -0.0730
  237THF     H6 5014   0.679   0.259   1.804 -1.0999  0.6626  0.7459
  237THF     H7 5015   0.618   0.165   1.672  2.5140  0.1100  0.0890
  237THF     C8 5016   0.482   0.177   1.832  0.2956  0.4749  0.4941
  237THF     C9 5017   0.453   0.034   1.870 -0.0189  0.1125  0.1014
  237THF    H10 5018   0.410   0.211   1.757  1.8522  0.5846 -0.9956
  237THF    H11 5019   0.477   0.231   1.926 -0.5344 -3.6334  3.0622
  237THF    H12 5020   0.468   0.043   1.978  1.5764  2.0821 -0.2252
  237THF    H13 5021   0.353   0.001   1.842 -0.1190 -1.0365  1.6806
  238THF     O1 5022   3.297   2.851   4.945  0.1326 -0.3247  0.4331
  238THF     C2 5023   3.205   2.757   4.895  0.4329 -0.7104  0.4903
  238THF     C3 5024   3.388   2.888   4.845  0.1799 -0.1935  0.1209
  238THF     H4 5025   3.108   2.806   4.887  0.5561 -0.1705  2.0117
  238THF     H5 5026   3.204   2.673   4.965  2.2441  0.5291  2.0844
  238THF     H6 5027   3.349   2.972   4.787  1.9441  1.1888  0.8231
  238THF     H7 5028   3.481   2.922   4.890  0.9849  0.5004 -1.9356
  238THF     C8 5029   3.401   2.762   4.757  0.2386  0.2096  0.2174
  238THF     C9 5030   3.260   2.709   4.762 -0.4336 -0.2104  0.2282
  238THF    H10 5031   3.480   2.699   4.797 -0.3856 -0.7833 -0.0882
  238THF    H11 5032   3.420   2.799   4.656  0.8438  2.2895  1.0290
  238THF    H12 5033   3.193   2.746   4.684  1.8269  1.5912 -0.9682
  238THF    H13 5034   3.256   2.600   4.753 -2.0352 -0.1542 -0.1515
  239THF     O1 5035   0.899   3.967   2.282 -0.0088  0.0256 -0.0190
  239THF     C2 5036   0.974   3.870   2.361 -0.0208  0.2016 -0.4014
  239THF     C3 5037   0.823   3.888   2.195  0.0239  0.0332  0.0481
  239THF     H4 5038   1.007   3.915   2.455 -2.1928 -0.9222  0.9891
  239THF     H5 5039   1.066   3.840   2.310  0.0624 -0.9944  0.4081
  239THF     H6 5040   0.745   3.936   2.138 -0.2146 -1.7514 -1.2101
  239THF     H7 5041   0.877   3.847   2.109  0.0699  0.2079 -0.0059
  239THF     C8 5042   0.762   3.782   2.287 -0.3620 -0.1237 -0.1622
  239THF     C9 5043   0.880   3.760   2.393  0.2434 -0.4307 -0.6766
  239THF    H10 5044   0.723   3.692   2.241  0.6609 -0.5312 -0.2560
  239THF    H11 5045   0.674   3.828   2.333 -0.2344 -0.0520  0.0125
  239THF    H12 5046   0.835   3.773   2.491  1.3568  2.6997 -0.4614
  239THF    H13 5047   0.939   3.669   2.379  0.8568 -0.3032  0.8910
  240THF     O1 5048   4.739   0.372   2.547 -0.0171 -0.2537 -0.1952
  240THF     C2 5049   4.664   0.280   2.471  0.7996 -0.2732 -0.7537
  240THF     C3 5050   4.808   0.303   2.645  0.0586 -0.4705 -0.0113
  240THF     H4 5051   4.638   0.325   2.375  0.7715 -2.2531 -1.7282
  240THF     H5 5052   4.579   0.250   2.532  2.2431  0.4342  1.7419
  240THF     H6 5053   4.888   0.360   2.690 -1.5511  2.1533 -0.2951
  240THF     H7 5054   4.732   0.272   2.717 -0.1167  3.9496  2.0257
  240THF     C8 5055   4.860   0.180   2.571  0.1326  0.3348 -0.1203
  240THF     C9 5056   4.763   0.162   2.456  0.0755 -0.5591 -0.6294
  240THF    H10 5057   4.868   0.089   2.632  0.4504  0.6223  0.2690
  240THF    H11 5058   4.963   0.195   2.540 -0.1468 -0.8844 -1.8070
  240THF    H12 5059   4.813   0.181   2.361  1.3582 -1.2998 -0.1270
  240THF    H13 5060   4.697   0.076   2.442 -0.5186 -0.1130 -0.5925
  241THF     O1 5061   2.636   4.026   4.889 -0.4926  0.1205 -0.3922
  241THF     C2 5062   2.599   3.881   4.874 -0.3260  0.2441  0.9986
  241THF     C3 5063   2.602   4.087   4.767  0.3385  0.6557 -0.0351
  241THF     H4 5064   2.494   3.868   4.853  0.4092 -0.9471 -2.4690
  241THF     H5 5065   2.635   3.812   4.950  0.5111 -2.5739 -1.7685
  241THF     H6 5066   2.496   4.109   4.773 -0.3474 -2.5856  2.3714
  241THF     H7 5067   2.648   4.185   4.755  1.4103  0.0542 -1.0144
  241THF     C8 5068   2.630   3.976   4.658  0.3605  0.2125  0.1271
  241THF     C9 5069   2.661   3.851   4.738 -0.1166 -0.2396  0.2930
  241THF    H10 5070   2.708   4.002   4.585  0.1987 -1.0042 -0.5055
  241THF    H11 5071   2.533   3.970   4.609  0.6786 -0.5802 -0.4234
  241THF    H12 5072   2.626   3.765   4.681  0.8641 -0.4957  0.0606
  241THF    H13 5073   2.768   3.833   4.746 -0.0880 -0.6845 -0.9494
  242THF     O1 5074   1.911   0.550   3.797  0.0834 -0.1473 -0.5108
  242THF     C2 5075   1.853   0.464   3.894 -0.6362  0.6704 -0.2211
  242THF     C3 5076   2.054   0.531   3.789  0.6070  0.9458 -0.3354
  242THF     H4 5077   1.745   0.450   3.884 -0.4595 -2.0469  0.9392
  242THF     H5 5078   1.863   0.507   3.993 -1.2683  0.8036 -0.2091
  242THF     H6 5079   2.095   0.580   3.701 -1.2374 -1.1180 -2.5175
  242THF     H7 5080   2.109   0.568   3.875 -0.5263  1.2697  0.2697
  242THF     C8 5081   2.058   0.380   3.791  1.1130  0.0125  0.2756
  242THF     C9 5082   1.939   0.341   3.878 -0.2290  0.3142 -0.9408
  242THF    H10 5083   2.146   0.325   3.824  0.0091 -1.2695  1.1717
  242THF    H11 5084   2.039   0.352   3.688 -0.1579 -1.0050  0.7572
  242THF    H12 5085   1.878   0.260   3.839 -1.8228  1.9468 -1.9752
  242THF    H13 5086   1.973   0.304   3.976  0.6026  0.8073 -1.0318
  243THF     O1 5087   2.835   2.041   4.005 -0.4961  0.2571 -0.2238
  243THF     C2 5088   2.719   1.989   4.061  0.1580 -0.5944 -0.1354
  243THF     C3 5089   2.946   2.016   4.087  0.1330  0.8407 -0.5368
  243THF     H4 5090   2.662   1.941   3.982  1.9717 -1.6405 -0.8684
  243THF     H5 5091   2.643   2.055   4.105 -1.9756 -3.8284  1.3919
  243THF     H6 5092   3.033   2.024   4.022 -0.6208 -0.2331 -1.7127
  243THF     H7 5093   2.946   2.100   4.157  2.2443  0.8350 -0.4597
  243THF     C8 5094   2.911   1.876   4.150 -0.1864 -0.0385 -0.0818
  243THF     C9 5095   2.761   1.881   4.162 -0.7292  0.2297  0.8856
  243THF    H10 5096   2.953   1.849   4.247 -0.5624  0.3097  0.1793
  243THF    H11 5097   2.941   1.796   4.082 -2.5938 -1.8705  0.8851
  243THF    H12 5098   2.712   1.786   4.144 -0.2956  0.4825 -2.0426
  243THF    H13 5099   2.731   1.912   4.262 -0.8471 -1.3597  1.3703
  244THF     O1 5100   2.175   1.268   0.272  0.4032 -0.3584 -0.7011
  244THF     C2 5101   2.223   1.151   0.195 -0.3323 -0.5268  0.2962
  244THF     C3 5102   2.053   1.307   0.216  0.5171 -0.2693  0.3583
  244THF     H4 5103   2.239   1.077   0.274 -0.4747 -1.4823 -0.5558
  244THF     H5 5104   2.317   1.184   0.151 -1.2950  1.8245 -0.1751
  244THF     H6 5105   1.984   1.365   0.277 -0.9262 -0.9307 -0.5815
  244THF     H7 5106   2.082   1.377   0.138  0.6443  0.3566  0.9533
  244THF     C8 5107   1.988   1.184   0.162  0.0527  0.0567  0.2260
  244THF     C9 5108   2.109   1.100   0.110  0.3147 -0.3014  0.2799
  244THF    H10 5109   1.916   1.205   0.083 -1.3667 -0.1180  1.4280
  244THF    H11 5110   1.944   1.142   0.252 -1.2003  1.2440  0.1963
  244THF    H12 5111   2.091   0.994   0.126 -0.4917 -0.4222 -1.2257
  244THF    H13 5112   2.121   1.111   0.002 -1.8012  0.7682  0.1073
  245THF     O1 5113   2.695   4.319   0.524 -0.9517  1.1289 -0.6008
  245THF     C2 5114   2.802   4.313   0.626 -0.1483  0.0850 -0.2803
  245THF     C3 5115   2.671   4.456   0.486 -0.1360  0.3514 -0.2683
  245THF     H4 5116   2.893   4.259   0.598 -0.8853 -0.1740 -2.3612
  245THF     H5 5117   2.763   4.270   0.718 -1.2413 -0.0091 -0.7775
  245THF     H6 5118   2.727   4.493   0.400 -2.1301 -1.1929 -2.3407
  245THF     H7 5119   2.566   4.455   0.458  0.2248 -1.3311 -1.7008
  245THF     C8 5120   2.709   4.537   0.615  0.7748  0.2539  0.6544
  245THF     C9 5121   2.832   4.464   0.652  0.0431 -0.5101  0.1348
  245THF    H10 5122   2.644   4.525   0.701  1.0264 -2.8328  0.5378
  245THF    H11 5123   2.720   4.642   0.587  1.7995 -0.1359 -0.5213
  245THF    H12 5124   2.917   4.507   0.599 -0.8821  1.3469  0.0677
  245THF    H13 5125   2.851   4.488   0.756 -2.3272  2.0798  0.0693
  246THF     O1 5126   3.084   2.214   3.382 -0.0077  0.1658 -0.3984
  246THF     C2 5127   3.054   2.316   3.282 -0.0085  0.1519 -0.5303
  246THF     C3 5128   3.088   2.274   3.510 -0.2227  0.1795 -0.9313
  246THF     H4 5129   3.007   2.269   3.195  2.0150  0.0419 -1.6341
  246THF     H5 5130   3.152   2.349   3.246 -0.1791  0.3589 -0.8069
  246THF     H6 5131   3.080   2.216   3.602 -1.6166  1.1101 -0.4293
  246THF     H7 5132   3.168   2.346   3.524 -1.6058  1.3581  1.5470
  246THF     C8 5133   2.960   2.349   3.503 -0.1164 -0.2495 -0.1886
  246THF     C9 5134   2.964   2.409   3.363  0.9607  0.5632  0.3520
  246THF    H10 5135   2.962   2.422   3.584  0.3479 -1.6472  1.1090
  246THF    H11 5136   2.871   2.287   3.514 -0.4297  0.3376  0.6391
  246THF    H12 5137   2.862   2.415   3.327  0.4904 -0.3817  1.4766
  246THF    H13 5138   3.005   2.510   3.366  0.8235  0.5942  1.3565
  247THF     O1 5139   0.735   1.336   3.722  0.1837  0.3793  0.0709
  247THF     C2 5140   0.701   1.324   3.581  0.7135 -0.1676 -0.7235
  247THF     C3 5141   0.784   1.465   3.743 -0.2659  0.1454 -0.2159
  247THF     H4 5142   0.613   1.383   3.554  1.4662  0.6605 -1.4220
  247THF     H5 5143   0.679   1.218   3.562  0.8350 -0.0167 -1.7741
  247THF     H6 5144   0.704   1.539   3.748  1.1901  1.7044  1.0597
  247THF     H7 5145   0.836   1.476   3.838  2.0150 -0.6835 -1.3139
  247THF     C8 5146   0.863   1.493   3.613 -0.0045  0.8512 -0.4597
  247THF     C9 5147   0.819   1.385   3.519 -0.1750  0.4966 -0.0096
  247THF    H10 5148   0.971   1.496   3.627 -0.0086 -1.5423  0.7138
  247THF    H11 5149   0.836   1.594   3.581 -2.2649  0.3620 -0.2698
  247THF    H12 5150   0.803   1.449   3.433 -0.3656  2.0787  1.1517
  247THF    H13 5151   0.891   1.303   3.509 -1.6513 -1.2049  2.2605
  248THF     O1 5152   1.136   3.359   0.519 -0.3042 -0.0712 -0.3963
  248THF     C2 5153   1.196   3.482   0.472  0.3596  0.6249  0.0218
  248THF     C3 5154   1.228   3.298   0.606 -0.1199 -0.1479 -0.4345
  248THF     H4 5155   1.127   3.567   0.468 -0.5518 -0.1168 -0.5088
  248THF     H5 5156   1.233   3.483   0.370 -0.0425  0.1359 -0.1337
  248THF     H6 5157   1.181   3.215   0.658 -1.7112  0.7032 -0.4670
  248THF     H7 5158   1.312   3.260   0.548  0.9484 -1.3073  1.7510
  248THF     C8 5159   1.273   3.410   0.695 -0.0876 -0.2890 -0.0969
  248THF     C9 5160   1.284   3.523   0.588 -0.0013 -0.4355 -0.5510
  248THF    H10 5161   1.374   3.406   0.736 -1.0090  1.8311  2.6874
  248THF    H11 5162   1.220   3.425   0.789  2.8962 -0.6677  1.7750
  248THF    H12 5163   1.255   3.616   0.637 -2.2603 -1.4162  0.1319
  248THF    H13 5164   1.387   3.535   0.556  1.0247 -3.3197  1.2823
  249THF     O1 5165   5.324   4.699   3.337 -0.3704 -0.1561 -0.1735
  249THF     C2 5166   5.401   4.598   3.407 -0.3503 -0.5794  0.6387
  249THF     C3 5167   5.212   4.629   3.275  0.1961  0.3889  0.4736
  249THF     H4 5168   5.442   4.629   3.503  2.0539 -1.0313 -0.1599
  249THF     H5 5169   5.488   4.582   3.342 -1.5713  0.9900 -1.5402
  249THF     H6 5170   5.130   4.691   3.238  1.4390  0.2158 -3.0326
  249THF     H7 5171   5.251   4.577   3.187  1.1076  1.6437  0.1027
  249THF     C8 5172   5.181   4.519   3.377  0.8104  0.6342 -0.1622
  249THF     C9 5173   5.318   4.476   3.426 -0.1228 -0.1560 -0.4845
  249THF    H10 5174   5.120   4.435   3.344  0.6614  0.2320  1.0816
  249THF    H11 5175   5.130   4.560   3.464  0.0854 -0.6059  0.0180
  249THF    H12 5176   5.309   4.457   3.533 -1.8098  0.7375 -0.4341
  249THF    H13 5177   5.353   4.388   3.371 -0.4173 -0.6557  0.1113
  250THF     O1 5178   2.321   2.029   4.824  0.2970  0.1463  0.0305
  250THF     C2 5179   2.212   2.115   4.858 -0.4544  0.0329 -0.2456
  250THF     C3 5180   2.292   1.980   4.697 -0.7073  0.6730  0.2895
  250THF     H4 5181   2.241   2.217   4.830 -0.3513  0.2336  0.5454
  250THF     H5 5182   2.197   2.131   4.965 -2.0635  0.1039 -0.4604
  250THF     H6 5183   2.331   2.053   4.626 -0.3898  0.5127  0.2955
  250THF     H7 5184   2.328   1.880   4.673 -2.6270  0.0282 -0.0316
  250THF     C8 5185   2.136   1.965   4.695  0.0274 -0.6199 -0.0994
  250THF     C9 5186   2.088   2.080   4.779  0.3105  0.2209  0.3957
  250THF    H10 5187   2.098   1.865   4.716  1.7092 -1.4187 -0.6939
  250THF    H11 5188   2.111   1.982   4.591  1.8945  1.6303 -0.2606
  250THF    H12 5189   2.063   2.163   4.714 -0.1714  1.6429  2.2910
  250THF    H13 5190   2.007   2.064   4.850 -0.8189  1.4823 -0.5667
  251THF     O1 5191   2.191   4.352   3.046 -0.1701  0.1155 -0.0417
  251THF     C2 5192   2.232   4.223   3.006 -0.0392  0.2902  0.1318
  251THF     C3 5193   2.111   4.397   2.934 -0.2415 -0.1035  0.3340
  251THF     H4 5194   2.164   4.156   3.060 -1.3508  0.0518 -1.7257
  251THF     H5 5195   2.329   4.184   3.038 -1.1761 -2.0667  0.9879
  251THF     H6 5196   2.010   4.355   2.941 -0.1565 -0.2988  0.3886
  251THF     H7 5197   2.107   4.506   2.929 -0.2283 -0.1511 -0.8583
  251THF     C8 5198   2.189   4.339   2.812 -0.0556  0.3556  0.2243
  251THF     C9 5199   2.227   4.196   2.853  0.4208  0.2432  0.1080
  251THF    H10 5200   2.279   4.399   2.798  0.7059 -0.7681  0.0984
  251THF    H11 5201   2.128   4.348   2.722 -0.8200 -0.8012  0.6039
  251THF    H12 5202   2.156   4.125   2.811  0.2594  0.0127  0.7669
  251THF    H13 5203   2.326   4.162   2.820  1.1737  1.8247  0.6362
  252THF     O1 5204   5.121   5.282   1.026 -0.7261 -0.2907  0.0324
  252THF     C2 5205   5.241   5.198   1.033  0.3426 -0.6580  0.1260
  252THF     C3 5206   5.017   5.212   1.082  0.0337 -0.1973  0.1962
  252THF     H4 5207   5.267   5.203   1.139 -0.7746  3.1551  0.3905
  252THF     H5 5208   5.314   5.223   0.957 -0.1165 -1.9840 -0.7789
  252THF     H6 5209   5.000   5.252   1.182 -0.3650 -1.2541  0.5737
  252THF     H7 5210   4.920   5.223   1.033 -0.3764  0.3436  1.1018
  252THF     C8 5211   5.066   5.067   1.096 -0.3401  0.1033  0.0155
  252THF     C9 5212   5.182   5.059   0.997  0.5559  0.4820 -0.2891
  252THF    H10 5213   4.990   4.989   1.086 -0.9321  0.5196  1.0055
  252THF    H11 5214   5.105   5.053   1.197  0.8347 -0.1397 -0.4614
  252THF    H12 5215   5.260   4.984   1.014  0.2261 -0.3087 -1.9734
  252THF    H13 5216   5.150   5.042   0.894 -0.7096 -4.0352  0.5983
  253THF     O1 5217   5.284   0.986   4.433 -0.2805 -0.6567  0.0476
  253THF     C2 5218   5.387   1.042   4.508  0.1391 -0.1802 -0.7198
  253THF     C3 5219   5.214   0.878   4.502 -0.2514 -0.6118 -0.1619
  253THF     H4 5220   5.367   1.137   4.558 -2.3251  0.8100 -3.3320
  253THF     H5 5221   5.478   1.062   4.450  0.4342 -2.6982 -1.2256
  253THF     H6 5222   5.112   0.914   4.516  0.4913  2.3594 -1.6193
  253THF     H7 5223   5.215   0.783   4.447  2.0476 -0.5640 -0.2901
  253THF     C8 5224   5.281   0.859   4.634 -0.2958 -0.3102  0.2096
  253THF     C9 5225   5.415   0.937   4.612  0.7775  0.0764  0.5468
  253THF    H10 5226   5.279   0.754   4.664  1.2506  0.2685  2.6208
  253THF    H11 5227   5.208   0.907   4.699 -0.1389  1.4102 -0.8195
  253THF    H12 5228   5.456   0.962   4.710  2.0453 -0.0257  0.0540
  253THF    H13 5229   5.482   0.860   4.574 -1.5133 -1.4477 -0.6455
  254THF     O1 5230   3.602   4.807   0.816  0.2363  0.1994  0.2846
  254THF     C2 5231   3.599   4.669   0.783 -0.1581  0.6232  0.1378
  254THF     C3 5232   3.476   4.859   0.800 -0.4715 -0.4924 -0.8774
  254THF     H4 5233   3.595   4.611   0.876  2.8463  0.0534  0.0135
  254THF     H5 5234   3.691   4.635   0.737 -0.2537  0.7400 -0.1425
  254THF     H6 5235   3.421   4.842   0.893 -1.8846  0.0897 -1.5628
  254THF     H7 5236   3.470   4.966   0.779 -1.7324 -0.2231  0.6065
  254THF     C8 5237   3.415   4.774   0.683 -0.4449  0.6560  0.0127
  254THF     C9 5238   3.483   4.643   0.692 -0.1370  1.3666  0.0305
  254THF    H10 5239   3.439   4.829   0.593 -0.1242  0.6423  0.0884
  254THF    H11 5240   3.307   4.763   0.692 -0.2287 -1.7799  0.3953
  254THF    H12 5241   3.429   4.559   0.736  2.1380 -0.3370 -0.2241
  254THF    H13 5242   3.512   4.615   0.590 -3.7227 -2.5165 -0.1686
  255THF     O1 5243   2.408   0.138   3.871  0.5512 -0.2184 -0.2747
  255THF     C2 5244   2.300   0.088   3.783 -0.0090  0.5101  0.4220
  255THF     C3 5245   2.520   0.055   3.876 -1.2450  0.4814 -0.4013
  255THF     H4 5246   2.260   0.149   3.702 -1.0825  1.3991  1.5805
  255THF     H5 5247   2.211   0.052   3.835 -2.7644  1.4930 -3.2177
  255THF     H6 5248   2.592   0.107   3.812 -1.3694  1.8085  0.5024
  255THF     H7 5249   2.564   0.036   3.974 -1.2698 -2.6159 -0.8896
  255THF     C8 5250   2.473  -0.075   3.814 -0.0861  0.3179 -0.1379
  255THF     C9 5251   2.365  -0.032   3.721 -0.0228 -1.2426 -0.3991
  255THF    H10 5252   2.422  -0.139   3.886  0.7629  1.2277  1.3251
  255THF    H11 5253   2.539  -0.137   3.753 -2.1085 -0.5916 -1.5010
  255THF    H12 5254   2.414   0.002   3.630  1.4801  1.5104  1.3115
  255THF    H13 5255   2.297  -0.111   3.688 -1.7108 -0.0188 -0.0298
  256THF     O1 5256   2.957   4.158   5.108  0.0262 -0.2097 -0.3012
  256THF     C2 5257   2.995   4.134   5.247 -0.3136  0.8335 -0.2585
  256THF     C3 5258   2.819   4.182   5.109  0.1238  0.0816 -0.1045
  256THF     H4 5259   3.093   4.182   5.258 -0.2597  0.5805  0.4605
  256THF     H5 5260   3.017   4.030   5.272 -0.0092  0.3042 -2.5585
  256THF     H6 5261   2.795   4.234   5.016  0.8020  2.4927  1.0027
  256THF     H7 5262   2.770   4.084   5.108  0.2379  0.0251 -0.2352
  256THF     C8 5263   2.796   4.265   5.235 -0.3872 -0.6026  0.0458
  256THF     C9 5264   2.898   4.205   5.332 -0.0478 -0.2081  0.2737
  256THF    H10 5265   2.693   4.249   5.266 -0.6933 -1.4993 -1.3440
  256THF    H11 5266   2.821   4.366   5.202  1.3948 -1.0627 -0.0838
  256THF    H12 5267   2.951   4.273   5.398  1.2800 -1.5773  0.6632
  256THF    H13 5268   2.851   4.131   5.396  0.9968 -2.6189 -1.5929
  257THF     O1 5269   3.193   0.555   0.529 -0.2478  0.1221  0.1603
  257THF     C2 5270   3.085   0.505   0.588 -0.1038  0.3868  0.0137
  257THF     C3 5271   3.173   0.534   0.385  0.3071 -0.1889 -0.4593
  257THF     H4 5272   3.076   0.534   0.692 -1.3352 -1.7790  0.5871
  257THF     H5 5273   3.096   0.397   0.605  0.5787  0.9517  4.0775
  257THF     H6 5274   3.251   0.586   0.329  0.1396  0.3530 -0.1978
  257THF     H7 5275   3.166   0.430   0.354 -0.8201 -0.1556 -0.3379
  257THF     C8 5276   3.039   0.598   0.376  0.4336  0.0367  0.2551
  257THF     C9 5277   2.969   0.542   0.495  0.0052  0.2910 -0.1599
  257THF    H10 5278   2.981   0.587   0.284 -0.5097  0.3005  0.8076
  257THF    H11 5279   3.054   0.705   0.386  2.4832 -0.2795  1.0186
  257THF    H12 5280   2.910   0.615   0.550  2.6985  0.7552  2.3731
  257THF    H13 5281   2.909   0.452   0.487  0.3029 -0.0078  0.8385
  258THF     O1 5282   3.132   4.413   0.492  0.7859 -0.1754 -0.2665
  258THF     C2 5283   3.101   4.326   0.388  0.2228  0.2245  0.5417
  258THF     C3 5284   3.139   4.544   0.445  0.0065  0.2603  0.4912
  258THF     H4 5285   3.060   4.228   0.412  2.6422 -0.9099  0.2496
  258THF     H5 5286   3.188   4.298   0.330 -1.4618 -0.9334 -1.5762
  258THF     H6 5287   3.120   4.601   0.535 -0.2000 -0.3994  0.8784
  258THF     H7 5288   3.236   4.571   0.403 -0.3312  0.0959 -0.4261
  258THF     C8 5289   3.033   4.547   0.327 -0.3497 -0.8430 -0.1036
  258THF     C9 5290   3.016   4.405   0.276 -0.5267  0.5255  0.1117
  258THF    H10 5291   3.080   4.598   0.243  1.6625 -1.7836  0.3780
  258THF    H11 5292   2.934   4.585   0.352  0.0966  1.2254 -1.2603
  258THF    H12 5293   2.915   4.365   0.266  0.6641 -2.2054 -2.1682
  258THF    H13 5294   3.055   4.388   0.176  1.1055 -1.1112  0.9649
  259THF     O1 5295   4.968   1.321   0.419  0.1291 -0.1796 -0.0191
  259THF     C2 5296   4.967   1.182   0.455  0.8084  0.7608 -0.5566
  259THF     C3 5297   5.083   1.338   0.337  0.3520  0.5804  0.0176
  259THF     H4 5298   4.867   1.143   0.474  1.3855  0.1910  1.5097
  259THF     H5 5299   5.023   1.189   0.548  0.8750 -0.4846 -0.4936
  259THF     H6 5300   5.054   1.371   0.237 -2.6878  0.8349  0.9043
  259THF     H7 5301   5.162   1.408   0.365  1.7453 -0.6558 -0.6915
  259THF     C8 5302   5.161   1.201   0.337  0.3891  1.1807  0.4375
  259THF     C9 5303   5.051   1.104   0.363  0.1051 -0.7479  0.1289
  259THF    H10 5304   5.229   1.207   0.421  0.1491 -1.8412  0.9758
  259THF    H11 5305   5.231   1.187   0.254 -0.1627  0.4526  0.0764
  259THF    H12 5306   5.004   1.078   0.268 -0.4330 -0.2635  0.2615
  259THF    H13 5307   5.076   1.005   0.403 -0.4226 -1.2862 -0.8425
  260THF     O1 5308   1.092   1.643   4.521  0.1939  0.1566 -0.2388
  260THF     C2 5309   1.016   1.576   4.418  0.2677 -0.0216 -0.9544
  260THF     C3 5310   1.085   1.783   4.506 -0.2039 -0.6497 -0.3936
  260THF     H4 5311   0.913   1.557   4.446  0.6776  0.4219  1.0265
  260THF     H5 5312   1.067   1.484   4.389 -0.9631 -0.8303 -0.6161
  260THF     H6 5313   0.997   1.819   4.558 -1.4174 -0.0377 -2.7643
  260THF     H7 5314   1.168   1.833   4.556  0.8742 -2.1631 -0.5928
  260THF     C8 5315   1.076   1.811   4.361 -0.1601  0.3032 -0.4648
  260THF     C9 5316   1.016   1.684   4.311  0.2499  0.2082 -0.3460
  260THF    H10 5317   1.177   1.823   4.323 -0.6541  2.6892 -1.2005
  260THF    H11 5318   1.012   1.895   4.332  0.9883  1.7561  1.0278
  260THF    H12 5319   0.913   1.704   4.281 -0.7958  1.2163  3.3809
  260THF    H13 5320   1.057   1.647   4.217  1.0563  0.1948  0.0000
  261THF     O1 5321   1.247   4.348   0.999  0.5388  1.0417 -0.2830
  261THF     C2 5322   1.362   4.326   1.073 -0.1659 -0.2876 -1.1708
  261THF     C3 5323   1.227   4.490   0.983 -0.0999 -0.1058 -0.6752
  261THF     H4 5324   1.393   4.222   1.064 -0.4304 -0.3942 -0.8521
  261THF     H5 5325   1.331   4.342   1.176  0.6653 -0.1801 -0.9299
  261THF     H6 5326   1.155   4.518   0.906 -3.1205  1.4864  2.5058
  261THF     H7 5327   1.170   4.536   1.063 -2.2931  0.4744 -2.4758
  261THF     C8 5328   1.370   4.546   0.969  0.1571 -0.1503  0.0655
  261THF     C9 5329   1.457   4.440   1.029 -0.1145 -0.2533 -0.6335
  261THF    H10 5330   1.372   4.638   1.027  0.2304 -0.2211  0.1769
  261THF    H11 5331   1.395   4.569   0.866  0.8570  1.1989  0.5144
  261THF    H12 5332   1.525   4.403   0.951  1.9425 -0.9721  1.3872
  261THF    H13 5333   1.526   4.480   1.103  3.2411 -0.7858 -3.2065
  262THF     O1 5334   3.966   3.781   1.693 -0.1672 -0.0149  0.1822
  262THF     C2 5335   3.968   3.760   1.557 -0.1100 -0.0610 -0.1814
  262THF     C3 5336   4.099   3.788   1.738 -0.4578  0.0267 -0.1998
  262THF     H4 5337   3.892   3.824   1.511  0.5246  1.6355  1.0095
  262THF     H5 5338   3.950   3.655   1.534 -0.2786 -0.3632  1.2510
  262THF     H6 5339   4.118   3.888   1.778 -0.7539  0.0716 -0.1720
  262THF     H7 5340   4.107   3.712   1.817 -0.7454  0.6996  0.4935
  262THF     C8 5341   4.188   3.752   1.620 -0.1936  0.5487  0.2337
  262THF     C9 5342   4.103   3.795   1.503  0.3651  0.3353 -0.4385
  262THF    H10 5343   4.197   3.644   1.627  2.2618  0.7644  1.7481
  262THF    H11 5344   4.290   3.790   1.633  0.6670 -1.7878  0.9127
  262THF    H12 5345   4.119   3.901   1.484 -1.1397  0.4917 -0.9499
  262THF    H13 5346   4.125   3.737   1.413 -0.0781  0.0939 -0.3901
  263THF     O1 5347   4.880   1.548   4.482 -0.6499 -0.0199  0.2670
  263THF     C2 5348   4.793   1.658   4.516  0.0258  0.3362  0.4018
  263THF     C3 5349   4.911   1.471   4.594  0.0954  0.3709 -0.7037
  263THF     H4 5350   4.719   1.682   4.440 -1.4309  0.3618  1.7736
  263THF     H5 5351   4.854   1.744   4.544 -0.5031  0.3184  1.6926
  263THF     H6 5352   4.959   1.378   4.565  1.5295  1.4647 -2.0371
  263THF     H7 5353   4.973   1.526   4.666  0.4344  1.2902 -1.6712
  263THF     C8 5354   4.767   1.469   4.644 -0.3886 -0.1902 -0.6012
  263THF     C9 5355   4.717   1.615   4.645 -0.6124  0.7640  0.0147
  263THF    H10 5356   4.776   1.425   4.743  2.3396 -0.5480 -0.9361
  263THF    H11 5357   4.703   1.404   4.584 -0.0287 -2.2738  1.1518
  263THF    H12 5358   4.610   1.624   4.628 -0.9376 -0.5480  1.1698
  263THF    H13 5359   4.741   1.678   4.731 -0.9670 -1.1488  1.5985
  264THF     O1 5360   1.242   4.160   3.373  0.3160  0.3641  0.0655
  264THF     C2 5361   1.295   4.128   3.246 -0.1106 -0.5532  0.1411
  264THF     C3 5362   1.100   4.155   3.359 -0.3251  0.1167 -0.0441
  264THF     H4 5363   1.401   4.102   3.252 -0.1130 -0.8443 -0.9033
  264THF     H5 5364   1.278   4.205   3.171  0.9598 -0.7136 -0.2817
  264THF     H6 5365   1.059   4.169   3.459 -1.6793 -1.4419 -0.3359
  264THF     H7 5366   1.075   4.236   3.290  3.0055 -0.0956 -1.7248
  264THF     C8 5367   1.079   4.018   3.294  0.0329  0.9927  0.5282
  264THF     C9 5368   1.209   4.003   3.213 -0.6570 -0.2017  0.3278
  264THF    H10 5369   0.989   4.005   3.235 -1.8261 -0.6624  3.4581
  264THF    H11 5370   1.077   3.924   3.350  0.4823 -0.3129 -1.5565
  264THF    H12 5371   1.258   3.920   3.262  0.5676  0.1503 -0.2679
  264THF    H13 5372   1.197   3.985   3.106 -1.4675 -0.2067  0.4133
  265THF     O1 5373   2.800   5.382   0.464  0.3065 -0.5983 -0.1544
  265THF     C2 5374   2.689   5.308   0.516  0.4322 -0.0643 -0.7673
  265THF     C3 5375   2.745   5.497   0.404  0.9528 -0.1113 -0.4211
  265THF     H4 5376   2.654   5.359   0.606 -1.3169 -0.5061 -1.1520
  265THF     H5 5377   2.719   5.207   0.543 -0.4176 -0.6244 -1.8316
  265THF     H6 5378   2.735   5.577   0.478 -0.1491  0.4601 -1.1697
  265THF     H7 5379   2.807   5.535   0.324 -0.4127 -0.7809 -1.8439
  265THF     C8 5380   2.598   5.459   0.363 -0.2861  0.0535  0.3330
  265THF     C9 5381   2.585   5.318   0.405  0.0647  0.6698  0.4471
  265THF    H10 5382   2.599   5.468   0.254 -0.5645 -2.7380  0.0169
  265THF    H11 5383   2.516   5.523   0.396  0.6959  1.5191  0.0347
  265THF    H12 5384   2.484   5.295   0.440 -0.1938 -0.6260 -1.0898
  265THF    H13 5385   2.606   5.253   0.320  0.1777  0.2842  0.7649
  266THF     O1 5386   1.212   1.958   1.838 -0.2229 -0.3313  0.1008
  266THF     C2 5387   1.090   1.900   1.773  0.0960  0.3275 -0.2288
  266THF     C3 5388   1.227   2.089   1.767  0.5772  0.0507  0.2656
  266THF     H4 5389   1.016   1.950   1.835  1.1675  2.5535 -0.6212
  266THF     H5 5390   1.084   1.792   1.785  0.6641  0.3653  0.4603
  266THF     H6 5391   1.141   2.148   1.799  0.7222  1.3029 -1.5290
  266THF     H7 5392   1.326   2.133   1.780  0.3783  0.7885 -0.6248
  266THF     C8 5393   1.197   2.046   1.618 -0.0909  0.6039 -0.3139
  266THF     C9 5394   1.085   1.945   1.629  0.7913 -0.5869 -0.3627
  266THF    H10 5395   1.294   2.014   1.581  0.3412  2.0031 -0.4499
  266THF    H11 5396   1.155   2.131   1.563 -1.1381  0.0966 -0.3275
  266THF    H12 5397   0.984   1.973   1.598  1.0125 -0.3412 -0.8626
  266THF    H13 5398   1.117   1.869   1.557  1.6695 -1.3783  0.8184
  267THF     O1 5399   0.304   1.359   1.154 -0.6784 -0.0982  0.0761
  267THF     C2 5400   0.255   1.354   1.020 -0.3861  0.2319 -0.3634
  267THF     C3 5401   0.335   1.501   1.170  0.0169  0.9165  0.8190
  267THF     H4 5402   0.207   1.256   1.008 -1.3174  0.5319  0.7058
  267THF     H5 5403   0.331   1.366   0.943 -0.6456  1.1974 -0.4767
  267THF     H6 5404   0.349   1.523   1.276 -1.2509 -2.3117  1.7811
  267THF     H7 5405   0.431   1.506   1.120 -1.2758 -0.1945 -2.0028
  267THF     C8 5406   0.234   1.579   1.090 -0.1447  0.0978 -0.7359
  267THF     C9 5407   0.163   1.470   1.013  1.2542 -0.6823 -0.1709
  267THF    H10 5408   0.273   1.669   1.042 -0.9529  0.7352 -0.2325
  267THF    H11 5409   0.163   1.611   1.166  0.1668 -0.0097 -0.3908
  267THF    H12 5410   0.077   1.429   1.065  0.8111  0.0150 -0.3465
  267THF    H13 5411   0.127   1.500   0.915 -1.5358 -0.9352  0.7109
  268THF     O1 5412   3.076   0.840   5.015  0.7666 -0.1884 -0.1646
  268THF     C2 5413   3.119   0.721   5.068 -0.7300 -0.4136 -0.5882
  268THF     C3 5414   2.947   0.864   5.070 -0.2322  0.5425 -0.4996
  268THF     H4 5415   3.227   0.713   5.077 -0.4775 -0.0119 -2.8228
  268THF     H5 5416   3.073   0.640   5.011 -2.2344  0.6863 -1.0066
  268THF     H6 5417   2.922   0.970   5.071 -0.7576  0.5334  3.2239
  268THF     H7 5418   2.864   0.819   5.016 -1.5579  3.0609 -0.7038
  268THF     C8 5419   2.942   0.801   5.214  0.2546 -0.6876 -0.3718
  268THF     C9 5420   3.061   0.703   5.203  0.2848 -0.1722 -0.1406
  268THF    H10 5421   2.845   0.753   5.233  0.6102 -0.8614  1.1918
  268THF    H11 5422   2.979   0.871   5.289  0.4790  1.5230 -2.4255
  268THF    H12 5423   3.126   0.741   5.281 -0.8643 -0.5764  1.0507
  268THF    H13 5424   3.039   0.602   5.236 -0.6759  0.2647  0.6093
  269THF     O1 5425   3.670   5.309   5.227 -0.6281  0.8369  0.0932
  269THF     C2 5426   3.573   5.386   5.290  0.2663  0.1895  0.1713
  269THF     C3 5427   3.676   5.184   5.299  1.2845 -0.5770 -0.4393
  269THF     H4 5428   3.471   5.350   5.272 -0.2675  2.5953 -2.1680
  269THF     H5 5429   3.576   5.488   5.253 -0.6713  0.5546  1.0585
  269THF     H6 5430   3.584   5.126   5.288  0.1701  0.8841  0.6795
  269THF     H7 5431   3.763   5.125   5.270  2.0078 -0.5969  1.6017
  269THF     C8 5432   3.674   5.230   5.448 -0.8058  0.8463 -0.1049
  269THF     C9 5433   3.600   5.360   5.435 -0.4779 -0.1267 -0.9116
  269THF    H10 5434   3.769   5.242   5.501 -0.0912  2.6596 -1.6868
  269THF    H11 5435   3.616   5.149   5.492 -1.9184  0.4033 -2.2584
  269THF    H12 5436   3.513   5.377   5.499  0.9125  1.3726  0.7051
  269THF    H13 5437   3.663   5.442   5.470 -0.1873 -0.5864 -0.3468
  270THF     O1 5438   0.347   3.035   2.146 -0.0711 -0.5283  0.1040
  270THF     C2 5439   0.470   2.989   2.202 -0.2820 -0.0243  0.7972
  270THF     C3 5440   0.356   3.028   2.003 -0.5322 -0.1867 -0.2386
  270THF     H4 5441   0.448   2.905   2.267 -2.5689  0.7243  1.1062
  270THF     H5 5442   0.503   3.071   2.266  0.8936 -2.1586  3.0773
  270THF     H6 5443   0.254   2.995   1.979 -0.2942 -0.8898 -0.3033
  270THF     H7 5444   0.383   3.124   1.959  0.5336 -0.7627 -0.8673
  270THF     C8 5445   0.467   2.926   1.973  0.0071  1.1210  0.1605
  270THF     C9 5446   0.559   2.950   2.088 -0.8901 -0.1703  0.7039
  270THF    H10 5447   0.510   2.938   1.874 -0.4144  2.9813  0.1648
  270THF    H11 5448   0.422   2.827   1.971 -2.0226  1.9647  1.2176
  270THF    H12 5449   0.619   2.863   2.116 -0.4650 -0.0631  0.1505
  270THF    H13 5450   0.618   3.038   2.064 -0.8601 -0.0624  1.1684
  271THF     O1 5451   3.298   3.882   1.485  0.2185  0.2006  0.1068
  271THF     C2 5452   3.191   3.922   1.395 -0.9658  0.6956  0.0642
  271THF     C3 5453   3.263   3.760   1.540  0.3876 -0.3162  0.1069
  271THF     H4 5454   3.214   3.996   1.318 -0.7258  2.1440  1.4907
  271THF     H5 5455   3.129   3.966   1.473  0.2917  0.3526  1.2955
  271THF     H6 5456   3.351   3.705   1.573  2.1471  1.1095 -1.9152
  271THF     H7 5457   3.195   3.764   1.625  0.6418 -1.7752  0.4075
  271THF     C8 5458   3.194   3.688   1.424 -0.0661 -0.0589  0.1426
  271THF     C9 5459   3.139   3.796   1.331 -0.2842  0.0446  0.1394
  271THF    H10 5460   3.128   3.611   1.465 -0.1889 -0.3312 -0.5536
  271THF    H11 5461   3.273   3.626   1.381  2.4954  2.6514  0.6643
  271THF    H12 5462   3.165   3.776   1.227 -0.5137  0.7793 -0.0657
  271THF    H13 5463   3.030   3.798   1.331 -0.3266 -1.0680  1.3815
  272THF     O1 5464   0.990   3.195   3.213  0.2706 -0.0238 -0.2786
  272THF     C2 5465   0.856   3.190   3.173 -0.2913 -0.8524 -0.3537
  272THF     C3 5466   1.041   3.065   3.217 -0.4246 -0.2006  0.1638
  272THF     H4 5467   0.841   3.286   3.124 -2.1392 -0.3273  1.1084
  272THF     H5 5468   0.793   3.172   3.260  1.0931  1.2721  1.1925
  272THF     H6 5469   1.150   3.065   3.215 -0.3604  2.5203 -0.7036
  272THF     H7 5470   1.007   3.007   3.303  1.3890  0.2169  1.2107
  272THF     C8 5471   0.986   3.018   3.081  0.0064 -1.2911 -0.4482
  272THF     C9 5472   0.842   3.066   3.095 -0.1721  0.5734  0.0343
  272THF    H10 5473   1.004   2.911   3.080  3.1024 -0.9415  2.4690
  272THF    H11 5474   1.042   3.077   3.008 -0.8312  0.9977  0.6744
  272THF    H12 5475   0.798   3.073   2.995  1.3863 -1.8860 -0.9098
  272THF    H13 5476   0.782   2.989   3.142  1.0635  0.4016  1.4163
  273THF     O1 5477   4.049   1.854   0.506  0.4380 -0.5080  0.3081
  273THF     C2 5478   3.986   1.733   0.536 -0.3599 -0.2300  0.7841
  273THF     C3 5479   3.967   1.929   0.415 -0.3765 -0.1533 -0.1262
  273THF     H4 5480   3.918   1.749   0.620  1.2703  1.7420  1.8190
  273THF     H5 5481   4.053   1.650   0.561  1.0273  0.2445 -1.1795
  273THF     H6 5482   3.879   1.949   0.475 -0.8814 -2.1983 -0.0902
  273THF     H7 5483   4.015   2.018   0.375  1.3267 -1.5189 -1.2798
  273THF     C8 5484   3.938   1.822   0.311 -0.3244 -0.4598 -0.8594
  273THF     C9 5485   3.916   1.701   0.398 -0.3087  0.3440  0.0417
  273THF    H10 5486   4.034   1.810   0.263  0.9119  2.6232  0.5783
  273THF    H11 5487   3.858   1.837   0.238 -2.2687  2.1772  1.5438
  273THF    H12 5488   3.808   1.684   0.409 -0.5081  0.5634 -1.3723
  273THF    H13 5489   3.966   1.620   0.344 -0.9576 -0.0573  0.0227
  274THF     O1 5490   4.618   1.284   2.205 -0.2134 -0.1412  0.1950
  274THF     C2 5491   4.607   1.267   2.071 -0.3943  0.5376 -0.0556
  274THF     C3 5492   4.732   1.218   2.255  0.0818 -0.1442 -0.4168
  274THF     H4 5493   4.541   1.337   2.020 -1.3816  1.1076  1.8921
  274THF     H5 5494   4.564   1.170   2.050  0.2552 -0.1116  1.4650
  274THF     H6 5495   4.746   1.258   2.355 -0.5083  0.2922 -0.5049
  274THF     H7 5496   4.698   1.115   2.254 -2.7578  0.6931 -0.7013
  274THF     C8 5497   4.840   1.261   2.160  0.3414  0.6964  0.5467
  274THF     C9 5498   4.758   1.294   2.028  0.4493  0.4716  0.0945
  274THF    H10 5499   4.913   1.182   2.140 -1.6473 -0.9443 -0.6614
  274THF    H11 5500   4.900   1.347   2.188 -0.4748  1.5689 -0.3045
  274THF    H12 5501   4.780   1.399   2.007 -0.3442  0.8881  1.2272
  274THF    H13 5502   4.802   1.236   1.947  0.4130  2.9779 -1.8787
  275THF     O1 5503   3.721   4.881   5.201  0.2187 -0.1008  0.3999
  275THF     C2 5504   3.593   4.815   5.220 -0.7296 -0.2818  0.7682
  275THF     C3 5505   3.805   4.783   5.138 -0.1212 -0.4133 -0.0459
  275THF     H4 5506   3.514   4.883   5.251 -2.3422 -0.6485 -2.2166
  275THF     H5 5507   3.592   4.722   5.277 -0.4207 -0.5787  0.2900
  275THF     H6 5508   3.895   4.826   5.093 -0.8794 -0.2661 -1.4738
  275THF     H7 5509   3.812   4.696   5.204 -3.5111 -0.7500  0.0580
  275THF     C8 5510   3.706   4.744   5.021 -0.5625 -0.0498 -0.2021
  275THF     C9 5511   3.575   4.765   5.080  0.5010 -0.2817 -0.2147
  275THF    H10 5512   3.723   4.638   5.003  0.0790 -0.0723  0.4626
  275THF    H11 5513   3.713   4.802   4.929  2.3043 -0.5700 -0.3962
  275THF    H12 5514   3.522   4.839   5.019 -2.3118 -0.7771  1.4470
  275THF    H13 5515   3.516   4.674   5.072  0.6683 -0.6179  1.7754
  276THF     O1 5516   1.778   3.051   1.274 -0.5699 -0.6574  0.0460
  276THF     C2 5517   1.654   3.116   1.298 -0.1991  0.4602  0.0641
  276THF     C3 5518   1.859   3.145   1.205  0.0712 -0.5121 -0.2554
  276THF     H4 5519   1.623   3.088   1.398 -2.0145  0.9634 -0.3299
  276THF     H5 5520   1.577   3.078   1.230 -0.0382  0.4598 -0.1188
  276THF     H6 5521   1.962   3.107   1.205 -0.2759 -1.5210 -1.8050
  276THF     H7 5522   1.825   3.157   1.103  1.0857 -0.4151 -0.5975
  276THF     C8 5523   1.829   3.275   1.277  0.3647 -0.3180 -0.0602
  276THF     C9 5524   1.678   3.263   1.297  0.1644  0.1980  0.1026
  276THF    H10 5525   1.844   3.365   1.217  1.2313  0.5021  1.3129
  276THF    H11 5526   1.878   3.301   1.371  1.3838 -2.7709  0.1538
  276THF    H12 5527   1.631   3.311   1.383  0.6299  1.3178 -0.2419
  276THF    H13 5528   1.623   3.308   1.214  1.2011  1.3193 -0.0117
  277THF     O1 5529   2.018   4.480   3.321  0.6690 -0.3402 -0.8981
  277THF     C2 5530   1.964   4.449   3.446 -0.4339  0.5191 -0.4722
  277THF     C3 5531   1.917   4.557   3.265  0.0489  0.0426  0.1943
  277THF     H4 5532   2.032   4.409   3.520 -1.2140 -0.8050 -0.4307
  277THF     H5 5533   1.880   4.380   3.439 -1.3007  1.2297  2.1019
  277THF     H6 5534   1.946   4.632   3.190 -2.3937  0.7166 -0.1498
  277THF     H7 5535   1.860   4.479   3.216  1.7522 -0.2232 -1.5035
  277THF     C8 5536   1.845   4.630   3.382  0.6046 -0.8803  0.2032
  277THF     C9 5537   1.902   4.575   3.510  0.4672 -0.2288 -0.1350
  277THF    H10 5538   1.737   4.613   3.386  0.6169 -1.5217 -1.2815
  277THF    H11 5539   1.870   4.736   3.375 -2.8866 -0.0201 -1.1641
  277THF    H12 5540   1.980   4.638   3.552 -2.4143  2.1428  2.1046
  277THF    H13 5541   1.825   4.558   3.585  1.3770 -1.6252  0.5234
  278THF     O1 5542   4.252   4.852   1.089 -0.1589  0.5779  0.1740
  278THF     C2 5543   4.250   4.714   1.040  0.3200 -0.3141 -1.2665
  278THF     C3 5544   4.279   4.941   0.981 -0.0230 -0.0344  0.4566
  278THF     H4 5545   4.202   4.642   1.107  2.5164 -0.7273 -0.0443
  278THF     H5 5546   4.345   4.662   1.053 -0.4287 -1.1830  1.2449
  278THF     H6 5547   4.248   5.043   1.004  1.1798  0.7469 -1.2049
  278THF     H7 5548   4.387   4.942   0.969 -0.0091 -0.0080  0.5897
  278THF     C8 5549   4.212   4.881   0.859 -0.2310 -0.1088 -0.5392
  278THF     C9 5550   4.217   4.729   0.886 -0.0267  0.1806  0.3750
  278THF    H10 5551   4.263   4.907   0.766  2.3652 -0.7400  0.6523
  278THF    H11 5552   4.110   4.921   0.855  0.0654  0.7267 -0.0946
  278THF    H12 5553   4.118   4.689   0.863  0.3885 -1.5520  1.3790
  278THF    H13 5554   4.300   4.677   0.837 -0.7281 -2.5467  1.9095
  279THF     O1 5555   2.857   5.255   2.728 -0.2569 -0.4807  0.4963
  279THF     C2 5556   2.989   5.213   2.682  0.3794  0.6077  0.4021
  279THF     C3 5557   2.867   5.316   2.857  0.3526  1.1416  0.0653
  279THF     H4 5558   3.009   5.282   2.600 -0.6503  1.4486  0.8373
  279THF     H5 5559   2.982   5.112   2.641  3.3756  0.0564  1.0643
  279THF     H6 5560   2.878   5.424   2.848  1.9466  0.8874 -1.5477
  279THF     H7 5561   2.778   5.299   2.917  0.7161 -0.5256  0.1914
  279THF     C8 5562   2.991   5.256   2.925 -0.3476 -0.1541  0.3833
  279THF     C9 5563   3.076   5.207   2.805  0.0219  0.0017  0.2568
  279THF    H10 5564   2.971   5.180   3.001 -1.5493  0.3278  0.5790
  279THF    H11 5565   3.035   5.342   2.975  3.9125 -0.8462 -1.7557
  279THF    H12 5566   3.173   5.252   2.787 -0.6711  1.0683 -1.0048
  279THF    H13 5567   3.104   5.103   2.823  0.7829 -0.3519 -2.4727
  280THF     O1 5568   5.157   0.325   0.943  0.1023  0.9831 -0.7961
  280THF     C2 5569   5.291   0.380   0.939  0.1545  0.1545 -0.3123
  280THF     C3 5570   5.070   0.430   0.934 -0.5903  0.1897 -0.1764
  280THF     H4 5571   5.359   0.323   0.877  0.2557 -1.9432  1.5999
  280THF     H5 5572   5.333   0.362   1.037  1.1200  0.2556 -0.7013
  280THF     H6 5573   5.042   0.441   0.829  1.6811  0.5134 -0.8246
  280THF     H7 5574   4.987   0.418   1.002 -0.9125  2.6179 -0.0752
  280THF     C8 5575   5.150   0.547   0.995  0.2298 -0.4149 -0.3182
  280THF     C9 5576   5.277   0.528   0.921 -0.3607 -0.1020 -0.4508
  280THF    H10 5577   5.154   0.551   1.104 -1.0553  2.2954 -0.2957
  280THF    H11 5578   5.105   0.643   0.968 -0.8928 -0.8438 -0.0287
  280THF    H12 5579   5.266   0.536   0.813  0.5406  0.6631 -0.5022
  280THF    H13 5580   5.358   0.593   0.954 -1.2241  1.3961 -1.1812
  281THF     O1 5581   3.595   4.976   1.260 -0.5619  0.4092  0.6244
  281THF     C2 5582   3.491   4.922   1.190 -0.5096  0.3468  0.5088
  281THF     C3 5583   3.606   4.887   1.378  0.1211  0.1198 -0.0633
  281THF     H4 5584   3.471   4.956   1.089  0.4440 -1.9778 -0.5324
  281THF     H5 5585   3.401   4.940   1.250 -0.8715 -1.5045  0.5967
  281THF     H6 5586   3.698   4.902   1.435  0.6880 -2.8615 -0.0730
  281THF     H7 5587   3.525   4.894   1.450  0.9679 -3.4274  1.4301
  281THF     C8 5588   3.604   4.751   1.314  0.2898 -0.2095  0.0050
  281THF     C9 5589   3.518   4.769   1.179 -0.1913 -0.1473 -0.0604
  281THF    H10 5590   3.547   4.681   1.374 -3.5837  0.4616 -2.5402
  281THF    H11 5591   3.705   4.710   1.309  0.5010  0.0952  1.3759
  281THF    H12 5592   3.588   4.744   1.099 -0.0517  0.7878 -0.2414
  281THF    H13 5593   3.428   4.710   1.167 -1.2804  1.3718  0.3684
  282THF     O1 5594   1.596   1.448   2.980  0.3479 -0.4831 -0.8348
  282THF     C2 5595   1.554   1.338   2.913  0.8042 -0.1597 -0.1104
  282THF     C3 5596   1.690   1.520   2.892 -0.7596 -0.2140  0.1626
  282THF     H4 5597   1.463   1.351   2.853 -0.5952 -0.4260  1.8388
  282THF     H5 5598   1.528   1.255   2.979 -0.9408  1.9019  1.9822
  282THF     H6 5599   1.641   1.599   2.834 -0.3604 -1.2245 -1.6091
  282THF     H7 5600   1.776   1.570   2.935 -1.5126  0.8518  0.4741
  282THF     C8 5601   1.732   1.414   2.796  0.2943 -0.2734  0.4795
  282THF     C9 5602   1.671   1.284   2.832 -0.0181  0.2997 -0.8137
  282THF    H10 5603   1.836   1.409   2.767  0.4402 -0.0372  0.9554
  282THF    H11 5604   1.687   1.445   2.702 -0.7118  1.4637  1.4604
  282THF    H12 5605   1.643   1.214   2.753  1.2738 -1.8173  0.5159
  282THF    H13 5606   1.743   1.230   2.894  0.2344 -1.5054 -2.5760
  283THF     O1 5607   4.507   2.566   5.400  0.6188  0.4186 -0.0171
  283THF     C2 5608   4.570   2.586   5.521  0.0157  0.2474 -0.5861
  283THF     C3 5609   4.365   2.540   5.420  0.2797  0.5738  0.0927
  283THF     H4 5610   4.656   2.651   5.510 -0.4474  1.4325  2.0509
  283THF     H5 5611   4.599   2.495   5.573  1.2619  1.8151  1.5724
  283THF     H6 5612   4.305   2.580   5.338 -2.4470  2.4280  2.7776
  283THF     H7 5613   4.355   2.432   5.415 -0.3417  0.6822 -1.8940
  283THF     C8 5614   4.334   2.594   5.557 -0.2956 -0.8966  0.0888
  283THF     C9 5615   4.463   2.663   5.597 -0.1038  0.4818 -0.2342
  283THF    H10 5616   4.318   2.503   5.615 -0.5241 -0.7317  0.2843
  283THF    H11 5617   4.244   2.653   5.570 -1.2297 -2.1049 -0.6589
  283THF    H12 5618   4.465   2.766   5.562  0.8174  0.3077 -0.7231
  283THF    H13 5619   4.476   2.661   5.705  1.9852 -1.1821 -0.4485
  284THF     O1 5620   3.769   0.451   3.498 -0.4191 -0.5391 -0.3528
  284THF     C2 5621   3.667   0.500   3.587 -0.5225 -0.0856 -0.3765
  284THF     C3 5622   3.875   0.544   3.498  0.1366  0.2912 -0.4373
  284THF     H4 5623   3.602   0.419   3.620 -1.6236  1.3011  1.0121
  284THF     H5 5624   3.618   0.586   3.542 -2.2154 -1.6614 -1.6988
  284THF     H6 5625   3.960   0.483   3.469 -0.8935 -0.4179 -2.1230
  284THF     H7 5626   3.873   0.630   3.432 -2.4280  0.1372 -0.6502
  284THF     C8 5627   3.885   0.589   3.648 -0.7258  0.5014  0.0676
  284THF     C9 5628   3.750   0.546   3.711  0.3407  0.1468  0.2444
  284THF    H10 5629   3.898   0.697   3.657  1.4223  0.1612  1.9430
  284THF    H11 5630   3.973   0.552   3.702 -0.0889  2.3120  0.3409
  284THF    H12 5631   3.774   0.460   3.773 -1.4104 -1.0154 -0.5994
  284THF    H13 5632   3.711   0.628   3.771  5.0513  1.2104  2.2964
  285THF     O1 5633   2.939   1.949   2.423  0.3268  0.3301  0.1094
  285THF     C2 5634   3.073   1.982   2.455 -0.3363  0.0772 -0.8149
  285THF     C3 5635   2.954   1.823   2.367  0.4796  0.2209 -0.0997
  285THF     H4 5636   3.108   1.920   2.538 -2.3038 -0.8428 -0.6271
  285THF     H5 5637   3.089   2.086   2.483  4.5169 -0.2729 -1.3901
  285THF     H6 5638   2.974   1.748   2.444  0.2850  0.4788  0.2071
  285THF     H7 5639   2.859   1.796   2.320  0.5685 -3.0710  1.2959
  285THF     C8 5640   3.069   1.845   2.267 -0.2858  0.5320 -0.0532
  285THF     C9 5641   3.155   1.952   2.334 -0.6801 -0.1535  0.0170
  285THF    H10 5642   3.029   1.867   2.168 -0.6545 -0.5623 -0.1636
  285THF    H11 5643   3.132   1.758   2.246  0.7459  1.0782  0.6815
  285THF    H12 5644   3.256   1.912   2.349 -0.0056  0.3421 -2.6581
  285THF    H13 5645   3.163   2.037   2.266  1.3072  0.0716  0.4502
  286THF     O1 5646   2.209   5.195   2.320 -0.2738  0.0384 -0.1147
  286THF     C2 5647   2.093   5.272   2.343  0.7367 -0.9986  0.3896
  286THF     C3 5648   2.254   5.238   2.189  0.0192  0.3134  0.3298
  286THF     H4 5649   2.095   5.283   2.452  0.4439 -0.5212  0.3469
  286THF     H5 5650   2.005   5.214   2.316  0.8181 -1.2253  0.6020
  286THF     H6 5651   2.358   5.211   2.174  0.5304 -0.2736  4.0129
  286THF     H7 5652   2.182   5.196   2.119  0.6860  2.3328 -1.6879
  286THF     C8 5653   2.232   5.388   2.198 -0.1685  0.8906  0.2781
  286THF     C9 5654   2.103   5.402   2.258  0.0314  0.2339  0.6764
  286THF    H10 5655   2.239   5.434   2.099 -0.2475  0.1229 -0.0900
  286THF    H11 5656   2.310   5.432   2.261  0.5281 -1.4901  1.1864
  286THF    H12 5657   2.089   5.503   2.296 -0.5292  0.8826 -1.1762
  286THF    H13 5658   2.024   5.399   2.184  0.9050  1.2810 -0.3334
  287THF     O1 5659   0.639   1.312   4.145 -0.4090 -0.1213 -0.3961
  287THF     C2 5660   0.631   1.456   4.116  0.6917  0.4191  0.4371
  287THF     C3 5661   0.626   1.247   4.021  1.1807  0.6235  0.0862
  287THF     H4 5662   0.721   1.501   4.076 -0.5934  2.0783 -0.7241
  287THF     H5 5663   0.611   1.524   4.200 -0.2262  2.0756 -1.0523
  287THF     H6 5664   0.715   1.266   3.962  1.5897  1.4040  0.9315
  287THF     H7 5665   0.602   1.141   4.020  0.9393  0.5668 -3.7818
  287THF     C8 5666   0.504   1.314   3.960  0.1617 -0.7537  0.2633
  287THF     C9 5667   0.522   1.464   4.005  0.7243  0.1115 -0.0197
  287THF    H10 5668   0.412   1.275   4.002 -0.1374  0.0927  0.4172
  287THF    H11 5669   0.501   1.311   3.851  0.0446  1.8212  0.1327
  287THF    H12 5670   0.543   1.533   3.923 -2.1207 -0.3911 -1.2671
  287THF    H13 5671   0.430   1.500   4.050  0.8555  0.3945  0.0265
  288THF     O1 5672   0.036   1.542   2.142  0.1201 -0.0031 -0.1554
  288THF     C2 5673   0.134   1.507   2.046 -0.1135  0.2360  0.5511
  288THF     C3 5674  -0.067   1.621   2.079 -0.0049  0.5061  0.3797
  288THF     H4 5675   0.105   1.417   1.991 -0.2356 -0.2029  1.3114
  288THF     H5 5676   0.230   1.477   2.089  0.4183 -1.6130 -1.7088
  288THF     H6 5677  -0.161   1.568   2.067  0.6531 -0.9805  1.5647
  288THF     H7 5678  -0.088   1.703   2.148  1.8915  2.0537 -0.7494
  288THF     C8 5679  -0.004   1.665   1.946  0.4685 -0.7820  0.4381
  288THF     C9 5680   0.141   1.637   1.969  0.2780 -0.3099  0.2041
  288THF    H10 5681  -0.032   1.769   1.925  2.9396 -0.0504  0.4479
  288THF    H11 5682  -0.047   1.600   1.871 -1.7857 -0.5048  1.3938
  288THF    H12 5683   0.206   1.617   1.884  2.8457  0.5579  1.8428
  288THF    H13 5684   0.186   1.719   2.024 -2.7387  2.7738 -1.5161
  289THF     O1 5685   4.859   3.752   2.910 -0.9680  0.8681 -0.7555
  289THF     C2 5686   4.793   3.784   3.024  0.3818 -0.2686 -0.5725
  289THF     C3 5687   4.776   3.672   2.822 -0.1629 -0.6230  0.4008
  289THF     H4 5688   4.778   3.891   3.038 -1.5364 -0.5452 -0.1849
  289THF     H5 5689   4.854   3.743   3.105  1.8474 -0.6434 -1.8159
  289THF     H6 5690   4.781   3.690   2.715 -0.4879 -0.2743  0.4431
  289THF     H7 5691   4.806   3.570   2.844  1.8255 -0.3943 -0.9510
  289THF     C8 5692   4.635   3.705   2.865 -0.4400  0.0448 -0.4249
  289THF     C9 5693   4.654   3.722   3.018  0.1027 -0.4132  0.0604
  289THF    H10 5694   4.561   3.625   2.863  0.2923 -0.8690  2.8511
  289THF    H11 5695   4.614   3.803   2.824  0.5859  0.2302 -0.5472
  289THF    H12 5696   4.573   3.774   3.070 -0.8803  0.9251 -2.6136
  289THF    H13 5697   4.662   3.626   3.068  1.4258  0.3597  1.4376
  290THF     O1 5698   1.383   0.536   4.216 -0.3300 -0.2632 -0.0641
  290THF     C2 5699   1.357   0.392   4.224 -0.3890  0.1929 -0.1758
  290THF     C3 5700   1.288   0.608   4.290 -0.2802 -0.0211 -0.2320
  290THF     H4 5701   1.450   0.336   4.214  0.3815  0.6081  3.2257
  290THF     H5 5702   1.279   0.369   4.151 -0.7615 -0.5456  0.4386
  290THF     H6 5703   1.327   0.705   4.322 -0.7809  0.2685 -0.4880
  290THF     H7 5704   1.199   0.626   4.230 -1.9231  2.0036  2.5487
  290THF     C8 5705   1.262   0.518   4.410  0.4227  0.0559  0.8042
  290THF     C9 5706   1.335   0.389   4.376  1.1015 -1.1043  0.7666
  290THF    H10 5707   1.159   0.508   4.443  0.8887 -1.5876  1.8564
  290THF    H11 5708   1.305   0.548   4.506  0.2634 -0.5925  1.0822
  290THF    H12 5709   1.426   0.393   4.436 -0.2083  1.2863  2.7974
  290THF    H13 5710   1.281   0.301   4.409  0.4593 -0.7399  0.6941
  291THF     O1 5711   2.698   2.858   0.183  0.6067 -0.7845 -0.8014
  291THF     C2 5712   2.580   2.924   0.127 -0.0199 -0.6242  0.4062
  291THF     C3 5713   2.694   2.724   0.137  0.0628  0.0950  0.3224
  291THF     H4 5714   2.608   2.932   0.022 -0.9794 -4.5458 -0.2861
  291THF     H5 5715   2.568   3.021   0.176 -0.8551  0.7317 -2.2909
  291THF     H6 5716   2.745   2.719   0.041  1.0042  2.1290  0.6560
  291THF     H7 5717   2.753   2.660   0.203  1.3492 -1.3319 -2.0766
  291THF     C8 5718   2.548   2.680   0.135 -0.6011  0.4325  0.1888
  291THF     C9 5719   2.476   2.813   0.151 -0.4565 -0.3841 -0.8971
  291THF    H10 5720   2.521   2.605   0.208 -4.1156 -0.0802 -1.4324
  291THF    H11 5721   2.527   2.633   0.039  1.8343  0.2803 -0.3339
  291THF    H12 5722   2.391   2.824   0.083  0.2098  0.6144 -1.6011
  291THF    H13 5723   2.444   2.814   0.255  1.7234 -0.3680 -0.1784
  292THF     O1 5724   2.833   0.315   2.731 -0.3731 -0.1234  0.1670
  292THF     C2 5725   2.766   0.425   2.657  0.3849 -0.3486 -0.2250
  292THF     C3 5726   2.736   0.210   2.735  0.0938  0.8192 -0.4214
  292THF     H4 5727   2.809   0.449   2.560 -0.7932 -0.3470 -0.7702
  292THF     H5 5728   2.775   0.519   2.712  1.8874 -0.6201  0.0400
  292THF     H6 5729   2.738   0.133   2.658  0.1055 -0.6507  0.9952
  292THF     H7 5730   2.753   0.153   2.827  2.1069  0.8089 -0.7565
  292THF     C8 5731   2.604   0.281   2.750 -0.4309  0.2296 -0.1646
  292THF     C9 5732   2.615   0.398   2.658  0.3612 -0.7945  0.3851
  292THF    H10 5733   2.595   0.300   2.857  0.6955 -2.2081  0.4464
  292THF    H11 5734   2.520   0.217   2.724  0.7145 -1.5831  0.3684
  292THF    H12 5735   2.584   0.364   2.559  2.9994 -0.6976 -0.5618
  292THF    H13 5736   2.556   0.481   2.700 -1.3839 -2.3885  1.2238
  293THF     O1 5737   3.650   2.391   1.333 -0.3622 -0.5809  0.1051
  293THF     C2 5738   3.627   2.423   1.197  0.3400  0.2044  0.0424
  293THF     C3 5739   3.681   2.510   1.403 -0.0965  0.3988  0.1333
  293THF     H4 5740   3.575   2.343   1.143 -0.5806  0.3394  0.7055
  293THF     H5 5741   3.726   2.437   1.155 -0.7264  3.0602 -1.8134
  293THF     H6 5742   3.665   2.494   1.510 -2.6914  0.0415 -0.2437
  293THF     H7 5743   3.785   2.539   1.392 -0.2066  0.2039 -1.6239
  293THF     C8 5744   3.585   2.614   1.341  0.6038  0.6700  0.7122
  293THF     C9 5745   3.570   2.568   1.192 -0.7288  0.1067 -0.5911
  293THF    H10 5746   3.609   2.720   1.351 -1.2691  1.0446  1.7734
  293THF    H11 5747   3.486   2.590   1.381 -0.3480 -1.2622 -2.4018
  293THF    H12 5748   3.470   2.569   1.149 -0.6029 -0.6796 -0.9267
  293THF    H13 5749   3.624   2.640   1.131 -0.9335  4.5798  3.8040
  294THF     O1 5750   3.616   0.506   5.019 -0.8203  0.5867 -0.3733
  294THF     C2 5751   3.658   0.542   4.889  0.0698 -0.5354  0.1077
  294THF     C3 5752   3.476   0.516   5.019 -0.2911 -0.1733 -0.2581
  294THF     H4 5753   3.758   0.502   4.871  0.3310 -0.4693  1.3081
  294THF     H5 5754   3.660   0.651   4.882  1.3712 -0.4326  1.5527
  294THF     H6 5755   3.422   0.430   5.057  1.7183 -1.1542  0.5265
  294THF     H7 5756   3.461   0.606   5.079  2.2927 -0.2701  0.6601
  294THF     C8 5757   3.428   0.524   4.872 -0.2597  0.2007  0.0587
  294THF     C9 5758   3.555   0.496   4.794 -0.0495  0.4965 -0.6768
  294THF    H10 5759   3.397   0.626   4.851  1.0893  0.2911 -1.7303
  294THF    H11 5760   3.349   0.450   4.857 -0.7812  1.0677 -1.8918
  294THF    H12 5761   3.571   0.389   4.787  0.8287  0.4410  1.4657
  294THF    H13 5762   3.560   0.538   4.693 -2.6192 -0.4091 -1.2438
  295THF     O1 5763   0.829   4.960   2.832  0.3210  0.0718 -0.2956
  295THF     C2 5764   0.888   5.065   2.903  0.4992  0.9383 -0.6541
  295THF     C3 5765   0.881   4.968   2.696  0.2897 -0.0086  0.3383
  295THF     H4 5766   0.995   5.063   2.924  0.4194  0.9585 -0.2407
  295THF     H5 5767   0.840   5.074   3.000  1.4757  0.3678 -0.1011
  295THF     H6 5768   0.964   4.897   2.692  0.4050  0.1194  0.4564
  295THF     H7 5769   0.795   4.947   2.632  0.4268 -0.8913  0.4229
  295THF     C8 5770   0.910   5.118   2.680  0.5854 -0.3555  0.2200
  295THF     C9 5771   0.865   5.185   2.807  0.9196  0.6613  0.6551
  295THF    H10 5772   0.864   5.153   2.588 -0.0027  0.5309  0.8362
  295THF    H11 5773   1.018   5.133   2.669  0.2509  0.6687 -2.4463
  295THF    H12 5774   0.923   5.271   2.841  1.1759  0.3711  0.9496
  295THF    H13 5775   0.759   5.209   2.804  1.0702  1.5346  1.7752
  296THF     O1 5776   0.493   5.464   0.771 -0.3726  0.4135  0.2059
  296THF     C2 5777   0.426   5.359   0.833 -0.3360  0.0650  0.0135
  296THF     C3 5778   0.639   5.459   0.804 -0.2985  0.3662 -0.0163
  296THF     H4 5779   0.446   5.274   0.768 -0.4526 -0.3842  0.5528
  296THF     H5 5780   0.317   5.362   0.845 -0.5015 -3.1127  0.2576
  296THF     H6 5781   0.680   5.391   0.730 -0.7012 -0.6798  0.7037
  296THF     H7 5782   0.687   5.557   0.798  2.5812 -0.9087  0.5753
  296THF     C8 5783   0.644   5.378   0.933 -0.1223  0.4419 -0.2704
  296THF     C9 5784   0.502   5.334   0.973  0.2536 -0.4589  0.4017
  296THF    H10 5785   0.684   5.443   1.011 -0.4935  0.9768 -0.5188
  296THF    H11 5786   0.717   5.298   0.939 -1.0619 -0.3345  1.6942
  296THF    H12 5787   0.489   5.235   1.017 -0.6448 -0.4661  0.1284
  296THF    H13 5788   0.466   5.410   1.042 -0.7104  0.8250 -1.4318
  297THF     O1 5789   4.599   4.178   0.495  0.4879 -0.3451 -0.1002
  297THF     C2 5790   4.715   4.141   0.414  0.2092 -1.0030  0.9869
  297THF     C3 5791   4.590   4.318   0.475 -0.4957  0.4073  0.1258
  297THF     H4 5792   4.685   4.135   0.310  0.2557 -0.3309  0.9320
  297THF     H5 5793   4.750   4.041   0.442 -0.3803 -1.9788 -1.5317
  297THF     H6 5794   4.533   4.330   0.383 -0.3187 -0.7273 -0.1527
  297THF     H7 5795   4.544   4.366   0.561  1.4764 -1.4490  2.3476
  297THF     C8 5796   4.740   4.370   0.459  0.2260 -0.5077 -0.1022
  297THF     C9 5797   4.823   4.249   0.436 -0.5770  0.4713 -0.5174
  297THF    H10 5798   4.774   4.429   0.544 -0.8243  0.6019 -0.4277
  297THF    H11 5799   4.758   4.426   0.368 -1.4828 -1.2316 -0.9275
  297THF    H12 5800   4.900   4.261   0.360  2.1961  0.2685  2.0484
  297THF    H13 5801   4.872   4.228   0.531 -1.4843  1.1196  0.1159
  298THF     O1 5802   4.553   1.998   4.028 -0.2428  0.1547 -0.2956
  298THF     C2 5803   4.649   2.070   3.945 -0.0838 -0.0516 -0.1468
  298THF     C3 5804   4.621   1.988   4.148  0.5415 -0.1061  0.2499
  298THF     H4 5805   4.597   2.116   3.861  1.1196  1.8784  0.1077
  298THF     H5 5806   4.716   1.996   3.899  1.9983  1.8655 -0.3685
  298THF     H6 5807   4.563   1.970   4.238  1.0412  0.4344  0.6911
  298THF     H7 5808   4.689   1.903   4.144  1.6853  0.8067 -1.7337
  298THF     C8 5809   4.708   2.114   4.160  0.4954  0.2935 -1.2228
  298THF     C9 5810   4.712   2.182   4.027  0.4808  0.3477  0.0967
  298THF    H10 5811   4.810   2.105   4.197 -0.5416  1.9770  2.5163
  298THF    H11 5812   4.657   2.182   4.227  1.4138  1.5880 -1.7775
  298THF    H12 5813   4.644   2.267   4.026  0.0506 -0.0029 -0.9549
  298THF    H13 5814   4.813   2.206   3.993  1.2343 -3.1245 -0.5276
  299THF     O1 5815   2.217   2.027   5.262  0.1179 -0.0450  0.0625
  299THF     C2 5816   2.340   1.999   5.194 -0.3480 -0.4131  0.6902
  299THF     C3 5817   2.166   1.897   5.310  0.3197 -0.5655 -0.0474
  299THF     H4 5818   2.407   2.085   5.183  0.3274 -1.0782 -0.4705
  299THF     H5 5819   2.317   1.950   5.100 -0.9239  0.1474  0.5292
  299THF     H6 5820   2.080   1.906   5.376 -0.1344 -0.4222 -0.6500
  299THF     H7 5821   2.133   1.830   5.231  1.7555 -0.8158 -0.4769
  299THF     C8 5822   2.290   1.845   5.380  0.2492 -0.5584  0.8452
  299THF     C9 5823   2.401   1.899   5.288  0.8992 -0.4761  0.2455
  299THF    H10 5824   2.294   1.738   5.401 -2.0089 -1.0783 -0.9424
  299THF    H11 5825   2.288   1.897   5.476  1.1374  0.2613  0.4202
  299THF    H12 5826   2.476   1.947   5.351 -1.9721  3.5106  1.0382
  299THF    H13 5827   2.454   1.820   5.234  0.9294 -0.3348  0.0667
  300THF     O1 5828   2.624   4.076   0.988  0.0714  0.8098  0.7422
  300THF     C2 5829   2.558   4.187   1.032 -0.1397 -0.6047  0.5820
  300THF     C3 5830   2.523   3.983   0.942 -0.7707 -0.0510  0.0359
  300THF     H4 5831   2.630   4.268   1.022  0.2096 -0.4172  3.7355
  300THF     H5 5832   2.527   4.172   1.135  0.4607 -0.1143  0.8372
  300THF     H6 5833   2.577   3.918   0.873 -1.1620  3.1554 -3.6552
  300THF     H7 5834   2.488   3.932   1.031  2.2923 -2.1945  0.1885
  300THF     C8 5835   2.422   4.083   0.874 -0.5324  0.1631 -0.7374
  300THF     C9 5836   2.433   4.219   0.950  1.1033  0.2983  0.4717
  300THF    H10 5837   2.324   4.036   0.867 -0.7816  0.7570 -1.3028
  300THF    H11 5838   2.452   4.098   0.771 -2.1892 -0.1279 -1.2815
  300THF    H12 5839   2.456   4.300   0.881  0.5674  2.1868  2.3730
  300THF    H13 5840   2.342   4.243   1.005 -0.2899 -2.5755 -0.4193
  301THF     O1 5841   4.435   3.159   1.083 -0.4068 -0.5474  0.8082
  301THF     C2 5842   4.340   3.205   0.986 -0.3020 -0.4705 -0.1018
  301THF     C3 5843   4.416   3.020   1.096 -0.6602 -0.1321  0.3760
  301THF     H4 5844   4.385   3.262   0.905 -0.2923 -3.1842 -2.1641
  301THF     H5 5845   4.275   3.279   1.032  1.8196 -0.0123  2.3716
  301THF     H6 5846   4.489   2.971   1.031 -0.1997  1.9758 -0.7786
  301THF     H7 5847   4.442   2.998   1.200 -0.7035  1.0300  0.6441
  301THF     C8 5848   4.271   2.991   1.045 -0.1493  0.4515  0.2760
  301THF     C9 5849   4.261   3.082   0.931  0.6809  0.7735  0.2080
  301THF    H10 5850   4.206   3.018   1.128 -2.3333 -0.0555 -1.1981
  301THF    H11 5851   4.260   2.889   1.008 -0.2914  0.2891  0.7659
  301THF    H12 5852   4.314   3.024   0.855  0.2985  0.6816  0.0102
  301THF    H13 5853   4.158   3.096   0.899  0.5130  0.2229  0.5179
  302THF     O1 5854   2.269   1.424   4.902  0.3681  0.0297 -0.0771
  302THF     C2 5855   2.339   1.451   4.781 -0.0031  0.2270  0.2452
  302THF     C3 5856   2.282   1.534   4.990 -0.1716 -0.1422 -0.1471
  302THF     H4 5857   2.289   1.398   4.699  1.2730 -1.0292  0.2329
  302THF     H5 5858   2.446   1.440   4.797 -0.3045  1.7581  4.4466
  302THF     H6 5859   2.199   1.542   5.060 -0.7466  0.3632 -0.8738
  302THF     H7 5860   2.370   1.510   5.050 -0.1273  0.2002 -0.0766
  302THF     C8 5861   2.299   1.660   4.897 -0.1801 -0.4326 -0.0193
  302THF     C9 5862   2.327   1.602   4.760  0.3551  0.6939 -0.1748
  302THF    H10 5863   2.384   1.722   4.924  0.0856  1.9971 -5.1554
  302THF    H11 5864   2.214   1.728   4.910 -0.5082 -0.8551  0.0677
  302THF    H12 5865   2.235   1.622   4.705 -1.4834 -1.3364  1.9421
  302THF    H13 5866   2.414   1.638   4.705  0.5695  1.3621  0.6046
  303THF     O1 5867   1.667   0.566   1.454 -0.4420  0.0912 -0.1843
  303THF     C2 5868   1.756   0.557   1.345  0.0531 -0.0584  0.0104
  303THF     C3 5869   1.640   0.436   1.499  0.1913 -0.3344 -0.1368
  303THF     H4 5870   1.856   0.565   1.389 -0.5270  2.2300  1.0624
  303THF     H5 5871   1.739   0.645   1.283 -0.6396 -0.8629 -0.9582
  303THF     H6 5872   1.712   0.391   1.568  1.3794 -1.3806 -1.9540
  303THF     H7 5873   1.546   0.442   1.554  1.0895 -1.8834  1.6905
  303THF     C8 5874   1.630   0.364   1.366  0.0186  0.1014 -0.6863
  303THF     C9 5875   1.738   0.424   1.285  0.2969  0.2428  0.0760
  303THF    H10 5876   1.532   0.382   1.320 -0.1397  1.5051  0.1408
  303THF    H11 5877   1.654   0.258   1.376  3.2229  0.9645  3.8093
  303THF    H12 5878   1.827   0.362   1.297  1.9553  2.0972 -1.9372
  303THF    H13 5879   1.702   0.406   1.184  1.5630 -2.8993  0.0450
  304THF     O1 5880   1.690   4.535   5.185 -0.0235  0.1717  0.0314
  304THF     C2 5881   1.693   4.398   5.223 -1.1357 -0.1441 -0.0470
  304THF     C3 5882   1.554   4.565   5.200  0.3219 -0.0403  0.0930
  304THF     H4 5883   1.700   4.380   5.330  0.8381 -0.0842 -0.1274
  304THF     H5 5884   1.785   4.354   5.183 -1.5573 -0.4256 -0.7177
  304THF     H6 5885   1.538   4.582   5.307  0.5169  2.5503 -0.2315
  304THF     H7 5886   1.531   4.659   5.150 -0.2694 -0.4900 -0.4976
  304THF     C8 5887   1.485   4.449   5.132  0.0602  0.1536  0.6628
  304THF     C9 5888   1.576   4.337   5.155  0.1146  0.1382  0.4629
  304THF    H10 5889   1.474   4.477   5.027  3.8263  2.7802  0.7461
  304THF    H11 5890   1.386   4.428   5.172 -0.6166 -1.1277 -1.5090
  304THF    H12 5891   1.528   4.247   5.195 -0.0991 -1.0341 -2.1951
  304THF    H13 5892   1.605   4.295   5.059  0.8069 -0.6142  0.9820
  305THF     O1 5893   0.704   3.570   3.425 -0.2585 -0.4524  0.0945
  305THF     C2 5894   0.785   3.579   3.307  0.0482 -0.6510  0.0614
  305THF     C3 5895   0.740   3.672   3.517  0.3590  0.2488 -0.3413
  305THF     H4 5896   0.745   3.655   3.240  1.2705  1.6343  1.7444
  305THF     H5 5897   0.792   3.478   3.268  0.8975 -0.8005  0.5624
  305THF     H6 5898   0.656   3.741   3.520  0.9485  1.2601 -3.4860
  305THF     H7 5899   0.746   3.626   3.615 -2.8407 -0.4547 -0.3836
  305THF     C8 5900   0.861   3.729   3.464 -0.6894 -0.0286 -0.5012
  305THF     C9 5901   0.920   3.627   3.368 -0.1395  0.2496  0.0595
  305THF    H10 5902   0.922   3.759   3.549 -0.6273 -1.3922 -0.0491
  305THF    H11 5903   0.848   3.825   3.414 -1.9026 -1.1470 -2.4577
  305THF    H12 5904   0.989   3.663   3.292  0.5316  0.8568  0.9384
  305THF    H13 5905   0.953   3.542   3.429  1.2666 -0.3338 -1.4556
  306THF     O1 5906   3.329   5.324   3.162  0.2967 -0.7379 -0.5321
  306THF     C2 5907   3.355   5.188   3.137  0.3191  0.2720  0.2074
  306THF     C3 5908   3.235   5.332   3.262  0.1447 -0.4150 -0.0529
  306THF     H4 5909   3.435   5.157   3.205  1.7135 -1.4203 -2.0696
  306THF     H5 5910   3.380   5.173   3.033 -1.3271 -1.9934  0.0668
  306THF     H6 5911   3.271   5.366   3.359 -0.6941  3.7354 -0.9885
  306THF     H7 5912   3.179   5.420   3.232  1.9784  1.3662  1.4456
  306THF     C8 5913   3.163   5.199   3.278 -0.1271  0.2795  0.0167
  306THF     C9 5914   3.224   5.120   3.161  0.2375  0.4360 -0.2670
  306THF    H10 5915   3.054   5.203   3.279 -0.1093  2.5868 -0.6327
  306THF    H11 5916   3.191   5.160   3.375  0.7266  3.0473  0.9776
  306THF    H12 5917   3.252   5.018   3.188  1.2765  0.2733 -1.7873
  306THF    H13 5918   3.164   5.133   3.071 -1.4350 -0.5445  0.6641
  307THF     O1 5919   2.555   4.493   1.590 -0.2251  0.2406 -0.0079
  307THF     C2 5920   2.584   4.603   1.671 -0.1216  0.2252 -0.0746
  307THF     C3 5921   2.491   4.401   1.677  0.5231  0.1789  0.2666
  307THF     H4 5922   2.575   4.695   1.613 -3.0087  0.0815 -0.0049
  307THF     H5 5923   2.684   4.588   1.711 -0.1715 -0.2748 -0.1308
  307THF     H6 5924   2.432   4.330   1.619  0.1255  1.2307 -0.6604
  307THF     H7 5925   2.564   4.353   1.742  2.6069  1.2124 -1.1782
  307THF     C8 5926   2.399   4.486   1.762  0.7275 -0.2286  0.4603
  307THF     C9 5927   2.476   4.621   1.770  0.2230 -0.8059  0.2310
  307THF    H10 5928   2.388   4.445   1.862  0.8484  0.7576  0.8901
  307THF    H11 5929   2.304   4.517   1.718  0.4233  0.9390  1.8561
  307THF    H12 5930   2.404   4.695   1.735 -0.4197 -1.0209  1.0521
  307THF    H13 5931   2.506   4.647   1.872 -0.0504 -1.0935  0.3885
  308THF     O1 5932   4.795   0.060   2.078  0.0953 -0.0533  0.2725
  308THF     C2 5933   4.750   0.101   1.952  0.3680 -0.0349 -0.2839
  308THF     C3 5934   4.804  -0.080   2.070  0.7073 -0.7251 -1.0383
  308THF     H4 5935   4.770   0.208   1.949 -0.3798  0.1447  0.7247
  308THF     H5 5936   4.645   0.077   1.935  0.6400 -2.2847  0.9094
  308THF     H6 5937   4.870  -0.124   2.145 -0.0198 -2.8897 -1.5832
  308THF     H7 5938   4.705  -0.125   2.082 -0.5851  1.7814 -1.6126
  308THF     C8 5939   4.855  -0.104   1.927  0.0960  0.1304  0.2387
  308THF     C9 5940   4.842   0.030   1.856  0.7999 -0.1739 -0.5985
  308THF    H10 5941   4.808  -0.181   1.865 -1.9841  0.2378  1.5947
  308THF    H11 5942   4.961  -0.131   1.931  0.5820  1.7701 -0.7440
  308THF    H12 5943   4.938   0.081   1.860  2.0918 -2.4510  2.4778
  308THF    H13 5944   4.797   0.021   1.758 -0.5120  0.3108 -0.0651
  309THF     O1 5945   3.338   4.506   4.574 -0.0776  0.0181 -0.4206
  309THF     C2 5946   3.197   4.475   4.589  0.5413  0.2516  0.4806
  309THF     C3 5947   3.365   4.635   4.616 -0.6123  0.6320 -0.1932
  309THF     H4 5948   3.167   4.375   4.622 -0.1061 -0.4469 -2.0084
  309THF     H5 5949   3.162   4.478   4.486  1.3441 -0.2639  0.1820
  309THF     H6 5950   3.442   4.639   4.692 -1.0526  0.9294  0.2474
  309THF     H7 5951   3.397   4.697   4.532 -0.9659 -0.5186 -1.2210
  309THF     C8 5952   3.233   4.702   4.665  0.0290  0.0105  0.4366
  309THF     C9 5953   3.137   4.588   4.682  0.0054  0.1001 -0.1064
  309THF    H10 5954   3.203   4.770   4.586 -0.1476 -0.4164  0.1356
  309THF    H11 5955   3.252   4.758   4.757  4.5538  0.5592 -0.5798
  309THF    H12 5956   3.130   4.561   4.787 -1.5048  0.0122 -0.2035
  309THF    H13 5957   3.032   4.606   4.658 -0.3277 -1.0620  0.4503
  310THF     O1 5958   1.471   0.193   3.616  0.0957 -0.7076  0.0348
  310THF     C2 5959   1.403   0.318   3.587 -0.1863 -0.1808 -0.1621
  310THF     C3 5960   1.525   0.214   3.748 -0.3456 -0.5080  0.1326
  310THF     H4 5961   1.334   0.310   3.503 -1.0853 -0.7062  0.6040
  310THF     H5 5962   1.480   0.384   3.547 -1.9864  0.8833 -2.1413
  310THF     H6 5963   1.518   0.125   3.812  1.5663  1.2321  2.9875
  310THF     H7 5964   1.629   0.246   3.753 -0.4169 -0.0063 -1.2672
  310THF     C8 5965   1.442   0.313   3.820  0.1194 -1.4456 -0.3877
  310THF     C9 5966   1.346   0.371   3.717 -0.1412 -0.2764  0.2006
  310THF    H10 5967   1.506   0.390   3.863 -0.3599 -1.6223  0.6700
  310THF    H11 5968   1.389   0.266   3.903  0.6080  0.7692  1.2827
  310THF    H12 5969   1.244   0.332   3.724  0.4131 -2.0570 -1.1951
  310THF    H13 5970   1.347   0.480   3.721  1.0078 -0.3113  1.3646
  311THF     O1 5971   2.017   1.161   1.601 -0.0081 -0.1125 -0.0810
  311THF     C2 5972   2.073   1.285   1.636  0.7810 -0.5870  0.0041
  311THF     C3 5973   2.125   1.072   1.572  0.0417  0.1283 -0.3958
  311THF     H4 5974   2.109   1.271   1.738  2.4426 -0.5088 -0.5378
  311THF     H5 5975   1.999   1.365   1.632  0.0028 -1.1812  1.7118
  311THF     H6 5976   2.149   0.994   1.644  1.6552  0.7388 -0.2277
  311THF     H7 5977   2.089   1.014   1.487 -1.4598 -1.3467  1.1872
  311THF     C8 5978   2.244   1.159   1.531  0.5227 -0.3570  0.4655
  311THF     C9 5979   2.197   1.299   1.553  0.8717  0.0676 -0.2617
  311THF    H10 5980   2.274   1.156   1.426 -1.5584  0.5985 -0.1953
  311THF    H11 5981   2.336   1.134   1.584 -0.4407 -1.9778  1.4642
  311THF    H12 5982   2.269   1.370   1.593 -2.6005  3.0638  1.2129
  311THF    H13 5983   2.172   1.340   1.455  0.8329  2.5753  0.7228
  312THF     O1 5984   1.001   3.705   1.876  0.4673 -0.2735 -0.6895
  312THF     C2 5985   1.111   3.731   1.961 -0.5766 -0.0856 -0.1478
  312THF     C3 5986   0.983   3.825   1.801 -0.0616  0.2051  0.0678
  312THF     H4 5987   1.155   3.645   2.011  0.8839  1.4654  1.3627
  312THF     H5 5988   1.094   3.796   2.047  2.0471 -1.0532  1.1976
  312THF     H6 5989   0.909   3.827   1.721 -0.2004 -1.6338  0.1126
  312THF     H7 5990   0.942   3.893   1.875 -0.3851  0.1042 -0.0164
  312THF     C8 5991   1.125   3.867   1.764 -0.0404 -0.1972 -0.4471
  312THF     C9 5992   1.210   3.803   1.869 -0.3410  0.2849 -0.6001
  312THF    H10 5993   1.134   3.975   1.751  1.7967 -0.1050  1.1236
  312THF    H11 5994   1.141   3.819   1.668  0.4711 -1.1467  0.0984
  312THF    H12 5995   1.271   3.723   1.826  1.2808  0.2765  1.5560
  312THF    H13 5996   1.274   3.876   1.918  1.7317  0.3346 -3.1463
  313THF     O1 5997   1.661   3.828   0.455 -0.6581 -0.3958  0.4703
  313THF     C2 5998   1.555   3.872   0.539 -0.0966  0.5736 -0.1303
  313THF     C3 5999   1.608   3.756   0.351  0.2829 -0.1204 -0.3765
  313THF     H4 6000   1.591   3.950   0.605 -1.7333  0.1776  1.3047
  313THF     H5 6001   1.512   3.790   0.597 -1.0781  1.5005  0.4740
  313THF     H6 6002   1.659   3.799   0.265  0.9159 -1.0775 -0.4941
  313THF     H7 6003   1.622   3.648   0.361 -0.0953 -0.0277  1.7295
  313THF     C8 6004   1.456   3.791   0.344  0.4468  0.0815  0.2784
  313THF     C9 6005   1.444   3.907   0.444 -0.3931 -0.3555  0.1871
  313THF    H10 6006   1.397   3.706   0.378 -0.0662  0.0330 -0.7078
  313THF    H11 6007   1.416   3.811   0.245 -1.0374 -0.0342  0.8236
  313THF    H12 6008   1.479   3.994   0.389 -1.4227 -0.6531 -1.0043
  313THF    H13 6009   1.340   3.922   0.476 -0.3428  1.2491 -0.3235
  314THF     O1 6010   2.521   0.541   1.544 -0.1721  0.0820  0.2588
  314THF     C2 6011   2.464   0.625   1.437 -0.3968  0.6142 -0.3077
  314THF     C3 6012   2.415   0.520   1.629  0.3107  0.3887  0.2226
  314THF     H4 6013   2.443   0.561   1.352 -1.3077 -0.7420  0.8963
  314THF     H5 6014   2.536   0.698   1.400  1.4103 -0.5693  0.6912
  314THF     H6 6015   2.334   0.458   1.590  0.9210 -0.5077  0.3315
  314THF     H7 6016   2.463   0.493   1.723  1.5558 -0.4913 -0.6256
  314THF     C8 6017   2.352   0.662   1.636 -0.3148  0.5713 -0.7050
  314THF     C9 6018   2.339   0.697   1.491  0.5880 -0.3880 -0.2323
  314THF    H10 6019   2.422   0.728   1.688 -0.9921  0.9610 -0.2790
  314THF    H11 6020   2.258   0.661   1.691 -0.5962 -1.2252 -1.1732
  314THF    H12 6021   2.249   0.647   1.454  1.3145 -1.4185 -0.6508
  314THF    H13 6022   2.334   0.805   1.474 -1.0115 -0.5158 -0.6958
  315THF     O1 6023   0.079   4.010   1.111  0.1619  0.2276  0.2525
  315THF     C2 6024  -0.008   4.086   1.193 -0.7976  0.3102  0.2525
  315THF     C3 6025  -0.005   3.966   0.998 -0.4547 -0.2383  0.0098
  315THF     H4 6026   0.053   4.146   1.261  4.9752 -2.5004 -1.7939
  315THF     H5 6027  -0.082   4.026   1.246 -2.1955  0.7335 -1.1366
  315THF     H6 6028   0.053   3.927   0.915  1.2682 -1.1229  1.5677
  315THF     H7 6029  -0.067   3.885   1.036 -1.9214  0.4309 -0.8678
  315THF     C8 6030  -0.095   4.087   0.969 -0.3123  0.9107 -0.4829
  315THF     C9 6031  -0.082   4.168   1.093  0.5052 -0.1021  1.4307
  315THF    H10 6032  -0.193   4.040   0.962  0.6059 -1.0562 -1.2096
  315THF    H11 6033  -0.073   4.142   0.877 -0.1358 -0.9912 -1.6570
  315THF    H12 6034  -0.013   4.246   1.060 -0.6940  0.1208 -0.7674
  315THF    H13 6035  -0.181   4.207   1.118  0.2549  0.5090 -0.3525
  316THF     O1 6036   3.312   3.824   3.029  0.2086 -0.1991 -0.1628
  316THF     C2 6037   3.377   3.918   2.954  0.3845 -0.3278 -0.5954
  316THF     C3 6038   3.204   3.771   2.952  0.6833  0.1676  0.5139
  316THF     H4 6039   3.474   3.948   2.995 -0.2947  1.9571 -0.5028
  316THF     H5 6040   3.314   4.007   2.957 -0.7843 -1.1511 -0.2875
  316THF     H6 6041   3.157   3.683   2.995  0.4992 -0.1385 -0.2921
  316THF     H7 6042   3.126   3.847   2.942 -0.1704 -0.9177 -1.9550
  316THF     C8 6043   3.270   3.755   2.815 -0.3038 -0.4287 -0.2761
  316THF     C9 6044   3.388   3.852   2.821 -0.6845  0.3584  0.2033
  316THF    H10 6045   3.208   3.769   2.726  0.8974 -0.6467 -1.1702
  316THF    H11 6046   3.310   3.655   2.799  1.6631  0.6238 -2.5564
  316THF    H12 6047   3.480   3.795   2.809 -1.3755 -0.9564  0.9475
  316THF    H13 6048   3.381   3.922   2.738  0.2653 -0.0413 -0.2173
  317THF     O1 6049   3.787   3.262   2.486  0.1457  0.0821 -0.6187
  317THF     C2 6050   3.789   3.392   2.551  0.7033 -0.3311 -0.0448
  317THF     C3 6051   3.920   3.217   2.444 -0.0569 -0.0907 -0.9725
  317THF     H4 6052   3.735   3.393   2.646 -0.7677  3.4268 -0.7530
  317THF     H5 6053   3.724   3.456   2.491  0.8467 -1.7614 -1.8194
  317THF     H6 6054   3.961   3.160   2.528 -0.0587  2.8635  1.2083
  317THF     H7 6055   3.922   3.157   2.353 -3.3861  0.2083 -1.3449
  317THF     C8 6056   3.987   3.352   2.437  0.2054  0.3826 -0.4859
  317THF     C9 6057   3.931   3.435   2.551  0.2592 -0.5643 -0.1968
  317THF    H10 6058   3.955   3.391   2.340 -2.7843  2.8649  1.3266
  317THF    H11 6059   4.096   3.340   2.438  0.0381 -1.4893 -1.3219
  317THF    H12 6060   3.988   3.411   2.641  1.9380  0.0563 -1.0402
  317THF    H13 6061   3.959   3.540   2.551  0.3759 -0.5933  0.6824
  318THF     O1 6062   4.649   2.962   2.105  0.3970 -0.0979 -0.4749
  318THF     C2 6063   4.601   2.828   2.083 -0.3761 -0.0645  0.7898
  318THF     C3 6064   4.638   3.028   1.982  0.2573  0.6173 -0.3235
  318THF     H4 6065   4.492   2.833   2.079 -0.3529  0.3886 -2.1722
  318THF     H5 6066   4.628   2.765   2.168 -1.1793  0.1136  1.1783
  318THF     H6 6067   4.535   3.059   1.962 -0.8256 -3.4543 -2.2122
  318THF     H7 6068   4.709   3.110   1.975 -1.2948  1.8843 -2.2388
  318THF     C8 6069   4.666   2.921   1.875 -0.1960  0.2371 -0.1238
  318THF     C9 6070   4.674   2.792   1.955 -0.3036 -0.0441  0.1955
  318THF    H10 6071   4.758   2.949   1.823  0.7587 -1.6445  0.4553
  318THF    H11 6072   4.587   2.919   1.800  0.7803  0.7727 -1.1887
  318THF    H12 6073   4.636   2.701   1.909  0.6622  0.0630 -0.8538
  318THF    H13 6074   4.780   2.776   1.975 -0.0235 -0.6560 -1.5937
  319THF     O1 6075   4.342   4.011   3.861 -0.0862  0.5682 -0.2000
  319THF     C2 6076   4.483   4.028   3.870 -0.6659 -0.5111  0.0840
  319THF     C3 6077   4.296   4.086   3.748 -0.1709 -0.5287  0.5603
  319THF     H4 6078   4.537   3.962   3.802  0.2203  0.4671 -0.1787
  319THF     H5 6079   4.515   4.004   3.972 -0.4071 -0.7846 -0.0584
  319THF     H6 6080   4.293   4.031   3.655 -0.6532 -0.3537  0.4723
  319THF     H7 6081   4.195   4.122   3.768  0.3105  0.9793  0.4496
  319THF     C8 6082   4.400   4.203   3.738  0.0119  0.4959  0.4592
  319THF     C9 6083   4.503   4.173   3.847 -0.9936 -0.0268  1.2896
  319THF    H10 6084   4.355   4.303   3.741  0.3010  0.7065 -1.2987
  319THF    H11 6085   4.450   4.203   3.642  2.3829 -1.1124  1.6132
  319THF    H12 6086   4.603   4.198   3.812 -1.9501  0.5480 -1.2391
  319THF    H13 6087   4.488   4.227   3.941  1.7272  0.0141  1.7887
  320THF     O1 6088   0.379   5.098   2.540 -0.1628  0.2900  1.2610
  320THF     C2 6089   0.324   4.970   2.575 -0.7320 -0.0679 -0.7126
  320THF     C3 6090   0.499   5.111   2.610  0.4298 -0.8070 -0.2612
  320THF     H4 6091   0.378   4.882   2.542 -0.4829  0.5263 -1.9256
  320THF     H5 6092   0.229   4.944   2.527  0.0121 -1.5874 -1.4341
  320THF     H6 6093   0.590   5.066   2.570 -0.6330 -0.5921 -3.1594
  320THF     H7 6094   0.524   5.215   2.633 -0.0799 -0.9816  1.1881
  320THF     C8 6095   0.470   5.044   2.746 -0.3026  0.8768 -0.2260
  320THF     C9 6096   0.329   4.988   2.724 -0.1092  0.1192 -0.0832
  320THF    H10 6097   0.482   5.111   2.831  1.3231 -1.0656  1.1733
  320THF    H11 6098   0.541   4.963   2.760 -2.5715 -1.1320  0.3962
  320THF    H12 6099   0.317   4.898   2.784  1.0294 -0.1714 -0.2723
  320THF    H13 6100   0.251   5.060   2.748  0.3570  0.6974 -0.2872
  321THF     O1 6101   2.095   2.592   4.248 -0.0327  0.1778 -0.2274
  321THF     C2 6102   2.062   2.650   4.369  0.1542 -0.9082  0.1201
  321THF     C3 6103   2.238   2.570   4.264  0.0888 -0.2852 -0.8585
  321THF     H4 6104   1.953   2.642   4.371  0.1266 -0.7468 -0.6928
  321THF     H5 6105   2.085   2.756   4.358  0.6155 -1.0381 -0.1820
  321THF     H6 6106   2.271   2.495   4.191  1.0188  0.9453 -1.7384
  321THF     H7 6107   2.275   2.669   4.241  0.1775  0.5341  2.3366
  321THF     C8 6108   2.278   2.538   4.415  0.1510 -0.7105  0.1709
  321THF     C9 6109   2.151   2.594   4.478  0.9813  0.9429 -0.2068
  321THF    H10 6110   2.366   2.593   4.447 -0.4322  0.5146 -0.2649
  321THF    H11 6111   2.288   2.431   4.435 -1.5536 -0.6578  1.5572
  321THF    H12 6112   2.094   2.531   4.547 -1.5094  1.2331 -1.8584
  321THF    H13 6113   2.175   2.682   4.538  2.5329  0.4921 -0.1274
  322THF     O1 6114   2.542   2.574   5.047  0.6243 -0.3107 -0.0917
  322THF     C2 6115   2.628   2.653   5.132  0.1112  0.2404 -0.1855
  322THF     C3 6116   2.474   2.485   5.141  0.1450  0.1191  0.2291
  322THF     H4 6117   2.572   2.726   5.190 -1.8704 -1.1217 -0.2940
  322THF     H5 6118   2.699   2.695   5.061 -0.6685  1.1760 -0.4315
  322THF     H6 6119   2.394   2.538   5.192 -1.7306 -1.9082 -0.3941
  322THF     H7 6120   2.425   2.406   5.083 -1.4442  1.1130  0.1333
  322THF     C8 6121   2.585   2.436   5.229  0.1463  0.0786 -0.0156
  322THF     C9 6122   2.691   2.543   5.223 -0.0410 -0.3581  0.3667
  322THF    H10 6123   2.619   2.337   5.200  1.4693  0.1630  1.1591
  322THF    H11 6124   2.553   2.400   5.327 -1.8232  0.3721 -0.4973
  322THF    H12 6125   2.716   2.585   5.320 -1.4258 -1.0896  1.0613
  322THF    H13 6126   2.780   2.508   5.169 -0.0679  1.9122 -1.2763
  323THF     O1 6127   1.088   1.162   2.756 -0.1890 -0.3278  0.8426
  323THF     C2 6128   1.050   1.114   2.625  0.1016 -0.0670  0.0208
  323THF     C3 6129   1.157   1.288   2.730  0.5799  0.8747 -0.5568
  323THF     H4 6130   0.964   1.171   2.589  0.2467  0.3376  0.3018
  323THF     H5 6131   1.024   1.008   2.629 -0.7720  0.1420  0.2260
  323THF     H6 6132   1.083   1.368   2.726  0.5413  0.9099  0.4444
  323THF     H7 6133   1.225   1.307   2.813  0.6706  0.3575 -0.5053
  323THF     C8 6134   1.236   1.266   2.597  0.5930  0.4344  1.0510
  323THF     C9 6135   1.165   1.146   2.535  0.3343 -0.1109 -0.2260
  323THF    H10 6136   1.332   1.232   2.634  0.5463 -0.4915  0.3575
  323THF    H11 6137   1.258   1.351   2.533  1.7348 -0.7250 -0.1815
  323THF    H12 6138   1.119   1.154   2.437 -0.2360 -1.7796 -0.1148
  323THF    H13 6139   1.231   1.060   2.522 -0.6653 -0.5463 -2.7892
  324THF     O1 6140   2.180   2.192   0.173 -0.8764 -0.0560 -0.0640
  324THF     C2 6141   2.194   2.253   0.050  0.0242 -0.2372 -0.3702
  324THF     C3 6142   2.286   2.236   0.261  0.4075  0.1482  0.0001
  324THF     H4 6143   2.114   2.326   0.037 -1.0042 -1.2680 -0.0753
  324THF     H5 6144   2.188   2.190  -0.039 -0.1071  0.5909 -0.9585
  324THF     H6 6145   2.238   2.268   0.353  0.0707  0.3918 -0.2582
  324THF     H7 6146   2.358   2.156   0.277 -1.1370 -0.9394  1.9747
  324THF     C8 6147   2.352   2.351   0.191 -0.0476 -0.1584  1.2458
  324THF     C9 6148   2.331   2.320   0.047 -0.2193  0.4179 -0.4364
  324THF    H10 6149   2.457   2.361   0.218  0.0370  0.2783  0.7756
  324THF    H11 6150   2.300   2.440   0.226  0.8615  0.5783  0.7687
  324THF    H12 6151   2.334   2.416  -0.003  3.6095  1.9859  2.3263
  324THF    H13 6152   2.401   2.243   0.014 -1.3523 -0.2352 -1.4204
  325THF     O1 6153   0.720   2.185   2.139  0.4791 -0.0269 -0.1606
  325THF     C2 6154   0.761   2.242   2.012  0.7074  0.4679 -0.8635
  325THF     C3 6155   0.838   2.181   2.218  0.4968 -0.7284  0.3944
  325THF     H4 6156   0.764   2.351   2.006  0.6153  0.6159  1.0736
  325THF     H5 6157   0.695   2.196   1.939  1.3497 -1.2644 -0.3911
  325THF     H6 6158   0.848   2.275   2.271  1.1382 -0.7590  0.3382
  325THF     H7 6159   0.838   2.112   2.303  1.4640 -2.3121 -0.8199
  325THF     C8 6160   0.956   2.139   2.129  0.5343 -0.1698 -0.2708
  325THF     C9 6161   0.898   2.170   1.994  0.0956 -0.0229 -0.0140
  325THF    H10 6162   0.973   2.032   2.143 -0.1095 -0.2192  0.1599
  325THF    H11 6163   1.049   2.194   2.147 -0.1318  0.9402 -0.1644
  325THF    H12 6164   0.971   2.218   1.928 -0.2681 -0.4137 -0.7047
  325THF    H13 6165   0.859   2.074   1.961 -0.3800  0.2582 -0.2661
  326THF     O1 6166   1.196   0.758   0.141  0.0384  0.2390 -0.2836
  326THF     C2 6167   1.265   0.876   0.104  0.1443 -0.1184 -0.0588
  326THF     C3 6168   1.223   0.733   0.276 -0.2531 -0.3620  0.2244
  326THF     H4 6169   1.206   0.964   0.130  0.2379  0.4276 -1.5919
  326THF     H5 6170   1.279   0.862  -0.003 -1.0678  0.7718 -0.3566
  326THF     H6 6171   1.133   0.740   0.336 -0.3076  2.2095 -0.0663
  326THF     H7 6172   1.271   0.635   0.268  0.6897  0.1638 -0.8863
  326THF     C8 6173   1.328   0.839   0.323  0.3509  0.9781 -0.2795
  326THF     C9 6174   1.391   0.888   0.189  0.4218 -0.7590 -0.4465
  326THF    H10 6175   1.393   0.802   0.402  0.3024  1.9322  0.2316
  326THF    H11 6176   1.284   0.929   0.367  0.6546  0.8195  0.3580
  326THF    H12 6177   1.445   0.982   0.203  2.4315 -1.5824 -2.1099
  326THF    H13 6178   1.464   0.814   0.156 -0.8861 -1.6027 -1.5039
  327THF     O1 6179   0.774   4.144   3.345  0.0204 -0.2726  0.2369
  327THF     C2 6180   0.733   4.139   3.209 -0.3099  1.0558  0.1505
  327THF     C3 6181   0.664   4.157   3.430  0.2382 -0.6257 -0.2512
  327THF     H4 6182   0.816   4.116   3.142  0.5574  0.2867  1.4536
  327THF     H5 6183   0.694   4.237   3.181 -1.5926  0.6606  0.5247
  327THF     H6 6184   0.687   4.111   3.525  1.9033  1.2590  0.3225
  327THF     H7 6185   0.643   4.263   3.444  0.7441 -0.2536 -2.0229
  327THF     C8 6186   0.554   4.093   3.351 -0.0453  0.2448  0.3434
  327THF     C9 6187   0.615   4.044   3.222 -0.4134  0.0514  0.6420
  327THF    H10 6188   0.483   4.173   3.330  2.7833  1.8780 -4.4701
  327THF    H11 6189   0.525   4.010   3.415 -3.1479  1.2787  0.4289
  327THF    H12 6190   0.658   3.944   3.228 -0.2957  0.0637  0.0642
  327THF    H13 6191   0.554   4.056   3.132  0.9490  2.5584 -0.0636
  328THF     O1 6192   1.551   3.572   0.985  0.1161 -0.2083 -0.1793
  328THF     C2 6193   1.619   3.649   1.088  0.3010  0.4368 -0.3597
  328THF     C3 6194   1.554   3.645   0.858 -0.6357  0.3088 -0.2955
  328THF     H4 6195   1.689   3.594   1.151  1.7949  0.4939 -1.8959
  328THF     H5 6196   1.538   3.680   1.154  0.7358 -1.8444  1.3886
  328THF     H6 6197   1.629   3.596   0.795 -0.7637  0.6124 -0.6916
  328THF     H7 6198   1.460   3.646   0.803 -1.8786 -1.8370  1.6273
  328THF     C8 6199   1.613   3.784   0.890  0.1121 -0.1674 -0.6477
  328THF     C9 6200   1.700   3.753   1.017  0.0516 -0.1552  0.0075
  328THF    H10 6201   1.538   3.862   0.904 -0.3367 -0.8745  1.1304
  328THF    H11 6202   1.679   3.827   0.816  0.7899 -0.4174 -0.1929
  328THF    H12 6203   1.792   3.702   0.988 -0.6121 -0.8068 -1.0237
  328THF    H13 6204   1.729   3.842   1.073  2.4724 -1.8140  1.5766
  329THF     O1 6205   1.350   0.269   1.931  0.2352  0.2730 -0.2163
  329THF     C2 6206   1.291   0.404   1.937 -0.4096 -0.2976  0.0113
  329THF     C3 6207   1.239   0.174   1.927 -0.2343 -0.3319 -0.1141
  329THF     H4 6208   1.316   0.471   1.855 -3.6146  1.2281  0.1139
  329THF     H5 6209   1.328   0.449   2.030 -1.0282 -0.6908  0.4533
  329THF     H6 6210   1.207   0.145   1.827 -0.8649 -1.4533  0.3992
  329THF     H7 6211   1.269   0.082   1.978  1.0483  0.2163  0.1704
  329THF     C8 6212   1.124   0.239   2.005 -0.5952  0.6032  1.2150
  329THF     C9 6213   1.139   0.384   1.953  0.0309 -0.1645  0.2681
  329THF    H10 6214   1.162   0.228   2.106  0.8875  0.1577  0.6268
  329THF    H11 6215   1.019   0.211   1.995 -0.3518  0.3778 -1.1564
  329THF    H12 6216   1.094   0.392   1.854 -1.1839  2.3203  0.9265
  329THF    H13 6217   1.085   0.456   2.015  0.5108  1.1837 -0.7996
  330THF     O1 6218   4.241   4.798   0.303 -0.2754  0.0345 -0.2417
  330THF     C2 6219   4.329   4.862   0.386 -0.5815 -0.2351 -0.6698
  330THF     C3 6220   4.321   4.698   0.236  0.4911  0.3413  0.0538
  330THF     H4 6221   4.280   4.908   0.472 -0.3115 -1.8510  0.4070
  330THF     H5 6222   4.378   4.946   0.336 -0.7428  0.3189  0.0763
  330THF     H6 6223   4.255   4.620   0.197 -0.2469  0.9946 -0.0418
  330THF     H7 6224   4.363   4.753   0.152 -0.2609 -0.3231 -0.7896
  330THF     C8 6225   4.426   4.658   0.337  0.1015  0.2555  0.2978
  330THF     C9 6226   4.423   4.758   0.444  0.3435  0.1756 -0.0853
  330THF    H10 6227   4.529   4.673   0.303  0.1538  1.2661  0.8799
  330THF    H11 6228   4.426   4.554   0.371  0.9933 -0.5786 -2.0635
  330THF    H12 6229   4.374   4.722   0.535 -0.3969 -0.0073 -0.5508
  330THF    H13 6230   4.520   4.798   0.473  0.2118  0.9335 -0.6525
  331THF     O1 6231   1.693   1.796   3.321 -0.3353 -0.1123  0.2730
  331THF     C2 6232   1.828   1.785   3.264 -0.2299  0.0103 -0.2417
  331THF     C3 6233   1.702   1.710   3.435  0.2718  0.2122 -0.0513
  331THF     H4 6234   1.902   1.840   3.322  0.9598 -2.1060  0.3931
  331THF     H5 6235   1.831   1.838   3.169 -0.2913  0.3167 -0.0737
  331THF     H6 6236   1.764   1.760   3.510  3.1499  0.1132 -2.1835
  331THF     H7 6237   1.604   1.681   3.473 -0.1767 -1.3461 -2.2367
  331THF     C8 6238   1.777   1.584   3.379  1.1444  0.3802 -0.0679
  331THF     C9 6239   1.848   1.635   3.253  0.0092 -0.0650 -0.2595
  331THF    H10 6240   1.706   1.509   3.347  2.6424 -1.4222  0.6776
  331THF    H11 6241   1.840   1.547   3.460 -1.1984  1.3879  2.3745
  331THF    H12 6242   1.955   1.611   3.248  1.0897  2.5671  4.2168
  331THF    H13 6243   1.806   1.572   3.175  0.4729 -0.9289  0.1722
  332THF     O1 6244   1.903   5.057   5.087 -0.1299  0.0673  0.0631
  332THF     C2 6245   1.941   5.110   5.212  0.6024 -0.0349  0.1033
  332THF     C3 6246   1.792   4.980   5.124 -0.0779 -0.8163 -0.1508
  332THF     H4 6247   1.871   5.190   5.233  1.1916  0.6061 -0.3297
  332THF     H5 6248   2.032   5.168   5.206 -0.5547  2.3661  3.3263
  332THF     H6 6249   1.690   5.017   5.110  0.7444  1.7825  0.2676
  332THF     H7 6250   1.792   4.890   5.062  1.6340  0.6633 -2.4725
  332THF     C8 6251   1.811   4.942   5.274  0.1256  0.2224  0.9292
  332THF     C9 6252   1.941   5.002   5.315  0.8054  0.1109  0.1967
  332THF    H10 6253   1.828   4.834   5.275  1.1516  0.3531 -0.1912
  332THF    H11 6254   1.723   4.963   5.335 -1.4840 -0.4177 -1.0699
  332THF    H12 6255   1.946   5.046   5.414  0.3072  0.5333  0.0401
  332THF    H13 6256   2.023   4.931   5.323  1.1377  0.3059 -1.2318
  333THF     O1 6257   2.006   3.571   1.776 -0.5506 -0.2667 -0.2625
  333THF     C2 6258   1.966   3.439   1.795  0.3204  0.2577  0.1709
  333THF     C3 6259   2.139   3.565   1.709  0.2369 -0.6948 -0.2040
  333THF     H4 6260   1.857   3.440   1.797  0.3033 -0.3429 -0.2365
  333THF     H5 6261   2.001   3.371   1.872 -1.1333 -0.2632  0.4020
  333THF     H6 6262   2.152   3.647   1.639 -0.5826 -0.5303 -0.1785
  333THF     H7 6263   2.217   3.557   1.785 -0.6575  0.1164  0.8516
  333THF     C8 6264   2.145   3.436   1.627  0.3272  0.6603 -0.4707
  333THF     C9 6265   2.004   3.376   1.657  0.2112  0.8193  0.8547
  333THF    H10 6266   2.223   3.363   1.650  0.0030  0.6275  0.5737
  333THF    H11 6267   2.148   3.457   1.520 -0.3719  2.2559 -0.1923
  333THF    H12 6268   1.929   3.403   1.583 -1.5785  0.2657  2.4023
  333THF    H13 6269   2.000   3.267   1.656 -1.4380  0.8613  1.2636
  334THF     O1 6270   1.356   0.041   5.472 -0.0436 -0.5846  0.0325
  334THF     C2 6271   1.296  -0.081   5.518 -0.4297  0.7789 -0.3385
  334THF     C3 6272   1.352   0.032   5.331  0.3250 -0.3271 -0.3713
  334THF     H4 6273   1.187  -0.078   5.519 -0.4556  0.1558  0.2216
  334THF     H5 6274   1.327  -0.089   5.622 -3.4106 -0.5991  0.5860
  334THF     H6 6275   1.254   0.066   5.298  0.0963 -1.7540 -1.2142
  334THF     H7 6276   1.417   0.109   5.289 -1.1458  0.5422 -1.1590
  334THF     C8 6277   1.359  -0.118   5.290 -0.2148  0.7020 -1.6942
  334THF     C9 6278   1.351  -0.193   5.422 -0.3226 -0.6796  0.1252
  334THF    H10 6279   1.451  -0.136   5.235  1.1524 -0.1958  0.7343
  334THF    H11 6280   1.272  -0.146   5.231 -0.3179 -0.5373 -0.9898
  334THF    H12 6281   1.285  -0.279   5.431 -0.7037 -0.7050 -2.2715
  334THF    H13 6282   1.452  -0.225   5.445 -0.2062 -1.5803 -1.4904
  335THF     O1 6283   0.840   2.273   3.500 -0.1039  0.4837  0.1957
  335THF     C2 6284   0.875   2.141   3.540  0.5042  0.6357  0.7164
  335THF     C3 6285   0.755   2.316   3.611 -0.3188 -0.5691  0.0291
  335THF     H4 6286   0.944   2.145   3.623  0.8093 -0.0682  0.5024
  335THF     H5 6287   0.924   2.081   3.463  1.9279  1.8065  0.6693
  335THF     H6 6288   0.818   2.338   3.698 -0.0280  1.3814 -0.6062
  335THF     H7 6289   0.698   2.406   3.585 -0.5248 -1.0153 -1.1267
  335THF     C8 6290   0.662   2.200   3.624 -0.0270  0.2399 -0.1054
  335THF     C9 6291   0.739   2.084   3.587  0.6172  0.5555  0.0051
  335THF    H10 6292   0.570   2.212   3.568  0.3733 -0.7093 -1.0072
  335THF    H11 6293   0.622   2.194   3.725 -0.1848 -0.6270 -0.2051
  335THF    H12 6294   0.750   2.015   3.670  1.6383 -0.5337 -0.9960
  335THF    H13 6295   0.690   2.031   3.505 -1.8568  1.6493  0.6764
  336THF     O1 6296   2.277   1.776   0.384 -0.5038  0.1564 -0.5492
  336THF     C2 6297   2.234   1.906   0.370 -0.0344 -0.3324  0.7315
  336THF     C3 6298   2.213   1.696   0.284 -0.1466 -0.9467  0.5092
  336THF     H4 6299   2.295   1.966   0.302  1.0248  0.1709  2.0900
  336THF     H5 6300   2.249   1.965   0.460  2.3060 -0.2976  0.3886
  336THF     H6 6301   2.278   1.690   0.196 -1.1266 -0.0671 -0.3091
  336THF     H7 6302   2.195   1.597   0.326 -0.7157 -0.9833  0.1984
  336THF     C8 6303   2.085   1.781   0.252 -0.3844  0.2716  0.3765
  336THF     C9 6304   2.086   1.912   0.332  0.5425 -0.2772 -0.1817
  336THF    H10 6305   1.995   1.721   0.268 -0.9748  0.3641 -2.1325
  336THF    H11 6306   2.089   1.802   0.145  0.4252  1.5402  0.6380
  336THF    H12 6307   2.055   1.992   0.265  0.8189 -0.7851 -0.9283
  336THF    H13 6308   2.024   1.908   0.422  2.3106 -0.9831  1.0580
  337THF     O1 6309   5.137   5.099   3.538  0.5039 -0.5780 -0.3508
  337THF     C2 6310   5.215   4.985   3.539 -0.2399  0.5073 -0.2863
  337THF     C3 6311   5.011   5.066   3.495 -0.2200  0.1911 -0.1516
  337THF     H4 6312   5.285   4.990   3.622 -0.2592  1.8308 -0.3201
  337THF     H5 6313   5.264   4.981   3.442 -0.8761  0.7496 -0.6258
  337THF     H6 6314   4.939   5.142   3.525  0.4996 -0.1607  2.7987
  337THF     H7 6315   5.019   5.083   3.388  0.3185  0.1100 -0.1240
  337THF     C8 6316   4.983   4.926   3.544  0.0696  0.9466 -0.3505
  337THF     C9 6317   5.119   4.870   3.552  0.1426  0.6866 -0.0880
  337THF    H10 6318   4.919   4.867   3.478 -0.4725  0.3003  0.7076
  337THF    H11 6319   4.929   4.940   3.638  1.9229  2.8782  0.5108
  337THF    H12 6320   5.136   4.815   3.645  1.3438  0.7587 -0.2434
  337THF    H13 6321   5.126   4.805   3.465  0.3094 -1.5092  1.4782
  338THF     O1 6322   4.614   5.103   2.730 -0.0500  0.1052 -0.3019
  338THF     C2 6323   4.631   5.216   2.655  0.3840  0.2347  0.8767
  338THF     C3 6324   4.477   5.074   2.755 -0.2576 -0.2215  0.0469
  338THF     H4 6325   4.699   5.203   2.570 -0.8883  4.0702 -0.9602
  338THF     H5 6326   4.665   5.300   2.715  0.7205  0.3690  0.5022
  338THF     H6 6327   4.459   4.968   2.772 -0.3051 -0.3836 -0.9647
  338THF     H7 6328   4.435   5.128   2.840 -2.4613 -2.7050  0.6751
  338THF     C8 6329   4.410   5.119   2.628 -0.2096  0.5413  0.0524
  338THF     C9 6330   4.489   5.246   2.598 -0.2008 -0.1408 -0.4817
  338THF    H10 6331   4.304   5.141   2.643 -0.0556  1.4400 -0.1009
  338THF    H11 6332   4.426   5.040   2.555  2.5805  2.1891 -1.3278
  338THF    H12 6333   4.490   5.273   2.492 -0.3093 -0.1056 -0.4740
  338THF    H13 6334   4.431   5.325   2.647  1.3747 -0.9967  2.9812
  339THF     O1 6335   3.424   4.830   3.997 -0.3484 -0.2341 -0.5226
  339THF     C2 6336   3.501   4.756   4.085  0.9143 -0.0544 -0.4573
  339THF     C3 6337   3.450   4.961   4.042  0.2077 -0.8235 -0.2442
  339THF     H4 6338   3.514   4.651   4.061  0.0049 -0.6291  1.3803
  339THF     H5 6339   3.443   4.759   4.177  1.1905  1.4850 -0.2962
  339THF     H6 6340   3.421   5.041   3.975  0.0635 -0.7550 -0.1014
  339THF     H7 6341   3.415   4.984   4.143  4.0268  2.5571  0.5274
  339THF     C8 6342   3.597   4.972   4.051 -0.3620 -0.1290  0.6822
  339THF     C9 6343   3.631   4.829   4.093  0.0724 -0.5068 -0.3599
  339THF    H10 6344   3.622   5.052   4.121  1.2062  0.3704 -0.3869
  339THF    H11 6345   3.644   4.996   3.955 -1.1915  1.6117  0.6798
  339THF    H12 6346   3.697   4.788   4.016 -0.4685  0.4544 -1.3744
  339THF    H13 6347   3.670   4.840   4.194 -1.2963 -0.1644  0.1540
  340THF     O1 6348   4.039   1.219   3.546 -0.0303 -0.3288 -0.2126
  340THF     C2 6349   4.027   1.087   3.581  0.5349  0.1663  0.0989
  340THF     C3 6350   3.904   1.271   3.555 -0.0858 -0.1659  0.0056
  340THF     H4 6351   4.026   1.075   3.690  2.7176  0.2312  0.1632
  340THF     H5 6352   4.110   1.026   3.548  0.5949  1.0283 -1.4448
  340THF     H6 6353   3.869   1.293   3.656  2.0377 -0.8579  0.9552
  340THF     H7 6354   3.891   1.360   3.494 -0.7356  0.4242  0.9911
  340THF     C8 6355   3.825   1.168   3.479 -0.3767  0.0592 -0.2811
  340THF     C9 6356   3.902   1.042   3.510  0.5150 -0.6642 -0.3196
  340THF    H10 6357   3.823   1.187   3.372 -1.3976  0.4845 -0.1983
  340THF    H11 6358   3.724   1.166   3.520  0.0534 -1.4500  0.7851
  340THF    H12 6359   3.844   0.974   3.572 -3.8746  3.1713  0.3491
  340THF    H13 6360   3.932   0.996   3.416 -0.2134  0.9884 -1.4205
  341THF     O1 6361   0.766   1.938   4.451  0.0545 -0.0401  0.0142
  341THF     C2 6362   0.691   1.908   4.559 -0.1056 -0.2906 -0.2841
  341THF     C3 6363   0.692   1.899   4.339 -0.2223  0.2009 -0.2912
  341THF     H4 6364   0.606   1.976   4.557  0.3814  0.4037  1.0572
  341THF     H5 6365   0.745   1.921   4.653 -1.2746  0.1131  0.3525
  341THF     H6 6366   0.614   1.967   4.305 -1.0047 -0.2989  0.4507
  341THF     H7 6367   0.760   1.878   4.256  3.1836  2.8514  1.5980
  341THF     C8 6368   0.619   1.773   4.385  0.3465  0.5267  0.3700
  341THF     C9 6369   0.639   1.767   4.528  0.2882 -0.4482 -0.9612
  341THF    H10 6370   0.658   1.677   4.351  0.2533 -0.7631  3.5759
  341THF    H11 6371   0.515   1.800   4.365  1.0544  1.8573 -1.9079
  341THF    H12 6372   0.545   1.751   4.581  0.8863 -0.6877  0.0762
  341THF    H13 6373   0.709   1.690   4.561  0.0901  0.9588  3.5443
  342THF     O1 6374   2.513   2.260   2.316 -0.2726 -0.2340 -0.0608
  342THF     C2 6375   2.598   2.237   2.204 -0.0917  0.6302  0.4830
  342THF     C3 6376   2.573   2.234   2.440  0.2913 -0.3121 -0.5339
  342THF     H4 6377   2.577   2.308   2.124  0.0208  0.0361 -0.0729
  342THF     H5 6378   2.581   2.139   2.160 -1.1244  0.8947  0.2740
  342THF     H6 6379   2.531   2.279   2.530 -3.3188 -2.6530 -0.8377
  342THF     H7 6380   2.582   2.127   2.460  1.0535 -0.3480 -1.0418
  342THF     C8 6381   2.706   2.305   2.413  0.4909 -0.4255  0.3354
  342THF     C9 6382   2.741   2.260   2.269 -0.0067  0.1125 -0.2334
  342THF    H10 6383   2.778   2.276   2.489  0.1428 -1.2734  0.3623
  342THF    H11 6384   2.696   2.413   2.407  3.1687  0.1063  2.9286
  342THF    H12 6385   2.798   2.336   2.214  1.3949 -0.4801  0.3513
  342THF    H13 6386   2.799   2.168   2.274  1.5387  1.0179 -0.6016
  343THF     O1 6387   4.820   4.382   3.481  0.3842  0.1679  0.0001
  343THF     C2 6388   4.857   4.355   3.613  0.4747 -0.3291 -0.0200
  343THF     C3 6389   4.809   4.525   3.472 -0.2730  0.3905 -0.4029
  343THF     H4 6390   4.962   4.384   3.614  0.6265 -0.8473  1.1941
  343THF     H5 6391   4.851   4.247   3.628  0.5141 -0.4921 -1.1108
  343THF     H6 6392   4.901   4.582   3.483  0.2625 -0.7704  2.0261
  343THF     H7 6393   4.752   4.549   3.383 -0.1850 -1.4452 -1.0017
  343THF     C8 6394   4.715   4.543   3.592 -0.6848  0.1144  0.0986
  343THF     C9 6395   4.778   4.449   3.696 -0.1583  0.1208  0.0062
  343THF    H10 6396   4.611   4.519   3.572 -1.1493  1.0293  1.2670
  343THF    H11 6397   4.713   4.643   3.636 -0.8788  0.7312 -1.2710
  343THF    H12 6398   4.840   4.502   3.769  1.9570  0.9645 -2.2550
  343THF    H13 6399   4.705   4.388   3.749 -0.0768 -0.4924 -0.5748
  344THF     O1 6400   3.694   0.333   1.320  0.1360 -0.0289 -0.2036
  344THF     C2 6401   3.740   0.444   1.241 -0.3317  0.3649 -0.4171
  344THF     C3 6402   3.569   0.370   1.368  0.0674 -0.3288 -0.7376
  344THF     H4 6403   3.698   0.439   1.141 -2.0646  0.3391  0.2807
  344THF     H5 6404   3.849   0.444   1.239 -0.2754 -0.3573  1.1095
  344THF     H6 6405   3.500   0.373   1.284  2.0336 -1.5882 -2.4994
  344THF     H7 6406   3.517   0.308   1.441 -0.8853  2.1041  0.7643
  344THF     C8 6407   3.601   0.506   1.423 -0.2764 -0.8783  0.1782
  344THF     C9 6408   3.684   0.566   1.310 -0.4440  0.3489  0.5420
  344THF    H10 6409   3.673   0.518   1.504 -0.0433  0.1654 -0.1654
  344THF    H11 6410   3.516   0.572   1.440  1.2151  0.6998  1.9760
  344THF    H12 6411   3.624   0.627   1.243 -0.7473  1.7814  2.0766
  344THF    H13 6412   3.761   0.636   1.342  0.3285  0.9525 -2.3017
  345THF     O1 6413   5.183   0.940   0.699  0.0809 -0.1633  0.0696
  345THF     C2 6414   5.266   0.831   0.716 -0.1285  0.0909 -0.2902
  345THF     C3 6415   5.270   1.057   0.705  0.2714 -0.4675 -0.5055
  345THF     H4 6416   5.321   0.810   0.624  0.8828 -1.2240  0.5978
  345THF     H5 6417   5.205   0.745   0.741 -0.0557 -0.7344 -2.6572
  345THF     H6 6418   5.309   1.066   0.604 -1.2758 -2.3298 -1.3181
  345THF     H7 6419   5.209   1.146   0.719 -1.1205 -1.4048 -0.4013
  345THF     C8 6420   5.373   1.023   0.813 -0.1893  0.3380  0.0084
  345THF     C9 6421   5.373   0.871   0.817 -0.1185  0.3332 -0.0915
  345THF    H10 6422   5.355   1.068   0.911 -0.1089 -0.9708  0.6439
  345THF    H11 6423   5.469   1.070   0.789 -0.2082  0.6461  0.5114
  345THF    H12 6424   5.464   0.829   0.773  0.2347  0.7132  0.2587
  345THF    H13 6425   5.360   0.831   0.917  2.2281 -1.3760 -0.3844
  346THF     O1 6426   4.864   0.101   5.171  0.3956  0.4946 -0.0719
  346THF     C2 6427   4.966   0.147   5.256  0.2978  0.8714  0.4267
  346THF     C3 6428   4.732   0.121   5.230  0.2159 -0.2833 -1.0090
  346THF     H4 6429   5.022   0.230   5.213  0.4436 -0.1023 -1.3863
  346THF     H5 6430   5.034   0.065   5.281  0.4738  1.4691  1.9736
  346THF     H6 6431   4.702   0.211   5.176 -0.8796 -0.3921 -0.6012
  346THF     H7 6432   4.663   0.040   5.211 -0.7896  0.3220 -0.0338
  346THF     C8 6433   4.753   0.140   5.381  0.3573 -0.3949  0.7609
  346THF     C9 6434   4.896   0.179   5.389 -0.4572 -0.0609 -0.0486
  346THF    H10 6435   4.746   0.037   5.418  0.4174  0.0014  1.9164
  346THF    H11 6436   4.690   0.208   5.437 -1.8208  1.0783 -3.1410
  346THF    H12 6437   4.908   0.287   5.397  3.8484 -0.3806  0.1813
  346THF    H13 6438   4.948   0.143   5.478  0.4488  2.4352  0.5162
  347THF     O1 6439   0.990   1.520   4.989  0.5365  0.1290 -0.2219
  347THF     C2 6440   1.100   1.507   5.071  0.1828  0.3276  0.0626
  347THF     C3 6441   1.046   1.576   4.869  0.1247  0.0473  0.1303
  347THF     H4 6442   1.059   1.442   5.149  0.9419 -1.6773 -1.1176
  347THF     H5 6443   1.119   1.604   5.117 -0.8186  1.0281 -0.9437
  347THF     H6 6444   0.977   1.558   4.786  0.6864  0.0988 -0.3573
  347THF     H7 6445   1.050   1.684   4.884 -2.5059  0.4884 -1.6570
  347THF     C8 6446   1.173   1.510   4.840 -1.0016 -0.5304 -0.1784
  347THF     C9 6447   1.216   1.452   4.980  0.4851  0.7265 -0.1887
  347THF    H10 6448   1.253   1.577   4.807  0.8953 -1.7386  1.6740
  347THF    H11 6449   1.171   1.432   4.765  0.3193  1.1887 -2.1315
  347THF    H12 6450   1.186   1.348   4.972 -1.7941  1.4402 -2.3655
  347THF    H13 6451   1.314   1.470   5.024  0.8474 -1.2292 -0.0936
  348THF     O1 6452   4.714   0.674   0.539 -0.4572 -0.4595 -0.7649
  348THF     C2 6453   4.672   0.683   0.675 -0.1790 -0.3408  0.7522
  348THF     C3 6454   4.849   0.722   0.522 -0.3550 -0.7220  0.1483
  348THF     H4 6455   4.680   0.583   0.719  4.1810 -0.7546 -0.4898
  348THF     H5 6456   4.568   0.715   0.678 -0.8185 -2.2753  0.6239
  348THF     H6 6457   4.931   0.655   0.548  1.5293  1.1303 -0.7372
  348THF     H7 6458   4.858   0.758   0.419 -1.0577 -0.2274  0.2501
  348THF     C8 6459   4.833   0.839   0.618 -0.1550 -0.5545 -0.6069
  348THF     C9 6460   4.775   0.775   0.736  0.1036 -0.1405  0.3016
  348THF    H10 6461   4.769   0.908   0.562  0.2969 -0.7617 -1.3978
  348THF    H11 6462   4.927   0.886   0.645 -0.2213 -2.0431  2.6541
  348THF    H12 6463   4.857   0.719   0.780  1.6911  1.3319 -0.6822
  348THF    H13 6464   4.730   0.854   0.796  0.3089  0.9998 -0.9762
  349THF     O1 6465   1.215   0.050   4.978  0.4566  0.5508  0.4631
  349THF     C2 6466   1.281  -0.025   4.886 -0.1933 -0.8873  0.5359
  349THF     C3 6467   1.075  -0.003   4.983 -0.2786 -0.1762 -0.8194
  349THF     H4 6468   1.390  -0.030   4.882 -0.1063  1.2889 -1.5881
  349THF     H5 6469   1.256   0.002   4.784  0.1578 -0.7600  0.4811
  349THF     H6 6470   1.036   0.034   5.077  1.6548  1.7563 -0.7152
  349THF     H7 6471   1.019   0.035   4.897 -0.0835  2.5980  0.1741
  349THF     C8 6472   1.093  -0.154   4.966 -0.1244 -0.0269 -0.3616
  349THF     C9 6473   1.232  -0.165   4.909 -0.0159 -0.1277 -0.4346
  349THF    H10 6474   1.030  -0.189   4.884  0.2230 -1.5827 -0.0025
  349THF    H11 6475   1.082  -0.204   5.062 -0.8581 -0.5863 -0.7286
  349THF    H12 6476   1.294  -0.209   4.987  1.3586 -0.4942 -1.6879
  349THF    H13 6477   1.237  -0.223   4.817  2.8381  0.1490 -0.5625
  350THF     O1 6478   3.723   1.896   0.752  0.0488 -0.1954  0.6120
  350THF     C2 6479   3.796   1.957   0.860 -0.4745  0.0036 -0.7903
  350THF     C3 6480   3.627   1.980   0.683  0.0327 -0.7991 -0.7041
  350THF     H4 6481   3.897   1.919   0.847 -0.7414 -0.3872 -1.8180
  350THF     H5 6482   3.744   1.928   0.952 -0.9650  1.1591 -0.6859
  350THF     H6 6483   3.672   2.012   0.589  0.3446 -0.5740 -0.4804
  350THF     H7 6484   3.532   1.926   0.681 -0.0095 -0.7110 -1.6708
  350THF     C8 6485   3.627   2.110   0.765  0.2008  0.0265  0.1432
  350THF     C9 6486   3.770   2.106   0.832  0.1123  0.3565  0.3647
  350THF    H10 6487   3.555   2.102   0.848 -0.9188  0.2999 -0.7716
  350THF    H11 6488   3.597   2.194   0.702  1.7828  0.2073 -0.4101
  350THF    H12 6489   3.828   2.149   0.751 -2.9680  0.9419 -1.6869
  350THF    H13 6490   3.775   2.164   0.924  1.6810 -0.1549  0.6389
  351THF     O1 6491   2.953   4.083   0.270 -0.8116 -0.4962  0.3245
  351THF     C2 6492   2.991   3.950   0.296 -0.5709  0.0285 -0.3753
  351THF     C3 6493   2.815   4.094   0.275  0.0440 -0.1099  0.0512
  351THF     H4 6494   3.082   3.942   0.356 -0.1961  0.3730 -0.8953
  351THF     H5 6495   3.016   3.905   0.200 -1.1415 -0.1385 -0.4457
  351THF     H6 6496   2.799   4.158   0.362  0.2213 -1.5652  1.1988
  351THF     H7 6497   2.782   4.142   0.183  2.0044 -1.3867 -1.3942
  351THF     C8 6498   2.759   3.949   0.301  0.0086  0.1522  0.4647
  351THF     C9 6499   2.873   3.879   0.358 -0.3955 -0.1758 -0.3088
  351THF    H10 6500   2.721   3.900   0.212  0.7510  2.2553 -1.0768
  351THF    H11 6501   2.674   3.958   0.369  0.2939  0.5672  0.7713
  351THF    H12 6502   2.875   3.895   0.466  1.0012  0.2503 -0.3889
  351THF    H13 6503   2.865   3.772   0.339  0.8175 -0.1153 -1.2219
  352THF     O1 6504   1.557   3.568   1.544  0.2450  0.3058  0.3539
  352THF     C2 6505   1.682   3.633   1.514 -0.2567 -0.0879 -0.7924
  352THF     C3 6506   1.454   3.629   1.473 -0.7518 -0.0312  0.3805
  352THF     H4 6507   1.722   3.601   1.417 -0.5768 -0.9798 -0.6385
  352THF     H5 6508   1.759   3.612   1.589 -0.0874 -2.3614 -1.5256
  352THF     H6 6509   1.465   3.594   1.371 -1.9817 -1.0944  0.5945
  352THF     H7 6510   1.360   3.596   1.516  0.0649  1.3270  3.5315
  352THF     C8 6511   1.481   3.774   1.490 -1.0037  0.1617 -0.2897
  352THF     C9 6512   1.641   3.774   1.495  0.2018  0.2031  0.1143
  352THF    H10 6513   1.446   3.815   1.585 -1.3683  2.5122 -1.3484
  352THF    H11 6514   1.443   3.833   1.406  1.4461  0.5577 -1.1929
  352THF    H12 6515   1.693   3.820   1.411  0.3155 -1.1778 -0.5939
  352THF    H13 6516   1.678   3.830   1.581  3.3344 -0.5025 -0.6634
  353THF     O1 6517   3.890   4.249   1.519  0.1471  0.3693  0.0848
  353THF     C2 6518   3.857   4.126   1.452  0.3672 -0.3767  1.1620
  353THF     C3 6519   3.764   4.311   1.548 -0.5679 -0.1160  0.0157
  353THF     H4 6520   3.938   4.055   1.467 -0.1876 -1.0469  1.0283
  353THF     H5 6521   3.853   4.152   1.346  2.8383  0.2268  1.1626
  353THF     H6 6522   3.785   4.390   1.621  0.6279 -0.5115  0.1210
  353THF     H7 6523   3.714   4.360   1.465  0.1739  0.1141 -0.3041
  353THF     C8 6524   3.679   4.201   1.598  0.6761 -0.3055 -0.2469
  353THF     C9 6525   3.726   4.086   1.510  0.1434 -0.3472  0.1588
  353THF    H10 6526   3.573   4.224   1.590  0.4452 -1.2650 -0.1303
  353THF    H11 6527   3.698   4.186   1.705 -0.8050  2.4806  0.5237
  353THF    H12 6528   3.732   4.000   1.576  2.6975  0.2202  0.7865
  353THF    H13 6529   3.656   4.069   1.428 -0.7544  1.7760  0.4170
  354THF     O1 6530   0.949   4.453   4.543  0.3002 -0.2161  0.0867
  354THF     C2 6531   0.868   4.410   4.652  0.0212 -0.5640 -0.3335
  354THF     C3 6532   1.080   4.468   4.595  0.6042 -0.3955  0.0057
  354THF     H4 6533   0.881   4.302   4.660  0.0956 -0.5281  0.0609
  354THF     H5 6534   0.762   4.428   4.634  0.3610  2.9729  0.6073
  354THF     H6 6535   1.139   4.376   4.588  3.2493  1.1510  0.5042
  354THF     H7 6536   1.135   4.546   4.543  1.3769 -0.5993  0.4961
  354THF     C8 6537   1.057   4.504   4.745  0.0887 -0.2240 -0.0146
  354THF     C9 6538   0.910   4.471   4.782 -0.0118  0.5754 -0.3067
  354THF    H10 6539   1.085   4.609   4.754  4.8730 -1.4441  3.6358
  354THF    H11 6540   1.124   4.452   4.813 -0.5255 -0.7803  0.1736
  354THF    H12 6541   0.901   4.399   4.863  0.1745  0.9928  0.0931
  354THF    H13 6542   0.864   4.565   4.814  0.5819  0.7491  0.0362
  355THF     O1 6543   2.452   3.001   5.113  0.0154 -0.1920  0.3754
  355THF     C2 6544   2.335   2.917   5.108  0.5299 -0.0078 -0.2239
  355THF     C3 6545   2.458   3.056   5.246  0.0592  0.5396 -0.0769
  355THF     H4 6546   2.356   2.828   5.167  0.4213  1.2381  1.7843
  355THF     H5 6547   2.305   2.887   5.007  1.0462 -1.6384  0.0827
  355THF     H6 6548   2.481   2.976   5.316 -0.3768  1.4019  1.0907
  355THF     H7 6549   2.524   3.142   5.260 -2.2378  2.7601 -1.8732
  355THF     C8 6550   2.312   3.098   5.249 -0.3043 -0.9664 -0.3375
  355THF     C9 6551   2.236   2.992   5.181 -0.4552 -0.8130 -0.4274
  355THF    H10 6552   2.300   3.192   5.196 -0.4837 -1.3517 -0.9809
  355THF    H11 6553   2.287   3.123   5.353 -0.5768  1.1659 -0.8758
  355THF    H12 6554   2.174   2.927   5.243 -2.3812  2.3209  1.1534
  355THF    H13 6555   2.172   3.035   5.104  1.0132  0.6228 -0.8812
  356THF     O1 6556   2.843   0.246   1.577 -0.0311  0.0771  0.4155
  356THF     C2 6557   2.748   0.252   1.469  0.1927  0.2552  0.9610
  356THF     C3 6558   2.834   0.124   1.642 -0.9091  0.2652  0.3137
  356THF     H4 6559   2.785   0.318   1.390  2.2696  2.6700  3.7265
  356THF     H5 6560   2.651   0.286   1.506 -0.0036 -0.4030  1.0679
  356THF     H6 6561   2.932   0.103   1.683 -1.5724 -2.2343  0.8109
  356THF     H7 6562   2.750   0.138   1.711 -2.2529 -0.0222 -1.1860
  356THF     C8 6563   2.816   0.022   1.537 -0.1693  0.3742  0.3421
  356THF     C9 6564   2.742   0.102   1.429 -0.5014  0.0004  0.1887
  356THF    H10 6565   2.768  -0.070   1.571  2.1506 -0.3624  1.8500
  356THF    H11 6566   2.906  -0.020   1.490 -0.5622  0.8822 -0.9110
  356THF    H12 6567   2.789   0.084   1.332 -0.6440 -0.2886  0.1699
  356THF    H13 6568   2.638   0.072   1.419 -0.7635  0.9634 -0.0088
  357THF     O1 6569   0.605   1.799   4.000  0.4180  0.4371 -0.4482
  357THF     C2 6570   0.470   1.836   4.044  0.2765 -0.4797  1.0519
  357THF     C3 6571   0.641   1.902   3.899 -0.0752 -0.5309  0.0323
  357THF     H4 6572   0.473   1.917   4.118 -0.9903  0.9702 -0.4103
  357THF     H5 6573   0.425   1.750   4.093 -0.0591 -1.1901 -0.4479
  357THF     H6 6574   0.672   1.987   3.960  0.8548 -0.0489 -1.0734
  357THF     H7 6575   0.721   1.869   3.833  0.9935  1.9910 -0.0641
  357THF     C8 6576   0.513   1.934   3.826  0.1270 -0.5540  0.6839
  357THF     C9 6577   0.401   1.888   3.920  0.0908  0.2186  0.7855
  357THF    H10 6578   0.502   1.892   3.726 -1.6844 -0.5216  0.8290
  357THF    H11 6579   0.503   2.043   3.819  2.9040  0.1105  4.1553
  357THF    H12 6580   0.312   1.951   3.927 -0.2090 -0.0657 -0.3105
  357THF    H13 6581   0.362   1.794   3.882  0.9580  0.7479 -1.5713
  358THF     O1 6582   2.442   2.110   2.745  0.0506  0.1432 -0.0489
  358THF     C2 6583   2.426   2.193   2.857  0.3342  0.6954 -0.1689
  358THF     C3 6584   2.372   1.990   2.766 -0.1121  0.1644 -0.2092
  358THF     H4 6585   2.456   2.295   2.831  0.9009  0.2547 -1.2751
  358THF     H5 6586   2.481   2.168   2.948 -1.3022  1.8257  1.1973
  358THF     H6 6587   2.363   1.929   2.676  1.8462 -1.3241  0.5273
  358THF     H7 6588   2.428   1.929   2.837  0.9236 -0.5845 -1.6206
  358THF     C8 6589   2.238   2.056   2.819  0.4848  1.2378 -0.1326
  358THF     C9 6590   2.277   2.181   2.888 -0.3308 -0.0104  0.3077
  358THF    H10 6591   2.180   1.986   2.880  0.7763 -0.9963 -2.2466
  358THF    H11 6592   2.169   2.091   2.742  0.2322 -0.3269 -0.6510
  358THF    H12 6593   2.216   2.264   2.851 -1.8775 -2.4863 -3.3090
  358THF    H13 6594   2.265   2.165   2.995 -1.4666 -1.0135  0.0556
  359THF     O1 6595   3.000   2.448   2.955  0.0512 -0.4604  0.1668
  359THF     C2 6596   2.999   2.349   2.846  0.2852  0.0611 -0.0076
  359THF     C3 6597   2.880   2.528   2.947  0.1834 -0.5729 -0.1093
  359THF     H4 6598   3.067   2.269   2.875  1.0868  0.3497 -1.0453
  359THF     H5 6599   3.047   2.397   2.762  2.5426 -0.7948  0.7150
  359THF     H6 6600   2.836   2.566   3.039 -0.7761 -3.4077  0.6893
  359THF     H7 6601   2.892   2.610   2.876 -1.6008 -1.0235 -0.9661
  359THF     C8 6602   2.781   2.433   2.870 -0.3973 -0.9393  0.3185
  359THF     C9 6603   2.855   2.300   2.840  0.2693 -0.2113  0.2752
  359THF    H10 6604   2.764   2.491   2.780  3.5250 -1.2023 -0.7676
  359THF    H11 6605   2.692   2.415   2.930 -0.7986  1.3794  0.4993
  359THF    H12 6606   2.839   2.221   2.913 -0.7625  0.3674  0.6967
  359THF    H13 6607   2.825   2.260   2.743  1.2911  2.1806 -1.1246
  360THF     O1 6608   5.463   0.851   2.899 -0.1301 -0.3791  0.8307
  360THF     C2 6609   5.474   0.925   2.781  0.2510  0.7172  0.1165
  360THF     C3 6610   5.580   0.869   2.980 -0.2010 -0.0659  0.2096
  360THF     H4 6611   5.373   0.940   2.743 -0.5727 -1.1636  1.3790
  360THF     H5 6612   5.538   0.880   2.705 -1.6248 -1.0942 -0.4902
  360THF     H6 6613   5.560   0.867   3.088  1.8058  1.0201  0.6389
  360THF     H7 6614   5.653   0.791   2.960  0.2498  0.4047  0.0159
  360THF     C8 6615   5.639   1.005   2.941 -0.5197 -0.0508 -0.2577
  360THF     C9 6616   5.534   1.050   2.841 -0.1284  0.4187  0.3413
  360THF    H10 6617   5.725   0.998   2.874 -0.2092  0.0564  0.1243
  360THF    H11 6618   5.668   1.063   3.029  0.8862 -1.6996  0.4139
  360THF    H12 6619   5.454   1.097   2.898 -1.0032 -3.6618  2.8956
  360THF    H13 6620   5.555   1.119   2.760  1.5298 -1.2881 -0.7688
  361THF     O1 6621   2.306   1.336   3.989 -0.6189 -0.2405 -0.8967
  361THF     C2 6622   2.277   1.304   4.129 -0.4798 -0.6652  0.3332
  361THF     C3 6623   2.181   1.349   3.921  0.0136 -0.1584 -0.1133
  361THF     H4 6624   2.359   1.327   4.197 -1.2553  0.2089  0.9883
  361THF     H5 6625   2.236   1.204   4.144  1.0532 -1.3336  0.3586
  361THF     H6 6626   2.204   1.396   3.826  0.2931 -1.1565 -0.5524
  361THF     H7 6627   2.139   1.250   3.904 -1.4074  0.2052  1.0489
  361THF     C8 6628   2.092   1.426   4.020  0.8105  0.5465 -0.0441
  361THF     C9 6629   2.158   1.396   4.151  0.0457  0.5418 -0.1685
  361THF    H10 6630   1.995   1.377   4.010  0.8277  0.5342 -0.1474
  361THF    H11 6631   2.102   1.531   3.994  1.2332  0.4963 -0.1009
  361THF    H12 6632   2.206   1.487   4.186  0.8411  0.2609 -0.5201
  361THF    H13 6633   2.096   1.346   4.226  2.6627 -0.6146  1.3316
  362THF     O1 6634   4.977   3.777   5.001  0.4769 -0.2951 -0.4714
  362THF     C2 6635   4.903   3.729   5.114 -0.1682  0.0804  0.4755
  362THF     C3 6636   4.887   3.831   4.906 -0.5153 -0.6208 -0.4820
  362THF     H4 6637   4.927   3.794   5.199  3.0048  0.9268 -0.9048
  362THF     H5 6638   4.946   3.629   5.125 -1.2729 -0.6765 -1.7345
  362THF     H6 6639   4.874   3.937   4.923  0.6658 -0.1728 -2.1891
  362THF     H7 6640   4.923   3.815   4.804 -1.5072  2.0951 -1.3434
  362THF     C8 6641   4.763   3.752   4.926 -0.3889  0.1659 -0.0353
  362THF     C9 6642   4.759   3.728   5.075  0.1526 -0.0339 -0.6136
  362THF    H10 6643   4.789   3.656   4.881  0.1844 -0.2085  1.0575
  362THF    H11 6644   4.676   3.807   4.891  0.3329  0.3254 -1.6707
  362THF    H12 6645   4.719   3.824   5.107  1.4013  1.0220 -2.0669
  362THF    H13 6646   4.700   3.650   5.123  0.3344 -0.1269 -0.5397
  363THF     O1 6647   0.464   0.291   4.087 -0.8909 -0.1639  0.5377
  363THF     C2 6648   0.356   0.265   4.169  0.2845  0.6408 -0.5161
  363THF     C3 6649   0.480   0.177   3.999 -1.2013 -0.3931  0.1033
  363THF     H4 6650   0.316   0.360   4.206  2.2581  1.5654 -0.6257
  363THF     H5 6651   0.388   0.208   4.255 -0.1055  0.4765 -0.4768
  363THF     H6 6652   0.518   0.193   3.898 -2.7524 -0.3174 -0.4871
  363THF     H7 6653   0.556   0.111   4.041  0.4308  0.2223 -1.7440
  363THF     C8 6654   0.356   0.100   4.003  0.3481  0.0793 -0.1838
  363THF     C9 6655   0.258   0.185   4.085 -0.7130 -0.1032 -0.6731
  363THF    H10 6656   0.366   0.004   4.053 -0.7889 -0.7098 -1.3872
  363THF    H11 6657   0.317   0.088   3.902 -0.3466 -0.1395  0.1014
  363THF    H12 6658   0.190   0.241   4.021 -1.8476 -0.5002  0.1473
  363THF    H13 6659   0.184   0.128   4.141 -0.5106 -0.0114 -0.3103
  364THF     O1 6660   2.238   3.132   0.620 -0.3139 -0.2895 -0.3742
  364THF     C2 6661   2.151   3.044   0.553  0.5733 -0.0901 -0.0711
  364THF     C3 6662   2.260   3.241   0.541 -0.3341  0.0661 -0.0338
  364THF     H4 6663   2.051   3.088   0.551  0.3742 -0.4275  1.2799
  364THF     H5 6664   2.142   2.948   0.605  0.2425  0.3588  0.7229
  364THF     H6 6665   2.168   3.293   0.513  0.3932  1.2210 -0.3728
  364THF     H7 6666   2.338   3.307   0.580  0.1276  0.2800 -1.2470
  364THF     C8 6667   2.295   3.174   0.404  0.2988 -0.3526  0.2748
  364THF     C9 6668   2.220   3.039   0.416 -0.0331 -0.1171 -0.4061
  364THF    H10 6669   2.397   3.148   0.377  0.2338 -1.8405  1.3320
  364THF    H11 6670   2.261   3.231   0.318 -1.2284 -1.5181  0.0521
  364THF    H12 6671   2.146   3.031   0.337  0.1304  1.8014 -0.7941
  364THF    H13 6672   2.276   2.945   0.420  0.0976 -0.0097  1.3635
  365THF     O1 6673   3.571   0.286   0.693  0.1745 -0.3516  0.0510
  365THF     C2 6674   3.585   0.151   0.664  0.2854 -0.0132 -0.0601
  365THF     C3 6675   3.667   0.313   0.790 -0.3199  0.0596 -0.5957
  365THF     H4 6676   3.529   0.121   0.575 -1.7006 -1.8900  1.6916
  365THF     H5 6677   3.543   0.092   0.745 -1.1759 -0.2429 -0.9451
  365THF     H6 6678   3.688   0.420   0.796  1.0309 -0.2720  1.7458
  365THF     H7 6679   3.621   0.287   0.885 -3.0255 -0.1543 -1.8809
  365THF     C8 6680   3.790   0.230   0.753  0.1036  0.2870  0.7283
  365THF     C9 6681   3.733   0.127   0.659 -0.6776  0.0593  0.2046
  365THF    H10 6682   3.844   0.189   0.839 -0.9212  0.7998  1.6444
  365THF    H11 6683   3.863   0.283   0.691 -0.5292  0.9906  0.5709
  365THF    H12 6684   3.767   0.128   0.556  0.3397 -2.9906  0.4112
  365THF    H13 6685   3.760   0.026   0.691  3.7292  0.9080 -0.1792
  366THF     O1 6686   1.211   4.545   0.173  0.6730 -0.1958  0.4123
  366THF     C2 6687   1.069   4.558   0.142  0.3660 -0.2297 -0.5142
  366THF     C3 6688   1.225   4.559   0.313  0.0636  0.2572 -0.4796
  366THF     H4 6689   1.049   4.514   0.044  0.7537  1.1032 -1.2394
  366THF     H5 6690   1.047   4.665   0.138 -2.3742 -0.7338 -0.8289
  366THF     H6 6691   1.309   4.505   0.356 -1.5524 -3.2439 -1.3757
  366THF     H7 6692   1.224   4.666   0.337 -0.6954  0.1316  0.0493
  366THF     C8 6693   1.102   4.480   0.370  0.1349  0.4462 -0.0884
  366THF     C9 6694   0.996   4.497   0.260  0.4198  0.3318 -0.2105
  366THF    H10 6695   1.082   4.519   0.469 -0.2523  1.4882 -0.5605
  366THF    H11 6696   1.127   4.374   0.379  1.9672  0.8941  0.3691
  366THF    H12 6697   0.959   4.399   0.230 -0.7347  0.1054  1.7660
  366THF    H13 6698   0.909   4.550   0.301  0.9139  0.7909  0.2607
  367THF     O1 6699   5.379   4.079   2.341  0.1219 -0.6676 -0.0940
  367THF     C2 6700   5.325   4.103   2.469  0.5077  0.4777  0.0876
  367THF     C3 6701   5.382   4.204   2.265 -0.6736 -0.2112 -0.1832
  367THF     H4 6702   5.394   4.172   2.518 -1.2334  2.3579  0.0323
  367THF     H5 6703   5.309   4.024   2.542  0.2431  0.6343  0.2000
  367THF     H6 6704   5.476   4.255   2.282  0.1240 -1.8647  0.5785
  367THF     H7 6705   5.387   4.191   2.157 -0.6321  0.5352 -0.2781
  367THF     C8 6706   5.266   4.283   2.325  0.8706  0.3937 -0.0993
  367THF     C9 6707   5.207   4.194   2.438  0.3718  0.4310  0.3569
  367THF    H10 6708   5.194   4.302   2.246  1.5019  1.9982 -0.3312
  367THF    H11 6709   5.298   4.376   2.371  1.5372 -0.2399  0.7551
  367THF    H12 6710   5.172   4.258   2.519  0.4160  2.9209 -1.4551
  367THF    H13 6711   5.126   4.138   2.393  1.4718 -0.6548 -0.3362
  368THF     O1 6712   0.803   5.250   5.111 -0.4444 -0.4394 -0.0130
  368THF     C2 6713   0.843   5.127   5.162  0.0591  0.3749  0.3043
  368THF     C3 6714   0.781   5.333   5.222 -0.2405  0.3655  0.0288
  368THF     H4 6715   0.883   5.059   5.086 -0.5474 -0.8822  1.0685
  368THF     H5 6716   0.755   5.071   5.194  0.9504  0.1323  2.4437
  368THF     H6 6717   0.789   5.437   5.191  1.2086  0.1040 -0.5791
  368THF     H7 6718   0.679   5.308   5.250 -0.0955  0.2604  0.4860
  368THF     C8 6719   0.894   5.298   5.319 -0.3457  0.3108  0.4739
  368THF     C9 6720   0.940   5.159   5.271  0.0007 -0.3508  0.0422
  368THF    H10 6721   0.866   5.292   5.424  0.0362 -1.6329  0.4924
  368THF    H11 6722   0.973   5.372   5.308  1.6002 -1.4232  2.1341
  368THF    H12 6723   1.045   5.168   5.245 -0.0384  0.8447  0.2007
  368THF    H13 6724   0.927   5.085   5.349 -0.8386  0.3269  0.5722
  369THF     O1 6725   4.132   1.239   1.946  0.1465 -0.1832 -0.3511
  369THF     C2 6726   4.205   1.154   2.032  0.2327  0.0909 -0.0541
  369THF     C3 6727   4.054   1.157   1.855  0.1577 -0.2935  0.0474
  369THF     H4 6728   4.142   1.103   2.106 -1.8178  2.9524  0.3479
  369THF     H5 6729   4.274   1.218   2.088 -0.5568  0.4450  0.5416
  369THF     H6 6730   3.967   1.109   1.899 -1.5963  0.0144 -2.8169
  369THF     H7 6731   4.021   1.212   1.766 -1.3295 -0.2235  0.6166
  369THF     C8 6732   4.161   1.050   1.824  0.0339  0.4224  0.1348
  369THF     C9 6733   4.270   1.063   1.930  0.0108  0.1889 -0.8541
  369THF    H10 6734   4.201   1.075   1.725  3.0210  0.2137  1.1778
  369THF    H11 6735   4.117   0.952   1.810  0.3020  0.3457 -0.1858
  369THF    H12 6736   4.297   0.972   1.983 -2.7038  0.5147  1.2845
  369THF    H13 6737   4.355   1.114   1.884 -0.3583  1.1896 -0.4300
  370THF     O1 6738   4.931   0.892   3.700 -0.1891  0.0890 -0.3197
  370THF     C2 6739   4.795   0.905   3.729  1.2641 -0.0515  0.7395
  370THF     C3 6740   4.952   0.892   3.560  0.5461 -0.2718  0.2598
  370THF     H4 6741   4.780   0.949   3.827 -2.3511  0.2339  0.1923
  370THF     H5 6742   4.741   0.810   3.726 -2.1440  1.7590 -0.8034
  370THF     H6 6743   5.054   0.919   3.533  0.2953  0.3161 -0.1227
  370THF     H7 6744   4.927   0.795   3.516 -1.4345  1.1369 -2.0109
  370THF     C8 6745   4.850   0.994   3.510 -0.0431  0.0422 -0.1557
  370THF     C9 6746   4.741   0.989   3.612  0.0414 -0.3149 -0.1911
  370THF    H10 6747   4.812   0.960   3.414 -4.1461  0.1389  1.2112
  370THF    H11 6748   4.888   1.096   3.504 -1.4287  0.6394  0.7344
  370THF    H12 6749   4.726   1.089   3.652  2.8058  0.7132 -1.4347
  370THF    H13 6750   4.641   0.955   3.587 -1.7872  4.8235 -1.0488
  371THF     O1 6751   1.121   1.312   1.962  0.1875 -0.4270  0.3732
  371THF     C2 6752   1.085   1.271   2.091  0.4047 -0.6664 -0.9031
  371THF     C3 6753   1.033   1.424   1.939  0.2617 -0.6393  0.0184
  371THF     H4 6754   1.166   1.213   2.136  1.1342  0.4816 -0.6960
  371THF     H5 6755   0.996   1.208   2.090  0.2000 -0.4576  0.8487
  371THF     H6 6756   1.058   1.482   1.850 -1.8373  0.2155 -0.0575
  371THF     H7 6757   0.931   1.387   1.928  0.8316 -1.7013 -2.4817
  371THF     C8 6758   1.036   1.511   2.059 -0.1467  0.6781  0.6395
  371THF     C9 6759   1.066   1.404   2.161  0.7423 -0.0629 -0.5906
  371THF    H10 6760   0.946   1.571   2.077  0.2005  1.6307 -0.5940
  371THF    H11 6761   1.107   1.594   2.061  2.8135 -1.5867 -1.6242
  371THF    H12 6762   1.164   1.432   2.199  1.0733 -1.0187 -0.7341
  371THF    H13 6763   0.997   1.396   2.245 -0.5740 -1.2576 -1.7449
  372THF     O1 6764   0.316   2.219   3.159  0.1957  0.1836 -0.3442
  372THF     C2 6765   0.194   2.238   3.093 -0.0365 -0.0122 -1.0564
  372THF     C3 6766   0.302   2.224   3.299 -0.2125  0.4632 -0.3325
  372THF     H4 6767   0.185   2.179   3.002 -4.3858  0.3130 -1.0422
  372THF     H5 6768   0.170   2.343   3.075 -1.0041  0.4500  2.2181
  372THF     H6 6769   0.389   2.183   3.349 -0.0621  0.5903 -0.4905
  372THF     H7 6770   0.297   2.322   3.346  2.1516 -0.3439  1.7951
  372THF     C8 6771   0.167   2.141   3.313 -0.1550 -0.3477 -0.4116
  372THF     C9 6772   0.091   2.179   3.189  1.1927 -0.2682  0.3167
  372THF    H10 6773   0.115   2.164   3.407  0.3563  0.9652 -0.4413
  372THF    H11 6774   0.184   2.034   3.304  2.0967  0.0293 -1.1854
  372THF    H12 6775   0.036   2.096   3.147 -0.0007  1.4435 -1.6856
  372THF    H13 6776   0.014   2.246   3.226 -0.5463 -1.7527 -0.4698
  373THF     O1 6777   5.387   2.809   0.296 -0.2506  0.6017 -0.0348
  373THF     C2 6778   5.349   2.742   0.411  1.0477  0.6259  0.6283
  373THF     C3 6779   5.288   2.904   0.263  0.2665 -0.7797 -0.1110
  373THF     H4 6780   5.363   2.816   0.489  1.3947 -1.6949  2.9138
  373THF     H5 6781   5.401   2.650   0.437  0.6039 -0.0836 -0.8682
  373THF     H6 6782   5.331   3.000   0.291  2.1035 -1.2159 -1.2653
  373THF     H7 6783   5.275   2.900   0.154 -1.6349  0.8622 -0.0164
  373THF     C8 6784   5.161   2.852   0.324 -0.0299 -0.1801 -0.6274
  373THF     C9 6785   5.200   2.729   0.399  0.3065 -0.7859  0.3760
  373THF    H10 6786   5.078   2.830   0.258 -0.7472 -3.8772  1.2627
  373THF    H11 6787   5.116   2.932   0.383 -2.0468 -0.7540 -1.3121
  373THF    H12 6788   5.166   2.724   0.502 -0.0409  0.6005  0.3594
  373THF    H13 6789   5.161   2.645   0.341  0.3973 -1.1149  0.7952
  374THF     O1 6790   5.370   4.622   2.598  0.1462  0.5172 -0.2384
  374THF     C2 6791   5.248   4.561   2.634  0.2769  0.0014 -0.1292
  374THF     C3 6792   5.351   4.764   2.604 -0.7330  0.2932 -0.1554
  374THF     H4 6793   5.249   4.455   2.658 -1.1699  0.0802  0.4091
  374THF     H5 6794   5.181   4.580   2.550  0.4198 -0.4739 -0.3490
  374THF     H6 6795   5.450   4.809   2.599 -0.0581 -1.1521 -0.2648
  374THF     H7 6796   5.298   4.778   2.510 -2.2827  1.7235  0.8606
  374THF     C8 6797   5.278   4.786   2.732 -0.1273  0.1815 -0.0598
  374THF     C9 6798   5.212   4.649   2.758 -0.1808  0.0053  0.3868
  374THF    H10 6799   5.202   4.863   2.725 -1.5893 -1.0537  1.3633
  374THF    H11 6800   5.344   4.812   2.815 -1.6012  2.0557  0.6132
  374THF    H12 6801   5.250   4.596   2.845  2.0506 -0.0657 -0.5812
  374THF    H13 6802   5.104   4.650   2.771 -0.0733  0.4732  1.2815
  375THF     O1 6803   1.866   2.942   5.216 -0.0354  0.5160  0.4431
  375THF     C2 6804   1.867   2.947   5.072  0.0169 -0.5365  0.2260
  375THF     C3 6805   1.765   2.850   5.259  0.1121  0.8652 -0.1854
  375THF     H4 6806   1.959   2.894   5.047  0.8323  0.4727  0.9827
  375THF     H5 6807   1.871   3.044   5.024 -0.6154 -1.4506 -1.7623
  375THF     H6 6808   1.803   2.775   5.330 -3.1421 -1.1428 -0.3691
  375THF     H7 6809   1.689   2.907   5.313 -0.7739 -2.1376  2.0739
  375THF     C8 6810   1.716   2.778   5.133 -0.2366  0.5346  0.0691
  375THF     C9 6811   1.738   2.879   5.026 -0.1017 -0.1477 -0.0331
  375THF    H10 6812   1.610   2.753   5.141  0.1554 -1.3723 -0.3167
  375THF    H11 6813   1.769   2.685   5.113 -1.1251  0.3023 -1.3829
  375THF    H12 6814   1.741   2.835   4.926  0.0286 -1.7039  0.6264
  375THF    H13 6815   1.668   2.962   5.027  1.7891  1.5681  2.6567
  376THF     O1 6816   4.213   2.442   4.787 -0.3992  0.2700  0.6904
  376THF     C2 6817   4.206   2.347   4.681  0.1822  0.1646 -0.0117
  376THF     C3 6818   4.186   2.569   4.723 -0.0640 -0.0228 -0.8441
  376THF     H4 6819   4.102   2.335   4.652 -0.6798  0.0425  2.8257
  376THF     H5 6820   4.253   2.252   4.706  2.4009  1.2889  0.3641
  376THF     H6 6821   4.081   2.598   4.713  0.3007  1.2386 -1.2764
  376THF     H7 6822   4.233   2.649   4.781  0.5508 -2.0998  1.6718
  376THF     C8 6823   4.243   2.574   4.584 -0.3860  0.2898  0.1361
  376THF     C9 6824   4.280   2.420   4.568  0.3728 -1.1429  0.6195
  376THF    H10 6825   4.324   2.647   4.593 -0.8257  0.6386  1.5711
  376THF    H11 6826   4.158   2.595   4.520  0.3330 -0.8605 -1.2566
  376THF    H12 6827   4.253   2.397   4.465  0.4309  1.7582 -0.1354
  376THF    H13 6828   4.389   2.415   4.560  0.3448  0.0705 -4.8360
  377THF     O1 6829   3.430   0.519   5.347 -0.0971  0.0043 -0.0332
  377THF     C2 6830   3.303   0.459   5.366 -0.2908  0.5699 -0.3411
  377THF     C3 6831   3.508   0.463   5.456  0.0575 -0.5834  0.2435
  377THF     H4 6832   3.254   0.470   5.270 -0.6411  0.1761 -0.2112
  377THF     H5 6833   3.245   0.492   5.452 -1.5797 -2.0571 -0.1085
  377THF     H6 6834   3.614   0.465   5.432 -0.5018  0.9118 -2.5361
  377THF     H7 6835   3.510   0.523   5.546  2.4955  0.2276 -0.2738
  377THF     C8 6836   3.452   0.323   5.479  0.0601 -0.0365 -0.3715
  377THF     C9 6837   3.328   0.319   5.388  0.1857  0.5368 -0.3775
  377THF    H10 6838   3.407   0.315   5.578 -2.5350 -3.7999 -1.6244
  377THF    H11 6839   3.535   0.254   5.465  0.0419 -0.6448  2.0790
  377THF    H12 6840   3.340   0.265   5.295 -0.0045  0.6173 -0.4496
  377THF    H13 6841   3.242   0.271   5.434  0.5901  0.2928  0.1335
  378THF     O1 6842   1.580   2.744   2.261 -0.1328 -0.1558  0.1846
  378THF     C2 6843   1.495   2.638   2.298  1.3578 -0.0495  0.5715
  378THF     C3 6844   1.598   2.835   2.364 -0.2866  0.6995 -0.4715
  378THF     H4 6845   1.530   2.560   2.365  0.1998 -0.1537  1.0757
  378THF     H5 6846   1.456   2.589   2.209  1.3203  1.6066 -0.3810
  378THF     H6 6847   1.680   2.795   2.423 -0.6710  2.3651  1.3018
  378THF     H7 6848   1.628   2.932   2.326  0.4773  0.8224  0.3907
  378THF     C8 6849   1.467   2.824   2.451 -1.0501  0.2642  0.6648
  378THF     C9 6850   1.384   2.727   2.367 -0.5024 -0.9786  0.1593
  378THF    H10 6851   1.423   2.923   2.460 -1.8668 -0.1400  1.3205
  378THF    H11 6852   1.492   2.794   2.553  0.3574 -0.3767  0.1518
  378THF    H12 6853   1.307   2.686   2.431  0.9482 -0.4934  2.3133
  378THF    H13 6854   1.332   2.786   2.292 -1.7175  0.5869  2.1388
  379THF     O1 6855   3.508   4.261   1.343 -0.3452  0.1781 -0.3333
  379THF     C2 6856   3.453   4.206   1.227 -0.8370 -0.2108  0.6883
  379THF     C3 6857   3.418   4.355   1.398 -0.4952  0.0899  0.2358
  379THF     H4 6858   3.377   4.132   1.253  1.3346 -1.8030  3.0331
  379THF     H5 6859   3.516   4.153   1.156 -2.4768  0.9337 -1.7668
  379THF     H6 6860   3.350   4.289   1.452  0.3939  0.0491  1.3608
  379THF     H7 6861   3.465   4.437   1.453 -1.3278  2.8906 -2.9332
  379THF     C8 6862   3.352   4.411   1.277 -0.0343 -0.1508  0.4165
  379THF     C9 6863   3.401   4.327   1.156 -0.2394  0.9349  0.2850
  379THF    H10 6864   3.370   4.518   1.270  1.8579 -0.4149  0.9062
  379THF    H11 6865   3.243   4.412   1.290 -0.1925 -1.1080 -0.6530
  379THF    H12 6866   3.311   4.301   1.099 -1.6678 -2.7233  3.7472
  379THF    H13 6867   3.468   4.383   1.090 -0.7866 -0.9099 -1.9777
  380THF     O1 6868   2.455   4.545   5.447 -0.3513 -0.3940  0.0887
  380THF     C2 6869   2.395   4.469   5.551 -0.3258  0.3053  0.0742
  380THF     C3 6870   2.563   4.478   5.390 -0.7207  0.7449  1.2356
  380THF     H4 6871   2.333   4.387   5.513 -0.6525 -0.7979  2.7876
  380THF     H5 6872   2.337   4.534   5.615  2.0706  0.5319  2.1677
  380THF     H6 6873   2.532   4.397   5.324  1.3941  0.3387  0.6735
  380THF     H7 6874   2.621   4.555   5.340 -1.2309  1.3152  1.5107
  380THF     C8 6875   2.635   4.442   5.521 -0.3862 -0.8074 -0.4567
  380THF     C9 6876   2.522   4.407   5.611 -0.3935  0.1045  0.3447
  380THF    H10 6877   2.678   4.541   5.539 -0.2246 -0.9362 -0.1190
  380THF    H11 6878   2.706   4.360   5.520  0.6229  0.0172  0.3723
  380THF    H12 6879   2.508   4.299   5.612 -1.3884  0.2100  1.5932
  380THF    H13 6880   2.548   4.440   5.712  0.1634 -0.2268  0.3106
  381THF     O1 6881   3.215   5.045   0.189  0.3999  0.1955 -0.2552
  381THF     C2 6882   3.330   5.085   0.128 -0.3313 -0.1645  0.0605
  381THF     C3 6883   3.111   5.075   0.097  0.1997 -0.1450  0.6502
  381THF     H4 6884   3.420   5.035   0.163 -0.3737 -0.8011 -0.7139
  381THF     H5 6885   3.340   5.193   0.141  1.0345 -0.3136  0.3482
  381THF     H6 6886   3.032   5.000   0.090  1.2980 -1.1760 -2.0808
  381THF     H7 6887   3.066   5.170   0.126 -0.2609 -0.2733  0.3743
  381THF     C8 6888   3.174   5.090  -0.044  0.0759  0.1983 -0.6077
  381THF     C9 6889   3.315   5.050  -0.020  0.0670 -0.3794  0.3773
  381THF    H10 6890   3.172   5.195  -0.075  0.0833  0.1788 -0.6764
  381THF    H11 6891   3.131   5.018  -0.115 -0.1762 -0.1551 -0.1003
  381THF    H12 6892   3.322   4.947  -0.055  0.4187 -0.4044  0.5163
  381THF    H13 6893   3.383   5.109  -0.080 -1.5331  0.4055 -0.7255
  382THF     O1 6894   2.189   3.111   3.073  0.2117 -0.1639 -0.4903
  382THF     C2 6895   2.137   3.233   3.139 -0.1360  0.1059  0.5030
  382THF     C3 6896   2.127   2.999   3.128  0.1678  0.3068 -0.6212
  382THF     H4 6897   2.074   3.289   3.070 -0.8701  0.2262  1.2669
  382THF     H5 6898   2.229   3.280   3.173 -0.9028  0.3420  2.3556
  382THF     H6 6899   2.050   2.972   3.055 -0.6260 -0.7054  0.5439
  382THF     H7 6900   2.193   2.914   3.145 -0.0314 -0.5034 -3.3863
  382THF     C8 6901   2.067   3.044   3.262 -1.0123  0.2231 -0.1490
  382THF     C9 6902   2.046   3.192   3.250  0.1106  0.0501  0.0943
  382THF    H10 6903   2.143   3.026   3.339 -1.0468  0.9648  0.0619
  382THF    H11 6904   1.979   2.987   3.291 -0.8763  0.3548  0.5531
  382THF    H12 6905   1.941   3.202   3.222 -0.1022  0.0211  0.8487
  382THF    H13 6906   2.066   3.257   3.336 -2.0583  3.3730 -1.6871
  383THF     O1 6907   4.137   0.755   5.094 -0.9389 -0.8569 -0.4000
  383THF     C2 6908   4.020   0.727   5.173  0.0108  0.5584 -0.2914
  383THF     C3 6909   4.179   0.640   5.021  0.4575 -0.0846  0.9014
  383THF     H4 6910   3.947   0.806   5.163  0.1738  1.3353  3.4310
  383THF     H5 6911   4.062   0.725   5.273  1.8759 -0.5176 -1.0286
  383THF     H6 6912   4.170   0.649   4.912 -2.2600  0.7586  1.1045
  383THF     H7 6913   4.281   0.604   5.031 -0.0564 -2.0723 -0.3387
  383THF     C8 6914   4.076   0.533   5.067 -0.1791 -0.6472 -0.3255
  383THF     C9 6915   3.950   0.606   5.108 -0.4481  0.1234 -0.0272
  383THF    H10 6916   4.117   0.484   5.156 -0.3952 -0.1153  0.0765
  383THF    H11 6917   4.062   0.452   4.996  1.6488 -0.7351 -0.6270
  383THF    H12 6918   3.903   0.628   5.012  0.1394  1.8205  0.0354
  383THF    H13 6919   3.883   0.558   5.179 -1.4088 -3.2834 -2.9753
  384THF     O1 6920   3.089   2.949   4.273 -0.4293 -0.6605  0.8286
  384THF     C2 6921   3.124   2.884   4.148  0.0051  0.1319  0.3525
  384THF     C3 6922   3.106   3.087   4.256 -0.7024  0.7013 -0.1236
  384THF     H4 6923   3.089   2.781   4.142  0.0078  0.0279  1.7813
  384THF     H5 6924   3.232   2.880   4.132 -0.0999  0.0003 -0.3812
  384THF     H6 6925   3.026   3.141   4.307 -1.0553  0.4020 -0.3618
  384THF     H7 6926   3.207   3.105   4.295  0.0398 -1.0690 -1.1227
  384THF     C8 6927   3.103   3.111   4.108 -0.0464 -0.2336  0.1629
  384THF     C9 6928   3.073   2.978   4.041 -0.1625  0.2421 -0.1844
  384THF    H10 6929   3.191   3.164   4.072  0.9041 -2.5556 -1.1374
  384THF    H11 6930   3.012   3.169   4.092  0.4108 -0.2661 -3.3997
  384THF    H12 6931   2.968   2.950   4.031  0.1865 -1.0720 -0.4082
  384THF    H13 6932   3.112   2.972   3.939 -1.9444 -1.5090 -0.8295
  385THF     O1 6933   5.374   4.186   0.292  0.7241  0.2115  0.1537
  385THF     C2 6934   5.413   4.135   0.422  0.2160 -0.0822 -0.1797
  385THF     C3 6935   5.235   4.153   0.286  0.2638  0.3485  0.4249
  385THF     H4 6936   5.479   4.212   0.462  0.3640 -0.5191  0.4320
  385THF     H5 6937   5.454   4.033   0.419  0.1613 -0.1281  0.5077
  385THF     H6 6938   5.188   4.217   0.212 -3.7457 -3.4320 -0.7761
  385THF     H7 6939   5.216   4.050   0.254  2.1537 -0.2709  1.1763
  385THF     C8 6940   5.175   4.150   0.425  0.1509  0.2014 -0.0572
  385THF     C9 6941   5.293   4.118   0.517 -0.6768 -0.1548  0.5040
  385THF    H10 6942   5.091   4.080   0.425  0.9890 -0.8246 -0.3666
  385THF    H11 6943   5.136   4.248   0.451 -0.2414 -0.2511  1.1533
  385THF    H12 6944   5.288   4.183   0.604  0.1039  1.2195 -0.4449
  385THF    H13 6945   5.288   4.014   0.547  0.7556 -1.2057 -2.4702
  386THF     O1 6946   4.276   1.615   2.897 -0.3770 -0.5981 -0.1587
  386THF     C2 6947   4.397   1.619   2.836  0.4028 -0.3919  0.0501
  386THF     C3 6948   4.174   1.664   2.811 -0.6279  0.5394 -0.4537
  386THF     H4 6949   4.412   1.530   2.776 -1.3114  0.7191 -2.2036
  386THF     H5 6950   4.478   1.633   2.908 -0.1347  0.0014  0.6026
  386THF     H6 6951   4.125   1.585   2.754  0.5932  0.9797 -2.1891
  386THF     H7 6952   4.101   1.698   2.884  0.9738  1.8865  0.5996
  386THF     C8 6953   4.237   1.777   2.735 -0.3392 -0.5342 -0.6732
  386THF     C9 6954   4.388   1.754   2.763 -0.0878 -0.3928 -0.5283
  386THF    H10 6955   4.207   1.869   2.785 -1.5229 -2.2673  2.0666
  386THF    H11 6956   4.200   1.786   2.633  0.3188 -1.1959 -0.9737
  386THF    H12 6957   4.450   1.765   2.674  0.8598  1.9038  0.3450
  386THF    H13 6958   4.421   1.831   2.832  0.7633 -1.5842  0.4470
  387THF     O1 6959   3.427   2.207   2.752 -0.2335  0.3639 -0.3096
  387THF     C2 6960   3.452   2.153   2.629  0.0693  0.1051 -0.1157
  387THF     C3 6961   3.459   2.112   2.849  0.1879 -0.5230  0.1823
  387THF     H4 6962   3.558   2.138   2.607  0.2525 -2.4451  1.9515
  387THF     H5 6963   3.426   2.223   2.550 -2.8061 -0.2228  0.4492
  387THF     H6 6964   3.565   2.109   2.876  0.3098 -0.0546 -0.2290
  387THF     H7 6965   3.405   2.145   2.938 -1.2438 -1.8738 -0.1438
  387THF     C8 6966   3.411   1.981   2.802 -0.5305  0.3807 -0.5851
  387THF     C9 6967   3.384   2.012   2.646 -0.0287  0.1749 -0.0871
  387THF    H10 6968   3.319   1.952   2.852  0.8519 -1.5440  0.9670
  387THF    H11 6969   3.479   1.899   2.822 -0.3691  0.6102 -0.1740
  387THF    H12 6970   3.443   1.940   2.589  0.2146  0.9651 -0.8459
  387THF    H13 6971   3.277   2.018   2.624  0.3005 -1.5292 -2.5648
  388THF     O1 6972   4.038   4.686   1.365  0.4567 -0.2515 -0.3416
  388THF     C2 6973   4.167   4.702   1.422 -0.5047  0.3318 -0.6494
  388THF     C3 6974   3.960   4.602   1.448 -0.6765  0.0126 -1.1237
  388THF     H4 6975   4.171   4.795   1.478 -0.4581 -0.3122  0.4526
  388THF     H5 6976   4.242   4.702   1.343 -2.0309 -1.1610 -2.1929
  388THF     H6 6977   3.863   4.640   1.482  0.8295  3.2546 -0.0849
  388THF     H7 6978   3.939   4.512   1.391  0.7692  0.4414 -2.3785
  388THF     C8 6979   4.039   4.568   1.569 -0.3922  0.1725  0.3344
  388THF     C9 6980   4.184   4.588   1.525  0.3759 -0.3307  0.1195
  388THF    H10 6981   4.031   4.469   1.615 -0.2721  0.3081  0.6507
  388THF    H11 6982   4.024   4.645   1.645 -1.0347  1.2213 -0.8361
  388THF    H12 6983   4.255   4.616   1.603 -0.0137 -1.4003  0.8825
  388THF    H13 6984   4.220   4.496   1.480 -1.6169 -2.1114  1.9363
  389THF     O1 6985   5.062   2.812   3.199 -0.2682 -0.5812 -0.0954
  389THF     C2 6986   4.985   2.814   3.082  0.1502 -0.1803 -0.3123
  389THF     C3 6987   5.053   2.683   3.257  0.1451  0.1121  0.2592
  389THF     H4 6988   5.033   2.762   2.999  0.7605 -0.1683  0.0213
  389THF     H5 6989   4.967   2.911   3.035  0.5588 -0.8659 -1.9582
  389THF     H6 6990   5.121   2.619   3.201 -0.9970 -0.8643 -0.0547
  389THF     H7 6991   5.092   2.695   3.358  0.0288 -0.4672  0.3781
  389THF     C8 6992   4.907   2.636   3.232  0.0557  0.0322  0.0368
  389THF     C9 6993   4.856   2.744   3.131 -0.9729  0.0252 -0.3321
  389THF    H10 6994   4.848   2.647   3.324  0.8781 -0.6423  0.6557
  389THF    H11 6995   4.897   2.534   3.197  0.8882 -0.0311 -0.0285
  389THF    H12 6996   4.797   2.702   3.049 -1.9563  0.9029 -0.0882
  389THF    H13 6997   4.798   2.815   3.190  0.9769  1.6086 -0.2442
  390THF     O1 6998   4.378   4.887   1.628 -0.5145  0.5597 -0.5406
  390THF     C2 6999   4.317   4.998   1.693  0.4199 -0.0701 -0.7063
  390THF     C3 7000   4.434   4.796   1.732  0.7768  0.2123 -0.6029
  390THF     H4 7001   4.257   5.053   1.620  1.7777  2.4755 -0.0262
  390THF     H5 7002   4.399   5.059   1.731  0.7987 -0.1741 -1.3382
  390THF     H6 7003   4.421   4.692   1.704 -3.0479 -0.3073  2.2267
  390THF     H7 7004   4.542   4.811   1.738  0.6271  1.2663 -0.1093
  390THF     C8 7005   4.360   4.838   1.861  0.1628 -0.6797  0.0360
  390THF     C9 7006   4.248   4.940   1.816 -0.5959  0.9110  0.0385
  390THF    H10 7007   4.429   4.896   1.923 -0.9553  1.1703 -0.3972
  390THF    H11 7008   4.323   4.753   1.919  0.4651 -0.7865  0.0734
  390THF    H12 7009   4.156   4.890   1.787  0.0036 -0.3229  0.2213
  390THF    H13 7010   4.227   5.019   1.888  0.3678 -1.2975  2.9404
  391THF     O1 7011   5.386   5.487   0.971  0.4742  0.6223 -0.2270
  391THF     C2 7012   5.418   5.518   1.101 -0.6074 -0.4451  1.1171
  391THF     C3 7013   5.498   5.475   0.885 -0.4003  0.6569 -0.3395
  391THF     H4 7014   5.433   5.431   1.164  0.2474 -1.6005 -0.5986
  391THF     H5 7015   5.332   5.572   1.141 -0.7330  2.0412 -2.0521
  391THF     H6 7016   5.543   5.379   0.909  1.9493  1.9250  0.7631
  391THF     H7 7017   5.482   5.488   0.778  1.1082  1.8017 -0.4754
  391THF     C8 7018   5.587   5.589   0.937 -0.7625  0.8246  0.6346
  391THF     C9 7019   5.549   5.595   1.083 -0.3668 -0.2165 -0.3260
  391THF    H10 7020   5.546   5.677   0.887  0.6263 -0.3278 -2.8614
  391THF    H11 7021   5.693   5.576   0.916 -1.2001 -2.2001 -0.2752
  391THF    H12 7022   5.632   5.551   1.140 -0.7477 -0.9131 -0.2968
  391THF    H13 7023   5.532   5.696   1.120  0.2129 -0.6646  1.2481
  392THF     O1 7024   5.286   5.413   1.435 -0.8159 -0.3763 -0.0165
  392THF     C2 7025   5.186   5.504   1.461  0.7525  0.4608 -0.3290
  392THF     C3 7026   5.241   5.281   1.463 -0.1369 -0.5706 -0.2634
  392THF     H4 7027   5.116   5.505   1.377 -0.1679 -0.0104  0.4216
  392THF     H5 7028   5.235   5.597   1.489 -0.0023  0.8119 -0.1609
  392THF     H6 7029   5.191   5.236   1.377 -1.6073  0.5713 -0.0379
  392THF     H7 7030   5.333   5.226   1.480 -0.5420 -1.1298  0.1749
  392THF     C8 7031   5.134   5.298   1.572 -0.2841 -0.6583  0.2442
  392THF     C9 7032   5.111   5.447   1.577  0.1752 -0.4248 -0.7340
  392THF    H10 7033   5.154   5.251   1.669  1.1076 -0.1082  0.2361
  392THF    H11 7034   5.038   5.251   1.547  0.5601 -2.3337  0.0164
  392THF    H12 7035   5.007   5.482   1.582  0.7567  1.2030  1.6141
  392THF    H13 7036   5.155   5.494   1.665  0.3900 -0.8120 -0.6352
  393THF     O1 7037   1.168   3.273   3.704  0.6404  0.2904  0.0721
  393THF     C2 7038   1.049   3.278   3.618  0.3476  0.2219 -0.0328
  393THF     C3 7039   1.144   3.364   3.818  0.0087  0.2646  0.0263
  393THF     H4 7040   1.004   3.179   3.610 -1.2452  1.0456 -2.1777
  393THF     H5 7041   1.076   3.307   3.516  0.8822  0.3655  0.1451
  393THF     H6 7042   1.197   3.334   3.909 -0.7484 -0.9759  0.0884
  393THF     H7 7043   1.170   3.467   3.792 -1.5310  0.4115 -1.0634
  393THF     C8 7044   0.994   3.347   3.835  0.0754 -0.1697  0.0339
  393THF     C9 7045   0.941   3.357   3.689 -0.1249 -0.0159 -0.4905
  393THF    H10 7046   0.939   3.416   3.900  0.2351 -1.5555  1.6952
  393THF    H11 7047   0.989   3.244   3.870 -0.8276  0.1165  0.8161
  393THF    H12 7048   0.842   3.312   3.682 -1.4839  2.6355  0.2987
  393THF    H13 7049   0.946   3.464   3.670 -2.4632  0.0838 -0.8302
  394THF     O1 7050   1.898   0.745   3.387 -0.3097  0.2288  0.4694
  394THF     C2 7051   1.899   0.602   3.365 -0.3444  0.0093  0.2309
  394THF     C3 7052   1.811   0.747   3.497  0.6872  0.2047  0.2737
  394THF     H4 7053   1.944   0.523   3.426 -1.5951  0.1370  1.3475
  394THF     H5 7054   1.938   0.599   3.263 -2.9478 -0.7753 -0.8203
  394THF     H6 7055   1.865   0.709   3.583 -2.0329 -0.5992  1.7207
  394THF     H7 7056   1.796   0.851   3.524  1.6920  0.2764  0.6031
  394THF     C8 7057   1.685   0.662   3.453 -0.0859  0.4584 -0.3214
  394THF     C9 7058   1.754   0.574   3.345  0.0753 -0.2199 -0.3898
  394THF    H10 7059   1.600   0.726   3.428 -0.6454 -0.1305  0.0599
  394THF    H11 7060   1.658   0.601   3.539 -0.1414 -1.1591 -1.4456
  394THF    H12 7061   1.723   0.470   3.343  0.1875 -0.2689  0.3317
  394THF    H13 7062   1.713   0.616   3.253  0.2918  1.1741  0.1314
  395THF     O1 7063   3.192   1.356   5.390  0.4732  0.0582 -0.3486
  395THF     C2 7064   3.202   1.240   5.457  0.2345  1.1051 -0.7025
  395THF     C3 7065   3.175   1.330   5.251  0.2726 -0.2576  0.4673
  395THF     H4 7066   3.185   1.257   5.563  0.6425  4.0306 -1.0171
  395THF     H5 7067   3.297   1.190   5.444 -0.7043 -0.5263 -1.6174
  395THF     H6 7068   3.129   1.416   5.201 -1.2208 -0.5919  1.2016
  395THF     H7 7069   3.268   1.297   5.206  1.2158  1.4275  1.1034
  395THF     C8 7070   3.080   1.213   5.251 -0.3593  0.4585  0.2267
  395THF     C9 7071   3.094   1.145   5.386  0.4022  0.1743 -1.3412
  395THF    H10 7072   3.090   1.151   5.161 -2.4739 -1.1293  1.0091
  395THF    H11 7073   2.977   1.249   5.248 -0.1826  1.0129  0.7438
  395THF    H12 7074   2.993   1.155   5.426 -0.5522 -0.4360 -3.4560
  395THF    H13 7075   3.131   1.044   5.375  0.9066  0.0559  0.8670
  396THF     O1 7076   0.354   0.758   5.454 -0.2909 -0.1754  0.6459
  396THF     C2 7077   0.344   0.733   5.591  0.2252 -0.1989 -0.8068
  396THF     C3 7078   0.317   0.642   5.392 -0.0527 -0.5417  0.1539
  396THF     H4 7079   0.361   0.825   5.647 -2.4162 -0.3570  0.4493
  396THF     H5 7080   0.410   0.655   5.627 -1.2180 -0.3088  1.8431
  396THF     H6 7081   0.295   0.651   5.285 -0.1658 -0.3681  0.1915
  396THF     H7 7082   0.385   0.557   5.396  2.3223  1.1948 -0.5655
  396THF     C8 7083   0.183   0.615   5.463  0.2911 -0.4102  0.0814
  396THF     C9 7084   0.200   0.689   5.600 -0.3489 -0.3585 -0.5895
  396THF    H10 7085   0.164   0.509   5.482 -0.6510 -0.3204 -0.3315
  396THF    H11 7086   0.099   0.656   5.408  0.4339  1.0541  0.8936
  396THF    H12 7087   0.130   0.771   5.617 -0.9431 -0.4128 -2.5625
  396THF    H13 7088   0.175   0.615   5.676  0.9393  0.6771  0.9033
  397THF     O1 7089   1.284   2.749   4.695  0.2828 -0.4106 -0.0771
  397THF     C2 7090   1.255   2.853   4.785 -0.0916 -0.4890 -0.0053
  397THF     C3 7091   1.360   2.646   4.760 -0.3274  0.1293  0.3276
  397THF     H4 7092   1.171   2.819   4.846  0.6349 -1.1668  0.6289
  397THF     H5 7093   1.226   2.947   4.738 -2.2227 -2.1632 -2.2857
  397THF     H6 7094   1.295   2.572   4.806 -0.1129 -1.2977 -1.5278
  397THF     H7 7095   1.427   2.587   4.697 -0.7876 -1.3457  1.1894
  397THF     C8 7096   1.443   2.721   4.871  0.5100 -0.3235  0.3084
  397THF     C9 7097   1.385   2.867   4.871 -0.3710  0.6728 -0.4207
  397THF    H10 7098   1.548   2.732   4.846 -0.1764  2.1085 -1.9966
  397THF    H11 7099   1.440   2.676   4.970  1.7438 -0.1357  0.4429
  397THF    H12 7100   1.348   2.893   4.970  1.9597  0.5428  0.5487
  397THF    H13 7101   1.452   2.945   4.836 -0.7395  0.9964 -0.4086
  398THF     O1 7102   2.005   5.052   1.263 -0.2386 -0.5925 -0.1492
  398THF     C2 7103   2.020   4.930   1.329 -0.5963  0.2125 -0.0014
  398THF     C3 7104   2.102   5.051   1.163 -0.0426 -0.1519  0.0924
  398THF     H4 7105   1.970   4.842   1.291  0.4045 -0.6450  0.6016
  398THF     H5 7106   1.993   4.960   1.431 -0.6906  0.1077  0.0034
  398THF     H6 7107   2.087   4.982   1.080 -0.2441  0.7555 -0.6415
  398THF     H7 7108   2.107   5.153   1.126 -1.0472 -0.9259 -2.3875
  398THF     C8 7109   2.226   5.009   1.236  0.1488 -0.4943 -0.1473
  398THF     C9 7110   2.165   4.909   1.335 -0.3895 -0.1307  0.6925
  398THF    H10 7111   2.276   5.083   1.297  1.2028 -1.3143  0.0092
  398THF    H11 7112   2.298   4.954   1.176  1.9436  1.2731  0.3008
  398THF    H12 7113   2.197   4.808   1.308  0.2575 -0.0810  1.2489
  398THF    H13 7114   2.192   4.920   1.440 -0.6748 -0.8135  0.8451
  399THF     O1 7115   2.757   0.943   3.597  0.4783  0.3877  0.2230
  399THF     C2 7116   2.612   0.947   3.607 -0.2872  0.0886  0.2276
  399THF     C3 7117   2.806   0.810   3.589 -0.2357 -0.0616  0.6384
  399THF     H4 7118   2.590   1.044   3.561  0.1545 -0.0699 -0.3339
  399THF     H5 7119   2.583   0.954   3.712  3.4243 -1.9234  1.5684
  399THF     H6 7120   2.901   0.811   3.535 -1.7411 -0.9074 -2.2663
  399THF     H7 7121   2.807   0.770   3.690 -1.3213  0.4513  0.8663
  399THF     C8 7122   2.697   0.733   3.509 -0.0414 -0.1639  0.7909
  399THF     C9 7123   2.571   0.821   3.529 -0.1482 -0.3899  0.3128
  399THF    H10 7124   2.691   0.629   3.541  0.9268  0.8767  4.9929
  399THF    H11 7125   2.719   0.731   3.402 -0.7301 -2.6858  0.6375
  399THF    H12 7126   2.522   0.840   3.433 -0.3786 -5.8115 -0.9556
  399THF    H13 7127   2.495   0.775   3.591 -1.2225  1.0138  0.0810
  400THF     O1 7128   0.878   1.975   0.190 -0.2710 -0.4889  0.3763
  400THF     C2 7129   0.844   2.093   0.258  0.6200  0.4712  0.7782
  400THF     C3 7130   1.000   1.935   0.249  0.1003 -1.2412 -0.3886
  400THF     H4 7131   0.739   2.116   0.241  1.1939  0.6306 -3.7794
  400THF     H5 7132   0.901   2.185   0.243 -2.5429  2.5692  0.6060
  400THF     H6 7133   1.003   1.827   0.268  2.7894 -1.0826  0.4953
  400THF     H7 7134   1.079   1.970   0.183  1.2948 -0.6083  1.2932
  400THF     C8 7135   1.003   1.998   0.390  0.5073  0.5284  0.2814
  400THF     C9 7136   0.862   2.041   0.397  0.5324  0.2749 -0.0426
  400THF    H10 7137   1.076   2.077   0.406  1.3778 -0.2514  0.2439
  400THF    H11 7138   1.034   1.924   0.463 -1.4208  1.1532  1.8131
  400THF    H12 7139   0.796   1.958   0.425 -1.2726  1.5930 -0.2071
  400THF    H13 7140   0.862   2.119   0.473 -0.4245  0.1305  0.1198
  401THF     O1 7141   3.101   2.714   0.270 -0.2969  0.6308 -0.1631
  401THF     C2 7142   3.220   2.742   0.197 -0.1371 -0.3976 -0.1620
  401THF     C3 7143   3.088   2.573   0.249  0.2312 -0.6283  0.1255
  401THF     H4 7144   3.274   2.830   0.232  0.5075 -0.7401 -0.2700
  401THF     H5 7145   3.202   2.773   0.093  0.6352 -0.9868 -0.4783
  401THF     H6 7146   3.015   2.530   0.317 -1.1002 -1.8403 -1.9391
  401THF     H7 7147   3.039   2.567   0.151 -0.1205  1.5261  0.1130
  401THF     C8 7148   3.228   2.520   0.255  0.0663 -0.1781 -0.2331
  401THF     C9 7149   3.318   2.628   0.194 -0.1276 -0.2163  0.2624
  401THF    H10 7150   3.241   2.425   0.202 -0.4706 -0.4122  0.0511
  401THF    H11 7151   3.245   2.512   0.363  0.6579  1.2165 -0.2107
  401THF    H12 7152   3.408   2.661   0.247  2.1415 -1.3898 -2.5716
  401THF    H13 7153   3.352   2.607   0.092 -0.1711 -0.7586  0.3600
  402THF     O1 7154   4.409   3.007   0.090  0.0379  0.2662  0.1092
  402THF     C2 7155   4.431   3.011  -0.053  1.3810  0.1108 -0.3625
  402THF     C3 7156   4.268   3.014   0.120  0.3011  0.3928  0.5041
  402THF     H4 7157   4.521   2.957  -0.082  0.3358 -2.0068  0.1447
  402THF     H5 7158   4.419   3.117  -0.074 -1.9792  0.5461  2.7197
  402THF     H6 7159   4.243   2.960   0.211  1.5305  2.4933  2.1700
  402THF     H7 7160   4.244   3.120   0.134 -1.6768  0.0338  0.1117
  402THF     C8 7161   4.199   2.961  -0.010  0.6332 -0.2960  0.5064
  402THF     C9 7162   4.315   2.924  -0.106  0.7985 -0.4199 -0.2844
  402THF    H10 7163   4.134   3.035  -0.057 -0.2968 -1.5680 -0.2652
  402THF    H11 7164   4.137   2.873   0.004  0.6805 -0.1417  1.8951
  402THF    H12 7165   4.339   2.818  -0.112  0.3344 -0.4491 -2.8091
  402THF    H13 7166   4.272   2.961  -0.199 -0.6874  0.4430  0.7086
  403THF     O1 7167   0.146   4.030   3.091 -0.3639 -0.5481 -0.1911
  403THF     C2 7168   0.216   3.914   3.140 -0.6314 -0.8912 -0.0329
  403THF     C3 7169   0.125   4.115   3.208  0.0392  0.1141 -0.4815
  403THF     H4 7170   0.322   3.926   3.115 -0.7799  1.6032  0.2743
  403THF     H5 7171   0.178   3.825   3.091 -2.8662 -0.3569  0.6291
  403THF     H6 7172   0.210   4.178   3.234  0.0087  0.0308 -0.1769
  403THF     H7 7173   0.037   4.176   3.188  0.0377 -0.1790 -1.4434
  403THF     C8 7174   0.096   4.018   3.315 -0.2084 -0.0300  0.0391
  403THF     C9 7175   0.208   3.917   3.288 -0.0510 -0.0185  0.3568
  403THF    H10 7176  -0.005   3.978   3.310 -0.0268 -0.3125 -1.8093
  403THF    H11 7177   0.107   4.063   3.414 -0.9493  0.9487 -0.3000
  403THF    H12 7178   0.300   3.958   3.328  0.1553 -0.3489  0.2274
  403THF    H13 7179   0.197   3.816   3.328  2.0716 -1.8119 -3.0637
  404THF     O1 7180   1.187   4.917   2.946  0.0030  0.0342  0.1531
  404THF     C2 7181   1.167   4.791   2.893  0.5032 -0.4290 -0.0100
  404THF     C3 7182   1.241   4.904   3.074  0.3973  1.3508 -0.0174
  404THF     H4 7183   1.171   4.800   2.784 -1.0818 -0.5909 -0.1067
  404THF     H5 7184   1.065   4.756   2.910 -0.5141  1.7742 -1.1019
  404THF     H6 7185   1.273   5.000   3.116 -0.0037  2.2774 -1.7095
  404THF     H7 7186   1.167   4.874   3.147 -0.1164  0.4897 -0.8720
  404THF     C8 7187   1.341   4.792   3.064  0.7231  0.8868  0.9912
  404THF     C9 7188   1.278   4.701   2.957 -0.3743  0.7953  0.0415
  404THF    H10 7189   1.349   4.730   3.153  0.9371  0.0443  0.3998
  404THF    H11 7190   1.440   4.827   3.035  0.4062  0.7920 -0.2690
  404THF    H12 7191   1.353   4.673   2.883 -3.0658 -2.0016 -1.8592
  404THF    H13 7192   1.246   4.606   3.000 -0.1072 -0.4377 -2.3633
  405THF     O1 7193   4.500   0.754   3.666 -0.1874 -0.2760 -0.2606
  405THF     C2 7194   4.387   0.816   3.723 -0.1829  0.0656 -0.5117
  405THF     C3 7195   4.463   0.762   3.527 -0.6344  0.3667  0.0530
  405THF     H4 7196   4.398   0.924   3.715 -1.2376  0.2401  0.1162
  405THF     H5 7197   4.382   0.794   3.830  0.3050  1.5754 -0.1618
  405THF     H6 7198   4.481   0.861   3.485  1.3729 -1.1726 -3.0780
  405THF     H7 7199   4.516   0.688   3.466  1.1664 -0.5022  2.5277
  405THF     C8 7200   4.311   0.747   3.515  0.3234  0.7688  0.1553
  405THF     C9 7201   4.265   0.770   3.651  0.1501  0.2511 -0.6223
  405THF    H10 7202   4.287   0.647   3.478  0.9051  0.6131  0.1973
  405THF    H11 7203   4.268   0.816   3.442  1.3805  0.5303 -0.7209
  405THF    H12 7204   4.182   0.839   3.661 -0.3961 -0.4826 -0.0207
  405THF    H13 7205   4.237   0.675   3.697  2.3968 -0.2758 -0.2029
  406THF     O1 7206   0.060   4.399   1.286 -0.1363 -0.4645  0.1110
  406THF     C2 7207   0.205   4.421   1.277  0.0151  0.2463 -0.1205
  406THF     C3 7208   0.001   4.524   1.238  0.0541 -0.4388  0.3767
  406THF     H4 7209   0.265   4.331   1.289  0.1007  0.3211  0.0155
  406THF     H5 7210   0.240   4.496   1.348  0.7726  0.2275 -0.4544
  406THF     H6 7211  -0.099   4.515   1.197  1.1739 -1.3951 -2.4014
  406THF     H7 7212  -0.012   4.597   1.318  0.7724  1.7082 -1.3589
  406THF     C8 7213   0.090   4.572   1.121 -0.0354 -0.7464  0.5758
  406THF     C9 7214   0.214   4.492   1.138 -0.0358 -0.6875  0.1898
  406THF    H10 7215   0.113   4.678   1.112  1.9415 -1.3220 -3.1560
  406THF    H11 7216   0.052   4.543   1.023  1.5316  0.7915 -0.5417
  406THF    H12 7217   0.222   4.417   1.059  3.0383  0.1573 -0.4271
  406THF    H13 7218   0.306   4.549   1.123  1.7762 -3.2050  1.0901
  407THF     O1 7219   1.877   3.249   0.151  0.3044  0.3299 -0.0880
  407THF     C2 7220   2.015   3.260   0.145 -0.0252 -0.3982 -0.1272
  407THF     C3 7221   1.837   3.196   0.026 -0.2053 -0.2207  0.3753
  407THF     H4 7222   2.056   3.256   0.246 -0.9176  1.2075  0.3277
  407THF     H5 7223   2.048   3.355   0.103 -0.4377  0.1675  0.7874
  407THF     H6 7224   1.767   3.117   0.053 -1.0260  0.5289  0.5258
  407THF     H7 7225   1.779   3.264  -0.037  0.3502  1.4223  1.5422
  407THF     C8 7226   1.955   3.130  -0.046 -0.1186  0.0011  0.4735
  407THF     C9 7227   2.064   3.145   0.064 -0.3700  0.5525  0.2585
  407THF    H10 7228   1.983   3.180  -0.139  0.6098  0.9433  1.1831
  407THF    H11 7229   1.923   3.026  -0.059 -1.7033  0.2670  1.9915
  407THF    H12 7230   2.084   3.047   0.106  2.9614  0.6986 -0.7025
  407THF    H13 7231   2.162   3.171   0.023  0.1176  1.9618  2.1710
  408THF     O1 7232   3.188   0.478   1.095 -0.0164 -0.3598  0.3493
  408THF     C2 7233   3.132   0.546   0.986 -0.1650 -0.9829  0.1662
  408THF     C3 7234   3.297   0.552   1.145 -0.2528 -0.6419  0.6245
  408THF     H4 7235   3.039   0.598   1.010 -0.8927 -1.2145 -1.9464
  408THF     H5 7236   3.114   0.470   0.910  0.4964 -3.9008  2.7221
  408THF     H6 7237   3.260   0.631   1.211  1.6016  1.9861 -1.2485
  408THF     H7 7238   3.377   0.497   1.194  2.5202  1.1260 -1.6369
  408THF     C8 7239   3.357   0.611   1.012  0.3393 -0.3116  0.5479
  408THF     C9 7240   3.233   0.643   0.934 -0.4231 -0.5525 -0.0323
  408THF    H10 7241   3.421   0.545   0.954  0.6870 -0.2438  0.8536
  408THF    H11 7242   3.407   0.704   1.036 -1.2016  0.9046 -0.7178
  408THF    H12 7243   3.201   0.745   0.956 -2.6066 -1.2428  0.2194
  408THF    H13 7244   3.241   0.632   0.826  1.6031  0.1762  0.0088
  409THF     O1 7245   4.352   5.155   3.983  0.0527 -0.0826 -0.5108
  409THF     C2 7246   4.359   5.281   4.053 -0.2190  0.5053  0.4336
  409THF     C3 7247   4.304   5.173   3.849  0.1532 -0.2653 -1.1226
  409THF     H4 7248   4.460   5.317   4.035 -0.9817  1.6290 -2.0012
  409THF     H5 7249   4.336   5.261   4.158  0.1741 -2.2776  0.0671
  409THF     H6 7250   4.379   5.197   3.774 -1.0790 -0.3501 -2.4399
  409THF     H7 7251   4.246   5.084   3.821 -1.3882  0.2810  0.1808
  409THF     C8 7252   4.204   5.288   3.856 -0.5118 -0.8875 -0.5320
  409THF     C9 7253   4.253   5.371   3.983  0.0394 -0.0510  0.6719
  409THF    H10 7254   4.100   5.259   3.872 -1.0069 -0.1810 -2.2123
  409THF    H11 7255   4.197   5.348   3.765 -3.0144  0.5295  0.4830
  409THF    H12 7256   4.298   5.464   3.950 -1.5619  0.7630  0.6589
  409THF    H13 7257   4.173   5.396   4.052  0.1155  0.7933  0.4578
  410THF     O1 7258   3.906   2.739   2.313  0.0737  0.0087 -0.2659
  410THF     C2 7259   3.783   2.779   2.371 -0.5728 -0.4386  0.6344
  410THF     C3 7260   3.984   2.660   2.403 -0.3925 -0.7845 -0.1224
  410THF     H4 7261   3.705   2.800   2.298 -0.1172 -0.2346  0.2067
  410THF     H5 7262   3.808   2.873   2.419 -0.2298 -0.0316 -0.3211
  410THF     H6 7263   4.051   2.601   2.341  0.3177  1.7603 -1.9400
  410THF     H7 7264   4.035   2.718   2.480 -0.1950 -2.1456  0.8164
  410THF     C8 7265   3.872   2.573   2.468 -0.7437  0.3696  0.3993
  410THF     C9 7266   3.749   2.665   2.467  1.0612 -0.3898 -0.5969
  410THF    H10 7267   3.897   2.541   2.569  1.6317 -1.0987 -0.5595
  410THF    H11 7268   3.851   2.485   2.407  0.7389 -1.5867  2.5195
  410THF    H12 7269   3.662   2.604   2.444  0.8250 -0.0927 -0.5072
  410THF    H13 7270   3.732   2.715   2.563  1.9169 -1.1945 -0.0089
  411THF     O1 7271   4.892   2.499   3.537 -0.0572 -0.4058 -0.4923
  411THF     C2 7272   4.854   2.537   3.671  0.1180  0.0096 -0.0031
  411THF     C3 7273   4.835   2.370   3.517 -0.0334  0.1000  0.4142
  411THF     H4 7274   4.832   2.642   3.689 -1.3510 -0.4258  0.8526
  411THF     H5 7275   4.933   2.494   3.732 -0.4236 -0.6350  0.2596
  411THF     H6 7276   4.798   2.360   3.415  0.0162  2.0309  0.1659
  411THF     H7 7277   4.905   2.287   3.527 -0.5723 -0.7467 -2.0988
  411THF     C8 7278   4.726   2.345   3.625 -0.1182 -0.4386  0.1376
  411THF     C9 7279   4.723   2.468   3.700 -0.0336 -0.1244 -0.0651
  411THF    H10 7280   4.776   2.260   3.671  2.1665 -0.3220 -1.9043
  411THF    H11 7281   4.629   2.320   3.581 -1.2201  1.5518  1.2624
  411THF    H12 7282   4.642   2.536   3.673  0.4048  1.4473  2.2573
  411THF    H13 7283   4.707   2.447   3.806 -0.5271 -0.0293 -0.1171
  412THF     O1 7284   1.306   2.089   4.409 -0.3971 -0.1861 -0.2780
  412THF     C2 7285   1.244   2.166   4.313  0.1553 -0.7326  1.2141
  412THF     C3 7286   1.408   2.161   4.485  0.5404  0.2050 -0.1112
  412THF     H4 7287   1.139   2.138   4.307 -0.8194  2.7273 -0.2130
  412THF     H5 7288   1.294   2.156   4.216 -0.8602  0.6637  0.5100
  412THF     H6 7289   1.423   2.124   4.587  0.4268 -0.9273 -0.4904
  412THF     H7 7290   1.499   2.167   4.426  0.3946  1.9861 -0.2199
  412THF     C8 7291   1.331   2.296   4.486  0.4414 -0.4947 -0.4078
  412THF     C9 7292   1.260   2.314   4.358  1.0245  0.0948 -0.1389
  412THF    H10 7293   1.393   2.383   4.509  0.7916 -1.0760  0.9330
  412THF    H11 7294   1.260   2.293   4.569 -0.0966  0.3391 -0.8233
  412THF    H12 7295   1.159   2.354   4.368  0.1942 -1.2341 -2.4467
  412THF    H13 7296   1.321   2.373   4.290  0.8689  0.9254  0.4280
  413THF     O1 7297   1.568   4.890   0.106 -0.0799 -0.8873  0.8387
  413THF     C2 7298   1.445   4.905   0.181  0.1271  0.4171  0.4640
  413THF     C3 7299   1.549   4.798  -0.001  0.0515 -0.1937 -0.1894
  413THF     H4 7300   1.425   5.008   0.210  0.3588  0.7257 -0.4283
  413THF     H5 7301   1.445   4.852   0.276 -1.4851 -0.7238 -0.1245
  413THF     H6 7302   1.556   4.856  -0.093 -0.9097 -0.7576 -0.6434
  413THF     H7 7303   1.619   4.715  -0.001 -0.0107 -0.2478 -0.3843
  413THF     C8 7304   1.403   4.738   0.024 -0.1112  0.3090 -0.8771
  413THF     C9 7305   1.329   4.847   0.093 -0.9315 -0.4116  0.7936
  413THF    H10 7306   1.426   4.665   0.102  0.4967  1.5787  0.1802
  413THF    H11 7307   1.356   4.685  -0.059 -1.5048 -0.1185  0.1513
  413THF    H12 7308   1.299   4.916   0.015 -1.9598 -3.1230 -1.3735
  413THF    H13 7309   1.240   4.823   0.152 -0.2164 -2.5319  1.1306
  414THF     O1 7310   3.194   3.438   1.239  0.2429 -0.0087  0.2790
  414THF     C2 7311   3.278   3.324   1.239 -0.1969 -0.2250  0.0032
  414THF     C3 7312   3.063   3.395   1.217  0.0988  0.1520  0.9294
  414THF     H4 7313   3.375   3.339   1.286 -0.8242  1.5064  0.8141
  414THF     H5 7314   3.309   3.291   1.139  1.6326 -1.2377  0.8627
  414THF     H6 7315   2.987   3.451   1.273 -0.7434 -0.9356  0.8951
  414THF     H7 7316   3.034   3.408   1.113 -0.2051 -2.1048  0.6829
  414THF     C8 7317   3.057   3.245   1.259 -0.3280  0.2503 -0.1962
  414THF     C9 7318   3.202   3.214   1.298 -0.5975 -0.1990  0.0517
  414THF    H10 7319   3.027   3.178   1.178 -0.1020 -0.7515  0.5337
  414THF    H11 7320   2.985   3.235   1.340  0.0489 -2.0747 -0.0997
  414THF    H12 7321   3.212   3.231   1.405  1.8202 -2.5053  0.2926
  414THF    H13 7322   3.240   3.121   1.256 -1.1899  0.0231 -1.0011
  415THF     O1 7323   4.956   4.768   2.574 -0.3803  0.1808  0.8036
  415THF     C2 7324   4.975   4.898   2.529 -0.5484 -0.0813 -0.2405
  415THF     C3 7325   4.818   4.747   2.609  1.0151 -0.5524  0.6447
  415THF     H4 7326   5.070   4.908   2.476 -0.3081  1.5100  0.4521
  415THF     H5 7327   4.970   4.968   2.612  3.2410  0.1918 -0.0290
  415THF     H6 7328   4.783   4.644   2.608 -3.5377  0.7884 -1.0027
  415THF     H7 7329   4.812   4.787   2.711  1.1007  2.8756 -0.5566
  415THF     C8 7330   4.745   4.834   2.506  0.4477 -0.0190  0.2536
  415THF     C9 7331   4.852   4.912   2.434  0.3102  0.4927 -0.4350
  415THF    H10 7332   4.673   4.895   2.562 -0.0540 -0.5801  0.2248
  415THF    H11 7333   4.685   4.782   2.431  2.3201  0.0791 -1.3930
  415THF    H12 7334   4.899   4.853   2.355 -0.7537 -2.5631  1.0394
  415THF    H13 7335   4.830   5.011   2.395 -0.4667  0.3023 -0.5023
  416THF     O1 7336   2.148   4.944   1.822  0.2635  0.4079  0.0405
  416THF     C2 7337   2.064   4.833   1.788  0.1952 -0.2376  0.1469
  416THF     C3 7338   2.109   5.052   1.739 -0.1150  0.4655 -0.2570
  416THF     H4 7339   2.080   4.753   1.860  2.3748 -1.6517 -1.7540
  416THF     H5 7340   2.097   4.803   1.688 -1.7153  0.2508 -0.6760
  416THF     H6 7341   2.128   5.150   1.781 -1.0844  1.2381 -1.5302
  416THF     H7 7342   2.157   5.047   1.641  0.6441  0.0166  0.1291
  416THF     C8 7343   1.958   5.039   1.738  0.9222 -0.0618 -0.0934
  416THF     C9 7344   1.932   4.903   1.794  0.9418  0.3602  0.7122
  416THF    H10 7345   1.929   5.051   1.634  2.6545  1.5263 -0.4481
  416THF    H11 7346   1.907   5.120   1.790 -2.1625 -0.8905 -1.6270
  416THF    H12 7347   1.911   4.911   1.900  2.4871  1.1368  0.9963
  416THF    H13 7348   1.853   4.845   1.747  0.5552  0.2287  1.5176
  417THF     O1 7349   2.115   1.760   1.717 -0.8311  0.3120 -0.0811
  417THF     C2 7350   2.218   1.859   1.712  0.2879 -0.2366  0.7172
  417THF     C3 7351   2.195   1.639   1.721  0.5061  0.2847  0.2196
  417THF     H4 7352   2.186   1.963   1.716  1.7593  0.1976  1.9176
  417THF     H5 7353   2.269   1.845   1.617 -0.3261  1.4053  0.1008
  417THF     H6 7354   2.131   1.552   1.732 -1.0201  1.3450  0.1369
  417THF     H7 7355   2.242   1.604   1.630  0.2199 -1.1369  0.5998
  417THF     C8 7356   2.297   1.677   1.830  0.0230 -0.0178 -0.0807
  417THF     C9 7357   2.298   1.830   1.842  0.3770  0.0361  0.2288
  417THF    H10 7358   2.397   1.644   1.802  0.6778  1.9505 -0.1719
  417THF    H11 7359   2.261   1.628   1.921 -0.9358  1.5087  0.4018
  417THF    H12 7360   2.229   1.859   1.922 -0.2250  2.7135 -1.1551
  417THF    H13 7361   2.391   1.886   1.855  0.0319  0.3814  1.3275
  418THF     O1 7362   1.133   3.367   1.047  0.0543  0.2862  0.5259
  418THF     C2 7363   1.126   3.268   1.144 -0.3754  0.2721  0.3567
  418THF     C3 7364   1.141   3.492   1.113 -0.3017  0.2659  0.3843
  418THF     H4 7365   1.173   3.177   1.108 -1.1769 -0.7047  1.6611
  418THF     H5 7366   1.021   3.246   1.165 -0.2714  0.3847  1.0146
  418THF     H6 7367   1.196   3.565   1.054  3.9132 -1.9055  1.2243
  418THF     H7 7368   1.043   3.531   1.139  0.7822  0.2976  5.4258
  418THF     C8 7369   1.219   3.470   1.242  0.5551 -0.1268  0.2360
  418THF     C9 7370   1.183   3.327   1.274  0.5827 -0.2385 -0.3417
  418THF    H10 7371   1.191   3.541   1.321  1.2243 -0.1383  0.4879
  418THF    H11 7372   1.324   3.472   1.213  0.3097  0.1855 -0.6764
  418THF    H12 7373   1.277   3.279   1.300  0.6820  1.1282  2.1659
  418THF    H13 7374   1.118   3.322   1.362  1.0029 -0.7805 -0.0542
  419THF     O1 7375   0.290   2.404   1.432  0.4496  0.4238  0.3258
  419THF     C2 7376   0.306   2.262   1.436  0.2050  0.0500 -0.2286
  419THF     C3 7377   0.311   2.447   1.303 -0.1429  0.4642 -0.3201
  419THF     H4 7378   0.253   2.222   1.522  1.9965  0.2832  1.0578
  419THF     H5 7379   0.412   2.257   1.463  0.0061  3.2671  1.8558
  419THF     H6 7380   0.254   2.535   1.273 -0.3852  1.0772  1.7495
  419THF     H7 7381   0.418   2.471   1.303  0.2835 -1.0898  1.8562
  419THF     C8 7382   0.275   2.331   1.207  0.1968 -0.3392 -0.0332
  419THF     C9 7383   0.266   2.206   1.305  0.1675  0.1260  0.6459
  419THF    H10 7384   0.359   2.322   1.138  0.0140 -0.9992 -0.1789
  419THF    H11 7385   0.172   2.338   1.172 -0.4295  0.4652  1.8393
  419THF    H12 7386   0.167   2.162   1.317 -0.4040  1.3616  0.6418
  419THF    H13 7387   0.341   2.134   1.272  1.9895  2.2801 -0.2046
  420THF     O1 7388   3.725   2.429   0.431 -0.7479  0.0524  0.1052
  420THF     C2 7389   3.773   2.302   0.463  0.7891  0.1521 -0.1002
  420THF     C3 7390   3.692   2.434   0.289  0.1398  0.0333 -0.2951
  420THF     H4 7391   3.770   2.279   0.569 -0.6251  1.7388  0.2560
  420THF     H5 7392   3.871   2.271   0.428  0.2625 -2.0748  0.2619
  420THF     H6 7393   3.625   2.520   0.279 -0.1121 -0.2622 -1.1878
  420THF     H7 7394   3.786   2.459   0.240  0.6617  0.7595  1.0160
  420THF     C8 7395   3.634   2.294   0.268  0.8606 -0.1195  0.5598
  420THF     C9 7396   3.661   2.217   0.399 -0.1967 -0.8044  0.0667
  420THF    H10 7397   3.675   2.234   0.186 -1.3117 -0.5922 -0.2566
  420THF    H11 7398   3.525   2.304   0.259  0.3792 -2.4940  2.6300
  420THF    H12 7399   3.566   2.216   0.451  0.0887  3.5383  1.0717
  420THF    H13 7400   3.687   2.112   0.382  1.0513 -0.4477 -0.3167
  421THF     O1 7401   1.678   3.244   2.521  0.2016 -0.2939 -0.0807
  421THF     C2 7402   1.610   3.265   2.403  0.3329 -0.1463  0.7003
  421THF     C3 7403   1.786   3.148   2.503  0.2919  0.1963  0.4156
  421THF     H4 7404   1.549   3.355   2.403 -2.1267 -1.7383  0.9304
  421THF     H5 7405   1.547   3.179   2.380  2.1214 -1.4767  0.5445
  421THF     H6 7406   1.870   3.189   2.560  2.1004 -0.2723 -1.7218
  421THF     H7 7407   1.752   3.051   2.537  0.2225  0.3487  0.7837
  421THF     C8 7408   1.814   3.164   2.350 -0.3347 -0.3429 -0.5674
  421THF     C9 7409   1.718   3.270   2.297  0.2790 -0.3999  0.3450
  421THF    H10 7410   1.812   3.063   2.310  0.4855 -0.1282 -1.1761
  421THF    H11 7411   1.912   3.207   2.329 -1.2293  1.1864 -1.8223
  421THF    H12 7412   1.768   3.366   2.296  0.6177 -0.5719  0.5189
  421THF    H13 7413   1.672   3.252   2.199 -0.8018  1.8210  0.3853
  422THF     O1 7414   2.074   0.387   4.329  0.2642 -0.1623  0.0821
  422THF     C2 7415   2.125   0.277   4.257 -0.0081  0.5127 -0.8585
  422THF     C3 7416   2.126   0.509   4.277  0.0715 -0.1225  0.3807
  422THF     H4 7417   2.062   0.258   4.170 -1.0605 -1.6042  0.2840
  422THF     H5 7418   2.134   0.192   4.324  1.6901  1.1714 -0.1945
  422THF     H6 7419   2.054   0.539   4.201  0.7142  0.0272 -0.1796
  422THF     H7 7420   2.134   0.586   4.353  0.2656  0.6379 -0.3903
  422THF     C8 7421   2.262   0.483   4.227 -0.7198  0.5641 -0.3174
  422THF     C9 7422   2.262   0.329   4.206  0.7819 -0.0504 -0.4189
  422THF    H10 7423   2.339   0.511   4.299 -0.3207 -2.5265  0.5971
  422THF    H11 7424   2.289   0.532   4.133  1.6769 -0.0875 -0.0220
  422THF    H12 7425   2.271   0.298   4.101  2.3046  0.4243 -0.4475
  422THF    H13 7426   2.352   0.292   4.255 -1.2218 -1.1911  2.7520
  423THF     O1 7427   4.912   1.742   1.023  0.1450  0.1999 -0.4380
  423THF     C2 7428   4.982   1.869   1.040  0.1888 -0.0869 -0.0752
  423THF     C3 7429   4.809   1.760   0.927  0.0249 -0.2000  0.1214
  423THF     H4 7430   5.085   1.851   1.072  0.3379  1.4791  0.4254
  423THF     H5 7431   4.933   1.923   1.121 -0.4472 -1.3527  0.4162
  423THF     H6 7432   4.783   1.666   0.878 -0.2279  0.4490 -1.0169
  423THF     H7 7433   4.725   1.816   0.968  0.3626 -0.6389  1.4938
  423THF     C8 7434   4.883   1.856   0.825 -0.0097 -0.2920 -0.1287
  423THF     C9 7435   4.959   1.952   0.913  0.5129 -0.1277  0.2850
  423THF    H10 7436   4.808   1.910   0.767  1.5697  2.0621 -0.0925
  423THF    H11 7437   4.953   1.812   0.754  1.0102  1.9879 -0.6195
  423THF    H12 7438   5.051   1.999   0.879  0.5344 -0.9991 -0.9142
  423THF    H13 7439   4.889   2.032   0.941  0.7914  0.6496 -1.1468
  424THF     O1 7440   2.696   5.169   3.430  0.5684 -0.4540  0.1088
  424THF     C2 7441   2.635   5.125   3.543  0.7586 -0.0307 -0.3351
  424THF     C3 7442   2.770   5.058   3.374 -0.0052  0.0968 -0.0552
  424THF     H4 7443   2.552   5.194   3.564  0.4279 -0.5685  0.1614
  424THF     H5 7444   2.714   5.138   3.617  0.9447  3.1394 -0.9583
  424THF     H6 7445   2.792   5.075   3.268  1.6788 -0.4237  0.1813
  424THF     H7 7446   2.865   5.031   3.420 -0.2247 -3.0949 -1.1770
  424THF     C8 7447   2.669   4.949   3.392  0.4608 -0.6223 -0.2439
  424THF     C9 7448   2.601   4.975   3.523 -0.4610 -0.5439  0.2649
  424THF    H10 7449   2.703   4.846   3.376 -1.8791 -1.2314 -1.7795
  424THF    H11 7450   2.600   4.961   3.309 -0.1882 -1.6392  0.1272
  424THF    H12 7451   2.493   4.960   3.531 -0.9134  1.6245 -1.0351
  424THF    H13 7452   2.644   4.916   3.604  2.3270  1.1051  0.0979
  425THF     O1 7453   5.414   0.365   2.943  0.2680 -0.7427  0.3156
  425THF     C2 7454   5.301   0.303   2.877  0.3111  0.8958  0.0974
  425THF     C3 7455   5.429   0.492   2.874  0.4449  0.0825 -0.5454
  425THF     H4 7456   5.258   0.219   2.932 -1.3720  0.3373 -1.9499
  425THF     H5 7457   5.328   0.246   2.789  0.7909 -0.2560  0.9619
  425THF     H6 7458   5.491   0.570   2.917 -1.6306  1.7464 -0.4128
  425THF     H7 7459   5.478   0.462   2.781 -0.4264 -0.9251 -0.7027
  425THF     C8 7460   5.284   0.536   2.848 -0.1164 -0.4669  0.2229
  425THF     C9 7461   5.199   0.415   2.854  0.8214 -0.0401 -0.1758
  425THF    H10 7462   5.275   0.602   2.762  0.0774 -2.8555 -1.7390
  425THF    H11 7463   5.268   0.603   2.933 -0.2943  1.8977 -1.5589
  425THF    H12 7464   5.123   0.429   2.930 -0.5235  1.2680 -1.6824
  425THF    H13 7465   5.133   0.406   2.768 -1.0094  1.7901  0.9226
  426THF     O1 7466   1.549   4.339   3.223 -0.4510 -0.0058 -0.1297
  426THF     C2 7467   1.557   4.466   3.167 -0.7325  0.5289 -0.0163
  426THF     C3 7468   1.641   4.257   3.152 -0.0255 -0.2959  0.6045
  426THF     H4 7469   1.616   4.522   3.239 -1.1421 -1.4262  1.9739
  426THF     H5 7470   1.454   4.500   3.157 -1.4447 -1.1613  1.0181
  426THF     H6 7471   1.741   4.274   3.192  0.6733  2.3166 -1.9089
  426THF     H7 7472   1.629   4.149   3.161  0.2433 -0.5992 -1.8216
  426THF     C8 7473   1.629   4.301   3.004  0.5981  0.6715 -0.2471
  426THF     C9 7474   1.615   4.452   3.020  0.8505  0.0019 -0.2259
  426THF    H10 7475   1.532   4.263   2.973  0.0051 -0.5177  2.7150
  426THF    H11 7476   1.708   4.262   2.940 -1.5551 -1.5639 -1.7244
  426THF    H12 7477   1.707   4.510   3.009  0.3147  0.5028 -2.7928
  426THF    H13 7478   1.540   4.504   2.961  0.1093 -0.9187 -0.1162
  427THF     O1 7479   1.890   0.886   4.095 -0.9406 -0.3866  0.2112
  427THF     C2 7480   1.920   0.794   3.984  0.1691  0.3140 -0.3340
  427THF     C3 7481   1.915   1.019   4.061  0.2605 -0.5444  0.4913
  427THF     H4 7482   1.829   0.745   3.948 -0.5468  0.2270  1.4739
  427THF     H5 7483   1.994   0.721   4.015 -1.7749 -1.0308  1.4473
  427THF     H6 7484   1.832   1.077   4.102 -0.5507 -1.8189  0.6852
  427THF     H7 7485   2.003   1.052   4.116 -0.8458  0.5251  1.6844
  427THF     C8 7486   1.934   1.023   3.910  0.3050  0.1423  0.3367
  427THF     C9 7487   1.988   0.883   3.881  0.0051 -0.0475  0.1144
  427THF    H10 7488   1.997   1.101   3.869 -2.0654  1.0477 -1.8212
  427THF    H11 7489   1.844   1.013   3.849 -0.0782 -0.4039  0.9794
  427THF    H12 7490   1.968   0.840   3.782  1.5933 -0.3243 -0.1117
  427THF    H13 7491   2.093   0.866   3.905  0.2705 -2.3440 -2.1453
  428THF     O1 7492   2.790   4.644   5.091 -0.2957 -0.6754 -0.4492
  428THF     C2 7493   2.869   4.755   5.043  0.3740  0.3743 -0.4704
  428THF     C3 7494   2.793   4.549   4.983  0.6540 -0.1571 -0.5226
  428THF     H4 7495   2.976   4.746   5.063  0.2575  2.5146  1.5092
  428THF     H5 7496   2.842   4.848   5.094  3.1108  0.0769  1.8016
  428THF     H6 7497   2.887   4.495   4.975  0.3997 -1.3520  2.7641
  428THF     H7 7498   2.718   4.470   4.991  0.4548  0.0383 -0.4606
  428THF     C8 7499   2.767   4.638   4.859 -0.7678  0.4725 -0.6308
  428THF     C9 7500   2.849   4.764   4.896 -0.6216  0.0060 -0.3227
  428THF    H10 7501   2.664   4.670   4.850 -0.4830  1.9868  1.0007
  428THF    H11 7502   2.808   4.586   4.773  1.5817  0.7086  0.2657
  428THF    H12 7503   2.947   4.764   4.849 -1.8595 -0.6254 -3.1068
  428THF    H13 7504   2.802   4.860   4.875  1.4444  1.0125 -0.5481
  429THF     O1 7505   0.128   4.929   3.075 -0.1050 -0.0522  0.1424
  429THF     C2 7506   0.172   5.062   3.104 -0.1815 -0.6539 -0.0045
  429THF     C3 7507   0.023   4.901   3.179  0.1309  0.5001 -0.0966
  429THF     H4 7508   0.222   5.114   3.022 -1.3544  1.5827  0.6117
  429THF     H5 7509   0.250   5.064   3.180 -1.1675 -0.5431  1.0155
  429THF     H6 7510  -0.047   4.826   3.142  0.3129 -0.3414  1.2171
  429THF     H7 7511   0.079   4.865   3.266 -0.4270 -0.3351 -0.0710
  429THF     C8 7512  -0.045   5.035   3.212 -0.2293  0.5529  0.9955
  429THF     C9 7513   0.041   5.139   3.134  0.7280 -0.0360  0.1090
  429THF    H10 7514  -0.033   5.058   3.318 -0.7904  5.6003  0.2065
  429THF    H11 7515  -0.149   5.039   3.178  0.1304  1.6145 -0.0291
  429THF    H12 7516  -0.012   5.174   3.046 -1.6968 -1.4032  0.9284
  429THF    H13 7517   0.062   5.229   3.191  0.0613  0.8935 -1.0509
  430THF     O1 7518   1.910   2.149   0.462  0.0222 -0.0505 -0.0849
  430THF     C2 7519   1.878   2.242   0.355  0.3084  1.1276 -0.4288
  430THF     C3 7520   1.790   2.094   0.513 -0.9564 -0.3767  0.3263
  430THF     H4 7521   1.931   2.202   0.269 -2.0997  0.6599 -1.7814
  430THF     H5 7522   1.925   2.337   0.383 -0.1047  0.5878  2.3548
  430THF     H6 7523   1.769   1.999   0.464  1.7281 -0.2265 -1.3355
  430THF     H7 7524   1.809   2.069   0.617  1.4264 -0.5033 -0.0790
  430THF     C8 7525   1.681   2.198   0.483 -0.0294 -0.1029  0.3214
  430THF     C9 7526   1.727   2.246   0.346 -0.6080 -0.1459 -0.0850
  430THF    H10 7527   1.693   2.279   0.555  0.9340 -0.1711  0.2536
  430THF    H11 7528   1.580   2.159   0.486  0.4513 -1.3658  0.8803
  430THF    H12 7529   1.685   2.174   0.275 -0.8830 -1.0190  0.9279
  430THF    H13 7530   1.680   2.339   0.316  0.3117 -0.0091 -1.1770
  431THF     O1 7531   0.571   0.046   2.226  0.3731  0.0511  0.5582
  431THF     C2 7532   0.704   0.089   2.244  0.1492  0.4107 -0.4893
  431THF     C3 7533   0.484   0.137   2.298  0.7446 -0.7821  0.0231
  431THF     H4 7534   0.779   0.056   2.172  0.4776  1.0669 -0.4558
  431THF     H5 7535   0.733   0.047   2.340  0.2611  0.2855 -0.5770
  431THF     H6 7536   0.394   0.153   2.239  0.5825  1.4129  0.7807
  431THF     H7 7537   0.469   0.095   2.397 -0.9502  1.7603  0.9333
  431THF     C8 7538   0.565   0.262   2.324 -0.2482  0.0744  0.1255
  431THF     C9 7539   0.695   0.245   2.255  0.4615 -0.3484  0.1049
  431THF    H10 7540   0.588   0.260   2.431  0.7478  0.3614 -0.0728
  431THF    H11 7541   0.523   0.359   2.299 -0.2666  0.0460  0.0455
  431THF    H12 7542   0.695   0.277   2.151  0.1988  0.2080  0.2769
  431THF    H13 7543   0.771   0.291   2.318  0.5232  1.4194 -1.1797
  432THF     O1 7544   3.178   0.076   4.939 -0.1541  0.5248  0.1415
  432THF     C2 7545   3.055   0.034   4.898 -0.0536 -0.4102 -0.6477
  432THF     C3 7546   3.166   0.139   5.061 -0.3585 -0.3805  0.4380
  432THF     H4 7547   3.018  -0.048   4.959  1.1538  0.9826  2.0994
  432THF     H5 7548   3.069   0.015   4.792  1.6344  1.9122 -0.9267
  432THF     H6 7549   3.173   0.074   5.149 -0.3694 -1.7539 -0.5524
  432THF     H7 7550   3.243   0.215   5.062  1.8377 -2.4871  0.8504
  432THF     C8 7551   3.025   0.203   5.071 -0.0997 -0.8212 -0.6155
  432THF     C9 7552   2.968   0.162   4.934  0.4024  0.0206 -0.8104
  432THF    H10 7553   3.030   0.312   5.077  0.4748 -0.9047  1.1960
  432THF    H11 7554   2.979   0.167   5.163  0.9866  1.5255  0.9533
  432THF    H12 7555   2.863   0.136   4.935  0.3910  0.0554  0.3180
  432THF    H13 7556   2.987   0.247   4.868 -0.1073  1.7918  1.1812
  433THF     O1 7557   1.096   0.350   1.412 -0.6201  0.2282  0.2167
  433THF     C2 7558   1.056   0.370   1.546  0.0467 -0.5419 -0.2567
  433THF     C3 7559   0.982   0.389   1.335 -0.5476 -0.3523  0.4002
  433THF     H4 7560   1.079   0.473   1.577 -1.3788 -0.5362  0.9211
  433THF     H5 7561   1.118   0.303   1.606 -1.7356 -2.8288 -0.8258
  433THF     H6 7562   0.986   0.497   1.318  0.8292 -0.4499 -0.0117
  433THF     H7 7563   0.988   0.346   1.235 -0.6874  2.3978 -0.9034
  433THF     C8 7564   0.852   0.353   1.411  0.9635  1.0939  0.5140
  433THF     C9 7565   0.907   0.335   1.552  0.4025 -0.3560 -0.3300
  433THF    H10 7566   0.816   0.256   1.379  0.8200 -0.1725  4.1307
  433THF    H11 7567   0.774   0.430   1.407 -1.3222 -1.1361 -1.0161
  433THF    H12 7568   0.855   0.405   1.616  1.3834  0.3908 -0.3349
  433THF    H13 7569   0.897   0.231   1.583 -1.4445  0.5662  2.5749
  434THF     O1 7570   1.529   3.806   3.944  0.0848  0.1805  0.4060
  434THF     C2 7571   1.662   3.784   3.984 -0.2394  0.2691 -0.0560
  434THF     C3 7572   1.456   3.832   4.066 -0.5863 -0.2909 -0.1870
  434THF     H4 7573   1.722   3.869   3.953  0.0225  0.4595  0.9485
  434THF     H5 7574   1.698   3.696   3.929 -1.8663 -0.7246  0.4012
  434THF     H6 7575   1.381   3.910   4.052 -0.0766  0.7213  2.2334
  434THF     H7 7576   1.415   3.734   4.092  0.5418 -0.4628  1.0318
  434THF     C8 7577   1.561   3.861   4.180  0.8958  0.2429  0.1488
  434THF     C9 7578   1.675   3.772   4.141 -0.7611 -0.1930  0.2975
  434THF    H10 7579   1.527   3.843   4.282  1.2223 -0.9022  0.0650
  434THF    H11 7580   1.605   3.961   4.174  0.0563  0.5696 -0.7857
  434THF    H12 7581   1.771   3.792   4.188 -0.6311 -1.4894  0.6288
  434THF    H13 7582   1.644   3.677   4.185 -0.0219  0.1368  1.5815
  435THF     O1 7583   1.467   4.899   1.146  0.4755 -0.6027  0.1410
  435THF     C2 7584   1.462   4.941   1.279 -0.5063 -0.2278  0.2646
  435THF     C3 7585   1.590   4.830   1.123  0.0547  0.6557  0.0612
  435THF     H4 7586   1.443   4.851   1.337 -0.5817  0.0056  0.6050
  435THF     H5 7587   1.383   5.015   1.290  1.8925  2.5174  0.4384
  435THF     H6 7588   1.590   4.731   1.170  0.5065  1.0418  0.8766
  435THF     H7 7589   1.610   4.836   1.016  1.7816  3.3991  0.4484
  435THF     C8 7590   1.687   4.911   1.206  0.1320 -0.2601 -0.1799
  435THF     C9 7591   1.603   4.990   1.307 -0.4236 -0.8079  0.2666
  435THF    H10 7592   1.749   4.976   1.145  1.5083 -1.2903  0.0661
  435THF    H11 7593   1.761   4.851   1.259  0.1089 -0.2119 -0.0946
  435THF    H12 7594   1.621   4.985   1.414 -0.1057  2.3805  0.4601
  435THF    H13 7595   1.608   5.096   1.282  0.4589 -1.0739 -0.7856
  436THF     O1 7596   0.672   5.242   0.203 -1.0790  0.3421  1.1229
  436THF     C2 7597   0.631   5.364   0.257  0.4752  0.2246 -0.5782
  436THF     C3 7598   0.812   5.221   0.234  0.4676 -0.1313 -0.5760
  436THF     H4 7599   0.544   5.341   0.319  2.1753 -3.1619  0.8034
  436THF     H5 7600   0.610   5.437   0.179  0.0006  0.5690 -0.1343
  436THF     H6 7601   0.838   5.116   0.253  2.1717  0.1994 -0.8849
  436THF     H7 7602   0.880   5.272   0.166 -1.4679  0.7625 -1.9279
  436THF     C8 7603   0.831   5.282   0.366 -0.2107  1.4096  0.8062
  436THF     C9 7604   0.746   5.405   0.350  0.8792 -0.4342 -0.6079
  436THF    H10 7605   0.939   5.292   0.382  0.4653 -2.1106 -0.5327
  436THF    H11 7606   0.789   5.230   0.452  1.2197  0.0446  0.7313
  436THF    H12 7607   0.701   5.454   0.437  1.2597  0.5494 -0.9467
  436THF    H13 7608   0.801   5.485   0.302  1.3523  0.6532  1.5956
  437THF     O1 7609   4.944   4.631   5.158 -0.2133 -0.0631  0.0688
  437THF     C2 7610   4.829   4.546   5.126  0.4819  0.1667 -0.5955
  437THF     C3 7611   4.919   4.730   5.257 -0.0769  0.2560  0.1301
  437THF     H4 7612   4.825   4.465   5.199 -0.7999  1.6050  1.0034
  437THF     H5 7613   4.843   4.501   5.028  0.3906  0.7312 -0.8717
  437THF     H6 7614   4.924   4.687   5.357  0.5013  0.0753  0.0290
  437THF     H7 7615   4.978   4.822   5.257 -1.4571  1.1716  0.0688
  437THF     C8 7616   4.768   4.762   5.206 -0.2631  0.2234  0.7827
  437THF     C9 7617   4.716   4.636   5.145  0.2357  0.0589 -0.6287
  437THF    H10 7618   4.757   4.846   5.137 -1.8511  0.2134  0.9710
  437THF    H11 7619   4.705   4.794   5.290 -1.3811  0.9991 -0.3206
  437THF    H12 7620   4.656   4.582   5.219  1.0933  0.4273  0.3737
  437THF    H13 7621   4.650   4.644   5.060 -3.9182  0.1781  2.3147
  438THF     O1 7622   2.263   5.101   5.378 -0.3735 -0.4932  0.1750
  438THF     C2 7623   2.312   5.240   5.364  0.1232 -0.6018 -0.1245
  438THF     C3 7624   2.305   5.060   5.508  0.2266 -0.5253  0.7061
  438THF     H4 7625   2.239   5.300   5.418 -0.5291 -1.1670 -0.3620
  438THF     H5 7626   2.307   5.272   5.260  0.2291 -1.6086 -0.4498
  438THF     H6 7627   2.234   5.108   5.575  0.5053 -1.9228  2.0476
  438THF     H7 7628   2.287   4.953   5.517  0.3222 -0.6642 -0.5593
  438THF     C8 7629   2.439   5.115   5.517 -0.4315 -0.3638  0.3237
  438THF     C9 7630   2.449   5.238   5.424  0.0167 -0.3184 -0.0098
  438THF    H10 7631   2.512   5.045   5.476  1.7082  2.2621 -0.5807
  438THF    H11 7632   2.469   5.141   5.619 -2.1441  1.4622  0.4092
  438THF    H12 7633   2.461   5.332   5.478  0.9839 -0.9570  0.9204
  438THF    H13 7634   2.525   5.226   5.347 -1.7155  0.5589 -1.9596
  439THF     O1 7635   4.082   4.882   4.207  0.3296 -0.3679  0.0137
  439THF     C2 7636   4.090   4.962   4.100  0.4711  0.2882  0.2341
  439THF     C3 7637   4.057   4.965   4.321 -0.1326  1.0224 -0.0781
  439THF     H4 7638   4.080   4.886   4.023 -0.3629 -0.8049  1.3630
  439THF     H5 7639   4.183   5.019   4.099  0.1673  0.7825  0.0352
  439THF     H6 7640   4.008   4.912   4.404 -0.5868  0.9237 -0.4070
  439THF     H7 7641   4.153   5.006   4.352 -0.1652  0.4057  0.9116
  439THF     C8 7642   3.965   5.071   4.273 -0.8974  0.0426 -0.3364
  439THF     C9 7643   3.974   5.057   4.120 -0.2338 -0.1129 -0.3826
  439THF    H10 7644   3.996   5.169   4.313  1.5689 -0.1992 -1.4835
  439THF    H11 7645   3.866   5.043   4.308 -0.8362  0.0301 -0.1723
  439THF    H12 7646   3.878   5.021   4.081 -1.7782  1.5209  1.6221
  439THF    H13 7647   4.007   5.146   4.067 -1.0504 -0.2366 -1.1364
  440THF     O1 7648   0.193   1.330   0.025 -0.1112  0.0570 -0.3538
  440THF     C2 7649   0.055   1.336  -0.010  0.5474 -0.2334  0.0429
  440THF     C3 7650   0.212   1.430   0.122  0.3254  0.3483 -0.4206
  440THF     H4 7651   0.021   1.251  -0.070 -1.6453  0.7173 -0.1687
  440THF     H5 7652   0.029   1.425  -0.068  1.8954  0.5877  0.6459
  440THF     H6 7653   0.288   1.385   0.186 -1.5064 -0.9433  0.9569
  440THF     H7 7654   0.229   1.530   0.079 -2.2553  0.9245 -0.2268
  440THF     C8 7655   0.085   1.437   0.207 -0.1090 -0.1604  0.4353
  440THF     C9 7656  -0.015   1.348   0.131  0.3340  0.5082  0.5940
  440THF    H10 7657   0.039   1.535   0.218 -0.8862 -0.5753  0.9695
  440THF    H11 7658   0.106   1.404   0.309  0.6385 -0.5626  0.1623
  440THF    H12 7659  -0.020   1.248   0.174 -1.9329  0.8879  1.3358
  440THF    H13 7660  -0.119   1.381   0.141 -0.1667 -1.0164  0.7560
  441THF     O1 7661   4.596   1.300   1.700 -0.2286 -0.3626  0.0580
  441THF     C2 7662   4.584   1.439   1.711  0.4697 -0.5150 -0.0217
  441THF     C3 7663   4.493   1.268   1.608 -0.4409  0.1776 -0.7922
  441THF     H4 7664   4.603   1.494   1.619  0.7862  1.5199  1.1859
  441THF     H5 7665   4.649   1.481   1.788 -0.4529  0.7345  0.1141
  441THF     H6 7666   4.533   1.287   1.508  0.9152 -1.3649 -0.5775
  441THF     H7 7667   4.475   1.161   1.607 -1.5132  0.3099  1.0658
  441THF     C8 7668   4.375   1.349   1.647 -0.4649 -0.0079  0.5989
  441THF     C9 7669   4.439   1.450   1.734  0.5596  0.4713  0.2068
  441THF    H10 7670   4.305   1.299   1.715 -1.0054 -2.2414 -1.4500
  441THF    H11 7671   4.312   1.380   1.564 -1.8874  1.9710  2.3204
  441THF    H12 7672   4.398   1.548   1.709 -1.3934  0.3243  2.3981
  441THF    H13 7673   4.429   1.426   1.840  2.6390  0.7510  0.4987
  442THF     O1 7674   1.572   2.412   1.944 -0.3844  0.0640  0.3818
  442THF     C2 7675   1.680   2.407   2.044  0.4603 -0.0764  0.2858
  442THF     C3 7676   1.548   2.548   1.912 -0.2718  0.1446  0.0694
  442THF     H4 7677   1.723   2.306   2.046  1.9693  0.5136 -0.8586
  442THF     H5 7678   1.634   2.431   2.140 -1.1347 -1.2202 -0.1498
  442THF     H6 7679   1.495   2.550   1.816  1.5451  0.2898 -0.9644
  442THF     H7 7680   1.490   2.597   1.990 -1.6414  0.3774 -1.0448
  442THF     C8 7681   1.687   2.596   1.901 -0.0746 -0.2538 -0.3372
  442THF     C9 7682   1.778   2.519   1.994 -0.4353 -0.4156 -0.6723
  442THF    H10 7683   1.707   2.703   1.913  0.5272 -0.3993  0.0142
  442THF    H11 7684   1.722   2.575   1.800  1.2400 -0.0647  0.0564
  442THF    H12 7685   1.866   2.484   1.940  0.7676  1.3528  0.0139
  442THF    H13 7686   1.807   2.577   2.083 -1.7441 -0.3686 -0.2627
  443THF     O1 7687   2.359   4.846   2.561  0.4761  0.3669  0.4412
  443THF     C2 7688   2.293   4.727   2.603  0.4834  0.1950 -0.0275
  443THF     C3 7689   2.502   4.835   2.599 -0.4620 -1.1784 -0.0875
  443THF     H4 7690   2.211   4.697   2.537  0.1571 -1.9519  1.2670
  443THF     H5 7691   2.250   4.745   2.701  2.0247  0.2169  0.6765
  443THF     H6 7692   2.563   4.880   2.520  0.0011 -2.3746 -0.4360
  443THF     H7 7693   2.526   4.883   2.694 -0.5336  1.0812 -1.1374
  443THF     C8 7694   2.532   4.692   2.597 -0.7657 -0.7967 -0.1895
  443THF     C9 7695   2.403   4.618   2.582  0.5907  0.3608 -0.1981
  443THF    H10 7696   2.580   4.671   2.693  0.0577 -1.7914 -0.7912
  443THF    H11 7697   2.609   4.651   2.532 -1.0003  1.8237 -2.3045
  443THF    H12 7698   2.395   4.558   2.492 -0.9805 -0.5411  0.5092
  443THF    H13 7699   2.390   4.545   2.661  2.7759 -1.1856 -1.1572
  444THF     O1 7700   4.020   2.067   2.384 -0.1814  0.2597  0.7433
  444THF     C2 7701   4.133   2.056   2.289  0.4057 -0.9103 -0.8832
  444THF     C3 7702   4.031   2.193   2.442 -0.2419  0.3705  0.6908
  444THF     H4 7703   4.117   1.980   2.213 -1.7962 -0.7223 -0.6633
  444THF     H5 7704   4.225   2.036   2.344 -0.3888  1.4988  1.5592
  444THF     H6 7705   3.944   2.235   2.492 -1.3258 -1.5006  0.4869
  444THF     H7 7706   4.110   2.203   2.517 -1.9267 -0.8686  2.7343
  444THF     C8 7707   4.070   2.279   2.320 -0.0612  0.9842  0.0666
  444THF     C9 7708   4.122   2.189   2.213 -0.0521  0.0403 -0.1890
  444THF    H10 7709   4.134   2.362   2.349 -1.0058  1.3507  1.1848
  444THF    H11 7710   3.989   2.338   2.277  0.1296  2.4407  1.6120
  444THF    H12 7711   4.058   2.201   2.126 -0.1149  0.7855 -0.0430
  444THF    H13 7712   4.217   2.226   2.174 -1.1452  0.9000 -2.1189
  445THF     O1 7713   4.811   1.852   0.424 -0.3333 -0.6337  0.1509
  445THF     C2 7714   4.681   1.812   0.489 -0.0960 -0.5011  0.0426
  445THF     C3 7715   4.867   1.744   0.357  0.3820  0.4717  0.4092
  445THF     H4 7716   4.589   1.827   0.432 -1.9714  1.7567  3.3444
  445THF     H5 7717   4.667   1.868   0.581  1.7175 -1.7132  1.1257
  445THF     H6 7718   4.869   1.761   0.249 -0.6798  1.1566  0.4937
  445THF     H7 7719   4.967   1.743   0.401 -0.2080  0.6005  1.7826
  445THF     C8 7720   4.798   1.618   0.409  0.7679 -0.0647  0.0015
  445THF     C9 7721   4.710   1.669   0.523 -0.4343 -0.1382 -0.6330
  445THF    H10 7722   4.863   1.543   0.453 -1.3407 -3.0726 -1.7104
  445THF    H11 7723   4.730   1.573   0.337  0.6342 -2.1063  1.3284
  445THF    H12 7724   4.622   1.614   0.554  0.1729 -0.1812  1.1636
  445THF    H13 7725   4.762   1.676   0.619 -1.8675 -2.4427  0.4070
  446THF     O1 7726   2.865   5.216   4.793 -0.6127 -0.5937  0.4167
  446THF     C2 7727   2.902   5.151   4.672 -0.2620 -0.1818 -0.0188
  446THF     C3 7728   2.725   5.205   4.809 -0.2881 -0.4510 -0.4059
  446THF     H4 7729   2.980   5.076   4.682 -0.5523 -0.5477 -0.4933
  446THF     H5 7730   2.935   5.222   4.596  0.2983 -1.1997 -0.7483
  446THF     H6 7731   2.714   5.120   4.876  2.1333 -0.0162  0.6222
  446THF     H7 7732   2.699   5.291   4.870  0.6502 -1.1175  0.9641
  446THF     C8 7733   2.661   5.179   4.674  0.8692  0.0581  0.1817
  446THF     C9 7734   2.771   5.084   4.617  0.1708 -0.2501 -0.8113
  446THF    H10 7735   2.657   5.275   4.623  0.1887 -0.0891 -0.0608
  446THF    H11 7736   2.563   5.132   4.681  2.2093 -3.3733 -1.5408
  446THF    H12 7737   2.757   4.989   4.669 -1.8142  1.5551  2.2725
  446THF    H13 7738   2.764   5.064   4.510  2.6825 -1.4270 -0.8286
  447THF     O1 7739   3.655   1.163   2.157 -0.2476 -0.2317  0.1793
  447THF     C2 7740   3.750   1.157   2.056  0.3797  0.3091  0.1335
  447THF     C3 7741   3.529   1.195   2.098 -0.0423  0.5888 -0.1629
  447THF     H4 7742   3.735   1.074   1.987 -0.1479  0.3350  0.2148
  447THF     H5 7743   3.848   1.145   2.103  2.3543  1.5125 -3.3124
  447THF     H6 7744   3.482   1.104   2.062 -4.0273  2.1562  0.5451
  447THF     H7 7745   3.448   1.238   2.157  0.7139 -1.5066  2.6198
  447THF     C8 7746   3.570   1.306   2.003 -0.0013  0.6246 -0.2888
  447THF     C9 7747   3.719   1.278   1.980 -0.2658  0.2812 -0.2904
  447THF    H10 7748   3.538   1.399   2.050 -0.8371  1.4861 -2.4326
  447THF    H11 7749   3.526   1.304   1.903  3.4265 -1.3000 -1.9754
  447THF    H12 7750   3.740   1.262   1.874  0.0411  0.9932 -0.3403
  447THF    H13 7751   3.783   1.354   2.025  1.0644 -1.2223  0.4752
  448THF     O1 7752   1.606   0.843   4.484 -0.0427  0.7896 -0.4273
  448THF     C2 7753   1.671   0.731   4.544 -0.8022 -0.1685  0.2307
  448THF     C3 7754   1.618   0.838   4.341 -0.4695 -0.7416  0.3494
  448THF     H4 7755   1.625   0.714   4.641 -0.9295 -0.9476  0.0387
  448THF     H5 7756   1.776   0.758   4.562 -0.9100 -0.4318  1.2992
  448THF     H6 7757   1.518   0.846   4.299  0.1144  2.0479 -0.7467
  448THF     H7 7758   1.680   0.918   4.300 -2.1340 -0.1202 -1.0999
  448THF     C8 7759   1.677   0.704   4.302 -0.0715  0.7135 -0.6474
  448THF     C9 7760   1.663   0.621   4.435  0.1055  0.2515  0.1391
  448THF    H10 7761   1.779   0.719   4.266 -0.4286  0.3397 -1.8720
  448THF    H11 7762   1.626   0.662   4.215 -1.2328  0.5435  0.0861
  448THF    H12 7763   1.567   0.570   4.434  0.5240 -0.7231 -3.1536
  448THF    H13 7764   1.745   0.550   4.440  0.0600 -0.0021 -1.8532
  449THF     O1 7765   1.702   5.457   1.652  0.4655  0.9066 -0.1420
  449THF     C2 7766   1.665   5.422   1.785 -0.2923 -0.5125 -0.0789
  449THF     C3 7767   1.770   5.581   1.656 -0.3966  0.9588 -0.0837
  449THF     H4 7768   1.744   5.406   1.859  0.9517  2.9207 -0.5079
  449THF     H5 7769   1.589   5.344   1.793  0.8470 -1.9389 -2.1866
  449THF     H6 7770   1.865   5.576   1.707 -0.5920  0.3962  0.2353
  449THF     H7 7771   1.797   5.625   1.560 -0.8038  0.5298 -0.4008
  449THF     C8 7772   1.678   5.664   1.747  0.4075  0.1302 -0.2379
  449THF     C9 7773   1.592   5.558   1.821 -0.0104  0.5374  0.3796
  449THF    H10 7774   1.611   5.731   1.694 -0.7284 -0.2924  0.6366
  449THF    H11 7775   1.731   5.732   1.814 -0.1649 -0.3757  0.7463
  449THF    H12 7776   1.580   5.577   1.927  0.3715  1.2384  0.3015
  449THF    H13 7777   1.495   5.556   1.771  0.2997  1.3616 -0.2913
  450THF     O1 7778   5.351   5.480   4.837  0.3425 -0.0962  0.4621
  450THF     C2 7779   5.465   5.525   4.916  0.5586 -0.5575  0.2458
  450THF     C3 7780   5.259   5.587   4.857 -0.2490  0.1197 -0.4629
  450THF     H4 7781   5.527   5.605   4.875 -0.2729 -0.7177 -1.4000
  450THF     H5 7782   5.526   5.434   4.918 -1.6035 -2.0777 -0.2263
  450THF     H6 7783   5.292   5.678   4.806 -0.1510  0.8318  0.8453
  450THF     H7 7784   5.163   5.557   4.816 -0.6389  1.4875 -0.5756
  450THF     C8 7785   5.273   5.613   5.005 -0.0129 -0.2383 -0.9016
  450THF     C9 7786   5.403   5.548   5.048  0.0675 -0.1220 -0.7350
  450THF    H10 7787   5.198   5.560   5.063  1.8144  0.4471  2.3045
  450THF    H11 7788   5.263   5.717   5.034 -1.2349 -0.2992 -1.0690
  450THF    H12 7789   5.477   5.605   5.105  1.2802 -2.1948 -0.1087
  450THF    H13 7790   5.384   5.464   5.115 -1.9480 -0.0301 -1.1272
  451THF     O1 7791   4.843   3.045   3.723  0.1837  0.0642 -0.0434
  451THF     C2 7792   4.760   2.983   3.623 -0.2797  0.1801 -0.3823
  451THF     C3 7793   4.982   3.028   3.692 -0.0371  0.2682 -0.2217
  451THF     H4 7794   4.672   3.044   3.602 -0.7208 -0.4521 -0.3797
  451THF     H5 7795   4.729   2.884   3.654  0.1947  0.1251 -0.0620
  451THF     H6 7796   5.027   3.126   3.694 -0.3661  0.4152  0.2946
  451THF     H7 7797   5.035   2.982   3.776 -1.0599  0.8180  0.7636
  451THF     C8 7798   4.977   2.938   3.572 -0.4597 -0.6162 -0.0152
  451THF     C9 7799   4.844   2.974   3.504 -0.6097  0.3151 -0.3298
  451THF    H10 7800   4.987   2.832   3.592  0.0717 -0.2386  1.8474
  451THF    H11 7801   5.059   2.953   3.502  0.3157 -2.1994  0.5123
  451THF    H12 7802   4.852   3.071   3.455  1.5924  1.9880  2.9608
  451THF    H13 7803   4.830   2.886   3.441  0.8555  0.1064 -0.4110
  452THF     O1 7804   2.031   3.715   5.426 -0.0735  0.1767  0.0069
  452THF     C2 7805   1.992   3.595   5.494  0.1087 -0.8569  0.6093
  452THF     C3 7806   1.930   3.779   5.361 -0.0104  0.4787  0.2751
  452THF     H4 7807   2.071   3.575   5.567  0.6969 -1.1281 -0.0887
  452THF     H5 7808   1.966   3.510   5.432  1.0914 -1.8017  1.4485
  452THF     H6 7809   1.956   3.882   5.339  2.4362  0.0256  0.7032
  452THF     H7 7810   1.916   3.732   5.264  2.1847  0.6451 -0.1817
  452THF     C8 7811   1.818   3.762   5.467 -0.0999 -0.6568  0.8156
  452THF     C9 7812   1.853   3.644   5.561 -0.2528 -0.2790 -0.1172
  452THF    H10 7813   1.717   3.759   5.425  0.5044 -1.4628 -0.6387
  452THF    H11 7814   1.828   3.854   5.523  2.5383  0.0847 -0.7163
  452THF    H12 7815   1.861   3.689   5.660 -0.2793  0.2832 -0.3629
  452THF    H13 7816   1.780   3.563   5.563 -1.0249  0.3899 -0.4881
  453THF     O1 7817   2.784   0.176   4.154  0.8687 -0.2350 -0.5445
  453THF     C2 7818   2.893   0.233   4.081  0.1638 -0.3492  0.6237
  453THF     C3 7819   2.690   0.278   4.162  0.3445 -0.1331 -0.2858
  453THF     H4 7820   2.959   0.153   4.048  0.7952 -0.9719  3.1254
  453THF     H5 7821   2.954   0.304   4.138  0.1190  0.7898 -0.7055
  453THF     H6 7822   2.591   0.247   4.194  0.6495  0.6360  1.5466
  453THF     H7 7823   2.724   0.352   4.235 -1.5520 -0.2947  0.8171
  453THF     C8 7824   2.686   0.335   4.017 -0.4954  0.6209 -0.3547
  453THF     C9 7825   2.825   0.306   3.961 -0.4839  0.1638 -0.5218
  453THF    H10 7826   2.670   0.443   4.020 -1.5819  0.4734  2.2434
  453THF    H11 7827   2.611   0.297   3.948  1.6715 -0.8802 -2.0303
  453THF    H12 7828   2.814   0.226   3.887 -0.9826 -1.3112  1.0856
  453THF    H13 7829   2.881   0.396   3.937  0.4638  0.1154  1.3634
  454THF     O1 7830   4.503   2.062   5.092 -0.5201 -0.0751 -0.2077
  454THF     C2 7831   4.612   2.122   5.024 -0.2766 -0.1768 -0.1313
  454THF     C3 7832   4.451   2.164   5.178  0.3326  0.3234 -0.1086
  454THF     H4 7833   4.645   2.060   4.941 -0.0074 -2.1565  1.3610
  454THF     H5 7834   4.693   2.118   5.097  1.2340 -0.8454 -1.7584
  454THF     H6 7835   4.360   2.139   5.233  0.9452 -0.3138  0.6424
  454THF     H7 7836   4.531   2.181   5.250  1.6608 -0.2031 -1.3966
  454THF     C8 7837   4.435   2.276   5.083  0.1266 -0.2371  0.4546
  454THF     C9 7838   4.553   2.263   4.994 -0.6083 -0.6726  0.2593
  454THF    H10 7839   4.424   2.377   5.123 -1.3675 -0.0239 -0.4420
  454THF    H11 7840   4.348   2.254   5.021  1.1339 -1.1439 -0.6906
  454THF    H12 7841   4.523   2.274   4.890  2.4844  0.5232 -0.6172
  454THF    H13 7842   4.626   2.336   5.030 -1.4288  1.1376 -1.5391
  455THF     O1 7843   0.253   3.662   1.380 -0.0256 -0.4056  0.4497
  455THF     C2 7844   0.220   3.762   1.284  0.0333 -0.3794 -0.0283
  455THF     C3 7845   0.340   3.564   1.322  1.0477 -0.3170 -0.5766
  455THF     H4 7846   0.207   3.860   1.331 -1.1505 -0.0548 -0.9622
  455THF     H5 7847   0.128   3.746   1.226  0.2846  0.9620 -0.8556
  455THF     H6 7848   0.393   3.512   1.402 -1.5037  0.3926  1.7453
  455THF     H7 7849   0.278   3.503   1.257  1.7087 -1.3156 -0.2933
  455THF     C8 7850   0.421   3.663   1.234  0.0504 -0.1303 -0.2735
  455THF     C9 7851   0.335   3.777   1.190  0.2957  0.6481 -0.0369
  455THF    H10 7852   0.470   3.612   1.151  2.9273  1.2936  0.4277
  455THF    H11 7853   0.502   3.708   1.291  1.9068 -1.7371 -1.5468
  455THF    H12 7854   0.387   3.873   1.194 -0.2779  0.9290  1.9454
  455THF    H13 7855   0.304   3.757   1.088 -1.5215 -4.1626  1.1876
  456THF     O1 7856   4.717   5.269   1.500  0.0542  0.1456 -0.2688
  456THF     C2 7857   4.773   5.286   1.372  0.3396 -0.0995 -0.0521
  456THF     C3 7858   4.578   5.319   1.500 -0.0424 -0.0437 -0.7499
  456THF     H4 7859   4.800   5.190   1.328  1.9325 -0.6558  1.9734
  456THF     H5 7860   4.871   5.332   1.388  0.0178  0.7018 -0.3211
  456THF     H6 7861   4.513   5.241   1.542 -0.1202  1.3897  2.0207
  456THF     H7 7862   4.563   5.396   1.575 -2.6316 -2.3175  1.2641
  456THF     C8 7863   4.546   5.364   1.351  0.7878  0.3221 -0.8532
  456THF     C9 7864   4.682   5.367   1.284  1.0036  0.4569 -0.4247
  456THF    H10 7865   4.499   5.462   1.340  1.0563  0.2220 -3.4082
  456THF    H11 7866   4.479   5.292   1.306  0.4458  0.3734 -0.4289
  456THF    H12 7867   4.664   5.324   1.186  1.7812 -0.0048 -0.3777
  456THF    H13 7868   4.718   5.469   1.278 -2.2481  1.6927 -0.6011
  457THF     O1 7869   3.508   2.543   2.212  0.3180 -0.1812 -0.0134
  457THF     C2 7870   3.637   2.485   2.177 -0.0239  0.0290  0.0549
  457THF     C3 7871   3.404   2.469   2.143 -0.5286 -0.0720 -1.0183
  457THF     H4 7872   3.722   2.519   2.237 -1.1502 -2.2995  3.2548
  457THF     H5 7873   3.658   2.483   2.070 -0.9925 -0.5084 -0.1315
  457THF     H6 7874   3.300   2.488   2.171  0.0952  1.0616  0.6003
  457THF     H7 7875   3.423   2.475   2.035  1.6093  1.1187 -0.6199
  457THF     C8 7876   3.459   2.330   2.169  0.5467 -0.6320 -0.3876
  457THF     C9 7877   3.603   2.338   2.209 -0.4152  0.3431  0.2070
  457THF    H10 7878   3.443   2.263   2.085 -1.7944  1.2334 -1.5412
  457THF    H11 7879   3.393   2.297   2.249  0.3470 -1.3368 -0.8360
  457THF    H12 7880   3.603   2.334   2.318 -0.2409  2.1645  0.3121
  457THF    H13 7881   3.662   2.268   2.151  0.9470  1.7490 -0.1946
  458THF     O1 7882   2.633   2.767   3.125 -0.1988 -0.0494 -0.1593
  458THF     C2 7883   2.684   2.826   3.003 -0.4605  0.3509 -0.4349
  458THF     C3 7884   2.563   2.877   3.185 -0.4508  0.0131  0.5589
  458THF     H4 7885   2.724   2.743   2.944 -2.3352 -1.4635  0.7160
  458THF     H5 7886   2.757   2.903   3.026 -1.2073  0.7796  0.5589
  458THF     H6 7887   2.506   2.848   3.273  1.6983 -0.2193  1.9321
  458THF     H7 7888   2.632   2.956   3.213 -1.4351  1.1117  0.0033
  458THF     C8 7889   2.485   2.940   3.072 -0.7899  0.2566  0.3946
  458THF     C9 7890   2.566   2.908   2.946  0.3995  0.4037  0.6383
  458THF    H10 7891   2.464   3.044   3.097 -2.0438 -0.0982  0.8976
  458THF    H11 7892   2.390   2.888   3.060 -1.7700  2.3094 -1.5663
  458THF    H12 7893   2.503   2.835   2.894  0.0459  0.1262  1.4373
  458THF    H13 7894   2.578   2.993   2.879  0.5337 -0.6449 -0.7336
  459THF     O1 7895   5.286   2.809   3.637 -0.1166 -0.3011  0.5212
  459THF     C2 7896   5.392   2.825   3.537  0.2305  0.1759 -0.3834
  459THF     C3 7897   5.309   2.904   3.738  0.2293 -0.2060  0.0376
  459THF     H4 7898   5.375   2.780   3.439 -0.2442  1.6870 -1.0192
  459THF     H5 7899   5.484   2.793   3.586 -1.0117  0.7908  2.5975
  459THF     H6 7900   5.229   2.911   3.812  2.0501 -0.0381  2.1172
  459THF     H7 7901   5.381   2.870   3.813 -0.9080  0.9369  1.7071
  459THF     C8 7902   5.356   3.029   3.665 -0.8586 -0.1930  0.2334
  459THF     C9 7903   5.400   2.979   3.531  0.3669  0.8097  0.0424
  459THF    H10 7904   5.437   3.087   3.709 -0.7409 -0.1822  0.0036
  459THF    H11 7905   5.276   3.103   3.657  1.0099  1.8117 -0.5114
  459THF    H12 7906   5.345   3.008   3.442  0.2976  1.3072  0.2414
  459THF    H13 7907   5.507   2.994   3.519 -0.0413  2.0105 -2.9836
  460THF     O1 7908   3.024   4.729   4.360  0.2357 -0.6795  0.0084
  460THF     C2 7909   3.077   4.859   4.317  0.5622  0.7117 -0.4860
  460THF     C3 7910   2.878   4.739   4.365 -0.1179 -0.0225 -0.3848
  460THF     H4 7911   3.156   4.853   4.243  2.0762 -0.3079  1.1376
  460THF     H5 7912   3.121   4.908   4.405  0.3992 -0.2582  0.1530
  460THF     H6 7913   2.825   4.644   4.358 -0.6280  0.3338 -1.5145
  460THF     H7 7914   2.854   4.793   4.457  0.3012  1.2230 -0.9788
  460THF     C8 7915   2.846   4.829   4.249 -0.3149  0.1854 -0.7311
  460THF     C9 7916   2.965   4.928   4.256 -0.2312 -0.2696  0.4544
  460THF    H10 7917   2.747   4.874   4.258 -0.7891 -1.1656  1.4370
  460THF    H11 7918   2.854   4.780   4.152 -0.1118 -0.1875 -0.5265
  460THF    H12 7919   2.985   4.976   4.160  1.4663 -0.3202  0.7490
  460THF    H13 7920   2.937   5.008   4.324 -0.2610 -0.8213  1.0958
  461THF     O1 7921   2.793   4.269   1.641 -0.3441 -0.0398 -0.0507
  461THF     C2 7922   2.883   4.375   1.649  0.1042 -0.5810  0.0879
  461THF     C3 7923   2.818   4.185   1.747 -0.7758 -0.0343 -0.1792
  461THF     H4 7924   2.852   4.450   1.721 -0.1452  1.5408 -2.1224
  461THF     H5 7925   2.884   4.423   1.551 -0.4376 -0.6814  0.0293
  461THF     H6 7926   2.771   4.239   1.829 -1.9611  0.4433 -1.1272
  461THF     H7 7927   2.775   4.084   1.745  0.5005 -0.6115  0.2080
  461THF     C8 7928   2.968   4.175   1.746  0.6306 -0.1218  0.7394
  461THF     C9 7929   3.018   4.307   1.686 -0.9441 -0.5839 -0.1759
  461THF    H10 7930   2.987   4.090   1.681 -1.7706 -0.0844 -0.1204
  461THF    H11 7931   3.012   4.155   1.844  0.8995 -1.3043  0.3897
  461THF    H12 7932   3.069   4.373   1.757  0.1910 -0.2168 -1.3030
  461THF    H13 7933   3.076   4.289   1.596 -1.2145  0.2132 -0.5184
  462THF     O1 7934   3.540   3.351   0.559 -0.2420  1.0216 -0.5292
  462THF     C2 7935   3.673   3.375   0.612 -0.1114  0.0988 -0.6592
  462THF     C3 7936   3.447   3.365   0.669  0.4910  0.3503  0.5388
  462THF     H4 7937   3.719   3.464   0.569 -0.5391  0.8667  0.4282
  462THF     H5 7938   3.733   3.288   0.584 -0.2577  0.2538 -1.4659
  462THF     H6 7939   3.413   3.468   0.681  1.6166  0.5579  2.3770
  462THF     H7 7940   3.359   3.308   0.638  0.1223  1.5363 -0.7012
  462THF     C8 7941   3.518   3.323   0.795 -0.1612  0.0888  0.2039
  462THF     C9 7942   3.653   3.382   0.771  0.4673 -0.1655 -0.2262
  462THF    H10 7943   3.518   3.215   0.784  0.0549  0.1438 -0.3950
  462THF    H11 7944   3.465   3.342   0.889  1.1859  1.2483  0.7749
  462THF    H12 7945   3.664   3.489   0.789  1.3933 -0.2001 -0.5295
  462THF    H13 7946   3.737   3.336   0.823 -0.7816 -0.8626  1.2301
  463THF     O1 7947   1.363   4.828   1.768  0.7993 -0.2722  0.1756
  463THF     C2 7948   1.348   4.945   1.847  0.3852  0.0890 -0.0958
  463THF     C3 7949   1.456   4.845   1.667 -0.2326 -0.4136  0.1089
  463THF     H4 7950   1.303   4.930   1.945 -2.3107  0.8263 -1.1213
  463THF     H5 7951   1.283   5.017   1.798 -0.7831 -0.8447  0.0235
  463THF     H6 7952   1.517   4.755   1.659  0.7462  0.2557 -0.1987
  463THF     H7 7953   1.416   4.879   1.572  2.4870 -1.0236 -1.3679
  463THF     C8 7954   1.548   4.959   1.713  0.5355 -0.3218  0.7442
  463THF     C9 7955   1.489   5.003   1.846  0.2423  0.1580 -0.1914
  463THF    H10 7956   1.541   5.036   1.636  0.6958 -0.8534  0.1866
  463THF    H11 7957   1.654   4.937   1.727  0.9589  0.6522 -0.6336
  463THF    H12 7958   1.534   4.963   1.937 -0.0931 -1.2721 -0.6365
  463THF    H13 7959   1.485   5.112   1.855 -1.5034 -0.0100  1.5582
  464THF     O1 7960   5.136   0.710   4.206 -0.1072 -0.0236 -0.0458
  464THF     C2 7961   5.198   0.593   4.144 -0.1819 -0.9750  0.6387
  464THF     C3 7962   5.156   0.826   4.118  0.2124  1.2739  0.2741
  464THF     H4 7963   5.115   0.533   4.106 -0.5114 -0.8264  1.1125
  464THF     H5 7964   5.248   0.531   4.217 -2.6498 -0.3125  3.0807
  464THF     H6 7965   5.069   0.890   4.106 -0.4887  0.3042  0.0436
  464THF     H7 7966   5.242   0.881   4.156 -0.7633  1.7109  1.9544
  464THF     C8 7967   5.196   0.763   3.985 -0.1540  0.8511 -0.6492
  464THF     C9 7968   5.282   0.641   4.021  0.5352  0.1770  0.0225
  464THF    H10 7969   5.257   0.832   3.928  1.4245 -1.5084 -1.9677
  464THF    H11 7970   5.107   0.732   3.930 -0.8124  0.2123  0.7190
  464THF    H12 7971   5.298   0.571   3.939 -0.7091 -0.1476  0.0415
  464THF    H13 7972   5.378   0.673   4.062  0.7127 -1.8348  1.2894
  465THF     O1 7973   1.993   1.106   4.565  0.6540 -0.6694 -0.1977
  465THF     C2 7974   2.091   1.133   4.466 -0.0105  0.3935 -0.3379
  465THF     C3 7975   2.045   1.007   4.654  0.2971 -0.8322  0.2523
  465THF     H4 7976   2.085   1.230   4.417  0.8972  1.4423  1.4996
  465THF     H5 7977   2.090   1.054   4.391 -0.4421  1.1767 -1.1788
  465THF     H6 7978   1.986   0.999   4.745  2.4744 -1.3137  1.6837
  465THF     H7 7979   2.043   0.912   4.602 -1.2685  0.1664 -1.6657
  465THF     C8 7980   2.183   1.070   4.671 -0.1704  0.9003 -0.3443
  465THF     C9 7981   2.226   1.127   4.539 -0.9844  0.4251  0.5854
  465THF    H10 7982   2.254   0.995   4.705 -1.6297 -0.1823  0.4660
  465THF    H11 7983   2.176   1.138   4.757  3.5856  0.3990  0.5340
  465THF    H12 7984   2.262   1.228   4.561 -1.6561  0.6007  0.9429
  465THF    H13 7985   2.314   1.075   4.503 -2.7415 -0.1222 -3.4276
  466THF     O1 7986   1.250   4.726   5.210  0.6305  0.9378 -0.2486
  466THF     C2 7987   1.128   4.773   5.274  0.7173  0.0392  0.0640
  466THF     C3 7988   1.196   4.634   5.110 -0.3755  0.2305 -0.1408
  466THF     H4 7989   1.147   4.856   5.342  0.3479 -1.4023  2.0466
  466THF     H5 7990   1.082   4.687   5.323  2.3620 -0.8625  0.0900
  466THF     H6 7991   1.269   4.602   5.037 -0.3489  1.1001 -0.5086
  466THF     H7 7992   1.161   4.538   5.147 -1.3346  1.3913  2.2538
  466THF     C8 7993   1.084   4.716   5.047  0.1895  0.3803 -0.2554
  466THF     C9 7994   1.037   4.813   5.156  0.1324  0.2034  0.4570
  466THF    H10 7995   1.001   4.649   5.028 -0.1770  0.6429  0.4021
  466THF    H11 7996   1.101   4.759   4.948 -0.7553  1.4970  0.0492
  466THF    H12 7997   1.055   4.914   5.119 -0.4734 -0.4250 -1.7024
  466THF    H13 7998   0.930   4.797   5.164  0.2974 -1.0141  0.5063
  467THF     O1 7999   4.820   0.694   5.422 -0.2195 -0.1151  0.2237
  467THF     C2 8000   4.906   0.793   5.469 -0.1537 -0.7684 -0.6359
  467THF     C3 8001   4.778   0.618   5.530  0.2321  0.0818 -0.1472
  467THF     H4 8002   4.909   0.873   5.394 -1.8387 -0.4373 -0.3913
  467THF     H5 8003   5.010   0.760   5.471  0.5141  0.6569 -4.1996
  467THF     H6 8004   4.688   0.558   5.513 -0.1489  0.3177  0.9648
  467THF     H7 8005   4.857   0.548   5.555  1.0704  1.4285  1.0848
  467THF     C8 8006   4.756   0.720   5.643 -0.0773  0.0486  0.5953
  467THF     C9 8007   4.837   0.840   5.597 -0.0423  0.3295  0.0455
  467THF    H10 8008   4.790   0.691   5.742  1.9318  0.1292 -0.0135
  467THF    H11 8009   4.649   0.739   5.641 -0.3424 -1.3776 -0.7986
  467THF    H12 8010   4.773   0.927   5.584 -0.9260 -0.1208  1.1469
  467THF    H13 8011   4.911   0.860   5.674 -1.6284 -0.5803  1.9073
  468THF     O1 8012   1.231   4.231   2.154  0.3839 -0.1819  0.3609
  468THF     C2 8013   1.106   4.162   2.142  0.4357  0.1285 -0.1516
  468THF     C3 8014   1.216   4.367   2.128  0.5210 -0.4548 -0.0280
  468THF     H4 8015   1.048   4.171   2.234 -0.0917  0.3439 -0.5045
  468THF     H5 8016   1.118   4.055   2.126  1.0653  0.5019 -2.4439
  468THF     H6 8017   1.230   4.415   2.225  2.7948 -1.7393  0.3428
  468THF     H7 8018   1.285   4.412   2.058  0.6782  1.4695  1.2720
  468THF     C8 8019   1.067   4.377   2.079 -0.5762 -0.0733 -0.8048
  468THF     C9 8020   1.040   4.237   2.032  0.2482  0.2592  0.0147
  468THF    H10 8021   1.049   4.454   2.003  0.8511  0.1517 -0.9359
  468THF    H11 8022   0.997   4.403   2.159 -0.9777 -1.3264 -0.7306
  468THF    H12 8023   0.934   4.214   2.023  0.0803  1.0466 -0.1120
  468THF    H13 8024   1.084   4.217   1.934  1.5128  0.7308  0.4676
  469THF     O1 8025   0.576   3.408   2.360 -0.1635  0.0960  0.5468
  469THF     C2 8026   0.621   3.311   2.450 -0.1050  0.1825 -0.6032
  469THF     C3 8027   0.450   3.450   2.400 -0.1224  0.6102  0.7760
  469THF     H4 8028   0.728   3.293   2.435 -0.2488 -1.4047 -0.0122
  469THF     H5 8029   0.560   3.222   2.435  0.0151 -0.0806  0.4135
  469THF     H6 8030   0.425   3.540   2.342  0.2924 -0.3352 -0.9324
  469THF     H7 8031   0.378   3.372   2.379  1.1180  0.0057 -1.6042
  469THF     C8 8032   0.464   3.476   2.545 -0.8537 -0.3886  0.1214
  469THF     C9 8033   0.582   3.382   2.580 -0.0128 -0.0202 -0.0534
  469THF    H10 8034   0.373   3.452   2.600 -0.7007  0.5191  0.7826
  469THF    H11 8035   0.504   3.573   2.573  0.6325 -1.6817  2.8904
  469THF    H12 8036   0.672   3.434   2.613  0.1612 -0.0722 -0.4496
  469THF    H13 8037   0.563   3.326   2.672 -0.2001  0.1360  0.0032
  470THF     O1 8038   2.112   4.822   0.189 -0.0913 -0.9261 -0.4112
  470THF     C2 8039   2.031   4.709   0.145  0.4481  0.1306 -0.4156
  470THF     C3 8040   2.036   4.918   0.266  0.0645 -0.2668 -0.3558
  470THF     H4 8041   2.072   4.614   0.179  0.3247 -0.0781 -0.8453
  470THF     H5 8042   2.033   4.713   0.036  0.2598  1.9954 -0.3778
  470THF     H6 8043   2.091   4.966   0.347  0.0649 -1.2525  0.2492
  470THF     H7 8044   2.002   4.986   0.188  0.7764  2.1411  1.3223
  470THF     C8 8045   1.927   4.828   0.323 -0.5969 -0.4693  0.6959
  470THF     C9 8046   1.900   4.723   0.215 -1.0250  0.1493  0.2536
  470THF    H10 8047   1.840   4.882   0.359  0.1905  0.3527  1.4176
  470THF    H11 8048   1.972   4.783   0.411  1.3223 -1.9435 -0.9350
  470THF    H12 8049   1.872   4.623   0.250 -2.4449  0.4780  0.1261
  470THF    H13 8050   1.827   4.753   0.140 -0.1818  1.3797 -0.0991
  471THF     O1 8051   2.410   2.695   3.460  0.3348  0.1823 -0.6112
  471THF     C2 8052   2.439   2.718   3.601  0.0156  0.3316  0.1852
  471THF     C3 8053   2.489   2.578   3.434 -0.8684 -0.5243 -0.0487
  471THF     H4 8054   2.405   2.635   3.662 -0.1505  0.2568 -0.0090
  471THF     H5 8055   2.412   2.812   3.649  0.3905  1.2095 -1.2570
  471THF     H6 8056   2.444   2.495   3.488  0.3875 -2.7661 -2.2222
  471THF     H7 8057   2.490   2.558   3.327  0.2969  0.1901 -0.1873
  471THF     C8 8058   2.626   2.616   3.493 -0.5154 -0.3834  0.1351
  471THF     C9 8059   2.594   2.719   3.600  0.2190  0.3038  0.1304
  471THF    H10 8060   2.689   2.675   3.426 -1.9410  1.2206  0.1255
  471THF    H11 8061   2.675   2.521   3.511  1.7698  0.8120  0.6058
  471THF    H12 8062   2.636   2.709   3.700  1.1183  0.0383 -0.2677
  471THF    H13 8063   2.620   2.821   3.570  1.4243  0.9536  2.9904
  472THF     O1 8064   2.944   3.294   2.784  0.2676  0.6183 -0.0940
  472THF     C2 8065   3.053   3.365   2.829 -0.3425 -0.3005  0.0642
  472THF     C3 8066   2.907   3.342   2.659  0.0807 -0.3141 -0.5035
  472THF     H4 8067   3.101   3.329   2.920  0.1648  2.0378  0.8028
  472THF     H5 8068   3.016   3.461   2.867 -0.6387  0.1464 -1.3029
  472THF     H6 8069   2.851   3.264   2.607 -1.0123  0.5523 -0.6541
  472THF     H7 8070   2.854   3.436   2.672 -1.1388 -1.0822  0.2247
  472THF     C8 8071   3.046   3.349   2.601 -0.2265  0.5945 -0.0312
  472THF     C9 8072   3.147   3.382   2.709  0.8274 -0.7525  0.4716
  472THF    H10 8073   3.060   3.411   2.512  1.7222  1.4063  0.7826
  472THF    H11 8074   3.069   3.248   2.566 -1.7485  0.7076 -1.5102
  472THF    H12 8075   3.232   3.314   2.714  0.6575 -0.9528  0.6260
  472THF    H13 8076   3.177   3.487   2.713  1.2655 -0.8526 -0.0110
  473THF     O1 8077   0.911   1.044   3.366  0.1185  0.5035 -0.6902
  473THF     C2 8078   0.803   0.978   3.425  0.2446  0.1932 -0.1450
  473THF     C3 8079   1.015   0.947   3.342  0.9460 -0.1158 -0.3194
  473THF     H4 8080   0.709   1.021   3.390  0.8729  1.4452 -0.3547
  473THF     H5 8081   0.797   0.997   3.532  0.9105  2.1785 -0.4264
  473THF     H6 8082   1.090   0.978   3.268  0.0809 -1.1491 -1.6801
  473THF     H7 8083   1.070   0.935   3.435 -1.4295 -0.4346  1.1311
  473THF     C8 8084   0.936   0.823   3.304 -0.1618 -0.9843 -0.7317
  473THF     C9 8085   0.815   0.831   3.396 -0.7009  0.1608 -0.3734
  473THF    H10 8086   0.984   0.727   3.318 -2.2715 -1.9632  0.0671
  473THF    H11 8087   0.915   0.818   3.197  1.8362  0.0952 -1.2465
  473THF    H12 8088   0.725   0.794   3.348  0.2060 -3.1959  0.2285
  473THF    H13 8089   0.838   0.786   3.493 -1.1826  1.6889  0.4784
  474THF     O1 8090   4.829   4.066   0.091  0.0561  0.0446 -0.0446
  474THF     C2 8091   4.724   3.990   0.043  0.6693  0.1908  0.1957
  474THF     C3 8092   4.832   4.175  -0.002  0.1976 -0.0646 -0.8608
  474THF     H4 8093   4.624   4.030   0.054  0.3308 -0.2851 -0.9976
  474THF     H5 8094   4.730   3.900   0.105 -2.2880  0.7026  1.3795
  474THF     H6 8095   4.746   4.240   0.012  0.2718 -0.3459  1.1558
  474THF     H7 8096   4.919   4.239   0.013 -0.4139  0.2882  1.6328
  474THF     C8 8097   4.813   4.113  -0.140 -0.7137  0.0130 -0.6070
  474THF     C9 8098   4.751   3.979  -0.109  0.1788  0.2847 -0.0463
  474THF    H10 8099   4.910   4.109  -0.189 -1.2144  0.7102 -1.6916
  474THF    H11 8100   4.754   4.177  -0.205  0.1871  0.8241 -0.6446
  474THF    H12 8101   4.658   3.973  -0.165  0.6869 -2.4036 -0.7277
  474THF    H13 8102   4.821   3.900  -0.136  2.7725  2.6234 -0.7167
  475THF     O1 8103   2.209   0.807   1.089  0.2733  0.2631 -0.2002
  475THF     C2 8104   2.139   0.839   1.204  0.8472  0.4075 -0.0041
  475THF     C3 8105   2.140   0.704   1.020  0.4728 -0.1668  0.1501
  475THF     H4 8106   2.073   0.925   1.204 -2.2813 -1.8074 -0.6808
  475THF     H5 8107   2.193   0.844   1.298 -1.7846  0.7739  1.6059
  475THF     H6 8108   2.056   0.750   0.967  0.7238  0.9505  0.6791
  475THF     H7 8109   2.192   0.642   0.948 -0.1340 -1.6455  0.9563
  475THF     C8 8110   2.091   0.614   1.133 -0.6312  0.4147 -0.2643
  475THF     C9 8111   2.044   0.725   1.225  0.1901  0.0883  0.2486
  475THF    H10 8112   2.169   0.555   1.180  0.3683  3.1597  1.7466
  475THF    H11 8113   2.002   0.557   1.107 -0.4396  0.5534 -1.2626
  475THF    H12 8114   1.941   0.750   1.202 -0.0159 -0.0256  1.0018
  475THF    H13 8115   2.033   0.696   1.330  1.5760 -1.4194  0.0165
  476THF     O1 8116   2.701   0.978   5.140  0.2633  0.0986  0.0438
  476THF     C2 8117   2.724   1.095   5.208 -0.4338  0.1985 -0.0577
  476THF     C3 8118   2.647   1.024   5.017 -0.0482 -0.0916 -0.5784
  476THF     H4 8119   2.814   1.142   5.168  0.3470  1.2318  2.6335
  476THF     H5 8120   2.739   1.074   5.314 -0.4329  1.7027  0.2536
  476THF     H6 8121   2.717   1.046   4.937 -1.5340  2.4841 -1.2774
  476THF     H7 8122   2.583   0.942   4.986 -0.3349 -1.5872  3.3474
  476THF     C8 8123   2.560   1.148   5.042  0.0737 -0.3306 -0.0551
  476THF     C9 8124   2.591   1.167   5.188 -0.0576  0.4606  0.3215
  476THF    H10 8125   2.453   1.131   5.033  0.3537 -1.1777 -2.4679
  476THF    H11 8126   2.590   1.229   4.976  0.8342 -0.8607 -0.3783
  476THF    H12 8127   2.599   1.273   5.213  1.9171  0.1814  1.1185
  476THF    H13 8128   2.516   1.127   5.255  0.7824 -0.4418  0.7590
  477THF     O1 8129   2.125   4.292   2.195 -0.1130 -0.7311  0.4829
  477THF     C2 8130   2.008   4.343   2.256 -0.3586  0.9108 -0.1231
  477THF     C3 8131   2.112   4.313   2.058  0.1399  0.7025 -0.2369
  477THF     H4 8132   2.010   4.451   2.267 -0.5964  0.9316 -0.2766
  477THF     H5 8133   1.999   4.304   2.357  1.9017  1.1486  0.2288
  477THF     H6 8134   2.134   4.416   2.030 -0.5619  0.9302  0.0169
  477THF     H7 8135   2.187   4.257   2.003 -0.7986  0.0248 -0.8752
  477THF     C8 8136   1.969   4.266   2.022  0.5550 -0.1989 -0.4592
  477THF     C9 8137   1.897   4.305   2.155 -1.1052 -0.0513 -1.0168
  477THF    H10 8138   1.967   4.158   2.013 -1.2788 -0.2818  0.4748
  477THF    H11 8139   1.934   4.311   1.928  0.2111 -1.1036 -0.7715
  477THF    H12 8140   1.832   4.392   2.149  0.3165  1.1819  0.3738
  477THF    H13 8141   1.847   4.218   2.198 -1.5871  0.2514 -0.9642
  478THF     O1 8142   0.129   3.932   5.492 -0.7753  0.0237  0.9493
  478THF     C2 8143   0.045   4.014   5.570 -0.6088 -0.0505  0.4810
  478THF     C3 8144   0.210   4.029   5.415 -0.5674 -0.0200  0.7924
  478THF     H4 8145   0.093   4.045   5.663 -0.0078  0.1403  0.1128
  478THF     H5 8146  -0.048   3.961   5.590 -1.3225  1.2983  0.9216
  478THF     H6 8147   0.278   4.082   5.482 -0.5725  1.8508 -0.6164
  478THF     H7 8148   0.270   3.985   5.336  1.0847 -0.7074  2.3588
  478THF     C8 8149   0.114   4.137   5.372  0.3796 -1.0555 -0.0296
  478THF     C9 8150   0.008   4.132   5.484  0.5908 -0.3104 -0.1239
  478THF    H10 8151   0.073   4.103   5.277  0.2587 -0.4631 -0.1923
  478THF    H11 8152   0.157   4.235   5.355 -0.8688 -0.5315 -0.3097
  478THF    H12 8153  -0.000   4.221   5.547  1.6343  0.0651 -0.4930
  478THF    H13 8154  -0.090   4.114   5.442  0.0063  0.9551  0.6551
  479THF     O1 8155   5.380   1.040   1.244  0.0877  0.3952 -0.1886
  479THF     C2 8156   5.425   0.912   1.276  0.2982 -0.3296 -0.0987
  479THF     C3 8157   5.487   1.108   1.180  0.7283  0.3641 -0.2844
  479THF     H4 8158   5.350   0.835   1.290  0.0584 -0.1146 -0.2024
  479THF     H5 8159   5.482   0.937   1.366  1.0813 -0.9988 -0.3940
  479THF     H6 8160   5.441   1.170   1.103  0.3438 -0.1244 -0.4533
  479THF     H7 8161   5.546   1.164   1.253  1.7944 -0.9538 -0.0964
  479THF     C8 8162   5.574   0.998   1.116 -0.0727 -0.9525 -0.4075
  479THF     C9 8163   5.532   0.871   1.174 -0.1301  0.1889  0.2123
  479THF    H10 8164   5.674   1.025   1.148 -0.2736 -1.2373  0.5116
  479THF    H11 8165   5.551   1.001   1.010  0.1468  0.2739 -0.4357
  479THF    H12 8166   5.498   0.804   1.095  1.3014  0.5560 -0.7593
  479THF    H13 8167   5.615   0.822   1.226  0.1374  0.9655  0.5321
  480THF     O1 8168   4.318   1.187   1.349  0.2489 -0.1047 -0.0182
  480THF     C2 8169   4.337   1.283   1.246 -0.4042 -0.4517  0.4311
  480THF     C3 8170   4.179   1.143   1.329  0.8331 -0.4421 -0.3693
  480THF     H4 8171   4.370   1.249   1.148 -0.3398 -0.0218  0.3014
  480THF     H5 8172   4.427   1.335   1.278 -0.0619 -1.2354  0.7537
  480THF     H6 8173   4.188   1.075   1.245  0.3935 -0.5165 -0.3570
  480THF     H7 8174   4.126   1.105   1.416  1.5067  1.0013  0.7285
  480THF     C8 8175   4.102   1.280   1.298 -0.9680 -0.6156  0.6467
  480THF     C9 8176   4.206   1.361   1.214 -0.1996  0.9207 -0.1530
  480THF    H10 8177   4.083   1.337   1.388 -1.5939 -0.6516  0.5401
  480THF    H11 8178   3.999   1.269   1.264 -0.6040  0.9367 -1.1351
  480THF    H12 8179   4.187   1.347   1.108  1.1402  2.5431 -0.6409
  480THF    H13 8180   4.206   1.467   1.237 -0.1393  0.4335  2.4842
  481THF     O1 8181   4.320   4.346   4.442  0.5051 -0.6673  0.2715
  481THF     C2 8182   4.282   4.478   4.444  0.1612  0.1601  0.5308
  481THF     C3 8183   4.404   4.328   4.329  0.5306  0.4296 -1.0972
  481THF     H4 8184   4.365   4.544   4.471  0.6744 -1.1835  2.4836
  481THF     H5 8185   4.202   4.500   4.515  0.5095 -0.4592  1.1349
  481THF     H6 8186   4.506   4.356   4.357 -0.6480  2.3524  1.5995
  481THF     H7 8187   4.406   4.224   4.296 -0.3640  0.1353 -0.2733
  481THF     C8 8188   4.346   4.416   4.219 -0.1152 -0.2111 -0.3606
  481THF     C9 8189   4.255   4.508   4.300  0.4511  0.3708 -0.2504
  481THF    H10 8190   4.291   4.347   4.155 -0.5019 -1.7377  1.5146
  481THF    H11 8191   4.427   4.458   4.160  0.6606 -0.3599  0.5739
  481THF    H12 8192   4.247   4.614   4.275  0.8538  1.3116  3.0791
  481THF    H13 8193   4.152   4.474   4.290  0.7297 -0.5697 -0.0085
  482THF     O1 8194   1.549   1.176   1.748  0.5077  0.6021  0.2012
  482THF     C2 8195   1.468   1.254   1.662 -0.4102  0.3591  0.4590
  482THF     C3 8196   1.461   1.165   1.864  0.4057 -0.1071 -0.2104
  482THF     H4 8197   1.500   1.254   1.558 -1.4139  1.6228  0.1226
  482THF     H5 8198   1.470   1.361   1.682 -2.0551  0.5123  0.0086
  482THF     H6 8199   1.512   1.099   1.935 -1.1911 -1.3948 -0.1921
  482THF     H7 8200   1.441   1.254   1.923 -1.0075 -0.4773 -0.0858
  482THF     C8 8201   1.332   1.112   1.801  0.0607  0.4924 -0.7153
  482THF     C9 8202   1.330   1.195   1.676  0.6666 -0.2198  0.4216
  482THF    H10 8203   1.242   1.112   1.863  0.3340 -1.1451 -0.2775
  482THF    H11 8204   1.350   1.007   1.779  0.4489 -0.2705  2.6704
  482THF    H12 8205   1.308   1.132   1.590 -1.5152  1.7206 -0.5876
  482THF    H13 8206   1.259   1.278   1.672  0.5600 -0.3652 -2.6309
  483THF     O1 8207   1.987   1.749   2.582 -0.8180  0.5146  0.2763
  483THF     C2 8208   1.977   1.677   2.460  0.3289 -0.4911  0.3919
  483THF     C3 8209   2.065   1.685   2.681  0.2677 -0.0983 -0.5057
  483THF     H4 8210   2.068   1.710   2.409 -0.1380  0.8830  0.3937
  483THF     H5 8211   1.889   1.692   2.398  2.0474  0.3370 -1.9989
  483THF     H6 8212   2.144   1.750   2.718  1.2195 -1.9228  0.8246
  483THF     H7 8213   2.001   1.658   2.765 -0.4394 -0.6667 -1.2108
  483THF     C8 8214   2.099   1.551   2.621  0.4195  0.0382 -0.4034
  483THF     C9 8215   2.008   1.533   2.496 -0.0042  0.0433 -1.0605
  483THF    H10 8216   2.103   1.461   2.683  1.0934 -0.4840 -1.1721
  483THF    H11 8217   2.202   1.568   2.590  0.2342 -0.1802 -1.1476
  483THF    H12 8218   2.047   1.482   2.408 -0.1837  1.9502 -2.3222
  483THF    H13 8219   1.924   1.472   2.527  0.9012 -1.3776 -1.3147
  484THF     O1 8220   4.580   3.410   2.410 -0.3342  0.2898  0.0420
  484THF     C2 8221   4.445   3.380   2.392  0.0771 -0.6571 -0.2408
  484THF     C3 8222   4.609   3.439   2.549 -0.5408  0.6996  0.3161
  484THF     H4 8223   4.420   3.274   2.386  0.7956 -0.7584 -2.0441
  484THF     H5 8224   4.424   3.426   2.295  0.4855 -0.7110 -0.3558
  484THF     H6 8225   4.615   3.345   2.603 -0.2805  0.4912 -0.0642
  484THF     H7 8226   4.693   3.507   2.566  0.6413 -0.5723 -0.2390
  484THF     C8 8227   4.489   3.516   2.593  0.3872  0.3877 -0.5244
  484THF     C9 8228   4.379   3.462   2.506 -0.2159  0.2004  0.4635
  484THF    H10 8229   4.502   3.624   2.581 -1.0989  0.8457  1.4148
  484THF    H11 8230   4.484   3.506   2.701  0.3338  1.4239 -0.4166
  484THF    H12 8231   4.319   3.393   2.565 -0.4633  0.6601  0.7545
  484THF    H13 8232   4.315   3.538   2.461 -0.4731  0.5457  1.3799
  485THF     O1 8233   2.318   0.534   0.295 -0.7611  0.4435 -0.1279
  485THF     C2 8234   2.438   0.470   0.258  0.6053 -0.1477 -0.0566
  485THF     C3 8235   2.338   0.669   0.304  0.4670  0.0663  0.5369
  485THF     H4 8236   2.431   0.371   0.212 -2.2322  0.9269 -2.2206
  485THF     H5 8237   2.497   0.457   0.349  0.9780 -0.6702 -0.3683
  485THF     H6 8238   2.242   0.720   0.305  0.9676  1.1156  3.1719
  485THF     H7 8239   2.397   0.705   0.389  1.9008  0.2639 -0.5068
  485THF     C8 8240   2.416   0.692   0.172  0.0748 -0.4731 -0.1107
  485THF     C9 8241   2.506   0.574   0.164  0.0375  0.2343 -0.0929
  485THF    H10 8242   2.472   0.785   0.160 -0.4366 -0.3268 -1.5610
  485THF    H11 8243   2.346   0.683   0.088 -2.1811 -1.6605  1.7714
  485THF    H12 8244   2.517   0.538   0.062 -2.2938 -0.3021 -0.2044
  485THF    H13 8245   2.604   0.592   0.208 -0.7125  0.5170  1.5624
  486THF     O1 8246   4.503   4.744   2.969 -0.4015  0.6907 -0.3388
  486THF     C2 8247   4.537   4.641   2.872 -0.2201 -0.1423 -0.6204
  486THF     C3 8248   4.521   4.693   3.099  0.8909  0.1053  0.2297
  486THF     H4 8249   4.644   4.619   2.869 -0.7381 -2.9886 -1.7138
  486THF     H5 8250   4.507   4.677   2.774 -0.4777  2.0658  0.2252
  486THF     H6 8251   4.627   4.698   3.125  0.8049 -0.4702  0.7370
  486THF     H7 8252   4.459   4.756   3.163  0.8265  0.4489 -0.1750
  486THF     C8 8253   4.473   4.544   3.079 -0.5887 -0.4158  0.9427
  486THF     C9 8254   4.466   4.521   2.931 -1.0816  0.0126  0.3660
  486THF    H10 8255   4.389   4.520   3.144 -0.4815 -1.3839  0.7397
  486THF    H11 8256   4.550   4.476   3.116 -0.2737 -0.6994 -0.2169
  486THF    H12 8257   4.504   4.425   2.896  0.4460  0.6769  0.1277
  486THF    H13 8258   4.364   4.515   2.895 -0.8705  0.8505 -0.3813
  487THF     O1 8259   1.810   1.069   0.973 -0.1757  0.0647  0.4409
  487THF     C2 8260   1.677   1.094   0.922 -0.1013 -0.4110  0.2413
  487THF     C3 8261   1.847   0.930   0.938  1.0287  0.4099  0.3885
  487THF     H4 8262   1.680   1.127   0.818 -1.6485 -1.7212 -0.2502
  487THF     H5 8263   1.636   1.166   0.994 -1.0325  2.2439 -2.6966
  487THF     H6 8264   1.945   0.933   0.890  0.6867 -0.8860 -0.4387
  487THF     H7 8265   1.863   0.875   1.030  0.4975  1.0608  0.8759
  487THF     C8 8266   1.721   0.871   0.860 -0.8482 -0.2530 -0.1372
  487THF     C9 8267   1.612   0.961   0.915  0.3846 -0.6240  0.0427
  487THF    H10 8268   1.721   0.764   0.877 -1.3327 -0.1703  0.3986
  487THF    H11 8269   1.745   0.900   0.757  1.4747 -2.5822 -0.3495
  487THF    H12 8270   1.516   0.957   0.862 -1.8436 -1.1887  3.8103
  487THF    H13 8271   1.579   0.946   1.017 -0.0725  0.2792  0.0438
  488THF     O1 8272   3.290   4.293   3.196 -0.3595 -0.4318  0.4407
  488THF     C2 8273   3.172   4.339   3.252  0.2957 -0.6469  0.3507
  488THF     C3 8274   3.320   4.168   3.251  0.5155  0.0277 -0.0456
  488THF     H4 8275   3.135   4.425   3.196  2.2561  0.4527  0.6724
  488THF     H5 8276   3.163   4.354   3.359 -0.6175  0.4999  0.1384
  488THF     H6 8277   3.380   4.107   3.183  2.5905 -0.1921  1.8629
  488THF     H7 8278   3.375   4.178   3.345 -1.2593 -5.0155  1.8739
  488THF     C8 8279   3.180   4.106   3.277 -0.4944 -0.6214  0.6912
  488THF     C9 8280   3.083   4.215   3.236 -0.1914 -0.0677  0.4274
  488THF    H10 8281   3.180   4.075   3.381 -1.1167  1.9389  1.5234
  488THF    H11 8282   3.173   4.018   3.212 -0.5668  1.3702 -2.1806
  488THF    H12 8283   3.040   4.202   3.137  1.2338  1.2066 -0.4052
  488THF    H13 8284   3.009   4.210   3.316  0.3815  0.6489  1.0130
  489THF     O1 8285   3.630   4.607   3.251  0.2691  0.2364  0.9762
  489THF     C2 8286   3.747   4.575   3.325 -0.5425 -0.1680  0.1433
  489THF     C3 8287   3.541   4.501   3.259 -0.6439 -0.8904 -0.3129
  489THF     H4 8288   3.739   4.620   3.423  3.4755  1.2460  0.0193
  489THF     H5 8289   3.842   4.611   3.285 -0.4240 -1.2431 -0.6150
  489THF     H6 8290   3.466   4.510   3.338 -0.9575 -1.3904 -0.5530
  489THF     H7 8291   3.484   4.490   3.167  0.3813  0.1944 -1.0991
  489THF     C8 8292   3.636   4.380   3.274  0.3352  0.1614 -0.1603
  489THF     C9 8293   3.756   4.428   3.355  0.1668 -0.3273  0.2873
  489THF    H10 8294   3.675   4.357   3.176 -0.1707  0.6511 -0.4857
  489THF    H11 8295   3.572   4.297   3.304 -0.6512  0.4620 -1.3252
  489THF    H12 8296   3.755   4.414   3.463  0.2389  1.4606  0.5515
  489THF    H13 8297   3.845   4.372   3.325 -0.7570 -1.2193 -0.9180
  490THF     O1 8298   4.525   3.674   3.585 -0.0242 -0.4734  0.2735
  490THF     C2 8299   4.636   3.582   3.605 -0.8465 -0.2497  0.0942
  490THF     C3 8300   4.574   3.784   3.512  0.1424 -0.2910  0.7883
  490THF     H4 8301   4.603   3.487   3.647 -2.1491 -0.8696 -2.1811
  490THF     H5 8302   4.687   3.621   3.693 -4.2734 -0.4740  2.4125
  490THF     H6 8303   4.495   3.850   3.478 -2.7779 -2.1213  3.4378
  490THF     H7 8304   4.644   3.848   3.565  0.2997  0.5306 -0.3660
  490THF     C8 8305   4.637   3.699   3.402  0.3295 -0.1668 -0.3289
  490THF     C9 8306   4.704   3.581   3.473  0.3545 -0.3556 -0.1124
  490THF    H10 8307   4.710   3.756   3.344 -0.2253  2.4521  1.3845
  490THF    H11 8308   4.558   3.674   3.332  0.9148  0.3947 -1.2102
  490THF    H12 8309   4.686   3.493   3.412  3.3287 -0.5295 -0.8909
  490THF    H13 8310   4.812   3.590   3.483  0.5833  0.0538 -2.3276
  491THF     O1 8311   3.265   3.127   3.813 -0.2235 -0.3089  0.4806
  491THF     C2 8312   3.235   3.227   3.714  0.0320 -0.6741 -0.5772
  491THF     C3 8313   3.310   3.015   3.739  0.0957  0.2554 -0.4405
  491THF     H4 8314   3.252   3.323   3.764 -0.2411 -2.1368  2.5363
  491THF     H5 8315   3.131   3.215   3.686  0.0097 -2.1515  0.0814
  491THF     H6 8316   3.361   2.946   3.807 -2.4485  0.3790  1.7651
  491THF     H7 8317   3.233   2.966   3.681 -0.2861  1.2417 -0.7952
  491THF     C8 8318   3.407   3.076   3.638 -0.8997 -0.3379 -0.7015
  491THF     C9 8319   3.327   3.201   3.597 -0.1101  0.1220 -0.1689
  491THF    H10 8320   3.420   2.999   3.562  2.8788  0.2068 -0.7934
  491THF    H11 8321   3.504   3.104   3.679 -0.8800  2.5903 -2.5042
  491THF    H12 8322   3.391   3.281   3.560  1.8859 -2.1320 -1.9058
  491THF    H13 8323   3.270   3.182   3.506  1.3384  0.1080 -1.0860
  492THF     O1 8324   0.175   4.533   0.607 -0.2191 -0.7259  0.1780
  492THF     C2 8325   0.167   4.545   0.754  0.5362 -0.8051  0.0347
  492THF     C3 8326   0.293   4.455   0.571  0.1047  0.0685  0.3631
  492THF     H4 8327   0.077   4.501   0.797 -1.2961  0.4969 -2.1978
  492THF     H5 8328   0.180   4.647   0.790  2.5082 -0.7424 -0.7197
  492THF     H6 8329   0.276   4.348   0.558  1.2829 -0.0177 -0.6099
  492THF     H7 8330   0.347   4.488   0.483 -0.1715 -0.7028 -0.1005
  492THF     C8 8331   0.385   4.474   0.691  0.4627 -0.6010 -0.4755
  492THF     C9 8332   0.292   4.475   0.813  0.2932  0.0317 -1.0395
  492THF    H10 8333   0.422   4.577   0.687  0.2505 -0.4241  1.4025
  492THF    H11 8334   0.463   4.397   0.697 -0.0678 -1.1563 -0.6266
  492THF    H12 8335   0.267   4.373   0.842  0.4763  0.0796 -0.7122
  492THF    H13 8336   0.347   4.532   0.888 -0.3089  0.9307 -1.2695
  493THF     O1 8337   2.164   2.678   5.062 -0.3278  0.3084 -0.1449
  493THF     C2 8338   2.138   2.667   4.923 -0.4420  0.0153 -0.6700
  493THF     C3 8339   2.099   2.574   5.130  0.9310  0.3379  0.4605
  493THF     H4 8340   2.203   2.737   4.870  1.3234  1.0694  2.6255
  493THF     H5 8341   2.039   2.713   4.918 -0.5318 -0.0465  0.3064
  493THF     H6 8342   2.137   2.557   5.230  2.0664 -2.3100 -0.3207
  493THF     H7 8343   1.995   2.595   5.152  0.9279  3.1248 -1.6872
  493THF     C8 8344   2.103   2.458   5.030  0.4911  0.3149  0.6499
  493THF     C9 8345   2.151   2.516   4.899 -0.3407 -0.2812 -0.1107
  493THF    H10 8346   2.007   2.411   5.010  1.6621 -1.5861 -0.7871
  493THF    H11 8347   2.166   2.373   5.053  0.1701  0.1427  0.9115
  493THF    H12 8348   2.259   2.501   4.899 -0.4323 -1.0413  0.7415
  493THF    H13 8349   2.110   2.475   4.807  1.2627  1.7228 -1.8515
  494THF     O1 8350   1.613   0.320   4.867 -0.1520  0.1347  0.5642
  494THF     C2 8351   1.490   0.353   4.934  0.3659 -0.5423 -0.0724
  494THF     C3 8352   1.582   0.259   4.748 -0.3969 -0.1992  0.0768
  494THF     H4 8353   1.505   0.456   4.965 -1.5917 -0.4261  0.6006
  494THF     H5 8354   1.481   0.288   5.021 -1.0339 -0.2912 -0.0066
  494THF     H6 8355   1.667   0.271   4.681  0.4886  1.0844  1.3766
  494THF     H7 8356   1.573   0.151   4.766 -0.5272  0.1000  1.9944
  494THF     C8 8357   1.448   0.321   4.708 -0.1363  0.4650 -0.4431
  494THF     C9 8358   1.381   0.337   4.839 -0.7647 -0.7267  0.4085
  494THF    H10 8359   1.395   0.266   4.631 -0.5664  1.1654 -0.6558
  494THF    H11 8360   1.469   0.421   4.671  1.3042 -0.5840 -2.6851
  494THF    H12 8361   1.323   0.429   4.832  0.9479  0.4300  0.6324
  494THF    H13 8362   1.306   0.262   4.861 -0.7385 -0.6502  0.7609
  495THF     O1 8363   3.207   2.471   0.852 -0.0228  0.9496  0.0088
  495THF     C2 8364   3.100   2.404   0.782 -0.8217  0.6577 -0.0525
  495THF     C3 8365   3.284   2.360   0.904 -0.8017  0.3195  0.4247
  495THF     H4 8366   3.051   2.465   0.707  1.1357  1.7613 -0.4900
  495THF     H5 8367   3.028   2.350   0.844  0.8363 -2.3135 -0.5025
  495THF     H6 8368   3.384   2.380   0.942 -0.1828  0.7011 -1.3077
  495THF     H7 8369   3.223   2.313   0.980 -0.8472 -0.7494 -0.2523
  495THF     C8 8370   3.294   2.257   0.792 -0.2665  0.0487  0.5400
  495THF     C9 8371   3.171   2.290   0.713  0.7395 -0.6023  0.8115
  495THF    H10 8372   3.309   2.160   0.839 -0.0534  0.1519  0.6852
  495THF    H11 8373   3.379   2.272   0.725 -0.5353 -3.1138 -0.6586
  495THF    H12 8374   3.214   2.318   0.617 -0.0570  2.6749  1.2981
  495THF    H13 8375   3.104   2.206   0.701 -1.9137  1.6808 -1.9940
  496THF     O1 8376   4.583   3.142   3.280 -0.4531 -0.3773 -0.5214
  496THF     C2 8377   4.577   3.064   3.169  0.2172  0.1474 -0.5801
  496THF     C3 8378   4.483   3.239   3.269 -0.4583 -0.3666 -0.0323
  496THF     H4 8379   4.541   2.964   3.193 -0.7441  0.3854 -0.9945
  496THF     H5 8380   4.673   3.042   3.123 -0.3480  2.8723 -3.4381
  496THF     H6 8381   4.396   3.188   3.310 -0.1818 -0.9251 -0.1342
  496THF     H7 8382   4.502   3.330   3.326 -2.0066  2.5135 -3.6949
  496THF     C8 8383   4.475   3.278   3.121 -0.3254 -0.7061 -0.5879
  496THF     C9 8384   4.487   3.137   3.065  0.1665 -0.1331 -0.0952
  496THF    H10 8385   4.556   3.345   3.093  0.0824 -1.4251 -1.1536
  496THF    H11 8386   4.380   3.325   3.094  0.0897  0.8492  0.4625
  496THF    H12 8387   4.388   3.092   3.073  0.6336 -1.1786  0.0285
  496THF    H13 8388   4.534   3.149   2.968  0.8731  0.7964  0.3386
  497THF     O1 8389   0.054   2.890   1.582 -0.4289 -0.2214 -0.0468
  497THF     C2 8390   0.084   2.783   1.487 -0.2659 -0.2410  0.7969
  497THF     C3 8391   0.173   2.915   1.656  0.0513 -0.6460  0.0360
  497THF     H4 8392   0.137   2.836   1.407  1.8074 -1.6101  1.1856
  497THF     H5 8393  -0.000   2.726   1.447  0.9459 -0.9215 -0.9125
  497THF     H6 8394   0.237   2.966   1.584  0.7518 -0.1523  0.9913
  497THF     H7 8395   0.162   2.984   1.740  1.0470  0.4379 -0.6937
  497THF     C8 8396   0.231   2.778   1.682 -0.0547  0.0281 -0.1324
  497THF     C9 8397   0.177   2.692   1.566 -0.0149  0.3831 -0.3524
  497THF    H10 8398   0.189   2.747   1.777  2.0942  5.0472  2.8496
  497THF    H11 8399   0.340   2.785   1.693  0.0368  1.8290 -1.6814
  497THF    H12 8400   0.250   2.648   1.499 -1.0119 -1.4575 -0.2964
  497THF    H13 8401   0.125   2.611   1.616  1.1069 -0.1449 -0.0110
  498THF     O1 8402   5.393   2.062   2.761  0.1648  0.8783 -0.1449
  498THF     C2 8403   5.319   2.084   2.639 -0.0728 -0.1438  0.5157
  498THF     C3 8404   5.305   2.050   2.869  0.4708  0.6263  0.6348
  498THF     H4 8405   5.345   2.016   2.557 -1.8774 -2.7404  1.9435
  498THF     H5 8406   5.350   2.181   2.601 -0.7069 -1.1033 -2.7625
  498THF     H6 8407   5.329   1.963   2.931 -1.4719 -0.6814 -0.3286
  498THF     H7 8408   5.298   2.146   2.920 -2.2369 -0.4836  2.6443
  498THF     C8 8409   5.170   1.999   2.802 -0.3729 -0.3203  0.1276
  498THF     C9 8410   5.177   2.085   2.677  0.7617  0.2013 -0.4059
  498THF    H10 8411   5.087   2.036   2.862  0.9770  3.6469 -0.1217
  498THF    H11 8412   5.173   1.894   2.772 -0.5417 -0.1806 -0.3918
  498THF    H12 8413   5.111   2.042   2.602 -0.9158  0.4945  0.8633
  498THF    H13 8414   5.150   2.187   2.701  1.2565 -0.2218  2.2177
  499THF     O1 8415   0.364   3.297   3.157 -0.6199 -0.9380  0.0133
  499THF     C2 8416   0.493   3.309   3.097  0.1757  0.3565  0.2803
  499THF     C3 8417   0.348   3.165   3.204 -0.4425  0.5629  0.2583
  499THF     H4 8418   0.565   3.308   3.179 -0.5792  0.6525  0.9595
  499THF     H5 8419   0.501   3.401   3.039 -0.7030  0.4537  0.3047
  499THF     H6 8420   0.396   3.170   3.301 -2.3051 -0.5508  1.2960
  499THF     H7 8421   0.241   3.145   3.200  0.0080 -2.2847 -3.5492
  499THF     C8 8422   0.410   3.084   3.097  0.6110 -0.1574 -0.0794
  499THF     C9 8423   0.506   3.180   3.016  0.6708 -0.4584 -0.3497
  499THF    H10 8424   0.338   3.039   3.029 -0.1415  0.3290  0.3723
  499THF    H11 8425   0.469   3.003   3.139  1.2197  0.2088 -0.2133
  499THF    H12 8426   0.610   3.145   3.014  1.6179  1.9471  1.2931
  499THF    H13 8427   0.475   3.196   2.913 -0.7676  0.0922  0.1503
  500THF     O1 8428   1.405   3.113   3.453  0.2926  0.4602 -0.1746
  500THF     C2 8429   1.406   3.224   3.364 -0.4875  0.2341 -0.3563
  500THF     C3 8430   1.384   2.989   3.379  0.1035 -0.0899  0.6837
  500THF     H4 8431   1.493   3.285   3.387 -0.7599  1.1474 -1.6766
  500THF     H5 8432   1.307   3.271   3.370 -2.0749 -2.3144 -3.4406
  500THF     H6 8433   1.437   2.912   3.435 -0.0669  0.2402  1.3107
  500THF     H7 8434   1.276   2.973   3.370 -0.0932  1.7428 -0.9718
  500THF     C8 8435   1.450   3.019   3.242  0.2609  0.0609 -0.2624
  500THF     C9 8436   1.428   3.165   3.221 -0.2297 -0.5447 -0.5500
  500THF    H10 8437   1.429   2.956   3.156  0.8379  0.5146 -0.7469
  500THF    H11 8438   1.558   3.002   3.250 -0.1310 -2.2261  0.8820
  500THF    H12 8439   1.510   3.206   3.163 -0.4762 -1.3215 -1.4645
  500THF    H13 8440   1.344   3.184   3.154 -1.4971 -3.2111  0.1624
  501THF     O1 8441   4.140   3.720   2.154  0.4217 -0.2176 -0.4546
  501THF     C2 8442   4.258   3.759   2.097 -0.1282 -0.7589  0.3229
  501THF     C3 8443   4.108   3.809   2.263 -0.2811  0.4539 -0.3514
  501THF     H4 8444   4.282   3.719   1.998 -0.5248  0.4195 -0.2812
  501THF     H5 8445   4.340   3.727   2.161  0.7568  0.0564 -0.3515
  501THF     H6 8446   4.001   3.802   2.280  0.1061 -0.1884  2.3186
  501THF     H7 8447   4.162   3.782   2.354 -0.8319  2.1171  0.5226
  501THF     C8 8448   4.154   3.944   2.213 -0.3233 -0.1553  0.2723
  501THF     C9 8449   4.260   3.912   2.104 -0.8047 -0.0416  0.3065
  501THF    H10 8450   4.195   4.016   2.283  0.7779 -0.1154 -0.3832
  501THF    H11 8451   4.073   3.989   2.155 -0.6502 -1.2450 -0.1482
  501THF    H12 8452   4.229   3.965   2.014  1.9175  0.1150 -0.6382
  501THF    H13 8453   4.360   3.952   2.123 -0.5766 -0.6944  0.4942
  502THF     O1 8454   3.525   1.559   3.698 -0.0280  0.2011  1.0675
  502THF     C2 8455   3.566   1.498   3.576  0.2706 -0.5735  0.0248
  502THF     C3 8456   3.528   1.699   3.679 -0.2175  0.0329  0.2777
  502THF     H4 8457   3.526   1.397   3.576  0.3988 -0.6731 -2.2723
  502THF     H5 8458   3.675   1.500   3.568  0.1740  0.6921 -1.4627
  502THF     H6 8459   3.477   1.756   3.756  1.8910 -1.3048  2.8398
  502THF     H7 8460   3.633   1.730   3.676 -0.4726  0.8854 -0.2435
  502THF     C8 8461   3.459   1.715   3.545  0.4745 -0.9987  0.4461
  502THF     C9 8462   3.512   1.592   3.464  0.0620 -0.8091 -0.2409
  502THF    H10 8463   3.476   1.813   3.500  1.9652 -1.3232  0.2439
  502THF    H11 8464   3.350   1.711   3.552  0.2403  1.9859  0.0203
  502THF    H12 8465   3.431   1.527   3.432 -1.5572  0.2829  1.4378
  502THF    H13 8466   3.583   1.621   3.387 -1.2581 -0.4305 -1.3450
  503THF     O1 8467   1.487   4.614   1.388 -0.5865 -0.0167  0.3906
  503THF     C2 8468   1.585   4.513   1.412 -0.2866 -0.7508 -0.1940
  503THF     C3 8469   1.360   4.564   1.431 -0.4762 -0.6999  0.9083
  503THF     H4 8470   1.684   4.560   1.421 -1.1019  1.5572 -2.1129
  503THF     H5 8471   1.600   4.450   1.325  1.7467  1.2004 -1.3941
  503THF     H6 8472   1.330   4.642   1.501  1.1404  0.4451  0.4063
  503THF     H7 8473   1.295   4.556   1.344  2.0446  0.0511 -1.1752
  503THF     C8 8474   1.390   4.436   1.513 -0.0148  0.3108  0.5216
  503THF     C9 8475   1.539   4.449   1.543 -0.0883  0.0874  0.6287
  503THF    H10 8476   1.375   4.352   1.444 -0.7236  1.7479 -1.1360
  503THF    H11 8477   1.329   4.418   1.601 -1.0024  2.2507  0.2810
  503THF    H12 8478   1.561   4.519   1.624 -0.3190  2.2904 -1.1176
  503THF    H13 8479   1.607   4.365   1.555 -0.2678 -0.0848  0.4523
  504THF     O1 8480   4.892   1.523   2.669  0.1493 -0.1209 -0.0230
  504THF     C2 8481   4.919   1.654   2.613 -0.4453  0.1879 -0.4247
  504THF     C3 8482   4.752   1.503   2.661 -0.5759 -0.1934  0.4712
  504THF     H4 8483   5.008   1.650   2.551  1.1028  1.1453  1.6077
  504THF     H5 8484   4.930   1.721   2.698 -3.0330  1.1373 -0.7497
  504THF     H6 8485   4.733   1.396   2.652 -2.1753  0.0689  0.3939
  504THF     H7 8486   4.711   1.542   2.755  0.3913 -0.6719  1.1042
  504THF     C8 8487   4.704   1.588   2.541 -0.0660 -0.3426  0.1155
  504THF     C9 8488   4.792   1.706   2.546 -0.6274  1.0358 -0.3400
  504THF    H10 8489   4.605   1.631   2.557 -0.8001 -1.5451 -1.0028
  504THF    H11 8490   4.695   1.531   2.449  1.8571 -0.4903 -0.0223
  504THF    H12 8491   4.799   1.759   2.450  0.0059  3.2038  0.8356
  504THF    H13 8492   4.740   1.775   2.612 -2.0666  0.7488 -1.1397
  505THF     O1 8493   3.997   3.907   5.149 -0.0293  0.0202 -0.0991
  505THF     C2 8494   3.910   3.866   5.254  0.1814  0.3891 -0.4426
  505THF     C3 8495   3.995   4.046   5.125  0.0978 -0.5740 -0.3222
  505THF     H4 8496   3.967   3.789   5.307 -1.3607 -0.8569 -0.5534
  505THF     H5 8497   3.822   3.819   5.210  1.0668 -0.8868 -0.9202
  505THF     H6 8498   4.078   4.086   5.066 -0.4478 -0.1052 -0.7840
  505THF     H7 8499   3.911   4.077   5.063 -0.4570  0.7985  1.0497
  505THF     C8 8500   3.984   4.097   5.268  0.6402 -0.6071 -0.0506
  505THF     C9 8501   3.893   3.991   5.333 -0.4337 -0.7594  0.0881
  505THF    H10 8502   3.946   4.197   5.290  1.4484 -0.4752  0.8297
  505THF    H11 8503   4.083   4.106   5.312  0.3945  0.5576  0.3120
  505THF    H12 8504   3.924   3.979   5.436 -1.1991 -2.0067  0.1871
  505THF    H13 8505   3.787   4.018   5.330 -0.2121  0.1219 -2.8411
  506THF     O1 8506   0.160   0.717   4.345  0.5303 -0.0258  0.2095
  506THF     C2 8507   0.051   0.663   4.263  0.2457 -0.5152 -0.3668
  506THF     C3 8508   0.232   0.603   4.396 -0.3554 -0.3833  0.0464
  506THF     H4 8509   0.081   0.665   4.159  1.9911  0.1750  0.1076
  506THF     H5 8510  -0.034   0.729   4.280 -0.4528 -1.2171 -1.0464
  506THF     H6 8511   0.308   0.571   4.325 -2.2681 -0.3732 -2.1403
  506THF     H7 8512   0.276   0.624   4.494 -0.5813  3.5060 -0.5083
  506THF     C8 8513   0.135   0.487   4.405  0.6412  0.4055 -0.4868
  506THF     C9 8514   0.017   0.520   4.314  0.1033  0.1077  0.5727
  506THF    H10 8515   0.084   0.491   4.502 -0.9077 -0.4737 -1.2408
  506THF    H11 8516   0.177   0.388   4.391 -0.8954 -0.7670  2.3608
  506THF    H12 8517   0.018   0.458   4.224  2.0361  0.6698  0.1508
  506THF    H13 8518  -0.077   0.507   4.367  0.4772 -1.3705  0.9315
  507THF     O1 8519   0.234   0.030   2.653  0.0075 -0.1037  0.0907
  507THF     C2 8520   0.220   0.106   2.772  0.2405  0.0784  0.2200
  507THF     C3 8521   0.335  -0.069   2.685 -0.1893 -0.0811  0.5102
  507THF     H4 8522   0.138   0.178   2.775 -0.7821 -1.0685  1.2440
  507THF     H5 8523   0.306   0.171   2.784 -0.2389  0.7441  0.1057
  507THF     H6 8524   0.326  -0.146   2.608 -1.1111 -0.0543  0.5725
  507THF     H7 8525   0.441  -0.043   2.683 -0.1860 -0.1049 -1.3800
  507THF     C8 8526   0.292  -0.129   2.820  0.4856 -0.6115  0.0793
  507THF     C9 8527   0.229  -0.003   2.884  0.5637 -0.2918 -0.1447
  507THF    H10 8528   0.388  -0.159   2.862  1.2811  0.5622 -0.8261
  507THF    H11 8529   0.228  -0.216   2.815  1.2027 -1.1723  0.4299
  507THF    H12 8530   0.128  -0.019   2.921  0.0287  3.9019  0.6650
  507THF    H13 8531   0.287   0.032   2.969 -1.1023 -0.1947  0.9859
  508THF     O1 8532   0.786   3.610   1.388 -0.6732 -0.4327 -0.2453
  508THF     C2 8533   0.726   3.659   1.509  0.1805  0.2547 -0.5617
  508THF     C3 8534   0.914   3.553   1.415 -0.4979 -0.1997  0.3986
  508THF     H4 8535   0.619   3.675   1.499  0.5306  2.1250 -2.0116
  508THF     H5 8536   0.772   3.757   1.518  3.0492 -1.0866  0.6191
  508THF     H6 8537   0.941   3.490   1.330  1.2616  1.1134 -0.0754
  508THF     H7 8538   0.986   3.636   1.415 -1.9052  1.1029  2.1517
  508THF     C8 8539   0.889   3.492   1.549  0.2121 -0.0505  0.4090
  508THF     C9 8540   0.759   3.541   1.604 -0.0106 -0.6160 -0.1540
  508THF    H10 8541   0.970   3.519   1.616 -0.1216 -0.9365  1.1819
  508THF    H11 8542   0.882   3.384   1.538  0.0630 -0.0926  0.9099
  508THF    H12 8543   0.675   3.472   1.604 -0.3809 -0.3840  3.5754
  508THF    H13 8544   0.764   3.579   1.706  1.7778 -0.8484 -0.1182
  509THF     O1 8545   3.942   0.348   1.027  0.0306  0.7458  0.2588
  509THF     C2 8546   4.062   0.307   1.093  0.3321 -0.3252  0.6512
  509THF     C3 8547   3.972   0.467   0.948 -0.3080  0.8640 -0.4101
  509THF     H4 8548   4.110   0.229   1.033  1.9037  1.5326 -0.6307
  509THF     H5 8549   4.052   0.272   1.196  1.2760 -1.0731  0.5073
  509THF     H6 8550   3.925   0.442   0.852 -0.3074  0.7793 -0.3889
  509THF     H7 8551   3.928   0.559   0.985 -2.8588 -0.6763  0.6212
  509THF     C8 8552   4.123   0.476   0.943 -0.1464  0.5072  0.2193
  509THF     C9 8553   4.164   0.424   1.079  0.6674  0.2793  0.2052
  509THF    H10 8554   4.156   0.578   0.923 -1.1779  0.9863  0.8587
  509THF    H11 8555   4.160   0.400   0.874 -1.0336  0.1032  0.1737
  509THF    H12 8556   4.265   0.385   1.091  0.1240 -1.4202 -0.4296
  509THF    H13 8557   4.156   0.506   1.150  1.4842  2.5820 -2.1674
  510THF     O1 8558   3.428   0.956   4.207  0.5005  0.1270 -0.4402
  510THF     C2 8559   3.336   0.855   4.165  0.2539  0.1236 -0.1391
  510THF     C3 8560   3.518   0.890   4.290 -0.0568 -0.3911  0.1960
  510THF     H4 8561   3.383   0.790   4.091 -2.4398 -1.3411 -0.6917
  510THF     H5 8562   3.245   0.902   4.128 -0.3265 -1.7374 -1.1789
  510THF     H6 8563   3.590   0.853   4.217 -1.8901 -0.4750 -1.6598
  510THF     H7 8564   3.572   0.969   4.343 -0.4380  2.1586 -2.8889
  510THF     C8 8565   3.439   0.792   4.378  0.0037 -0.3613 -1.1121
  510THF     C9 8566   3.327   0.761   4.288  0.1522  0.5954  0.3275
  510THF    H10 8567   3.398   0.837   4.468 -0.0365 -2.0040 -0.2651
  510THF    H11 8568   3.499   0.716   4.428  0.9993  0.4235 -1.0840
  510THF    H12 8569   3.331   0.656   4.257 -0.7137  0.4221  0.7651
  510THF    H13 8570   3.233   0.773   4.342  1.1290  1.5252  1.9000
  511THF     O1 8571   2.479   3.975   2.054  0.5484  0.3707  0.1677
  511THF     C2 8572   2.370   3.974   1.957 -0.1288  0.3130  0.3092
  511THF     C3 8573   2.547   3.850   2.052  0.3641 -0.6744  0.1081
  511THF     H4 8574   2.395   4.011   1.858  0.6180 -1.0226 -0.0178
  511THF     H5 8575   2.285   4.036   1.987 -0.5672  1.0662 -2.2528
  511THF     H6 8576   2.636   3.849   1.990  0.5173 -0.9776  0.3314
  511THF     H7 8577   2.572   3.822   2.154 -0.4912 -2.3728 -0.1187
  511THF     C8 8578   2.453   3.750   1.986  0.2673  0.2049 -0.4314
  511THF     C9 8579   2.325   3.827   1.957  0.0206 -0.4803 -0.4707
  511THF    H10 8580   2.442   3.664   2.051  2.0441  1.1187  1.1838
  511THF    H11 8581   2.496   3.721   1.891 -2.0412 -0.1544 -1.4425
  511THF    H12 8582   2.274   3.803   1.863 -0.2394  0.7974 -0.6719
  511THF    H13 8583   2.260   3.808   2.042  2.4899 -0.4153  1.5679
  512THF     O1 8584   1.898   3.079   1.875  0.5404  0.2502 -0.1367
  512THF     C2 8585   1.763   3.026   1.865  0.1752  0.8088  0.5459
  512THF     C3 8586   1.974   2.993   1.792 -0.1153 -0.4932  0.1076
  512THF     H4 8587   1.687   3.099   1.893 -0.0034  1.5480 -1.6873
  512THF     H5 8588   1.737   2.941   1.928  0.5120  1.1585  1.1729
  512THF     H6 8589   2.069   3.042   1.770 -1.0273  1.2095 -0.2076
  512THF     H7 8590   1.988   2.893   1.832  0.0070 -0.7929 -0.6693
  512THF     C8 8591   1.893   2.970   1.670 -0.6024 -0.1058 -0.0690
  512THF     C9 8592   1.746   2.990   1.719 -0.6256  0.0799  0.7317
  512THF    H10 8593   1.920   2.877   1.619  0.1594 -0.7341  1.4126
  512THF    H11 8594   1.914   3.043   1.592 -0.3857 -0.2633 -0.1595
  512THF    H12 8595   1.701   3.076   1.669 -0.7864  0.3276  1.2921
  512THF    H13 8596   1.682   2.903   1.713 -0.9349  0.3083  0.6768
  513THF     O1 8597   0.744   2.646   1.730 -0.0743  0.2830 -0.4939
  513THF     C2 8598   0.662   2.611   1.844 -0.0176 -0.6271  0.1932
  513THF     C3 8599   0.667   2.639   1.615 -0.5268  0.4133 -0.0717
  513THF     H4 8600   0.589   2.691   1.859  1.6387  1.3403 -1.5411
  513THF     H5 8601   0.705   2.584   1.940 -4.4598 -0.7465  2.4257
  513THF     H6 8602   0.625   2.739   1.604  1.6865  1.4988  0.8090
  513THF     H7 8603   0.718   2.607   1.524  1.7959 -0.8648  1.5817
  513THF     C8 8604   0.554   2.540   1.649  0.2331 -0.9142  0.5046
  513THF     C9 8605   0.591   2.490   1.789  0.2684  0.0484 -0.0809
  513THF    H10 8606   0.539   2.448   1.592 -1.5559 -1.2205  1.3807
  513THF    H11 8607   0.464   2.601   1.659  0.4869 -0.3564 -0.4724
  513THF    H12 8608   0.499   2.469   1.844 -0.2044  1.7849 -0.1499
  513THF    H13 8609   0.666   2.411   1.785  0.7163  0.5049 -1.1032
  514THF     O1 8610   1.298   4.067   5.408 -0.4205  0.2624 -0.3736
  514THF     C2 8611   1.432   4.023   5.405 -0.3711  0.1014 -0.1985
  514THF     C3 8612   1.299   4.203   5.430 -0.0025 -0.1207 -0.8918
  514THF     H4 8613   1.490   4.028   5.313 -0.1214  0.2015 -0.0386
  514THF     H5 8614   1.424   3.917   5.430 -1.3914 -0.3665 -2.2964
  514THF     H6 8615   1.328   4.248   5.335 -0.2978  2.4621  0.1766
  514THF     H7 8616   1.199   4.240   5.452 -0.0928 -0.7959 -0.1186
  514THF     C8 8617   1.405   4.220   5.536 -0.0081 -0.6624  1.6033
  514THF     C9 8618   1.492   4.103   5.516 -0.0638  1.0567  0.1031
  514THF    H10 8619   1.376   4.230   5.640  0.7502 -0.7986  1.8293
  514THF    H11 8620   1.453   4.315   5.512 -1.0397 -0.3876  0.4759
  514THF    H12 8621   1.593   4.134   5.489  0.4789 -1.8434 -1.6434
  514THF    H13 8622   1.497   4.038   5.603  3.1905  1.5165  0.3839
  515THF     O1 8623   4.744   1.498   0.054 -0.3804 -0.0008 -0.5887
  515THF     C2 8624   4.852   1.428  -0.007  0.9645 -0.2260 -0.2360
  515THF     C3 8625   4.732   1.628  -0.002  0.2003  0.1813  0.0115
  515THF     H4 8626   4.831   1.379  -0.102  0.0164 -2.1857  0.9178
  515THF     H5 8627   4.891   1.353   0.062 -0.4917  1.2957  2.4040
  515THF     H6 8628   4.665   1.623  -0.089 -1.3830 -2.2724  1.2509
  515THF     H7 8629   4.690   1.698   0.070  0.4716 -1.0996  1.4787
  515THF     C8 8630   4.868   1.667  -0.059 -1.0107  0.8277 -0.1597
  515THF     C9 8631   4.951   1.540  -0.031 -0.4242 -0.3679  0.3393
  515THF    H10 8632   4.919   1.753  -0.016  0.4654  0.3654 -0.9074
  515THF    H11 8633   4.859   1.665  -0.168  0.7850 -2.4683 -0.3856
  515THF    H12 8634   5.021   1.514  -0.111 -1.3052 -2.0177  0.0808
  515THF    H13 8635   5.010   1.558   0.059  1.1453  0.4550 -0.7942
  516THF     O1 8636   4.873   1.753   2.972 -0.1382 -0.5046 -0.1917
  516THF     C2 8637   4.742   1.792   2.941 -0.3543  0.0839  0.0007
  516THF     C3 8638   4.919   1.849   3.066  0.4485  0.1794 -0.3408
  516THF     H4 8639   4.677   1.794   3.028  0.9340  1.0738  0.9732
  516THF     H5 8640   4.691   1.736   2.862  0.0537 -0.2301 -0.0413
  516THF     H6 8641   4.902   1.814   3.168  0.2094 -0.6862 -0.6721
  516THF     H7 8642   5.025   1.853   3.044  1.2190 -2.7606  2.0924
  516THF     C8 8643   4.851   1.982   3.031 -1.1566  0.4370  0.2783
  516THF     C9 8644   4.762   1.942   2.908  0.3546  0.3333  0.0592
  516THF    H10 8645   4.921   2.064   3.014 -0.5006 -0.6323 -2.9610
  516THF    H11 8646   4.785   2.012   3.113 -1.0053 -1.1725  1.0378
  516THF    H12 8647   4.676   2.009   2.912  1.0097  1.2329 -0.7442
  516THF    H13 8648   4.820   1.956   2.817 -0.3860 -0.4512 -0.5632
  517THF     O1 8649   0.085   2.396   3.733  0.3728  0.0906  0.6881
  517THF     C2 8650   0.169   2.510   3.730  0.1203  0.1284  0.6348
  517THF     C3 8651   0.168   2.311   3.648 -0.0037  0.3341  0.6635
  517THF     H4 8652   0.149   2.582   3.809 -0.3558 -0.7745  1.3467
  517THF     H5 8653   0.147   2.570   3.641  0.7489  0.2492  0.5527
  517THF     H6 8654   0.127   2.210   3.650 -1.6115  0.8823 -1.4285
  517THF     H7 8655   0.157   2.347   3.546 -0.4021 -1.5360  0.0136
  517THF     C8 8656   0.306   2.320   3.704 -0.4185 -0.0818  0.9089
  517THF     C9 8657   0.321   2.464   3.740 -0.1574 -0.6120 -0.0995
  517THF    H10 8658   0.381   2.279   3.637 -1.3989 -0.6419  0.1317
  517THF    H11 8659   0.292   2.265   3.797 -0.9529 -0.6891  0.4772
  517THF    H12 8660   0.373   2.495   3.831  1.3322  2.1579 -1.7655
  517THF    H13 8661   0.375   2.512   3.658 -0.6813 -0.0884 -0.1518
  518THF     O1 8662   0.703   1.370   0.956  0.1321  0.2940  0.2176
  518THF     C2 8663   0.826   1.423   0.927 -0.1101  0.4935  1.3871
  518THF     C3 8664   0.711   1.334   1.094  0.0638  0.4598 -0.1898
  518THF     H4 8665   0.819   1.488   0.840 -2.4545 -0.7977  0.5195
  518THF     H5 8666   0.895   1.347   0.890  1.2373  1.8395  1.0154
  518THF     H6 8667   0.607   1.334   1.124 -0.5171  2.4529 -1.9852
  518THF     H7 8668   0.757   1.235   1.106 -0.6832 -0.0405 -1.3275
  518THF     C8 8669   0.796   1.437   1.163 -0.3486 -0.4828  0.5620
  518THF     C9 8670   0.888   1.476   1.052  0.7242 -0.4216  0.3972
  518THF    H10 8671   0.858   1.410   1.249  0.8741  1.5992  0.3971
  518THF    H11 8672   0.738   1.523   1.198 -0.0562  0.3552 -0.9276
  518THF    H12 8673   0.918   1.581   1.048 -0.2263 -0.1739 -0.6434
  518THF    H13 8674   0.977   1.415   1.071  2.3520  1.3901 -1.0040
  519THF     O1 8675   1.997   0.936   0.504 -0.1083  0.4588  1.0964
  519THF     C2 8676   2.091   0.843   0.560  0.4215  0.0709 -0.1317
  519THF     C3 8677   1.869   0.873   0.496 -0.3700 -1.0860 -0.0624
  519THF     H4 8678   2.155   0.898   0.629  0.2996  0.2439 -0.1572
  519THF     H5 8679   2.140   0.791   0.478  2.4340 -0.6555  1.4256
  519THF     H6 8680   1.806   0.945   0.548  3.2508  1.7845  0.7766
  519THF     H7 8681   1.833   0.854   0.394 -3.9024  0.5845  0.7247
  519THF     C8 8682   1.883   0.730   0.563 -0.0173  0.2256  0.5862
  519THF     C9 8683   2.012   0.741   0.642  0.6891 -0.4228 -0.2318
  519THF    H10 8684   1.889   0.644   0.496 -2.4574  0.8002 -0.4749
  519THF    H11 8685   1.796   0.717   0.628 -0.1566  2.6344  0.9788
  519THF    H12 8686   1.990   0.776   0.743  1.1823 -0.3477 -0.1494
  519THF    H13 8687   2.062   0.645   0.639  0.7505 -0.3795 -0.8350
  520THF     O1 8688   2.018   2.669   1.303  0.1917  0.3031 -0.0079
  520THF     C2 8689   1.930   2.785   1.301  0.9612 -0.1003 -0.8367
  520THF     C3 8690   1.957   2.575   1.215 -0.5379 -0.4487  0.0340
  520THF     H4 8691   1.955   2.851   1.218 -1.2092 -0.5182 -1.8872
  520THF     H5 8692   1.939   2.843   1.393  1.0901 -0.2972 -0.7239
  520THF     H6 8693   2.018   2.556   1.127  0.7238 -0.8757  0.9799
  520THF     H7 8694   1.961   2.479   1.266  0.7930 -1.7413 -2.3547
  520THF     C8 8695   1.823   2.635   1.171 -0.2282 -0.3751  0.2600
  520THF     C9 8696   1.791   2.738   1.272  0.0004  0.3168 -0.1078
  520THF    H10 8697   1.749   2.556   1.161  2.2550 -2.6774 -1.4750
  520THF    H11 8698   1.841   2.691   1.080 -1.7328  0.1045  0.2407
  520THF    H12 8699   1.725   2.819   1.240  1.4581  1.0785 -1.3476
  520THF    H13 8700   1.738   2.701   1.359  0.2906 -0.6858 -0.3486
  521THF     O1 8701   2.828   4.208   1.322 -0.2308 -0.2826 -1.0435
  521THF     C2 8702   2.956   4.275   1.297 -0.4556  0.1316 -0.3442
  521THF     C3 8703   2.852   4.073   1.294 -0.4762 -0.0176 -0.5542
  521THF     H4 8704   3.025   4.230   1.369  0.3774  1.0997 -0.5169
  521THF     H5 8705   2.953   4.380   1.325  0.2595 -0.3935  2.0001
  521THF     H6 8706   2.915   4.028   1.370 -0.9587 -1.6571 -1.0721
  521THF     H7 8707   2.756   4.021   1.281  0.6361 -2.7907  1.3553
  521THF     C8 8708   2.926   4.084   1.158  0.4727  0.3853  0.5065
  521THF     C9 8709   2.964   4.232   1.153  0.1473  0.5092 -0.1583
  521THF    H10 8710   2.859   4.059   1.075 -1.2883  0.2133  1.9260
  521THF    H11 8711   3.014   4.021   1.167 -0.6981 -1.0952  2.3878
  521THF    H12 8712   3.058   4.254   1.103  0.4998 -2.4225 -0.9530
  521THF    H13 8713   2.894   4.292   1.094 -0.3676 -0.3854 -0.4763
  522THF     O1 8714   1.173   5.080   4.581 -0.4776 -0.0741 -0.0781
  522THF     C2 8715   1.100   5.125   4.465  0.1700 -0.7722 -0.1791
  522THF     C3 8716   1.090   4.994   4.663 -0.0281 -0.3228 -0.3740
  522THF     H4 8717   1.113   5.045   4.393  1.5270  0.4538 -1.3530
  522THF     H5 8718   1.142   5.212   4.414  0.2658 -0.3061  0.6847
  522THF     H6 8719   1.119   4.889   4.662 -2.1996 -0.9757  0.2063
  522THF     H7 8720   1.080   5.026   4.767  0.5835 -1.7417  0.1418
  522THF     C8 8721   0.947   5.023   4.623  1.0006 -0.3282  0.2477
  522THF     C9 8722   0.964   5.144   4.528 -0.3624 -0.2179  0.5095
  522THF    H10 8723   0.870   5.035   4.700 -1.4626 -1.5414 -1.8890
  522THF    H11 8724   0.913   4.938   4.564  0.7637  0.8868 -1.4549
  522THF    H12 8725   0.885   5.147   4.453 -0.6148 -3.5257  0.4939
  522THF    H13 8726   0.966   5.241   4.576  0.1105  0.4123 -0.7216
  523THF     O1 8727   3.037   4.238   2.682 -0.2963  0.1355  0.4686
  523THF     C2 8728   3.057   4.107   2.744  0.3072  0.4538 -0.5140
  523THF     C3 8729   2.959   4.210   2.568 -0.1969  0.0145 -0.5021
  523THF     H4 8730   3.077   4.121   2.850  1.0475  0.4054 -0.6446
  523THF     H5 8731   3.146   4.049   2.718 -0.3523 -1.6106  1.5305
  523THF     H6 8732   2.923   4.304   2.525  1.3471  1.8436  1.9324
  523THF     H7 8733   3.024   4.161   2.496  0.4403 -2.8408  1.8148
  523THF     C8 8734   2.850   4.123   2.623 -0.2994 -0.3146 -0.4544
  523THF     C9 8735   2.925   4.028   2.722  0.1183  0.2637  0.2825
  523THF    H10 8736   2.786   4.062   2.560 -1.4618 -1.1029  1.4038
  523THF    H11 8737   2.790   4.205   2.662 -0.2341 -0.4599 -0.0436
  523THF    H12 8738   2.875   4.003   2.816  1.0991 -0.4809  0.6136
  523THF    H13 8739   2.934   3.936   2.664 -2.0312  0.1416  0.0537
  524THF     O1 8740   4.683   2.321   2.619 -0.3771  0.4358 -0.9798
  524THF     C2 8741   4.767   2.364   2.518 -0.4086 -0.7357  1.0328
  524THF     C3 8742   4.747   2.333   2.749 -0.5498 -0.8491  0.1541
  524THF     H4 8743   4.764   2.472   2.504  1.7651 -0.6796  0.7251
  524THF     H5 8744   4.756   2.326   2.416 -0.3880  1.1924  0.2850
  524THF     H6 8745   4.729   2.432   2.791 -2.3715 -0.6880 -0.8879
  524THF     H7 8746   4.718   2.252   2.815  0.9781 -0.8534  0.8389
  524THF     C8 8747   4.899   2.324   2.723  0.9245  0.6587 -0.4458
  524THF     C9 8748   4.902   2.308   2.570  0.0005  0.1690 -0.5625
  524THF    H10 8749   4.930   2.241   2.786 -0.9817  1.3445  1.5518
  524THF    H11 8750   4.941   2.416   2.765 -1.5691  0.5408  2.6730
  524THF    H12 8751   4.992   2.356   2.532 -0.1945  0.6198 -0.4645
  524THF    H13 8752   4.900   2.199   2.563 -3.1871  0.1330 -0.8299
  525THF     O1 8753   5.353   2.568   2.710 -0.5374 -0.2007 -1.3106
  525THF     C2 8754   5.414   2.642   2.818  0.6610  0.3023 -0.6600
  525THF     C3 8755   5.247   2.488   2.767  0.5547  0.2055  0.0053
  525THF     H4 8756   5.434   2.746   2.792  0.9762  0.9425  1.8306
  525THF     H5 8757   5.513   2.601   2.838  0.8738  1.4786  0.8738
  525THF     H6 8758   5.149   2.533   2.753  0.5559  0.1765 -0.0920
  525THF     H7 8759   5.261   2.384   2.737  0.4454 -0.2262  1.3668
  525THF     C8 8760   5.269   2.492   2.919  0.1410  0.2356  0.1244
  525THF     C9 8761   5.327   2.630   2.940 -0.0788  0.4120  0.2895
  525THF    H10 8762   5.336   2.408   2.937  1.0106  0.0572 -3.2915
  525THF    H11 8763   5.179   2.480   2.981 -1.1713  0.6885 -1.6272
  525THF    H12 8764   5.246   2.703   2.949  0.5037  1.3143 -1.3396
  525THF    H13 8765   5.382   2.623   3.034  0.3025 -1.3505 -0.0388
  526THF     O1 8766   2.125   2.708   2.255 -0.6536 -0.2899 -0.3899
  526THF     C2 8767   1.991   2.764   2.248 -0.4055 -0.5340 -0.2457
  526THF     C3 8768   2.206   2.816   2.201 -0.4980  0.0159  0.0037
  526THF     H4 8769   1.983   2.847   2.317  2.1477 -0.4726  0.0584
  526THF     H5 8770   1.922   2.681   2.264  0.7443 -1.2655  1.1595
  526THF     H6 8771   2.212   2.894   2.276  1.4945  0.2224 -0.2985
  526THF     H7 8772   2.311   2.790   2.183 -0.9713 -1.5338 -0.7466
  526THF     C8 8773   2.131   2.858   2.074 -0.4558 -0.4237 -0.5426
  526THF     C9 8774   1.985   2.818   2.106 -0.1934  0.6014  0.4128
  526THF    H10 8775   2.162   2.801   1.986  1.5304  0.3456 -0.3912
  526THF    H11 8776   2.138   2.964   2.052 -0.4561 -0.2317  0.3407
  526THF    H12 8777   1.912   2.900   2.103 -2.1671 -1.0662  0.9964
  526THF    H13 8778   1.959   2.741   2.034  0.1280 -1.0242  1.9645
  527THF     O1 8779   3.624   4.800   4.464 -0.1454 -0.4035  0.0330
  527THF     C2 8780   3.567   4.930   4.459 -0.5518 -0.2711  0.1355
  527THF     C3 8781   3.756   4.823   4.509  0.1470  0.7289  0.2616
  527THF     H4 8782   3.459   4.917   4.454 -0.2474 -3.4947 -0.3781
  527THF     H5 8783   3.602   4.997   4.382 -0.0079  1.9350  2.1804
  527THF     H6 8784   3.797   4.735   4.559 -1.4532 -0.0127  0.2988
  527THF     H7 8785   3.810   4.838   4.416  0.0149  0.9819  0.2259
  527THF     C8 8786   3.761   4.944   4.603  0.1060  0.2433  0.7061
  527THF     C9 8787   3.620   5.002   4.584 -0.7506  0.2359 -0.4226
  527THF    H10 8788   3.833   5.020   4.573 -1.3610  0.8239 -1.6606
  527THF    H11 8789   3.761   4.926   4.710  0.5859 -3.0493  0.2606
  527THF    H12 8790   3.554   4.974   4.667 -1.1656  0.7675 -0.5668
  527THF    H13 8791   3.617   5.111   4.584  0.1822  0.2716  0.0190
  528THF     O1 8792   2.639   3.373   4.912  0.2553  0.1904 -0.0902
  528THF     C2 8793   2.531   3.285   4.946 -0.3747 -0.5145  0.6894
  528THF     C3 8794   2.575   3.474   4.832 -0.3456 -0.2430 -0.5045
  528THF     H4 8795   2.550   3.214   5.027 -0.9016  0.8725  2.0780
  528THF     H5 8796   2.507   3.222   4.861  0.9072 -0.4872  0.2873
  528THF     H6 8797   2.638   3.561   4.817 -1.1547  0.0556 -2.4099
  528THF     H7 8798   2.578   3.437   4.729 -0.5707  1.2380 -1.0615
  528THF     C8 8799   2.433   3.493   4.885  0.4902  0.1557 -0.6206
  528THF     C9 8800   2.419   3.386   4.990 -0.1737  0.1629  0.2323
  528THF    H10 8801   2.354   3.493   4.810  0.0493 -0.3183 -0.1661
  528THF    H11 8802   2.430   3.584   4.945  0.0002  0.0520 -0.4888
  528THF    H12 8803   2.433   3.419   5.093 -1.7533  0.6969  0.2996
  528THF    H13 8804   2.326   3.330   4.979 -0.7319  1.0421  0.4324
  529THF     O1 8805   1.862   2.126   4.383  0.3750 -0.0237  0.0884
  529THF     C2 8806   1.996   2.148   4.359 -0.1269 -0.6196 -0.3254
  529THF     C3 8807   1.816   2.173   4.506 -0.1748  0.3758  0.1398
  529THF     H4 8808   2.024   2.149   4.253  1.5821  1.5506  0.0716
  529THF     H5 8809   2.063   2.081   4.413  1.6271  0.4958 -1.0057
  529THF     H6 8810   1.708   2.178   4.517 -0.2385 -1.3108  0.4609
  529THF     H7 8811   1.856   2.099   4.574 -1.0644 -1.8753 -1.6656
  529THF     C8 8812   1.888   2.306   4.502 -0.3224  0.2671  0.2253
  529THF     C9 8813   2.001   2.290   4.400 -0.3061 -0.6351 -0.0860
  529THF    H10 8814   1.922   2.340   4.600 -0.7652 -2.4893  1.4338
  529THF    H11 8815   1.815   2.379   4.469  0.6977  1.7385  1.1222
  529THF    H12 8816   1.991   2.358   4.316 -1.0715 -0.2643  0.2922
  529THF    H13 8817   2.096   2.312   4.448 -0.9158 -0.7749  1.2512
  530THF     O1 8818   5.417   2.553   5.336  0.2393  0.3064 -0.1587
  530THF     C2 8819   5.305   2.582   5.403 -1.2827  0.6961 -0.2198
  530THF     C3 8820   5.399   2.583   5.201 -0.2880 -0.6461  0.1914
  530THF     H4 8821   5.307   2.585   5.512  0.1382  1.9156 -0.2520
  530THF     H5 8822   5.223   2.512   5.387 -2.3938  1.5218  1.5410
  530THF     H6 8823   5.491   2.578   5.144 -1.1144 -0.7250 -1.1833
  530THF     H7 8824   5.337   2.504   5.158  0.3546 -0.8844 -0.3125
  530THF     C8 8825   5.339   2.720   5.214  0.1363  0.0261 -0.3053
  530THF     C9 8826   5.273   2.718   5.352  0.4429 -0.2117 -0.0623
  530THF    H10 8827   5.267   2.730   5.133 -0.0383  0.5803 -0.0871
  530THF    H11 8828   5.417   2.797   5.214 -0.6187  0.8067 -0.2582
  530THF    H12 8829   5.319   2.785   5.425 -0.3267  0.3599 -0.0836
  530THF    H13 8830   5.168   2.748   5.361  0.3335 -0.7416  0.5458
  531THF     O1 8831   1.824   0.224   5.183  0.0411 -0.1388  0.0109
  531THF     C2 8832   1.775   0.140   5.075 -0.0764 -0.0706 -0.0604
  531THF     C3 8833   1.826   0.140   5.295  0.3940  0.8156 -0.0691
  531THF     H4 8834   1.790   0.179   4.975 -0.5847 -0.6241 -0.3639
  531THF     H5 8835   1.667   0.121   5.083  0.2169 -2.9830 -1.5410
  531THF     H6 8836   1.885   0.186   5.375  1.6271 -1.3792  0.3659
  531THF     H7 8837   1.728   0.117   5.337  0.8323  1.8066  1.6223
  531THF     C8 8838   1.895   0.015   5.243 -0.3174 -0.0567  0.1633
  531THF     C9 8839   1.846   0.004   5.096 -0.6467  0.2082 -0.6906
  531THF    H10 8840   1.864  -0.071   5.302  0.6963 -2.2242 -2.2334
  531THF    H11 8841   2.004   0.026   5.240 -0.4606  1.4433 -1.7079
  531THF    H12 8842   1.933  -0.008   5.032  1.8933 -0.2044  2.5700
  531THF    H13 8843   1.772  -0.076   5.096  0.0173 -0.4667  1.7035
  532THF     O1 8844   0.791   4.402   5.411  0.2898  0.3977 -0.6630
  532THF     C2 8845   0.811   4.262   5.392  0.2280  0.0348  0.6342
  532THF     C3 8846   0.785   4.452   5.280 -0.6224  0.4562 -0.1945
  532THF     H4 8847   0.798   4.192   5.474 -1.5471  1.2197  1.4283
  532THF     H5 8848   0.910   4.242   5.352  0.1062 -0.4428  0.5685
  532THF     H6 8849   0.771   4.560   5.273  1.1879  0.9263  2.2142
  532THF     H7 8850   0.883   4.436   5.234 -0.7611 -1.3351  0.0783
  532THF     C8 8851   0.702   4.359   5.192 -0.1777 -0.4573 -0.2066
  532THF     C9 8852   0.709   4.230   5.278  0.1021 -0.7842 -0.0824
  532THF    H10 8853   0.750   4.338   5.097  1.6488 -0.0524  0.5648
  532THF    H11 8854   0.595   4.378   5.194 -0.1533 -0.2569  1.7046
  532THF    H12 8855   0.612   4.212   5.325 -0.7263 -0.3924 -1.5812
  532THF    H13 8856   0.734   4.140   5.222 -0.4574 -0.6549 -0.5401
  533THF     O1 8857   4.475   4.902   5.452 -0.4125 -0.1716  0.0440
  533THF     C2 8858   4.473   4.976   5.329  0.0325 -0.2799 -0.1058
  533THF     C3 8859   4.514   4.987   5.554  0.3056  0.4790  0.2712
  533THF     H4 8860   4.381   5.027   5.303  1.2455  1.4552 -1.2362
  533THF     H5 8861   4.504   4.907   5.250  1.0203  0.5234 -0.4461
  533THF     H6 8862   4.435   5.061   5.570 -0.2242  0.2563 -1.1439
  533THF     H7 8863   4.536   4.941   5.649 -1.4567 -1.0545 -0.0074
  533THF     C8 8864   4.630   5.067   5.489 -0.2372 -0.1437 -0.6619
  533THF     C9 8865   4.584   5.084   5.347 -0.2724 -0.5261 -0.3540
  533THF    H10 8866   4.714   4.998   5.495  1.1372  1.5303  0.5166
  533THF    H11 8867   4.663   5.156   5.542  0.9426 -0.5329 -0.7118
  533THF    H12 8868   4.555   5.189   5.335  1.2746 -0.0135  0.0640
  533THF    H13 8869   4.669   5.093   5.279  0.1292 -0.4560  0.1475
  534THF     O1 8870   4.392   4.162   4.857  0.1255  0.2968  0.2867
  534THF     C2 8871   4.496   4.173   4.949 -0.1386  0.3337 -0.2235
  534THF     C3 8872   4.392   4.274   4.766  0.2810  0.1997  0.7041
  534THF     H4 8873   4.515   4.082   5.004 -1.7002  0.7341  1.0333
  534THF     H5 8874   4.456   4.251   5.013 -1.2498  0.0310 -0.5274
  534THF     H6 8875   4.370   4.229   4.669 -0.5517  1.9393  0.0557
  534THF     H7 8876   4.333   4.358   4.804  1.2586  0.2820  2.1407
  534THF     C8 8877   4.542   4.315   4.761 -0.0804 -0.3983  0.3161
  534THF     C9 8878   4.610   4.220   4.856  0.4605 -0.0182 -0.5942
  534THF    H10 8879   4.542   4.418   4.795 -0.0688  0.0222 -0.8907
  534THF    H11 8880   4.591   4.318   4.664 -1.6910  0.9119 -0.5119
  534THF    H12 8881   4.664   4.139   4.806  1.5884  0.5676 -0.3665
  534THF    H13 8882   4.684   4.274   4.916  0.5558  0.4675 -1.1380
  535THF     O1 8883   1.143   5.287   2.369  0.1564 -0.1441 -0.0751
  535THF     C2 8884   1.016   5.345   2.365 -0.0981 -0.3893 -0.4755
  535THF     C3 8885   1.218   5.384   2.440  0.3113 -0.0110 -0.7015
  535THF     H4 8886   0.965   5.344   2.462 -1.2994 -1.3027 -1.0938
  535THF     H5 8887   0.952   5.287   2.299  0.4692 -0.0804 -1.3086
  535THF     H6 8888   1.185   5.401   2.543 -0.6687  1.9161 -1.2793
  535THF     H7 8889   1.326   5.370   2.434  0.3503  0.6140 -1.5177
  535THF     C8 8890   1.189   5.506   2.363  0.1234  0.6375  0.3358
  535THF     C9 8891   1.040   5.496   2.322 -0.4559 -0.3150 -0.0311
  535THF    H10 8892   1.247   5.507   2.271 -1.4407 -1.5407 -0.7427
  535THF    H11 8893   1.219   5.601   2.408  1.2594  0.8116 -0.7218
  535THF    H12 8894   0.981   5.568   2.379  0.2475  0.2053  0.0638
  535THF    H13 8895   1.031   5.499   2.214  0.6599 -1.5351 -0.1867
  536THF     O1 8896   2.401   3.600   0.497 -0.1940  0.2376 -0.2316
  536THF     C2 8897   2.423   3.553   0.366  0.0426  0.3474 -0.1826
  536THF     C3 8898   2.530   3.619   0.559 -0.4574  0.4906 -0.0644
  536THF     H4 8899   2.456   3.632   0.298  2.4196  1.1263  1.7292
  536THF     H5 8900   2.332   3.513   0.322 -1.7245  1.3511  2.3646
  536THF     H6 8901   2.589   3.691   0.503 -0.8510  0.2853 -0.7554
  536THF     H7 8902   2.527   3.650   0.663  0.0695 -0.0587  0.1171
  536THF     C8 8903   2.595   3.484   0.533 -0.7131 -0.3507  0.0349
  536THF     C9 8904   2.551   3.465   0.386 -0.0259  0.0503 -0.0204
  536THF    H10 8905   2.549   3.408   0.595 -0.8838  1.6234  2.5023
  536THF    H11 8906   2.704   3.487   0.537 -0.6580  2.2078 -1.1904
  536THF    H12 8907   2.637   3.492   0.325 -0.2767  0.4919 -0.1788
  536THF    H13 8908   2.537   3.362   0.351  1.4487  0.0298 -0.6551
  537THF     O1 8909   3.868   0.465   4.428 -0.3099  0.3786  0.4889
  537THF     C2 8910   3.834   0.335   4.441  0.1552 -0.4827  0.0969
  537THF     C3 8911   3.789   0.523   4.322 -0.0679 -0.3662 -0.0215
  537THF     H4 8912   3.856   0.321   4.547  0.5223  0.1998  0.1152
  537THF     H5 8913   3.898   0.272   4.379 -0.0328 -1.0112  0.4309
  537THF     H6 8914   3.735   0.607   4.365  0.3448 -0.3853  0.5503
  537THF     H7 8915   3.857   0.564   4.248 -1.1312  0.8436 -0.3671
  537THF     C8 8916   3.702   0.404   4.277  0.0676 -0.1006 -0.5816
  537THF     C9 8917   3.689   0.327   4.406 -0.5500  0.1858  0.2591
  537THF    H10 8918   3.747   0.336   4.204 -0.4411  0.9346 -1.8964
  537THF    H11 8919   3.607   0.438   4.236 -1.5243 -1.7694  1.4832
  537THF    H12 8920   3.628   0.384   4.477 -1.0549 -1.4378  1.1877
  537THF    H13 8921   3.650   0.226   4.395 -3.9575  1.2088  1.6455
  538THF     O1 8922   4.614   2.992   4.696 -0.3662  0.3551 -0.3718
  538THF     C2 8923   4.507   2.952   4.618 -0.4820  0.0790 -0.5064
  538THF     C3 8924   4.668   3.110   4.632 -0.1429  0.8225 -0.2217
  538THF     H4 8925   4.424   3.020   4.636  0.4538  1.8246 -2.4615
  538THF     H5 8926   4.481   2.848   4.641 -1.0558 -0.0752 -1.7267
  538THF     H6 8927   4.621   3.199   4.672  1.6500  1.3015  0.9209
  538THF     H7 8928   4.774   3.120   4.653  0.7331 -2.6850 -2.1621
  538THF     C8 8929   4.651   3.092   4.480  0.0530 -0.0923 -0.4607
  538THF     C9 8930   4.556   2.972   4.471  0.5391  0.5306 -0.0293
  538THF    H10 8931   4.738   3.060   4.423 -0.5113  0.2164 -1.5295
  538THF    H11 8932   4.621   3.189   4.441  1.4798  0.4615 -0.2437
  538THF    H12 8933   4.472   2.984   4.402  0.8485  1.1343 -0.3077
  538THF    H13 8934   4.610   2.880   4.452  2.8332  1.7270  0.4325
  539THF     O1 8935   5.102   1.994   0.380 -0.4156  0.1181  0.5271
  539THF     C2 8936   5.207   2.086   0.337  0.2693  0.4689 -0.1464
  539THF     C3 8937   5.127   1.956   0.513  0.2843  0.3161  0.0087
  539THF     H4 8938   5.171   2.143   0.252  0.2991  0.4721 -0.1568
  539THF     H5 8939   5.299   2.037   0.306 -0.1081 -0.2539 -0.1546
  539THF     H6 8940   5.036   1.981   0.566 -1.1477 -0.6853 -1.8629
  539THF     H7 8941   5.161   1.854   0.531 -0.7111  0.2241  1.6231
  539THF     C8 8942   5.236   2.052   0.566 -0.5742 -0.7487  0.0831
  539THF     C9 8943   5.230   2.165   0.466  0.2144 -0.1047  0.4834
  539THF    H10 8944   5.333   2.006   0.544 -0.4535  0.6533 -2.9212
  539THF    H11 8945   5.218   2.079   0.670 -1.6284  1.6638 -0.6499
  539THF    H12 8946   5.145   2.234   0.471  2.0305  2.3870 -0.7601
  539THF    H13 8947   5.319   2.227   0.455 -0.8418  1.1277 -2.2437
  540THF     O1 8948   0.858   4.541   1.524 -0.2510 -0.4187  0.1090
  540THF     C2 8949   0.879   4.446   1.419 -0.3106 -0.4591  0.6035
  540THF     C3 8950   0.840   4.460   1.645  0.6166 -0.2466 -0.0717
  540THF     H4 8951   0.912   4.493   1.326 -0.1797  0.2386  0.9937
  540THF     H5 8952   0.788   4.387   1.405 -0.3878 -0.3900  0.8000
  540THF     H6 8953   0.891   4.512   1.727 -1.0218  3.3299 -1.1092
  540THF     H7 8954   0.733   4.449   1.663  0.4603  2.6606  1.3030
  540THF     C8 8955   0.927   4.335   1.621 -0.8476 -0.2010  0.8020
  540THF     C9 8956   0.980   4.365   1.485  0.0764  1.3248 -0.4089
  540THF    H10 8957   0.858   4.251   1.613 -2.6039  1.3024 -1.2102
  540THF    H11 8958   1.001   4.312   1.697 -0.8392 -1.0629  0.5456
  540THF    H12 8959   1.075   4.417   1.487 -0.2210  1.8563  0.7093
  540THF    H13 8960   0.997   4.268   1.438  1.2653  1.2810  0.1003
  541THF     O1 8961   0.265   0.042   5.078  0.0886 -0.1506 -0.2231
  541THF     C2 8962   0.334   0.149   5.131  0.3045 -0.1979 -0.5232
  541THF     C3 8963   0.341  -0.017   4.968 -0.1968 -0.5001  0.2664
  541THF     H4 8964   0.310   0.141   5.237 -1.4573 -2.2117 -0.9860
  541THF     H5 8965   0.300   0.245   5.094  1.3265  0.5719  0.4868
  541THF     H6 8966   0.303  -0.118   4.951 -2.5791  0.7100 -2.5522
  541THF     H7 8967   0.336   0.050   4.883  1.3991  0.4882  0.9124
  541THF     C8 8968   0.478  -0.017   5.027 -0.1442  0.2023 -0.2261
  541THF     C9 8969   0.477   0.110   5.105 -0.1691  0.3753 -0.1386
  541THF    H10 8970   0.559  -0.013   4.954  1.9478 -1.0910  1.8871
  541THF    H11 8971   0.497  -0.107   5.085  1.2556  1.3210  1.1517
  541THF    H12 8972   0.533   0.089   5.196 -1.6165  0.6344  0.8526
  541THF    H13 8973   0.523   0.190   5.048 -0.3310 -0.3869 -1.3768
  542THF     O1 8974   0.144   0.009   4.394 -0.4884 -0.1270 -0.3649
  542THF     C2 8975   0.106  -0.130   4.383  0.5852  0.1414  0.5728
  542THF     C3 8976   0.033   0.081   4.442 -0.2899  0.0150 -0.0510
  542THF     H4 8977   0.139  -0.175   4.477  3.3177  3.5124  1.4277
  542THF     H5 8978   0.159  -0.189   4.308  0.8093  1.8190 -0.6617
  542THF     H6 8979   0.061   0.127   4.537  0.3888 -0.8130  0.1637
  542THF     H7 8980   0.013   0.166   4.377  0.1058 -0.3434 -0.6554
  542THF     C8 8981  -0.083  -0.019   4.455 -0.6229 -0.4983 -0.3393
  542THF     C9 8982  -0.047  -0.138   4.371 -1.0353  0.4952 -0.6797
  542THF    H10 8983  -0.184   0.020   4.444  0.0465  1.3080 -0.3454
  542THF    H11 8984  -0.095  -0.042   4.561  1.9810 -0.4266  0.0279
  542THF    H12 8985  -0.096  -0.231   4.398  0.9913 -1.1483 -2.3326
  542THF    H13 8986  -0.066  -0.122   4.265  0.6071 -0.4050 -1.1439
  543THF     O1 8987   4.573   4.822   0.811  0.3069 -0.0161  0.2437
  543THF     C2 8988   4.665   4.725   0.857 -0.1848  0.2667 -0.3142
  543THF     C3 8989   4.639   4.936   0.759  0.0192  0.8327  0.0769
  543THF     H4 8990   4.696   4.674   0.766 -1.7259  0.4946 -1.0175
  543THF     H5 8991   4.612   4.648   0.913 -1.6232 -0.9737 -3.1710
  543THF     H6 8992   4.673   4.925   0.656  1.5026  0.6574  0.5625
  543THF     H7 8993   4.580   5.028   0.755 -0.5847  0.4223 -0.9968
  543THF     C8 8994   4.751   4.953   0.862 -0.1940  0.4208 -0.7027
  543THF     C9 8995   4.766   4.815   0.919  0.6673  0.7488  0.1795
  543THF    H10 8996   4.719   5.023   0.940 -1.0550  0.8619 -1.4324
  543THF    H11 8997   4.841   4.988   0.812  0.1022 -1.1170 -1.2963
  543THF    H12 8998   4.862   4.767   0.900  0.0905  0.2464 -1.6917
  543THF    H13 8999   4.760   4.812   1.028  1.4433 -1.8220  0.2187
  544THF     O1 9000   2.153   0.963   2.127  0.0458  0.2484 -0.5818
  544THF     C2 9001   2.119   0.825   2.156 -0.3896 -0.4238  0.1392
  544THF     C3 9002   2.199   0.964   1.994  0.0354 -0.2524 -0.1895
  544THF     H4 9003   2.033   0.789   2.101 -0.1950 -1.5133  0.5149
  544THF     H5 9004   2.089   0.799   2.258 -0.2829 -0.1193  0.2513
  544THF     H6 9005   2.129   0.941   1.914 -0.4592  1.2797 -0.2385
  544THF     H7 9006   2.239   1.058   1.955 -0.9850  0.6869  0.9672
  544THF     C8 9007   2.311   0.862   1.998 -0.0917  0.2496 -0.5954
  544THF     C9 9008   2.245   0.755   2.097  0.0360  0.4961  0.2804
  544THF    H10 9009   2.411   0.901   2.016 -0.0682  0.6519 -1.5563
  544THF    H11 9010   2.323   0.827   1.895 -1.1169  1.0399 -1.0085
  544THF    H12 9011   2.217   0.659   2.053  0.7421  0.4238 -0.0373
  544THF    H13 9012   2.307   0.740   2.185 -0.3305 -0.6175  0.3592
  545THF     O1 9013   1.379   2.050   3.946 -0.0123 -0.4227 -0.4840
  545THF     C2 9014   1.492   2.120   4.006  0.2893  0.5179  0.7781
  545THF     C3 9015   1.428   1.917   3.912  0.2321 -0.8134  0.3645
  545THF     H4 9016   1.470   2.208   4.068 -0.3629  0.6446  0.3839
  545THF     H5 9017   1.547   2.159   3.920  1.1428 -2.5631 -0.2019
  545THF     H6 9018   1.342   1.850   3.902 -0.3878  0.2135 -1.7082
  545THF     H7 9019   1.486   1.921   3.820  1.1626 -2.1182  0.8634
  545THF     C8 9020   1.510   1.879   4.038  0.7730  0.2436 -0.1885
  545THF     C9 9021   1.563   2.017   4.094 -0.4310  0.4108  0.0531
  545THF    H10 9022   1.588   1.805   4.021  1.9372  1.5646 -0.7655
  545THF    H11 9023   1.448   1.838   4.119  0.4407  1.4964  0.2282
  545THF    H12 9024   1.570   2.039   4.201  0.2993 -0.5249  0.2050
  545THF    H13 9025   1.669   2.022   4.072 -0.2768  2.4929  0.9727
  546THF     O1 9026   0.221   5.333   3.568  0.0150 -0.1308  0.2438
  546THF     C2 9027   0.147   5.436   3.639  0.3779 -0.6382 -0.3804
  546THF     C3 9028   0.125   5.276   3.479 -0.4011  0.3728  0.6051
  546THF     H4 9029   0.147   5.531   3.585  0.8239 -1.7677 -2.4764
  546THF     H5 9030   0.188   5.441   3.740 -0.7787 -0.1609  0.0897
  546THF     H6 9031   0.122   5.338   3.389  0.5260  1.3457  1.2291
  546THF     H7 9032   0.153   5.177   3.442  0.5006  0.9951 -0.4318
  546THF     C8 9033  -0.008   5.274   3.550 -1.0457  0.2552  0.3410
  546THF     C9 9034  -0.002   5.394   3.645 -0.2025  0.0662 -1.0121
  546THF    H10 9035  -0.019   5.185   3.612 -2.6651 -0.1193 -0.4286
  546THF    H11 9036  -0.083   5.281   3.472 -0.8113 -1.6738 -0.1222
  546THF    H12 9037  -0.064   5.473   3.603 -1.2987  0.5767  1.4418
  546THF    H13 9038  -0.036   5.370   3.745  0.7946 -0.4772 -0.7870
  547THF     O1 9039   2.947   2.671   1.176 -0.5841  0.1436 -0.0896
  547THF     C2 9040   2.981   2.743   1.052  0.0233 -0.1774  0.7061
  547THF     C3 9041   3.015   2.738   1.279  0.0838 -0.2185 -0.1772
  547THF     H4 9042   2.885   2.778   1.014 -0.2606  2.4668  3.4824
  547THF     H5 9043   3.025   2.677   0.977  0.1697  0.0470  0.5973
  547THF     H6 9044   2.960   2.828   1.306 -0.8569 -1.2949  1.7621
  547THF     H7 9045   3.031   2.683   1.372 -2.0192 -1.1085 -0.2838
  547THF     C8 9046   3.136   2.801   1.207  0.2380  0.5271  0.4394
  547THF     C9 9047   3.077   2.854   1.081  0.0823 -0.6841  0.3557
  547THF    H10 9048   3.214   2.726   1.198  0.2753  0.5020  0.9337
  547THF    H11 9049   3.182   2.881   1.266 -0.6407  1.3227  0.0814
  547THF    H12 9050   3.032   2.952   1.095  1.4458  0.3566 -1.8544
  547THF    H13 9051   3.149   2.866   1.000 -0.6123  0.8567 -0.0710
  548THF     O1 9052   1.092   0.259   4.567 -0.4939  0.1580 -0.2354
  548THF     C2 9053   1.023   0.327   4.676  0.2841 -0.2491 -0.4579
  548THF     C3 9054   1.051   0.122   4.583  0.2283 -0.0944 -0.1283
  548THF     H4 9055   1.028   0.436   4.677  0.2471 -0.2430 -0.7775
  548THF     H5 9056   1.069   0.293   4.769  0.7450  1.8443  0.1303
  548THF     H6 9057   1.086   0.071   4.493 -0.7900 -1.2692  0.1246
  548THF     H7 9058   1.093   0.071   4.669  1.7135 -0.0040 -0.7609
  548THF     C8 9059   0.897   0.131   4.598 -0.2887 -0.3244  0.1468
  548THF     C9 9060   0.884   0.262   4.687 -0.7297 -0.2143  0.1926
  548THF    H10 9061   0.862   0.041   4.649 -2.8154  0.6988  0.3392
  548THF    H11 9062   0.840   0.133   4.506  1.9274  0.5101 -1.2926
  548THF    H12 9063   0.816   0.330   4.635  1.4421  0.5597 -1.8139
  548THF    H13 9064   0.855   0.253   4.792  1.9513 -1.8055  0.9029
  549THF     O1 9065   3.980   5.356   2.416 -0.1157  0.0839  0.0218
  549THF     C2 9066   4.068   5.244   2.391  0.2915 -0.8177 -0.2078
  549THF     C3 9067   3.929   5.349   2.554  1.1560 -0.3770  0.1881
  549THF     H4 9068   4.163   5.270   2.437 -0.1823  1.8172 -0.5712
  549THF     H5 9069   4.085   5.239   2.283 -0.2686  1.3911 -0.4426
  549THF     H6 9070   3.992   5.410   2.618  0.1873 -1.1287  1.9178
  549THF     H7 9071   3.826   5.384   2.561  1.3100  0.0953  0.1568
  549THF     C8 9072   3.951   5.202   2.594  0.4207  0.1347 -0.6582
  549THF     C9 9073   4.012   5.131   2.472  0.0961 -0.7878 -0.3476
  549THF    H10 9074   3.861   5.155   2.633  0.1937  0.8354 -0.3293
  549THF    H11 9075   4.021   5.193   2.677 -1.5169  1.9329  1.3036
  549THF    H12 9076   4.079   5.048   2.498  4.7052  2.5403 -0.4223
  549THF    H13 9077   3.934   5.076   2.419 -0.4925  0.7171 -1.0767
  550THF     O1 9078   2.918   3.959   2.341 -0.6372  0.2380  0.5850
  550THF     C2 9079   2.946   4.003   2.210 -0.4267 -0.2052 -0.5887
  550THF     C3 9080   3.006   3.848   2.360  0.4074 -0.4293  0.0669
  550THF     H4 9081   3.037   4.063   2.215 -1.8409  1.9984  0.5103
  550THF     H5 9082   2.859   4.057   2.173 -0.9474  0.2252  1.1505
  550THF     H6 9083   3.096   3.877   2.415 -0.3475 -1.0279  1.6661
  550THF     H7 9084   2.956   3.779   2.428  2.0350 -1.2560  0.4880
  550THF     C8 9085   3.029   3.788   2.223 -0.6739 -0.0948 -0.4158
  550THF     C9 9086   2.947   3.871   2.123 -0.0649 -0.5204 -0.3740
  550THF    H10 9087   3.021   3.679   2.219  2.3991 -0.6081  2.6762
  550THF    H11 9088   3.136   3.805   2.218 -0.5413 -0.6440  0.2910
  550THF    H12 9089   3.001   3.888   2.030  1.0689 -0.9533  0.1845
  550THF    H13 9090   2.844   3.839   2.111 -0.6122  1.5744 -1.8359
  551THF     O1 9091   3.383   0.509   2.807 -0.0616 -0.6360  0.2775
  551THF     C2 9092   3.264   0.490   2.868  0.3032  0.8897 -0.1234
  551THF     C3 9093   3.368   0.519   2.661 -0.4959  0.2101 -0.8546
  551THF     H4 9094   3.263   0.531   2.969  0.6640  0.7944 -0.0792
  551THF     H5 9095   3.247   0.383   2.860  0.6814  0.8062  0.1636
  551THF     H6 9096   3.433   0.600   2.627 -0.4105  1.1970  1.4871
  551THF     H7 9097   3.393   0.429   2.604 -1.1706 -0.6341  0.1599
  551THF     C8 9098   3.225   0.548   2.637 -0.3050 -0.0939 -0.1346
  551THF     C9 9099   3.175   0.571   2.776 -0.2318  0.2915  0.9885
  551THF    H10 9100   3.175   0.465   2.587  1.6586 -0.8856 -0.8875
  551THF    H11 9101   3.207   0.627   2.564  1.7981 -1.0163 -1.7540
  551THF    H12 9102   3.178   0.679   2.791  0.2837  0.2469  1.2206
  551THF    H13 9103   3.073   0.544   2.804 -1.4559  1.2138 -2.1910
  552THF     O1 9104   2.200   5.474   5.094 -0.9197  0.0128  0.1135
  552THF     C2 9105   2.255   5.391   4.995 -0.6733 -0.0306  0.5954
  552THF     C3 9106   2.277   5.585   5.107  0.3586  0.0769  0.0723
  552THF     H4 9107   2.228   5.426   4.895  2.0623  2.1273  0.4891
  552THF     H5 9108   2.219   5.288   4.999  1.0144 -0.6522  0.7225
  552THF     H6 9109   2.263   5.666   5.035 -0.3354  0.3558  0.5098
  552THF     H7 9110   2.248   5.638   5.198 -1.2899  0.1547 -0.4785
  552THF     C8 9111   2.416   5.530   5.099 -0.1611 -0.2667  0.8609
  552THF     C9 9112   2.411   5.403   5.019 -0.2796 -0.0847  0.0877
  552THF    H10 9113   2.459   5.502   5.195  0.3449  1.8033  1.3059
  552THF    H11 9114   2.484   5.601   5.052  0.2344 -1.4107 -0.3425
  552THF    H12 9115   2.454   5.416   4.920  3.3965  0.2711  1.5849
  552THF    H13 9116   2.454   5.318   5.072 -2.1116 -0.6061  0.8262
  553THF     O1 9117   4.306   2.926   2.900  0.0065 -0.1560 -0.7095
  553THF     C2 9118   4.419   2.906   2.815  0.4327  0.2938 -0.0285
  553THF     C3 9119   4.209   3.003   2.831  0.1051  0.0008  0.3621
  553THF     H4 9120   4.438   2.799   2.823 -0.4128  0.0328 -1.2163
  553THF     H5 9121   4.508   2.965   2.838 -0.8315  3.4109 -2.4503
  553THF     H6 9122   4.115   2.991   2.885 -0.0199 -1.3354 -0.1092
  553THF     H7 9123   4.233   3.109   2.833  1.1955 -0.1860 -1.0316
  553THF     C8 9124   4.221   2.956   2.688  0.2580  0.0496  0.0359
  553THF     C9 9125   4.374   2.930   2.669 -0.8522 -0.0724 -0.1619
  553THF    H10 9126   4.171   3.020   2.616 -2.1545  0.3767  1.8860
  553THF    H11 9127   4.170   2.860   2.689 -0.5177  0.4499  1.7376
  553THF    H12 9128   4.399   2.839   2.615  1.1250 -0.6152  1.5659
  553THF    H13 9129   4.426   3.016   2.627 -0.5051 -0.5663 -0.7560
  554THF     O1 9130   5.384   4.747   1.650  0.1725  0.2589  0.5992
  554THF     C2 9131   5.449   4.815   1.542  0.0738  0.3674  0.0451
  554THF     C3 9132   5.439   4.619   1.664  0.6741  0.2102 -0.1278
  554THF     H4 9133   5.425   4.921   1.536 -0.4631  0.3040  0.9193
  554THF     H5 9134   5.422   4.768   1.447 -1.2402  0.7107  0.2341
  554THF     H6 9135   5.423   4.586   1.767  2.7881 -0.8475 -0.0784
  554THF     H7 9136   5.406   4.552   1.585  3.8078  0.0787 -1.4749
  554THF     C8 9137   5.589   4.662   1.644  1.1757  0.3678  0.1804
  554THF     C9 9138   5.599   4.786   1.558 -0.6852  0.5596  0.3573
  554THF    H10 9139   5.646   4.581   1.597 -0.4285 -0.6317 -0.1037
  554THF    H11 9140   5.622   4.673   1.747  0.0152  0.9638  0.4986
  554THF    H12 9141   5.651   4.869   1.605  0.8970 -0.4003  0.3652
  554THF    H13 9142   5.630   4.775   1.454 -2.3531  1.1987 -0.2431
  555THF     O1 9143   4.834   5.014   3.227 -0.7543  0.0297 -0.0003
  555THF     C2 9144   4.726   5.082   3.164  0.3491  0.5616  0.0591
  555THF     C3 9145   4.905   4.942   3.124  1.1071 -0.1028 -0.6649
  555THF     H4 9146   4.671   5.142   3.237 -1.5900  0.4779 -1.2627
  555THF     H5 9147   4.652   5.005   3.140  0.8872 -0.4829  1.5661
  555THF     H6 9148   5.002   4.910   3.160  2.1623  1.4199 -1.9852
  555THF     H7 9149   4.838   4.870   3.078 -0.6644  1.6302 -0.9221
  555THF     C8 9150   4.914   5.042   3.010 -0.0817  0.3150 -0.2121
  555THF     C9 9151   4.785   5.128   3.029  0.3323 -0.2496  0.5116
  555THF    H10 9152   4.931   5.003   2.909  0.4926 -3.2810  1.1131
  555THF    H11 9153   5.000   5.104   3.035  1.7143 -1.7650 -0.8687
  555THF    H12 9154   4.814   5.233   3.038 -0.0761 -0.0467 -0.3930
  555THF    H13 9155   4.714   5.120   2.946 -2.5129 -0.0617  2.7567
  556THF     O1 9156   4.789   1.606   5.057  0.2256 -0.0142  0.3848
  556THF     C2 9157   4.931   1.587   5.020  0.6315  0.3945 -0.0066
  556THF     C3 9158   4.757   1.743   5.022 -0.5622 -0.4710  0.2961
  556THF     H4 9159   4.941   1.502   4.952  0.8669 -0.3217  0.9002
  556THF     H5 9160   4.983   1.539   5.104 -1.3249 -1.0624  0.4425
  556THF     H6 9161   4.711   1.744   4.924 -0.8253 -0.9548  0.4125
  556THF     H7 9162   4.680   1.780   5.091  1.1383  1.2772  1.3576
  556THF     C8 9163   4.887   1.816   5.035 -0.2952 -0.1353  0.3362
  556THF     C9 9164   4.989   1.717   4.973 -0.5247  0.2871  0.4102
  556THF    H10 9165   4.914   1.821   5.140  0.1002  0.6870  0.2091
  556THF    H11 9166   4.884   1.914   4.986 -1.3573  0.8731  2.2981
  556THF    H12 9167   4.957   1.727   4.869  0.5922  0.8603  0.1116
  556THF    H13 9168   5.096   1.733   4.987 -0.2614 -2.2237  1.7365
  557THF     O1 9169   1.203   4.206   4.897  0.0015 -0.5202 -0.0796
  557THF     C2 9170   1.092   4.114   4.881 -0.3576 -0.4636  0.0190
  557THF     C3 9171   1.217   4.235   5.030 -0.3385  0.5292 -0.7732
  557THF     H4 9172   1.122   4.010   4.870 -0.0223 -0.1999 -1.9459
  557THF     H5 9173   1.027   4.138   4.796 -2.3404 -2.2700  0.9545
  557THF     H6 9174   1.319   4.206   5.054 -0.1090 -0.3371 -2.6196
  557THF     H7 9175   1.203   4.343   5.034 -0.5191  0.4770  0.0496
  557THF     C8 9176   1.114   4.138   5.104  0.2181  0.1903  0.4007
  557THF     C9 9177   1.008   4.147   5.005  0.3513  0.6758 -0.4999
  557THF    H10 9178   1.072   4.167   5.201  0.3478  1.8096  0.0091
  557THF    H11 9179   1.162   4.042   5.119  1.6710  0.8157 -0.0706
  557THF    H12 9180   0.931   4.071   5.015  0.9656 -0.0692 -1.3046
  557THF    H13 9181   0.964   4.246   4.996  0.2222  0.4328 -3.9118
  558THF     O1 9182   3.516   3.605   4.042  0.7003  0.0116  0.5374
  558THF     C2 9183   3.396   3.610   3.966 -0.2013  0.1171  0.4462
  558THF     C3 9184   3.484   3.550   4.168 -0.7808  0.2350 -0.1070
  558THF     H4 9185   3.402   3.641   3.862 -5.1047  2.0352  0.4807
  558THF     H5 9186   3.331   3.682   4.015  0.8208  0.3809  1.4549
  558THF     H6 9187   3.571   3.506   4.218  1.3851  2.2276 -1.8927
  558THF     H7 9188   3.433   3.627   4.226 -3.6590 -0.8014 -1.1095
  558THF     C8 9189   3.389   3.430   4.127  0.9369 -0.8151 -0.0056
  558THF     C9 9190   3.332   3.479   3.989  0.5580  0.4033  0.1983
  558THF    H10 9191   3.313   3.411   4.203  0.1752 -1.2547 -0.8604
  558THF    H11 9192   3.445   3.337   4.117  2.2279 -0.0154 -0.4801
  558THF    H12 9193   3.369   3.408   3.914  1.3597  1.2668 -0.2370
  558THF    H13 9194   3.225   3.497   3.975  0.9797  3.0495 -0.1123
  559THF     O1 9195   1.001   5.454   1.121  0.2130  0.0555 -0.1457
  559THF     C2 9196   0.964   5.554   1.211 -0.4925  0.4225 -0.3276
  559THF     C3 9197   0.980   5.325   1.190  0.5405 -0.3144  0.1036
  559THF     H4 9198   0.867   5.595   1.184  0.4432  1.4848 -2.2424
  559THF     H5 9199   1.046   5.626   1.206  0.3590 -0.3020  1.9427
  559THF     H6 9200   0.873   5.304   1.195  0.1271  1.7907  3.3822
  559THF     H7 9201   1.026   5.235   1.148  0.7048 -0.1763 -0.0154
  559THF     C8 9202   1.014   5.345   1.334 -0.0609  0.0563 -1.0182
  559THF     C9 9203   0.968   5.484   1.349  0.5778 -0.4473  0.1460
  559THF    H10 9204   1.121   5.348   1.355 -0.3799  2.4958  0.6515
  559THF    H11 9205   0.970   5.278   1.408  1.8937 -0.4736 -0.2523
  559THF    H12 9206   0.867   5.485   1.390  0.5725 -2.7445  0.3090
  559THF    H13 9207   1.023   5.550   1.416 -0.7021 -0.3677  1.1595
  560THF     O1 9208   2.704   0.050   4.730  0.3687  0.3472  0.1175
  560THF     C2 9209   2.767   0.047   4.609  0.2247 -0.0659 -0.2034
  560THF     C3 9210   2.605   0.156   4.729 -0.1205 -0.3218 -0.2863
  560THF     H4 9211   2.699   0.013   4.531  0.8690  1.7608 -1.6483
  560THF     H5 9212   2.851  -0.022   4.609 -0.0719 -0.4335 -1.0362
  560THF     H6 9213   2.512   0.107   4.700 -3.2131  2.5542  3.5183
  560THF     H7 9214   2.577   0.211   4.819  0.6487 -0.7243  0.2134
  560THF     C8 9215   2.657   0.249   4.616 -0.6718 -0.0115 -0.0950
  560THF     C9 9216   2.791   0.186   4.579 -0.3021  0.4040 -0.3569
  560THF    H10 9217   2.660   0.349   4.659  0.5264 -1.0703  2.5030
  560THF    H11 9218   2.585   0.248   4.534  0.4996  1.1911 -1.1934
  560THF    H12 9219   2.816   0.199   4.473  0.5954 -1.2887 -0.3838
  560THF    H13 9220   2.876   0.221   4.638 -0.1683 -1.0943  0.3824
  561THF     O1 9221   0.118   2.830   3.093 -0.9043 -0.3196 -0.4748
  561THF     C2 9222   0.211   2.720   3.074  0.3107  1.0887  0.0905
  561THF     C3 9223   0.139   2.875   3.226  0.3047 -0.3037 -0.3793
  561THF     H4 9224   0.314   2.749   3.052 -0.0487  0.3961 -2.9645
  561THF     H5 9225   0.176   2.668   2.985  0.1684  0.2638  0.6157
  561THF     H6 9226   0.227   2.938   3.241 -0.5912  1.3829 -1.8800
  561THF     H7 9227   0.057   2.942   3.255  1.8591  1.3994  0.2764
  561THF     C8 9228   0.152   2.742   3.306  0.1984  0.0796  0.2206
  561THF     C9 9229   0.186   2.640   3.201 -0.1379 -0.3460  0.4410
  561THF    H10 9230   0.058   2.708   3.349 -2.0215  2.3837 -2.3843
  561THF    H11 9231   0.225   2.741   3.387 -1.7995  0.7714  2.1153
  561THF    H12 9232   0.275   2.582   3.227 -0.9570 -1.3131  1.1517
  561THF    H13 9233   0.106   2.567   3.190 -0.6095  0.4113 -1.7004
  562THF     O1 9234   3.436   3.315   1.852  0.2675 -0.1380  0.0175
  562THF     C2 9235   3.367   3.321   1.723 -0.2160  0.3903 -0.4802
  562THF     C3 9236   3.347   3.344   1.953 -0.6990  0.8796 -0.3646
  562THF     H4 9237   3.304   3.236   1.700  0.3682 -0.8767  2.2018
  562THF     H5 9238   3.433   3.333   1.637  2.1405  0.7115  1.2548
  562THF     H6 9239   3.305   3.245   1.970  0.8375 -0.2256 -2.5736
  562THF     H7 9240   3.399   3.390   2.037  1.3418  0.7851 -1.5051
  562THF     C8 9241   3.243   3.443   1.898  0.1063 -0.4367  0.0359
  562THF     C9 9242   3.286   3.449   1.747  0.4988  0.1339 -0.9908
  562THF    H10 9243   3.237   3.543   1.941 -2.1081 -0.2986 -0.4406
  562THF    H11 9244   3.146   3.393   1.905 -0.3778  0.6836  1.8820
  562THF    H12 9245   3.193   3.461   1.693 -0.1301  1.5813  0.3349
  562THF    H13 9246   3.355   3.533   1.739  1.9796 -0.8306  0.7734
  563THF     O1 9247   1.103   0.242   0.335 -0.4704 -0.4109 -0.0030
  563THF     C2 9248   1.014   0.197   0.239  0.1826 -0.2057 -0.0665
  563THF     C3 9249   1.220   0.290   0.271 -0.1341  0.0135  0.0585
  563THF     H4 9250   0.909   0.215   0.262  1.0276  2.3588  2.2949
  563THF     H5 9251   1.026   0.088   0.235  1.3293 -0.1397  1.0766
  563THF     H6 9252   1.267   0.353   0.347 -2.9983  0.5781  1.5144
  563THF     H7 9253   1.287   0.208   0.245  3.2973  1.8542  2.3530
  563THF     C8 9254   1.163   0.367   0.146 -0.3696 -0.5221 -0.5432
  563THF     C9 9255   1.050   0.272   0.111  0.1297  0.0245  0.8164
  563THF    H10 9256   1.227   0.393   0.062  1.1880  0.5000  0.8946
  563THF    H11 9257   1.127   0.459   0.192  0.0589 -0.5344 -0.1761
  563THF    H12 9258   0.964   0.328   0.072  0.0700  1.0342  2.3189
  563THF    H13 9259   1.084   0.205   0.032  0.1224 -1.4015  1.9652
  564THF     O1 9260   1.719   5.423   4.782  0.0389 -0.0604  0.3036
  564THF     C2 9261   1.863   5.407   4.747 -0.6690 -0.7740 -0.1046
  564THF     C3 9262   1.659   5.299   4.765 -0.0977  0.1713 -0.7375
  564THF     H4 9263   1.924   5.489   4.785 -2.4415 -0.0767  1.3724
  564THF     H5 9264   1.871   5.413   4.638  1.3761  1.7802  0.0733
  564THF     H6 9265   1.561   5.282   4.809 -0.8439  1.0473 -2.0067
  564THF     H7 9266   1.643   5.284   4.658 -0.3964 -1.2137 -0.5303
  564THF     C8 9267   1.762   5.209   4.828  0.3567  0.3707  0.3814
  564THF     C9 9268   1.896   5.273   4.797  0.1686  0.6387 -0.0922
  564THF    H10 9269   1.752   5.102   4.808  1.8782 -0.5819  3.9129
  564THF    H11 9270   1.747   5.207   4.936  0.6131  2.8870  0.5273
  564THF    H12 9271   1.966   5.271   4.880 -0.7659 -0.5438  0.6894
  564THF    H13 9272   1.944   5.217   4.717 -0.2772 -1.0237  0.7654
  565THF     O1 9273   5.131   4.259   1.296  0.2389 -0.3944  0.3698
  565THF     C2 9274   5.158   4.313   1.428  0.0432 -0.1766 -0.2162
  565THF     C3 9275   5.122   4.118   1.304 -0.2377  0.9032 -0.0698
  565THF     H4 9276   5.109   4.408   1.448 -1.2760 -0.9340  0.3152
  565THF     H5 9277   5.266   4.307   1.425  0.0410 -0.1019 -0.4526
  565THF     H6 9278   5.024   4.097   1.261  0.5439 -0.7612 -1.1451
  565THF     H7 9279   5.209   4.079   1.251  1.0700 -0.3699  2.8039
  565THF     C8 9280   5.140   4.081   1.452  0.3309  0.1728 -0.0190
  565THF     C9 9281   5.119   4.211   1.531  0.2222 -0.3879  0.0056
  565THF    H10 9282   5.226   4.022   1.486  0.3805 -1.1153 -2.2353
  565THF    H11 9283   5.058   4.014   1.478  0.3347  0.5090  0.9073
  565THF    H12 9284   5.011   4.216   1.546  0.3990  0.8324  0.9580
  565THF    H13 9285   5.177   4.237   1.620 -0.7912  4.0690 -0.4186
  566THF     O1 9286   0.694   3.177   1.015  0.1932 -0.1024  0.4000
  566THF     C2 9287   0.801   3.237   0.943 -0.0383  0.9543 -0.0891
  566THF     C3 9288   0.686   3.255   1.128 -0.1163 -0.6069  0.1220
  566THF     H4 9289   0.806   3.196   0.843 -1.1157 -1.7874  0.8866
  566THF     H5 9290   0.897   3.215   0.990 -0.7688  0.6953  1.3401
  566THF     H6 9291   0.585   3.239   1.168 -0.2646 -2.6116 -0.9647
  566THF     H7 9292   0.759   3.221   1.202 -0.7971 -0.3696  0.9260
  566THF     C8 9293   0.706   3.399   1.086 -0.1283 -0.5757  0.2387
  566THF     C9 9294   0.788   3.384   0.956 -0.0030 -0.2659  0.7155
  566THF    H10 9295   0.762   3.453   1.163 -0.7224  2.2611 -1.2063
  566THF    H11 9296   0.614   3.455   1.075  0.6654  1.2368  2.0770
  566THF    H12 9297   0.733   3.418   0.868  1.5406 -0.5092 -0.3961
  566THF    H13 9298   0.887   3.430   0.965  0.1723 -0.5450  0.2251
  567THF     O1 9299   1.365   5.481   1.240 -0.5004  0.4333 -0.4315
  567THF     C2 9300   1.409   5.361   1.307 -0.3128 -0.2000 -0.5837
  567THF     C3 9301   1.364   5.595   1.324  1.0336 -0.0344 -0.2019
  567THF     H4 9302   1.497   5.321   1.257  0.5855  1.0401 -0.0310
  567THF     H5 9303   1.328   5.288   1.308 -0.0324 -0.5382  1.6225
  567THF     H6 9304   1.459   5.648   1.326  1.0060  0.0011  0.2519
  567THF     H7 9305   1.280   5.662   1.305  0.6101 -0.2692  0.7943
  567THF     C8 9306   1.336   5.533   1.460  0.0107  0.4484 -0.0070
  567THF     C9 9307   1.437   5.414   1.446 -0.1768  0.0994  0.1287
  567THF    H10 9308   1.232   5.505   1.472  0.3360 -0.4190  1.0383
  567THF    H11 9309   1.381   5.606   1.528 -0.2499  0.8027 -0.2129
  567THF    H12 9310   1.537   5.457   1.448 -0.1465  0.1339 -1.2433
  567THF    H13 9311   1.431   5.336   1.523 -3.2685  0.8977  0.8516
  568THF     O1 9312   4.404   4.945   2.201 -0.2153  0.3967 -0.0684
  568THF     C2 9313   4.545   4.956   2.243 -0.6912  0.0042 -0.1937
  568THF     C3 9314   4.359   5.079   2.214  0.1204  0.0261 -0.2777
  568THF     H4 9315   4.595   4.863   2.218 -0.1602 -0.1471  1.3285
  568THF     H5 9316   4.538   4.954   2.351 -1.9825 -3.9737 -0.1878
  568THF     H6 9317   4.257   5.090   2.177 -0.1468  2.2150  0.9532
  568THF     H7 9318   4.348   5.096   2.321  0.7807  1.1485 -0.3795
  568THF     C8 9319   4.463   5.157   2.135 -0.3206  0.9964 -0.1040
  568THF     C9 9320   4.597   5.082   2.170 -0.1098 -0.1504  0.1926
  568THF    H10 9321   4.459   5.260   2.172 -2.2791  0.5036  1.2167
  568THF    H11 9322   4.440   5.149   2.029 -1.7279  0.6723  0.2121
  568THF    H12 9323   4.653   5.062   2.079 -0.7722 -0.1901 -0.2179
  568THF    H13 9324   4.650   5.137   2.247 -1.0383  0.7612  0.2105
  569THF     O1 9325   4.788   4.409   1.885 -0.5377 -0.3119 -0.8288
  569THF     C2 9326   4.768   4.290   1.819 -1.0304 -0.4323 -0.5305
  569THF     C3 9327   4.779   4.517   1.799  0.1794 -0.1454 -0.1790
  569THF     H4 9328   4.729   4.218   1.892  1.5976 -0.2098  1.2305
  569THF     H5 9329   4.861   4.248   1.781 -0.4298 -0.6488  1.0739
  569THF     H6 9330   4.749   4.614   1.839  0.7393  0.4271 -1.1177
  569THF     H7 9331   4.880   4.523   1.758  0.2078 -1.7175 -0.3913
  569THF     C8 9332   4.675   4.473   1.699  0.1078 -0.7934  0.1280
  569THF     C9 9333   4.670   4.326   1.709  0.5278  0.1191 -0.5247
  569THF    H10 9334   4.706   4.487   1.596  1.7662 -0.2068  0.6837
  569THF    H11 9335   4.582   4.522   1.729  0.6290 -0.0074  0.4763
  569THF    H12 9336   4.571   4.287   1.731  0.2020  0.1466 -1.8376
  569THF    H13 9337   4.706   4.279   1.617  1.0427  2.1102 -1.4060
  570THF     O1 9338   3.600   1.668   1.653  0.5838  0.5455 -0.6070
  570THF     C2 9339   3.572   1.570   1.748 -0.1262 -0.0555  0.7599
  570THF     C3 9340   3.507   1.663   1.552  0.4771  0.4880 -0.1609
  570THF     H4 9341   3.484   1.594   1.807  0.1391 -0.0432  1.1517
  570THF     H5 9342   3.663   1.553   1.807  0.5621  0.7248 -0.0435
  570THF     H6 9343   3.413   1.703   1.589 -0.4289 -1.5477 -0.1030
  570THF     H7 9344   3.539   1.717   1.463  0.0271  0.8093 -0.1326
  570THF     C8 9345   3.472   1.511   1.535  0.3611 -0.1904  0.0447
  570THF     C9 9346   3.532   1.446   1.657 -0.3530 -0.4852  0.4127
  570THF    H10 9347   3.510   1.469   1.442  1.2697  0.5763  0.0526
  570THF    H11 9348   3.365   1.491   1.539  0.4275 -0.4454  0.6057
  570THF    H12 9349   3.458   1.381   1.704 -0.8495 -1.3826 -1.4666
  570THF    H13 9350   3.614   1.377   1.637 -0.1740  0.3388 -2.1574
  571THF     O1 9351   1.682   0.182   4.155 -0.1951  0.1119  0.1584
  571THF     C2 9352   1.765   0.062   4.142 -0.0709 -0.5208 -1.0619
  571THF     C3 9353   1.733   0.265   4.264  0.0647  0.0976 -0.2599
  571THF     H4 9354   1.866   0.081   4.106 -0.2594  0.2195 -1.2066
  571THF     H5 9355   1.725  -0.003   4.064 -0.9852 -1.5305  0.2037
  571THF     H6 9356   1.822   0.316   4.225  0.0065  0.7210  0.4089
  571THF     H7 9357   1.669   0.347   4.297  0.8196 -0.1072  1.8595
  571THF     C8 9358   1.767   0.153   4.367  0.0686  0.7137 -0.0806
  571THF     C9 9359   1.764   0.024   4.294 -0.1251  0.8544  0.6757
  571THF    H10 9360   1.696   0.146   4.449 -1.1376 -2.2974 -1.2524
  571THF    H11 9361   1.864   0.181   4.408  0.7559  0.1644 -1.2891
  571THF    H12 9362   1.857  -0.024   4.325 -0.7995 -0.3723  0.8621
  571THF    H13 9363   1.682  -0.042   4.321  0.9597 -1.7828 -1.9628
  572THF     O1 9364   5.235   3.359   3.664  0.3945  0.4008  0.5330
  572THF     C2 9365   5.130   3.411   3.584  0.3472 -0.0539 -0.1122
  572THF     C3 9366   5.220   3.411   3.794 -0.2302 -0.3065 -0.5301
  572THF     H4 9367   5.054   3.338   3.558  0.7927  0.6671 -4.0304
  572THF     H5 9368   5.178   3.455   3.496  1.4483  1.3078  1.1163
  572THF     H6 9369   5.210   3.336   3.872  0.5847 -0.4007 -0.5093
  572THF     H7 9370   5.316   3.457   3.816  0.1039 -1.5728  0.7944
  572THF     C8 9371   5.093   3.495   3.797 -0.5044 -0.2787 -0.0569
  572THF     C9 9372   5.077   3.533   3.656  0.6152 -0.0302  0.7374
  572THF    H10 9373   5.100   3.582   3.862 -2.1187 -0.9946  1.1540
  572THF    H11 9374   5.008   3.436   3.832 -0.0770  0.5575  2.6349
  572THF    H12 9375   4.974   3.552   3.624  0.5698 -0.3282  0.6968
  572THF    H13 9376   5.130   3.627   3.647 -0.4424  0.8824  3.1263
  573THF     O1 9377   2.669   2.874   4.725  0.2633 -0.0952 -0.0823
  573THF     C2 9378   2.604   2.763   4.774 -0.0790 -0.3247 -0.9939
  573THF     C3 9379   2.568   2.947   4.649 -0.0413 -0.6458  0.3063
  573THF     H4 9380   2.531   2.790   4.850  0.0366 -1.1356 -0.5854
  573THF     H5 9381   2.671   2.690   4.818 -1.7380 -1.3073  0.0226
  573THF     H6 9382   2.507   3.020   4.702 -1.6086 -0.0539 -2.1388
  573THF     H7 9383   2.606   3.005   4.565  0.5658 -1.2804  0.1286
  573THF     C8 9384   2.471   2.834   4.589 -0.2864  0.2044 -0.1710
  573THF     C9 9385   2.529   2.710   4.653  0.4758  0.4093 -0.0036
  573THF    H10 9386   2.471   2.834   4.480  0.8195 -1.0075 -0.1859
  573THF    H11 9387   2.370   2.850   4.629 -0.3371  2.7017 -1.1381
  573THF    H12 9388   2.458   2.628   4.660 -0.6298  1.1451 -1.7590
  573THF    H13 9389   2.612   2.665   4.597  1.6318  1.8655  0.4727
  574THF     O1 9390   2.344   1.369   2.334  0.1236  0.0488  0.2196
  574THF     C2 9391   2.461   1.392   2.412 -0.0060 -0.1201  0.1508
  574THF     C3 9392   2.335   1.227   2.316 -0.6318  0.0428 -0.5454
  574THF     H4 9393   2.440   1.404   2.519 -0.6847 -2.1192  0.2709
  574THF     H5 9394   2.504   1.490   2.390  0.8433 -0.7944 -1.2869
  574THF     H6 9395   2.287   1.184   2.404 -0.6139 -1.5234 -1.2649
  574THF     H7 9396   2.277   1.206   2.226  0.1668 -3.2193 -0.4137
  574THF     C8 9397   2.477   1.179   2.308  0.0906 -0.3950  0.3855
  574THF     C9 9398   2.561   1.280   2.389 -0.0801  0.2893  0.1004
  574THF    H10 9399   2.494   1.181   2.201 -3.6145 -0.5023 -0.3535
  574THF    H11 9400   2.495   1.076   2.339  0.8246  0.1846  2.0102
  574THF    H12 9401   2.584   1.238   2.488 -1.3452 -1.0582 -0.1394
  574THF    H13 9402   2.653   1.316   2.344 -0.4944  2.7020  1.0687
  575THF     O1 9403   0.032   2.019   1.120 -0.1105  0.0829 -0.0670
  575THF     C2 9404  -0.064   2.102   1.054 -0.3545 -0.3073  0.4356
  575THF     C3 9405   0.034   1.900   1.044 -0.6778  0.4087 -0.2216
  575THF     H4 9406  -0.059   2.207   1.080 -0.0219  0.0778 -1.1305
  575THF     H5 9407  -0.164   2.062   1.073 -0.1047 -2.9938 -2.9320
  575THF     H6 9408   0.126   1.845   1.065  1.0264  2.2379 -2.3703
  575THF     H7 9409  -0.054   1.844   1.076 -1.2627  1.8613  0.8159
  575THF     C8 9410   0.011   1.938   0.892  0.0778 -0.3430 -0.1384
  575THF     C9 9411  -0.035   2.081   0.904 -0.5326  0.3016 -0.1007
  575THF    H10 9412  -0.064   1.871   0.851 -0.4684 -0.3265  0.8078
  575THF    H11 9413   0.097   1.940   0.825 -0.0349  1.1129 -0.2591
  575THF    H12 9414   0.051   2.143   0.880  0.7469 -0.5571  1.9947
  575THF    H13 9415  -0.126   2.101   0.846 -0.0194 -0.1213 -1.0859
  576THF     O1 9416   1.416   4.199   1.702 -0.4427 -0.5464 -0.3531
  576THF     C2 9417   1.521   4.099   1.691  0.2084 -0.0401 -0.9557
  576THF     C3 9418   1.377   4.237   1.838  0.1107  0.7342  0.5781
  576THF     H4 9419   1.564   4.120   1.593  0.9993  0.4424 -0.5198
  576THF     H5 9420   1.498   3.993   1.693  0.0189 -0.0522  2.4973
  576THF     H6 9421   1.358   4.345   1.844  0.7855  0.7905  2.0213
  576THF     H7 9422   1.288   4.180   1.866  1.9849 -1.9375  1.4656
  576THF     C8 9423   1.497   4.188   1.922 -0.1136  0.3286  0.5237
  576THF     C9 9424   1.604   4.131   1.819  0.8067 -0.0013  0.8311
  576THF    H10 9425   1.451   4.117   1.990 -0.2824  1.0094  1.1305
  576THF    H11 9426   1.549   4.263   1.983  2.7009 -0.7371 -0.3925
  576THF    H12 9427   1.669   4.211   1.784 -0.8632  1.4971  0.9593
  576THF    H13 9428   1.658   4.043   1.853  0.3427 -0.5455  0.1832
  577THF     O1 9429   0.587   0.365   3.123  0.3168  0.2545 -0.4454
  577THF     C2 9430   0.667   0.353   3.009  0.2155  0.0512 -0.2105
  577THF     C3 9431   0.561   0.500   3.150 -0.5436  0.1164 -0.4611
  577THF     H4 9432   0.598   0.366   2.926 -1.4892 -1.2401  0.9343
  577THF     H5 9433   0.721   0.259   2.998 -0.2107 -0.5390  2.2639
  577THF     H6 9434   0.470   0.529   3.097 -0.8835 -1.9548 -1.1079
  577THF     H7 9435   0.560   0.508   3.258  3.6700 -2.6195  0.0136
  577THF     C8 9436   0.688   0.572   3.110 -0.0281  0.4028 -0.5774
  577THF     C9 9437   0.762   0.473   3.020  0.2643  0.1102  0.5651
  577THF    H10 9438   0.748   0.616   3.190  1.6496 -1.1948 -0.8815
  577THF    H11 9439   0.668   0.659   3.048  2.1960  0.8668 -0.7201
  577THF    H12 9440   0.780   0.512   2.919  1.3849 -3.0112 -0.5655
  577THF    H13 9441   0.853   0.435   3.066 -0.4587 -0.7089  1.3657
  578THF     O1 9442   2.546   2.465   3.787 -0.0161 -0.7214 -0.2138
  578THF     C2 9443   2.639   2.366   3.815 -0.1887  0.7499 -0.4057
  578THF     C3 9444   2.528   2.548   3.905 -1.2006  0.0631 -0.0421
  578THF     H4 9445   2.739   2.404   3.838 -0.3515 -0.0616  1.8946
  578THF     H5 9446   2.660   2.284   3.746  1.9041  0.6467  0.2948
  578THF     H6 9447   2.627   2.594   3.913 -0.5465 -1.0393 -1.3487
  578THF     H7 9448   2.456   2.629   3.901 -1.5908 -0.2114  1.0097
  578THF     C8 9449   2.515   2.437   4.008 -0.2155  0.4582 -0.3081
  578THF     C9 9450   2.592   2.317   3.949 -0.1872 -0.1175  0.3193
  578THF    H10 9451   2.414   2.402   4.030  0.7082 -1.4747  1.1716
  578THF    H11 9452   2.565   2.467   4.100 -0.2082 -0.2318 -0.0833
  578THF    H12 9453   2.682   2.302   4.008 -0.8678  1.5071  1.8874
  578THF    H13 9454   2.539   2.223   3.934  2.9802 -1.7837 -1.5238
  579THF     O1 9455   4.844   0.268   0.296  0.2041  0.0005  0.1762
  579THF     C2 9456   4.723   0.222   0.233  1.0190  0.4292  0.3764
  579THF     C3 9457   4.813   0.383   0.373 -0.0014  0.1626 -0.6000
  579THF     H4 9458   4.725   0.116   0.209 -0.9424  0.4313  0.0297
  579THF     H5 9459   4.732   0.278   0.139  3.0806 -0.2263  0.1567
  579THF     H6 9460   4.835   0.369   0.479  0.3698  0.6092 -0.6123
  579THF     H7 9461   4.876   0.467   0.342  0.5341 -0.0058  0.0002
  579THF     C8 9462   4.657   0.406   0.375  0.0460 -0.1625  0.3663
  579THF     C9 9463   4.605   0.268   0.328 -0.1581 -0.7014  0.0611
  579THF    H10 9464   4.631   0.482   0.302 -1.5764 -1.1479 -0.1310
  579THF    H11 9465   4.622   0.427   0.476 -0.3894 -0.1394  0.2143
  579THF    H12 9466   4.585   0.196   0.407 -0.5638 -2.1103 -1.2842
  579THF    H13 9467   4.515   0.287   0.271  1.0618  1.5936 -1.2705
  580THF     O1 9468   2.375   5.424   1.725  0.3941  0.1510  0.1761
  580THF     C2 9469   2.461   5.525   1.780  0.1286  0.3676 -0.1121
  580THF     C3 9470   2.243   5.478   1.756 -0.5802 -0.5585 -0.4657
  580THF     H4 9471   2.562   5.504   1.745  0.8475 -0.1153  2.1268
  580THF     H5 9472   2.463   5.528   1.889 -0.7315 -0.2125 -0.0715
  580THF     H6 9473   2.169   5.426   1.695 -0.6760  0.2969 -1.0843
  580THF     H7 9474   2.225   5.466   1.863 -2.3289  0.9875 -0.5335
  580THF     C8 9475   2.255   5.629   1.726 -0.0052  0.6304 -0.3513
  580THF     C9 9476   2.405   5.645   1.712  0.0146 -1.1128  0.7847
  580THF    H10 9477   2.206   5.689   1.803  0.5373  1.2042 -0.4462
  580THF    H11 9478   2.199   5.655   1.636  0.4188  1.2345 -0.4504
  580THF    H12 9479   2.425   5.657   1.606 -0.3439  2.7074  0.9845
  580THF    H13 9480   2.427   5.740   1.761  1.8836 -1.3422  0.4392
  581THF     O1 9481   1.731   2.498   2.824  0.2264  0.4982 -0.0142
  581THF     C2 9482   1.673   2.630   2.808  0.2780  0.0203  0.3336
  581THF     C3 9483   1.845   2.492   2.737  0.0213 -0.0168  0.0466
  581THF     H4 9484   1.597   2.652   2.883  1.2213  1.9584  0.7889
  581THF     H5 9485   1.615   2.642   2.716  0.1034  0.8852  0.5453
  581THF     H6 9486   1.922   2.415   2.750 -0.6300 -0.7242 -0.1902
  581THF     H7 9487   1.823   2.478   2.632  1.8263 -1.7750 -0.1694
  581THF     C8 9488   1.905   2.630   2.758 -0.2073  0.2396 -0.5794
  581THF     C9 9489   1.791   2.711   2.805  0.0963 -1.2997  0.1853
  581THF    H10 9490   1.969   2.677   2.683  0.2923  0.2766 -0.1372
  581THF    H11 9491   1.980   2.625   2.837 -0.2557 -0.2258 -0.5613
  581THF    H12 9492   1.810   2.754   2.903  1.5681 -0.5125 -0.4222
  581THF    H13 9493   1.775   2.785   2.726 -0.1895 -1.2924  0.2471
  582THF     O1 9494   5.189   4.390   0.790 -0.7494 -0.7083 -0.1492
  582THF     C2 9495   5.060   4.395   0.734 -0.3555  0.7187  0.0414
  582THF     C3 9496   5.183   4.442   0.926  0.5518 -0.3816  0.1456
  582THF     H4 9497   5.010   4.303   0.764  0.3874 -0.1238 -1.1663
  582THF     H5 9498   5.049   4.407   0.626  0.4292  1.9629  0.0855
  582THF     H6 9499   5.151   4.365   0.996  2.6085 -1.0563  0.4038
  582THF     H7 9500   5.285   4.465   0.954  1.2471  0.6030 -2.8160
  582THF     C8 9501   5.085   4.552   0.923 -0.9206 -0.4948  0.2457
  582THF     C9 9502   5.004   4.520   0.797  0.4750  0.2915 -0.0044
  582THF    H10 9503   5.142   4.643   0.905 -3.0262  1.2073  1.6007
  582THF    H11 9504   5.027   4.554   1.015 -1.0523 -3.8595  0.3514
  582THF    H12 9505   4.896   4.511   0.809  0.5062 -0.4855 -0.2520
  582THF    H13 9506   5.019   4.601   0.726  2.3751 -0.4620 -0.5245
  583THF     O1 9507   0.968   0.615   1.748  0.0509 -0.3872 -0.1337
  583THF     C2 9508   1.051   0.695   1.662 -0.3102  0.3816 -0.8684
  583THF     C3 9509   0.873   0.702   1.808 -0.2522  0.2117 -0.0696
  583THF     H4 9510   1.002   0.707   1.565  0.5624 -0.0709 -1.3758
  583THF     H5 9511   1.151   0.655   1.647 -0.7842 -2.2776  2.0632
  583THF     H6 9512   0.805   0.732   1.728  0.6859 -2.3671 -1.9890
  583THF     H7 9513   0.810   0.635   1.867  0.0054 -0.6969 -0.7939
  583THF     C8 9514   0.952   0.818   1.856 -0.2374 -0.3895 -0.4209
  583THF     C9 9515   1.060   0.822   1.755 -0.4894  0.7328  0.3420
  583THF    H10 9516   0.985   0.805   1.959  0.3415  0.1812 -0.5306
  583THF    H11 9517   0.886   0.906   1.856  2.4155  1.7494  1.2902
  583THF    H12 9518   1.039   0.907   1.691  0.7498  1.1156  0.4192
  583THF    H13 9519   1.160   0.842   1.795  0.9164 -1.2469 -1.8720
  584THF     O1 9520   1.644   3.941   4.944 -0.1456 -0.1803  0.3229
  584THF     C2 9521   1.515   3.987   4.953  0.6236 -0.0945  0.6200
  584THF     C3 9522   1.644   3.806   5.001 -0.4776 -0.5495 -0.1519
  584THF     H4 9523   1.502   4.062   4.875  1.7853  1.6391  2.0159
  584THF     H5 9524   1.500   4.039   5.048 -1.9778 -1.2707  0.9324
  584THF     H6 9525   1.726   3.743   4.965  1.1658  1.4354 -0.0442
  584THF     H7 9526   1.653   3.826   5.108 -0.4590  0.2538 -0.2990
  584THF     C8 9527   1.507   3.751   4.970 -0.0978 -0.1761  0.9744
  584THF     C9 9528   1.417   3.867   4.941 -0.8124 -0.2378  0.2383
  584THF    H10 9529   1.475   3.690   5.054  0.4500 -0.0295  1.2947
  584THF    H11 9530   1.513   3.675   4.893 -1.2031  1.2094 -0.5610
  584THF    H12 9531   1.396   3.849   4.836 -0.6194  2.9816 -0.4440
  584THF    H13 9532   1.325   3.863   4.999 -0.9501  2.1755  0.2535
  585THF     O1 9533   0.851   4.464   0.772  0.6122 -0.7439 -0.0909
  585THF     C2 9534   0.803   4.392   0.662 -0.0708  0.0522 -0.0636
  585THF     C3 9535   0.911   4.580   0.722  0.8459 -0.0512  0.1465
  585THF     H4 9536   0.729   4.316   0.690 -2.1278  2.2687  0.8784
  585THF     H5 9537   0.888   4.349   0.609  2.0261  0.4628  2.7071
  585THF     H6 9538   0.920   4.649   0.806 -3.3297  0.0596  0.6671
  585THF     H7 9539   1.015   4.574   0.690  0.5598  2.8483 -1.7078
  585THF     C8 9540   0.814   4.621   0.607 -0.1051  0.4881  0.0672
  585THF     C9 9541   0.730   4.500   0.585  0.0833  0.3915  0.2549
  585THF    H10 9542   0.879   4.636   0.521  0.4675 -0.8392  0.2273
  585THF    H11 9543   0.757   4.711   0.630  0.8270  0.6609  1.8114
  585THF    H12 9544   0.634   4.531   0.626  0.3766  0.3859  0.9498
  585THF    H13 9545   0.721   4.475   0.479 -0.4291  2.1672 -0.1573
  586THF     O1 9546   2.562   3.546   2.559  0.1162  0.4475 -0.1674
  586THF     C2 9547   2.590   3.679   2.551  0.0800 -0.3906  0.0039
  586THF     C3 9548   2.529   3.508   2.691  0.0454  0.3702  0.2315
  586THF     H4 9549   2.505   3.745   2.533 -0.1193 -0.8748 -0.9203
  586THF     H5 9550   2.653   3.706   2.467  0.0662  0.4256  0.2489
  586THF     H6 9551   2.422   3.512   2.710 -0.2441 -0.4332 -1.1077
  586THF     H7 9552   2.561   3.405   2.707 -0.5617  0.2220  0.5153
  586THF     C8 9553   2.618   3.604   2.777  0.5960  0.6311 -0.5118
  586THF     C9 9554   2.660   3.712   2.680  0.0547 -0.5274 -0.8173
  586THF    H10 9555   2.706   3.553   2.817  0.4283  1.9052  1.6053
  586THF    H11 9556   2.584   3.642   2.873  3.7889  0.3390  0.8910
  586THF    H12 9557   2.628   3.810   2.715  2.4485 -0.5955  1.9074
  586THF    H13 9558   2.767   3.717   2.664  0.0421  1.6225 -0.5589
  587THF     O1 9559   4.421   4.316   0.902  1.3961 -0.0673  0.5598
  587THF     C2 9560   4.471   4.201   0.832 -0.4397 -0.4027  0.3879
  587THF     C3 9561   4.359   4.407   0.811 -0.4289 -0.8989 -0.5158
  587THF     H4 9562   4.484   4.112   0.893  0.8242 -1.0657 -0.7753
  587THF     H5 9563   4.568   4.231   0.790 -1.0476 -1.1160 -1.6716
  587THF     H6 9564   4.271   4.455   0.854  0.7162  1.1459 -0.3442
  587THF     H7 9565   4.437   4.477   0.782 -0.8675 -1.1107 -2.3414
  587THF     C8 9566   4.306   4.317   0.701 -0.2904  0.5026 -0.3821
  587THF     C9 9567   4.359   4.178   0.733 -0.5765  0.0954  0.0613
  587THF    H10 9568   4.335   4.349   0.601  1.3092  0.9009  0.1808
  587THF    H11 9569   4.199   4.300   0.719  0.2456 -1.0329  1.7484
  587THF    H12 9570   4.283   4.118   0.783 -1.8075  2.5684  1.3120
  587THF    H13 9571   4.398   4.127   0.645 -1.8630 -1.8259  0.5469
  588THF     O1 9572   1.506   1.659   0.650  0.2052 -0.2987 -0.4878
  588THF     C2 9573   1.590   1.776   0.650  0.7255 -0.3166  0.2984
  588THF     C3 9574   1.406   1.675   0.757 -0.1737 -0.1348  0.7426
  588THF     H4 9575   1.545   1.841   0.574  1.8890  0.0402 -0.1073
  588THF     H5 9576   1.691   1.760   0.611  1.6460  1.8101  1.6064
  588THF     H6 9577   1.332   1.750   0.728 -1.3946 -0.4149  2.9186
  588THF     H7 9578   1.361   1.585   0.798  0.5080  0.2275  2.3562
  588THF     C8 9579   1.493   1.744   0.866 -0.0921 -0.1387 -0.2985
  588THF     C9 9580   1.609   1.811   0.801 -0.3733 -0.4570  0.5605
  588THF    H10 9581   1.525   1.667   0.937  1.4774 -1.3664 -2.2183
  588THF    H11 9582   1.433   1.815   0.923  0.7599  0.9147 -0.6909
  588THF    H12 9583   1.605   1.917   0.825  0.2299  0.8115 -3.8829
  588THF    H13 9584   1.707   1.772   0.828 -0.7285 -0.5143  1.7934
  589THF     O1 9585   0.072   1.547   2.962  0.5064 -0.1333 -0.0220
  589THF     C2 9586   0.009   1.660   3.022  0.8213  0.1197  0.2424
  589THF     C3 9587  -0.018   1.436   2.949  0.6856 -0.2167  0.0449
  589THF     H4 9588   0.007   1.752   2.964 -0.6775 -0.2298 -0.2900
  589THF     H5 9589   0.060   1.682   3.116 -0.4929  0.6573  0.8561
  589THF     H6 9590  -0.058   1.416   2.849  1.5706 -0.6681 -0.2310
  589THF     H7 9591   0.039   1.346   2.972 -2.8086 -3.5456 -2.8905
  589THF     C8 9592  -0.133   1.468   3.041  0.5221  0.8311 -0.3615
  589THF     C9 9593  -0.138   1.617   3.049 -0.6536 -0.3232  0.4136
  589THF    H10 9594  -0.107   1.432   3.140  0.6069 -0.4827 -0.8438
  589THF    H11 9595  -0.224   1.424   3.001  1.1222  1.2255 -2.2719
  589THF    H12 9596  -0.203   1.660   2.973 -0.3564 -0.1189  0.2778
  589THF    H13 9597  -0.170   1.664   3.142  0.8055 -2.8097  2.3096
  590THF     O1 9598   1.977   3.570   4.349 -0.7212  0.0868 -0.0035
  590THF     C2 9599   1.859   3.519   4.386  0.6720 -0.0864 -0.0682
  590THF     C3 9600   2.006   3.517   4.221  0.1135 -0.3304  0.5932
  590THF     H4 9601   1.771   3.556   4.334 -0.6461 -1.7155  0.9204
  590THF     H5 9602   1.834   3.537   4.491 -1.8156 -1.4534 -0.3443
  590THF     H6 9603   1.944   3.567   4.147  0.8993  1.2478  0.9645
  590THF     H7 9604   2.111   3.520   4.192  0.7155 -0.2443  2.6362
  590THF     C8 9605   1.968   3.374   4.227 -0.2673 -0.3224 -0.4936
  590THF     C9 9606   1.876   3.374   4.352 -0.0915  0.3432 -0.6542
  590THF    H10 9607   2.052   3.305   4.239 -0.4772 -0.5755 -0.4676
  590THF    H11 9608   1.910   3.347   4.139  0.8986 -0.5322 -1.2178
  590THF    H12 9609   1.776   3.336   4.333  0.0958  0.2159 -1.4538
  590THF    H13 9610   1.907   3.317   4.439  0.4845  0.1507 -0.9765
  591THF     O1 9611   2.996   3.957   4.342 -0.3343  0.0744  0.0695
  591THF     C2 9612   3.019   3.999   4.207  0.2808 -0.4559  0.1152
  591THF     C3 9613   2.889   3.872   4.344 -0.0374  0.8941 -0.3985
  591THF     H4 9614   3.121   4.027   4.182  1.9728 -2.1083  4.2083
  591THF     H5 9615   2.946   4.078   4.192  1.4041  0.5265 -0.2609
  591THF     H6 9616   2.881   3.825   4.442  0.1804 -1.7827 -1.5689
  591THF     H7 9617   2.793   3.913   4.312 -0.8664 -1.4956 -1.1725
  591THF     C8 9618   2.943   3.772   4.242  0.2887 -0.2335  0.1847
  591THF     C9 9619   2.993   3.866   4.129  0.2286  0.7076 -0.0188
  591THF    H10 9620   2.872   3.704   4.195  1.6259 -0.8549 -1.0358
  591THF    H11 9621   3.028   3.714   4.278  0.0317 -0.8357 -0.1598
  591THF    H12 9622   3.083   3.830   4.080 -0.4799 -0.7386 -0.3002
  591THF    H13 9623   2.921   3.890   4.050 -0.0541 -0.1329 -0.0213
  592THF     O1 9624   4.131   0.228   2.851 -0.5645 -0.2377  0.2100
  592THF     C2 9625   4.206   0.294   2.952 -0.0546  0.3632 -0.2318
  592THF     C3 9626   4.155   0.086   2.864 -0.3925  0.5154  0.0563
  592THF     H4 9627   4.162   0.284   3.052  1.5263  1.8870  0.6807
  592THF     H5 9628   4.207   0.400   2.926 -0.8141 -0.4568 -4.3037
  592THF     H6 9629   4.085   0.037   2.932  0.1987  0.2891  0.5052
  592THF     H7 9630   4.148   0.039   2.766  2.0623  2.0268 -0.9487
  592THF     C8 9631   4.297   0.076   2.920 -0.3537 -0.0641 -0.4646
  592THF     C9 9632   4.340   0.223   2.937  0.5028  0.4604 -0.2348
  592THF    H10 9633   4.371   0.019   2.864  1.5241  2.4265 -0.6740
  592THF    H11 9634   4.288   0.030   3.019  1.1192  0.3418 -0.1230
  592THF    H12 9635   4.418   0.233   3.012 -1.0044 -2.5407  1.9355
  592THF    H13 9636   4.392   0.256   2.847  1.1243 -0.9573 -0.4301
  593THF     O1 9637   0.732   1.116   1.451 -0.1241 -0.0781 -0.6325
  593THF     C2 9638   0.857   1.152   1.508 -0.0368 -0.5014 -0.8014
  593THF     C3 9639   0.760   0.998   1.383 -0.2059 -0.1019  0.3687
  593THF     H4 9640   0.877   1.106   1.605  1.6952  0.9535 -0.4033
  593THF     H5 9641   0.856   1.256   1.541 -2.2390 -1.0947  1.2940
  593THF     H6 9642   0.771   0.921   1.460 -1.8402 -0.8564 -0.1198
  593THF     H7 9643   0.685   0.956   1.317  0.3548 -1.6030  0.6283
  593THF     C8 9644   0.896   1.022   1.313  0.0525  0.0558 -0.3064
  593THF     C9 9645   0.966   1.114   1.402  0.8637 -1.2390 -0.7622
  593THF    H10 9646   0.881   1.063   1.213 -0.1561  3.6337  1.0143
  593THF    H11 9647   0.937   0.922   1.304  1.5603  0.7251 -1.3033
  593THF    H12 9648   1.040   1.055   1.455 -0.3758 -0.7834  1.6435
  593THF    H13 9649   0.995   1.205   1.349 -0.7926  0.8064  1.6117
  594THF     O1 9650   0.023   3.007   0.651 -0.4227  0.0156  0.1966
  594THF     C2 9651   0.118   2.897   0.655  0.3852 -0.1350 -0.5127
  594THF     C3 9652   0.076   3.103   0.557  0.5051  0.3235  0.4491
  594THF     H4 9653   0.069   2.808   0.694  1.5051 -0.3056  0.5957
  594THF     H5 9654   0.201   2.922   0.722 -0.2616  0.2684  0.1476
  594THF     H6 9655  -0.004   3.155   0.505  2.0752  1.0723 -1.3312
  594THF     H7 9656   0.146   3.167   0.610  2.1363 -1.4158  0.5043
  594THF     C8 9657   0.159   3.012   0.459  0.1971  0.2182 -0.2502
  594THF     C9 9658   0.165   2.877   0.517  0.5502  0.2490 -0.4987
  594THF    H10 9659   0.262   3.045   0.447  0.0372  0.9779  0.3688
  594THF    H11 9660   0.115   3.020   0.359  0.9070 -0.0597 -0.5931
  594THF    H12 9661   0.100   2.815   0.455 -1.1368  0.9809  0.4526
  594THF    H13 9662   0.266   2.838   0.507  1.8165  3.6203 -2.6913
  595THF     O1 9663   1.064   2.934   0.142  0.0597 -0.5532  0.5431
  595THF     C2 9664   0.997   3.058   0.152 -0.2118  0.5791  0.3928
  595THF     C3 9665   1.118   2.894   0.266  0.6151  0.7654  0.7918
  595THF     H4 9666   0.894   3.045   0.187 -0.6187  2.0318 -0.1561
  595THF     H5 9667   0.990   3.119   0.061  0.7259  1.3889  0.8462
  595THF     H6 9668   1.047   2.852   0.337 -2.3541  2.3644 -1.0109
  595THF     H7 9669   1.188   2.812   0.250 -0.7751 -0.6747  1.7665
  595THF     C8 9670   1.176   3.024   0.311 -0.4414 -0.1008 -0.0803
  595THF     C9 9671   1.084   3.133   0.256  0.1154  0.1370 -0.0197
  595THF    H10 9672   1.274   3.047   0.269 -0.1184  0.3724  0.8899
  595THF    H11 9673   1.196   3.026   0.418  0.9275  0.4380 -0.3185
  595THF    H12 9674   1.006   3.168   0.324  0.6456  0.2590  0.5334
  595THF    H13 9675   1.144   3.216   0.219 -1.0770  0.8761 -0.3707
  596THF     O1 9676   4.987   2.315   0.212 -0.3312  0.0674  0.0529
  596THF     C2 9677   4.970   2.412   0.317 -0.8414  0.0723  0.1476
  596THF     C3 9678   5.036   2.383   0.098  0.3584  0.8310  0.5550
  596THF     H4 9679   5.070   2.449   0.344  0.2963 -2.8772  0.3582
  596THF     H5 9680   4.924   2.374   0.408 -0.0187 -1.7307 -0.1422
  596THF     H6 9681   5.143   2.403   0.110  1.0652 -2.5740  0.8098
  596THF     H7 9682   5.026   2.325   0.007 -0.0170  1.9019 -0.1111
  596THF     C8 9683   4.950   2.512   0.091  0.4767 -0.3362 -0.1340
  596THF     C9 9684   4.899   2.526   0.239  0.0191 -0.2554  0.1797
  596THF    H10 9685   4.865   2.494   0.024  0.5817 -0.0294 -0.3524
  596THF    H11 9686   5.011   2.598   0.062 -0.5993  0.7235  0.6429
  596THF    H12 9687   4.929   2.621   0.283  1.0061 -0.1203 -0.7441
  596THF    H13 9688   4.791   2.512   0.245 -0.4767  2.9792  0.1634
  597THF     O1 9689   0.026   1.654   1.568 -0.2790  0.3096 -0.1250
  597THF     C2 9690   0.149   1.668   1.500  0.4486 -0.4562 -0.0616
  597THF     C3 9691  -0.027   1.780   1.596  0.7057  0.5148  0.1720
  597THF     H4 9692   0.156   1.588   1.426 -1.5940  1.1606 -2.1839
  597THF     H5 9693   0.238   1.677   1.562 -0.5467  0.0555  1.3461
  597THF     H6 9694  -0.126   1.755   1.558  1.5210 -1.5160 -0.7889
  597THF     H7 9695  -0.021   1.798   1.704  2.4681  0.4424  0.1150
  597THF     C8 9696   0.039   1.889   1.510  0.9213  0.2468 -0.2721
  597THF     C9 9697   0.120   1.799   1.417  0.1176  0.2374 -0.6215
  597THF    H10 9698   0.111   1.948   1.566 -1.4867  2.1035  1.0574
  597THF    H11 9699  -0.018   1.967   1.460  0.2220  0.9404  1.5436
  597THF    H12 9700   0.060   1.768   1.331 -0.6211 -0.6683  0.2003
  597THF    H13 9701   0.199   1.858   1.369 -0.9796  1.1815 -1.3264
  598THF     O1 9702   0.971   1.659   0.456 -0.3775 -0.2316  0.0486
  598THF     C2 9703   1.097   1.609   0.415 -0.1575  0.0340  0.5797
  598THF     C3 9704   0.926   1.569   0.547  0.2452  0.5992 -0.7868
  598THF     H4 9705   1.161   1.692   0.386  0.1795 -0.8520 -1.3827
  598THF     H5 9706   1.087   1.546   0.327  0.9838  0.1590  0.3429
  598THF     H6 9707   0.842   1.596   0.612  0.2823 -4.3992  1.8397
  598THF     H7 9708   0.883   1.485   0.493 -2.7426  2.2786 -1.2427
  598THF     C8 9709   1.043   1.525   0.630  0.2998  0.2762  0.4651
  598THF     C9 9710   1.161   1.528   0.529  0.1824 -0.1584 -0.1326
  598THF    H10 9711   1.033   1.426   0.674 -0.6107 -0.2743 -0.9079
  598THF    H11 9712   1.066   1.591   0.713  1.1854  2.6979 -1.5762
  598THF    H12 9713   1.250   1.573   0.573  0.3981 -0.0115 -0.7162
  598THF    H13 9714   1.195   1.427   0.508  0.0568 -0.2430  0.0661
  599THF     O1 9715   4.157   1.582   1.549 -0.6214  0.5494  0.6295
  599THF     C2 9716   4.077   1.550   1.670 -0.2321 -0.7173  0.7998
  599THF     C3 9717   4.087   1.670   1.462 -0.5733  0.0473  0.0660
  599THF     H4 9718   4.063   1.634   1.738  1.2846 -0.2246  0.5542
  599THF     H5 9719   4.109   1.464   1.728 -1.3640 -2.2517 -0.7299
  599THF     H6 9720   4.113   1.771   1.494 -0.5395 -0.4138  1.5723
  599THF     H7 9721   4.110   1.654   1.356  0.5490  0.5990  0.2050
  599THF     C8 9722   3.942   1.640   1.497 -0.3402 -0.1125  0.2676
  599THF     C9 9723   3.939   1.528   1.604 -0.1762 -0.7327  0.1196
  599THF    H10 9724   3.899   1.590   1.409  0.9589 -0.5898 -0.1313
  599THF    H11 9725   3.873   1.722   1.513 -2.7398 -2.0241  0.2916
  599THF    H12 9726   3.857   1.539   1.674  0.3490  0.5248  0.5813
  599THF    H13 9727   3.944   1.432   1.553 -0.2650 -0.2350 -0.8491
  600THF     O1 9728   5.061   2.385   4.468  0.3589  0.1431  0.5234
  600THF     C2 9729   5.090   2.263   4.401 -0.6723  0.2565 -0.0898
  600THF     C3 9730   5.186   2.435   4.506 -0.1501 -0.0564  0.1557
  600THF     H4 9731   5.134   2.293   4.306  1.9544  1.8345  1.5162
  600THF     H5 9732   5.000   2.205   4.382 -0.7988  0.5591 -0.4290
  600THF     H6 9733   5.221   2.478   4.412 -1.5194 -0.4283 -0.5534
  600THF     H7 9734   5.177   2.511   4.584 -3.4933  0.5297 -0.6489
  600THF     C8 9735   5.267   2.314   4.565  0.2703 -0.3737  0.0641
  600THF     C9 9736   5.200   2.188   4.488  0.0222 -0.0463  0.2021
  600THF    H10 9737   5.249   2.289   4.670 -0.2630 -1.3643 -0.2481
  600THF    H11 9738   5.375   2.327   4.556  0.1377  1.1021  0.3757
  600THF    H12 9739   5.265   2.137   4.416 -1.4378  0.5619 -1.6293
  600THF    H13 9740   5.173   2.110   4.559  3.3802  0.4509  2.2695
  601THF     O1 9741   5.224   3.683   5.394  0.1320  0.0094  0.0137
  601THF     C2 9742   5.257   3.823   5.394  0.0411 -0.5490 -0.0145
  601THF     C3 9743   5.195   3.647   5.523 -0.4787  0.7679  0.1185
  601THF     H4 9744   5.244   3.882   5.304  1.1090  1.2550  0.9504
  601THF     H5 9745   5.365   3.834   5.404 -0.0287 -0.9160  1.2355
  601THF     H6 9746   5.154   3.546   5.516  2.1260 -0.3572 -0.1822
  601THF     H7 9747   5.291   3.631   5.572 -0.8280 -0.3736  0.4680
  601THF     C8 9748   5.119   3.759   5.584 -0.3730 -0.1168  0.5183
  601THF     C9 9749   5.170   3.883   5.507 -0.0774  0.5253  0.1220
  601THF    H10 9750   5.132   3.768   5.691  0.3180 -1.1103  0.5311
  601THF    H11 9751   5.011   3.756   5.568 -0.0600 -0.4873 -2.0316
  601THF    H12 9752   5.090   3.947   5.471 -0.1188  1.6028  1.9822
  601THF    H13 9753   5.227   3.944   5.577 -1.3727  0.2554  1.4701
  602THF     O1 9754   3.039   4.863   2.226  0.6884 -0.8710 -0.0576
  602THF     C2 9755   3.013   4.756   2.137 -0.5036  0.6369  0.0705
  602THF     C3 9756   3.054   4.980   2.148  0.1748 -0.0096 -0.5652
  602THF     H4 9757   2.916   4.757   2.089 -0.8181  0.6422  0.6993
  602THF     H5 9758   3.036   4.657   2.178 -1.7262  1.2838  2.4835
  602THF     H6 9759   2.959   5.029   2.127 -0.2973  0.1304  1.7112
  602THF     H7 9760   3.112   5.059   2.196 -0.7287 -0.9898  2.3783
  602THF     C8 9761   3.123   4.932   2.021 -0.3638 -0.4795  0.1798
  602THF     C9 9762   3.113   4.782   2.027 -0.6506 -0.2457  0.5287
  602THF    H10 9763   3.226   4.961   2.042 -0.1103 -0.3339 -1.2228
  602THF    H11 9764   3.068   4.987   1.945  0.0410 -0.5364 -0.1591
  602THF    H12 9765   3.077   4.742   1.932  1.8250  1.9081 -1.4604
  602THF    H13 9766   3.204   4.727   2.046 -0.4663 -0.0232  0.2966
  603THF     O1 9767   3.310   3.207   4.882 -0.4040 -0.1367  0.2455
  603THF     C2 9768   3.441   3.261   4.882 -0.2691 -0.6172 -0.0574
  603THF     C3 9769   3.220   3.319   4.862 -0.1289 -0.0602  0.0869
  603THF     H4 9770   3.506   3.195   4.825 -0.3450  0.2709 -1.2269
  603THF     H5 9771   3.472   3.276   4.985 -0.7615 -1.4861  0.2210
  603THF     H6 9772   3.127   3.272   4.828 -0.3535  0.6916 -0.3614
  603THF     H7 9773   3.203   3.370   4.957 -0.2339  0.4696 -0.2133
  603THF     C8 9774   3.285   3.404   4.763 -0.9900  0.2004 -1.2120
  603THF     C9 9775   3.435   3.405   4.814  0.0395  0.6683 -0.1072
  603THF    H10 9776   3.251   3.507   4.772  1.2656  0.8938  0.0141
  603THF    H11 9777   3.265   3.371   4.661 -2.1671 -1.0053 -0.6294
  603THF    H12 9778   3.516   3.422   4.744  0.9978 -1.9003  0.2919
  603THF    H13 9779   3.441   3.494   4.878 -0.4117  0.0659  0.8032
  604THF     O1 9780   2.505   3.405   5.415  0.3236 -0.1734 -0.8685
  604THF     C2 9781   2.630   3.452   5.380  0.1718  0.5326 -0.0691
  604THF     C3 9782   2.454   3.497   5.510  0.4302 -0.7730  0.0076
  604THF     H4 9783   2.665   3.409   5.286  1.0693  0.8541  0.1087
  604THF     H5 9784   2.704   3.416   5.451 -0.9097 -0.5359  0.5499
  604THF     H6 9785   2.345   3.491   5.520  0.1621 -2.5586 -2.7828
  604THF     H7 9786   2.499   3.467   5.605 -0.0156 -1.1620  0.1035
  604THF     C8 9787   2.504   3.639   5.476 -0.0714  0.5277  0.5264
  604THF     C9 9788   2.625   3.605   5.388 -0.1873 -0.1420 -0.1985
  604THF    H10 9789   2.517   3.706   5.561  1.5359 -1.0953  1.6259
  604THF    H11 9790   2.425   3.675   5.410 -0.2194 -1.4170 -0.4399
  604THF    H12 9791   2.631   3.659   5.293  0.7620  0.4123  0.1599
  604THF    H13 9792   2.717   3.635   5.437  0.1931 -0.6654 -0.5710
  605THF     O1 9793   0.049   3.449   0.853  0.4054 -0.1018  0.2941
  605THF     C2 9794   0.073   3.513   0.978  0.3849 -0.1131  0.5277
  605THF     C3 9795  -0.031   3.337   0.869 -0.7488  0.1441  0.3788
  605THF     H4 9796   0.114   3.613   0.965  4.1341 -1.3481  1.4841
  605THF     H5 9797   0.156   3.460   1.025  0.6636 -0.3741 -0.2324
  605THF     H6 9798  -0.089   3.325   0.778  1.9008  0.3011 -1.4575
  605THF     H7 9799   0.035   3.251   0.883  0.9146  1.6376  2.3295
  605THF     C8 9800  -0.117   3.371   0.993  0.0934  0.3745 -0.4209
  605THF     C9 9801  -0.056   3.500   1.044 -0.0376 -0.1114 -0.4583
  605THF    H10 9802  -0.120   3.298   1.074 -0.8610 -1.6358 -2.1909
  605THF    H11 9803  -0.217   3.397   0.959  0.2602  3.3743  1.0355
  605THF    H12 9804  -0.117   3.581   1.004 -0.3003  0.0831  0.3193
  605THF    H13 9805  -0.047   3.508   1.152 -1.1871 -1.5425 -0.2265
  606THF     O1 9806   2.715   3.409   2.091 -0.2706 -0.1237  0.2735
  606THF     C2 9807   2.630   3.408   2.203 -0.4692  0.0299  0.5796
  606THF     C3 9808   2.819   3.321   2.129 -0.9353  1.5696  0.0838
  606THF     H4 9809   2.554   3.335   2.174  0.8966 -0.4554 -2.0189
  606THF     H5 9810   2.579   3.503   2.219 -0.3757  0.6026 -2.0862
  606THF     H6 9811   2.827   3.244   2.053  1.0256  2.7465 -0.9831
  606THF     H7 9812   2.916   3.370   2.128  0.8205 -1.2699  4.2915
  606THF     C8 9813   2.800   3.263   2.271  0.5559 -1.0511  0.3440
  606THF     C9 9814   2.705   3.370   2.327 -0.8153  0.7660  0.0855
  606THF    H10 9815   2.893   3.253   2.326  0.2954 -0.7151  0.8538
  606THF    H11 9816   2.756   3.164   2.278  1.9839 -1.5958  2.8387
  606THF    H12 9817   2.651   3.340   2.417  0.6647  2.8890  1.7813
  606THF    H13 9818   2.756   3.462   2.356 -0.2904  0.8986 -1.1956
  607THF     O1 9819   2.771   1.099   1.953  0.0292  0.5038  0.1104
  607THF     C2 9820   2.793   1.050   2.081 -1.2273  0.2550  0.4495
  607THF     C3 9821   2.678   1.005   1.886 -0.2158 -0.2060  0.8476
  607THF     H4 9822   2.708   1.079   2.142  0.5519  1.0946  2.6661
  607THF     H5 9823   2.880   1.107   2.116  2.3561 -3.5178 -1.3797
  607THF     H6 9824   2.578   1.003   1.929 -0.0462  0.2722  1.2712
  607THF     H7 9825   2.687   1.030   1.780  1.1096  4.1142  1.7801
  607THF     C8 9826   2.739   0.863   1.921  0.5473  0.4711  0.5173
  607THF     C9 9827   2.804   0.891   2.057 -0.7405 -0.7508  0.0285
  607THF    H10 9828   2.811   0.837   1.843 -0.2863  0.7157 -0.3642
  607THF    H11 9829   2.654   0.797   1.937  1.2085 -0.4933  0.1476
  607THF    H12 9830   2.758   0.845   2.144  0.7154 -0.4956  0.9854
  607THF    H13 9831   2.912   0.872   2.049 -0.5502  0.1805  0.2924
  608THF     O1 9832   3.103   4.511   1.073 -0.2221  0.2152 -0.0252
  608THF     C2 9833   3.129   4.511   0.934  0.0612  0.2661  0.2840
  608THF     C3 9834   3.122   4.642   1.123 -0.3184  0.4282 -0.0963
  608THF     H4 9835   3.070   4.431   0.887  1.0627  0.6820 -1.8133
  608THF     H5 9836   3.235   4.497   0.913  0.7675  2.8857  1.7484
  608THF     H6 9837   3.028   4.661   1.175  0.0149 -0.5649  0.9042
  608THF     H7 9838   3.208   4.647   1.189 -1.1266  1.6708  0.9154
  608THF     C8 9839   3.152   4.728   1.010 -0.0062  0.5227  0.2928
  608THF     C9 9840   3.093   4.653   0.889 -0.4521 -0.5797 -0.3390
  608THF    H10 9841   3.255   4.745   0.981 -0.1378  2.5382  0.8348
  608THF    H11 9842   3.116   4.830   1.028 -2.1839  0.1591 -1.4790
  608THF    H12 9843   2.985   4.671   0.890 -0.1015  1.9387 -0.0728
  608THF    H13 9844   3.134   4.692   0.796  0.4262  0.8259  0.5911
  609THF     O1 9845   0.483   4.136   0.379 -0.6628  0.4946 -0.5617
  609THF     C2 9846   0.439   4.182   0.258  0.5514 -0.0829 -0.2192
  609THF     C3 9847   0.620   4.171   0.398  0.3979  0.3362 -0.5115
  609THF     H4 9848   0.336   4.217   0.245 -0.0995 -1.4284  1.0487
  609THF     H5 9849   0.460   4.107   0.182 -2.0472 -0.3206 -0.7860
  609THF     H6 9850   0.610   4.245   0.477 -0.7130 -1.3502  1.0115
  609THF     H7 9851   0.687   4.097   0.442 -0.8907  0.3096  1.5159
  609THF     C8 9852   0.664   4.242   0.264 -0.3949 -0.0357 -1.1779
  609THF     C9 9853   0.536   4.294   0.223  0.6176 -0.3236  0.4012
  609THF    H10 9854   0.691   4.172   0.185 -1.5579 -2.3575  0.3467
  609THF    H11 9855   0.742   4.314   0.289  0.1028 -0.7642 -0.5438
  609THF    H12 9856   0.508   4.384   0.277 -0.9513 -0.0068 -0.8740
  609THF    H13 9857   0.537   4.310   0.115 -1.3631  1.1644  0.5416
  610THF     O1 9858   2.844   1.078   3.144 -0.6568 -0.3436 -0.0353
  610THF     C2 9859   2.828   0.988   3.253  1.0832  0.2147  0.1512
  610THF     C3 9860   2.983   1.074   3.118 -0.0851 -0.1653  0.2099
  610THF     H4 9861   2.737   0.927   3.249  0.1689  1.5859 -1.1847
  610THF     H5 9862   2.828   1.039   3.349 -0.2163  2.2788 -0.8820
  610THF     H6 9863   3.003   1.127   3.025  2.7953 -2.6367 -0.7219
  610THF     H7 9864   3.048   1.123   3.191 -0.5814  1.5555 -0.4594
  610THF     C8 9865   3.012   0.931   3.122 -0.3332 -0.2993 -0.0529
  610THF     C9 9866   2.945   0.888   3.249  0.4366  0.2131  0.1452
  610THF    H10 9867   3.119   0.911   3.126 -0.0151  1.4235  2.3598
  610THF    H11 9868   2.970   0.893   3.029 -0.4530  1.7239 -0.8711
  610THF    H12 9869   2.908   0.785   3.245  3.7128 -1.0616  0.1688
  610THF    H13 9870   3.011   0.905   3.334  1.6277  1.2661 -0.9523
  611THF     O1 9871   5.338   4.281   5.234  0.2328 -0.0858 -0.2062
  611THF     C2 9872   5.207   4.312   5.268  0.5361 -0.0823  0.0075
  611THF     C3 9873   5.412   4.397   5.242 -1.7794 -0.2755 -0.0324
  611THF     H4 9874   5.152   4.222   5.295  1.4211 -0.1125  1.8658
  611THF     H5 9875   5.161   4.359   5.180 -0.7993  0.3399  0.9064
  611THF     H6 9876   5.515   4.364   5.231 -1.7131 -0.3086  0.7045
  611THF     H7 9877   5.384   4.450   5.150 -1.3649  0.8370  0.4668
  611THF     C8 9878   5.361   4.463   5.368 -0.2524 -0.3942 -0.3262
  611THF     C9 9879   5.225   4.404   5.388 -0.3938  0.7229 -0.2013
  611THF    H10 9880   5.354   4.571   5.367  0.8867 -0.2889  0.7213
  611THF    H11 9881   5.434   4.435   5.445 -0.8285  1.0732  0.7892
  611THF    H12 9882   5.234   4.354   5.484 -1.2853  1.1797  0.1375
  611THF    H13 9883   5.152   4.484   5.398  0.1055  0.9625  2.0911
  612THF     O1 9884   0.425   1.855   2.828 -0.2850  0.5108  0.2054
  612THF     C2 9885   0.546   1.899   2.766 -0.2451 -0.1345  0.2772
  612THF     C3 9886   0.362   1.952   2.903 -0.0710 -0.2182 -0.3791
  612THF     H4 9887   0.568   1.860   2.667 -0.2885  1.2232 -0.2869
  612THF     H5 9888   0.620   1.857   2.834 -2.8943  0.1527  3.6726
  612THF     H6 9889   0.263   1.980   2.866  0.0418 -1.1701 -1.4322
  612THF     H7 9890   0.349   1.919   3.006 -0.3286 -0.7018 -0.5656
  612THF     C8 9891   0.470   2.063   2.905  0.6731 -0.1606 -0.9560
  612THF     C9 9892   0.548   2.049   2.783 -0.5233 -0.5985  0.1506
  612THF    H10 9893   0.538   2.046   2.988  1.0015  2.4947 -0.5776
  612THF    H11 9894   0.424   2.162   2.909  2.9281  0.9244  0.8888
  612THF    H12 9895   0.498   2.101   2.702  0.1077  3.3507  2.0258
  612THF    H13 9896   0.651   2.084   2.793 -0.6278 -0.1510 -0.2622
  613THF     O1 9897   4.290   4.441   3.565  0.5642  0.3200  0.4549
  613THF     C2 9898   4.218   4.341   3.483 -0.0309  0.4470 -0.3339
  613THF     C3 9899   4.280   4.568   3.497 -0.2989  0.0712  0.3777
  613THF     H4 9900   4.134   4.300   3.540  0.6944 -0.0268  0.4219
  613THF     H5 9901   4.290   4.261   3.468  2.2897  2.2744  0.5649
  613THF     H6 9902   4.239   4.642   3.565 -2.1256 -1.0028  0.5172
  613THF     H7 9903   4.378   4.593   3.456 -0.6629  1.0210  0.0607
  613THF     C8 9904   4.175   4.549   3.387  0.2430 -1.1197  0.7245
  613THF     C9 9905   4.180   4.402   3.352 -0.7567  0.8612  0.1893
  613THF    H10 9906   4.195   4.599   3.292  0.2895 -2.5239 -0.0271
  613THF    H11 9907   4.079   4.574   3.432  0.6675 -0.6649  1.3936
  613THF    H12 9908   4.092   4.365   3.300  0.4061 -0.9387 -0.6046
  613THF    H13 9909   4.256   4.390   3.274 -2.0792 -1.4386 -0.8509
  614THF     O1 9910   0.053   4.753   2.315 -0.6709 -0.2701  0.3860
  614THF     C2 9911   0.151   4.805   2.218  1.4416  0.3548 -0.1693
  614THF     C3 9912   0.060   4.612   2.323 -0.3885  0.2354  0.5710
  614THF     H4 9913   0.192   4.901   2.248 -2.5378  2.2505 -0.1556
  614THF     H5 9914   0.094   4.816   2.126 -0.5293 -0.7591  0.8660
  614THF     H6 9915   0.107   4.584   2.417  2.0371  0.2310 -0.5842
  614THF     H7 9916  -0.036   4.567   2.295  0.5265 -1.8008  0.5707
  614THF     C8 9917   0.166   4.572   2.211  0.5530  0.1626 -0.3736
  614THF     C9 9918   0.245   4.697   2.191 -0.3768 -0.1048 -0.7002
  614THF    H10 9919   0.113   4.556   2.117 -1.4836 -0.7621  0.8547
  614THF    H11 9920   0.216   4.476   2.217 -3.0931 -1.8330  2.1401
  614THF    H12 9921   0.322   4.692   2.268 -2.8987  0.8574  2.1022
  614THF    H13 9922   0.291   4.696   2.092 -1.3020 -2.9710 -1.2138
  615THF     O1 9923   2.136   2.245   2.034 -0.1967  0.4284  0.0281
  615THF     C2 9924   2.190   2.377   2.029 -0.1477  0.4565 -0.4586
  615THF     C3 9925   2.143   2.190   1.903  0.1034 -0.1878  0.4070
  615THF     H4 9926   2.228   2.419   2.122 -0.0664  1.0113 -0.7428
  615THF     H5 9927   2.129   2.454   1.982  0.0999  0.3008 -1.0416
  615THF     H6 9928   2.147   2.083   1.922 -1.4144 -0.1896  0.8454
  615THF     H7 9929   2.045   2.215   1.864 -0.2253 -2.7701 -0.6010
  615THF     C8 9930   2.273   2.245   1.845 -0.3706 -1.0985 -0.3389
  615THF     C9 9931   2.313   2.352   1.941 -0.0991 -0.4571 -0.1508
  615THF    H10 9932   2.262   2.285   1.745  1.3917  2.1024  0.6054
  615THF    H11 9933   2.339   2.158   1.849  0.5598 -0.3685  1.6289
  615THF    H12 9934   2.385   2.299   2.003 -0.4214  0.5521  1.1404
  615THF    H13 9935   2.352   2.444   1.896  2.3432 -2.1989 -1.8326
  616THF     O1 9936   3.490   1.599   4.849  0.0452  0.1036  0.4668
  616THF     C2 9937   3.551   1.541   4.966  0.1948 -0.0202  0.7567
  616THF     C3 9938   3.405   1.699   4.891  0.5075 -0.5118 -0.0997
  616THF     H4 9939   3.617   1.607   5.022  2.6361 -2.2819  0.6898
  616THF     H5 9940   3.600   1.444   4.957 -0.8253 -0.9846  4.0743
  616THF     H6 9941   3.455   1.789   4.926 -0.6109  0.5709 -1.1585
  616THF     H7 9942   3.336   1.727   4.810  0.2130  1.6401  0.8421
  616THF     C8 9943   3.329   1.643   5.010  0.6065  0.1843 -0.1238
  616THF     C9 9944   3.423   1.528   5.050  0.0725 -0.5851 -0.3599
  616THF    H10 9945   3.235   1.599   4.980  0.5065  0.8776 -0.8737
  616THF    H11 9946   3.313   1.710   5.094 -1.9972  1.8628 -1.8276
  616THF    H12 9947   3.445   1.517   5.156 -1.3199 -1.4353 -0.1393
  616THF    H13 9948   3.381   1.433   5.019 -0.2298 -0.8323  0.7565
  617THF     O1 9949   3.561   5.299   0.651 -0.0198  0.0370  0.0317
  617THF     C2 9950   3.433   5.342   0.599  0.0046  0.3082  0.4527
  617THF     C3 9951   3.606   5.186   0.581  0.7623  0.6963 -0.2263
  617THF     H4 9952   3.412   5.449   0.599 -0.2513  0.3640  3.4533
  617THF     H5 9953   3.368   5.294   0.673 -2.0014  0.4125 -1.1532
  617THF     H6 9954   3.698   5.219   0.533  1.1562  0.1507  0.1506
  617THF     H7 9955   3.630   5.110   0.655 -0.7861  1.7371  1.4387
  617THF     C8 9956   3.489   5.148   0.484 -0.4735 -0.5911 -0.4495
  617THF     C9 9957   3.406   5.275   0.469 -0.5435  0.2504  0.3388
  617THF    H10 9958   3.431   5.066   0.524  0.8577 -2.5713 -2.3656
  617THF    H11 9959   3.518   5.106   0.388 -0.7690 -1.6940 -0.0658
  617THF    H12 9960   3.438   5.327   0.379  0.1395 -0.3424  0.2321
  617THF    H13 9961   3.299   5.258   0.458 -0.1528 -1.0202 -2.3444
  618THF     O1 9962   3.683   5.437   2.815 -0.0294 -0.0451  0.2537
  618THF     C2 9963   3.542   5.438   2.838  0.8023 -0.5719  0.2449
  618THF     C3 9964   3.738   5.568   2.835 -0.2039 -0.0065 -0.4771
  618THF     H4 9965   3.504   5.338   2.862 -0.2284 -0.4373 -0.7511
  618THF     H5 9966   3.485   5.469   2.751 -1.6059 -0.0795  1.9020
  618THF     H6 9967   3.823   5.557   2.902  3.0569  0.8173 -4.1406
  618THF     H7 9968   3.773   5.606   2.740  2.2321  0.0269  0.3781
  618THF     C8 9969   3.622   5.649   2.892  0.4905  0.1470 -0.1043
  618THF     C9 9970   3.516   5.549   2.942  0.3335 -0.4292 -0.3237
  618THF    H10 9971   3.589   5.722   2.818  2.5952  2.1001  0.7565
  618THF    H11 9972   3.666   5.710   2.971 -1.4922  2.6888 -0.8138
  618THF    H12 9973   3.556   5.518   3.038  1.2788  0.1575 -0.5078
  618THF    H13 9974   3.412   5.582   2.941 -0.3072 -2.2735  0.5276
  619THF     O1 9975   2.711   5.021   0.788 -0.7437 -0.8850 -0.1924
  619THF     C2 9976   2.638   5.050   0.904 -0.6445 -1.0101  0.4042
  619THF     C3 9977   2.820   4.928   0.820  0.7883 -0.4541  0.2473
  619THF     H4 9978   2.533   5.060   0.875 -0.3849  2.2627  0.1612
  619THF     H5 9979   2.675   5.140   0.953 -0.9027 -0.4395 -0.4265
  619THF     H6 9980   2.845   4.890   0.722 -2.5995 -3.0015  0.1934
  619THF     H7 9981   2.905   4.980   0.865  0.0233  0.4901  0.6591
  619THF     C8 9982   2.740   4.839   0.917  0.9789 -0.2185 -0.1754
  619THF     C9 9983   2.666   4.936   1.002 -0.0587 -0.3244 -0.2399
  619THF    H10 9984   2.818   4.786   0.971 -2.8635 -2.9893  3.2170
  619THF    H11 9985   2.678   4.774   0.855  0.4731  0.9208 -0.9086
  619THF    H12 9986   2.574   4.899   1.048  0.3489 -0.5509  0.4068
  619THF    H13 9987   2.731   4.981   1.078 -1.1064  1.8195 -0.5134
  620THF     O1 9988   3.489   4.979   2.926 -0.0179 -0.1186 -0.2282
  620THF     C2 9989   3.501   4.882   3.033  0.7042  0.2530  0.3978
  620THF     C3 9990   3.612   4.978   2.852 -0.4120 -0.0902 -0.2518
  620THF     H4 9991   3.400   4.853   3.062  1.4165 -1.8489  0.9084
  620THF     H5 9992   3.553   4.929   3.116  1.7067  2.2495 -1.2666
  620THF     H6 9993   3.603   5.036   2.761 -0.0088  3.0626  1.5861
  620THF     H7 9994   3.697   5.026   2.899 -1.8000  1.2085  1.0360
  620THF     C8 9995   3.633   4.829   2.829 -0.1292  0.3311  0.0063
  620THF     C9 9996   3.589   4.767   2.971 -0.1645  0.7369 -0.4745
  620THF    H10 9997   3.729   4.787   2.801 -0.4691 -0.2803 -0.2645
  620THF    H11 9998   3.559   4.800   2.754 -1.1556  0.5197  0.9180
  620THF    H12 9999   3.538   4.673   2.950  0.2457  0.1403  1.0641
  620THF    H1310000   3.689   4.754   3.011  0.4716  2.9659 -1.2188
  621THF     O110001   4.005   4.808   2.147 -0.1378 -0.7288 -0.0715
  621THF     C210002   3.996   4.771   2.010 -0.7289 -0.0222  0.3679
  621THF     C310003   3.951   4.696   2.225  0.0496 -0.3742 -0.1719
  621THF     H410004   4.075   4.702   1.979 -1.0966 -0.9432  1.4319
  621THF     H510005   3.999   4.860   1.948  3.0965  0.0970  0.4353
  621THF     H610006   4.030   4.623   2.241 -0.3518 -0.9020 -0.5806
  621THF     H710007   3.904   4.730   2.318  1.0093 -0.3075  0.3031
  621THF     C810008   3.846   4.639   2.128  0.7141  0.6937 -1.2412
  621THF     C910009   3.879   4.678   1.995  0.5638  0.6179  0.0944
  621THF    H1010010   3.749   4.678   2.159  0.8851  3.0557 -3.3231
  621THF    H1110011   3.841   4.531   2.139 -3.5422  0.8797  0.8147
  621THF    H1210012   3.900   4.593   1.930 -1.9012  1.0124 -1.3454
  621THF    H1310013   3.792   4.732   1.958 -1.4201 -1.9576  0.7473
  622THF     O110014   3.392   3.850   1.853  0.0205  0.1084 -0.2381
  622THF     C210015   3.419   3.828   1.987  0.3668  0.0523 -0.2832
  622THF     C310016   3.384   3.984   1.824  0.4977  0.1740  0.0360
  622THF     H410017   3.525   3.830   2.013  0.1357 -0.4022  0.7636
  622THF     H510018   3.381   3.732   2.022 -1.5765  1.8789  3.1341
  622THF     H610019   3.484   4.025   1.830  0.6627 -0.4134  2.0159
  622THF     H710020   3.336   4.009   1.729 -0.5526 -0.1886  0.4512
  622THF     C810021   3.297   4.031   1.947 -0.2723 -0.6718  0.0251
  622THF     C910022   3.357   3.949   2.053 -0.0553  0.3524 -0.1685
  622THF    H1010023   3.191   4.010   1.932 -0.3095 -0.4374 -0.0398
  622THF    H1110024   3.306   4.138   1.961  1.4775 -0.3499 -2.6805
  622THF    H1210025   3.431   4.011   2.102 -0.6648  1.2733 -0.3800
  622THF    H1310026   3.276   3.932   2.124  0.1675  1.9970  0.5365
  623THF     O110027   3.387   3.799   1.064 -0.6897  0.0790 -0.5678
  623THF     C210028   3.507   3.829   1.145  0.9973  0.0341 -0.1722
  623THF     C310029   3.397   3.673   1.009 -0.3578  0.1434  0.0699
  623THF     H410030   3.477   3.866   1.243  0.1621  1.0415 -0.7912
  623THF     H510031   3.576   3.902   1.103  1.1798  0.5294  0.9577
  623THF     H610032   3.325   3.613   1.064 -0.6591  0.5827  0.1523
  623THF     H710033   3.372   3.682   0.903  0.3795  0.6206 -0.0765
  623THF     C810034   3.538   3.616   1.037  0.2244 -0.2646 -0.0129
  623THF     C910035   3.567   3.690   1.171  0.5763  0.3757  0.1220
  623THF    H1010036   3.615   3.622   0.960  0.9965 -1.0284  0.6766
  623THF    H1110037   3.537   3.509   1.061  0.0152 -0.1957  0.2807
  623THF    H1210038   3.514   3.641   1.252 -0.3370  1.1340  0.0030
  623THF    H1310039   3.674   3.681   1.190  0.6293 -1.3856 -0.7654
  624THF     O110040   1.149   0.723   4.691 -0.2011  0.3759  0.1145
  624THF     C210041   1.133   0.706   4.833 -0.1900 -0.0393 -0.2752
  624THF     C310042   1.155   0.867   4.680 -1.2782 -0.0550  0.7199
  624THF     H410043   1.228   0.695   4.886 -0.0525  0.6404 -0.3695
  624THF     H510044   1.075   0.616   4.853 -1.9927  1.3054  0.9168
  624THF     H610045   1.257   0.895   4.707 -1.2762  0.3300  0.3254
  624THF     H710046   1.123   0.902   4.582  0.1255 -1.2673 -0.1954
  624THF     C810047   1.055   0.923   4.775 -0.5989  0.5938 -0.5601
  624THF     C910048   1.056   0.821   4.890 -0.1632 -0.7072  0.0632
  624THF    H1010049   0.955   0.931   4.732 -0.8019 -0.2268 -0.2476
  624THF    H1110050   1.092   1.018   4.813  0.7630  0.5829 -1.7757
  624THF    H1210051   1.100   0.855   4.984 -2.0625  2.9917 -0.2057
  624THF    H1310052   0.958   0.788   4.925 -0.3819  0.1879  0.3306
  625THF     O110053   4.873   1.531   4.028 -0.1519 -0.2774 -0.4834
  625THF     C210054   4.827   1.622   3.928 -0.5413 -0.6537  0.7380
  625THF     C310055   4.980   1.444   3.983  0.4894  0.3750 -0.2157
  625THF     H410056   4.864   1.724   3.938  0.1117 -0.7118 -0.7492
  625THF     H510057   4.718   1.621   3.929 -0.5941 -0.3180 -1.3656
  625THF     H610058   5.083   1.477   3.995  1.0284 -1.2619 -0.0952
  625THF     H710059   4.975   1.343   4.024 -2.0387  0.3080 -0.5004
  625THF     C810060   4.961   1.447   3.838 -0.7915  0.3818  0.0923
  625THF     C910061   4.890   1.572   3.796  0.2050 -0.1839 -0.4094
  625THF    H1010062   4.899   1.359   3.818  0.7367 -0.3931 -1.5464
  625THF    H1110063   5.054   1.426   3.786 -1.3446 -1.7912 -0.1318
  625THF    H1210064   4.962   1.637   3.747  2.2571 -1.1199  1.2313
  625THF    H1310065   4.814   1.552   3.721 -0.1784  1.0745 -0.3897
  626THF     O110066   3.242   0.739   3.842 -0.2353 -0.0939  0.1448
  626THF     C210067   3.136   0.787   3.763  0.5333 -0.5530  0.3521
  626THF     C310068   3.370   0.779   3.795 -0.0881  0.1258 -0.3681
  626THF     H410069   3.106   0.888   3.792  1.0388  0.5187 -2.5028
  626THF     H510070   3.054   0.716   3.774 -0.5887  0.9068  1.9244
  626THF     H610071   3.414   0.860   3.853 -0.2085 -0.1295  0.0852
  626THF     H710072   3.434   0.691   3.795 -0.2299 -0.0557  2.2403
  626THF     C810073   3.346   0.828   3.651 -0.5973 -0.3382 -0.1545
  626THF     C910074   3.198   0.795   3.637 -0.0288  0.3235  0.9472
  626THF    H1010075   3.409   0.776   3.578 -1.5128 -0.3543 -0.9480
  626THF    H1110076   3.361   0.936   3.646 -2.9973  0.2601  2.7082
  626THF    H1210077   3.156   0.863   3.564  2.2035  0.9820  0.1993
  626THF    H1310078   3.184   0.695   3.594 -1.5750 -0.1911  2.5058
  627THF     O110079   1.152   4.836   2.146 -0.3377 -0.1245 -0.6665
  627THF     C210080   1.018   4.880   2.158  0.0765  0.0700  0.6008
  627THF     C310081   1.173   4.750   2.253  0.0910  0.2348  0.5066
  627THF     H410082   0.948   4.802   2.131 -0.3650  0.4031  0.7683
  627THF     H510083   0.995   4.963   2.091 -1.5418 -1.3141 -0.6090
  627THF     H610084   1.119   4.658   2.230  0.1153  0.4746 -0.5613
  627THF     H710085   1.279   4.731   2.269 -0.3739 -1.1332  2.3668
  627THF     C810086   1.112   4.833   2.368 -0.5869 -0.3731 -0.0653
  627THF     C910087   0.993   4.893   2.310  0.0899  0.4390 -0.7348
  627THF    H1010088   1.185   4.906   2.403 -1.2005 -0.2811  1.0510
  627THF    H1110089   1.103   4.768   2.454  1.7902 -3.6158 -2.0662
  627THF    H1210090   0.905   4.831   2.329 -0.3678  0.9476 -1.1461
  627THF    H1310091   0.965   4.990   2.352 -2.6595 -0.6069  0.0751
  628THF     O110092   3.898   1.255   5.263  0.4991 -0.4207  0.3436
  628THF     C210093   3.800   1.360   5.264 -0.8050  0.5059 -0.0912
  628THF     C310094   3.842   1.128   5.303  0.0597  0.8415 -0.4947
  628THF     H410095   3.756   1.368   5.165 -0.0328  0.9762 -0.4075
  628THF     H510096   3.845   1.453   5.299  1.9270  0.2234 -2.4888
  628THF     H610097   3.850   1.054   5.223 -2.3600 -0.7663  0.6195
  628THF     H710098   3.890   1.098   5.396 -0.9762  0.9763  0.1012
  628THF     C810099   3.696   1.163   5.338 -0.2952  0.2398 -0.1981
  628THF     C910100   3.686   1.317   5.360  0.2728  0.0617 -0.0094
  628THF    H1010101   3.668   1.120   5.434  0.1997  2.2566  0.9302
  628THF    H1110102   3.631   1.136   5.256  1.4212 -0.9590 -1.2323
  628THF    H1210103   3.584   1.353   5.348 -0.0728 -0.4837  1.1085
  628THF    H1310104   3.720   1.352   5.457  3.0322  0.6814 -1.0992
  629THF     O110105   3.995   4.059   3.556  0.8010  0.2861  0.9759
  629THF     C210106   4.048   4.048   3.418 -0.1240 -0.4852 -0.3313
  629THF     C310107   3.852   4.047   3.543  0.7107  0.1031 -0.7913
  629THF     H410108   4.156   4.034   3.416 -0.2261 -1.5377  0.4188
  629THF     H510109   4.024   4.141   3.367 -0.6332  0.2283  1.1557
  629THF     H610110   3.805   4.013   3.636  2.9504 -0.0656  0.3596
  629THF     H710111   3.802   4.141   3.519 -2.1174 -1.5782 -1.8663
  629THF     C810112   3.825   3.945   3.430 -0.3083  0.0253 -0.2658
  629THF     C910113   3.957   3.940   3.360 -0.2679 -0.2473 -0.8364
  629THF    H1010114   3.741   3.975   3.368 -1.0710  0.3648  0.9050
  629THF    H1110115   3.803   3.844   3.466 -1.5572  0.4395  0.1768
  629THF    H1210116   4.000   3.845   3.390 -1.5342  0.0829  2.4445
  629THF    H1310117   3.945   3.939   3.252 -1.5139 -0.2093 -0.7192
  630THF     O110118   1.890   4.032   1.282  0.0495  0.2997 -0.6713
  630THF     C210119   1.979   4.135   1.265  0.7758 -0.1751  0.3499
  630THF     C310120   1.759   4.090   1.306  0.4845 -0.2464  0.0093
  630THF     H410121   2.077   4.102   1.231  0.5625  0.8560 -1.3794
  630THF     H510122   1.986   4.185   1.362 -1.7192 -1.4676  1.2918
  630THF     H610123   1.678   4.017   1.297  0.6607 -0.1776 -5.3630
  630THF     H710124   1.769   4.119   1.410  1.1891 -2.0127  0.4748
  630THF     C810125   1.748   4.210   1.207 -1.2840 -0.0059 -0.4124
  630THF     C910126   1.900   4.225   1.167  0.7556  0.5336 -0.5457
  630THF    H1010127   1.702   4.293   1.260 -0.6019  0.7108 -0.9051
  630THF    H1110128   1.688   4.183   1.120  0.0103 -0.5487 -1.1804
  630THF    H1210129   1.927   4.182   1.070  0.0207 -0.9400 -0.1299
  630THF    H1310130   1.943   4.325   1.175  3.3662 -0.6338  1.6311
  631THF     O110131   0.449   1.847   1.095  0.3796 -0.8105 -0.7391
  631THF     C210132   0.496   1.954   1.014  0.5286  0.2470 -0.3879
  631THF     C310133   0.561   1.786   1.147 -0.3085  0.3277 -0.2358
  631THF     H410134   0.414   2.021   0.987  1.0452  0.6314 -1.0308
  631THF     H510135   0.534   1.921   0.917 -1.4604  0.0089 -1.1445
  631THF     H610136   0.532   1.738   1.241  0.8506  1.5739  0.7958
  631THF     H710137   0.591   1.704   1.081 -0.5776  0.5411 -0.6287
  631THF     C810138   0.673   1.890   1.156  0.8935  0.0527  0.2028
  631THF     C910139   0.612   2.017   1.095  0.1964  0.3827 -0.3110
  631THF    H1010140   0.753   1.853   1.092 -0.2650 -1.5142 -0.4362
  631THF    H1110141   0.715   1.913   1.254  3.1493  0.9984 -0.9201
  631THF    H1210142   0.581   2.075   1.181  0.7513 -1.5632  1.2734
  631THF    H1310143   0.674   2.078   1.030 -0.0842 -1.0310 -1.9799
  632THF     O110144   2.266   5.129   3.791 -0.2599 -0.0357  0.0991
  632THF     C210145   2.358   5.073   3.883 -0.3364 -0.5578  0.7258
  632THF     C310146   2.135   5.095   3.829  0.5041 -0.5250  0.5492
  632THF     H410147   2.457   5.116   3.885  0.6775 -2.4766 -1.8953
  632THF     H510148   2.374   4.968   3.858 -0.1224  0.2720 -3.1743
  632THF     H610149   2.051   5.147   3.783  0.5188 -0.2382  0.8495
  632THF     H710150   2.125   4.991   3.796  1.3077 -0.5674  0.4149
  632THF     C810151   2.147   5.095   3.983  0.2836  0.1961  0.4529
  632THF     C910152   2.291   5.079   4.017  0.5217 -0.2885  0.0318
  632THF    H1010153   2.094   5.011   4.028 -0.7704  0.4160 -0.3337
  632THF    H1110154   2.104   5.181   4.034 -1.1999 -1.9266  3.0333
  632THF    H1210155   2.329   5.161   4.078  1.0051 -0.8847  0.5453
  632THF    H1310156   2.298   4.985   4.071 -0.7942 -0.7793 -0.6279
  633THF     O110157   1.730   4.655   2.104 -0.1614  0.2266 -0.0794
  633THF     C210158   1.632   4.671   2.002  0.2414  0.6086  0.1935
  633THF     C310159   1.670   4.630   2.231 -0.1726 -0.4557  0.3688
  633THF     H410160   1.633   4.593   1.926  2.5459  0.8562 -0.0995
  633THF     H510161   1.646   4.768   1.954 -0.7823 -0.0519 -1.4929
  633THF     H610162   1.731   4.567   2.297 -0.7173 -1.8931 -0.4651
  633THF     H710163   1.664   4.729   2.276 -0.5865 -0.0412 -0.5686
  633THF     C810164   1.533   4.572   2.197 -0.1393 -0.5987  0.3369
  633THF     C910165   1.496   4.661   2.082  0.1220  0.3953  0.8174
  633THF    H1010166   1.468   4.593   2.281  1.5584  3.7554  0.8361
  633THF    H1110167   1.535   4.466   2.172  2.3578 -0.3322 -0.8969
  633THF    H1210168   1.423   4.615   2.015  1.4446  0.9318 -1.0728
  633THF    H1310169   1.455   4.755   2.119 -1.7050 -1.2516  3.2590
  634THF     O110170   0.475   3.593   0.471 -0.4752 -0.4730  0.1484
  634THF     C210171   0.338   3.603   0.497 -0.4194 -0.4037  0.0890
  634THF     C310172   0.536   3.672   0.568 -0.1043 -0.4195  1.0946
  634THF     H410173   0.275   3.525   0.455 -0.0253 -0.2395 -0.8181
  634THF     H510174   0.319   3.704   0.461  2.0310  0.0692 -0.0457
  634THF     H610175   0.632   3.623   0.580  0.4247  0.9326  2.7236
  634THF     H710176   0.554   3.774   0.533 -0.0099 -1.2212 -1.3666
  634THF     C810177   0.453   3.662   0.698  0.5211 -0.0591  0.6687
  634THF     C910178   0.325   3.595   0.650  0.2870 -0.0020 -0.3908
  634THF    H1010179   0.439   3.760   0.744  2.0990  1.7618 -2.4090
  634THF    H1110180   0.494   3.597   0.776  0.6386 -0.6509  0.1191
  634THF    H1210181   0.325   3.490   0.677  2.7363  0.0355 -0.0474
  634THF    H1310182   0.237   3.644   0.692  0.3229 -0.3966  0.1520
  635THF     O110183   2.359   0.508   3.525  0.2424  0.1930  0.0604
  635THF     C210184   2.299   0.415   3.431 -0.3699 -0.1611  0.1696
  635THF     C310185   2.455   0.440   3.594  0.1730 -0.0231  0.5782
  635THF     H410186   2.266   0.477   3.348  1.1098  0.8559  0.3101
  635THF     H510187   2.215   0.374   3.487  0.2095 -1.8812 -0.1407
  635THF     H610188   2.527   0.501   3.649  1.4409  0.9462 -1.9735
  635THF     H710189   2.407   0.374   3.666 -0.4178  0.5873  0.7538
  635THF     C810190   2.525   0.355   3.492  0.0877  0.0196  0.7222
  635THF     C910191   2.399   0.303   3.409  0.0318 -0.4206  0.6576
  635THF    H1010192   2.589   0.280   3.539 -0.8849 -0.7320  0.8772
  635THF    H1110193   2.591   0.407   3.422 -0.0566 -0.2593  0.3746
  635THF    H1210194   2.404   0.267   3.306  0.6792  0.4209  0.3788
  635THF    H1310195   2.352   0.218   3.457 -1.6429 -1.0357 -1.8672
  636THF     O110196   3.795   0.100   0.137 -0.2435 -0.3527  0.2109
  636THF     C210197   3.694   0.099   0.235  0.5209  0.3018  0.1122
  636THF     C310198   3.911   0.049   0.205 -0.3933  0.3329 -0.2980
  636THF     H410199   3.598   0.112   0.185 -0.5952 -1.8719  1.5384
  636THF     H510200   3.710   0.176   0.310 -1.4756 -1.7198  2.7884
  636THF     H610201   3.991   0.026   0.134  0.7651  3.9117 -0.3920
  636THF     H710202   3.945   0.122   0.278  3.7389 -2.0255  0.4446
  636THF     C810203   3.851  -0.068   0.280  0.1171 -0.1343 -0.1087
  636THF     C910204   3.702  -0.038   0.300  0.1524 -0.8131 -0.5442
  636THF    H1010205   3.903  -0.078   0.375  0.7098  1.2557 -0.2735
  636THF    H1110206   3.858  -0.164   0.228  0.6473  0.6413 -1.5220
  636THF    H1210207   3.640  -0.106   0.242 -0.7729  0.1061 -0.6773
  636THF    H1310208   3.674  -0.032   0.405 -1.6755  2.2668 -1.0638
  637THF     O110209   1.952   4.410   0.848 -0.9037  0.4745 -0.1505
  637THF     C210210   2.046   4.476   0.945  0.7448 -0.2532  0.1994
  637THF     C310211   1.855   4.505   0.816 -0.2759 -0.1135  0.1154
  637THF     H410212   2.136   4.469   0.883  0.3977 -1.7337 -0.1727
  637THF     H510213   2.073   4.413   1.030  2.4062 -1.2434 -0.9911
  637THF     H610214   1.825   4.509   0.711 -0.5724  0.2370  0.2117
  637THF     H710215   1.765   4.484   0.875 -0.7124 -0.1220 -0.5407
  637THF     C810216   1.904   4.643   0.852  0.3376  0.0938  0.4728
  637THF     C910217   2.017   4.624   0.954  0.0331 -0.2647  0.6326
  637THF    H1010218   1.824   4.700   0.899 -1.0326 -1.0486 -0.3764
  637THF    H1110219   1.939   4.697   0.764 -1.9109  1.2237  0.2201
  637THF    H1210220   2.101   4.689   0.930  0.0802 -0.1028  1.2169
  637THF    H1310221   1.983   4.645   1.056 -0.0112 -1.3031  0.8471
  638THF     O110222   0.081   2.573   0.809  0.0342  0.3204 -0.2503
  638THF     C210223   0.184   2.524   0.736  0.6495  0.7635  0.5088
  638THF     C310224  -0.018   2.466   0.823 -0.0698 -0.3989 -0.7017
  638THF     H410225   0.244   2.454   0.794 -0.2235 -0.7524 -0.3390
  638THF     H510226   0.241   2.610   0.703  0.7345  1.0656  1.4053
  638THF     H610227   0.013   2.392   0.898  1.5088  1.1354  0.2418
  638THF     H710228  -0.103   2.517   0.868 -0.2868 -1.8920  0.6813
  638THF     C810229  -0.021   2.399   0.686  0.3758  0.8629  1.1716
  638THF     C910230   0.109   2.453   0.621  0.2180  0.3140  0.4324
  638THF    H1010231  -0.111   2.409   0.625  1.8837  0.8922 -1.1656
  638THF    H1110232  -0.006   2.291   0.681 -1.5973  0.6100 -1.3004
  638THF    H1210233   0.156   2.378   0.557 -2.4196  0.1376 -1.4950
  638THF    H1310234   0.081   2.538   0.559  0.9475 -0.3541 -0.8601
  639THF     O110235   2.685   0.763   0.815 -0.9908 -0.1236 -0.7836
  639THF     C210236   2.731   0.749   0.952 -0.2922 -0.0454 -0.0167
  639THF     C310237   2.547   0.791   0.815 -0.8240 -0.0516  0.5980
  639THF     H410238   2.751   0.849   0.992  2.9905  0.0089 -1.5163
  639THF     H510239   2.831   0.708   0.955 -1.0736 -2.1970 -1.4636
  639THF     H610240   2.536   0.896   0.842  0.0768 -0.4375  2.6791
  639THF     H710241   2.512   0.760   0.716  0.4256 -2.6920  0.9117
  639THF     C810242   2.500   0.715   0.937  0.6125  0.2093  0.2947
  639THF     C910243   2.625   0.658   1.007 -0.5456 -0.4907 -0.2245
  639THF    H1010244   2.418   0.645   0.924  0.4184  0.7705 -1.8553
  639THF    H1110245   2.459   0.793   1.001  1.4059  0.3896  0.5953
  639THF    H1210246   2.614   0.668   1.115  2.8507  0.4330  0.1284
  639THF    H1310247   2.641   0.553   0.981  1.8671  0.1165 -1.4566
  640THF     O110248   4.413   3.931   3.169  0.2103 -0.1282 -0.9083
  640THF     C210249   4.516   4.027   3.207 -0.4948  0.3746  1.1050
  640THF     C310250   4.303   4.005   3.123 -0.6901  0.4008 -0.4915
  640THF     H410251   4.611   3.974   3.201 -0.8879 -0.3649  1.1521
  640THF     H510252   4.496   4.065   3.307  1.1354 -0.5687  1.8163
  640THF     H610253   4.223   3.936   3.099 -0.9786  1.3594 -2.4370
  640THF     H710254   4.268   4.055   3.214  1.6673 -0.1299  0.8108
  640THF     C810255   4.379   4.092   3.019  0.3998  0.0850 -0.9371
  640THF     C910256   4.503   4.127   3.092 -0.4799  0.0957  0.2123
  640THF    H1010257   4.317   4.179   2.999 -0.3534 -0.7812 -2.6156
  640THF    H1110258   4.392   4.047   2.920  1.6219  1.4122 -1.4102
  640THF    H1210259   4.590   4.128   3.026 -0.1166 -0.6946  0.6649
  640THF    H1310260   4.494   4.231   3.123  1.4480  0.6553 -0.9441
  641THF     O110261   3.102   1.996   0.827 -0.9542 -0.5576 -0.2400
  641THF     C210262   3.041   1.954   0.946 -0.3496 -0.5304  0.3480
  641THF     C310263   3.096   1.890   0.735  0.3676 -0.7832 -0.6313
  641THF     H410264   2.999   2.037   1.002  0.1942 -0.6504  0.9409
  641THF     H510265   3.119   1.913   1.010  0.8876  1.4933  0.2131
  641THF     H610266   3.130   1.913   0.634 -0.5329  0.4742 -0.6649
  641THF     H710267   3.167   1.814   0.768  2.0218  1.1629  0.5221
  641THF     C810268   2.954   1.836   0.760 -0.5231 -0.4100  0.7693
  641THF     C910269   2.929   1.860   0.905  0.0724 -0.5622  0.6739
  641THF    H1010270   2.950   1.727   0.755  0.5122 -0.4084 -1.6071
  641THF    H1110271   2.880   1.880   0.693  0.5369 -1.1967 -1.0055
  641THF    H1210272   2.831   1.898   0.934 -1.1102 -3.0270  0.1761
  641THF    H1310273   2.940   1.773   0.970 -1.2369 -0.2155  1.4028
  642THF     O110274   5.195   2.714   1.840 -0.0082  0.3346 -0.1201
  642THF     C210275   5.064   2.750   1.818  0.8064 -0.0048 -0.0044
  642THF     C310276   5.267   2.726   1.718  0.1866 -0.1788  0.1416
  642THF     H410277   5.015   2.782   1.910  2.0747  2.0344  0.0152
  642THF     H510278   5.009   2.663   1.783 -0.2853 -0.3875  2.4374
  642THF     H610279   5.375   2.720   1.724  0.0917 -0.4539  1.9010
  642THF     H710280   5.238   2.640   1.656 -1.3889 -0.8977  1.7606
  642THF     C810281   5.215   2.859   1.679  0.4628  0.6534  0.2679
  642THF     C910282   5.067   2.865   1.725 -0.1768  0.4434 -0.0116
  642THF    H1010283   5.222   2.877   1.572 -1.8303 -0.1467 -0.0811
  642THF    H1110284   5.268   2.944   1.721  0.1529  1.3265 -0.6801
  642THF    H1210285   5.052   2.953   1.787  1.2865 -0.7827  2.1839
  642THF    H1310286   4.992   2.859   1.645 -1.7036 -0.5690  1.4315
  643THF     O110287   2.887   3.090   0.304 -0.0171 -0.1943 -0.5987
  643THF     C210288   2.962   3.141   0.205 -0.4886  0.2562 -0.7422
  643THF     C310289   2.889   3.180   0.412  0.4856 -0.8704 -0.5092
  643THF     H410290   2.942   3.087   0.112 -0.1760 -2.9237  0.8974
  643THF     H510291   3.068   3.140   0.228  0.0407 -2.1949 -2.8766
  643THF     H610292   2.792   3.182   0.461  0.5875 -1.9046 -0.2394
  643THF     H710293   2.968   3.141   0.477  0.9603 -0.8947 -1.0878
  643THF     C810294   2.924   3.312   0.353  0.2307 -0.4531 -0.4097
  643THF     C910295   2.909   3.281   0.199 -0.3649 -1.3255 -0.2816
  643THF    H1010296   3.028   3.338   0.372 -0.5354  2.6814 -0.0036
  643THF    H1110297   2.858   3.391   0.388  2.4148  0.4071  2.0989
  643THF    H1210298   2.805   3.265   0.169 -0.6739 -1.1632  0.6836
  643THF    H1310299   2.963   3.352   0.136 -0.5346 -1.0230 -0.0894
  644THF     O110300   2.811   5.442   3.113  0.0723 -0.1775 -0.0332
  644THF     C210301   2.730   5.387   3.216 -0.2017  0.1154  0.1143
  644THF     C310302   2.825   5.585   3.122  0.4499  0.1243 -0.1856
  644THF     H410303   2.803   5.364   3.293 -0.9758 -0.1994  0.7732
  644THF     H510304   2.677   5.296   3.189  0.3076 -0.7072  1.7356
  644THF     H610305   2.919   5.615   3.168  0.9633 -0.3157 -0.9295
  644THF     H710306   2.832   5.642   3.029 -1.2892  3.6998  1.6982
  644THF     C810307   2.698   5.636   3.192 -0.0330  0.4898 -0.0713
  644THF     C910308   2.647   5.516   3.265  0.2394 -0.1019 -0.4027
  644THF    H1010309   2.631   5.671   3.114  1.0398 -0.3602 -1.4100
  644THF    H1110310   2.722   5.720   3.257 -0.6098  0.0524  0.7317
  644THF    H1210311   2.678   5.532   3.369 -1.3694 -0.6034  0.1909
  644THF    H1310312   2.540   5.503   3.251  0.1690  0.0006  0.0189
  645THF     O110313   5.266   3.200   4.279  0.3698  0.4795 -0.2509
  645THF     C210314   5.189   3.198   4.153 -0.4298 -0.2676 -0.2995
  645THF     C310315   5.403   3.208   4.263 -0.5834 -0.1660 -0.5354
  645THF     H410316   5.166   3.299   4.119 -2.4541 -0.5427  0.1366
  645THF     H510317   5.097   3.141   4.161 -1.3393  1.2688  0.5832
  645THF     H610318   5.443   3.306   4.288 -0.4615 -0.4486  0.4117
  645THF     H710319   5.453   3.131   4.321 -0.0686  1.3497  1.1198
  645THF     C810320   5.427   3.180   4.108  0.4242  0.0236  0.7847
  645THF     C910321   5.289   3.117   4.068 -0.1249 -0.1503 -0.1520
  645THF    H1010322   5.518   3.120   4.103  0.6893  0.3893  1.1858
  645THF    H1110323   5.432   3.271   4.048 -0.8253  0.0205  0.6384
  645THF    H1210324   5.263   3.127   3.963  0.1407 -1.0268 -0.3068
  645THF    H1310325   5.289   3.014   4.105  0.2462  0.5499  1.9145
  646THF     O110326   2.264   5.345   0.554  0.2757 -0.1206 -0.5069
  646THF     C210327   2.282   5.488   0.578  0.2851  0.1725 -0.2786
  646THF     C310328   2.142   5.319   0.486  0.1093  0.2476  0.0678
  646THF     H410329   2.387   5.512   0.563  1.2807 -2.5389  1.6148
  646THF     H510330   2.261   5.518   0.681 -0.1786  1.1632 -0.6500
  646THF     H610331   2.155   5.219   0.447  3.3613  0.0236  1.4175
  646THF     H710332   2.059   5.322   0.557 -0.1652  0.6445 -0.2644
  646THF     C810333   2.144   5.433   0.387 -0.0189  0.7047  0.1339
  646THF     C910334   2.190   5.544   0.476 -0.0136 -0.2265 -0.8778
  646THF    H1010335   2.050   5.458   0.338 -0.7047  0.3207  1.2192
  646THF    H1110336   2.219   5.416   0.310  0.0116 -2.5602  0.7620
  646THF    H1210337   2.246   5.614   0.414 -0.5916 -0.3658 -1.5704
  646THF    H1310338   2.100   5.596   0.509  0.6431  1.2960 -1.3985
  647THF     O110339   1.370   5.303   4.194  0.0854  0.3012  0.2260
  647THF     C210340   1.451   5.287   4.312  0.5097 -0.3856  0.1728
  647THF     C310341   1.361   5.444   4.184  0.0583  0.0448 -0.1643
  647THF     H410342   1.556   5.280   4.287  1.5913  2.6413  3.1298
  647THF     H510343   1.423   5.193   4.361 -1.0866  0.8198  1.6934
  647THF     H610344   1.456   5.482   4.145  0.9707 -1.5858  0.3667
  647THF     H710345   1.288   5.465   4.106  0.6353 -0.2534 -0.8011
  647THF     C810346   1.337   5.493   4.316 -0.5678  0.6427  0.1601
  647THF     C910347   1.421   5.403   4.406  0.5096  0.2840 -0.9579
  647THF    H1010348   1.233   5.484   4.348 -0.8189  0.1548 -0.7364
  647THF    H1110349   1.372   5.592   4.342 -0.1389  0.8423 -1.1247
  647THF    H1210350   1.514   5.448   4.440 -0.5567  1.6069  0.3546
  647THF    H1310351   1.366   5.371   4.495 -1.0372  1.2003 -1.5502
  648THF     O110352   5.339   3.351   1.439 -0.1120 -0.5142 -0.1680
  648THF     C210353   5.392   3.225   1.468 -0.0167  0.6052 -0.4292
  648THF     C310354   5.280   3.390   1.566  0.6043 -0.3533 -0.3381
  648THF     H410355   5.451   3.193   1.382 -1.3819 -2.8184 -0.2682
  648THF     H510356   5.312   3.152   1.480 -0.8478  1.5224 -0.3109
  648THF     H610357   5.266   3.498   1.568 -0.7474 -0.4156 -2.5411
  648THF     H710358   5.180   3.349   1.574  0.2035  0.6780  0.1345
  648THF     C810359   5.386   3.361   1.671  0.6901  0.1563  0.1629
  648THF     C910360   5.470   3.252   1.596  0.1294  0.1824  0.2598
  648THF    H1010361   5.347   3.321   1.764  1.1111  1.5458  0.9672
  648THF    H1110362   5.442   3.448   1.705  1.4122 -0.3580  0.3241
  648THF    H1210363   5.570   3.292   1.579  0.6950 -1.3951 -0.2998
  648THF    H1310364   5.476   3.158   1.650 -0.5501 -0.6539 -1.0571
  649THF     O110365   3.834   3.847   0.932  0.0610 -0.4308 -0.3781
  649THF     C210366   3.890   3.778   0.824  0.1751  0.5576  0.9709
  649THF     C310367   3.749   3.938   0.864  0.4337 -0.2902  0.0915
  649THF     H410368   3.899   3.672   0.844 -0.5039  0.5002  0.9915
  649THF     H510369   3.992   3.816   0.809  1.4940 -2.3129  2.0498
  649THF     H610370   3.679   3.981   0.936  3.3141  1.2242  2.2282
  649THF     H710371   3.796   4.033   0.836 -0.9636  1.4057  2.9652
  649THF     C810372   3.685   3.880   0.743 -0.2700  1.2626  0.0006
  649THF     C910373   3.795   3.785   0.699  0.1644  0.2918  0.2014
  649THF    H1010374   3.656   3.941   0.657 -1.7963 -1.1480 -1.3030
  649THF    H1110375   3.601   3.818   0.774  2.6448 -2.2152  1.5870
  649THF    H1210376   3.743   3.691   0.675  0.9760 -0.2422  0.4888
  649THF    H1310377   3.842   3.832   0.614  1.5914 -1.5626 -0.0932
  650THF     O110378   3.827   4.355   0.935  0.3652 -0.0951  0.0175
  650THF     C210379   3.756   4.312   1.053 -0.0870 -0.3153 -0.2333
  650THF     C310380   3.921   4.456   0.963 -0.1394 -0.5331 -0.2734
  650THF     H410381   3.796   4.221   1.099 -2.8135 -1.2259  0.5299
  650THF     H510382   3.652   4.283   1.036 -0.7815  2.0933 -0.4817
  650THF     H610383   4.024   4.434   0.934  0.1574 -1.8577  1.5732
  650THF     H710384   3.891   4.539   0.900 -1.0143 -1.5329 -1.2156
  650THF     C810385   3.913   4.488   1.109 -0.2702  0.8334 -0.5438
  650THF     C910386   3.775   4.428   1.155  0.0540 -0.2580  0.1568
  650THF    H1010387   3.924   4.594   1.132  0.0428  1.3932 -3.0752
  650THF    H1110388   3.991   4.438   1.166  0.1596  2.0300 -0.0315
  650THF    H1210389   3.782   4.397   1.259 -0.4904 -2.2233 -0.3394
  650THF    H1310390   3.697   4.503   1.155 -3.0521 -3.1654 -2.2982
  651THF     O110391   1.757   5.123   3.888 -0.1225  0.0776  0.6184
  651THF     C210392   1.705   5.099   3.758  0.3443 -0.3234 -0.5062
  651THF     C310393   1.750   5.264   3.927 -0.2071 -0.0250  0.3329
  651THF     H410394   1.597   5.110   3.764  0.4578  0.8524 -0.3855
  651THF     H510395   1.728   5.003   3.712  0.1111 -1.0377  0.8103
  651THF     H610396   1.658   5.287   3.981  0.3343 -2.1251  2.3358
  651THF     H710397   1.842   5.285   3.982  0.7508 -0.2269 -1.1415
  651THF     C810398   1.744   5.332   3.792 -0.4518 -0.5241 -0.2962
  651THF     C910399   1.764   5.222   3.685 -0.9283  0.0345 -0.0896
  651THF    H1010400   1.832   5.395   3.786 -0.2245 -0.5670  1.7458
  651THF    H1110401   1.652   5.387   3.776  0.8508  1.4017 -1.6373
  651THF    H1210402   1.719   5.243   3.588 -1.6958  1.1833  0.4964
  651THF    H1310403   1.869   5.208   3.660 -1.1216 -1.4160 -0.2268
  652THF     O110404   4.790   2.479   1.769 -0.4499 -0.4525 -0.4540
  652THF     C210405   4.780   2.346   1.818  0.3248 -0.1690  0.1487
  652THF     C310406   4.789   2.482   1.638 -0.0865  0.3966  0.6655
  652THF     H410407   4.676   2.325   1.792  0.2824  0.2607 -0.0554
  652THF     H510408   4.806   2.333   1.923  1.2649 -0.1050 -0.0642
  652THF     H610409   4.687   2.469   1.603  0.1864 -1.4708  0.4430
  652THF     H710410   4.832   2.580   1.620  2.1757 -0.7727 -0.7470
  652THF     C810411   4.895   2.377   1.614 -0.4125 -0.0609  0.7171
  652THF     C910412   4.875   2.271   1.718 -0.0000 -0.2554  0.1342
  652THF    H1010413   4.994   2.421   1.629 -0.8638  2.0684 -1.8208
  652THF    H1110414   4.882   2.327   1.518 -0.3968  0.4172  0.4648
  652THF    H1210415   4.825   2.182   1.679  1.3583 -0.6405 -0.8008
  652THF    H1310416   4.969   2.241   1.764  0.8986  1.5058 -0.4397
  653THF     O110417   1.437   4.402   4.112 -0.0453  0.0859 -0.3378
  653THF     C210418   1.352   4.481   4.188  0.3123  0.0814  0.6095
  653THF     C310419   1.470   4.286   4.188  0.1708 -0.2268 -0.6559
  653THF     H410420   1.251   4.439   4.192 -0.4842  1.8101 -0.1009
  653THF     H510421   1.340   4.584   4.154 -2.1711 -0.7983 -1.4648
  653THF     H610422   1.379   4.228   4.206 -0.2493  0.8568  1.0015
  653THF     H710423   1.556   4.232   4.150  2.7413  2.0423  1.4962
  653THF     C810424   1.495   4.343   4.326 -0.0442  0.3381  0.7323
  653THF     C910425   1.416   4.476   4.324 -0.3990  0.2473 -0.7536
  653THF    H1010426   1.602   4.361   4.324 -0.1196  0.8304 -1.2244
  653THF    H1110427   1.456   4.272   4.399  0.7379 -0.6729  0.1990
  653THF    H1210428   1.350   4.489   4.409 -1.3105  1.9455 -1.6672
  653THF    H1310429   1.489   4.557   4.330 -0.3878  0.1083  1.5495
  654THF     O110430   3.812   0.417   2.566 -0.4676  0.0236  0.3333
  654THF     C210431   3.754   0.490   2.673  0.2547 -0.8141  0.3478
  654THF     C310432   3.944   0.382   2.598  0.6855  0.1825 -0.7456
  654THF     H410433   3.697   0.421   2.735 -0.2813 -2.3124 -1.6954
  654THF     H510434   3.685   0.561   2.627  0.4373 -1.2659 -0.6582
  654THF     H610435   3.964   0.276   2.614  2.8671  0.5810 -0.6299
  654THF     H710436   4.011   0.426   2.524 -1.1508 -0.0126 -2.6260
  654THF     C810437   3.967   0.461   2.725 -0.5357 -0.0193  0.1688
  654THF     C910438   3.866   0.567   2.735 -0.1506  0.7017  0.0587
  654THF    H1010439   4.067   0.504   2.721 -0.0559 -0.8295  2.2205
  654THF    H1110440   3.942   0.408   2.818  0.4812 -0.8620 -0.0212
  654THF    H1210441   3.853   0.601   2.838 -0.3340  0.1774  0.2088
  654THF    H1310442   3.892   0.658   2.680 -3.2591  1.2161 -0.7800
  655THF     O110443   4.735   2.871   5.140  1.1807 -0.9344 -0.3099
  655THF     C210444   4.801   2.954   5.239  0.1034  0.6916  0.6422
  655THF     C310445   4.755   2.738   5.170  0.1430 -0.0719 -0.2676
  655THF     H410446   4.722   3.022   5.271 -1.8512 -0.7098 -0.9232
  655THF     H510447   4.873   3.020   5.190  1.3355 -0.3867  0.9346
  655THF     H610448   4.667   2.708   5.227  0.4436 -1.1354 -0.3316
  655THF     H710449   4.767   2.676   5.081 -1.0831 -3.9002  1.9610
  655THF     C810450   4.879   2.748   5.259 -0.0710  0.1817 -0.1615
  655THF     C910451   4.869   2.870   5.345 -0.6548 -0.6470 -0.0976
  655THF    H1010452   4.969   2.749   5.196 -0.2667 -0.0386 -0.4464
  655THF    H1110453   4.883   2.655   5.316  1.2764  0.2331 -0.1401
  655THF    H1210454   4.798   2.851   5.425  0.0116  0.5258  0.8042
  655THF    H1310455   4.958   2.910   5.394 -0.8684  1.0632 -1.0370
  656THF     O110456   1.807   4.223   0.143  0.9788 -0.0159 -0.4794
  656THF     C210457   1.888   4.251   0.032  0.1105 -0.1484  0.0608
  656THF     C310458   1.868   4.117   0.212 -0.7974  0.4961 -0.6767
  656THF     H410459   1.862   4.343  -0.019 -0.4487 -0.1909  0.2600
  656THF     H510460   1.874   4.168  -0.038  1.5837 -0.8625  0.5645
  656THF     H610461   1.821   4.101   0.309  0.9454  0.2325  0.1670
  656THF     H710462   1.861   4.018   0.168  3.1306 -0.4373  0.4337
  656THF     C810463   2.012   4.169   0.213  0.6989  0.2541 -0.5636
  656THF     C910464   2.032   4.243   0.084 -0.2301 -0.1196  0.0802
  656THF    H1010465   2.098   4.114   0.251  1.4742  2.3970  0.9910
  656THF    H1110466   2.004   4.244   0.291 -2.2138 -2.8647  2.4870
  656THF    H1210467   2.070   4.346   0.085  0.7925 -0.4895  0.5532
  656THF    H1310468   2.096   4.199   0.008 -0.0085 -0.9380  0.7285
  657THF     O110469   1.642   2.643   0.253 -0.2363 -0.1321  0.2662
  657THF     C210470   1.606   2.619   0.114  0.0405  0.4553  0.4437
  657THF     C310471   1.557   2.748   0.295  0.1160 -0.2003 -0.6451
  657THF     H410472   1.517   2.557   0.110 -1.9366  3.1600 -1.4575
  657THF     H510473   1.691   2.576   0.060 -0.7741 -0.0751 -0.4347
  657THF     H610474   1.471   2.709   0.350 -1.0647  2.7525 -0.1756
  657THF     H710475   1.609   2.817   0.361 -0.2811  0.9428 -1.4810
  657THF     C810476   1.506   2.824   0.170  0.0271 -0.8172 -0.5839
  657THF     C910477   1.579   2.761   0.059 -0.4668  0.3738 -0.0835
  657THF    H1010478   1.506   2.933   0.177  0.8154 -0.7430 -1.4978
  657THF    H1110479   1.400   2.799   0.163 -0.7421  0.7698  3.0521
  657THF    H1210480   1.521   2.753  -0.033 -0.5855  0.3087 -0.0035
  657THF    H1310481   1.668   2.821   0.039 -1.0963  0.3927 -3.4815
  658THF     O110482   2.232   3.250   3.786 -0.2528 -0.1192  0.0532
  658THF     C210483   2.191   3.347   3.879 -0.1200  0.1857  0.2496
  658THF     C310484   2.176   3.293   3.662 -0.4730 -0.1730 -0.3865
  658THF     H410485   2.240   3.444   3.869  0.5388 -0.2770 -1.3054
  658THF     H510486   2.206   3.301   3.977 -1.8186  0.0823  0.4923
  658THF     H610487   2.224   3.386   3.630 -0.3749 -0.4984 -1.2127
  658THF     H710488   2.180   3.218   3.584  0.6317  0.0288 -0.5449
  658THF     C810489   2.031   3.324   3.698 -0.7881  0.1114  0.0354
  658THF     C910490   2.037   3.362   3.846 -0.5304  0.1603  0.2721
  658THF    H1010491   1.998   3.220   3.691 -0.2345 -0.1210  0.7401
  658THF    H1110492   1.984   3.394   3.629 -0.1574 -1.3815 -2.0050
  658THF    H1210493   2.005   3.463   3.872  0.0272  0.3989  0.0344
  658THF    H1310494   1.973   3.290   3.899  0.4138  0.6083  2.1046
  659THF     O110495   5.060   0.346   4.661 -0.3879  0.1879  0.3847
  659THF     C210496   5.158   0.431   4.717  1.0161  0.2516  0.3716
  659THF     C310497   5.102   0.306   4.536  0.5749 -0.1247 -0.0194
  659THF     H410498   5.170   0.421   4.825 -0.8345 -0.5771  0.5416
  659THF     H510499   5.132   0.534   4.693 -0.5813 -0.0026  0.9157
  659THF     H610500   5.046   0.215   4.518 -2.4356  1.6261 -0.0784
  659THF     H710501   5.069   0.381   4.464 -0.6060 -1.4642 -0.9128
  659THF     C810502   5.250   0.291   4.548 -0.7180  0.8789  0.6385
  659THF     C910503   5.293   0.403   4.644  0.1308 -0.2841 -0.4864
  659THF    H1010504   5.286   0.298   4.445 -1.1009 -0.1953  0.4204
  659THF    H1110505   5.289   0.192   4.571  0.5744  0.8990 -1.2031
  659THF    H1210506   5.368   0.376   4.718 -1.0358  1.2102  1.3317
  659THF    H1310507   5.325   0.486   4.582 -0.1033  0.1379 -0.0450
  660THF     O110508   2.033   4.972   4.728  0.0047  0.3688 -0.5473
  660THF     C210509   2.080   4.862   4.807 -0.1654 -0.2002 -0.2766
  660THF     C310510   2.100   4.961   4.606  0.2710  0.7052  0.2811
  660THF     H410511   2.040   4.837   4.905  1.4314 -2.9849 -0.2301
  660THF     H510512   2.184   4.875   4.836 -0.7676  3.0229  0.8279
  660THF     H610513   2.063   5.035   4.535  2.5009  2.8496  1.1968
  660THF     H710514   2.204   4.986   4.630 -0.1629  1.3373  1.6088
  660THF     C810515   2.094   4.808   4.572  0.0269 -1.0022  0.4356
  660THF     C910516   2.063   4.746   4.711  0.2556  0.3672  0.4786
  660THF    H1010517   2.182   4.781   4.514  0.3857  0.7108  0.1311
  660THF    H1110518   2.005   4.795   4.512 -1.8730 -1.2275  3.0977
  660THF    H1210519   1.962   4.705   4.715 -0.6856  2.4398 -0.5500
  660THF    H1310520   2.135   4.667   4.731  0.4994  0.5051  0.1413
  661THF     O110521   0.311   1.025   1.552 -0.1265  0.1230  0.3082
  661THF     C210522   0.392   1.048   1.435 -0.1286 -0.3147 -0.3883
  661THF     C310523   0.202   1.116   1.558 -0.1790  0.8901  0.1469
  661THF     H410524   0.340   1.005   1.349 -0.6998 -1.8388  0.6745
  661THF     H510525   0.491   1.002   1.444  0.0882 -0.1721 -1.7292
  661THF     H610526   0.110   1.083   1.509  0.8805  1.0016 -2.0394
  661THF     H710527   0.159   1.141   1.655  0.8740 -0.0625  0.8777
  661THF     C810528   0.256   1.235   1.482 -0.6257 -0.3428 -0.1880
  661THF     C910529   0.392   1.191   1.428 -0.0207 -0.1072  0.4516
  661THF    H1010530   0.285   1.324   1.538  3.9272 -1.7991  0.2209
  661THF    H1110531   0.186   1.268   1.406  1.6551  1.7632 -1.5255
  661THF    H1210532   0.411   1.220   1.325 -0.5523 -2.5019 -0.3930
  661THF    H1310533   0.482   1.225   1.480  0.8584  1.2644 -1.8083
  662THF     O110534   2.939   0.350   3.302  0.2774  0.2417  0.3056
  662THF     C210535   3.060   0.405   3.348  0.0140  0.6379 -0.6949
  662THF     C310536   2.875   0.435   3.210 -0.8648 -0.5346  0.3490
  662THF     H410537   3.126   0.342   3.407 -1.8104  1.3460  2.3112
  662THF     H510538   3.042   0.487   3.417  0.2415 -1.5740  2.1757
  662THF     H610539   2.791   0.393   3.155 -1.3207 -0.4194  0.9436
  662THF     H710540   2.824   0.510   3.271 -0.3770  2.2842 -2.4512
  662THF     C810541   2.997   0.485   3.128  0.4194 -1.1698 -0.0922
  662THF     C910542   3.114   0.475   3.224  0.1171 -0.1765  0.0229
  662THF    H1010543   2.975   0.586   3.095 -0.9154 -1.4923 -0.2604
  662THF    H1110544   3.014   0.420   3.042  2.7970 -0.0210 -0.5534
  662THF    H1210545   3.203   0.427   3.183 -0.3186  0.6114 -1.9772
  662THF    H1310546   3.151   0.577   3.241 -0.2705 -0.1817  0.9188
  663THF     O110547   2.687   4.394   2.095 -0.1018 -0.3205 -0.0417
  663THF     C210548   2.682   4.500   2.192 -0.4133 -0.6122  0.4476
  663THF     C310549   2.611   4.287   2.141 -0.1243  0.3842 -0.1781
  663THF     H410550   2.595   4.565   2.179  0.7078  0.6217 -1.3165
  663THF     H510551   2.776   4.555   2.199  0.6177 -2.0329 -1.6108
  663THF     H610552   2.508   4.291   2.106 -1.4316 -3.4277  2.4873
  663THF     H710553   2.655   4.190   2.116 -2.3522 -1.0303  1.0164
  663THF     C810554   2.606   4.296   2.294 -0.1606 -0.0611  0.0369
  663THF     C910555   2.662   4.433   2.326 -0.0214 -0.2787  0.6350
  663THF    H1010556   2.671   4.223   2.342  0.7217  1.0801  0.6176
  663THF    H1110557   2.499   4.296   2.316 -0.1428  1.4697  0.2340
  663THF    H1210558   2.589   4.495   2.379  0.0627  0.4851 -0.1101
  663THF    H1310559   2.757   4.414   2.376  1.1701  0.4734 -1.2071
  664THF     O110560   0.631   4.170   1.304 -0.3953 -0.6064  0.3039
  664THF     C210561   0.754   4.103   1.284  0.3800 -0.2090 -0.4641
  664THF     C310562   0.582   4.136   1.428  0.3426  0.1891  1.3117
  664THF     H410563   0.844   4.146   1.326  1.1234 -1.2481 -0.9667
  664THF     H510564   0.782   4.108   1.179 -1.2073  0.3387 -0.9014
  664THF     H610565   0.633   4.207   1.493  0.0576  1.5200  0.1400
  664THF     H710566   0.475   4.147   1.446 -0.2410 -0.5812 -1.2209
  664THF     C810567   0.621   3.996   1.447 -0.3194  0.4075 -0.2276
  664THF     C910568   0.720   3.966   1.336 -0.3003 -0.5002  0.0138
  664THF    H1010569   0.528   3.943   1.426 -1.0336  2.2417 -1.9930
  664THF    H1110570   0.662   3.971   1.545  0.9276 -1.0558 -1.0534
  664THF    H1210571   0.813   3.924   1.375  0.0792 -0.9423 -1.3149
  664THF    H1310572   0.680   3.905   1.255 -0.3467  1.5830 -1.6245
  665THF     O110573   2.828   5.240   4.309 -0.3384  0.1730 -0.1709
  665THF     C210574   2.680   5.260   4.314 -0.1390  0.2458 -0.2199
  665THF     C310575   2.873   5.311   4.192 -0.4524 -1.0477  0.3090
  665THF     H410576   2.649   5.358   4.350  0.5694  0.4833 -0.2449
  665THF     H510577   2.631   5.182   4.372  0.1096  0.5113  0.3453
  665THF     H610578   2.885   5.416   4.218 -0.6396 -1.2832  1.3634
  665THF     H710579   2.972   5.274   4.163  0.6588  1.1163  1.1385
  665THF     C810580   2.753   5.294   4.091  0.0473  0.4854 -0.7541
  665THF     C910581   2.626   5.262   4.168 -0.0233  0.4949  0.2122
  665THF    H1010582   2.755   5.210   4.023 -1.5932  0.7262 -1.1398
  665THF    H1110583   2.745   5.388   4.036  0.7990  0.8544 -0.2536
  665THF    H1210584   2.558   5.344   4.145 -0.2277  0.0201 -0.9907
  665THF    H1310585   2.581   5.166   4.144 -0.9060  1.3930 -2.0251
  666THF     O110586   4.229   0.916   1.007  0.0567 -0.1449  0.0364
  666THF     C210587   4.292   1.037   0.957 -0.5038  0.1145  0.0957
  666THF     C310588   4.326   0.823   1.007 -0.6446 -0.4806 -0.0857
  666THF     H410589   4.354   1.087   1.031 -1.7687  1.7612  0.0920
  666THF     H510590   4.224   1.116   0.927  2.4717  2.5282 -0.7950
  666THF     H610591   4.410   0.852   1.071 -0.3679 -0.0639 -0.6271
  666THF     H710592   4.292   0.725   1.040 -0.0447 -0.4765  0.5596
  666THF     C810593   4.377   0.831   0.860  0.3768  0.4683  0.3490
  666THF     C910594   4.363   0.981   0.838 -0.0086 -1.0210 -0.0948
  666THF    H1010595   4.320   0.777   0.786  0.6071 -0.9292  1.1662
  666THF    H1110596   4.481   0.802   0.846  0.5846  0.0975  2.3613
  666THF    H1210597   4.464   1.020   0.828 -0.7961  1.2988  0.2267
  666THF    H1310598   4.311   1.005   0.745  0.4601  2.8163  0.4726
  667THF     O110599   0.636   2.428   3.038  0.3671  0.2207 -0.0252
  667THF     C210600   0.552   2.540   3.039  0.3230 -0.0824 -0.1752
  667THF     C310601   0.639   2.370   3.170 -0.3796 -0.4689 -0.6853
  667THF     H410602   0.451   2.503   3.056  0.4723 -0.0808  0.7833
  667THF     H510603   0.570   2.615   2.962  2.8254  0.8889  1.2313
  667THF     H610604   0.552   2.305   3.182  0.0203 -0.9156 -0.1238
  667THF     H710605   0.739   2.326   3.172  0.8070  1.9762 -1.7455
  667THF     C810606   0.625   2.495   3.258  0.0848 -0.0028  0.1684
  667THF     C910607   0.581   2.608   3.170  0.7317  0.3811 -0.1100
  667THF    H1010608   0.725   2.522   3.290  1.6595 -1.2412 -3.2266
  667THF    H1110609   0.564   2.493   3.348  0.2299 -0.4075  0.2598
  667THF    H1210610   0.486   2.652   3.203  0.5796  2.4506 -2.8964
  667THF    H1310611   0.658   2.685   3.159  1.9239 -0.6644  0.7339
  668THF     O110612   0.829   3.662   0.801 -0.0335 -0.1718  0.3204
  668THF     C210613   0.735   3.724   0.889  0.3533 -0.3821  0.3116
  668THF     C310614   0.938   3.752   0.789 -0.4432  0.7493 -0.2427
  668THF     H410615   0.677   3.661   0.957  0.5092 -0.2791  0.5421
  668THF     H510616   0.654   3.775   0.837  1.0537 -1.9803 -2.5442
  668THF     H610617   1.033   3.698   0.786 -0.6833  0.1207  1.7201
  668THF     H710618   0.926   3.804   0.694 -1.1239  0.8524 -0.1041
  668THF     C810619   0.915   3.860   0.897 -0.0723  0.2934 -0.0147
  668THF     C910620   0.819   3.806   0.988  0.5602  0.6139 -0.3995
  668THF    H1010621   0.882   3.957   0.860  1.1347  0.2044 -1.4005
  668THF    H1110622   1.010   3.887   0.945 -1.2088  2.3672  1.2144
  668THF    H1210623   0.877   3.743   1.055 -0.1233  0.0559 -0.3185
  668THF    H1310624   0.754   3.873   1.045  1.4860  0.5931  0.7107
  669THF     O110625   4.901   1.873   1.609 -0.5190 -0.7981 -0.2454
  669THF     C210626   4.848   1.772   1.515 -0.2372  0.7692  0.0598
  669THF     C310627   4.994   1.954   1.542  0.4443  0.2508  0.4993
  669THF     H410628   4.755   1.801   1.466  0.2018 -0.4966 -1.6078
  669THF     H510629   4.826   1.680   1.569 -0.2122  1.5965  1.5266
  669THF     H610630   4.949   2.035   1.485 -0.5226  1.4281  2.8332
  669THF     H710631   5.055   1.994   1.623  0.0860  1.7876  0.0555
  669THF     C810632   5.070   1.849   1.448 -0.4888 -0.3789 -0.6859
  669THF     C910633   4.960   1.751   1.403 -0.1072  0.4531 -0.4766
  669THF    H1010634   5.147   1.799   1.506 -1.3981  0.9329  1.7932
  669THF    H1110635   5.135   1.891   1.371  1.6503 -1.6492  0.3327
  669THF    H1210636   4.925   1.764   1.300 -0.1696  0.7889 -0.4144
  669THF    H1310637   4.981   1.644   1.411 -1.3285  0.2405  0.0565
  670THF     O110638   4.199   0.535   0.155  0.4841 -0.0325  0.1410
  670THF     C210639   4.088   0.627   0.152 -0.1640 -0.5147  0.1781
  670THF     C310640   4.164   0.406   0.124 -0.2035  0.0394 -0.0313
  670THF     H410641   4.115   0.721   0.104  1.9547 -0.8014  0.6787
  670THF     H510642   4.041   0.630   0.250  1.5847  0.0372  1.0387
  670THF     H610643   4.216   0.364   0.038  0.5003  0.9901 -0.0936
  670THF     H710644   4.169   0.341   0.211 -2.9356  1.7984  1.6120
  670THF     C810645   4.013   0.408   0.077  0.0345  0.1764 -0.5633
  670THF     C910646   3.984   0.554   0.057 -0.4947  0.3121  0.5409
  670THF    H1010647   3.939   0.376   0.150  0.8953 -1.3728 -0.3387
  670THF    H1110648   3.999   0.351  -0.014  0.3765 -0.6199 -0.1287
  670THF    H1210649   3.990   0.582  -0.048 -1.8154  0.1584  0.4046
  670THF    H1310650   3.882   0.580   0.085 -1.7439 -2.9419 -0.4774
  671THF     O110651   4.665   3.772   2.443 -0.5818 -0.3160  0.1229
  671THF     C210652   4.647   3.715   2.316 -0.7744 -0.0144  0.5839
  671THF     C310653   4.590   3.892   2.446  0.1762 -0.0378  0.5665
  671THF     H410654   4.548   3.671   2.305 -0.4891 -0.1595 -2.1316
  671THF     H510655   4.704   3.623   2.302  1.4309  1.2956  0.4079
  671THF     H610656   4.484   3.867   2.453 -0.0558  0.8708  0.3542
  671THF     H710657   4.619   3.951   2.532 -2.1948 -0.8253  1.9972
  671THF     C810658   4.619   3.946   2.309  0.4257  0.6532 -0.5970
  671THF     C910659   4.684   3.834   2.229  0.6856  0.0528  0.2367
  671THF    H1010660   4.684   4.034   2.314  1.6390 -0.0092 -3.0689
  671THF    H1110661   4.529   3.972   2.253 -0.9248 -1.1872  0.6436
  671THF    H1210662   4.639   3.830   2.130  1.9472  0.8830 -0.3953
  671THF    H1310663   4.793   3.847   2.230  0.6311  0.5702 -0.2376
  672THF     O110664   3.559   3.030   5.239  0.5922 -0.6911 -0.4878
  672THF     C210665   3.538   2.895   5.271  0.4526 -0.0577 -0.8123
  672THF     C310666   3.664   3.077   5.330 -0.2188 -0.3892  0.1009
  672THF     H410667   3.499   2.837   5.187  3.1834 -1.5791 -1.1510
  672THF     H510668   3.482   2.885   5.363  0.8448  1.3608 -0.4027
  672THF     H610669   3.702   3.175   5.299 -2.2265  0.4828  0.2001
  672THF     H710670   3.613   3.076   5.426 -0.7219 -0.3523 -0.1630
  672THF     C810671   3.766   2.965   5.333 -0.4181 -0.2521 -0.2894
  672THF     C910672   3.681   2.845   5.294  0.0748  0.1621  0.3679
  672THF    H1010673   3.803   2.954   5.435 -0.3665  0.7389 -0.1872
  672THF    H1110674   3.848   2.980   5.264  1.3661 -2.5794  1.1829
  672THF    H1210675   3.725   2.813   5.199 -1.8670  0.2895 -0.6250
  672THF    H1310676   3.678   2.767   5.370 -0.6566 -0.1060  0.0708
  673THF     O110677   1.788   2.027   5.396  0.7245 -0.0778  0.2589
  673THF     C210678   1.864   2.122   5.470  0.4435 -0.1380  0.2505
  673THF     C310679   1.766   2.073   5.263  0.1185  1.4223 -0.2731
  673THF     H410680   1.967   2.113   5.434  0.5043  0.7875  0.1658
  673THF     H510681   1.852   2.117   5.578 -0.1180  3.3599  0.4764
  673THF     H610682   1.849   2.028   5.208 -0.6210 -0.1353 -0.1836
  673THF     H710683   1.668   2.038   5.230  0.5969  0.3984 -0.6436
  673THF     C810684   1.801   2.219   5.268 -0.4405 -0.2056 -0.6204
  673THF     C910685   1.819   2.256   5.414  0.4198 -0.5432 -0.2062
  673THF    H1010686   1.717   2.269   5.219  0.0781  0.1312 -1.1817
  673THF    H1110687   1.888   2.233   5.205 -0.3746  0.9203 -0.3051
  673THF    H1210688   1.893   2.334   5.433  0.0452 -0.5070  1.1909
  673THF    H1310689   1.726   2.286   5.462  0.0390 -0.4882 -0.9575
  674THF     O110690   1.279   4.018   4.323  0.2048  0.3797 -0.2113
  674THF     C210691   1.152   4.064   4.283  0.1896 -0.7323 -0.7841
  674THF     C310692   1.265   3.963   4.442 -0.8249 -0.5075  0.2567
  674THF     H410693   1.094   3.979   4.248 -1.2347  0.6885 -2.0506
  674THF     H510694   1.161   4.133   4.199  1.4450  0.1607  0.0452
  674THF     H610695   1.259   3.855   4.434  0.6707 -0.7157  1.5847
  674THF     H710696   1.360   3.989   4.488 -0.6176  0.3217 -0.5834
  674THF     C810697   1.153   4.041   4.516 -0.0089  0.3999 -0.3959
  674THF     C910698   1.089   4.123   4.407 -0.1472 -0.2372 -0.0602
  674THF    H1010699   1.190   4.100   4.600  0.1909 -0.2229 -0.0374
  674THF    H1110700   1.085   3.970   4.563 -0.4172  1.2564  0.3234
  674THF    H1210701   0.980   4.116   4.404 -0.2249  1.0280 -1.2225
  674THF    H1310702   1.129   4.224   4.401  0.4120 -0.4888 -0.7080
  675THF     O110703   2.168   3.952   2.497 -0.7971  0.3097  0.2780
  675THF     C210704   2.295   3.959   2.562  0.9962  0.4330 -0.5609
  675THF     C310705   2.158   4.069   2.420  0.4506  0.6353 -0.0485
  675THF     H410706   2.325   3.862   2.604 -0.6321 -0.7272 -1.9666
  675THF     H510707   2.283   4.029   2.645 -1.5652 -0.0219 -0.4657
  675THF     H610708   2.070   4.056   2.356  1.3679 -1.5163 -0.9501
  675THF     H710709   2.161   4.166   2.469 -0.3653  0.1665  0.9835
  675THF     C810710   2.282   4.051   2.336  0.1285  0.2263 -0.2118
  675THF     C910711   2.390   4.000   2.445  0.2005 -0.0117 -0.1333
  675THF    H1010712   2.328   4.144   2.301  1.1568 -0.1818  0.0126
  675THF    H1110713   2.265   3.980   2.256  4.0478 -0.7576 -0.3859
  675THF    H1210714   2.445   3.918   2.399 -0.5822  0.2213 -1.5248
  675THF    H1310715   2.471   4.067   2.472  0.3575 -0.1689 -0.2126
  676THF     O110716   4.571   3.354   3.993 -0.1619 -0.4201 -0.2677
  676THF     C210717   4.571   3.243   4.085 -0.3452  0.6369  0.7660
  676THF     C310718   4.680   3.326   3.908 -0.5941  0.2934 -0.0414
  676THF     H410719   4.551   3.146   4.041  3.2516  0.6871 -1.4624
  676THF     H510720   4.499   3.255   4.166 -0.7942 -1.2230  0.6717
  676THF     H610721   4.664   3.243   3.839  1.9101  0.2675 -0.6750
  676THF     H710722   4.695   3.416   3.849 -0.7013 -1.2264 -2.5170
  676THF     C810723   4.793   3.297   4.010  0.0330 -0.1023  0.7028
  676THF     C910724   4.715   3.243   4.135 -0.5404 -0.3482  0.0295
  676THF    H1010725   4.848   3.386   4.041  3.0261 -1.6894  0.2638
  676THF    H1110726   4.868   3.236   3.961  1.0542  1.3968  0.3424
  676THF    H1210727   4.753   3.146   4.167  0.2971  0.2624  0.9138
  676THF    H1310728   4.734   3.299   4.226 -0.9021 -1.9076  1.0879
  677THF     O110729   3.521   1.858   2.318 -0.0465  0.6750  0.0684
  677THF     C210730   3.546   1.775   2.209  0.3025  1.0055 -0.1323
  677THF     C310731   3.533   1.990   2.274  0.6360 -0.2725 -0.0916
  677THF     H410732   3.511   1.678   2.244 -1.4706  1.9142  0.7531
  677THF     H510733   3.654   1.787   2.200  0.3467  0.8069  0.1321
  677THF     H610734   3.492   2.060   2.347 -0.2126 -1.6983  0.8298
  677THF     H710735   3.637   2.020   2.273 -0.3283  3.6843 -1.7632
  677THF     C810736   3.469   1.990   2.129 -0.0008  0.4218  0.2436
  677THF     C910737   3.467   1.840   2.097 -0.1351  0.4672  0.3404
  677THF    H1010738   3.529   2.046   2.056 -0.1276  1.0846  0.6358
  677THF    H1110739   3.367   2.027   2.133 -0.6402 -0.8219 -2.4455
  677THF    H1210740   3.364   1.803   2.099  0.5109 -1.4090  1.9434
  677THF    H1310741   3.507   1.815   1.999  0.5596  0.9676  0.4912
  678THF     O110742   4.711   0.711   1.876  0.5702 -0.4954 -0.8771
  678THF     C210743   4.847   0.730   1.865  0.5202  0.0599 -0.0586
  678THF     C310744   4.643   0.831   1.828  0.8267  0.2251 -0.0687
  678THF     H410745   4.872   0.715   1.760  1.3304 -1.6253  0.3544
  678THF     H510746   4.908   0.661   1.923 -0.1067 -0.2622  0.2275
  678THF     H610747   4.644   0.832   1.719 -1.2538 -0.8125 -0.1525
  678THF     H710748   4.541   0.825   1.867  0.7954 -1.4004 -0.3435
  678THF     C810749   4.733   0.937   1.889 -0.5278 -1.2793 -0.2424
  678THF     C910750   4.872   0.873   1.905 -0.4711 -0.3004 -0.5385
  678THF    H1010751   4.696   0.960   1.989  1.2904  0.3660  0.1052
  678THF    H1110752   4.723   1.027   1.829 -2.3307 -1.2874 -0.0130
  678THF    H1210753   4.944   0.920   1.839 -0.0772 -0.5620 -0.2996
  678THF    H1310754   4.917   0.880   2.004 -1.0512 -2.7201 -0.0359
  679THF     O110755   4.519   2.630   4.395  0.3912  0.2180  0.1718
  679THF     C210756   4.636   2.556   4.414 -0.5733 -0.7219 -0.5574
  679THF     C310757   4.457   2.588   4.271  0.9305 -0.2280  0.0552
  679THF     H410758   4.621   2.498   4.505 -2.4876  1.2424  0.4890
  679THF     H510759   4.721   2.622   4.429 -1.6368  0.1996  1.8240
  679THF     H610760   4.349   2.589   4.287  1.1408 -1.0132  1.7311
  679THF     H710761   4.489   2.657   4.193 -1.5656  0.9500 -0.0470
  679THF     C810762   4.513   2.448   4.252  0.3155  0.4742  0.1160
  679THF     C910763   4.651   2.460   4.301 -0.0598 -0.1813 -0.2897
  679THF    H1010764   4.524   2.425   4.146 -0.3418 -1.6919  0.4655
  679THF    H1110765   4.456   2.371   4.305 -0.5370  1.6085  0.8916
  679THF    H1210766   4.691   2.365   4.336 -2.5623 -1.0677  0.3198
  679THF    H1310767   4.721   2.497   4.225 -1.5888  0.9615 -1.1916
  680THF     O110768   2.493   5.131   2.468 -0.1885 -0.1275 -0.6453
  680THF     C210769   2.606   5.196   2.425 -0.0400 -0.2796  0.1147
  680THF     C310770   2.448   5.204   2.582  0.5976 -0.0871 -0.5697
  680THF     H410771   2.629   5.154   2.327 -0.4829  0.5628 -0.3631
  680THF     H510772   2.699   5.183   2.480  0.1808  0.0087 -0.1870
  680THF     H610773   2.353   5.174   2.627  1.2679 -2.3986 -0.5987
  680THF     H710774   2.519   5.183   2.662 -0.4122 -0.7713  0.1634
  680THF     C810775   2.486   5.351   2.543  0.0237  0.3722 -0.7013
  680THF     C910776   2.564   5.345   2.417  0.0039 -0.3170 -0.1711
  680THF    H1010777   2.542   5.399   2.623 -0.4913  1.9559 -1.2485
  680THF    H1110778   2.407   5.424   2.526 -0.3781  0.0713 -0.1340
  680THF    H1210779   2.495   5.370   2.336 -1.0310  0.3331  0.8994
  680THF    H1310780   2.646   5.416   2.417  0.3499 -0.6883  1.3221
  681THF     O110781   4.444   0.917   0.250  0.9716 -0.3947 -0.3069
  681THF     C210782   4.340   0.847   0.303  0.1034 -0.1093 -1.1272
  681THF     C310783   4.542   0.934   0.355  0.5049  0.6840  0.4023
  681THF     H410784   4.357   0.740   0.319  0.0312  0.1500  0.9152
  681THF     H510785   4.250   0.855   0.242 -0.2309 -1.0950 -0.7764
  681THF     H610786   4.585   0.840   0.390  0.1138  0.9620  1.6962
  681THF     H710787   4.622   0.999   0.321 -0.0326  0.5835 -1.1238
  681THF     C810788   4.457   0.984   0.471 -0.4451 -0.3368 -0.4964
  681THF     C910789   4.327   0.915   0.443 -0.4142  0.8432  0.2922
  681THF    H1010790   4.452   1.093   0.469 -1.3785 -0.3452  0.2212
  681THF    H1110791   4.492   0.954   0.570 -3.7269 -0.2313  0.8254
  681THF    H1210792   4.291   0.853   0.526  0.9439 -1.1787 -0.5350
  681THF    H1310793   4.257   0.998   0.437  0.0197  1.0840 -2.1736
  682THF     O110794   0.775   2.722   3.434 -0.0064  0.3394  0.2011
  682THF     C210795   0.722   2.853   3.435 -0.7311  0.3036  0.3980
  682THF     C310796   0.878   2.713   3.535 -0.1973  0.2910 -0.4010
  682THF     H410797   0.619   2.863   3.403 -1.2404 -0.7950  1.6491
  682THF     H510798   0.781   2.906   3.360 -0.4564 -1.1974 -0.4931
  682THF     H610799   0.852   2.635   3.606 -0.9259  0.0294 -0.9377
  682THF     H710800   0.973   2.694   3.484 -0.2930  0.8961 -0.8164
  682THF     C810801   0.886   2.854   3.598  0.0520  0.1238 -0.1453
  682THF     C910802   0.751   2.920   3.564 -0.0025  0.6376  0.4748
  682THF    H1010803   0.956   2.910   3.536 -1.5235  1.9818 -0.3342
  682THF    H1110804   0.910   2.858   3.705  0.6672 -0.6511 -0.2427
  682THF    H1210805   0.674   2.891   3.635  0.6293  0.4773  1.1018
  682THF    H1310806   0.749   3.029   3.562  0.6717  0.6594 -1.4522
  683THF     O110807   5.194   0.171   0.664  0.4249 -0.0537 -0.8417
  683THF     C210808   5.300   0.160   0.582 -0.1854 -0.3197 -0.2854
  683THF     C310809   5.090   0.232   0.589 -0.6073 -0.2262  0.1352
  683THF     H410810   5.298   0.069   0.522  0.9135  0.1431 -1.0453
  683THF     H510811   5.389   0.144   0.642 -0.4517  1.2369  0.5834
  683THF     H610812   5.037   0.162   0.524  0.1724 -1.6634  1.0015
  683THF     H710813   5.013   0.285   0.645  1.5279  1.6271  1.4799
  683THF     C810814   5.164   0.343   0.514  0.3789 -0.2509  0.0592
  683THF     C910815   5.304   0.290   0.509  0.6171  0.2449 -0.0732
  683THF    H1010816   5.163   0.442   0.561  1.3998  0.3901 -1.1881
  683THF    H1110817   5.121   0.356   0.415 -1.0359  2.8338  0.9341
  683THF    H1210818   5.338   0.290   0.406  1.8715  0.6392  0.3288
  683THF    H1310819   5.368   0.340   0.582 -0.9718  0.1178  1.4911
  684THF     O110820   0.722   2.955   5.156  0.0286  0.0427  0.1932
  684THF     C210821   0.666   2.934   5.285  0.2394 -0.2320  1.1439
  684THF     C310822   0.860   2.958   5.180  0.1062  0.0743 -0.0558
  684THF     H410823   0.677   2.828   5.309  0.4221  0.0647  2.4675
  684THF     H510824   0.558   2.951   5.281  0.4475  0.9621 -0.0790
  684THF     H610825   0.904   2.859   5.171  1.8354  0.8697 -0.9032
  684THF     H710826   0.894   3.028   5.103  0.5355  0.8813  0.8490
  684THF     C810827   0.879   3.020   5.316 -0.6221 -0.2116 -0.0108
  684THF     C910828   0.742   3.025   5.381 -0.4439  0.1125 -0.4994
  684THF    H1010829   0.920   3.118   5.290 -0.0964 -0.6462 -0.8519
  684THF    H1110830   0.959   2.975   5.375  1.1603  1.2223 -1.2233
  684THF    H1210831   0.741   2.988   5.484 -0.6061 -0.4408 -0.6985
  684THF    H1310832   0.693   3.122   5.369 -1.6781 -0.5110 -0.7380
  685THF     O110833   2.526   3.062   1.060  0.2475 -0.4067 -0.2777
  685THF     C210834   2.520   2.922   1.078  0.2696 -0.1927  0.0104
  685THF     C310835   2.665   3.093   1.057 -0.1721  0.0881 -0.8431
  685THF     H410836   2.529   2.866   0.985  1.8880  0.9150 -0.5290
  685THF     H510837   2.429   2.892   1.130  0.2840 -2.1401 -0.9722
  685THF     H610838   2.701   3.067   0.957  2.0667  4.4035 -1.3886
  685THF     H710839   2.686   3.198   1.076  1.0143 -0.7224  3.2172
  685THF     C810840   2.718   3.005   1.164 -1.1583 -0.2358 -0.2803
  685THF     C910841   2.635   2.882   1.168  0.5279  0.3638 -0.1867
  685THF    H1010842   2.704   3.068   1.252 -2.6958  0.3605 -0.9291
  685THF    H1110843   2.823   2.981   1.147 -1.3537 -1.3568  0.0495
  685THF    H1210844   2.694   2.795   1.138 -1.0635 -0.4003 -1.2183
  685THF    H1310845   2.588   2.859   1.264  0.0693  2.2404  0.0784
  686THF     O110846   3.147   0.198   0.757  0.8995 -0.4685  0.7487
  686THF     C210847   3.223   0.200   0.874 -0.4283 -0.4118 -0.1839
  686THF     C310848   3.119   0.065   0.713 -0.0846 -0.2499 -0.5929
  686THF     H410849   3.170   0.253   0.954  1.7569 -0.9225  1.6927
  686THF     H510850   3.315   0.258   0.869 -0.8559  0.2584 -0.4806
  686THF     H610851   3.017   0.056   0.677  0.7000 -0.2838 -2.9386
  686THF     H710852   3.191   0.040   0.636  1.6313  1.1424  0.4755
  686THF     C810853   3.143  -0.025   0.839  0.1048  0.4704 -0.5319
  686THF     C910854   3.226   0.064   0.932  0.6459  0.2918  0.7006
  686THF    H1010855   3.185  -0.123   0.813 -3.2668 -1.3167  0.1867
  686THF    H1110856   3.047  -0.043   0.887  0.0677 -1.7447 -1.2916
  686THF    H1210857   3.179   0.070   1.030 -0.8137  2.1112 -0.0525
  686THF    H1310858   3.329   0.030   0.945  1.0332  1.2546  0.2336
  687THF     O110859   1.262   1.313   3.277  0.0686 -0.1642 -0.3852
  687THF     C210860   1.136   1.382   3.256  0.5630 -0.3012  0.2177
  687THF     C310861   1.355   1.417   3.260 -0.1909  0.5343  0.1397
  687THF     H410862   1.109   1.446   3.339 -1.4057  2.0834 -2.0666
  687THF     H510863   1.056   1.310   3.237 -2.9885  2.6105  2.7795
  687THF     H610864   1.375   1.469   3.354  1.6870 -1.0854  0.6988
  687THF     H710865   1.450   1.372   3.231  0.0645  1.7855 -1.0741
  687THF     C810866   1.294   1.514   3.158  0.0752 -0.4869 -0.3974
  687THF     C910867   1.159   1.458   3.128  0.2332  0.3057 -0.4262
  687THF    H1010868   1.362   1.530   3.074  0.9996  0.5010  0.5161
  687THF    H1110869   1.287   1.612   3.204 -1.9283 -0.2729 -1.0450
  687THF    H1210870   1.078   1.530   3.112 -2.6667 -1.7525  3.3779
  687THF    H1310871   1.157   1.393   3.041 -2.9327 -1.1930  0.6317
  688THF     O110872   4.919   2.883   4.170  0.4502 -0.0134 -0.0318
  688THF     C210873   4.790   2.826   4.186  1.0140  0.0709 -0.0660
  688THF     C310874   4.944   2.892   4.029  0.6032  0.8592  0.3559
  688THF     H410875   4.709   2.896   4.165  0.2707 -0.9143 -0.5465
  688THF     H510876   4.758   2.786   4.282 -1.8249 -0.0896 -0.9793
  688THF     H610877   4.909   2.990   3.998  1.7289  0.7808 -1.3656
  688THF     H710878   5.048   2.889   3.996  0.0559 -1.1620 -1.4027
  688THF     C810879   4.860   2.778   3.962 -0.0160 -0.0030  0.4667
  688THF     C910880   4.795   2.717   4.081  0.4815  0.0794 -0.0482
  688THF    H1010881   4.919   2.712   3.899  2.3458  1.5456  0.9129
  688THF    H1110882   4.786   2.828   3.899  1.7645 -0.2548 -1.9853
  688THF    H1210883   4.698   2.675   4.055  0.0048  1.3143 -0.3571
  688THF    H1310884   4.852   2.629   4.111  0.0011  0.2892  1.5467
  689THF     O110885   5.493   0.524   0.653  0.1200 -0.0659  0.9457
  689THF     C210886   5.614   0.470   0.700  0.3302 -0.3415  0.2680
  689THF     C310887   5.526   0.619   0.558 -0.3044 -0.1370  0.1376
  689THF     H410888   5.601   0.364   0.723 -1.5588 -0.0177  0.8810
  689THF     H510889   5.644   0.520   0.791 -0.1359  2.2922 -0.9276
  689THF     H610890   5.449   0.649   0.487  1.7011  1.7074 -1.4119
  689THF     H710891   5.569   0.710   0.600  1.6998 -1.5746  1.3878
  689THF     C810892   5.633   0.555   0.478  0.4100 -0.6985  0.4179
  689THF     C910893   5.716   0.486   0.581  0.0626  0.5860 -0.0644
  689THF    H1010894   5.690   0.641   0.440  1.1608 -1.7480 -0.9561
  689THF    H1110895   5.595   0.492   0.398 -1.5329  0.6305  0.2389
  689THF    H1210896   5.747   0.387   0.547 -1.2222 -0.2293  1.0657
  689THF    H1310897   5.801   0.543   0.619  0.0098  0.7809 -0.2329
  690THF     O110898   4.207   5.108   3.236 -0.1518 -0.5394 -0.3589
  690THF     C210899   4.142   5.226   3.295 -0.1780  0.6696 -0.1880
  690THF     C310900   4.315   5.151   3.152  0.3209 -0.1420 -0.3231
  690THF     H410901   4.176   5.230   3.398  0.8581 -1.8240 -0.3350
  690THF     H510902   4.034   5.218   3.298 -0.1568  0.0926 -0.5746
  690THF     H610903   4.396   5.080   3.172 -0.1548 -0.1904  1.6172
  690THF     H710904   4.298   5.126   3.047  0.6373 -2.5959  0.1527
  690THF     C810905   4.344   5.297   3.187  0.4430  0.1450 -0.6221
  690THF     C910906   4.204   5.343   3.217  1.1591 -0.2419 -0.4130
  690THF    H1010907   4.399   5.348   3.109  1.9010  0.9457  0.8770
  690THF    H1110908   4.408   5.290   3.275  1.2764  1.1927 -1.1262
  690THF    H1210909   4.198   5.442   3.261 -1.2511 -0.2699 -0.5067
  690THF    H1310910   4.142   5.344   3.127 -1.2437 -0.8072  1.1305
  691THF     O110911   4.405   0.530   1.705 -0.5279  0.1145 -0.5005
  691THF     C210912   4.491   0.436   1.774  0.0977  0.2956 -0.2674
  691THF     C310913   4.321   0.595   1.812  0.2839 -0.4449 -0.3214
  691THF     H410914   4.577   0.490   1.811  0.6681 -0.0273 -1.0838
  691THF     H510915   4.511   0.352   1.707  0.1544  0.4661 -0.4650
  691THF     H610916   4.380   0.672   1.862 -1.9053  0.4614  1.0308
  691THF     H710917   4.232   0.646   1.774  0.9607  0.8985 -0.1633
  691THF     C810918   4.283   0.484   1.907  0.4582  0.3587  0.5301
  691THF     C910919   4.403   0.384   1.896  0.0968 -0.7803  0.2220
  691THF    H1010920   4.198   0.426   1.871  1.3115  0.0287 -1.0403
  691THF    H1110921   4.266   0.521   2.008 -0.5757  1.5312 -0.0441
  691THF    H1210922   4.458   0.396   1.990  1.9585  1.0124 -1.0114
  691THF    H1310923   4.373   0.282   1.871 -0.0193 -0.4190 -1.1845
  692THF     O110924   0.241   3.114   4.360  0.1551  0.5257  0.4755
  692THF     C210925   0.258   3.220   4.450  0.2009 -0.1647  0.1386
  692THF     C310926   0.234   2.998   4.439 -0.4855  0.1906 -0.3714
  692THF     H410927   0.177   3.292   4.434 -1.4102 -1.7011  1.0473
  692THF     H510928   0.352   3.271   4.430 -0.8054  2.0210  0.6462
  692THF     H610929   0.129   2.967   4.446 -0.3249 -0.0077  2.5865
  692THF     H710930   0.296   2.927   4.385  1.3394  0.5094  1.2048
  692THF     C810931   0.302   3.025   4.572 -0.5227 -0.2924  0.7402
  692THF     C910932   0.257   3.169   4.591 -0.6856  0.8407 -0.1513
  692THF    H1010933   0.410   3.015   4.564 -0.3833 -0.4202  2.5189
  692THF    H1110934   0.260   2.964   4.652 -0.8731  0.6459  1.2846
  692THF    H1210935   0.158   3.170   4.638 -0.3882 -1.9090  0.7054
  692THF    H1310936   0.322   3.231   4.652 -0.2898 -1.9130  2.4587
  693THF     O110937   0.697   3.425   0.399  0.2295  0.4967 -0.2292
  693THF     C210938   0.640   3.302   0.435  1.0133  1.0472  0.4777
  693THF     C310939   0.837   3.423   0.429 -0.6308  0.0068  0.1261
  693THF     H410940   0.658   3.226   0.359 -0.1934  0.6905  0.5328
  693THF     H510941   0.535   3.303   0.463  0.6772 -2.1592 -0.3074
  693THF     H610942   0.884   3.384   0.339 -0.6392  2.6149 -1.1045
  693THF     H710943   0.882   3.520   0.453  1.8441 -1.2306  0.8309
  693THF     C810944   0.848   3.326   0.555 -0.6702  0.2386 -0.0947
  693THF     C910945   0.708   3.255   0.567 -0.4441 -0.3861 -0.0711
  693THF    H1010946   0.876   3.384   0.643 -0.4993 -2.2769  1.6389
  693THF    H1110947   0.924   3.249   0.537  0.7758  1.1649  1.7492
  693THF    H1210948   0.706   3.146   0.559 -1.1127 -0.4147  0.4030
  693THF    H1310949   0.653   3.291   0.654 -2.6441 -1.8992 -0.7669
  694THF     O110950   1.854   5.219   0.268 -0.3538 -0.8527 -0.6434
  694THF     C210951   1.732   5.142   0.246  0.6040 -0.1302 -0.3749
  694THF     C310952   1.897   5.265   0.144  0.8616 -0.1300 -0.1547
  694THF     H410953   1.691   5.133   0.347 -0.0351 -0.4006 -0.6586
  694THF     H510954   1.746   5.040   0.211  1.5419 -0.2562  0.3178
  694THF     H610955   1.930   5.369   0.146 -0.4755  0.3492 -1.4219
  694THF     H710956   1.984   5.211   0.106  0.9706 -0.2427  0.2414
  694THF     C810957   1.773   5.264   0.053 -0.0355 -0.3672  1.0631
  694THF     C910958   1.662   5.229   0.144  0.0244  0.5702  0.5104
  694THF    H1010959   1.778   5.191  -0.027  1.0416 -1.1095  1.7787
  694THF    H1110960   1.748   5.361   0.010 -1.6976 -1.1596  0.1454
  694THF    H1210961   1.618   5.320   0.185 -0.3971  1.4040 -1.6398
  694THF    H1310962   1.583   5.169   0.098 -1.2619  2.6179 -0.0557
  695THF     O110963   1.407   2.600   1.604 -0.2110 -0.7113  0.1688
  695THF     C210964   1.302   2.504   1.563 -0.0734  0.0558 -0.2019
  695THF     C310965   1.518   2.577   1.522 -0.1812 -0.0128 -0.2314
  695THF     H410966   1.249   2.526   1.470 -2.8819 -1.6130  0.8807
  695THF     H510967   1.231   2.489   1.643  0.8001 -1.8584  0.2597
  695THF     H610968   1.505   2.615   1.421 -2.3163  1.3809  0.5036
  695THF     H710969   1.598   2.635   1.569 -0.9654  0.5419  0.4505
  695THF     C810970   1.532   2.427   1.525  0.1540  0.3017 -0.0132
  695THF     C910971   1.389   2.379   1.545 -0.7807 -0.3227  0.0107
  695THF    H1010972   1.596   2.394   1.607 -1.3901  0.0588  1.1328
  695THF    H1110973   1.578   2.392   1.433 -0.8289  1.9391 -1.1866
  695THF    H1210974   1.362   2.315   1.461 -2.4256  0.8437 -0.3802
  695THF    H1310975   1.396   2.316   1.634  0.2137 -1.8596 -1.1074
  696THF     O110976   0.750   0.299   0.589 -0.7179 -0.3161  0.6146
  696THF     C210977   0.635   0.360   0.526  0.7561  0.6050  0.5347
  696THF     C310978   0.867   0.389   0.598  0.4445 -0.2500  0.0773
  696THF     H410979   0.558   0.376   0.601 -1.0016  0.8720 -1.2282
  696THF     H510980   0.606   0.293   0.445  2.2665  1.2529 -0.6122
  696THF     H610981   0.908   0.387   0.699 -1.0215 -1.5733  0.6913
  696THF     H710982   0.938   0.363   0.520 -0.4402  0.6476 -1.0594
  696THF     C810983   0.808   0.527   0.557  1.0115 -0.6523  0.0968
  696THF     C910984   0.692   0.489   0.465 -0.0442 -0.8626 -0.5017
  696THF    H1010985   0.874   0.602   0.514  0.0094 -1.7146 -3.6635
  696THF    H1110986   0.766   0.564   0.651  0.6267 -0.8432  0.0028
  696THF    H1210987   0.621   0.572   0.468  2.8716  1.8433 -0.7371
  696THF    H1310988   0.732   0.464   0.367  1.4099 -0.5128 -0.0201
  697THF     O110989   4.037   5.030   3.583 -0.0566  0.5118  0.2886
  697THF     C210990   3.907   5.067   3.536 -0.1027  0.3258 -0.0365
  697THF     C310991   4.003   4.936   3.688 -0.7479  0.0058  0.3370
  697THF     H410992   3.914   5.119   3.440 -0.9552 -2.1103 -1.5250
  697THF     H510993   3.868   5.133   3.613  0.5313  0.5322  0.1089
  697THF     H610994   4.091   4.874   3.707 -0.6929  0.7234  2.7292
  697THF     H710995   3.967   4.985   3.778 -1.9129  0.4676 -0.3615
  697THF     C810996   3.893   4.848   3.631  0.3171 -0.1179  0.5530
  697THF     C910997   3.814   4.943   3.542 -0.3364  0.4786 -0.0349
  697THF    H1010998   3.831   4.801   3.707 -1.3486  0.1820 -0.5706
  697THF    H1110999   3.932   4.767   3.570 -0.6143 -1.0772  1.1958
  697THF    H1211000   3.798   4.916   3.438  1.4000 -0.2621 -0.1472
  697THF    H1311001   3.718   4.970   3.587  0.2690  1.8047  0.5090
  698THF     O111002   2.908   4.893   1.314  0.2433  0.4303  0.6330
  698THF     C211003   3.026   4.921   1.381  0.0401  0.7644 -0.9072
  698THF     C311004   2.800   4.874   1.403 -0.5385  0.4842  0.1332
  698THF     H411005   3.037   5.029   1.396 -2.1491  1.2815 -2.4520
  698THF     H511006   3.117   4.888   1.331 -0.0999  0.3002 -0.8569
  698THF     H611007   2.767   4.970   1.442 -2.1148 -0.6648  1.7638
  698THF     H711008   2.715   4.818   1.363 -2.6695  2.9405  0.9649
  698THF     C811009   2.864   4.800   1.518 -0.6088 -0.1982  0.0550
  698THF     C911010   3.013   4.828   1.499  0.3576  0.0945  0.8806
  698THF    H1011011   2.837   4.694   1.511  0.2855 -0.4168 -0.3054
  698THF    H1111012   2.830   4.842   1.612 -2.8238  1.0412 -1.2144
  698THF    H1211013   3.056   4.871   1.590 -2.7085  1.1326  1.9684
  698THF    H1311014   3.059   4.735   1.464 -2.3424 -0.3674 -1.9082
  699THF     O111015   2.914   2.324   1.337  0.1678  0.0092  0.3775
  699THF     C211016   3.020   2.359   1.433  0.0241 -0.1921  0.3877
  699THF     C311017   2.960   2.348   1.209 -0.2606 -0.4098 -0.0978
  699THF     H411018   3.018   2.295   1.521 -0.5125  0.3334  0.7624
  699THF     H511019   3.013   2.460   1.472  0.8739  0.2478 -0.5506
  699THF     H611020   2.920   2.275   1.138 -0.2355 -0.9419  0.4210
  699THF     H711021   2.922   2.446   1.181 -1.1336 -0.4762  0.7886
  699THF     C811022   3.116   2.346   1.216 -0.1238  0.1362 -0.1588
  699THF     C911023   3.154   2.347   1.364  0.1299  0.1310  0.0666
  699THF    H1011024   3.152   2.437   1.167  1.2515  0.8563  2.0231
  699THF    H1111025   3.152   2.253   1.174 -2.0827 -0.6429 -0.2095
  699THF    H1211026   3.194   2.249   1.390 -1.5407 -0.8978 -1.0210
  699THF    H1311027   3.226   2.421   1.401  1.4128 -0.3701 -1.3347
  700THF     O111028   3.429   0.929   4.838  0.1270 -0.0877  0.0275
  700THF     C211029   3.507   1.002   4.743  0.0982 -1.0219 -0.1106
  700THF     C311030   3.419   1.009   4.960  0.0907 -0.0086  0.0351
  700THF     H411031   3.473   0.967   4.645 -0.2501  1.6217 -1.0134
  700THF     H511032   3.610   0.972   4.760  0.7008  0.7763 -0.3716
  700THF     H611033   3.333   0.977   5.018  0.1393 -1.3557 -0.5958
  700THF     H711034   3.496   0.974   5.030 -2.1034 -1.4400  1.8939
  700THF     C811035   3.421   1.157   4.919  0.3834 -0.2305 -0.3081
  700THF     C911036   3.483   1.151   4.780  0.1073 -0.1414 -0.1787
  700THF    H1011037   3.487   1.222   4.977  2.5165 -1.1146 -1.6181
  700THF    H1111038   3.326   1.210   4.923  1.2746  1.5220 -1.0383
  700THF    H1211039   3.405   1.180   4.709  0.4901  1.0527 -0.1320
  700THF    H1311040   3.571   1.216   4.783  0.0051 -0.0300  1.8648
  701THF     O111041   2.843   1.751   3.648  0.3215 -0.0722  0.6563
  701THF     C211042   2.877   1.795   3.513 -0.8570  0.4186  0.8701
  701THF     C311043   2.828   1.868   3.718  0.0044 -0.0739 -0.2022
  701THF     H411044   2.781   1.810   3.465  0.2241  0.4783 -1.3949
  701THF     H511045   2.936   1.724   3.455  0.6403  1.6838  0.7999
  701THF     H611046   2.738   1.924   3.690 -0.3341 -1.0740 -1.1950
  701THF     H711047   2.841   1.839   3.822  0.3918  0.6818 -0.0321
  701THF     C811048   2.940   1.960   3.674  0.2403 -0.3524  0.5310
  701THF     C911049   2.962   1.918   3.534  0.2597 -0.1790  0.7759
  701THF    H1011050   3.029   1.944   3.735  0.3717 -0.6354  0.2687
  701THF    H1111051   2.913   2.065   3.676  0.6982 -0.2136 -0.2144
  701THF    H1211052   2.924   2.000   3.472 -0.1429  0.1226  1.4149
  701THF    H1311053   3.069   1.906   3.517  0.6610  2.1367  1.2537
  702THF     O111054   2.744   2.581   4.329 -0.2536 -0.0717 -0.4887
  702THF     C211055   2.835   2.542   4.429  0.2778  0.3031  0.1259
  702THF     C311056   2.778   2.707   4.283 -1.3104  0.1357 -0.5092
  702THF     H411057   2.918   2.500   4.373 -1.1666  1.2550 -2.9462
  702THF     H511058   2.796   2.474   4.505 -3.4957 -0.0687 -1.8894
  702THF     H611059   2.866   2.709   4.218 -0.1894  1.3149  0.9936
  702THF     H711060   2.689   2.746   4.232 -2.1850 -1.9571 -0.7096
  702THF     C811061   2.805   2.778   4.408 -0.0877 -0.3504  0.3700
  702THF     C911062   2.868   2.675   4.499 -0.3235  0.5971  0.5190
  702THF    H1011063   2.715   2.814   4.459 -0.4789 -1.2957  0.3854
  702THF    H1111064   2.869   2.862   4.382 -2.4962  0.7821 -2.4002
  702THF    H1211065   2.975   2.696   4.512 -0.5118  3.1038 -1.3515
  702THF    H1311066   2.820   2.680   4.597 -1.2072  2.2137  0.0420
  703THF     O111067   2.231   3.988   4.692  0.0773 -0.7107  0.3711
  703THF     C211068   2.215   3.856   4.731  0.6514 -0.3061  0.0501
  703THF     C311069   2.192   4.000   4.554 -0.6611  0.6137  0.0008
  703THF     H411070   2.112   3.828   4.753  1.5972 -2.1271  2.6821
  703THF     H511071   2.265   3.829   4.824  4.0527 -1.3463 -1.8826
  703THF     H611072   2.083   3.999   4.556 -0.6574  0.4964  0.1659
  703THF     H711073   2.233   4.091   4.509  0.0297 -0.5856 -1.8912
  703THF     C811074   2.265   3.880   4.489  0.3157 -0.1422 -0.1636
  703THF     C911075   2.271   3.782   4.611  0.5272 -0.1988 -0.1291
  703THF    H1011076   2.360   3.921   4.453  0.0966 -0.8821 -1.6180
  703THF    H1111077   2.210   3.832   4.409 -0.9207 -1.5261  1.4608
  703THF    H1211078   2.202   3.701   4.591 -0.7670  0.6734  0.6176
  703THF    H1311079   2.368   3.735   4.627  0.2498 -1.5596 -2.1399
  704THF     O111080   5.121   4.081   2.053 -0.3317 -0.1042  0.4109
  704THF     C211081   4.990   4.055   2.107 -0.7082  0.3499  1.1230
  704THF     C311082   5.112   4.095   1.915 -0.7263 -0.8178 -0.1507
  704THF     H411083   4.942   4.152   2.116 -0.2941  0.6199  0.4339
  704THF     H511084   4.981   3.999   2.201  1.2840  0.4033  1.3976
  704THF     H611085   5.077   4.198   1.908  1.8828  0.4252  2.5807
  704THF     H711086   5.209   4.093   1.864 -0.2566  0.2497  0.6512
  704THF     C811087   5.019   3.987   1.869 -0.5185  0.4316  0.0829
  704THF     C911088   4.932   3.966   1.997  0.0848 -0.6792 -0.6121
  704THF    H1011089   5.075   3.894   1.864  0.3830  0.9196  0.8238
  704THF    H1111090   4.970   3.999   1.773  0.5237 -1.2756 -0.7087
  704THF    H1211091   4.827   3.990   1.978  0.4693  2.4076  0.5835
  704THF    H1311092   4.937   3.863   2.033  2.1382 -0.5794 -0.5063
  705THF     O111093   1.065   0.180   4.024  0.2928  0.3959  0.2318
  705THF     C211094   1.012   0.309   3.994  0.0372 -0.2387  0.6440
  705THF     C311095   0.949   0.111   4.077  0.0146  0.4388  0.6091
  705THF     H411096   1.078   0.374   3.936  0.1868  1.4880  2.6355
  705THF     H511097   0.986   0.370   4.080 -2.2849 -0.6121  0.2599
  705THF     H611098   0.966   0.006   4.057  1.2748  0.9444 -1.1626
  705THF     H711099   0.954   0.107   4.186  1.5855 -1.5211  0.5153
  705THF     C811100   0.826   0.176   4.014 -0.0496  0.5715  0.2560
  705THF     C911101   0.886   0.267   3.914 -0.1888 -0.3621 -0.7406
  705THF    H1011102   0.761   0.232   4.081  0.6302  1.3538  0.2751
  705THF    H1111103   0.776   0.098   3.957  0.5413  0.4166 -0.0634
  705THF    H1211104   0.916   0.215   3.823  2.5016  1.0372 -0.7485
  705THF    H1311105   0.814   0.348   3.901 -0.6449 -0.3813  1.3039
  706THF     O111106   3.190   0.385   1.427  0.8582  0.7845  0.2731
  706THF     C211107   3.133   0.266   1.357 -0.6414 -0.1607  0.4605
  706THF     C311108   3.194   0.347   1.561  0.7214 -0.0333 -0.0451
  706THF     H411109   3.171   0.250   1.256  0.1713  1.7716  0.4199
  706THF     H511110   3.025   0.253   1.357 -0.7554  0.5355 -1.4616
  706THF     H611111   3.257   0.420   1.612 -1.3753  1.5907  0.3506
  706THF     H711112   3.097   0.359   1.608  1.0289  0.5393  0.4529
  706THF     C811113   3.229   0.201   1.565 -0.2536 -0.0077 -0.1298
  706THF     C911114   3.195   0.142   1.426 -0.5586  0.1944  0.8103
  706THF    H1011115   3.176   0.164   1.653 -0.0365  3.3876  1.5839
  706THF    H1111116   3.335   0.184   1.582 -0.6387 -1.7187  0.8179
  706THF    H1211117   3.287   0.107   1.380 -0.8724 -0.5252  0.7301
  706THF    H1311118   3.120   0.064   1.431  0.1083 -0.9023 -3.1859
  707THF     O111119   1.349   0.858   1.385  0.8897  0.0865  0.4550
  707THF     C211120   1.355   0.715   1.377  0.3004 -0.1944 -0.0285
  707THF     C311121   1.289   0.904   1.264 -1.2579 -0.1342 -0.4942
  707THF     H411122   1.257   0.676   1.405 -1.1961  4.0689  1.6007
  707THF     H511123   1.425   0.679   1.452 -1.2838  1.6883  2.5444
  707THF     H611124   1.181   0.912   1.262 -1.3628 -1.4635 -0.9944
  707THF     H711125   1.317   1.009   1.248 -0.3545 -0.4764 -1.3017
  707THF     C811126   1.326   0.811   1.152  0.1957 -0.0575 -0.2204
  707THF     C911127   1.400   0.701   1.232 -0.4338 -0.0703 -0.0186
  707THF    H1011128   1.400   0.860   1.088  0.1750  1.4411  0.8520
  707THF    H1111129   1.243   0.781   1.088 -2.7194  1.5088  2.5628
  707THF    H1211130   1.380   0.599   1.198  0.5330 -0.6455  1.0853
  707THF    H1311131   1.507   0.719   1.229 -0.5812  0.7970 -1.9625
  708THF     O111132   4.344   3.762   5.406  0.3750  0.2714  0.0250
  708THF     C211133   4.295   3.759   5.274  0.6263  0.0119  0.5856
  708THF     C311134   4.266   3.675   5.491 -0.8032 -0.6496 -0.0726
  708THF     H411135   4.372   3.802   5.210 -0.0547 -1.2241 -1.1105
  708THF     H511136   4.200   3.812   5.271  0.4950 -0.2707 -0.6557
  708THF     H611137   4.332   3.626   5.562 -2.3476  0.3439  2.1696
  708THF     H711138   4.188   3.732   5.541 -0.7084 -1.2733  0.8042
  708THF     C811139   4.208   3.574   5.391 -0.8166 -0.2270 -0.9893
  708THF     C911140   4.250   3.622   5.258 -0.8306  0.6204 -0.4544
  708THF    H1011141   4.100   3.584   5.392 -0.7699  0.5503 -1.9692
  708THF    H1111142   4.240   3.474   5.420  2.0147  0.5921 -0.9171
  708THF    H1211143   4.341   3.566   5.236 -0.4497  1.2948 -0.6369
  708THF    H1311144   4.181   3.602   5.176 -0.6457  0.2236 -0.5168
  709THF     O111145   1.229   0.482   3.266  0.1274  1.1283 -0.1189
  709THF     C211146   1.200   0.555   3.145 -0.0032 -0.0502  0.1096
  709THF     C311147   1.304   0.363   3.212 -0.1040  0.0776 -0.0845
  709THF     H411148   1.286   0.614   3.113 -2.3814  2.6241 -1.7758
  709THF     H511149   1.114   0.621   3.159  0.0785  0.4315 -1.4885
  709THF     H611150   1.401   0.409   3.198 -0.0353 -0.2307 -0.6524
  709THF     H711151   1.307   0.282   3.285 -1.2404 -0.4994 -0.6421
  709THF     C811152   1.233   0.325   3.083 -0.8575 -0.5740  0.0399
  709THF     C911153   1.175   0.459   3.033  0.0804 -0.0092 -0.4115
  709THF    H1011154   1.151   0.255   3.098  0.6485 -2.3381  0.4110
  709THF    H1111155   1.290   0.280   3.002 -0.3185  1.1790 -0.6062
  709THF    H1211156   1.229   0.489   2.943 -0.4801 -0.6268 -0.9673
  709THF    H1311157   1.071   0.445   3.003 -0.0182 -0.5396  0.1710
  710THF     O111158   2.046   2.740   3.805 -0.2836 -0.5844  0.6600
  710THF     C211159   2.150   2.837   3.845 -0.1261  0.0632  0.1944
  710THF     C311160   2.074   2.721   3.670  0.1431 -1.1485 -0.4490
  710THF     H411161   2.244   2.783   3.850 -0.4736 -0.4806  1.2901
  710THF     H511162   2.124   2.876   3.944  0.3331  1.2768 -0.1432
  710THF     H611163   2.162   2.657   3.665  0.9257 -0.0221 -2.2502
  710THF     H711164   1.999   2.657   3.623 -1.1564  0.4216 -0.6459
  710THF     C811165   2.108   2.863   3.610 -0.2968  0.0245  0.2244
  710THF     C911166   2.155   2.938   3.734  0.0052 -0.5893 -0.1542
  710THF    H1011167   2.019   2.910   3.568 -1.7225 -1.4073  1.5329
  710THF    H1111168   2.182   2.849   3.531 -0.7228  0.4227 -0.2501
  710THF    H1211169   2.247   2.992   3.710 -0.7818 -0.0661 -2.2696
  710THF    H1311170   2.083   3.018   3.754  1.2799  1.2540 -2.3670
  711THF     O111171   3.934   4.306   4.856  0.4685 -0.3301  0.3902
  711THF     C211172   3.861   4.425   4.898 -0.0014 -0.1034  0.4767
  711THF     C311173   4.011   4.348   4.739  0.2761  0.1603 -0.8473
  711THF     H411174   3.930   4.490   4.952  3.5279 -1.3512 -2.1352
  711THF     H511175   3.775   4.409   4.962 -0.9291  0.0133 -0.7012
  711THF     H611176   4.097   4.415   4.750 -0.2973  1.7095 -4.3681
  711THF     H711177   4.046   4.260   4.685  2.1627  0.5790 -0.3975
  711THF     C811178   3.917   4.437   4.654 -0.0582  0.5539 -0.4583
  711THF     C911179   3.818   4.490   4.761 -0.8894  1.2063 -0.4816
  711THF    H1011180   3.863   4.376   4.582 -0.7255  0.6468 -0.0450
  711THF    H1111181   3.970   4.516   4.601  0.4114  0.0660 -0.7159
  711THF    H1211182   3.809   4.598   4.778 -0.6349  1.0923  0.4109
  711THF    H1311183   3.718   4.451   4.746 -0.4269  0.0767 -0.7173
  712THF     O111184   5.137   3.217   3.177 -0.3337 -0.1961  0.1233
  712THF     C211185   5.141   3.353   3.141  0.9954 -0.0929 -0.1699
  712THF     C311186   5.006   3.190   3.215 -0.0294  0.1106 -0.3612
  712THF     H411187   5.226   3.376   3.077  1.0299 -1.2647 -0.5718
  712THF     H511188   5.137   3.424   3.224 -0.3608 -1.4945  1.0377
  712THF     H611189   4.995   3.082   3.219 -2.5754  0.3595  3.2441
  712THF     H711190   4.968   3.214   3.314  0.6912  0.0792 -0.0661
  712THF     C811191   4.917   3.258   3.114  0.0521 -0.5114 -0.1170
  712THF     C911192   5.011   3.365   3.060  0.5490 -0.3658  0.3064
  712THF    H1011193   4.826   3.300   3.157  0.3289  0.7803 -0.7393
  712THF    H1111194   4.880   3.183   3.045 -0.9925  0.4844 -0.6786
  712THF    H1211195   5.022   3.356   2.952 -2.1821  1.3180 -0.1997
  712THF    H1311196   4.976   3.468   3.070 -0.9259 -0.9528  1.5804
  713THF     O111197   2.786   5.463   3.682  0.2426 -0.4999  0.1504
  713THF     C211198   2.882   5.362   3.683 -0.0969 -0.4285 -0.4716
  713THF     C311199   2.861   5.573   3.622  0.0677  0.0778 -0.4947
  713THF     H411200   2.882   5.313   3.585  2.8143 -0.9538 -0.3060
  713THF     H511201   2.856   5.281   3.752  3.6013 -1.1098  0.3450
  713THF     H611202   2.856   5.557   3.515 -3.0811  0.1176 -0.4459
  713THF     H711203   2.809   5.667   3.641  1.5939  0.7682  0.5101
  713THF     C811204   3.001   5.572   3.681  0.5351 -0.0996 -0.1382
  713THF     C911205   3.017   5.428   3.720 -0.4036  0.0299  0.4062
  713THF    H1011206   3.010   5.633   3.770 -1.2962 -0.5245  0.3894
  713THF    H1111207   3.077   5.607   3.611  0.1787  0.9961  0.0099
  713THF    H1211208   3.107   5.394   3.669  0.4078  0.5394  1.4532
  713THF    H1311209   3.022   5.423   3.829 -1.2867  0.8760  0.4985
  714THF     O111210   3.941   1.929   1.383  0.2885 -0.6164  0.6972
  714THF     C211211   3.843   1.951   1.283  0.5429  0.3275  0.0908
  714THF     C311212   3.990   2.058   1.431 -0.4975  0.5342  0.1565
  714THF     H411213   3.745   1.966   1.328 -0.1728 -0.5921 -1.1338
  714THF     H511214   3.836   1.866   1.216 -0.6760  1.0139 -0.6769
  714THF     H611215   3.962   2.072   1.535  1.0738  0.2157  0.6517
  714THF     H711216   4.099   2.057   1.423 -0.3381 -3.7180  0.5005
  714THF     C811217   3.932   2.163   1.337 -0.1421  0.3183  0.1821
  714THF     C911218   3.891   2.083   1.221 -0.3540 -0.4562 -0.2311
  714THF    H1011219   4.000   2.244   1.310  0.3891  0.3888  1.6310
  714THF    H1111220   3.847   2.214   1.382  1.1290  2.6317  0.0868
  714THF    H1211221   3.802   2.125   1.174 -0.2709 -2.7826 -2.6689
  714THF    H1311222   3.968   2.084   1.144 -0.3846  0.9066 -0.2727
  715THF     O111223   2.022   3.628   1.167  0.1290 -0.2369 -0.1212
  715THF     C211224   2.070   3.760   1.163 -0.1619 -0.0430  0.0823
  715THF     C311225   2.048   3.571   1.290  0.1682  0.3012 -0.8886
  715THF     H411226   1.997   3.823   1.213 -0.1485  0.0800 -0.0510
  715THF     H511227   2.080   3.805   1.064 -0.2066 -1.8085 -0.7670
  715THF     H611228   1.967   3.606   1.354  0.0995  0.1380 -0.8847
  715THF     H711229   2.046   3.462   1.289  0.2963  0.2605  0.5992
  715THF     C811230   2.180   3.637   1.339  0.2925  0.6839  0.6043
  715THF     C911231   2.195   3.756   1.252 -0.9799  0.8926  0.3473
  715THF    H1011232   2.266   3.574   1.321  0.4001  0.5334  1.5889
  715THF    H1111233   2.167   3.670   1.442 -0.4390  0.9252  0.4463
  715THF    H1211234   2.208   3.846   1.313 -0.0020 -0.4270  2.1526
  715THF    H1311235   2.290   3.756   1.199  0.3806  0.4176  2.6483
  716THF     O111236   3.223   4.598   5.151  0.4766  0.6050  0.0745
  716THF     C211237   3.251   4.678   5.270  0.4766  0.7416 -0.0138
  716THF     C311238   3.150   4.484   5.194 -0.7265 -0.1764 -0.8591
  716THF     H411239   3.282   4.778   5.241 -0.6140  1.7928  2.2213
  716THF     H511240   3.336   4.628   5.316 -1.6116 -1.1480  2.0203
  716THF     H611241   3.069   4.454   5.127 -2.6394  0.5576  1.0303
  716THF     H711242   3.211   4.394   5.201 -1.7798 -0.8054  0.8024
  716THF     C811243   3.082   4.515   5.328 -0.7571  0.2261  0.1582
  716THF     C911244   3.123   4.661   5.348  0.4488 -0.0578  0.6266
  716THF    H1011245   3.121   4.444   5.401  0.5120 -0.0727 -0.7647
  716THF    H1111246   2.975   4.495   5.327 -0.6260 -0.6765  1.5517
  716THF    H1211247   3.046   4.720   5.297  0.4818 -0.4678  0.0939
  716THF    H1311248   3.125   4.704   5.449 -1.8742 -3.3005  2.2268
  717THF     O111249   2.110   0.489   4.820  0.5830 -0.0513 -0.2964
  717THF     C211250   2.001   0.548   4.753 -0.5137  0.1550  0.1428
  717THF     C311251   2.090   0.349   4.812  0.6063  0.0349  0.3462
  717THF     H411252   2.029   0.645   4.712 -1.2740 -0.4560 -1.9812
  717THF     H511253   1.910   0.560   4.813 -2.5757  1.5315 -2.9629
  717THF     H611254   2.172   0.287   4.849 -0.5341 -0.7347  1.6961
  717THF     H711255   2.008   0.336   4.882 -0.0469  1.2285 -0.1839
  717THF     C811256   2.039   0.315   4.672 -0.2885  0.2041 -0.0782
  717THF     C911257   1.957   0.449   4.644 -0.9881  0.3262  0.6752
  717THF    H1011258   1.973   0.231   4.692  0.6909 -0.0574  2.4599
  717THF    H1111259   2.116   0.291   4.599 -1.3069 -3.9833  0.0094
  717THF    H1211260   1.985   0.489   4.547 -0.6252  0.3120  0.7725
  717THF    H1311261   1.854   0.424   4.667 -1.1142  0.5486  0.3499
  718THF     O111262   1.425   1.706   5.101  0.0546  0.5009  0.4824
  718THF     C211263   1.391   1.804   5.005  0.6058  0.7001 -0.0545
  718THF     C311264   1.493   1.773   5.209  0.1544  0.0630 -0.3816
  718THF     H411265   1.318   1.780   4.928  1.7176 -0.2755 -0.8479
  718THF     H511266   1.478   1.850   4.958  0.0276  1.6226 -0.2478
  718THF     H611267   1.499   1.718   5.303  0.1849 -0.8933 -0.9257
  718THF     H711268   1.595   1.806   5.192  0.4932 -0.1095  1.1761
  718THF     C811269   1.394   1.888   5.227  0.3547 -0.3788  0.9203
  718THF     C911270   1.325   1.913   5.091  0.3300 -0.1433 -1.0568
  718THF    H1011271   1.444   1.981   5.253 -1.4377  1.0425 -0.4261
  718THF    H1111272   1.320   1.873   5.306  0.4615 -0.8787  0.9278
  718THF    H1211273   1.216   1.910   5.102  0.5334  0.5855  2.2717
  718THF    H1311274   1.346   2.009   5.045  1.5382 -0.4668 -1.2247
  719THF     O111275   3.946   4.954   0.100  0.1503  0.4180  0.1075
  719THF     C211276   3.992   5.032   0.209  0.0709 -0.1893  0.0053
  719THF     C311277   4.055   4.934   0.014 -0.5715  0.7020 -0.5147
  719THF     H411278   4.008   4.961   0.290 -1.6979  0.8804  1.3776
  719THF     H511279   3.916   5.103   0.244  1.1095  2.2263 -2.2619
  719THF     H611280   4.122   4.856   0.050 -1.1976  1.1026  1.6688
  719THF     H711281   4.004   4.907  -0.078 -0.5897  0.4997 -0.4452
  719THF     C811282   4.124   5.069   0.024 -0.0493 -0.1376  0.8736
  719THF     C911283   4.115   5.096   0.174 -0.6973 -0.4585  0.7819
  719THF    H1011284   4.061   5.147  -0.018  0.0271 -0.6639 -0.2506
  719THF    H1111285   4.223   5.076  -0.020 -0.3784  1.0236  0.2884
  719THF    H1211286   4.207   5.054   0.216  0.3922  1.2112  0.1639
  719THF    H1311287   4.113   5.201   0.203  1.1393 -0.0837 -0.3099
  720THF     O111288   2.308   2.502   2.703 -0.8309 -0.0273 -0.4825
  720THF     C211289   2.410   2.593   2.717  0.0214 -0.1872 -0.9647
  720THF     C311290   2.258   2.513   2.572  0.1408  0.3729  0.4436
  720THF     H411291   2.483   2.540   2.778  1.1206  1.1639 -1.0645
  720THF     H511292   2.376   2.686   2.762 -1.1097  0.1801 -2.4829
  720THF     H611293   2.204   2.427   2.534  1.1247  0.3120 -0.8753
  720THF     H711294   2.189   2.598   2.569  0.1752  0.4709  1.6697
  720THF     C811295   2.383   2.549   2.486  0.5736  0.2210 -0.0603
  720THF     C911296   2.470   2.628   2.582  0.4366 -0.4369  0.6891
  720THF    H1011297   2.360   2.608   2.397 -0.0351 -0.9037 -0.6687
  720THF    H1111298   2.435   2.459   2.452  1.8929  1.1769 -0.6461
  720THF    H1211299   2.577   2.612   2.567  1.0785  1.7677  2.3327
  720THF    H1311300   2.465   2.736   2.567 -0.0900 -0.6798 -1.1056
  721THF     O111301   2.823   0.020   2.244  0.2891  0.2077  0.6920
  721THF     C211302   2.912  -0.090   2.258 -0.6644 -1.0949  0.7463
  721THF     C311303   2.839   0.074   2.114  0.3499 -0.5165 -0.0498
  721THF     H411304   2.901  -0.156   2.344  0.5621 -0.3520  1.5097
  721THF     H511305   3.016  -0.058   2.249 -0.3532 -1.3464  2.8386
  721THF     H611306   2.749   0.129   2.086 -0.0245 -0.9516  0.2858
  721THF     H711307   2.924   0.140   2.123  0.3012 -0.3352 -0.8618
  721THF     C811308   2.863  -0.055   2.035  0.2015 -0.5042 -1.2316
  721THF     C911309   2.870  -0.171   2.135 -0.4161  0.1854  0.1746
  721THF    H1011310   2.963  -0.052   1.990 -0.3554 -0.6481 -2.5333
  721THF    H1111311   2.803  -0.053   1.944 -1.2622  1.0685 -0.2926
  721THF    H1211312   2.780  -0.232   2.143 -1.0110  1.1512  0.9912
  721THF    H1311313   2.953  -0.240   2.117 -1.5567 -0.9355 -1.0306
  722THF     O111314   0.372   0.634   1.840  0.0631 -0.1264  0.1297
  722THF     C211315   0.306   0.515   1.845 -0.4381  0.2055  0.6230
  722THF     C311316   0.462   0.636   1.951 -0.4014 -0.3227 -0.4023
  722THF     H411317   0.375   0.440   1.806 -0.0548  2.2859 -3.1858
  722THF     H511318   0.218   0.507   1.780 -1.4082  0.5556  1.8598
  722THF     H611319   0.555   0.585   1.929  0.3273  0.8473 -0.1646
  722THF     H711320   0.497   0.734   1.986 -1.5810 -0.1752  0.4431
  722THF     C811321   0.382   0.556   2.058 -0.6704 -0.4271  0.6018
  722THF     C911322   0.260   0.497   1.987 -1.3891 -0.7700  0.7406
  722THF    H1011323   0.350   0.622   2.139  0.8105  1.0102  0.0930
  722THF    H1111324   0.449   0.484   2.106 -0.0046 -0.1658  0.0810
  722THF    H1211325   0.260   0.395   2.024  1.0444 -0.1660  2.6313
  722THF    H1311326   0.173   0.558   2.012 -1.2024  0.2981 -1.0134
  723THF     O111327   4.645   3.686   0.998 -0.4375  0.7628  0.0202
  723THF     C211328   4.645   3.797   1.082  0.3392 -0.2804 -0.7576
  723THF     C311329   4.507   3.671   0.959 -0.2918  0.2239  0.2818
  723THF     H411330   4.708   3.880   1.051 -2.0791  1.5773 -1.0187
  723THF     H511331   4.688   3.777   1.181 -0.3578  3.6876  0.5162
  723THF     H611332   4.502   3.640   0.855  1.1771  0.8982 -0.0268
  723THF     H711333   4.464   3.590   1.017  0.6101 -0.0207  0.6400
  723THF     C811334   4.441   3.808   0.960  0.1953  0.9172  0.0667
  723THF     C911335   4.501   3.849   1.085 -0.9840 -0.6796 -0.1597
  723THF    H1011336   4.332   3.797   0.965  0.4182 -2.0398 -0.0153
  723THF    H1111337   4.467   3.851   0.864 -0.7497  0.6402 -0.3274
  723THF    H1211338   4.499   3.958   1.094 -0.3086 -0.8282  3.4915
  723THF    H1311339   4.463   3.808   1.179  3.3569  0.3347  2.3541
  724THF     O111340   1.791   2.632   3.452 -0.0561 -0.0225  0.0968
  724THF     C211341   1.701   2.702   3.366 -0.0591 -0.1249  0.0683
  724THF     C311342   1.746   2.498   3.471 -0.3958 -0.2487 -0.6256
  724THF     H411343   1.740   2.788   3.311  0.1690 -0.0890  0.2899
  724THF     H511344   1.618   2.733   3.430 -0.5170  1.2370 -1.1248
  724THF     H611345   1.839   2.452   3.505  0.4123 -0.0570 -2.4700
  724THF     H711346   1.681   2.487   3.558  1.3245 -3.1445  0.4573
  724THF     C811347   1.704   2.452   3.335  0.0881  0.3147 -0.4156
  724THF     C911348   1.657   2.582   3.280  0.1075 -0.2806  0.1649
  724THF    H1011349   1.637   2.367   3.352 -0.8142  0.8948 -0.9465
  724THF    H1111350   1.793   2.417   3.284 -1.5726 -1.7173 -2.1422
  724THF    H1211351   1.683   2.599   3.176 -0.5305 -0.5564 -0.0475
  724THF    H1311352   1.548   2.573   3.284  0.1762 -1.8948 -0.9211
  725THF     O111353   1.482   1.935   0.271  0.3076 -0.2157 -0.2405
  725THF     C211354   1.594   1.871   0.204 -0.1770 -0.1407  0.3193
  725THF     C311355   1.374   1.834   0.284 -0.4347  0.2468  0.0117
  725THF     H411356   1.641   1.809   0.280  0.7622  1.5512  1.1815
  725THF     H511357   1.673   1.932   0.161 -0.7339 -0.7751 -1.7337
  725THF     H611358   1.392   1.766   0.367 -1.9917  0.1052  0.2667
  725THF     H711359   1.269   1.862   0.296 -0.4798 -0.2257  0.7954
  725THF     C811360   1.381   1.763   0.147 -0.9157  0.4911 -0.1972
  725THF     C911361   1.521   1.791   0.092  0.3007 -0.5653  0.1174
  725THF    H1011362   1.296   1.792   0.084 -1.3378  0.9712  0.5828
  725THF    H1111363   1.371   1.656   0.165 -0.0797  0.0320 -2.1173
  725THF    H1211364   1.571   1.697   0.065  0.3714 -0.5787  0.2932
  725THF    H1311365   1.517   1.855   0.004  1.4033  0.7572  0.9898
  726THF     O111366   1.756   3.130   4.148  0.2870 -0.2770 -0.0441
  726THF     C211367   1.820   3.052   4.248  0.2322  0.3585 -0.9167
  726THF     C311368   1.721   3.049   4.042  0.8345 -0.0252 -0.7693
  726THF     H411369   1.748   2.995   4.308  1.3680 -1.3402 -1.0906
  726THF     H511370   1.882   3.114   4.313  0.6650  1.6457 -2.5042
  726THF     H611371   1.646   2.974   4.068  0.9820  0.4856  1.3532
  726THF     H711372   1.677   3.102   3.958  0.4656  2.1169  0.6824
  726THF     C811373   1.860   2.994   4.023 -1.1136 -0.1306  0.4360
  726THF     C911374   1.912   2.960   4.167  0.0448 -0.1322  0.4866
  726THF    H1011375   1.929   3.065   3.978  0.8935 -1.6900  0.8998
  726THF    H1111376   1.859   2.916   3.947 -1.1827 -1.3512  1.6483
  726THF    H1211377   1.898   2.856   4.196  0.0991  0.6177  3.5064
  726THF    H1311378   2.015   2.989   4.189 -1.0080  3.2155  1.7267
  727THF     O111379   0.434   5.242   3.123 -0.1735 -0.4392  0.9240
  727THF     C211380   0.572   5.217   3.133  0.1929 -0.0257  0.2911
  727THF     C311381   0.413   5.366   3.186 -0.1153  0.0305  0.4804
  727THF     H411382   0.590   5.130   3.070 -1.9139  0.3256 -0.8983
  727THF     H511383   0.611   5.193   3.232  2.5940 -1.1559 -0.8432
  727THF     H611384   0.326   5.408   3.136 -2.4487 -3.9459  0.7888
  727THF     H711385   0.392   5.339   3.289 -1.4990  0.1985  0.2584
  727THF     C811386   0.538   5.449   3.155  0.2382  0.4459  0.3409
  727THF     C911387   0.637   5.356   3.089 -0.3840 -0.3212 -0.0363
  727THF    H1011388   0.567   5.497   3.248 -0.3475 -1.6457  1.6590
  727THF    H1111389   0.516   5.532   3.088  2.4682  0.5395 -0.3399
  727THF    H1211390   0.614   5.379   2.985  1.2969 -1.0620 -0.6121
  727THF    H1311391   0.744   5.368   3.108  0.2882 -2.5195 -1.9117
  728THF     O111392   0.010   0.927   3.979  0.0706  0.5228 -0.5815
  728THF     C211393   0.148   0.897   3.982  0.1659  0.5927  0.1819
  728THF     C311394  -0.000   1.064   4.013 -0.1800 -0.3623 -0.1899
  728THF     H411395   0.175   0.817   3.912  1.7558  1.6498 -0.4728
  728THF     H511396   0.191   0.889   4.081  0.0746  1.2694  0.2814
  728THF     H611397  -0.100   1.103   3.991  0.0925  0.7208  0.4343
  728THF     H711398   0.023   1.066   4.120  3.0954  1.0719 -0.8094
  728THF     C811399   0.114   1.132   3.946 -0.2626  0.0813  0.6002
  728THF     C911400   0.211   1.017   3.915 -0.0488 -0.0411 -0.2741
  728THF    H1011401   0.163   1.201   4.014  0.1011  1.9715 -1.4349
  728THF    H1111402   0.095   1.169   3.845  0.0331 -0.4770  0.3338
  728THF    H1211403   0.209   1.004   3.807 -1.7603 -2.6560  0.0071
  728THF    H1311404   0.309   1.050   3.951 -0.9001  1.1873  1.0190
  729THF     O111405   4.440   5.319   1.008  0.1477  0.2369  0.7871
  729THF     C211406   4.462   5.351   0.871  0.0802 -0.6551 -0.1241
  729THF     C311407   4.328   5.382   1.056 -0.4175 -0.3144  0.2635
  729THF     H411408   4.384   5.311   0.806 -2.0030  1.8715  0.6393
  729THF     H511409   4.559   5.315   0.837 -0.2305 -4.2792  2.2263
  729THF     H611410   4.253   5.318   1.010  0.0424  0.3214 -1.4284
  729THF     H711411   4.321   5.386   1.165 -0.0618 -0.3832  0.2896
  729THF     C811412   4.331   5.518   0.981  0.6965  0.1633  0.5375
  729THF     C911413   4.441   5.502   0.875 -0.8419  0.7915 -0.0150
  729THF    H1011414   4.357   5.597   1.051  0.3689  1.5248 -0.8216
  729THF    H1111415   4.239   5.548   0.930  0.6978  1.7727  1.4413
  729THF    H1211416   4.434   5.551   0.778 -0.8422  0.2977 -0.2671
  729THF    H1311417   4.524   5.554   0.922 -0.7468  2.5765 -2.0054
  730THF     O111418   3.365   3.126   2.295  0.3508  0.3621  0.6960
  730THF     C211419   3.342   2.993   2.344  0.3335 -0.6496  0.1116
  730THF     C311420   3.417   3.202   2.408 -1.0857 -0.2869  0.1386
  730THF     H411421   3.395   2.935   2.269 -1.4857  0.7387 -2.4016
  730THF     H511422   3.237   2.963   2.335  0.3137 -1.1587  1.7889
  730THF     H611423   3.525   3.211   2.406 -1.2008  1.2082 -0.7640
  730THF     H711424   3.368   3.299   2.411 -0.2077  0.1338  2.1425
  730THF     C811425   3.369   3.119   2.534  0.0113  0.1692 -0.7502
  730THF     C911426   3.385   2.981   2.491 -0.2746 -0.9370 -0.2328
  730THF    H1011427   3.262   3.130   2.550  0.1063  1.4051 -0.8147
  730THF    H1111428   3.423   3.140   2.626 -2.4489 -1.5738  1.2154
  730THF    H1211429   3.483   2.940   2.515  0.6784 -0.1529 -2.4829
  730THF    H1311430   3.311   2.922   2.544 -0.5730 -0.7336 -0.4227
  731THF     O111431   1.479   0.023   0.505  0.0685  0.2904  0.2286
  731THF     C211432   1.559  -0.062   0.584 -0.0047  0.4966  0.6978
  731THF     C311433   1.552   0.148   0.497 -0.0619 -0.0131  0.3569
  731THF     H411434   1.524  -0.166   0.580 -2.1408  1.1819 -0.0898
  731THF     H511435   1.561  -0.033   0.688  4.2066  0.4939  0.7783
  731THF     H611436   1.509   0.208   0.417  2.4639 -1.4593 -2.3041
  731THF     H711437   1.538   0.197   0.594 -1.1492 -0.9289  0.6787
  731THF     C811438   1.692   0.102   0.463 -0.2428  0.2348 -0.1223
  731THF     C911439   1.703  -0.033   0.530  0.7602  0.8775  0.0951
  731THF    H1011440   1.781   0.158   0.488  0.9787 -1.9330  0.6413
  731THF    H1111441   1.696   0.089   0.355 -1.0422  0.0464 -0.1372
  731THF    H1211442   1.734  -0.120   0.472  2.6392  2.0917 -0.8526
  731THF    H1311443   1.775  -0.017   0.611  1.4791  1.4433 -0.6324
  732THF     O111444   1.831   2.986   4.656  0.0396 -0.3350 -0.0508
  732THF     C211445   1.702   2.938   4.618 -0.6778  0.3399  0.0569
  732THF     C311446   1.922   2.881   4.654  0.4277  0.9647  0.0001
  732THF     H411447   1.659   2.992   4.534 -0.5906 -0.3523 -0.4372
  732THF     H511448   1.631   2.945   4.701 -0.5967 -1.5968  0.3462
  732THF     H611449   1.983   2.880   4.563  0.6695  0.9606  0.1602
  732THF     H711450   1.993   2.885   4.737 -0.7721 -0.6387  1.1597
  732THF     C811451   1.841   2.753   4.656  0.4868 -0.3316  0.0601
  732THF     C911452   1.718   2.790   4.580 -1.1198 -0.3094  0.6171
  732THF    H1011453   1.806   2.713   4.752 -0.6698 -0.2798 -0.3193
  732THF    H1111454   1.899   2.669   4.619  0.1104 -0.5557 -0.0222
  732THF    H1211455   1.737   2.792   4.473  0.1901  2.4518  0.8009
  732THF    H1311456   1.634   2.722   4.596 -1.2508 -0.0477  1.0686
  733THF     O111457   1.960   4.209   5.085 -0.0691 -0.1039  0.4107
  733THF     C211458   2.019   4.081   5.112 -0.0189  0.9297 -0.1293
  733THF     C311459   1.926   4.226   4.942  0.2136 -0.1512 -0.2786
  733THF     H411460   1.947   3.999   5.122 -1.0307  1.9435  1.3386
  733THF     H511461   2.085   4.078   5.199 -1.1808 -0.9918  0.7707
  733THF     H611462   1.819   4.226   4.923  0.0939  4.9980 -0.9321
  733THF     H711463   1.955   4.322   4.899  0.5836 -0.8414 -1.6129
  733THF     C811464   1.990   4.118   4.870  0.2276  0.7842 -0.2998
  733THF     C911465   2.093   4.058   4.973 -0.1390 -0.3640  0.1547
  733THF    H1011466   2.039   4.154   4.779  1.7417  1.1136  0.5951
  733THF    H1111467   1.923   4.035   4.848  0.3787  0.2722  1.0177
  733THF    H1211468   2.117   3.952   4.961  0.8203 -0.1089 -0.2059
  733THF    H1311469   2.182   4.121   4.972 -1.1584  1.1349 -0.0161
  734THF     O111470   1.775   4.567   3.969 -0.9943  0.0389  0.7072
  734THF     C211471   1.690   4.585   4.080 -0.0874 -0.2622  0.5229
  734THF     C311472   1.824   4.693   3.930 -0.1021 -0.3036 -0.4010
  734THF     H411473   1.673   4.493   4.135  1.0811 -2.2428 -2.1917
  734THF     H511474   1.591   4.616   4.044 -0.3840  0.3383  1.8002
  734THF     H611475   1.896   4.693   3.848  0.0496 -0.0459 -0.2696
  734THF     H711476   1.744   4.753   3.885  1.4270  1.3310 -1.0415
  734THF     C811477   1.858   4.754   4.056 -0.1359 -0.6516  0.8420
  734THF     C911478   1.762   4.694   4.157 -0.6250  0.1595  0.2313
  734THF    H1011479   1.845   4.862   4.050  1.3421 -0.4500  0.8632
  734THF    H1111480   1.962   4.750   4.089  0.3029 -1.1369 -0.5287
  734THF    H1211481   1.815   4.663   4.248 -1.9523 -1.6567  0.4355
  734THF    H1311482   1.693   4.772   4.190 -1.4745  0.9021 -3.0078
  735THF     O111483   2.410   3.348   1.332 -0.2514 -0.5635  0.7289
  735THF     C211484   2.308   3.266   1.274  0.0108 -0.4745 -0.1941
  735THF     C311485   2.491   3.263   1.414 -0.2691  0.3309 -0.5906
  735THF     H411486   2.319   3.256   1.166  0.7045  2.6311 -0.5037
  735THF     H511487   2.220   3.327   1.297  1.3416  0.7581  1.9828
  735THF     H611488   2.572   3.210   1.364 -0.6796 -0.0598 -0.8528
  735THF     H711489   2.534   3.319   1.496 -1.8039  0.4369  0.1816
  735THF     C811490   2.392   3.160   1.468  0.1186  0.6281  0.2406
  735THF     C911491   2.308   3.130   1.346 -0.0857  0.1695  0.1315
  735THF    H1011492   2.332   3.219   1.538  1.0609  1.5157  0.3160
  735THF    H1111493   2.442   3.076   1.517  1.0418  1.0764  0.0803
  735THF    H1211494   2.350   3.049   1.286 -0.5815  1.0290 -1.4236
  735THF    H1311495   2.206   3.099   1.365 -0.6060  1.4541 -0.4856
  736THF     O111496   2.645   2.611   1.480 -0.1891  0.3943 -1.2610
  736THF     C211497   2.737   2.718   1.495 -0.2719  0.6134 -0.3442
  736THF     C311498   2.696   2.496   1.549  0.3033  0.1729  0.2630
  736THF     H411499   2.704   2.816   1.459 -0.7729  0.1572 -1.1792
  736THF     H511500   2.818   2.687   1.429  1.8332  1.4478  1.7075
  736THF     H611501   2.619   2.430   1.589 -0.4172  0.7624 -0.1163
  736THF     H711502   2.751   2.431   1.481  0.2723 -1.3080  1.5935
  736THF     C811503   2.784   2.545   1.660 -0.0467  0.2342  0.2481
  736THF     C911504   2.786   2.694   1.637 -0.4876 -0.0316  0.2290
  736THF    H1011505   2.882   2.500   1.649 -0.9603 -1.8518  0.3029
  736THF    H1111506   2.749   2.517   1.759  0.3733 -1.1207  0.0338
  736THF    H1211507   2.719   2.750   1.703  1.1418 -0.0495  1.9828
  736THF    H1311508   2.886   2.724   1.666 -1.2826  0.3468  2.9055
  737THF     O111509   0.784   4.901   5.372 -0.7806 -0.1889  0.1432
  737THF     C211510   0.677   4.823   5.315  0.3863  0.5216 -0.1700
  737THF     C311511   0.790   4.881   5.512 -0.7076  0.1379  0.1470
  737THF     H411512   0.710   4.758   5.234 -0.2061 -0.0942  0.0590
  737THF     H511513   0.590   4.882   5.287 -1.0451 -1.6865 -0.7181
  737THF     H611514   0.891   4.887   5.552 -0.1600  1.8121 -1.3584
  737THF     H711515   0.731   4.966   5.547  0.1831  1.9951 -2.4930
  737THF     C811516   0.731   4.744   5.531  0.3107  0.0217 -0.6084
  737THF     C911517   0.623   4.737   5.427 -0.4212  0.4607 -0.4974
  737THF    H1011518   0.707   4.709   5.632 -0.1360 -1.4485 -1.1911
  737THF    H1111519   0.807   4.670   5.509 -0.1951 -0.7641  0.2028
  737THF    H1211520   0.611   4.634   5.394 -0.2424  0.3202 -0.1275
  737THF    H1311521   0.528   4.777   5.462  0.2917 -0.2395  2.5509
  738THF     O111522   3.216   1.440   2.130 -0.3220 -0.2206  0.0803
  738THF     C211523   3.215   1.498   2.004  0.2011 -0.1194  0.1661
  738THF     C311524   3.109   1.353   2.150  0.2245 -0.9594 -0.7194
  738THF     H411525   3.242   1.426   1.927 -4.4678 -1.4223 -0.5552
  738THF     H511526   3.270   1.592   1.999  0.5809 -0.2674  1.3292
  738THF     H611527   3.149   1.253   2.141  1.3015 -0.6146  0.0452
  738THF     H711528   3.077   1.382   2.251  0.9400 -0.2849 -0.6819
  738THF     C811529   3.015   1.387   2.044  0.5998 -0.6660  0.6041
  738THF     C911530   3.062   1.516   1.977  0.4583  0.8297  0.3841
  738THF    H1011531   2.911   1.395   2.078 -0.1279  0.8019 -1.7229
  738THF    H1111532   3.018   1.299   1.979 -0.8310 -0.7595  0.6138
  738THF    H1211533   3.047   1.525   1.870 -1.5642 -0.8882  0.4646
  738THF    H1311534   3.021   1.597   2.039 -1.5380  1.0036 -1.0805
  739THF     O111535   1.496   2.854   0.874 -0.2160 -0.2347  0.0642
  739THF     C211536   1.468   2.994   0.888 -0.6127  0.5285 -0.5318
  739THF     C311537   1.383   2.781   0.829 -0.6955  0.1264  0.3060
  739THF     H411538   1.543   3.066   0.859  0.3022 -0.3914 -0.5165
  739THF     H511539   1.439   3.018   0.990 -0.9436  0.4872 -0.6139
  739THF     H611540   1.397   2.681   0.788  0.5529  0.8136 -1.0970
  739THF     H711541   1.311   2.783   0.910  0.3615  3.2984  1.3049
  739THF     C811542   1.327   2.879   0.734 -0.4258  0.5833 -0.4156
  739THF     C911543   1.355   3.015   0.798 -0.0991 -0.1611  0.5010
  739THF    H1011544   1.225   2.851   0.709  0.4637 -2.2906 -1.2963
  739THF    H1111545   1.383   2.867   0.641  2.8401  1.1221  1.3362
  739THF    H1211546   1.386   3.092   0.727  1.5715 -0.9944  0.2723
  739THF    H1311547   1.267   3.050   0.852 -0.5233  0.3406 -0.4839
  740THF     O111548   1.622   5.314   2.154 -0.6858  0.4165  0.6096
  740THF     C211549   1.670   5.180   2.141 -0.9961 -0.1662  0.0769
  740THF     C311550   1.476   5.314   2.130  0.2935  0.3045 -0.2792
  740THF     H411551   1.772   5.160   2.174 -0.7226  0.4716 -0.3666
  740THF     H511552   1.658   5.136   2.042  2.9433 -0.9419 -0.2212
  740THF     H611553   1.426   5.398   2.179  1.0938  1.1334 -0.8610
  740THF     H711554   1.458   5.311   2.022 -1.0550  2.5317 -0.1802
  740THF     C811555   1.440   5.176   2.196 -0.5255  0.1738 -0.0180
  740THF     C911556   1.571   5.104   2.227  0.1022 -0.1607  0.4976
  740THF    H1011557   1.389   5.107   2.128 -1.0726 -0.3408  0.8795
  740THF    H1111558   1.376   5.191   2.283  0.6026 -1.3610  1.1203
  740THF    H1211559   1.593   5.124   2.332  1.8360  1.2692 -0.0788
  740THF    H1311560   1.564   4.997   2.209  0.9378 -0.0501 -0.6188
  741THF     O111561   2.547   2.981   4.236  0.4834 -0.4109 -0.4695
  741THF     C211562   2.592   2.969   4.099 -0.5918  0.9236  0.0217
  741THF     C311563   2.408   3.007   4.239  0.4194 -0.5024 -0.2506
  741THF     H411564   2.634   2.870   4.077  1.7194  2.2621 -2.0608
  741THF     H511565   2.664   3.041   4.062 -0.1420  1.0154  1.0741
  741THF     H611566   2.346   2.919   4.250 -0.4578  0.0349 -0.7634
  741THF     H711567   2.384   3.062   4.330 -1.0681 -1.8345  0.1939
  741THF     C811568   2.379   3.074   4.106  0.0299  0.8106  0.1775
  741THF     C911569   2.467   2.993   4.015 -0.1937  0.1430 -0.0946
  741THF    H1011570   2.412   3.178   4.112  1.0093  0.5238 -0.0984
  741THF    H1111571   2.271   3.060   4.095 -0.3360  0.2405  3.5354
  741THF    H1211572   2.415   2.899   3.997 -2.0111  0.8997  0.8346
  741THF    H1311573   2.484   3.045   3.921 -0.6502 -0.4335 -0.4999
  742THF     O111574   0.877   3.552   4.392  0.0851  0.0082  0.1616
  742THF     C211575   1.005   3.576   4.440 -0.4281  0.4887 -0.0941
  742THF     C311576   0.796   3.665   4.419  0.6606 -0.2295 -0.2995
  742THF     H411577   1.037   3.655   4.373 -0.2749  0.5544  0.0560
  742THF     H511578   1.078   3.496   4.442  0.3425  1.1351 -1.4609
  742THF     H611579   0.826   3.742   4.348  1.1315 -0.1275  0.0061
  742THF     H711580   0.688   3.649   4.413  0.6358  0.2012 -1.3375
  742THF     C811581   0.844   3.698   4.555  0.2557 -0.1006 -0.3254
  742THF     C911582   0.984   3.641   4.576  0.3732  0.3529  0.4835
  742THF    H1011583   0.783   3.652   4.632  1.3564 -0.5303  0.3141
  742THF    H1111584   0.843   3.806   4.575  1.4290  0.1531 -1.4780
  742THF    H1211585   1.066   3.708   4.603  0.4226 -0.4507  2.5108
  742THF    H1311586   0.972   3.565   4.653 -2.2179 -0.1482 -0.3327
  743THF     O111587   3.309   5.065   5.031 -0.1324 -0.0472  0.6815
  743THF     C211588   3.258   5.199   5.026  0.4450  0.8475  0.6963
  743THF     C311589   3.202   4.973   5.026  0.6719 -0.1532  0.4366
  743THF     H411590   3.341   5.268   5.018  1.8938 -0.7134  1.5612
  743THF     H511591   3.199   5.206   5.118 -0.1738 -1.9778  0.6116
  743THF     H611592   3.239   4.873   5.002 -0.0547 -0.8064  1.8434
  743THF     H711593   3.162   4.964   5.128  1.1666  0.5590  0.6966
  743THF     C811594   3.107   5.043   4.928  0.1062 -0.1111 -0.0138
  743THF     C911595   3.174   5.180   4.895  0.4752 -0.1620 -0.0194
  743THF    H1011596   3.011   5.068   4.971  0.2546  2.9690 -1.2308
  743THF    H1111597   3.095   4.989   4.833 -0.8559  0.0618 -0.0019
  743THF    H1211598   3.245   5.179   4.813  0.1556  0.2419 -0.3046
  743THF    H1311599   3.114   5.271   4.895 -0.3305 -0.6601 -1.5554
  744THF     O111600   3.186   0.817   1.836 -0.0137 -0.0772 -0.2703
  744THF     C211601   3.136   0.773   1.711 -0.5025 -0.0604  0.0876
  744THF     C311602   3.310   0.747   1.860  0.7301 -0.7981 -0.6365
  744THF     H411603   3.066   0.846   1.671  0.0691 -0.0727 -0.9765
  744THF     H511604   3.086   0.677   1.701 -1.2186  0.5018 -2.5370
  744THF     H611605   3.374   0.808   1.924 -1.6107  1.4323 -0.2555
  744THF     H711606   3.285   0.655   1.911 -0.7983  0.2810  0.6656
  744THF     C811607   3.376   0.722   1.727 -0.0906  0.2293 -0.0537
  744THF     C911608   3.268   0.749   1.630  0.1193  0.4079 -0.4472
  744THF    H1011609   3.419   0.622   1.716 -0.2809  0.2660 -1.2887
  744THF    H1111610   3.462   0.790   1.730  1.4340 -1.5846 -0.3159
  744THF    H1211611   3.286   0.835   1.566  0.3616 -0.4759 -1.6107
  744THF    H1311612   3.250   0.663   1.566  0.1787 -0.1211  0.2332
  745THF     O111613   2.758   0.695   4.101  0.3069 -0.2729  0.1655
  745THF     C211614   2.813   0.765   4.212  0.2686 -0.5973  0.6646
  745THF     C311615   2.846   0.706   3.993 -0.4455 -0.3251 -0.2035
  745THF     H411616   2.753   0.738   4.299 -0.7720 -1.2988 -0.2426
  745THF     H511617   2.794   0.872   4.200 -0.0765 -0.8021 -0.8421
  745THF     H611618   2.825   0.635   3.913 -1.3703  0.1237 -0.3708
  745THF     H711619   2.827   0.803   3.946 -0.8361 -1.1562 -1.8515
  745THF     C811620   2.990   0.707   4.051  0.5559 -0.8331  0.4652
  745THF     C911621   2.962   0.726   4.200  0.4539  0.4710  0.2472
  745THF    H1011622   3.049   0.795   4.029  0.2099 -0.3116  1.5542
  745THF    H1111623   3.049   0.619   4.023  0.8377 -0.5937  0.3062
  745THF    H1211624   2.976   0.632   4.252 -4.0457 -0.3925  0.2900
  745THF    H1311625   3.022   0.806   4.245 -1.1926  1.5097  0.7161
  746THF     O111626   1.146   0.776   3.796 -0.0132 -0.0876  0.4845
  746THF     C211627   1.090   0.688   3.705 -0.1347  0.4802  0.5412
  746THF     C311628   1.119   0.722   3.924  0.6323 -0.0310 -0.6549
  746THF     H411629   1.154   0.602   3.687  0.7613  0.6657  2.6178
  746THF     H511630   1.078   0.746   3.613  0.5534  2.6768  1.7615
  746THF     H611631   1.186   0.636   3.931  0.5359 -0.0540 -0.0113
  746THF     H711632   1.139   0.791   4.006 -1.0428 -0.6748  0.3241
  746THF     C811633   0.973   0.676   3.915  0.1113 -0.3193 -0.2382
  746THF     C911634   0.956   0.642   3.767  0.4957  0.5409 -0.4292
  746THF    H1011635   0.896   0.751   3.931 -0.7859 -1.1152 -0.7953
  746THF    H1111636   0.944   0.597   3.984  0.3029 -0.3489 -0.1905
  746THF    H1211637   0.949   0.533   3.757  0.9428  0.4437  0.2034
  746THF    H1311638   0.867   0.691   3.728  0.0818  1.9288  2.0352
  747THF     O111639   3.208   0.357   3.823  0.1111  0.3016 -0.2577
  747THF     C211640   3.330   0.432   3.799  0.4337  0.2996  0.7068
  747THF     C311641   3.235   0.265   3.931  0.3090  0.1373  0.5516
  747THF     H411642   3.298   0.528   3.757 -0.4912 -0.4139 -0.2803
  747THF     H511643   3.390   0.393   3.716 -0.4710  1.4062 -0.5249
  747THF     H611644   3.171   0.292   4.015  2.1996 -0.4719  2.2890
  747THF     H711645   3.218   0.159   3.913 -1.7199  0.3331  1.0999
  747THF     C811646   3.385   0.285   3.968  0.5207  0.3889 -0.3499
  747THF     C911647   3.411   0.422   3.929  0.0347 -0.5108  0.2988
  747THF    H1011648   3.452   0.214   3.919  2.1767  1.9110 -0.3819
  747THF    H1111649   3.382   0.263   4.075 -0.5916 -1.3133 -0.6881
  747THF    H1211650   3.368   0.484   4.008  0.4929  0.0247  0.1283
  747THF    H1311651   3.515   0.453   3.916 -0.3974  1.8095  1.8719
  748THF     O111652   1.108   2.535   3.279  0.0498  0.2474 -0.4233
  748THF     C211653   1.050   2.408   3.254  0.6779  0.3132  0.5768
  748THF     C311654   1.047   2.632   3.200 -0.0297  0.3284  0.2275
  748THF     H411655   0.947   2.408   3.290  0.7428  1.7884  0.8132
  748THF     H511656   1.098   2.326   3.306  0.0705 -1.7568 -1.9115
  748THF     H611657   0.958   2.668   3.251 -0.2307  0.6378 -0.3306
  748THF     H711658   1.094   2.724   3.164  0.0364 -0.1553 -0.9937
  748THF     C811659   1.010   2.552   3.074  0.3253 -0.5688  0.2877
  748THF     C911660   1.052   2.409   3.099 -0.0853  0.0245 -0.1935
  748THF    H1011661   1.053   2.588   2.980 -1.2844 -1.3483 -0.7885
  748THF    H1111662   0.903   2.541   3.056  0.4754 -2.1343  0.2109
  748THF    H1211663   0.986   2.341   3.044 -0.1245  0.9720 -1.3619
  748THF    H1311664   1.153   2.395   3.062 -0.6635 -0.5168 -1.6506
  749THF     O111665   5.346   5.210   2.724  0.0789 -0.3584  0.0160
  749THF     C211666   5.237   5.186   2.813  0.4625  0.1968 -1.1095
  749THF     C311667   5.424   5.310   2.784 -0.0951  0.1052  0.0198
  749THF     H411668   5.273   5.109   2.882 -0.9011  0.0269 -0.5567
  749THF     H511669   5.145   5.138   2.780  0.4708 -1.1657  0.7067
  749THF     H611670   5.494   5.259   2.850 -1.1103  0.4108  1.3954
  749THF     H711671   5.485   5.366   2.714  0.7120  1.4264  1.6912
  749THF     C811672   5.334   5.393   2.875  0.2868 -0.2984 -0.0077
  749THF     C911673   5.199   5.322   2.871 -0.4414  0.2934 -0.2284
  749THF    H1011674   5.311   5.493   2.840 -3.4222 -1.3997 -1.2503
  749THF    H1111675   5.363   5.402   2.980 -1.9562 -1.3666  0.7854
  749THF    H1211676   5.171   5.307   2.975 -2.9462 -2.5862 -1.1691
  749THF    H1311677   5.129   5.365   2.800  0.8849 -2.6608 -3.6376
  750THF     O111678   0.892   3.752   5.169 -0.2995 -0.3697 -0.4079
  750THF     C211679   0.801   3.730   5.065  0.1266  0.7609 -0.1112
  750THF     C311680   1.026   3.708   5.145 -0.1121  0.5220 -0.1712
  750THF     H411681   0.732   3.815   5.064  1.5868  2.0100  0.6372
  750THF     H511682   0.763   3.628   5.073 -0.8492  1.2114  1.6715
  750THF     H611683   1.101   3.753   5.211  0.4134  0.3968 -0.6712
  750THF     H711684   1.034   3.600   5.152  2.1356  0.5827 -0.8851
  750THF     C811685   1.034   3.752   5.000  0.3128 -0.1554 -0.6749
  750THF     C911686   0.888   3.736   4.936  0.0777 -0.3712 -0.6748
  750THF    H1011687   1.110   3.695   4.947 -0.5291 -2.7178  0.6644
  750THF    H1111688   1.069   3.855   4.996  1.5988 -0.4087  1.8652
  750THF    H1211689   0.877   3.826   4.876 -1.2319 -0.0806 -0.0534
  750THF    H1311690   0.869   3.653   4.868  1.6132 -1.1736 -0.1729
  751THF     O111691   2.985   3.686   4.919 -0.4594  0.6944  0.0628
  751THF     C211692   2.957   3.766   5.031 -0.6525  0.1323  0.6951
  751THF     C311693   2.933   3.561   4.950 -0.2177  0.1985 -0.3368
  751THF     H411694   2.873   3.832   5.010  0.0148  0.3163 -1.7200
  751THF     H511695   3.035   3.841   5.026 -1.3226  0.7681 -1.5403
  751THF     H611696   2.877   3.525   4.863  0.2826 -1.6577  0.0608
  751THF     H711697   3.013   3.487   4.951 -2.4225 -2.3541  0.7965
  751THF     C811698   2.861   3.557   5.087 -0.0757 -0.3784 -0.5470
  751THF     C911699   2.938   3.668   5.153 -0.4538  0.3082  0.7805
  751THF    H1011700   2.859   3.465   5.145 -0.0030  1.4183  2.4969
  751THF    H1111701   2.754   3.577   5.083 -0.4904 -1.6687  2.1289
  751THF    H1211702   2.884   3.700   5.242  0.3530  2.3179  0.6084
  751THF    H1311703   3.033   3.621   5.178  0.1383  1.7891  1.4670
  752THF     O111704   2.230   2.821   1.604  0.1236 -0.1053  1.0013
  752THF     C211705   2.309   2.842   1.715 -0.3347 -0.3275 -0.0134
  752THF     C311706   2.266   2.694   1.550 -0.1390  0.3082 -0.1596
  752THF     H411707   2.237   2.877   1.789 -0.2105  1.3074 -0.6268
  752THF     H511708   2.387   2.915   1.691 -0.4944 -0.7385 -1.9555
  752THF     H611709   2.187   2.664   1.481 -0.9811 -0.0846  0.9560
  752THF     H711710   2.359   2.691   1.492  0.9528 -0.3405  1.5665
  752THF     C811711   2.270   2.612   1.676 -0.7093 -0.0194  0.5583
  752THF     C911712   2.360   2.704   1.759  0.2645  0.8094  0.0665
  752THF    H1011713   2.309   2.513   1.651 -0.4749  0.4372 -1.0148
  752THF    H1111714   2.172   2.594   1.721 -0.3675 -1.8710  0.6236
  752THF    H1211715   2.345   2.698   1.866 -0.7347  1.4167 -0.0315
  752THF    H1311716   2.464   2.693   1.727  0.0100  0.7030 -0.7672
  753THF     O111717   5.436   2.573   4.091  0.4730 -0.0732  0.1114
  753THF     C211718   5.458   2.501   4.208 -0.1337  1.2936  0.0481
  753THF     C311719   5.514   2.688   4.099 -0.2833 -0.4606 -0.0135
  753THF     H411720   5.542   2.433   4.192 -1.0913  0.3368 -1.0515
  753THF     H511721   5.368   2.446   4.235 -0.2283  0.5135 -1.7325
  753THF     H611722   5.617   2.666   4.071 -0.7814 -4.9425  0.9028
  753THF     H711723   5.481   2.756   4.021  0.1523  1.0201  1.0425
  753THF     C811724   5.500   2.730   4.245 -0.1512 -0.7401  0.4498
  753THF     C911725   5.499   2.597   4.318 -0.1241  0.3149 -0.3347
  753THF    H1011726   5.408   2.788   4.260 -0.2160 -0.3240 -1.2873
  753THF    H1111727   5.582   2.791   4.280  0.4233  0.3418 -2.5137
  753THF    H1211728   5.599   2.583   4.359  0.2517  1.1040 -0.9516
  753THF    H1311729   5.431   2.594   4.403 -0.0795 -1.1473 -0.3282
  754THF     O111730   3.545   1.774   5.253 -0.1295  0.0747 -0.0826
  754THF     C211731   3.566   1.672   5.353  0.3611 -0.2431 -0.6152
  754THF     C311732   3.464   1.873   5.316  0.3341  0.1939  0.6443
  754THF     H411733   3.663   1.686   5.401  0.2089 -1.8367  0.2157
  754THF     H511734   3.571   1.574   5.305 -0.2171 -0.8523  0.5333
  754THF     H611735   3.532   1.941   5.367  1.0297  2.2914 -2.7678
  754THF     H711736   3.425   1.933   5.234 -3.5310 -1.6912  0.9211
  754THF     C811737   3.360   1.793   5.398 -1.1081  0.4052  0.0428
  754THF     C911738   3.460   1.690   5.461 -0.2433 -0.7698 -0.6865
  754THF    H1011739   3.288   1.735   5.340 -0.8111 -0.7601  0.7970
  754THF    H1111740   3.309   1.858   5.469 -1.2443 -0.6739  0.9677
  754THF    H1211741   3.500   1.729   5.555  2.1885 -0.9320 -1.5985
  754THF    H1311742   3.402   1.601   5.486 -1.0531 -0.4785 -1.4608
  755THF     O111743   2.639   4.952   1.811 -0.1866 -0.0064  0.1914
  755THF     C211744   2.729   5.043   1.877 -0.2521 -0.1732 -0.7780
  755THF     C311745   2.515   5.015   1.827  0.2296  0.0571 -0.0036
  755THF     H411746   2.835   5.027   1.857  1.1233  3.3071  2.5207
  755THF     H511747   2.733   5.041   1.986 -1.5922 -2.0044 -0.7187
  755THF     H611748   2.440   4.979   1.757  0.8134 -0.0503 -0.5924
  755THF     H711749   2.467   5.000   1.923 -1.8471  0.1665 -0.9738
  755THF     C811750   2.536   5.169   1.802  0.0633  0.3117 -0.2469
  755THF     C911751   2.687   5.179   1.822 -0.6624 -0.1256 -0.7142
  755THF    H1011752   2.470   5.223   1.869 -0.7487 -3.4364  2.2852
  755THF    H1111753   2.503   5.173   1.698 -0.3568 -0.4443 -0.1503
  755THF    H1211754   2.730   5.208   1.726  0.7827  0.6819  0.1469
  755THF    H1311755   2.715   5.259   1.890  0.0156 -1.8560  1.1400
  756THF     O111756   1.656   0.449   2.733  0.0215  0.1189 -0.0081
  756THF     C211757   1.672   0.591   2.713  0.1780  0.0195 -0.1812
  756THF     C311758   1.610   0.431   2.874 -0.4922 -0.0657  0.4247
  756THF     H411759   1.574   0.631   2.689 -0.0581 -0.2959  0.2461
  756THF     H511760   1.740   0.618   2.632  0.0213  1.3495  0.1115
  756THF     H611761   1.509   0.461   2.901 -0.4934 -2.0837  3.1552
  756THF     H711762   1.614   0.328   2.910  0.0581 -0.8122 -1.6680
  756THF     C811763   1.708   0.529   2.940  1.0724  0.8176 -0.2853
  756THF     C911764   1.727   0.648   2.845 -0.0649  0.2847 -0.1850
  756THF    H1011765   1.805   0.482   2.957  0.5060 -0.0099  0.7573
  756THF    H1111766   1.672   0.570   3.034  0.5062  0.3658 -0.3016
  756THF    H1211767   1.658   0.721   2.887 -2.7980 -3.2009  1.8488
  756THF    H1311768   1.829   0.685   2.833  1.0216 -1.7810  1.9506
  757THF     O111769   4.045   4.978   2.974 -0.2472 -0.1097 -0.4177
  757THF     C211770   4.134   4.877   2.933 -0.1045 -0.8185  0.7637
  757THF     C311771   3.969   4.932   3.085 -0.2254 -0.7378  0.3256
  757THF     H411772   4.236   4.913   2.916 -0.1106 -0.5794  1.2073
  757THF     H511773   4.090   4.822   2.850 -0.4310  0.4197  0.0938
  757THF     H611774   4.009   5.002   3.158 -1.3038 -1.7642  1.9727
  757THF     H711775   3.863   4.951   3.069  0.0698 -0.4986 -1.5071
  757THF     C811776   4.008   4.788   3.121 -0.6972  0.0209  0.7562
  757THF     C911777   4.138   4.777   3.048  0.0258 -0.1215 -0.0697
  757THF    H1011778   3.937   4.707   3.105 -1.2878  0.2461  2.0969
  757THF    H1111779   4.044   4.779   3.224  0.5274 -2.6871  0.1668
  757THF    H1211780   4.211   4.807   3.124 -0.7604  1.2728  0.1736
  757THF    H1311781   4.163   4.673   3.025 -0.4600 -0.3153  0.2584
  758THF     O111782   3.223   0.309   4.283 -0.5207  0.5659 -0.2382
  758THF     C211783   3.330   0.330   4.375 -0.2558 -0.2671 -0.4330
  758THF     C311784   3.160   0.187   4.319 -0.2059  0.6712 -0.1788
  758THF     H411785   3.296   0.399   4.452  2.1556  1.7056 -1.0324
  758THF     H511786   3.416   0.377   4.328  0.4243 -1.9189 -0.9388
  758THF     H611787   3.054   0.198   4.343 -0.3887  0.9208 -1.0580
  758THF     H711788   3.166   0.108   4.244  1.2903  0.1252  0.4910
  758THF     C811789   3.230   0.141   4.446 -0.0416  0.2844  0.1260
  758THF     C911790   3.361   0.205   4.447 -0.0114  0.1007  0.1840
  758THF    H1011791   3.241   0.032   4.450  2.3890  0.5023  1.0018
  758THF    H1111792   3.174   0.182   4.530 -1.4184 -1.6351  0.2202
  758THF    H1211793   3.395   0.222   4.549  1.1626  0.2630 -0.2203
  758THF    H1311794   3.439   0.153   4.391  2.2207  2.2190  1.1526
  759THF     O111795   2.158   3.458   2.462 -0.0504  0.5142 -0.3259
  759THF     C211796   2.188   3.358   2.365 -0.5004 -1.1939  0.4427
  759THF     C311797   2.243   3.568   2.437  0.3569 -0.1553 -0.5340
  759THF     H411798   2.113   3.279   2.374 -2.3807  0.7123  2.6719
  759THF     H511799   2.289   3.318   2.375 -0.8405 -2.0538  0.5155
  759THF     H611800   2.203   3.663   2.471  2.2961  0.3887  0.3551
  759THF     H711801   2.336   3.542   2.488 -0.8673 -1.0849  1.3270
  759THF     C811802   2.259   3.558   2.283 -0.1294 -1.4121  0.2352
  759THF     C911803   2.180   3.443   2.238  0.2045  0.1129 -0.0983
  759THF    H1011804   2.367   3.561   2.271  0.0072  2.1160  1.2986
  759THF    H1111805   2.230   3.645   2.225  0.6086 -1.3108  0.0150
  759THF    H1211806   2.076   3.468   2.218  0.1731  0.6399  0.6790
  759THF    H1311807   2.225   3.388   2.155 -0.9386 -1.0198  0.0080
  760THF     O111808   0.105   3.460   3.539  0.3231  0.0327  0.1474
  760THF     C211809   0.194   3.514   3.443  0.2900  0.2520 -0.2982
  760THF     C311810   0.052   3.335   3.496 -0.3432 -0.5282  0.0932
  760THF     H411811   0.295   3.472   3.448  1.3694  2.6375 -0.5244
  760THF     H511812   0.191   3.622   3.456 -2.2491  0.2761 -0.6175
  760THF     H611813   0.130   3.261   3.515  1.1889  1.3611  1.6355
  760THF     H711814  -0.035   3.326   3.561  0.8755  0.0884  1.9159
  760THF     C811815   0.030   3.363   3.350 -0.0210 -0.1428  0.6818
  760THF     C911816   0.122   3.476   3.312  0.2554  0.0720  0.4279
  760THF    H1011817  -0.075   3.384   3.333 -0.3660  0.3899  3.1101
  760THF    H1111818   0.054   3.276   3.289 -1.3475 -1.8928  2.5442
  760THF    H1211819   0.188   3.439   3.234  0.2780  0.9712  0.0142
  760THF    H1311820   0.065   3.559   3.273  0.7026 -0.2743 -1.0037
  761THF     O111821   4.701   2.865   0.548 -0.7442 -0.2047  0.3479
  761THF     C211822   4.754   2.735   0.530 -0.1432  0.4135 -0.4909
  761THF     C311823   4.579   2.854   0.617 -0.2653 -0.1255 -0.8452
  761THF     H411824   4.807   2.694   0.616  0.8939 -0.8548 -1.6887
  761THF     H511825   4.824   2.737   0.446  0.7368  0.8927  0.2392
  761THF     H611826   4.602   2.836   0.721 -0.0724 -0.5005 -0.9514
  761THF     H711827   4.520   2.945   0.602  0.7028  1.0851  1.9833
  761THF     C811828   4.521   2.725   0.560  0.0212 -0.7673  0.0134
  761THF     C911829   4.632   2.649   0.506  0.6764  0.0955  0.3178
  761THF    H1011830   4.434   2.741   0.496  0.0294 -2.1391 -0.3629
  761THF    H1111831   4.484   2.667   0.645 -0.9507 -1.2452 -0.7286
  761THF    H1211832   4.630   2.547   0.545  1.6809  0.4229  1.2803
  761THF    H1311833   4.617   2.637   0.399  1.1325 -1.6026  0.4051
  762THF     O111834   0.747   2.564   0.142 -0.4708  0.1682  0.1919
  762THF     C211835   0.744   2.529   0.279  0.0040 -0.2566 -0.3212
  762THF     C311836   0.800   2.697   0.132  0.2603 -0.4620 -0.5675
  762THF     H411837   0.848   2.513   0.307  1.8455  3.0924 -4.1175
  762THF     H511838   0.688   2.435   0.283 -2.1230  0.9149 -0.9572
  762THF     H611839   0.908   2.699   0.143  0.0575  2.6824  2.3304
  762THF     H711840   0.762   2.756   0.049  0.0832 -0.1109 -0.2374
  762THF     C811841   0.746   2.767   0.258 -0.0258  0.3118 -0.5828
  762THF     C911842   0.688   2.658   0.348  0.1663  0.7971 -0.7310
  762THF    H1011843   0.662   2.834   0.240 -1.3567  0.0623  3.6720
  762THF    H1111844   0.811   2.835   0.314  0.1708 -2.2863  2.6937
  762THF    H1211845   0.719   2.682   0.450 -0.4755  1.6636 -0.7234
  762THF    H1311846   0.579   2.657   0.339  0.1125  0.4995 -0.0777
  763THF     O111847   3.371   5.301   4.564 -0.3131 -0.7358  0.2521
  763THF     C211848   3.294   5.188   4.546 -0.7866 -0.5898  0.3715
  763THF     C311849   3.457   5.330   4.448 -0.1865 -0.1741 -0.7248
  763THF     H411850   3.191   5.204   4.577 -0.7905 -1.3858  0.7903
  763THF     H511851   3.335   5.099   4.594 -1.5727 -0.2678  1.6873
  763THF     H611852   3.477   5.437   4.450 -0.2671 -0.0815 -2.5500
  763THF     H711853   3.548   5.276   4.471  0.3011  0.9154 -0.0038
  763THF     C811854   3.379   5.277   4.332  0.0030  0.2900 -0.0595
  763THF     C911855   3.277   5.178   4.396  0.0398 -0.6094 -0.0363
  763THF    H1011856   3.437   5.230   4.252 -0.4434 -0.5955  0.1246
  763THF    H1111857   3.324   5.360   4.288 -1.0087  0.8864  2.1698
  763THF    H1211858   3.173   5.188   4.363 -1.2402 -1.3528  3.4100
  763THF    H1311859   3.311   5.081   4.358  0.4623  0.1422 -1.6862
  764THF     O111860   3.127   5.209   1.005  0.0403 -0.1685  0.1837
  764THF     C211861   2.995   5.178   1.038 -0.1208  0.2213  0.5139
  764THF     C311862   3.188   5.238   1.125  0.6745 -0.3139 -0.3436
  764THF     H411863   3.005   5.079   1.082  2.6811 -0.4378 -1.3675
  764THF     H511864   2.935   5.172   0.947  1.4661 -0.1093 -0.5505
  764THF     H611865   3.208   5.139   1.165 -0.2295  0.4455  2.1946
  764THF     H711866   3.282   5.293   1.123  0.6350 -0.1620  0.9151
  764THF     C811867   3.087   5.322   1.207 -0.3133  0.2228  0.4087
  764THF     C911868   2.956   5.286   1.139 -0.4847 -0.0508  0.1091
  764THF    H1011869   3.106   5.429   1.206  0.7558  0.0737  1.5622
  764THF    H1111870   3.108   5.285   1.307 -0.2639  1.7912  1.0035
  764THF    H1211871   2.878   5.249   1.206  0.4037 -1.3930  0.4545
  764THF    H1311872   2.921   5.375   1.088  1.8523 -0.0538 -1.6783
  765THF     O111873   3.701   1.902   2.716  0.1651  0.3250 -1.0820
  765THF     C211874   3.717   1.760   2.718 -0.0556  0.2709  0.6094
  765THF     C311875   3.809   1.957   2.648 -0.1105 -0.3477 -0.3486
  765THF     H411876   3.617   1.720   2.736 -0.5504  0.6411 -1.1370
  765THF     H511877   3.791   1.734   2.793 -1.1244 -0.2184  1.5405
  765THF     H611878   3.797   2.058   2.608  1.8743  0.0774  0.0251
  765THF     H711879   3.900   1.939   2.706 -0.7737 -1.6349  0.3194
  765THF     C811880   3.814   1.868   2.531  0.4408 -0.1734  0.3187
  765THF     C911881   3.762   1.732   2.577  0.2789 -0.3199 -0.2982
  765THF    H1011882   3.916   1.858   2.493  0.4294 -1.0721  0.5058
  765THF    H1111883   3.748   1.900   2.450  0.9448  0.0857  0.0021
  765THF    H1211884   3.694   1.694   2.500 -3.0897  2.0415  1.2457
  765THF    H1311885   3.840   1.656   2.570  0.4189 -0.2862  0.7912
  766THF     O111886   4.692   3.424   0.117  0.2128  0.0699 -0.1303
  766THF     C211887   4.811   3.458   0.049  0.0366  0.8169 -0.4162
  766THF     C311888   4.593   3.405   0.021  0.2434 -0.0794  0.8175
  766THF     H411889   4.890   3.438   0.122  0.4385 -0.5648 -1.1936
  766THF     H511890   4.809   3.565   0.026 -1.3270  0.8017 -0.4063
  766THF     H611891   4.502   3.365   0.065 -0.9317  1.2302 -0.3107
  766THF     H711892   4.572   3.502  -0.025  0.2689 -0.2321  0.4804
  766THF     C811893   4.672   3.315  -0.074  0.3052 -0.4017  0.1037
  766THF     C911894   4.815   3.368  -0.078  0.5946  0.5716  0.0412
  766THF    H1011895   4.623   3.314  -0.171  1.5453  0.5300 -0.5635
  766THF    H1111896   4.677   3.215  -0.033  0.2737  0.0769  1.3162
  766THF    H1211897   4.887   3.287  -0.064  1.2956  1.1746 -0.0169
  766THF    H1311898   4.835   3.420  -0.172 -0.5939 -0.4159 -0.8042
  767THF     O111899   2.069   0.143   3.513  0.0748  0.3780  0.1484
  767THF     C211900   2.027   0.184   3.389  0.1551  0.1726 -0.0636
  767THF     C311901   1.961   0.077   3.572 -0.6550 -0.4702  0.0255
  767THF     H411902   2.114   0.193   3.324 -0.5734  2.1493 -0.8578
  767THF     H511903   1.978   0.282   3.394  0.7923  0.4249  1.5628
  767THF     H611904   1.994   0.012   3.653 -0.9637 -0.0363  0.5099
  767THF     H711905   1.919   0.168   3.616  2.7922  2.7853 -2.7813
  767THF     C811906   1.885   0.004   3.458 -0.7038 -0.4085 -0.8726
  767THF     C911907   1.930   0.074   3.332 -0.5812  0.6235 -0.7063
  767THF    H1011908   1.779   0.008   3.479 -0.4812 -0.9859  0.5031
  767THF    H1111909   1.896  -0.103   3.438 -0.5150 -0.2679 -1.5541
  767THF    H1211910   1.977   0.007   3.260 -0.9196 -0.8286  0.3644
  767THF    H1311911   1.845   0.118   3.279 -3.7570 -1.5505  2.1634
  768THF     O111912   1.564   3.526   4.549  0.1383 -0.0576 -0.0584
  768THF     C211913   1.589   3.409   4.632  0.4232  0.2216  0.4975
  768THF     C311914   1.433   3.552   4.580 -0.0405 -0.1917  0.1791
  768THF     H411915   1.611   3.451   4.730 -0.0217  1.5787  0.0449
  768THF     H511916   1.674   3.350   4.597  0.4785  0.4010  0.3295
  768THF     H611917   1.418   3.603   4.676  2.0603  0.4906  0.1875
  768THF     H711918   1.388   3.611   4.500  0.7238  0.3716  0.1587
  768THF     C811919   1.363   3.421   4.572  0.3867 -0.2147  0.2732
  768THF     C911920   1.466   3.322   4.616  0.1126 -0.1204 -0.1964
  768THF    H1011921   1.336   3.399   4.469 -0.9280 -1.9108  0.9271
  768THF    H1111922   1.276   3.423   4.638 -0.3683  0.4801 -0.7084
  768THF    H1211923   1.440   3.274   4.711 -2.2985 -2.9987 -2.0979
  768THF    H1311924   1.466   3.237   4.548 -1.1170 -0.0453 -0.3153
  769THF     O111925   0.600   5.040   2.307 -0.1841 -0.2690  0.5257
  769THF     C211926   0.574   4.901   2.266  0.0996  0.2766 -0.4275
  769THF     C311927   0.688   5.103   2.211 -0.1453 -0.0343 -0.3791
  769THF     H411928   0.483   4.858   2.309 -0.1099  0.2334 -0.9098
  769THF     H511929   0.659   4.842   2.301 -0.3096 -0.3856 -0.5267
  769THF     H611930   0.685   5.211   2.228 -0.3212 -0.3368  1.8760
  769THF     H711931   0.794   5.076   2.215 -0.0833  0.0177 -1.5316
  769THF     C811932   0.622   5.060   2.080  0.0749 -0.0906  0.1131
  769THF     C911933   0.575   4.918   2.116 -0.2382 -0.6392  0.3332
  769THF    H1011934   0.687   5.078   1.995 -2.1905 -2.0626 -2.2101
  769THF    H1111935   0.548   5.131   2.045  0.8848  0.4339 -0.5529
  769THF    H1211936   0.472   4.911   2.080 -0.5262 -1.5684  1.2896
  769THF    H1311937   0.635   4.840   2.070 -1.8438 -1.7033 -0.0400
  770THF     O111938   1.747   0.548   0.282  0.1323 -0.3745 -0.2750
  770THF     C211939   1.808   0.433   0.231 -0.1402  0.5073 -0.1606
  770THF     C311940   1.614   0.505   0.303 -0.3820 -0.8830 -0.3828
  770THF     H411941   1.847   0.378   0.317 -2.2520  0.0927  0.6188
  770THF     H511942   1.888   0.467   0.166 -1.5170  0.7382 -1.8202
  770THF     H611943   1.608   0.447   0.395 -3.3775 -0.6090 -0.3100
  770THF     H711944   1.544   0.588   0.314  0.8432 -0.0093  1.2558
  770THF     C811945   1.584   0.424   0.184 -0.6832 -0.5307 -0.2829
  770THF     C911946   1.708   0.358   0.147  0.6707 -0.1240 -0.5437
  770THF    H1011947   1.547   0.495   0.110  0.4645  0.1368 -0.2378
  770THF    H1111948   1.504   0.351   0.199 -0.5299 -0.3582  1.5048
  770THF    H1211949   1.706   0.251   0.169 -2.6159 -0.0046  0.2531
  770THF    H1311950   1.728   0.377   0.041  1.1382  2.8802  0.0176
  771THF     O111951   3.250   1.998   0.208  0.5272  0.5404 -0.1798
  771THF     C211952   3.258   2.138   0.208  0.4492  0.4060  0.0174
  771THF     C311953   3.314   1.938   0.315  0.0534 -1.1112  0.3235
  771THF     H411954   3.200   2.201   0.141 -0.1325  0.5454  0.6425
  771THF     H511955   3.358   2.154   0.167  0.9135 -0.4308  0.7653
  771THF     H611956   3.274   1.839   0.337 -0.3609 -0.8804  0.6454
  771THF     H711957   3.417   1.919   0.285 -0.4036 -2.1098 -0.6870
  771THF     C811958   3.305   2.050   0.423  0.0440  0.9298 -0.1829
  771THF     C911959   3.265   2.175   0.353 -0.2536  0.2648  0.4258
  771THF    H1011960   3.396   2.062   0.480 -0.2626  1.8244  0.1340
  771THF    H1111961   3.229   2.037   0.500  1.5847 -0.5225  1.1595
  771THF    H1211962   3.165   2.205   0.383 -0.1670  0.5930  0.3999
  771THF    H1311963   3.338   2.256   0.357  0.9101 -0.8052  3.3247
  772THF     O111964   2.804   0.731   1.274  0.4678  0.0486  0.0665
  772THF     C211965   2.890   0.808   1.350 -0.2587 -0.1043  0.2230
  772THF     C311966   2.814   0.602   1.333  0.5533  0.6518 -0.3199
  772THF     H411967   2.834   0.826   1.442 -2.6923 -0.6884 -1.0534
  772THF     H511968   2.899   0.903   1.297  0.2326 -0.0094  0.4675
  772THF     H611969   2.776   0.608   1.435 -1.3027 -2.0927 -0.7312
  772THF     H711970   2.755   0.522   1.287 -0.6370 -0.0507  2.2689
  772THF     C811971   2.964   0.580   1.347  0.2985  0.3123  0.5555
  772THF     C911972   3.015   0.727   1.358 -0.1727 -0.1750  0.5339
  772THF    H1011973   3.004   0.528   1.260 -1.0593 -0.7685  0.5415
  772THF    H1111974   3.008   0.525   1.431  1.0107  0.0311  0.0083
  772THF    H1211975   3.057   0.751   1.456  3.2480 -1.6477 -0.4130
  772THF    H1311976   3.084   0.760   1.280 -1.6222  0.6479 -0.4430
  773THF     O111977   3.920   3.302   4.787  0.0896  0.5985  0.0828
  773THF     C211978   3.931   3.299   4.928  0.1700  0.3626 -0.3563
  773THF     C311979   3.806   3.378   4.756  0.1584 -0.5220  0.3992
  773THF     H411980   4.033   3.283   4.963 -0.1254 -2.6318 -0.6467
  773THF     H511981   3.870   3.219   4.969 -0.5421  0.8403 -0.4642
  773THF     H611982   3.804   3.419   4.656 -3.3560 -0.8737  0.2136
  773THF     H711983   3.719   3.312   4.760 -0.6050  0.3554 -0.9048
  773THF     C811984   3.798   3.493   4.854  0.3146  0.3819 -0.0122
  773THF     C911985   3.871   3.433   4.977  0.0222 -0.3296 -0.5320
  773THF    H1011986   3.694   3.504   4.884  0.4473 -3.3247  2.3548
  773THF    H1111987   3.851   3.587   4.833 -1.5228  1.3816 -0.3880
  773THF    H1211988   3.954   3.495   5.014 -0.7903  0.1924  0.4628
  773THF    H1311989   3.793   3.413   5.050  0.8994 -3.4153 -0.3282
  774THF     O111990   4.657   0.416   1.523  0.0858 -0.1090  0.0340
  774THF     C211991   4.706   0.304   1.457  0.2843  0.4586  0.2038
  774THF     C311992   4.763   0.493   1.577 -0.3140  0.3180  0.0458
  774THF     H411993   4.722   0.322   1.351 -0.0982  0.1031  0.0794
  774THF     H511994   4.634   0.225   1.480 -0.4011  0.6567 -1.1738
  774THF     H611995   4.824   0.543   1.502  0.6153  0.1525  0.6700
  774THF     H711996   4.718   0.568   1.643  0.7208 -0.5788  1.8563
  774THF     C811997   4.850   0.390   1.633 -0.2024  0.0296  0.3737
  774THF     C911998   4.835   0.287   1.526 -0.5124  0.1776 -0.2131
  774THF    H1011999   4.803   0.355   1.725  0.5232 -0.9162  0.4076
  774THF    H1112000   4.951   0.415   1.667  0.7774 -0.6487 -1.8354
  774THF    H1212001   4.920   0.294   1.458  0.5617 -0.2238  1.0512
  774THF    H1312002   4.841   0.185   1.564  1.2926 -0.4770 -2.0867
  775THF     O112003   4.147   3.387   4.364  0.4113 -0.4669 -0.6098
  775THF     C212004   4.264   3.303   4.354  0.8535 -0.3346  0.2953
  775THF     C312005   4.049   3.298   4.423 -0.0089  0.1594 -0.6323
  775THF     H412006   4.351   3.367   4.342 -0.6216  1.4888 -1.2204
  775THF     H512007   4.261   3.233   4.270 -2.3564  1.9567 -1.7108
  775THF     H612008   3.957   3.349   4.452 -0.9777 -0.8955 -1.7166
  775THF     H712009   4.026   3.212   4.360  0.9685 -0.0070 -0.7860
  775THF     C812010   4.122   3.253   4.538 -0.1832  0.1067 -0.5163
  775THF     C912011   4.267   3.239   4.486  0.6170 -0.1573 -0.8098
  775THF    H1012012   4.085   3.156   4.570  1.2901  0.0903  1.2557
  775THF    H1112013   4.116   3.321   4.623  0.2407  0.3179 -0.6541
  775THF    H1212014   4.332   3.284   4.561  0.4981 -0.1468 -0.7124
  775THF    H1312015   4.298   3.136   4.466 -2.6742 -1.4610  0.2323
  776THF     O112016   2.098   2.616   0.109 -0.1022 -0.5848 -0.0314
  776THF     C212017   2.083   2.752   0.071  1.0343 -0.8773 -0.3348
  776THF     C312018   2.073   2.608   0.247  0.1930 -0.0812  0.4821
  776THF     H412019   2.074   2.774  -0.035 -0.4314  2.7290  0.3979
  776THF     H512020   2.166   2.812   0.110 -0.7586  0.7414  1.1832
  776THF     H612021   2.037   2.507   0.268  1.3164 -0.4130  0.8926
  776THF     H712022   2.166   2.622   0.301  0.4358 -0.3578  0.1386
  776THF     C812023   1.973   2.717   0.273  0.5703 -0.4224 -0.5404
  776THF     C912024   1.953   2.787   0.139 -0.0824  0.0877 -0.6090
  776THF    H1012025   2.022   2.779   0.348  2.4859 -0.3657 -1.7693
  776THF    H1112026   1.886   2.675   0.323  0.6490  0.1339  0.0856
  776THF    H1212027   1.881   2.751   0.066 -2.9421  3.6190  0.1561
  776THF    H1312028   1.938   2.895   0.146 -0.4571 -0.0577  1.1333
  777THF     O112029   4.319   1.711   0.992  0.3229  0.9884 -0.8631
  777THF     C212030   4.302   1.589   0.924  1.2335 -0.2336 -0.1445
  777THF     C312031   4.197   1.771   1.009  0.8141 -0.2288  0.6699
  777THF     H412032   4.290   1.514   1.002  0.7960 -0.3732 -0.3443
  777THF     H512033   4.388   1.550   0.870  1.5355  0.7732 -0.4145
  777THF     H612034   4.153   1.732   1.101 -1.5031 -0.5233 -0.4915
  777THF     H712035   4.211   1.879   1.010  0.5609 -0.1966  0.6641
  777THF     C812036   4.110   1.722   0.896 -1.0122  0.1213  0.7010
  777THF     C912037   4.176   1.601   0.836 -0.1742  0.3247  0.2615
  777THF    H1012038   4.121   1.803   0.825  0.2385 -0.5781  0.0570
  777THF    H1112039   4.005   1.714   0.926 -0.9291 -0.1756  0.9209
  777THF    H1212040   4.109   1.517   0.850  1.5952 -0.7873  2.7150
  777THF    H1312041   4.190   1.602   0.728 -1.2694  1.8499  0.1088
  778THF     O112042   3.734   2.819   4.765  0.5291 -0.0196  0.1745
  778THF     C212043   3.851   2.775   4.704 -0.4033 -0.3700 -0.2671
  778THF     C312044   3.765   2.904   4.875  0.6008  0.6773  0.0052
  778THF     H412045   3.837   2.755   4.598  2.1499 -2.2344 -0.3467
  778THF     H512046   3.887   2.683   4.750  1.9680  0.7050  0.1740
  778THF     H612047   3.706   2.995   4.879 -0.9129 -0.2379 -0.6354
  778THF     H712048   3.753   2.855   4.972 -2.3797  1.4472  0.1294
  778THF     C812049   3.913   2.928   4.871 -0.4397 -0.5378  0.8681
  778THF     C912050   3.960   2.887   4.734 -0.1318  1.3744 -0.2156
  778THF    H1012051   3.963   2.869   4.948  0.7187 -0.0714  0.4998
  778THF    H1112052   3.943   3.033   4.884  0.6465 -0.6348 -0.6322
  778THF    H1212053   3.963   2.977   4.673  0.9440  2.6101  1.5570
  778THF    H1312054   4.063   2.853   4.739 -0.6770 -0.1577  2.5616
  779THF     O112055   1.140   3.845   1.330  0.1006 -0.4945 -0.0172
  779THF     C212056   1.155   3.975   1.383  0.1835 -0.1691  0.3253
  779THF     C312057   1.175   3.851   1.188 -0.2468 -0.1984  0.4748
  779THF     H412058   1.178   3.969   1.489  0.5378 -1.3608  0.1917
  779THF     H512059   1.063   4.033   1.376 -0.7288 -1.4487  1.3167
  779THF     H612060   1.207   3.756   1.144 -0.9725 -0.3924  0.3547
  779THF     H712061   1.096   3.888   1.123  0.1600 -0.4030 -0.1414
  779THF     C812062   1.294   3.949   1.184  0.0127  0.0933  0.2711
  779THF     C912063   1.277   4.029   1.307  0.6080 -0.7266  0.0166
  779THF    H1012064   1.290   4.010   1.094  1.2598 -0.9144 -0.5105
  779THF    H1112065   1.389   3.897   1.191 -0.2041 -0.1815  1.3162
  779THF    H1212066   1.363   4.016   1.373  0.7787 -1.8411 -0.4089
  779THF    H1312067   1.263   4.136   1.288 -1.2932 -0.7462  1.1032
  780THF     O112068   0.115   2.776   4.779 -0.8290  1.0684 -0.1526
  780THF     C212069   0.093   2.735   4.646 -0.3132  0.3113 -0.5442
  780THF     C312070   0.156   2.661   4.850 -0.5294  0.0305  0.6681
  780THF     H412071   0.193   2.732   4.602  0.6657  0.0016  1.5999
  780THF     H512072   0.028   2.807   4.597 -1.0440  0.2332  0.2871
  780THF     H612073   0.253   2.625   4.816  0.4280  2.1300  1.0574
  780THF     H712074   0.156   2.673   4.958  1.2358 -1.8223  0.9453
  780THF     C812075   0.063   2.556   4.801  0.2946  0.7389  0.0119
  780THF     C912076   0.043   2.592   4.663  0.5714 -0.6658  0.3886
  780THF    H1012077  -0.028   2.555   4.861 -0.7515  0.6001 -1.5155
  780THF    H1112078   0.107   2.456   4.802 -1.1672  0.0305 -1.3106
  780THF    H1212079   0.092   2.526   4.591 -0.9203 -1.1510 -0.2178
  780THF    H1312080  -0.065   2.593   4.646  0.2344 -0.4600  2.4006
  781THF     O112081   5.008   0.887   3.168  0.2554 -0.1547 -0.3974
  781THF     C212082   5.079   1.009   3.203 -0.0403  0.1659  0.4938
  781THF     C312083   5.094   0.786   3.224 -0.0501 -0.1519 -0.1875
  781THF     H412084   5.060   1.026   3.308 -0.6756  3.4600 -0.0402
  781THF     H512085   5.040   1.091   3.142 -1.2492 -0.8911 -0.1786
  781THF     H612086   5.082   0.769   3.331  0.6319 -3.6065 -0.5306
  781THF     H712087   5.082   0.682   3.192  0.6661 -0.5543  0.7987
  781THF     C812088   5.227   0.830   3.172 -0.3181  0.2144 -0.3815
  781THF     C912089   5.223   0.980   3.175 -0.3933 -0.1396  0.2461
  781THF    H1012090   5.246   0.803   3.068 -0.2130 -0.0030 -0.3050
  781THF    H1112091   5.311   0.780   3.220  1.2454 -0.4114 -3.4961
  781THF    H1212092   5.284   1.020   3.255  0.9623 -0.1986 -0.7299
  781THF    H1312093   5.263   1.029   3.087  1.2122 -2.0166 -0.1427
  782THF     O112094   0.423   0.742   2.482  0.2962 -0.4215  0.2443
  782THF     C212095   0.438   0.603   2.482  0.3894  0.3441 -0.5075
  782THF     C312096   0.435   0.796   2.612 -0.3988 -0.3270 -0.5506
  782THF     H412097   0.545   0.581   2.491  0.0623 -1.4687 -0.8815
  782THF     H512098   0.382   0.571   2.395  0.4840  0.9480 -0.8000
  782THF     H612099   0.542   0.812   2.627 -0.2186 -1.5505 -0.4088
  782THF     H712100   0.383   0.891   2.606  0.6957  0.4850  1.7169
  782THF     C812101   0.371   0.690   2.703  0.0386  0.1903  0.5382
  782THF     C912102   0.371   0.562   2.620 -0.2536  0.1587 -0.1012
  782THF    H1012103   0.265   0.712   2.719  0.0648  2.3773 -1.5638
  782THF    H1112104   0.418   0.683   2.800 -0.9173 -2.1220  0.8865
  782THF    H1212105   0.426   0.477   2.661  1.6800  0.7979 -1.2223
  782THF    H1312106   0.275   0.514   2.597  0.6577 -0.7819 -2.2894
  783THF     O112107   4.436   1.837   2.197 -0.1497 -0.0091 -0.2014
  783THF     C212108   4.345   1.727   2.186  0.4521 -0.5719  0.4163
  783THF     C312109   4.567   1.788   2.198 -0.4706  0.0894  0.4737
  783THF     H412110   4.277   1.761   2.108 -0.4898 -2.5464  0.3247
  783THF     H512111   4.309   1.716   2.289 -1.1959 -1.0182 -0.1793
  783THF     H612112   4.637   1.864   2.164 -1.7568  1.1956  0.1932
  783THF     H712113   4.593   1.764   2.301 -0.4607 -2.0847  0.0088
  783THF     C812114   4.563   1.667   2.109 -0.4052  0.4881  0.1999
  783THF     C912115   4.427   1.609   2.135 -0.4175  0.8509  0.2443
  783THF    H1012116   4.639   1.597   2.144 -2.3419 -0.2784  3.3096
  783THF    H1112117   4.554   1.707   2.008 -2.8372  1.1789  0.6202
  783THF    H1212118   4.381   1.585   2.038  3.3634  0.8845 -1.7511
  783THF    H1312119   4.432   1.525   2.204 -1.0277  1.2896  0.8292
  784THF     O112120   5.263   4.828   4.878 -0.1314  0.1812 -0.4509
  784THF     C212121   5.178   4.723   4.923 -0.3291 -0.1789 -0.4413
  784THF     C312122   5.365   4.775   4.790  0.1157  0.0944  0.0494
  784THF     H412123   5.078   4.757   4.949  0.7746  1.0934  2.5260
  784THF     H512124   5.216   4.688   5.019  0.7109 -1.4579 -1.2949
  784THF     H612125   5.354   4.824   4.694 -2.3917 -3.4688 -1.7020
  784THF     H712126   5.469   4.788   4.819  0.3917  0.7312 -1.1694
  784THF     C812127   5.319   4.627   4.759 -0.6788  0.4679 -0.7296
  784THF     C912128   5.173   4.616   4.813 -0.6487  0.5017 -0.2001
  784THF    H1012129   5.378   4.566   4.827  0.1586  0.9450 -1.0238
  784THF    H1112130   5.334   4.605   4.653 -0.1775  0.0394 -0.5716
  784THF    H1212131   5.099   4.639   4.737 -1.7528 -1.1823  0.3048
  784THF    H1312132   5.150   4.516   4.851 -1.0201  1.1131  1.2313
  785THF     O112133   4.166   3.592   3.313 -0.2973  0.0691  0.8001
  785THF     C212134   4.094   3.545   3.200 -0.0867 -0.3765  0.0849
  785THF     C312135   4.253   3.698   3.274  0.1103  0.4157 -0.0859
  785THF     H412136   4.009   3.611   3.183 -0.4901 -0.5716  1.2261
  785THF     H512137   4.051   3.446   3.220 -0.7366 -0.4538 -1.5350
  785THF     H612138   4.192   3.787   3.265  1.3599  1.3220  0.1899
  785THF     H712139   4.325   3.719   3.353  1.8333  0.2190 -1.5304
  785THF     C812140   4.311   3.639   3.142 -0.1479  0.3720 -0.1096
  785THF     C912141   4.186   3.572   3.081 -0.1316  0.6797  0.3228
  785THF    H1012142   4.383   3.561   3.168  1.0682  1.0614 -1.2496
  785THF    H1112143   4.356   3.717   3.081 -3.4049  3.9248  1.6655
  785THF    H1212144   4.135   3.636   3.008 -0.7160  0.1409  0.2501
  785THF    H1312145   4.214   3.483   3.025 -1.0571  0.0981  0.7751
  786THF     O112146   0.077   5.452   0.491 -0.0779  0.0941 -0.3339
  786THF     C212147   0.111   5.365   0.392 -0.5135  0.6967 -0.1908
  786THF     C312148   0.197   5.506   0.553 -0.4281  0.2174  0.2817
  786THF     H412149   0.029   5.332   0.327  0.4346 -0.2112 -0.9648
  786THF     H512150   0.155   5.278   0.441 -1.5339  1.1207  1.5938
  786THF     H612151   0.172   5.604   0.593 -0.3307 -0.3969  1.9269
  786THF     H712152   0.236   5.442   0.632  0.1988  0.0532 -0.1436
  786THF     C812153   0.296   5.519   0.441 -0.4875  0.0715  0.5186
  786THF     C912154   0.228   5.447   0.324  0.0864 -0.0718 -0.2931
  786THF    H1012155   0.392   5.477   0.471  0.4503  1.0998 -0.9131
  786THF    H1112156   0.320   5.619   0.405  1.2824 -0.6783 -0.5171
  786THF    H1212157   0.187   5.524   0.258  1.3146 -0.7050 -1.8683
  786THF    H1312158   0.296   5.384   0.266  1.4701  0.7680  0.3749
  787THF     O112159   4.509   1.841   1.344 -0.6819  0.8431  0.2854
  787THF     C212160   4.547   1.819   1.211 -0.2837 -0.2389  0.7696
  787THF     C312161   4.481   1.720   1.415  0.0176 -0.5041 -0.5554
  787THF     H412162   4.644   1.865   1.193  0.1455 -0.7745  1.6387
  787THF     H512163   4.471   1.866   1.149  0.3964  0.7132  0.6489
  787THF     H612164   4.567   1.696   1.478  1.0000  0.9389 -1.2770
  787THF     H712165   4.388   1.731   1.470 -1.7383  0.8765 -3.5495
  787THF     C812166   4.462   1.623   1.300 -0.5047 -0.1909  0.1292
  787THF     C912167   4.555   1.670   1.194  0.0996  0.4538 -0.5224
  787THF    H1012168   4.357   1.628   1.271 -0.5705 -0.0277  0.3943
  787THF    H1112169   4.494   1.525   1.336 -1.4199 -0.0505  1.3823
  787THF    H1212170   4.658   1.637   1.203  0.6679  1.8790 -1.3852
  787THF    H1312171   4.527   1.627   1.098  1.6696 -1.3225 -0.2358
  788THF     O112172   2.398   1.160   2.929  0.1304  0.6893 -0.2317
  788THF     C212173   2.534   1.111   2.963  0.2380 -0.1948 -0.4148
  788THF     C312174   2.407   1.262   2.827  0.8619 -0.0766  0.0566
  788THF     H412175   2.554   1.032   2.891 -0.6057  0.9312 -1.9340
  788THF     H512176   2.561   1.062   3.056  0.8210 -1.6091 -1.2970
  788THF     H612177   2.400   1.210   2.731 -2.2192 -0.2113  0.2492
  788THF     H712178   2.326   1.330   2.853  0.3339  0.2008 -2.0948
  788THF     C812179   2.551   1.330   2.848  0.7063 -0.7552  0.1763
  788THF     C912180   2.621   1.240   2.954  0.7505  0.5031  0.2185
  788THF    H1012181   2.533   1.430   2.886 -1.6136 -1.7019  1.8379
  788THF    H1112182   2.626   1.330   2.769  1.6243  1.3858  0.9693
  788THF    H1212183   2.724   1.211   2.934  1.0033  1.5822 -0.1549
  788THF    H1312184   2.622   1.285   3.053  2.3961  0.0403  0.4348
  789THF     O112185   3.197   5.402   0.224  0.1752 -0.2949 -0.2346
  789THF     C212186   3.268   5.513   0.184  0.1610 -0.6702  0.6878
  789THF     C312187   3.081   5.453   0.296 -0.1133  0.3892  0.0300
  789THF     H412188   3.221   5.553   0.094 -2.5490  1.7490  2.9690
  789THF     H512189   3.368   5.473   0.169 -0.5213 -2.8831  1.5455
  789THF     H612190   2.991   5.438   0.236 -0.1264 -2.1411  0.5579
  789THF     H712191   3.066   5.400   0.390  0.5343 -1.5485 -0.9062
  789THF     C812192   3.105   5.600   0.321  0.2890 -0.8907 -0.4416
  789THF     C912193   3.255   5.605   0.302 -0.4065  0.4035 -0.1259
  789THF    H1012194   3.072   5.639   0.417  2.6096 -1.6215  0.7119
  789THF    H1112195   3.054   5.659   0.244 -1.2861 -0.9878  0.4935
  789THF    H1212196   3.289   5.705   0.276 -0.8871  0.4632 -0.5555
  789THF    H1312197   3.310   5.563   0.385  0.6041 -0.3940 -1.1616
  790THF     O112198   2.337   1.882   2.173  0.1096  0.3815  0.5928
  790THF     C212199   2.328   1.781   2.271  0.3310 -0.1787 -0.2955
  790THF     C312200   2.273   1.997   2.220  0.8530 -0.1929 -0.6497
  790THF     H412201   2.404   1.704   2.261  0.2524 -0.3091  0.0711
  790THF     H512202   2.234   1.727   2.259 -0.8088  1.4142  0.9992
  790THF     H612203   2.337   2.079   2.189  0.3811 -0.1974 -1.6783
  790THF     H712204   2.171   2.002   2.180  0.5996 -2.5024 -0.4425
  790THF     C812205   2.262   1.984   2.370 -0.2591 -0.4396  0.0368
  790THF     C912206   2.340   1.856   2.402  0.2068 -0.0208  0.2172
  790THF    H1012207   2.159   1.981   2.406 -0.2937  1.1185  0.1370
  790THF    H1112208   2.308   2.075   2.408 -2.3845  1.3605 -1.4286
  790THF    H1212209   2.445   1.880   2.417 -0.1509 -0.0360  3.3736
  790THF    H1312210   2.311   1.796   2.489 -0.7898 -1.2462 -0.9178
  791THF     O112211   0.841   0.868   2.370 -1.1155 -0.1288  0.1953
  791THF     C212212   0.728   0.783   2.352 -0.1253 -0.3877  0.3978
  791THF     C312213   0.855   0.953   2.259  0.0006  0.3421 -0.1478
  791THF     H412214   0.636   0.820   2.398  1.1949 -0.0696  2.9899
  791THF     H512215   0.743   0.681   2.387 -2.0084 -1.5766 -1.9425
  791THF     H612216   0.868   1.056   2.291  2.4697  0.2698 -0.7181
  791THF     H712217   0.945   0.926   2.203 -2.0626 -2.2686 -2.4985
  791THF     C812218   0.737   0.915   2.165 -0.5796 -0.8329 -0.0253
  791THF     C912219   0.720   0.771   2.199  0.2110 -0.3753 -0.1804
  791THF    H1012220   0.757   0.910   2.058  0.9783 -3.2216  0.3019
  791THF    H1112221   0.648   0.973   2.186  0.8176  0.5233  2.7297
  791THF    H1212222   0.624   0.732   2.166  0.1198 -0.6115  0.3457
  791THF    H1312223   0.803   0.712   2.160  1.4169 -0.2033  1.9805
  792THF     O112224   2.198   4.446   5.041  0.4469 -0.3737  0.1701
  792THF     C212225   2.228   4.467   5.177 -0.7263  0.4240 -0.1405
  792THF     C312226   2.123   4.563   4.994 -0.6653  0.8284  0.8146
  792THF     H412227   2.314   4.533   5.185 -1.9385  2.2612 -1.5872
  792THF     H512228   2.254   4.376   5.232  1.8878  0.6978 -0.7886
  792THF     H612229   2.203   4.634   4.973 -0.1647 -0.0502 -0.4175
  792THF     H712230   2.069   4.546   4.900 -1.2335  0.8432  1.1358
  792THF     C812231   2.037   4.602   5.112 -0.2941 -0.8225  0.1812
  792THF     C912232   2.105   4.537   5.231 -0.0184  0.4524 -0.1566
  792THF    H1012233   1.934   4.568   5.113 -0.8652  0.6424 -2.3862
  792THF    H1112234   2.045   4.710   5.124  2.6036 -0.2150 -4.4923
  792THF    H1212235   2.138   4.609   5.305  0.4225  0.5961 -0.4912
  792THF    H1312236   2.043   4.466   5.286  0.6294  0.3972  0.5144
  793THF     O112237   2.891   1.444   2.605 -0.3892 -0.1130  0.0866
  793THF     C212238   2.928   1.373   2.723 -0.0444 -0.1574 -0.1020
  793THF     C312239   2.799   1.541   2.640  0.1296 -0.2728  0.5346
  793THF     H412240   3.014   1.309   2.705 -1.2092 -1.8563  0.1019
  793THF     H512241   2.844   1.317   2.765  0.0044  1.0173  1.6476
  793THF     H612242   2.789   1.611   2.557 -1.4906  1.0661  1.7891
  793THF     H712243   2.702   1.498   2.665  0.3826 -0.6053  0.9653
  793THF     C812244   2.847   1.601   2.774 -0.1757 -0.2267  0.2222
  793THF     C912245   2.952   1.499   2.811  0.1746 -0.1776 -0.3784
  793THF    H1012246   2.762   1.592   2.842 -0.2379 -0.2869  0.1369
  793THF    H1112247   2.865   1.709   2.772 -3.1437  0.3752  0.9667
  793THF    H1212248   3.053   1.539   2.795  0.0749  0.1251 -0.2678
  793THF    H1312249   2.942   1.462   2.913 -0.2087 -1.3500 -0.8236
  794THF     O112250   2.721   3.086   3.770  0.2970  0.3458  0.0353
  794THF     C212251   2.633   3.136   3.663 -0.6072  0.0904  0.0047
  794THF     C312252   2.843   3.061   3.701 -0.1996  0.2393 -0.1292
  794THF     H412253   2.572   3.219   3.699 -1.0019  0.7212 -1.9893
  794THF     H512254   2.565   3.063   3.618  0.6794 -1.4648  0.4872
  794THF     H612255   2.930   3.052   3.765 -2.3886  0.8993  3.2070
  794THF     H712256   2.836   2.966   3.648  2.1198  0.2835 -0.6160
  794THF     C812257   2.866   3.176   3.608  0.2781  0.1812  0.9140
  794THF     C912258   2.723   3.196   3.557  0.4065  0.8678  0.7702
  794THF    H1012259   2.939   3.163   3.528 -0.8774  1.6666 -0.4653
  794THF    H1112260   2.903   3.270   3.647  0.4937  0.7652 -0.6065
  794THF    H1212261   2.699   3.301   3.542 -0.9041  0.5527  0.5988
  794THF    H1312262   2.712   3.141   3.464  0.9722  0.6256  0.8407
  795THF     O112263   2.315   3.199   4.567 -0.3453 -0.2289  0.6095
  795THF     C212264   2.232   3.156   4.676  0.3841  0.3588 -0.0544
  795THF     C312265   2.263   3.315   4.508  0.3280  0.0524 -0.0091
  795THF     H412266   2.293   3.148   4.766  1.8415 -0.7052 -1.1047
  795THF     H512267   2.193   3.055   4.676  2.5373 -0.5686 -2.4889
  795THF     H612268   2.338   3.390   4.483  1.2136 -0.8725 -0.1886
  795THF     H712269   2.209   3.294   4.416 -1.2084  1.6495  0.4606
  795THF     C812270   2.157   3.373   4.601  0.1260 -0.1434 -0.0342
  795THF     C912271   2.132   3.269   4.704 -0.0251  1.2038  0.3584
  795THF    H1012272   2.061   3.402   4.557 -0.6525 -0.5840  1.3237
  795THF    H1112273   2.198   3.463   4.648 -0.0524 -0.8141  1.4622
  795THF    H1212274   2.142   3.308   4.806 -2.2336  0.5980  0.8611
  795THF    H1312275   2.038   3.219   4.679  0.7240 -0.0799  0.0330
  796THF     O112276   1.183   5.282   1.840  0.3453 -0.1042  0.4508
  796THF     C212277   1.081   5.273   1.944 -0.2683 -0.3511 -0.1958
  796THF     C312278   1.137   5.364   1.735 -0.0774 -0.2275  0.4845
  796THF     H412279   1.085   5.350   2.022  0.7234 -1.9159  1.3730
  796THF     H512280   1.079   5.169   1.976  1.2854 -0.3915 -0.1622
  796THF     H612281   1.143   5.468   1.768  1.6343 -0.0134 -0.3909
  796THF     H712282   1.196   5.353   1.644 -0.8355 -0.7993  0.0471
  796THF     C812283   0.996   5.318   1.725 -0.6799 -0.1442  0.0345
  796THF     C912284   0.950   5.305   1.869  0.4426 -0.6340 -0.2878
  796THF    H1012285   0.992   5.229   1.663 -0.9439  1.6676 -2.7100
  796THF    H1112286   0.928   5.388   1.677  1.6496  0.8211 -2.1311
  796THF    H1212287   0.909   5.390   1.923  3.0077  1.1823 -1.0530
  796THF    H1312288   0.867   5.234   1.867 -1.3694  1.4248 -1.8338
  797THF     O112289   0.520   3.334   4.907  0.2529 -0.2409  0.4084
  797THF     C212290   0.638   3.285   4.970  0.2862  0.5302  0.7695
  797THF     C312291   0.486   3.452   4.979 -0.1703  0.3309  0.7201
  797THF     H412292   0.719   3.354   4.945 -0.4960  2.2758  2.8216
  797THF     H512293   0.658   3.180   4.946 -0.9597  0.0682  1.6594
  797THF     H612294   0.546   3.540   4.958 -0.3348  0.0058 -1.2527
  797THF     H712295   0.382   3.478   4.958  0.0736 -0.4102 -1.6604
  797THF     C812296   0.519   3.416   5.123 -0.5910 -0.1056  0.7126
  797THF     C912297   0.596   3.291   5.121 -0.0431 -0.3350  0.3989
  797THF    H1012298   0.427   3.407   5.180 -1.0016  0.8344  0.2318
  797THF    H1112299   0.576   3.499   5.165  3.0329 -2.0525  0.0874
  797THF    H1212300   0.681   3.293   5.190  2.4159 -2.8499 -2.2905
  797THF    H1312301   0.548   3.197   5.147  0.8067 -0.8590  0.1075
  798THF     O112302   2.566   3.703   4.317  0.0466  0.6107 -0.5067
  798THF     C212303   2.499   3.572   4.328  0.1164 -0.0235  0.3386
  798THF     C312304   2.537   3.760   4.190 -0.2393 -0.7281 -0.1977
  798THF     H412305   2.400   3.593   4.368  0.2044  1.4061 -0.1265
  798THF     H512306   2.554   3.504   4.394 -0.1708 -0.5186  0.0728
  798THF     H612307   2.440   3.809   4.195  1.5136  3.1876 -0.8806
  798THF     H712308   2.606   3.841   4.167 -1.9991  1.2472  1.0759
  798THF     C812309   2.534   3.645   4.101  0.2740 -0.9514 -0.2306
  798THF     C912310   2.493   3.524   4.183  0.1834 -0.1246 -0.1610
  798THF    H1012311   2.634   3.636   4.061 -0.1369 -1.9687 -1.0699
  798THF    H1112312   2.467   3.664   4.017  0.6459 -0.8031 -0.4947
  798THF    H1212313   2.390   3.496   4.160  0.5903 -2.6688  0.6881
  798THF    H1312314   2.558   3.443   4.149  0.4169  0.4665 -1.1295
  799THF     O112315   3.481   4.608   0.323 -0.0529 -0.1071  0.9260
  799THF     C212316   3.527   4.731   0.276 -0.4448  0.2997  0.7645
  799THF     C312317   3.469   4.525   0.211 -0.0438 -0.8636  0.3388
  799THF     H412318   3.627   4.719   0.234  0.4010 -0.4560  2.8817
  799THF     H512319   3.529   4.813   0.347  1.7073  0.6541  0.3507
  799THF     H612320   3.570   4.501   0.176 -0.3217 -1.9873  0.2892
  799THF     H712321   3.411   4.441   0.247  0.6812 -2.2782 -1.6478
  799THF     C812322   3.398   4.616   0.113  0.2863  0.5111 -0.4976
  799THF     C912323   3.420   4.758   0.170 -0.2264  0.1193  0.6167
  799THF    H1012324   3.295   4.579   0.111  0.1251  0.9497 -0.4977
  799THF    H1112325   3.452   4.599   0.020  2.1562  0.4815  0.5555
  799THF    H1212326   3.454   4.821   0.087  1.0757 -0.0554  0.9996
  799THF    H1312327   3.326   4.794   0.214  0.3600  2.9791 -0.2653
  800THF     O112328   5.273   3.625   3.094  0.0878 -0.2689  0.4367
  800THF     C212329   5.226   3.732   3.175 -0.5015 -0.3009  0.8122
  800THF     C312330   5.299   3.666   2.962  0.1975 -0.3342  0.9589
  800THF     H412331   5.299   3.748   3.255  1.1397 -0.9567 -0.5066
  800THF     H512332   5.133   3.704   3.225 -1.4265 -0.5928 -1.0050
  800THF     H612333   5.391   3.622   2.924  0.3571  0.4560  0.4049
  800THF     H712334   5.215   3.635   2.900 -0.7229 -0.0724  2.0448
  800THF     C812335   5.324   3.817   2.978 -0.7767 -0.3603  0.1564
  800THF     C912336   5.218   3.850   3.085  0.5784  0.3134 -0.1009
  800THF    H1012337   5.303   3.870   2.886 -0.7681  4.7428  2.7249
  800THF    H1112338   5.420   3.853   3.017 -1.6951  2.5023 -0.0095
  800THF    H1212339   5.238   3.945   3.135 -1.3486  1.1308 -0.7767
  800THF    H1312340   5.119   3.836   3.042  0.6808 -5.1976  0.7929
  801THF     O112341   1.066   5.276   3.730  0.3493 -0.5054 -0.4268
  801THF     C212342   1.198   5.233   3.723 -0.7730  0.1126  0.3987
  801THF     C312343   1.073   5.424   3.767  0.2728  0.2308 -0.4585
  801THF     H412344   1.234   5.217   3.621 -0.8516  1.5135  0.1358
  801THF     H512345   1.200   5.138   3.777 -1.1210  0.3747  0.8733
  801THF     H612346   0.999   5.492   3.726 -0.9890 -1.4097 -0.9736
  801THF     H712347   1.049   5.439   3.872  0.9267  1.2289 -0.4319
  801THF     C812348   1.215   5.467   3.737  0.0707 -0.1627 -0.3684
  801THF     C912349   1.288   5.342   3.781 -0.2795 -0.6281  0.1083
  801THF    H1012350   1.249   5.562   3.778 -1.0803  0.1920 -0.2090
  801THF    H1112351   1.223   5.492   3.631 -2.5459  0.5098 -0.4608
  801THF    H1212352   1.391   5.339   3.743 -0.4170  0.1629 -0.3579
  801THF    H1312353   1.296   5.326   3.889  2.7238 -0.1827  0.0354
  802THF     O112354   2.441   1.067   1.211 -0.2368 -0.0443  0.2976
  802THF     C212355   2.530   1.169   1.166  0.1045  0.1913  1.4171
  802THF     C312356   2.505   1.004   1.321  0.3607 -0.4874  0.5611
  802THF     H412357   2.478   1.251   1.117 -1.9749 -0.7817  1.8816
  802THF     H512358   2.600   1.126   1.094 -0.0001  0.7053  1.0017
  802THF     H612359   2.427   1.002   1.397 -0.7861  1.1522 -0.5138
  802THF     H712360   2.537   0.906   1.287 -1.2744 -1.4003  1.5538
  802THF     C812361   2.622   1.089   1.358  0.2838  0.5096 -0.7257
  802THF     C912362   2.596   1.222   1.291 -0.2829 -0.2849 -0.2584
  802THF    H1012363   2.716   1.043   1.327 -0.9606 -2.3881 -0.5425
  802THF    H1112364   2.631   1.096   1.467  2.5742  2.9381 -0.9575
  802THF    H1212365   2.526   1.288   1.343  2.2869  1.1784  1.5707
  802THF    H1312366   2.694   1.268   1.277  0.0348 -0.4030  1.3606
  803THF     O112367   0.503   2.664   4.974  0.1457 -0.1751  0.1010
  803THF     C212368   0.456   2.802   5.000 -0.3678  1.1160 -0.1889
  803THF     C312369   0.598   2.662   4.873  0.1521  0.9468  0.3838
  803THF     H412370   0.491   2.848   5.092  0.1814 -0.6386  0.5293
  803THF     H512371   0.349   2.790   5.013  0.0159 -1.1235  1.4112
  803THF     H612372   0.681   2.595   4.897 -1.5086 -0.7227  1.7722
  803THF     H712373   0.557   2.634   4.776  3.8366  0.8576 -1.3454
  803THF     C812374   0.634   2.813   4.864  0.1409  0.7327 -0.5580
  803THF     C912375   0.506   2.886   4.885 -0.2967  0.4079  0.5313
  803THF    H1012376   0.692   2.836   4.774  2.1697 -1.0981  0.1834
  803THF    H1112377   0.699   2.833   4.949 -0.8800 -0.1044  0.4528
  803THF    H1212378   0.522   2.990   4.913  0.6394  0.6935 -0.9644
  803THF    H1312379   0.432   2.877   4.805 -2.5537  0.2499  2.5317
  804THF     O112380   0.984   2.331   1.558  0.4768 -0.2938  0.0121
  804THF     C212381   0.941   2.426   1.465 -0.3723  0.0292 -0.5375
  804THF     C312382   0.868   2.283   1.621  0.2513 -0.1622  0.2227
  804THF     H412383   1.018   2.456   1.393  2.0830 -0.7532  1.5897
  804THF     H512384   0.913   2.517   1.518  0.5263 -0.2277  0.4195
  804THF     H612385   0.877   2.193   1.682  1.7281 -0.1977 -0.0213
  804THF     H712386   0.833   2.351   1.699 -1.7462  0.3707 -1.0494
  804THF     C812387   0.770   2.268   1.509 -0.3186  0.2706 -1.0562
  804THF     C912388   0.814   2.362   1.404  0.2226  0.0418 -0.2483
  804THF    H1012389   0.667   2.280   1.543 -0.0505 -1.4183  0.5062
  804THF    H1112390   0.776   2.167   1.468 -0.3911 -0.3261  0.3425
  804THF    H1212391   0.848   2.305   1.317 -2.8146  0.7694 -2.0355
  804THF    H1312392   0.746   2.441   1.373  0.8949  0.8418  0.2662
  805THF     O112393   3.699   5.465   3.322 -0.4850  0.4124 -0.1243
  805THF     C212394   3.805   5.495   3.229  0.7993 -0.1451 -0.4337
  805THF     C312395   3.703   5.332   3.359 -0.2736 -0.1406  0.4698
  805THF     H412396   3.904   5.493   3.274 -0.4239 -0.1633  2.4994
  805THF     H512397   3.786   5.586   3.172 -3.0047  1.1517  2.4614
  805THF     H612398   3.788   5.313   3.424  1.1615 -0.5490 -1.4596
  805THF     H712399   3.611   5.293   3.403  0.5645 -0.9202  1.5771
  805THF     C812400   3.733   5.261   3.233 -0.2220 -1.0441  0.2725
  805THF     C912401   3.786   5.372   3.143  0.3227 -0.6630  0.7159
  805THF    H1012402   3.641   5.224   3.187 -0.5825 -1.2607  1.1595
  805THF    H1112403   3.791   5.169   3.232  1.4099 -0.0600 -0.4496
  805THF    H1212404   3.885   5.347   3.106  0.5884 -0.3081  1.1809
  805THF    H1312405   3.712   5.388   3.065  0.1897 -0.1843  0.9380
  806THF     O112406   0.764   0.315   1.056 -0.6393  0.0365  0.0103
  806THF     C212407   0.746   0.449   1.003  0.4195 -0.0490 -0.2474
  806THF     C312408   0.635   0.268   1.089  0.8971 -0.1132 -0.4596
  806THF     H412409   0.822   0.484   0.934  1.1130  1.2541  1.1198
  806THF     H512410   0.737   0.518   1.087 -0.4609 -0.2303 -0.1809
  806THF     H612411   0.612   0.164   1.109 -1.7114  0.6186  0.9076
  806THF     H712412   0.615   0.316   1.185 -0.3268 -0.5443 -0.4788
  806THF     C812413   0.535   0.320   0.982  0.5653  0.0749 -0.2205
  806THF     C912414   0.623   0.429   0.917  0.4123  0.0252  0.4751
  806THF    H1012415   0.440   0.354   1.024  1.1631 -0.3960  1.6015
  806THF    H1112416   0.513   0.250   0.902  0.0576 -0.8444  0.6907
  806THF    H1212417   0.642   0.385   0.820  0.2964 -1.0052  0.9129
  806THF    H1312418   0.581   0.527   0.892  0.7717 -0.0987 -0.6267
  807THF     O112419   4.292   4.063   2.529 -0.2047 -0.3821 -0.2579
  807THF     C212420   4.168   4.135   2.522  0.4237 -0.2840 -0.8719
  807THF     C312421   4.391   4.154   2.562 -0.2807 -0.3592  0.3302
  807THF     H412422   4.087   4.064   2.541  0.8555 -0.2356  1.5008
  807THF     H512423   4.149   4.193   2.432 -3.1726  1.7439  0.9957
  807THF     H612424   4.475   4.111   2.617  0.5523  0.1521 -0.5159
  807THF     H712425   4.429   4.191   2.467  1.5232  0.5440  1.3559
  807THF     C812426   4.326   4.276   2.643  0.2285  0.3716  1.2602
  807THF     C912427   4.179   4.225   2.641 -0.4275  0.0914 -0.4655
  807THF    H1012428   4.340   4.363   2.579 -1.7622 -0.9877 -1.2636
  807THF    H1112429   4.380   4.284   2.737  2.5954  0.0537 -0.0160
  807THF    H1212430   4.163   4.172   2.735  1.1665  2.7285  1.4539
  807THF    H1312431   4.101   4.301   2.632 -1.1644  0.1317  3.8988
  808THF     O112432   1.323   2.600   5.439 -0.0302  0.0580 -0.1102
  808THF     C212433   1.368   2.570   5.305  1.3605  0.0794  0.0076
  808THF     C312434   1.183   2.634   5.445 -0.1996 -0.1018  0.1781
  808THF     H412435   1.352   2.464   5.288  1.0554  0.0539  0.4272
  808THF     H512436   1.476   2.586   5.295  1.2693 -0.1578 -1.4715
  808THF     H612437   1.128   2.546   5.479  0.7933 -1.0432 -0.6103
  808THF     H712438   1.163   2.722   5.506  1.0736  0.0828  0.3675
  808THF     C812439   1.149   2.670   5.300  0.2038  0.7149 -0.0707
  808THF     C912440   1.275   2.653   5.210  0.5138 -0.1457 -0.1165
  808THF    H1012441   1.099   2.766   5.288 -4.1827 -1.5567 -2.4749
  808THF    H1112442   1.066   2.605   5.270 -0.3158  0.2603  2.1696
  808THF    H1212443   1.258   2.607   5.113 -0.0901 -1.9625  0.8134
  808THF    H1312444   1.328   2.747   5.195  1.5279 -0.7618 -0.5080
  809THF     O112445   5.479   0.566   1.329  0.1136 -0.0897 -0.0802
  809THF     C212446   5.404   0.447   1.356  0.4324 -0.7186 -0.4389
  809THF     C312447   5.591   0.518   1.248  0.3285 -0.2761 -0.4053
  809THF     H412448   5.350   0.408   1.270  2.3847 -0.7569 -1.7223
  809THF     H512449   5.336   0.449   1.441  0.3875 -1.7213 -0.4422
  809THF     H612450   5.554   0.495   1.149  3.5880  0.2228 -1.8677
  809THF     H712451   5.671   0.588   1.224 -0.5878  0.4301 -1.4600
  809THF     C812452   5.635   0.394   1.326  0.6900  0.6072  0.0772
  809THF     C912453   5.513   0.345   1.389 -0.1444  0.3613  0.0155
  809THF    H1012454   5.705   0.433   1.400 -0.7023  2.1927  0.6357
  809THF    H1112455   5.690   0.323   1.265 -0.6485 -0.0688 -0.3918
  809THF    H1212456   5.489   0.240   1.369 -2.3282  0.4243  1.8236
  809THF    H1312457   5.537   0.353   1.495 -2.8538  2.5087  0.5799
  810THF     O112458   2.908   4.398   4.514  0.1732 -0.2029  0.1359
  810THF     C212459   2.795   4.337   4.570 -0.1363  0.0080 -0.0428
  810THF     C312460   2.925   4.329   4.388  0.2152 -0.2374  0.3080
  810THF     H412461   2.766   4.395   4.657 -1.2696  0.7393 -0.8924
  810THF     H512462   2.820   4.235   4.602 -0.8223  0.0716  0.7151
  810THF     H612463   2.965   4.401   4.317 -0.6211 -0.1435 -0.0663
  810THF     H712464   2.982   4.236   4.403  0.3818 -0.0833  0.6519
  810THF     C812465   2.777   4.296   4.344  0.0066  0.3086  1.2215
  810THF     C912466   2.693   4.339   4.462  0.1163  0.0156  0.7751
  810THF    H1012467   2.787   4.187   4.339  1.2245  0.4730 -2.3958
  810THF    H1112468   2.735   4.334   4.252 -0.5523  1.8379  2.0850
  810THF    H1212469   2.660   4.443   4.457 -1.2522 -0.4575 -1.4174
  810THF    H1312470   2.605   4.277   4.477 -1.3070  0.7846 -3.1083
  811THF     O112471   3.082   2.922   0.528 -0.2354  0.1500 -0.1947
  811THF     C212472   3.077   2.820   0.626 -0.0568  0.2949 -0.6622
  811THF     C312473   3.206   2.994   0.545  0.1519  0.0927 -0.3855
  811THF     H412474   2.999   2.750   0.597  0.3306 -0.5051  0.2075
  811THF     H512475   3.053   2.857   0.725  1.6662  1.0904 -0.5002
  811THF     H612476   3.236   3.058   0.462  0.3228  0.5028 -0.0073
  811THF     H712477   3.189   3.055   0.633 -0.4646 -0.4463 -0.1284
  811THF     C812478   3.294   2.875   0.570  0.0535  0.2903 -0.1194
  811THF     C912479   3.209   2.755   0.614  0.0207 -0.6392  0.0204
  811THF    H1012480   3.372   2.887   0.645 -0.1531 -1.9405  0.5248
  811THF    H1112481   3.346   2.845   0.479 -0.1125 -1.7415  0.4013
  811THF    H1212482   3.200   2.686   0.530 -2.8129  1.3189 -1.4589
  811THF    H1312483   3.241   2.711   0.709  2.6571 -0.1697 -0.5534
  812THF     O112484   1.704   1.363   0.333  0.0409  0.0893  0.0625
  812THF     C212485   1.578   1.415   0.290 -0.3742 -0.1349 -0.0217
  812THF     C312486   1.678   1.224   0.375  0.1081 -0.8360  0.4862
  812THF     H412487   1.569   1.390   0.185 -0.7391  1.3145 -0.3648
  812THF     H512488   1.573   1.522   0.314  0.8081 -0.4511  1.8228
  812THF     H612489   1.706   1.163   0.289 -0.9005 -0.8355  0.1423
  812THF     H712490   1.744   1.197   0.458  0.7701  1.9330  0.9517
  812THF     C812491   1.527   1.216   0.404 -0.2391 -0.0637  0.5648
  812THF     C912492   1.471   1.348   0.379 -0.3178 -0.1706 -0.1674
  812THF    H1012493   1.511   1.198   0.510 -2.7493  1.4871  0.5458
  812THF    H1112494   1.471   1.144   0.344 -1.0900  0.6053  0.5399
  812THF    H1212495   1.376   1.353   0.326 -0.2271 -0.9007 -0.4083
  812THF    H1312496   1.459   1.398   0.475 -1.2781  1.1286 -0.9444
  813THF     O112497   4.741   4.730   1.335  0.7979  0.5718  0.4067
  813THF     C212498   4.606   4.692   1.317  0.3436  0.4827 -0.1367
  813THF     C312499   4.760   4.870   1.313  0.1277 -0.7269 -0.2547
  813THF     H412500   4.581   4.615   1.390 -0.2650  1.7323  1.0196
  813THF     H512501   4.583   4.659   1.216 -2.2490 -0.6702  0.7453
  813THF     H612502   4.810   4.910   1.401 -0.4221 -0.6304  0.0174
  813THF     H712503   4.830   4.887   1.231 -0.3341 -1.4090 -0.7992
  813THF     C812504   4.623   4.929   1.287 -0.5967 -0.0215 -0.2531
  813THF     C912505   4.529   4.824   1.341 -0.1031  0.3107 -0.7570
  813THF    H1012506   4.612   4.943   1.180 -1.2479  0.2475 -0.1501
  813THF    H1112507   4.615   5.023   1.341 -0.5505  0.3081 -0.8177
  813THF    H1212508   4.522   4.841   1.448  0.7624  2.7872 -1.0347
  813THF    H1312509   4.431   4.845   1.298 -0.4815  0.5049  0.1902
  814THF     O112510   2.051   2.366   1.593 -0.0651  0.1582 -0.3483
  814THF     C212511   1.906   2.373   1.568  0.2546  0.2548  0.2885
  814THF     C312512   2.112   2.344   1.469  0.9779  0.8425 -0.1598
  814THF     H412513   1.886   2.475   1.535  1.2997  0.5509  0.5339
  814THF     H512514   1.864   2.346   1.664  1.5376 -0.6933  0.6139
  814THF     H612515   2.126   2.438   1.415 -0.4355  1.1954  0.0463
  814THF     H712516   2.212   2.310   1.497 -0.4134 -2.3851  1.3213
  814THF     C812517   2.024   2.248   1.397 -0.2861  1.4689  1.0732
  814THF     C912518   1.879   2.269   1.453 -0.7010  0.0608  0.2180
  814THF    H1012519   2.056   2.145   1.411  0.8273  1.7050  0.4392
  814THF    H1112520   2.041   2.259   1.290  1.5986  0.2012  1.1959
  814THF    H1212521   1.798   2.309   1.393 -0.4467 -0.1092 -0.2426
  814THF    H1312522   1.855   2.169   1.490  2.5342 -1.0080 -0.2466
  815THF     O112523   2.357   0.271   5.485  0.5273  0.1625 -0.6266
  815THF     C212524   2.266   0.183   5.562 -0.2024  0.2865  0.3448
  815THF     C312525   2.269   0.355   5.420  0.1281 -0.2017 -0.4226
  815THF     H412526   2.309   0.142   5.653  0.2501  1.6203  0.7643
  815THF     H512527   2.239   0.097   5.501 -0.3376 -0.1386  0.9898
  815THF     H612528   2.322   0.450   5.432 -0.5173  0.5331 -2.8032
  815THF     H712529   2.266   0.309   5.321 -1.4194 -1.0149 -0.0181
  815THF     C812530   2.132   0.349   5.487 -0.1936  0.1891 -0.4700
  815THF     C912531   2.142   0.264   5.606 -0.2644 -0.1139 -1.1424
  815THF    H1012532   2.064   0.310   5.411 -0.5161 -0.2312  0.0308
  815THF    H1112533   2.100   0.450   5.515 -1.7795 -0.5184  0.3778
  815THF    H1212534   2.165   0.324   5.695 -0.2846 -0.1368 -1.1216
  815THF    H1312535   2.050   0.208   5.624  1.0365 -1.6557  1.3825
  816THF     O112536   5.052   4.071   2.765 -0.2328 -0.0622 -0.3609
  816THF     C212537   4.908   4.065   2.751 -0.5197  0.6652  0.4485
  816THF     C312538   5.098   3.946   2.735 -0.7125  0.4849  0.0972
  816THF     H412539   4.888   4.167   2.720  0.1611  0.9951  1.0777
  816THF     H512540   4.855   4.025   2.837 -1.1106 -0.7805 -0.5448
  816THF     H612541   5.206   3.953   2.719 -0.5452 -1.5123  0.0646
  816THF     H712542   5.081   3.886   2.825 -0.5881 -0.0664 -0.2420
  816THF     C812543   5.017   3.915   2.603 -0.0797  0.3109 -0.3059
  816THF     C912544   4.883   3.981   2.629  0.2521 -0.0709 -0.0048
  816THF    H1012545   5.022   3.806   2.595  0.8367  0.4001 -1.0743
  816THF    H1112546   5.046   3.942   2.502 -1.9829 -0.4453 -1.1144
  816THF    H1212547   4.848   4.041   2.545  2.9523 -0.6819 -1.7063
  816THF    H1312548   4.801   3.910   2.642  0.7496 -0.8418 -0.8563
  817THF     O112549   1.112   1.699   3.592  0.4708  0.4222 -0.4052
  817THF     C212550   1.250   1.691   3.622  0.2601  0.4592  0.5933
  817THF     C312551   1.104   1.758   3.459  0.0445  0.2711  0.1805
  817THF     H412552   1.301   1.606   3.578  0.6888  0.4138  1.1693
  817THF     H512553   1.257   1.682   3.730 -0.7574  0.1302  0.6463
  817THF     H612554   1.121   1.692   3.374  0.2510  1.3303 -0.6163
  817THF     H712555   1.011   1.809   3.438  1.3775  2.4770 -0.7181
  817THF     C812556   1.212   1.862   3.466 -1.1014 -0.3942  0.0414
  817THF     C912557   1.317   1.817   3.570  0.1430  0.1696  0.1601
  817THF    H1012558   1.170   1.962   3.476 -1.3576 -0.5738  0.9136
  817THF    H1112559   1.257   1.876   3.368 -1.3188  3.0840  0.2981
  817THF    H1212560   1.416   1.798   3.528  0.2099 -3.0431  1.4950
  817THF    H1312561   1.312   1.886   3.654 -0.1542 -1.9466  1.9411
  818THF     O112562   1.581   5.073   2.762 -0.2228 -0.1948 -0.1331
  818THF     C212563   1.449   5.124   2.801 -1.1122 -0.8262 -0.7595
  818THF     C312564   1.572   4.936   2.729 -0.0934 -0.2323 -0.0006
  818THF     H412565   1.436   5.232   2.801  1.0002 -0.5078  0.9079
  818THF     H512566   1.440   5.094   2.905  0.7164 -1.6363 -0.7908
  818THF     H612567   1.645   4.892   2.661 -1.1643 -0.0465 -1.3281
  818THF     H712568   1.568   4.875   2.819 -0.6833 -1.6514 -0.9579
  818THF     C812569   1.432   4.928   2.669 -0.0441 -0.2433  0.1392
  818THF     C912570   1.358   5.058   2.697 -0.0056 -0.1262  0.1351
  818THF    H1012571   1.383   4.840   2.713  0.6823  0.1100  1.7329
  818THF    H1112572   1.441   4.915   2.562  0.4864 -1.9795  0.3562
  818THF    H1212573   1.351   5.129   2.614 -0.1936  1.7384  1.6662
  818THF    H1312574   1.263   5.034   2.744  0.0886 -1.1086 -0.1542
  819THF     O112575   1.285   4.513   2.481 -0.1141 -0.0416 -0.1302
  819THF     C212576   1.399   4.504   2.566 -0.2186 -0.6318 -0.4135
  819THF     C312577   1.172   4.477   2.562 -0.0109 -0.3241 -0.2443
  819THF     H412578   1.400   4.588   2.635 -0.1849 -0.3988 -0.6983
  819THF     H512579   1.490   4.501   2.506 -0.2357 -0.4769 -0.4481
  819THF     H612580   1.120   4.563   2.605 -0.9617  0.1478 -2.2068
  819THF     H712581   1.104   4.425   2.495 -1.3269 -0.8675  1.4384
  819THF     C812582   1.227   4.391   2.677 -0.1046  0.1010  0.1201
  819THF     C912583   1.376   4.392   2.663 -0.0123 -0.0517 -0.0370
  819THF    H1012584   1.194   4.287   2.670  0.8497 -0.2071  0.1308
  819THF    H1112585   1.192   4.432   2.772  1.2032 -1.1666  1.2062
  819THF    H1212586   1.432   4.418   2.754 -0.2379 -0.4146  0.2091
  819THF    H1312587   1.423   4.302   2.625 -0.9891 -0.6218  0.0793
  820THF     O112588   3.297   0.824   2.449  0.1301  0.8477  0.0092
  820THF     C212589   3.429   0.885   2.435  0.4433 -1.0462  0.1942
  820THF     C312590   3.198   0.905   2.379  0.3247 -0.4812 -0.0647
  820THF     H412591   3.507   0.810   2.437  1.1533 -0.4394 -1.8920
  820THF     H512592   3.448   0.976   2.492 -0.8798  1.0048 -2.3730
  820THF     H612593   3.139   0.835   2.320  1.8568 -1.0872 -0.9347
  820THF     H712594   3.133   0.952   2.453  0.3014  0.7670 -0.8525
  820THF     C812595   3.280   1.002   2.289 -0.2159  0.4309 -0.6956
  820THF     C912596   3.412   0.932   2.290 -0.3755  0.9098  0.3523
  820THF    H1012597   3.280   1.104   2.326  1.1448  0.6184 -1.1614
  820THF    H1112598   3.237   1.006   2.188 -0.3329  0.3280 -0.6508
  820THF    H1212599   3.409   0.844   2.227 -3.0783  0.1812  1.3514
  820THF    H1312600   3.497   0.997   2.269 -0.0112 -0.0702 -1.3678
  821THF     O112601   2.619   0.612   3.114  0.2166 -0.5177 -0.7440
  821THF     C212602   2.668   0.665   2.990  1.0367 -0.2578 -0.3481
  821THF     C312603   2.489   0.565   3.115 -0.3094 -0.0431  0.2437
  821THF     H412604   2.695   0.579   2.929  1.4997  0.2841 -0.9284
  821THF     H512605   2.751   0.736   2.988  2.8447 -2.0460  2.7810
  821THF     H612606   2.483   0.458   3.133  0.6940 -0.3451 -1.0856
  821THF     H712607   2.437   0.614   3.198  0.6181  0.4419  0.5642
  821THF     C812608   2.446   0.615   2.982 -0.3847 -0.8091  0.2492
  821THF     C912609   2.536   0.725   2.949  0.4135 -0.0038  0.4323
  821THF    H1012610   2.342   0.645   2.977 -0.3613 -0.0505  2.8469
  821THF    H1112611   2.461   0.540   2.904 -1.4163  0.1273 -0.9019
  821THF    H1212612   2.538   0.756   2.845  0.7738  0.7904  0.6641
  821THF    H1312613   2.523   0.818   3.005  1.7633  0.8573 -0.6365
  822THF     O112614   3.601   0.657   0.255 -0.8521  0.0315  0.0660
  822THF     C212615   3.627   0.544   0.340  0.5148  0.4672  0.2155
  822THF     C312616   3.614   0.768   0.336  0.4026 -0.5315 -0.1108
  822THF     H412617   3.733   0.527   0.359  0.5520  3.0462  3.2075
  822THF     H512618   3.582   0.453   0.300 -1.1954  0.9882  0.8605
  822THF     H612619   3.718   0.779   0.366  0.7097  0.9069 -1.5522
  822THF     H712620   3.580   0.863   0.293  0.2882 -1.4564 -2.2061
  822THF     C812621   3.542   0.737   0.463 -0.5637  0.2027 -0.1517
  822THF     C912622   3.557   0.587   0.470 -0.3245 -0.2343 -0.5160
  822THF    H1012623   3.441   0.774   0.444  0.3013  3.3213  0.8359
  822THF    H1112624   3.583   0.781   0.553  1.6445  0.6438 -1.3088
  822THF    H1212625   3.608   0.556   0.562 -3.0664 -2.2878  0.4544
  822THF    H1312626   3.453   0.555   0.474 -0.8371  1.3531 -0.4275
  823THF     O112627   3.522   2.322   4.843 -0.1364  0.0427  0.3257
  823THF     C212628   3.423   2.243   4.900  0.4579 -0.0564 -0.7013
  823THF     C312629   3.628   2.323   4.932 -0.2183  0.1603 -1.2772
  823THF     H412630   3.351   2.215   4.824  0.3163 -2.2518  0.1523
  823THF     H512631   3.362   2.286   4.979  1.4366 -0.7826  0.5006
  823THF     H612632   3.720   2.370   4.896  1.0419  0.0337  1.5464
  823THF     H712633   3.588   2.365   5.024 -0.8559  1.0432 -1.9320
  823THF     C812634   3.648   2.169   4.956  0.5129 -0.2047  0.4661
  823THF     C912635   3.497   2.125   4.962 -0.3847  0.0724 -0.2267
  823THF    H1012636   3.685   2.153   5.057 -1.1498  0.6533  1.2474
  823THF    H1112637   3.715   2.113   4.890  1.6619 -1.4561  2.5903
  823THF    H1212638   3.477   2.036   4.903 -1.5151 -0.7210  1.3031
  823THF    H1312639   3.475   2.092   5.063  0.1139 -0.0316 -0.1513
  824THF     O112640   2.928   2.594   3.896 -0.6508  0.1380  0.3097
  824THF     C212641   3.031   2.500   3.896  0.1436 -0.1660 -0.8753
  824THF     C312642   2.945   2.698   3.804  0.2559  0.5484 -0.3625
  824THF     H412643   3.004   2.413   3.836  2.6678 -0.6909 -1.3695
  824THF     H512644   3.044   2.450   3.993  1.6833 -1.1768 -1.5638
  824THF     H612645   2.883   2.664   3.721  0.1749 -2.5049  0.8191
  824THF     H712646   2.913   2.789   3.855  1.6547 -0.7727  3.1519
  824THF     C812647   3.091   2.697   3.763 -0.2663  0.5624  0.6239
  824THF     C912648   3.150   2.576   3.840  0.0076 -0.3316  0.5004
  824THF    H1012649   3.137   2.789   3.800 -0.4229  1.1828 -0.6810
  824THF    H1112650   3.099   2.704   3.654  1.5429  1.0838  0.7563
  824THF    H1212651   3.215   2.510   3.783 -0.2305 -0.0395 -0.1179
  824THF    H1312652   3.206   2.612   3.926 -0.8065 -0.2867  1.0256
  825THF     O112653   4.125   3.030   2.114 -0.3720  0.5551 -0.0516
  825THF     C212654   4.248   3.076   2.053 -0.2090 -0.2656 -0.0257
  825THF     C312655   4.150   2.980   2.241 -0.9380  1.0127 -0.1355
  825THF     H412656   4.233   3.144   1.969  0.1531 -0.0236  0.0991
  825THF     H512657   4.321   2.997   2.034  0.5916  0.5651 -0.5273
  825THF     H612658   4.062   2.972   2.306 -0.4956 -1.2359  0.2399
  825THF     H712659   4.189   2.880   2.226  0.9324  1.8155 -0.8925
  825THF     C812660   4.260   3.070   2.294  0.3625  0.6422  0.3535
  825THF     C912661   4.303   3.146   2.172 -0.3183 -0.3947  0.2369
  825THF    H1012662   4.353   3.022   2.323  0.7556  0.8285 -0.5587
  825THF    H1112663   4.224   3.138   2.371  2.0721  2.8618 -0.6578
  825THF    H1212664   4.265   3.248   2.180  1.2255  0.3004 -0.7618
  825THF    H1312665   4.407   3.181   2.167 -0.7848  0.8945 -1.3032
  826THF     O112666   3.078   4.922   0.646 -0.7279  0.3529 -0.4658
  826THF     C212667   3.117   5.045   0.703 -0.4479 -0.0057  0.4989
  826THF     C312668   3.062   4.946   0.502  0.9911  0.2279 -0.5388
  826THF     H412669   3.221   5.049   0.673 -0.4966  1.5379  0.4416
  826THF     H512670   3.108   5.056   0.811  1.1228 -0.4021  0.6867
  826THF     H612671   3.147   4.910   0.445  1.0266 -1.3678  0.4506
  826THF     H712672   2.976   4.890   0.467  0.3748  0.2281  0.8715
  826THF     C812673   3.024   5.090   0.482  0.4514  0.1809  0.9758
  826THF     C912674   3.043   5.150   0.618  0.1479  0.1867 -0.4447
  826THF    H1012675   2.919   5.105   0.457  0.5004 -0.4266  0.4064
  826THF    H1112676   3.089   5.133   0.406 -2.0314  1.2537 -0.6753
  826THF    H1212677   3.088   5.249   0.631  0.6002 -0.1232  0.4741
  826THF    H1312678   2.945   5.156   0.664  0.7149 -2.9243  1.4531
  827THF     O112679   1.432   2.328   3.542 -0.9776 -0.6620  0.3418
  827THF     C212680   1.388   2.462   3.556  0.1689 -0.1864  0.7608
  827THF     C312681   1.316   2.244   3.526 -0.2322  0.3296  0.8051
  827THF     H412682   1.369   2.511   3.461 -1.3379 -1.0100  0.6072
  827THF     H512683   1.470   2.512   3.608  0.6099  1.0995 -1.0729
  827THF     H612684   1.263   2.257   3.432 -1.5692  0.2132  1.5202
  827THF     H712685   1.344   2.140   3.540 -0.0499 -0.1949 -2.6611
  827THF     C812686   1.232   2.303   3.635  0.2966  0.0475 -0.4953
  827THF     C912687   1.275   2.449   3.658 -0.1723  0.0476  0.2194
  827THF    H1012688   1.228   2.242   3.725 -3.9628  2.1491  1.0166
  827THF    H1112689   1.129   2.300   3.599  0.2423 -0.6635 -0.2921
  827THF    H1212690   1.185   2.506   3.637 -0.6791 -1.1058 -0.8430
  827THF    H1312691   1.298   2.451   3.765 -2.2110  0.7437  0.6894
  828THF     O112692   3.843   3.264   3.202  0.3117 -0.0162  0.1117
  828THF     C212693   3.918   3.223   3.093 -0.7152  0.4835 -0.3217
  828THF     C312694   3.880   3.168   3.299  0.3790 -0.5249 -0.2633
  828THF     H412695   3.939   3.309   3.030  4.3141 -0.5229 -0.4047
  828THF     H512696   3.863   3.147   3.039  0.5909 -0.2859 -0.5916
  828THF     H612697   3.858   3.205   3.399  2.1086 -2.4616  0.9052
  828THF     H712698   3.827   3.073   3.294  1.3097 -1.1742  1.3481
  828THF     C812699   4.028   3.132   3.291 -0.1505 -0.4179 -0.4236
  828THF     C912700   4.051   3.175   3.147 -0.1607  0.5160 -0.5495
  828THF    H1012701   4.065   3.035   3.324  0.1328  0.5202  2.2391
  828THF    H1112702   4.085   3.196   3.358 -1.6728 -0.3959  0.8975
  828THF    H1212703   4.127   3.253   3.143 -0.3658  0.7179 -0.5430
  828THF    H1312704   4.079   3.092   3.083 -3.1636 -1.4587  0.4828
  829THF     O112705   0.530   1.635   3.388 -0.0555 -0.3158  0.1542
  829THF     C212706   0.406   1.700   3.361 -0.4765 -0.2834  0.3722
  829THF     C312707   0.638   1.723   3.356 -0.0007 -0.1525 -0.0568
  829THF     H412708   0.351   1.720   3.453 -0.2240  0.8961  0.2829
  829THF     H512709   0.347   1.628   3.305 -0.7147  1.0284 -1.1349
  829THF     H612710   0.663   1.778   3.447 -2.2410  0.1030  0.4555
  829THF     H712711   0.730   1.677   3.320  1.4700  0.5789  2.5175
  829THF     C812712   0.580   1.811   3.257  0.1058  0.6498  0.9295
  829THF     C912713   0.436   1.829   3.294 -0.5311  0.2602 -0.0848
  829THF    H1012714   0.597   1.778   3.155 -0.2167  0.7972  0.8276
  829THF    H1112715   0.631   1.908   3.252 -0.6971  1.0900  1.0736
  829THF    H1212716   0.395   1.903   3.363  0.5570 -1.0865  2.1184
  829THF    H1312717   0.378   1.850   3.204  0.0067  2.2301 -0.0185
  830THF     O112718   1.896   1.428   5.349  0.4725 -0.3205  0.1768
  830THF     C212719   1.922   1.566   5.360 -0.3355  0.4486  0.4280
  830THF     C312720   1.761   1.410   5.318 -0.4398 -0.6578  0.4849
  830THF     H412721   1.948   1.600   5.260 -1.3438 -1.5751 -0.5934
  830THF     H512722   2.009   1.581   5.424  0.4694  0.8346 -0.7126
  830THF     H612723   1.737   1.427   5.213 -0.3084 -1.4668  0.3172
  830THF     H712724   1.726   1.310   5.344 -0.2836 -0.4814  1.3804
  830THF     C812725   1.698   1.501   5.412  0.0301 -0.4206 -0.4637
  830THF     C912726   1.792   1.623   5.416  0.3538  0.4417 -0.4774
  830THF    H1012727   1.683   1.468   5.515 -1.9980 -1.4144 -1.0393
  830THF    H1112728   1.597   1.524   5.380 -0.1667  0.7883  0.9002
  830THF    H1212729   1.753   1.711   5.365 -1.3880 -1.9444 -3.6058
  830THF    H1312730   1.798   1.649   5.522  1.7992 -1.5997  0.0013
  831THF     O112731   4.853   4.785   1.743  0.3220 -0.2248 -0.1988
  831THF     C212732   4.819   4.887   1.837 -0.5451 -0.3566  0.5610
  831THF     C312733   4.992   4.764   1.742 -0.3706  0.0403  0.6017
  831THF     H412734   4.823   4.851   1.940  0.7743  0.1969  0.7127
  831THF     H512735   4.728   4.944   1.816 -0.0006  0.1814 -0.3943
  831THF     H612736   5.024   4.700   1.824  2.4973  1.2013  0.5340
  831THF     H712737   5.021   4.723   1.645 -2.1181 -0.1110  0.1220
  831THF     C812738   5.052   4.907   1.767  0.1383  0.5393  0.1199
  831THF     C912739   4.937   4.988   1.823 -0.8338  0.1606  0.0140
  831THF    H1012740   5.077   4.949   1.670 -0.2926 -0.3124 -0.3734
  831THF    H1112741   5.142   4.912   1.828 -0.1666  0.8184  0.5564
  831THF    H1212742   4.966   5.028   1.920  1.3489 -0.8487 -0.1488
  831THF    H1312743   4.886   5.057   1.756  1.0961  0.8668 -0.7906
  832THF     O112744   3.295   3.625   0.543  0.4902  0.1812 -0.3044
  832THF     C212745   3.384   3.722   0.590  0.0857 -0.1582 -0.3031
  832THF     C312746   3.316   3.600   0.407 -0.7416 -0.4916 -0.2416
  832THF     H412747   3.480   3.687   0.626  0.2895  1.8725  1.2942
  832THF     H512748   3.332   3.776   0.669 -2.6147  1.6365 -3.0343
  832THF     H612749   3.333   3.494   0.389  2.0705 -0.5212  1.9290
  832THF     H712750   3.220   3.632   0.366 -0.5242  0.4916  0.0027
  832THF     C812751   3.431   3.697   0.362 -0.2594 -0.1883 -0.4385
  832THF     C912752   3.422   3.810   0.467 -0.0394  0.1100 -0.7881
  832THF    H1012753   3.421   3.739   0.262 -2.5232 -3.6057 -1.8370
  832THF    H1112754   3.523   3.640   0.368 -0.4132 -0.3023  1.1316
  832THF    H1212755   3.514   3.862   0.492 -0.9875  0.8878  1.3598
  832THF    H1312756   3.345   3.879   0.431  1.1354  1.2927 -1.1258
  833THF     O112757   1.590   3.014   2.738 -0.2336 -0.1248  0.1763
  833THF     C212758   1.483   2.942   2.800 -0.3780  0.5759 -1.4258
  833THF     C312759   1.600   3.138   2.799 -0.2247 -0.3514 -0.1957
  833THF     H412760   1.510   2.920   2.903 -0.0730  0.3125 -1.5596
  833THF     H512761   1.454   2.847   2.755 -0.9605  0.8826 -1.7075
  833THF     H612762   1.631   3.129   2.903  1.3848 -0.4375 -0.6614
  833THF     H712763   1.677   3.202   2.756  0.1775  0.4155  1.5525
  833THF     C812764   1.455   3.184   2.778  0.4799 -0.1933 -0.2717
  833THF     C912765   1.379   3.052   2.798  0.2103  0.2391 -0.4347
  833THF    H1012766   1.434   3.234   2.684 -1.6796  1.2551  0.8965
  833THF    H1112767   1.408   3.242   2.858 -0.3593 -0.6035 -0.4458
  833THF    H1212768   1.353   3.052   2.904  1.3105  0.0600 -0.1542
  833THF    H1312769   1.288   3.033   2.740  0.3829  0.0501 -0.6465
  834THF     O112770   1.766   3.938   4.420 -0.2597 -0.4054 -0.6728
  834THF     C212771   1.671   4.032   4.466  0.3429 -0.0597 -0.8153
  834THF     C312772   1.742   3.828   4.513  0.1484  0.6172  0.3232
  834THF     H412773   1.574   4.023   4.418 -0.7449 -2.4947  1.5819
  834THF     H512774   1.711   4.127   4.432  0.6321 -0.0206 -0.3793
  834THF     H612775   1.667   3.758   4.477  0.0194 -0.5364  2.6822
  834THF     H712776   1.838   3.776   4.508 -0.7123 -0.9692 -1.3253
  834THF     C812777   1.724   3.879   4.648  0.3638 -0.2087 -0.0414
  834THF     C912778   1.664   4.011   4.615  0.5139  0.0502  0.4005
  834THF    H1012779   1.807   3.884   4.719  0.0967 -1.8011  0.4199
  834THF    H1112780   1.648   3.813   4.691  0.0201 -0.0372 -0.3784
  834THF    H1212781   1.559   4.017   4.645  1.0558  1.6716  2.1277
  834THF    H1312782   1.719   4.090   4.665 -2.4154  0.8354  2.6938
  835THF     O112783   3.606   5.114   2.000  0.1266  0.6958 -0.0276
  835THF     C212784   3.514   5.003   2.001  0.1939 -0.0068 -0.3157
  835THF     C312785   3.707   5.077   2.094 -0.4661  0.1731 -0.2626
  835THF     H412786   3.554   4.925   1.935 -1.1159  0.1405 -1.3305
  835THF     H512787   3.417   5.031   1.960  1.0023  1.2668 -1.4517
  835THF     H612788   3.779   5.002   2.062 -2.4315 -1.5815 -0.7605
  835THF     H712789   3.768   5.162   2.123  2.1205 -1.3940 -0.7374
  835THF     C812790   3.638   5.021   2.214 -0.4280 -0.0657 -0.0772
  835THF     C912791   3.510   4.962   2.151 -0.1684  0.3104  0.7437
  835THF    H1012792   3.616   5.106   2.278  0.1929  1.1487 -1.4393
  835THF    H1112793   3.700   4.951   2.269  0.7426 -1.1556 -2.6391
  835THF    H1212794   3.504   4.853   2.158  3.7213 -0.0616  0.7121
  835THF    H1312795   3.417   5.000   2.193 -1.1902  0.3368 -1.4093
  836THF     O112796   2.874   5.163   5.417  1.1011  0.1204  0.0179
  836THF     C212797   2.815   5.127   5.298 -0.0882  0.0856 -0.3839
  836THF     C312798   2.827   5.296   5.446 -0.0868  0.3978  0.2942
  836THF     H412799   2.709   5.107   5.308  0.0924 -0.1226  1.4176
  836THF     H512800   2.871   5.039   5.266  0.7924 -0.0183  1.3375
  836THF     H612801   2.762   5.315   5.531 -0.5884  2.0598 -0.4174
  836THF     H712802   2.920   5.351   5.463  0.3216 -0.1863  0.0133
  836THF     C812803   2.779   5.361   5.314 -0.5690  0.3502  0.2323
  836THF     C912804   2.838   5.257   5.219 -0.1157  0.4270 -0.3711
  836THF    H1012805   2.827   5.458   5.304  1.8217 -0.9498 -2.3300
  836THF    H1112806   2.671   5.362   5.298 -0.2250 -0.4001 -2.8719
  836THF    H1212807   2.797   5.255   5.118 -1.0679 -0.1962  0.0188
  836THF    H1312808   2.945   5.272   5.210 -0.1145  0.4257 -0.3561
  837THF     O112809   1.765   2.324   2.393 -0.0737 -0.5073 -0.1289
  837THF     C212810   1.793   2.216   2.486 -0.0388  0.1239  0.3756
  837THF     C312811   1.891   2.351   2.327 -0.6348  0.1110 -0.2845
  837THF     H412812   1.723   2.135   2.469 -1.3535  0.8912  1.8729
  837THF     H512813   1.779   2.247   2.590  0.9635  0.3868  0.4468
  837THF     H612814   1.875   2.393   2.228  1.6982 -0.2715 -0.8727
  837THF     H712815   1.954   2.421   2.382 -0.7778 -0.1599  0.2316
  837THF     C812816   1.966   2.214   2.333 -0.0753  0.2687  0.2254
  837THF     C912817   1.935   2.166   2.481 -0.1437 -0.1280  0.0715
  837THF    H1012818   2.073   2.222   2.314  0.1129  1.4334  1.6413
  837THF    H1112819   1.922   2.144   2.262 -0.5273  1.2406 -0.4686
  837THF    H1212820   1.934   2.059   2.499 -0.1554 -0.3083 -0.9335
  837THF    H1312821   1.986   2.216   2.563 -0.4968 -1.0088  0.8359
  838THF     O112822   1.569   1.341   4.633 -0.1606  0.1377  0.0073
  838THF     C212823   1.614   1.216   4.686 -0.0287  0.8244  0.0207
  838THF     C312824   1.428   1.353   4.645  0.6700  0.1721  0.6117
  838THF     H412825   1.614   1.221   4.794  0.7902 -0.0514  0.0871
  838THF     H512826   1.709   1.176   4.649 -1.7612 -1.3793 -2.4848
  838THF     H612827   1.397   1.436   4.708 -1.6442  0.7216 -1.0858
  838THF     H712828   1.384   1.382   4.549  2.3093 -0.1659 -0.2832
  838THF     C812829   1.383   1.213   4.681  0.1405  0.1767 -0.8256
  838THF     C912830   1.499   1.120   4.643  0.4470 -0.0510  0.3800
  838THF    H1012831   1.292   1.177   4.632 -0.2936  0.6075 -0.3515
  838THF    H1112832   1.360   1.222   4.787  0.6065  0.6070 -0.7614
  838THF    H1212833   1.508   1.022   4.689  0.9748  0.8386  2.2731
  838THF    H1312834   1.492   1.104   4.536  0.7324 -0.0068  0.3537
  839THF     O112835   3.575   2.434   5.280 -0.1503  0.1492  0.0715
  839THF     C212836   3.454   2.487   5.239 -0.1083 -0.0486  0.7774
  839THF     C312837   3.546   2.320   5.368  0.2042 -0.9209  0.5460
  839THF     H412838   3.457   2.510   5.132  1.4800 -0.1448  0.7707
  839THF     H512839   3.444   2.582   5.292  0.3827  0.4177  0.0583
  839THF     H612840   3.619   2.240   5.353 -1.0583 -1.5906 -3.3509
  839THF     H712841   3.534   2.349   5.472 -2.6436  2.5020 -0.5422
  839THF     C812842   3.414   2.275   5.321  0.7023 -0.2819 -0.2468
  839THF     C912843   3.342   2.401   5.293  0.3481  0.0893  0.0322
  839THF    H1012844   3.368   2.220   5.403 -2.3411 -0.1258 -1.7065
  839THF    H1112845   3.412   2.220   5.227 -0.1978  0.8405 -0.9031
  839THF    H1212846   3.270   2.384   5.212  1.1877  0.4679 -0.8181
  839THF    H1312847   3.286   2.447   5.374  0.5898  1.9222 -0.7977
  840THF     O112848   1.258   3.411   2.442  0.2002 -0.5941  0.2904
  840THF     C212849   1.244   3.501   2.551  0.1598 -0.1171 -0.0532
  840THF     C312850   1.164   3.309   2.443 -0.2966 -0.1866  1.0408
  840THF     H412851   1.264   3.599   2.507 -0.0343 -0.7068 -1.5212
  840THF     H512852   1.319   3.464   2.621 -1.3247 -0.9949  1.1171
  840THF     H612853   1.144   3.269   2.344  1.1158 -0.7006  0.9401
  840THF     H712854   1.193   3.226   2.507 -0.4514  0.1486  1.5569
  840THF     C812855   1.046   3.386   2.501  0.2273 -0.3565 -0.3983
  840THF     C912856   1.103   3.490   2.594 -0.4644  0.1793  0.0318
  840THF    H1012857   0.962   3.326   2.536  0.1011  1.4485  2.7716
  840THF    H1112858   1.011   3.442   2.414  3.7413  0.6508 -1.3017
  840THF    H1212859   1.052   3.586   2.601  0.3215  0.5957  0.1753
  840THF    H1312860   1.105   3.465   2.701  3.0569  0.6607  0.2067
  841THF     O112861   3.469   3.102   1.047  0.1737 -0.4754  0.1774
  841THF     C212862   3.611   3.101   1.050  0.0894 -0.2735 -0.1413
  841THF     C312863   3.438   2.963   1.013  0.7107  0.4425 -0.5529
  841THF     H412864   3.655   3.057   1.139 -3.5354 -0.0627  1.9517
  841THF     H512865   3.649   3.202   1.033 -0.3981 -0.3859 -2.1047
  841THF     H612866   3.441   2.896   1.099 -0.6893  0.3441 -0.5706
  841THF     H712867   3.339   2.955   0.970  0.9341 -0.2199 -0.9674
  841THF     C812868   3.528   2.935   0.892  0.0715  0.2079  0.0913
  841THF     C912869   3.650   3.013   0.933 -0.4598 -0.2033  0.2266
  841THF    H1012870   3.478   2.998   0.819 -0.2019  1.5451  1.3972
  841THF    H1112871   3.535   2.828   0.870 -0.1565  0.1500  0.2967
  841THF    H1212872   3.718   2.936   0.970  0.6390  1.5081  1.8952
  841THF    H1312873   3.695   3.057   0.844 -0.5527 -1.7965 -0.6573
  842THF     O112874   3.961   0.641   0.698 -0.2851 -0.3797 -0.2870
  842THF     C212875   3.922   0.628   0.565  0.2869 -0.1538  0.1082
  842THF     C312876   3.948   0.781   0.741 -0.1936  0.3293  0.5749
  842THF     H412877   3.814   0.637   0.553 -0.1897  2.4096  4.2387
  842THF     H512878   3.957   0.535   0.520  1.1584 -0.4311  1.3079
  842THF     H612879   3.849   0.794   0.785  0.2635  2.1860  1.1608
  842THF     H712880   4.021   0.806   0.818  1.3970  0.5553 -0.9376
  842THF     C812881   3.957   0.863   0.613  0.6114 -0.1380 -0.1790
  842THF     C912882   3.988   0.756   0.506 -0.2241  0.1031  0.1196
  842THF    H1012883   4.022   0.950   0.608 -1.0902  1.3281  1.7208
  842THF    H1112884   3.858   0.905   0.594  0.8448  0.7533  0.5122
  842THF    H1212885   3.942   0.774   0.409  0.9078  1.4465 -0.1927
  842THF    H1312886   4.095   0.739   0.491  0.2389 -0.3958  3.1965
  843THF     O112887   4.276   0.082   0.032  0.0979  0.4012 -0.3567
  843THF     C212888   4.354   0.099  -0.088 -0.4357  0.9907  1.3282
  843THF     C312889   4.331  -0.026   0.111 -0.8164  0.3056  0.1974
  843THF     H412890   4.430   0.176  -0.080 -0.4404  0.9106  2.3214
  843THF     H512891   4.291   0.125  -0.173  3.2725  1.5508 -1.5104
  843THF     H612892   4.411   0.017   0.172  1.9024 -1.3311 -1.9996
  843THF     H712893   4.246  -0.070   0.163 -0.7447  1.5482  1.4461
  843THF     C812894   4.374  -0.122   0.004  0.1958  0.2061  0.0905
  843THF     C912895   4.426  -0.036  -0.108 -0.2205  0.0379 -0.6299
  843THF    H1012896   4.281  -0.166  -0.032 -1.0667  3.3302 -0.7884
  843THF    H1112897   4.440  -0.196   0.049  0.9157  1.2905  0.8568
  843THF    H1212898   4.529  -0.004  -0.090 -0.9177  2.3410 -0.3666
  843THF    H1312899   4.412  -0.084  -0.204  2.4655 -3.1598  0.3893
  844THF     O112900   1.376   0.867   2.932 -0.5370  0.0168 -0.3228
  844THF     C212901   1.442   0.897   3.055 -0.1091 -0.0204 -0.6701
  844THF     C312902   1.307   0.985   2.892 -0.0283 -0.0385 -0.3466
  844THF     H412903   1.533   0.945   3.021  1.1388 -3.4813 -2.7075
  844THF     H512904   1.467   0.804   3.107  2.1437  1.2931  0.7115
  844THF     H612905   1.369   1.043   2.824 -0.0617  1.5648  0.9176
  844THF     H712906   1.219   0.970   2.830 -0.5873 -0.5132  0.5384
  844THF     C812907   1.272   1.060   3.020  0.1548  0.3115  0.4333
  844THF     C912908   1.346   0.985   3.125  0.6281 -0.7185 -0.0711
  844THF    H1012909   1.169   1.036   3.047  0.6379 -0.3648  1.7329
  844THF    H1112910   1.296   1.166   3.016 -1.2905  0.6302 -0.8704
  844THF    H1212911   1.382   1.054   3.201  0.1882  1.0952 -1.4366
  844THF    H1312912   1.282   0.920   3.185  0.9971 -1.8423 -0.8452
  845THF     O112913   3.961   3.826   2.937 -0.3097 -0.7101  0.5898
  845THF     C212914   3.841   3.744   2.920 -0.6439 -0.1787 -0.0951
  845THF     C312915   4.026   3.830   2.805  0.3508 -0.0489 -0.0807
  845THF     H412916   3.771   3.764   3.001 -0.6146  1.8961 -0.5415
  845THF     H512917   3.864   3.638   2.903  0.6500  0.0302  0.2519
  845THF     H612918   4.064   3.932   2.794 -0.2726  0.4851  2.1350
  845THF     H712919   4.105   3.756   2.793  1.3743  1.0391 -0.1850
  845THF     C812920   3.911   3.808   2.706 -0.1391 -1.0868 -0.1345
  845THF     C912921   3.783   3.797   2.789 -0.6796  0.0574  0.1264
  845THF    H1012922   3.926   3.710   2.661 -1.2474 -1.1938 -0.2807
  845THF    H1112923   3.910   3.876   2.620  1.3795 -0.7089  0.1054
  845THF    H1212924   3.746   3.900   2.792 -0.6488  0.0916 -0.4882
  845THF    H1312925   3.712   3.730   2.741  0.5811 -0.4787 -1.0759
  846THF     O112926   1.814   4.022   0.669 -0.0347  0.1193 -0.2086
  846THF     C212927   1.941   3.990   0.612  0.5203 -0.2572 -0.6855
  846THF     C312928   1.851   4.106   0.779 -0.2385 -0.5284 -0.1982
  846THF     H412929   1.984   4.080   0.569 -0.4823  0.0298 -1.1246
  846THF     H512930   1.937   3.925   0.525  3.9451 -1.3822 -0.1372
  846THF     H612931   1.862   4.208   0.745  2.2123 -0.3340  0.9358
  846THF     H712932   1.779   4.116   0.860  0.4587 -0.5682  0.4416
  846THF     C812933   1.979   4.046   0.836 -0.2991  0.5818 -0.2214
  846THF     C912934   2.028   3.946   0.730 -0.2136  0.0665  0.5066
  846THF    H1012935   1.950   3.981   0.918  0.1085  0.8775  0.1625
  846THF    H1112936   2.061   4.112   0.865  1.9037 -2.7826  1.9616
  846THF    H1212937   2.135   3.948   0.709 -0.7169 -1.7453 -3.0756
  846THF    H1312938   1.997   3.843   0.747  2.0628 -1.0623 -1.5177
  847THF     O112939   2.917   2.939   2.126  0.2665 -0.3263  0.0870
  847THF     C212940   3.042   2.892   2.087 -0.5797 -0.6627  0.3641
  847THF     C312941   2.822   2.832   2.095 -0.2187  0.3602  0.7987
  847THF     H412942   3.113   2.967   2.123 -1.6220 -0.0240  1.1650
  847THF     H512943   3.050   2.895   1.978 -1.6625  3.0535  0.2544
  847THF     H612944   2.733   2.835   2.159 -0.6699  1.9079  0.1224
  847THF     H712945   2.799   2.835   1.989  0.8569  0.1526  0.5481
  847THF     C812946   2.897   2.703   2.124  0.0041 -0.7460 -0.0787
  847THF     C912947   3.044   2.749   2.142 -0.2157 -0.4431  0.1352
  847THF    H1012948   2.884   2.637   2.038  0.0729 -0.7049 -0.1200
  847THF    H1112949   2.855   2.652   2.211 -0.5131  2.2978  1.5851
  847THF    H1212950   3.089   2.755   2.241  0.6517  0.3145 -0.2925
  847THF    H1312951   3.103   2.689   2.072  0.8446 -0.2163  0.8033
  848THF     O112952   0.713   1.150   5.026  0.0793  0.7157  0.4992
  848THF     C212953   0.800   1.040   5.058  0.3319 -0.0344  0.0362
  848THF     C312954   0.769   1.264   5.083  0.0406 -0.7314  0.4219
  848THF     H412955   0.879   1.030   4.983  1.0468  0.7087  0.6727
  848THF     H512956   0.750   0.943   5.052  0.0774 -0.0212  1.5218
  848THF     H612957   0.809   1.327   5.004 -0.0506  1.8034  2.2625
  848THF     H712958   0.700   1.332   5.133  2.1093  0.3204  2.0042
  848THF     C812959   0.879   1.226   5.170  0.0721  0.1053  0.0616
  848THF     C912960   0.869   1.075   5.188  0.4865  0.2479  0.7678
  848THF    H1012961   0.871   1.288   5.260  0.0359  2.5042 -1.5098
  848THF    H1112962   0.978   1.256   5.137  0.5794 -0.2659  1.1996
  848THF    H1212963   0.968   1.029   5.195 -0.9798 -3.2015  0.9166
  848THF    H1312964   0.809   1.041   5.272 -0.8019  3.0745  1.0990
  849THF     O112965   4.453   4.847   3.491  0.3466  0.0773  0.3964
  849THF     C212966   4.406   4.979   3.521  0.3895 -0.4196  0.7372
  849THF     C312967   4.574   4.857   3.416 -0.1750  0.1074 -0.2473
  849THF     H412968   4.337   4.974   3.605  0.1978  0.3029  0.6324
  849THF     H512969   4.356   5.018   3.433 -1.7283 -1.5851  1.3607
  849THF     H612970   4.623   4.762   3.396 -0.7430 -0.1422 -0.4815
  849THF     H712971   4.553   4.895   3.316  1.3853  1.1482 -0.2239
  849THF     C812972   4.640   4.968   3.499  0.0771  0.7066  0.2236
  849THF     C912973   4.529   5.058   3.546 -0.5910  0.0997  0.2123
  849THF    H1012974   4.706   5.029   3.438  1.5722 -0.7272  0.3002
  849THF    H1112975   4.681   4.918   3.587  2.2214  0.5888 -0.7833
  849THF    H1212976   4.539   5.096   3.647  0.5950  0.5640 -0.0613
  849THF    H1312977   4.528   5.153   3.493 -0.6666 -0.8493 -1.5842
  850THF     O112978   3.085   0.750   0.095  0.4595 -0.1193  0.5770
  850THF     C212979   3.213   0.808   0.097 -0.3466  0.3191  0.2733
  850THF     C312980   2.979   0.845   0.118 -0.4516  0.5719  0.0979
  850THF     H412981   3.226   0.845  -0.005 -3.6037 -2.5476 -1.3955
  850THF     H512982   3.299   0.748   0.126  1.3080  2.5028  0.1550
  850THF     H612983   2.967   0.901   0.026  2.6060  0.5371 -0.4316
  850THF     H712984   2.888   0.795   0.153  0.3353  0.5590  2.2936
  850THF     C812985   3.047   0.943   0.218  0.7928  0.1531  0.4314
  850THF     C912986   3.195   0.917   0.195  0.4426  0.3985  0.7569
  850THF    H1012987   3.019   0.909   0.317 -0.3338 -0.0052  0.0700
  850THF    H1112988   3.009   1.045   0.208  0.0616 -0.3415 -3.0761
  850THF    H1212989   3.242   1.003   0.148 -1.0791  0.7545 -0.1889
  850THF    H1312990   3.246   0.905   0.291 -0.7573 -0.0263  1.3557
  851THF     O112991   5.281   0.766   0.048 -0.2043 -0.6608 -0.3832
  851THF     C212992   5.286   0.625   0.034  0.5682  0.1874 -0.5561
  851THF     C312993   5.292   0.800   0.181 -0.2619  0.9866 -0.1953
  851THF     H412994   5.387   0.585   0.034  0.4591 -0.1329  0.9917
  851THF     H512995   5.240   0.591  -0.058  2.4642 -0.0469 -1.4606
  851THF     H612996   5.393   0.782   0.217 -0.3139  0.1253 -0.4767
  851THF     H712997   5.260   0.904   0.194  0.9527  1.3850 -0.2631
  851THF     C812998   5.197   0.698   0.246  0.9046 -0.8927 -0.4853
  851THF     C912999   5.206   0.580   0.158  0.8778 -0.1228  0.7918
  851THF    H1013000   5.097   0.743   0.245  1.0677 -0.5355 -0.7731
  851THF    H1113001   5.223   0.670   0.348  2.7668 -0.6036 -0.8470
  851THF    H1213002   5.252   0.495   0.208  0.6635 -0.5632  0.2463
  851THF    H1313003   5.105   0.553   0.130  0.9595  0.5454 -0.1954
  852THF     O113004   3.992   3.663   0.163  0.7577 -0.5775  0.0300
  852THF     C213005   3.869   3.721   0.167  0.1288 -0.5342 -0.1275
  852THF     C313006   4.027   3.618   0.293  0.5460  0.5050 -0.0619
  852THF     H413007   3.799   3.639   0.153 -1.1724  0.3690  0.8988
  852THF     H513008   3.850   3.797   0.091  1.1594 -0.5358 -0.4040
  852THF     H613009   3.978   3.524   0.320  3.8825 -0.7557  2.3112
  852THF     H713010   4.133   3.604   0.312  0.6119  0.9945 -0.0604
  852THF     C813011   3.973   3.729   0.387  0.2550 -0.4773  0.6977
  852THF     C913012   3.849   3.766   0.314  0.2027 -0.3301  1.0395
  852THF    H1013013   4.061   3.793   0.389  0.7987 -1.0121 -2.0519
  852THF    H1113014   3.968   3.690   0.489  0.3440  0.2036  0.9642
  852THF    H1213015   3.775   3.696   0.353 -0.8175  0.8067  1.2012
  852THF    H1313016   3.807   3.865   0.329 -2.0486 -0.8050 -1.3973
  853THF     O113017   4.302   0.608   4.480 -0.2046 -0.1140 -0.1149
  853THF     C213018   4.291   0.623   4.617 -0.0461  0.4146 -0.1041
  853THF     C313019   4.204   0.520   4.430 -0.3295 -1.0400  0.0792
  853THF     H413020   4.217   0.702   4.633  1.4613  1.8744  0.0032
  853THF     H513021   4.382   0.650   4.670 -0.8418 -0.7344  1.9579
  853THF     H613022   4.119   0.586   4.416  2.0459  1.7012 -3.1994
  853THF     H713023   4.205   0.485   4.327 -3.8592  0.5497 -0.6254
  853THF     C813024   4.197   0.415   4.545  0.3830  0.2067  0.4030
  853THF     C913025   4.248   0.485   4.671 -0.0827  0.2080 -0.2715
  853THF    H1013026   4.260   0.329   4.524  0.1708 -0.4774  2.3473
  853THF    H1113027   4.098   0.376   4.566  1.0025 -0.2971  2.7133
  853THF    H1213028   4.160   0.485   4.734  0.7043  2.5537  0.9577
  853THF    H1313029   4.326   0.435   4.728 -1.0221 -0.0846  0.7922
  854THF     O113030   5.298   3.409   0.198  0.3736 -0.3662 -0.4517
  854THF     C213031   5.424   3.365   0.163 -0.8069  0.0958  1.1644
  854THF     C313032   5.212   3.297   0.197 -0.7458  0.1841 -0.1207
  854THF     H413033   5.469   3.298   0.235  1.0169 -0.0587 -0.0488
  854THF     H513034   5.494   3.447   0.147 -0.9414  0.5963  2.9465
  854THF     H613035   5.233   3.238   0.286  0.6452  1.6880  0.6221
  854THF     H713036   5.106   3.322   0.208 -0.7965 -0.3154  0.6348
  854THF     C813037   5.250   3.229   0.070 -0.2318 -0.1809  0.3577
  854THF     C913038   5.389   3.284   0.035  0.1883 -0.6949  0.1334
  854THF    H1013039   5.185   3.274  -0.005  0.7640  1.7021  0.5679
  854THF    H1113040   5.246   3.120   0.066 -0.5411 -0.1481 -0.7479
  854THF    H1213041   5.458   3.204   0.005 -2.6719 -2.4130 -2.4715
  854THF    H1313042   5.378   3.342  -0.056 -0.2900 -0.7432  0.1597
  855THF     O113043   5.136   4.782   2.047 -0.2279 -0.1194 -0.2895
  855THF     C213044   5.246   4.691   2.041  0.5328 -0.2069 -0.2732
  855THF     C313045   5.035   4.722   2.129  0.0228  0.1663 -0.1805
  855THF     H413046   5.311   4.726   2.120 -2.0708  0.0517  1.9228
  855THF     H513047   5.294   4.688   1.943 -1.1487 -2.5957 -1.1372
  855THF     H613048   4.994   4.789   2.204  1.3270  0.3246  0.4266
  855THF     H713049   4.952   4.704   2.061  2.0038 -0.7348 -2.5185
  855THF     C813050   5.084   4.592   2.187  0.3679  0.3021 -0.6764
  855THF     C913051   5.197   4.552   2.087 -0.1721 -0.4545  0.4313
  855THF    H1013052   5.004   4.518   2.190  0.3596  0.2043 -2.2376
  855THF    H1113053   5.130   4.599   2.285  1.2842  2.0809 -1.1970
  855THF    H1213054   5.287   4.502   2.121  2.1838  2.0770 -1.6374
  855THF    H1313055   5.142   4.494   2.013 -1.0848 -0.0465  0.7618
  856THF     O113056   2.373   4.093   0.278  0.3369 -0.1838 -0.5170
  856THF     C213057   2.452   4.175   0.363  0.3572 -0.5944  0.7585
  856THF     C313058   2.375   3.955   0.335  0.0254 -0.2752  0.4140
  856THF     H413059   2.399   4.269   0.383 -0.8527 -1.4849  1.9617
  856THF     H513060   2.545   4.190   0.310 -0.5284 -2.3080 -1.4333
  856THF     H613061   2.290   3.896   0.302 -0.9030 -0.6616  3.2051
  856THF     H713062   2.468   3.909   0.302 -0.8480 -0.0232 -2.6396
  856THF     C813063   2.371   3.982   0.480 -0.6241 -0.2832 -0.4452
  856THF     C913064   2.461   4.103   0.493  0.3032 -0.2022  0.3959
  856THF    H1013065   2.409   3.896   0.535  1.8321  2.0745  1.8409
  856THF    H1113066   2.270   4.008   0.513  0.1171  2.2239  0.0695
  856THF    H1213067   2.431   4.156   0.583 -0.3906 -3.5688  2.3162
  856THF    H1313068   2.563   4.069   0.509  0.4399 -1.0467 -1.8685
  857THF     O113069   3.871   1.526   2.321 -0.1808  0.1535  0.3533
  857THF     C213070   3.920   1.576   2.197 -0.0709 -0.2912 -0.0671
  857THF     C313071   3.983   1.474   2.383  0.5042  0.2075  0.2551
  857THF     H413072   3.952   1.678   2.215  0.5596 -0.8327  2.1935
  857THF     H513073   3.844   1.576   2.118 -0.0561 -0.9745 -0.0912
  857THF     H613074   4.042   1.559   2.417  2.7356 -1.7694  1.6558
  857THF     H713075   3.958   1.409   2.467 -0.5629  1.1925  0.7119
  857THF     C813076   4.048   1.391   2.271 -0.6471 -0.0403 -0.4392
  857THF     C913077   4.026   1.478   2.154 -0.1133  0.3345  0.2401
  857THF    H1013078   4.000   1.295   2.251 -0.6351  0.0843 -1.0802
  857THF    H1113079   4.155   1.377   2.287 -0.5746  1.0997  0.1343
  857THF    H1213080   4.119   1.534   2.136 -0.6548  1.5260  1.0029
  857THF    H1313081   4.006   1.422   2.063  1.2365 -1.2716  0.8871
  858THF     O113082   5.034   4.050   3.357  0.5496 -0.0055  1.0503
  858THF     C213083   4.992   3.977   3.470  0.7661  0.2477 -0.1453
  858THF     C313084   5.139   4.129   3.397 -0.5059 -0.2842 -0.7695
  858THF     H413085   4.938   3.891   3.432  0.6824  0.0034  0.5186
  858THF     H513086   4.916   4.024   3.533 -0.9225 -1.3055 -0.9369
  858THF     H613087   5.218   4.145   3.324 -0.5374 -0.8793 -0.9330
  858THF     H713088   5.110   4.229   3.430  2.0965  0.3402 -0.1198
  858THF     C813089   5.216   4.052   3.506 -0.7428  0.3734 -0.0357
  858THF     C913090   5.122   3.942   3.543  0.0870 -0.4436 -0.5365
  858THF    H1013091   5.240   4.118   3.589 -0.0103  0.3230 -0.2026
  858THF    H1113092   5.310   4.017   3.464 -0.6326 -1.2955  1.4563
  858THF    H1213093   5.179   3.861   3.497  1.8449  1.1534 -1.2995
  858THF    H1313094   5.110   3.913   3.648 -1.6347 -1.6550 -1.0271
  859THF     O113095   3.586   3.562   5.204 -0.6739 -0.2859  0.6583
  859THF     C213096   3.588   3.632   5.331 -0.1451  0.8909 -0.4448
  859THF     C313097   3.535   3.431   5.234 -0.4435 -0.2930 -0.1693
  859THF     H413098   3.510   3.707   5.342 -1.6725 -0.5033 -1.4528
  859THF     H513099   3.678   3.694   5.341 -0.1917  0.8338  0.3797
  859THF     H613100   3.438   3.426   5.186 -0.6111  2.0832 -0.2077
  859THF     H713101   3.602   3.359   5.187  0.9617 -0.1073  1.4337
  859THF     C813102   3.520   3.411   5.385  0.6675 -0.8765  0.1166
  859THF     C913103   3.589   3.526   5.441 -0.6217 -0.2909  0.3738
  859THF    H1013104   3.559   3.314   5.416  1.3546 -1.2398 -1.7351
  859THF    H1113105   3.414   3.413   5.410  1.0544  1.8279  1.8996
  859THF    H1213106   3.547   3.561   5.535  0.6854  0.5144  0.6886
  859THF    H1313107   3.692   3.495   5.463 -1.0989 -2.1037  0.2038
  860THF     O113108   4.618   3.719   0.413  0.3769 -1.0409  0.1979
  860THF     C213109   4.522   3.766   0.325  0.2675 -0.3700  0.3178
  860THF     C313110   4.591   3.764   0.540 -0.5097  0.2128 -0.0257
  860THF     H413111   4.523   3.711   0.231 -0.0728  2.4784 -1.4728
  860THF     H513112   4.552   3.867   0.299 -0.7445 -0.2903 -0.6187
  860THF     H613113   4.639   3.704   0.617 -0.6187 -0.6900 -0.6510
  860THF     H713114   4.642   3.861   0.543  2.3859 -1.2182  1.8586
  860THF     C813115   4.438   3.760   0.551 -0.0701 -0.3156  0.2454
  860THF     C913116   4.391   3.747   0.410 -0.0028 -0.0558  1.2723
  860THF    H1013117   4.407   3.855   0.594  2.7378  0.3159  1.0522
  860THF    H1113118   4.402   3.682   0.618 -0.9273  0.2449  0.4460
  860THF    H1213119   4.348   3.648   0.399  1.3934 -0.5312 -0.3297
  860THF    H1313120   4.316   3.821   0.379  0.3572  1.9808  4.7834
  861THF     O113121   4.717   0.949   2.983  0.2700 -0.0899 -0.4672
  861THF     C213122   4.601   0.992   3.045  0.7189 -0.0297 -0.4174
  861THF     C313123   4.763   1.061   2.914 -0.0443 -0.4963  0.3453
  861THF     H413124   4.631   1.052   3.130  0.5421 -1.8684  1.0208
  861THF     H513125   4.553   0.904   3.088  1.4364  0.5024  1.6011
  861THF     H613126   4.815   1.139   2.969 -0.6449  0.2827 -0.1718
  861THF     H713127   4.831   1.031   2.834  2.0182  2.4515  0.7995
  861THF     C813128   4.637   1.133   2.867 -1.0830  0.0081 -0.5808
  861THF     C913129   4.526   1.056   2.932  0.3578 -0.3771 -0.8129
  861THF    H1013130   4.623   1.129   2.759 -1.6527  0.8926 -0.5506
  861THF    H1113131   4.640   1.239   2.891 -0.7779  0.0378 -0.7469
  861THF    H1213132   4.434   1.105   2.963  0.8884  0.2463 -0.1814
  861THF    H1313133   4.500   0.969   2.871  2.2584 -2.0463  0.6025
  862THF     O113134   5.125   1.756   1.817 -0.1101  0.4335  0.5486
  862THF     C213135   5.040   1.838   1.889  0.4837 -0.4389 -0.1539
  862THF     C313136   5.103   1.616   1.857 -1.0413 -0.3926 -0.0031
  862THF     H413137   5.025   1.934   1.841 -1.3511 -1.0527 -0.8902
  862THF     H513138   5.091   1.866   1.981  0.7752  0.0761 -0.4680
  862THF     H613139   5.135   1.542   1.784  0.3296  0.6068 -0.4566
  862THF     H713140   5.150   1.588   1.952 -1.7055  1.4631  0.9317
  862THF     C813141   4.953   1.609   1.875 -0.0591 -0.4576  0.2923
  862THF     C913142   4.918   1.747   1.916  0.7925  0.1381  0.1377
  862THF    H1013143   4.920   1.533   1.946 -0.2639 -0.5059  0.1454
  862THF    H1113144   4.910   1.604   1.775  1.1759  0.3433 -0.2906
  862THF    H1213145   4.829   1.771   1.858  0.1801 -0.5734  0.7592
  862THF    H1313146   4.893   1.751   2.022  0.5410  1.5951  0.0468
  863THF     O113147   2.335   0.876   3.868 -0.3540  0.0831 -0.6281
  863THF     C213148   2.357   0.806   3.993  0.2624  0.2742  0.7373
  863THF     C313149   2.360   1.017   3.892 -0.3880  0.6086 -0.5769
  863THF     H413150   2.385   0.702   3.975  0.9972  0.3140  1.5707
  863THF     H513151   2.270   0.816   4.059 -0.1519  0.0316  0.2362
  863THF     H613152   2.374   1.080   3.804  0.7020 -0.7963 -1.4533
  863THF     H713153   2.277   1.050   3.954 -0.6512 -1.2323  0.1183
  863THF     C813154   2.482   1.013   3.984 -0.4761 -0.0294  0.9016
  863THF     C913155   2.469   0.885   4.061  0.6037 -0.8279 -0.6370
  863THF    H1013156   2.494   1.098   4.051  1.4376  1.0731 -0.7192
  863THF    H1113157   2.572   1.014   3.923 -0.7446  0.8135  0.5034
  863THF    H1213158   2.565   0.835   4.062  1.4323  0.7106  0.8410
  863THF    H1313159   2.436   0.904   4.163  0.5788  0.6647 -0.8967
  864THF     O113160   1.805   0.952   2.421 -0.2747 -0.0223 -0.1908
  864THF     C213161   1.853   1.060   2.337 -0.4243  1.2602 -0.2399
  864THF     C313162   1.799   1.009   2.553  0.3498  0.1163  0.4783
  864THF     H413163   1.768   1.116   2.299 -0.7572  0.9294  0.0139
  864THF     H513164   1.904   1.018   2.250  1.2848  0.7819  0.9379
  864THF     H613165   1.710   1.073   2.557  1.8389  2.3401  0.1763
  864THF     H713166   1.793   0.929   2.626  2.2236 -0.8696 -0.4061
  864THF     C813167   1.929   1.097   2.564 -0.0657  0.4133 -0.0371
  864THF     C913168   1.959   1.145   2.421  0.2009 -0.1619  0.3293
  864THF    H1013169   2.007   1.029   2.598 -1.5048 -2.0247 -1.3305
  864THF    H1113170   1.913   1.181   2.632 -1.1968  0.1129  0.0884
  864THF    H1213171   1.935   1.251   2.421  0.8253 -0.0045 -0.8635
  864THF    H1313172   2.064   1.123   2.401 -0.3811 -0.4100 -2.9511
  865THF     O113173   0.958   2.985   2.764 -0.1546 -0.0896  0.5803
  865THF     C213174   0.908   3.081   2.675  0.3496  0.8721  0.0086
  865THF     C313175   0.888   2.862   2.742  0.1751 -0.0372  0.1353
  865THF     H413176   0.950   3.058   2.576 -1.0495 -0.2211 -0.3626
  865THF     H513177   0.941   3.180   2.706 -1.3547  0.8798  1.9676
  865THF     H613178   0.941   2.802   2.667 -1.7667 -0.1061 -1.2724
  865THF     H713179   0.886   2.805   2.835 -1.1270 -2.9736 -1.5297
  865THF     C813180   0.752   2.890   2.687  0.0618  0.0598 -0.2175
  865THF     C913181   0.763   3.042   2.667  0.8001 -0.3209 -0.5220
  865THF    H1013182   0.666   2.885   2.753 -0.8745  0.0573 -1.4073
  865THF    H1113183   0.728   2.838   2.595  0.5489  0.8178 -0.7819
  865THF    H1213184   0.702   3.080   2.585  0.0054 -0.1105  0.1504
  865THF    H1313185   0.730   3.097   2.755  1.0516  0.6707 -1.0355
  866THF     O113186   2.844   3.165   1.549  0.5825  0.2627 -0.4044
  866THF     C213187   2.965   3.108   1.589 -0.1133 -0.6287 -0.3364
  866THF     C313188   2.744   3.104   1.630  0.5363 -0.2243  0.2510
  866THF     H413189   3.049   3.177   1.576 -3.3179  4.2710  2.2007
  866THF     H513190   2.973   3.011   1.540 -0.0678  0.5658 -2.8927
  866THF     H613191   2.650   3.159   1.624  0.4163 -0.3669  0.7077
  866THF     H713192   2.723   3.004   1.592 -1.9250  0.7808 -1.2991
  866THF     C813193   2.800   3.100   1.773  0.2524  0.1942  0.6321
  866THF     C913194   2.952   3.090   1.743 -0.1221 -0.4055 -0.5800
  866THF    H1013195   2.748   3.024   1.832 -0.2792 -0.2222 -0.3513
  866THF    H1113196   2.783   3.197   1.819  2.3278  0.8428  0.1400
  866THF    H1213197   3.007   3.172   1.788 -0.4151 -1.6777  2.3010
  866THF    H1313198   3.000   2.998   1.776  2.8606  1.5660  0.9977
  867THF     O113199   0.344   2.370   2.795  0.0300 -0.1981  0.0850
  867THF     C213200   0.442   2.416   2.700  0.5362  0.5714  0.3926
  867THF     C313201   0.218   2.410   2.744 -0.0420 -0.3152 -0.0404
  867THF     H413202   0.426   2.353   2.614 -0.0284 -0.0339  0.9333
  867THF     H513203   0.548   2.397   2.719  0.7785 -0.0470 -1.4181
  867THF     H613204   0.193   2.326   2.679 -0.2528 -0.3411  0.0723
  867THF     H713205   0.142   2.411   2.822  0.9823 -3.2562  1.1703
  867THF     C813206   0.240   2.541   2.673 -0.0109  0.0262 -0.1380
  867THF     C913207   0.397   2.558   2.677  0.3797  0.6457 -0.1104
  867THF    H1013208   0.198   2.625   2.727  0.0451  0.0444 -0.1220
  867THF    H1113209   0.195   2.552   2.574  0.7777  2.7106 -0.2859
  867THF    H1213210   0.439   2.581   2.579  0.2476 -0.3769 -0.4138
  867THF    H1313211   0.439   2.629   2.748 -3.5590  2.6946  0.4774
  868THF     O113212   4.440   2.213   0.705  0.3689  0.0987 -0.0293
  868THF     C213213   4.507   2.225   0.830  0.2262  0.1068 -0.0226
  868THF     C313214   4.348   2.099   0.711  0.3697 -0.1290 -0.4024
  868THF     H413215   4.463   2.292   0.905  0.4919  0.6075 -0.3128
  868THF     H513216   4.603   2.269   0.805  0.9134  0.2104  2.5503
  868THF     H613217   4.263   2.137   0.767 -0.5096 -0.3844 -1.5351
  868THF     H713218   4.306   2.070   0.614  1.8650  0.7419 -1.3690
  868THF     C813219   4.435   1.996   0.781 -0.1309 -0.2334  0.5621
  868THF     C913220   4.528   2.078   0.878  0.5305  0.7141  0.7794
  868THF    H1013221   4.504   1.950   0.710 -0.5097 -1.6129  1.0512
  868THF    H1113222   4.386   1.924   0.847  0.1359  0.8376  1.9820
  868THF    H1213223   4.502   2.062   0.983 -0.8216  0.5403  0.4381
  868THF    H1313224   4.635   2.061   0.866  0.9144  2.9029  0.6721
  869THF     O113225   5.084   1.042   5.354  0.3138  0.4196  0.1365
  869THF     C213226   5.124   1.130   5.247 -0.2294  0.2929  0.3731
  869THF     C313227   5.080   1.111   5.478  0.0282  0.5123  0.0905
  869THF     H413228   5.047   1.157   5.175  1.0753  1.8622 -0.4998
  869THF     H513229   5.198   1.068   5.196  0.3116  1.8017 -0.7490
  869THF     H613230   4.986   1.167   5.485 -0.7300 -0.7779  0.4888
  869THF     H713231   5.095   1.048   5.565  1.8572  0.8849  0.0839
  869THF     C813232   5.203   1.202   5.459  0.6961 -0.1666 -0.1817
  869THF     C913233   5.188   1.247   5.314 -0.2928  0.0337  0.2806
  869THF    H1013234   5.297   1.147   5.470  1.3651  0.7313 -1.2319
  869THF    H1113235   5.212   1.282   5.533 -0.3562 -0.1248 -0.0897
  869THF    H1213236   5.115   1.329   5.312 -0.1210  0.2472  1.6630
  869THF    H1313237   5.279   1.273   5.260 -0.2986 -2.1476 -0.8777
  870THF     O113238   2.841   3.328   4.298  0.2999 -0.2240  0.0152
  870THF     C213239   2.890   3.428   4.380 -0.5557  0.3686 -0.0831
  870THF     C313240   2.738   3.252   4.361 -0.0066  0.2315  0.2495
  870THF     H413241   2.825   3.515   4.371 -5.0313 -2.7391 -1.6225
  870THF     H513242   2.986   3.463   4.344 -0.3395 -1.8404 -1.8426
  870THF     H613243   2.639   3.291   4.338  0.6164  1.3666 -0.6581
  870THF     H713244   2.738   3.144   4.344 -1.1572 -0.2977  3.1307
  870THF     C813245   2.764   3.273   4.511 -0.0254 -0.4481 -0.8860
  870THF     C913246   2.890   3.362   4.520 -0.7239  0.7886  0.4915
  870THF    H1013247   2.798   3.183   4.563  0.2793  0.0078 -0.2763
  870THF    H1113248   2.680   3.318   4.564 -0.1479 -1.9141  0.2317
  870THF    H1213249   2.904   3.432   4.603 -1.3575  0.6766  0.6984
  870THF    H1313250   2.972   3.291   4.528  0.9639  2.6403  0.2915
  871THF     O113251   4.740   1.438   3.043 -0.4061  0.1875 -0.1429
  871THF     C213252   4.877   1.413   2.999  0.3070 -1.2670 -0.0745
  871THF     C313253   4.742   1.492   3.172  0.2181  0.3398  0.2775
  871THF     H413254   4.916   1.505   2.956  0.4087 -1.4876 -0.4564
  871THF     H513255   4.892   1.328   2.933  2.1714 -1.0670  0.0392
  871THF     H613256   4.696   1.591   3.177 -0.0076  0.2630 -0.2021
  871THF     H713257   4.678   1.429   3.233 -0.0258 -0.2372 -0.5551
  871THF     C813258   4.879   1.485   3.228 -0.0332  0.9319  0.1420
  871THF     C913259   4.949   1.394   3.129  0.3423 -0.8248 -0.0963
  871THF    H1013260   4.882   1.441   3.328 -2.1112 -2.2675 -1.0670
  871THF    H1113261   4.920   1.586   3.226  0.7405  0.6217 -0.4109
  871THF    H1213262   5.055   1.420   3.118  0.7481 -2.4338 -0.1462
  871THF    H1313263   4.934   1.290   3.157  1.0714 -0.4384  1.9733
  872THF     O113264   3.749   5.292   4.138  0.2506 -0.3567  0.2391
  872THF     C213265   3.749   5.314   3.995  0.1011  0.0914  0.0738
  872THF     C313266   3.760   5.422   4.198 -0.2625 -0.2388  0.1697
  872THF     H413267   3.682   5.238   3.952  0.9667  0.9824 -3.1625
  872THF     H513268   3.849   5.316   3.953 -0.2337 -0.6219 -0.8040
  872THF     H613269   3.730   5.404   4.302 -0.1254 -1.0554  0.0741
  872THF     H713270   3.866   5.445   4.186 -0.9833  3.3684 -0.2668
  872THF     C813271   3.655   5.497   4.118 -0.4452  0.3458 -0.2007
  872THF     C913272   3.686   5.447   3.979 -0.2351 -0.2186  0.5037
  872THF    H1013273   3.684   5.601   4.128  1.1234 -0.2710  2.5167
  872THF    H1113274   3.551   5.469   4.137  0.1744 -1.7017  0.4252
  872THF    H1213275   3.595   5.442   3.919  0.6025 -3.1807 -0.7030
  872THF    H1313276   3.742   5.520   3.922 -1.5803 -0.0597 -0.6814
  873THF     O113277   1.893   2.810   0.675  0.5604 -0.2124  0.2840
  873THF     C213278   1.761   2.761   0.682 -0.0600 -0.4501 -0.3365
  873THF     C313279   1.984   2.700   0.659  0.4674 -0.4788 -0.2330
  873THF     H413280   1.739   2.705   0.591 -0.5754 -1.3424  0.3201
  873THF     H513281   1.683   2.835   0.696  0.6306  0.4487 -1.1225
  873THF     H613282   1.968   2.643   0.567 -2.8971 -2.7614  1.5440
  873THF     H713283   2.087   2.735   0.662  0.1473  0.5964 -1.1849
  873THF     C813284   1.930   2.610   0.769  0.0836 -0.4602 -0.7435
  873THF     C913285   1.779   2.653   0.786  0.8141 -0.3154 -0.1607
  873THF    H1013286   1.997   2.615   0.855 -0.5687  0.4037 -0.2639
  873THF    H1113287   1.932   2.505   0.739 -1.8525 -0.5160 -0.8026
  873THF    H1213288   1.712   2.569   0.771  3.8398 -3.3243  1.6990
  873THF    H1313289   1.751   2.711   0.875  2.9161  1.2802 -0.4687
  874THF     O113290   5.355   4.413   3.026  0.2821 -0.3029  0.3463
  874THF     C213291   5.257   4.325   2.969 -0.2476  0.0417 -0.6018
  874THF     C313292   5.481   4.391   2.963  0.3314  0.2374 -0.7603
  874THF     H413293   5.201   4.388   2.899  0.9642  1.5616 -0.2522
  874THF     H513294   5.183   4.281   3.035 -2.0878  3.2731 -0.2866
  874THF     H613295   5.518   4.488   2.930 -2.7996  1.9393  0.3430
  874THF     H713296   5.549   4.348   3.036 -0.1466  2.5449  1.1486
  874THF     C813297   5.454   4.302   2.837 -0.0456 -0.3831 -0.1445
  874THF     C913298   5.335   4.227   2.891 -0.0839  0.8584  0.6120
  874THF    H1013299   5.539   4.250   2.794  0.2434  0.8575 -1.1196
  874THF    H1113300   5.424   4.377   2.764 -1.8437  0.0709  0.9741
  874THF    H1213301   5.283   4.184   2.805  0.4794  1.1636  0.1141
  874THF    H1313302   5.373   4.151   2.958  0.4551 -0.3512 -0.9979
  875THF     O113303   1.660   2.410   3.930  0.4234 -0.5255 -0.1756
  875THF     C213304   1.663   2.530   3.861 -0.6894 -0.3525  0.1513
  875THF     C313305   1.723   2.435   4.053  0.1669 -0.1752  0.0722
  875THF     H413306   1.600   2.610   3.899 -1.4772  0.1269 -2.0241
  875THF     H513307   1.635   2.530   3.756 -0.4160  1.4243  0.0588
  875THF     H613308   1.644   2.471   4.119 -0.8362 -0.8774 -0.7171
  875THF     H713309   1.765   2.341   4.090  0.4881 -0.0384  0.0557
  875THF     C813310   1.828   2.538   4.026  0.0284 -0.1035  0.5167
  875THF     C913311   1.805   2.569   3.881 -0.3067 -1.8523 -0.4000
  875THF    H1013312   1.929   2.506   4.050  1.9892  4.8101 -0.0010
  875THF    H1113313   1.827   2.629   4.085  0.9704 -0.2494  0.7597
  875THF    H1213314   1.820   2.675   3.857 -1.2602 -1.2608  1.4028
  875THF    H1313315   1.879   2.514   3.823  1.8278  0.7472 -0.3770
  876THF     O113316   2.816   0.321   0.102  0.3473  0.5376 -0.3484
  876THF     C213317   2.827   0.437   0.025  0.0259  0.2036 -0.3083
  876THF     C313318   2.700   0.255   0.057  0.7299  0.4814 -0.3746
  876THF     H413319   2.930   0.471   0.018  0.6622 -1.3153  1.1067
  876THF     H513320   2.762   0.519   0.056 -1.1974 -1.1334  0.7828
  876THF     H613321   2.710   0.148   0.079 -0.1588  0.4896  0.1406
  876THF     H713322   2.627   0.287   0.132  0.2907 -0.2783 -0.4670
  876THF     C813323   2.677   0.297  -0.089 -0.6207  0.0722 -0.0443
  876THF     C913324   2.793   0.390  -0.113  0.7917  0.2514 -0.0759
  876THF    H1013325   2.578   0.341  -0.101 -0.8325  0.6117  2.8992
  876THF    H1113326   2.695   0.212  -0.155 -0.8562  0.1306 -0.1876
  876THF    H1213327   2.867   0.337  -0.173  0.0291 -1.1602  0.1775
  876THF    H1313328   2.755   0.473  -0.172 -0.5853 -0.1468  0.1954
  877THF     O113329   3.745   0.826   5.320  0.7279 -0.1415 -0.0181
  877THF     C213330   3.693   0.809   5.451 -0.0813 -0.2170 -0.2559
  877THF     C313331   3.640   0.771   5.240 -0.0567 -0.4800 -0.3904
  877THF     H413332   3.739   0.878   5.522  0.5447 -0.7183 -0.1667
  877THF     H513333   3.713   0.709   5.490 -0.5251  0.1843  1.0405
  877THF     H613334   3.657   0.810   5.139  1.4762  2.8917  1.0495
  877THF     H713335   3.650   0.664   5.220  1.4721 -0.3725 -0.2937
  877THF     C813336   3.509   0.819   5.297  0.4020  0.1410  0.9275
  877THF     C913337   3.539   0.834   5.444 -0.6959 -0.7190 -0.1061
  877THF    H1013338   3.423   0.758   5.271  0.9497 -0.6838  1.0326
  877THF    H1113339   3.492   0.921   5.261  0.2504 -0.5914 -1.2367
  877THF    H1213340   3.510   0.932   5.483 -2.1706 -1.6383  1.2137
  877THF    H1313341   3.495   0.752   5.501  1.2791 -2.3228 -0.7686
  878THF     O113342   4.495   2.174   1.693 -0.1228 -0.4018 -0.2251
  878THF     C213343   4.507   2.045   1.637  0.1802 -0.6385 -0.2877
  878THF     C313344   4.437   2.152   1.827  0.0683 -0.1703  0.1129
  878THF     H413345   4.609   2.047   1.598 -0.1117  1.2963 -1.0590
  878THF     H513346   4.424   2.024   1.569  0.5966 -3.1876 -0.0985
  878THF     H613347   4.464   2.230   1.898  2.0652  0.2894 -1.0766
  878THF     H713348   4.329   2.139   1.828 -0.0238  0.3769 -0.8895
  878THF     C813349   4.479   2.011   1.874  0.3495  0.3558  0.0242
  878THF     C913350   4.486   1.937   1.747  0.1349  0.3678  0.7279
  878THF    H1013351   4.413   1.972   1.951 -0.5743 -2.3958 -2.0224
  878THF    H1113352   4.580   2.014   1.916  0.1679 -1.8521  0.7473
  878THF    H1213353   4.561   1.860   1.760 -2.8081 -2.9555 -0.2894
  878THF    H1313354   4.391   1.884   1.735  0.4132  0.0552 -0.1514
  879THF     O113355   3.018   1.131   1.655 -0.2793 -0.0160 -0.5254
  879THF     C213356   2.982   1.261   1.671 -0.1295 -0.4382  0.2165
  879THF     C313357   3.147   1.131   1.602  0.0042  0.4585 -0.2677
  879THF     H413358   3.021   1.287   1.770 -0.4177 -0.1592  0.2584
  879THF     H513359   2.875   1.284   1.668  0.3201  1.8689 -0.1529
  879THF     H613360   3.208   1.079   1.677  0.1377  3.3450  1.7929
  879THF     H713361   3.145   1.071   1.511 -3.0628  0.0330 -0.0022
  879THF     C813362   3.195   1.275   1.578 -0.2854 -0.0181  0.0260
  879THF     C913363   3.060   1.338   1.565 -0.2256 -0.5872 -0.1665
  879THF    H1013364   3.253   1.273   1.486 -0.4732  0.5017 -0.1079
  879THF    H1113365   3.249   1.326   1.658  0.0186 -1.7790  0.9994
  879THF    H1213366   3.068   1.441   1.600 -1.1522 -0.0611 -1.4041
  879THF    H1313367   3.024   1.340   1.462  2.6592 -0.7757 -1.2555
  880THF     O113368   5.241   1.279   3.617  0.2002 -1.1944 -0.2435
  880THF     C213369   5.191   1.164   3.686  0.4839 -0.4976 -0.2380
  880THF     C313370   5.358   1.249   3.545 -0.4537  0.0366 -0.0365
  880THF     H413371   5.101   1.132   3.634 -0.4494 -1.1973  1.7477
  880THF     H513372   5.158   1.178   3.788  0.4545 -1.0496 -0.1698
  880THF     H613373   5.361   1.263   3.437 -1.2244 -3.9724 -0.7618
  880THF     H713374   5.439   1.293   3.603  0.3139 -1.9913  0.5401
  880THF     C813375   5.369   1.099   3.552 -0.0951 -0.1849 -0.0336
  880THF     C913376   5.312   1.069   3.686  0.5039  0.2676  0.4140
  880THF    H1013377   5.466   1.055   3.531  0.5268  1.5582 -0.9586
  880THF    H1113378   5.300   1.068   3.473  1.5109  0.0909 -1.6024
  880THF    H1213379   5.281   0.965   3.690  1.1177  0.0812  0.4055
  880THF    H1313380   5.383   1.088   3.766 -0.2282  0.4497  1.0367
  881THF     O113381   0.582   1.710   1.569 -0.1790  0.0686  0.0050
  881THF     C213382   0.560   1.584   1.639 -0.3380  0.9172  0.1051
  881THF     C313383   0.720   1.751   1.572 -0.6961  0.3124  0.5890
  881THF     H413384   0.482   1.516   1.603 -0.4932  0.1391  1.8104
  881THF     H513385   0.558   1.588   1.748  0.3232  1.8769  0.0940
  881THF     H613386   0.761   1.789   1.478 -0.2577 -0.1736  0.5781
  881THF     H713387   0.735   1.837   1.638 -1.6148 -0.3311  1.6580
  881THF     C813388   0.796   1.625   1.615 -0.1909 -0.3691 -0.7528
  881THF     C913389   0.699   1.516   1.608 -0.5309  0.5312  0.2126
  881THF    H1013390   0.830   1.633   1.719  0.5627 -1.4191 -0.9028
  881THF    H1113391   0.883   1.603   1.554  0.7461 -0.6385  0.6244
  881THF    H1213392   0.706   1.472   1.509  1.9081 -0.7897  0.9057
  881THF    H1313393   0.719   1.436   1.679 -0.4404  1.1558  0.9078
  882THF     O113394   3.039   2.379   2.029  0.0012  0.1790 -0.0762
  882THF     C213395   3.119   2.424   1.916  0.2329 -0.6812 -0.7927
  882THF     C313396   3.067   2.246   2.067  0.1998  0.6145  0.2329
  882THF     H413397   3.188   2.505   1.940 -0.9170  0.1414 -0.1670
  882THF     H513398   3.050   2.463   1.840 -0.9892  0.4576  0.8298
  882THF     H613399   3.136   2.234   2.151 -0.6193  1.2478  1.0100
  882THF     H713400   2.973   2.202   2.098  0.6945 -1.1665 -0.6541
  882THF     C813401   3.124   2.181   1.937 -0.0060 -0.0022 -0.1444
  882THF     C913402   3.201   2.307   1.883  0.2471 -0.1857  0.3808
  882THF    H1013403   3.045   2.153   1.867  0.0906 -0.8583  0.0676
  882THF    H1113404   3.197   2.102   1.957  0.5524  0.4691 -0.2965
  882THF    H1213405   3.289   2.303   1.948 -0.7569  0.8171  1.8442
  882THF    H1313406   3.229   2.302   1.778  0.4444  1.7827  0.2894
  883THF     O113407   0.672   5.353   4.470 -0.5785  0.2763 -0.9431
  883THF     C213408   0.588   5.370   4.359  0.2721 -0.1394  0.5084
  883THF     C313409   0.602   5.338   4.592  0.1852  0.0600 -0.2816
  883THF     H413410   0.564   5.269   4.327 -1.9945 -0.2074  2.1144
  883THF     H513411   0.624   5.418   4.268  0.9837  2.3184  1.9706
  883THF     H613412   0.595   5.233   4.621  0.0110  0.5578  1.6101
  883THF     H713413   0.648   5.390   4.676 -1.1335  0.4400  0.2396
  883THF     C813414   0.457   5.383   4.559 -0.3352 -0.2247  0.5822
  883THF     C913415   0.469   5.453   4.420  0.3705 -0.1183 -0.0011
  883THF    H1013416   0.431   5.452   4.639 -0.1141  0.0784  0.3966
  883THF    H1113417   0.392   5.296   4.551 -1.5691  0.7139  0.1245
  883THF    H1213418   0.386   5.453   4.349 -0.1961  0.2340  0.6537
  883THF    H1313419   0.499   5.558   4.429  2.8378 -0.5603 -1.8794
  884THF     O113420   4.939   4.480   2.964  0.0035 -0.1088  0.6131
  884THF     C213421   4.922   4.354   2.907  0.2187 -0.7702  0.3516
  884THF     C313422   4.870   4.484   3.087  0.8517  0.5565  0.4120
  884THF     H413423   5.004   4.335   2.838 -1.4962 -1.0286 -1.7149
  884THF     H513424   4.837   4.368   2.841  0.3002  1.7055  0.6558
  884THF     H613425   4.938   4.500   3.171 -1.0218  1.2403  1.8809
  884THF     H713426   4.795   4.563   3.085 -0.2475 -0.4546  0.4662
  884THF     C813427   4.804   4.349   3.103 -0.4924 -0.0763 -0.2009
  884THF     C913428   4.892   4.254   3.021  0.4638  0.1497  0.5195
  884THF    H1013429   4.702   4.348   3.066  0.1282  0.5999 -2.0537
  884THF    H1113430   4.802   4.317   3.207  1.7560 -0.6616 -0.2714
  884THF    H1213431   4.984   4.233   3.076  0.2362 -1.0618  0.4659
  884THF    H1313432   4.867   4.151   2.996  1.5224  0.2917 -1.3664
  885THF     O113433   5.480   1.426   3.996  0.0711 -0.1818 -0.1022
  885THF     C213434   5.389   1.518   3.923  0.8423  0.9487 -0.1215
  885THF     C313435   5.580   1.505   4.055 -0.1804 -0.3938 -1.0417
  885THF     H413436   5.317   1.561   3.992  1.6208  1.4142  0.4188
  885THF     H513437   5.346   1.451   3.848  1.0710  3.0397 -2.2347
  885THF     H613438   5.535   1.542   4.147 -2.3005 -0.6159 -1.9407
  885THF     H713439   5.664   1.443   4.087 -1.6062 -1.3422  1.0628
  885THF     C813440   5.618   1.615   3.951  0.2827  0.2378  0.0052
  885THF     C913441   5.485   1.630   3.870  0.1290  0.1778  0.3122
  885THF    H1013442   5.695   1.577   3.884  0.8900 -0.3217  1.0005
  885THF    H1113443   5.640   1.709   4.000 -1.5216  0.7862 -0.1606
  885THF    H1213444   5.434   1.726   3.876 -0.9129 -0.4336  2.4196
  885THF    H1313445   5.507   1.614   3.765 -0.5149 -2.0811  0.4621
  886THF     O113446   5.313   2.326   1.373  0.4005 -0.1132  0.2583
  886THF     C213447   5.397   2.418   1.431 -0.4648 -0.6850 -0.8622
  886THF     C313448   5.212   2.292   1.467  0.4222  0.6522  0.5147
  886THF     H413449   5.341   2.510   1.446  0.3563 -0.3320  0.1508
  886THF     H513450   5.497   2.440   1.394 -0.3265  0.3668  0.0871
  886THF     H613451   5.145   2.378   1.467  2.2581  2.1605  1.5958
  886THF     H713452   5.167   2.196   1.440  2.7499 -1.3349  3.0368
  886THF     C813453   5.302   2.276   1.593  0.3579  0.1742 -0.0272
  886THF     C913454   5.425   2.352   1.567  0.6585  0.5887  0.0808
  886THF    H1013455   5.319   2.171   1.616 -0.8156  0.2199  1.1781
  886THF    H1113456   5.255   2.324   1.679  0.0645  0.9257 -0.5971
  886THF    H1213457   5.463   2.431   1.632  1.2054  2.4583 -2.3509
  886THF    H1313458   5.509   2.284   1.558  1.1393  0.9979  1.2860
  887THF     O113459   2.862   0.876   2.443 -0.0948 -0.1101 -0.5014
  887THF     C213460   2.856   0.786   2.552 -0.0172 -0.1126 -0.8184
  887THF     C313461   2.771   0.982   2.466 -0.0497  0.0027 -0.6196
  887THF     H413462   2.947   0.728   2.561  0.2752  0.4491 -0.0027
  887THF     H513463   2.765   0.727   2.537 -1.4590  2.3983 -2.8299
  887THF     H613464   2.814   1.080   2.448 -0.5383  0.6421  1.3735
  887THF     H713465   2.689   0.969   2.396 -0.6750  1.8926 -0.2987
  887THF     C813466   2.741   0.977   2.616  0.1176  0.1773  0.0816
  887THF     C913467   2.840   0.877   2.674  0.5628  0.0862  0.3254
  887THF    H1013468   2.645   0.927   2.623  1.3286 -2.2168  0.9827
  887THF    H1113469   2.734   1.077   2.658 -3.5285  0.3870 -0.6907
  887THF    H1213470   2.926   0.935   2.707  2.4461 -1.7520 -1.0825
  887THF    H1313471   2.796   0.832   2.762  0.3865  1.5606  1.0316
  888THF     O113472   0.934   4.077   0.341  0.4679 -0.2933 -0.3559
  888THF     C213473   0.998   4.107   0.224  0.0909  0.3419  0.1448
  888THF     C313474   0.882   3.947   0.325 -0.5033  0.5465  0.2829
  888THF     H413475   1.067   4.190   0.239 -0.9190  1.8258 -2.7611
  888THF     H513476   0.927   4.122   0.142 -2.3448 -1.1037  1.8507
  888THF     H613477   0.847   3.897   0.415 -1.6650 -1.1393 -1.0416
  888THF     H713478   0.794   3.962   0.263 -0.6587 -0.6126  0.2088
  888THF     C813479   0.988   3.870   0.244  0.2937  0.2844 -0.3997
  888THF     C913480   1.077   3.982   0.195 -0.2178  0.1438  0.4955
  888THF    H1013481   0.946   3.807   0.166  0.4327 -0.5011  0.1412
  888THF    H1113482   1.037   3.796   0.307  0.2251 -1.1454 -1.9437
  888THF    H1213483   1.163   3.980   0.262  0.3334 -0.0569 -0.2051
  888THF    H1313484   1.105   3.974   0.090 -2.9198 -0.9778 -0.2445
  889THF     O113485   3.788   4.318   1.945  0.4896 -0.8831  0.1666
  889THF     C213486   3.934   4.303   1.941 -0.2311  0.0493 -0.1808
  889THF     C313487   3.734   4.215   2.020 -0.5340 -0.5347  0.2818
  889THF     H413488   3.987   4.345   2.026  1.2471 -0.7033 -0.6777
  889THF     H513489   3.979   4.359   1.858 -0.9558  1.0402  0.0742
  889THF     H613490   3.746   4.240   2.125 -0.0971  0.5450 -0.0067
  889THF     H713491   3.627   4.195   2.009 -0.4723 -1.3953  1.1552
  889THF     C813492   3.823   4.091   1.973 -0.0665  0.2182  0.0294
  889THF     C913493   3.951   4.154   1.924 -0.6181  0.8093 -0.3830
  889THF    H1013494   3.774   4.038   1.892 -0.5431 -0.6169  0.8503
  889THF    H1113495   3.838   4.011   2.045  0.3099 -0.4738 -0.7956
  889THF    H1213496   4.043   4.139   1.980 -0.0381  0.2638 -1.4402
  889THF    H1313497   3.983   4.119   1.826  2.2802  0.0752  0.7388
  890THF     O113498   4.818   3.913   4.453  0.2410  0.4164 -0.2142
  890THF     C213499   4.777   4.007   4.366  0.3853 -1.0046  0.1867
  890THF     C313500   4.765   3.953   4.577 -0.1407  0.0885 -0.1703
  890THF     H413501   4.779   3.969   4.264  2.2330  1.6068 -0.8522
  890THF     H513502   4.834   4.098   4.384 -2.8743  0.8473  2.4025
  890THF     H613503   4.786   3.874   4.650 -2.2744 -1.0729 -0.7082
  890THF     H713504   4.804   4.048   4.613 -0.6701  0.8277 -1.4608
  890THF     C813505   4.620   3.964   4.538  0.2091 -0.1887 -0.4167
  890THF     C913506   4.630   4.030   4.401  0.0291  0.2275 -0.1023
  890THF    H1013507   4.563   4.021   4.612  1.3975  0.8554 -0.2737
  890THF    H1113508   4.575   3.864   4.538 -0.1217 -0.0459  0.2096
  890THF    H1213509   4.562   3.975   4.335  0.8247 -0.5353 -0.3013
  890THF    H1313510   4.605   4.136   4.409 -2.3591 -0.4091  2.4675
  891THF     O113511   1.013   0.752   2.724 -0.2289  0.2587 -0.3942
  891THF     C213512   1.148   0.718   2.709  0.6453 -0.3250  0.6751
  891THF     C313513   0.929   0.670   2.643  0.6225 -0.5743 -0.2886
  891THF     H413514   1.205   0.734   2.800 -0.2510 -0.3737  1.2574
  891THF     H513515   1.191   0.790   2.640  1.1912 -0.2554  1.0792
  891THF     H613516   0.865   0.613   2.711  0.6676  0.8094  0.9718
  891THF     H713517   0.864   0.736   2.585 -0.3937  0.5182  1.9804
  891THF     C813518   1.019   0.579   2.558 -0.3479  0.3446 -0.1927
  891THF     C913519   1.148   0.581   2.647  0.8590  0.1879  0.4511
  891THF    H1013520   1.046   0.622   2.461 -1.8523 -0.0975 -0.8364
  891THF    H1113521   0.989   0.476   2.542  0.1320  0.1806 -0.0521
  891THF    H1213522   1.129   0.506   2.724 -0.3007  1.9591  1.9585
  891THF    H1313523   1.231   0.554   2.581  1.9754  0.0060  1.8877
  892THF     O113524   5.414   0.793   2.491 -0.9176  0.1008 -0.8399
  892THF     C213525   5.494   0.674   2.495  0.1484  0.3685 -0.4397
  892THF     C313526   5.394   0.834   2.353 -0.1321 -0.0280  0.1193
  892THF     H413527   5.437   0.585   2.472 -0.8854  1.1980 -1.1556
  892THF     H513528   5.550   0.667   2.589  1.1272  2.2275 -0.8296
  892THF     H613529   5.300   0.784   2.325 -0.0008 -0.3797  0.2961
  892THF     H713530   5.378   0.939   2.330 -0.4314 -0.3012 -1.0169
  892THF     C813531   5.512   0.773   2.285 -0.0242  0.3995 -0.5898
  892THF     C913532   5.595   0.696   2.388  0.3694  0.5698  0.1123
  892THF    H1013533   5.569   0.853   2.237 -1.1872  1.0215 -0.9631
  892THF    H1113534   5.478   0.705   2.207  1.5570 -0.0749 -0.9092
  892THF    H1213535   5.643   0.605   2.353  0.9743  1.1022 -0.4955
  892THF    H1313536   5.675   0.765   2.417 -0.0761  0.7810  0.8737
  893THF     O113537   5.439   0.558   4.886 -0.2660 -0.0598  0.4014
  893THF     C213538   5.466   0.685   4.940 -0.8061  0.0127 -0.0562
  893THF     C313539   5.417   0.471   5.000 -0.3704  0.0500  0.4402
  893THF     H413540   5.370   0.733   4.958 -0.6286  1.4864 -2.6459
  893THF     H513541   5.521   0.739   4.864 -1.4998 -0.0684 -0.6291
  893THF     H613542   5.310   0.476   5.020 -1.1682  3.3860 -3.3100
  893THF     H713543   5.446   0.368   4.982  2.2882  0.6149  1.0789
  893THF     C813544   5.513   0.516   5.105 -0.0827  0.2346 -0.0314
  893THF     C913545   5.538   0.666   5.075 -0.2898  0.4424 -0.3793
  893THF    H1013546   5.607   0.461   5.092 -0.8229 -0.7204 -1.7145
  893THF    H1113547   5.472   0.506   5.205  3.3894  2.0556  1.7473
  893THF    H1213548   5.483   0.730   5.144  0.1708  0.6454 -0.1933
  893THF    H1313549   5.642   0.700   5.073 -0.1465  0.1226  0.8739
  894THF     O113550   0.930   0.347   3.615 -0.0937  0.5564  0.3501
  894THF     C213551   0.995   0.343   3.489 -0.1554 -0.1949 -0.3737
  894THF     C313552   0.795   0.329   3.594 -0.2393  1.1726 -0.7611
  894THF     H413553   1.008   0.238   3.465  1.8077 -0.4640  1.5540
  894THF     H513554   1.097   0.381   3.490  0.5268 -1.9731 -0.4205
  894THF     H613555   0.780   0.223   3.613  0.6045  1.3224  0.9582
  894THF     H713556   0.737   0.378   3.672 -2.0611 -1.5649 -0.2445
  894THF     C813557   0.764   0.360   3.453  0.0830  0.5500  0.1540
  894THF     C913558   0.897   0.418   3.404  0.1121 -0.2119  0.0232
  894THF    H1013559   0.688   0.436   3.437  1.9777  2.3412 -0.8928
  894THF    H1113560   0.738   0.270   3.398  0.7346 -0.1240  0.9143
  894THF    H1213561   0.921   0.406   3.298 -1.0507 -0.0172 -0.2765
  894THF    H1313562   0.898   0.523   3.433 -0.9970  0.4267 -2.0200
  895THF     O113563   0.394   3.557   4.530  0.3954 -0.1619 -0.0042
  895THF     C213564   0.480   3.559   4.638 -0.3263 -0.5099  0.0655
  895THF     C313565   0.403   3.688   4.466  0.0772  0.5633  0.2583
  895THF     H413566   0.581   3.554   4.597 -0.2901  2.4884 -0.4491
  895THF     H513567   0.472   3.474   4.706  1.2003 -0.0904  0.8098
  895THF     H613568   0.480   3.680   4.389 -0.0162 -2.5089  0.3397
  895THF     H713569   0.308   3.722   4.424  1.0298  1.0076 -1.6620
  895THF     C813570   0.442   3.789   4.582  0.4375  0.1986 -0.6836
  895THF     C913571   0.470   3.703   4.702  0.5444  0.4085 -0.6704
  895THF    H1013572   0.369   3.862   4.617  1.4208  1.6775 -1.6016
  895THF    H1113573   0.527   3.849   4.548  0.8483  0.3267  0.5367
  895THF    H1213574   0.556   3.735   4.761  0.7556  0.3418 -0.9380
  895THF    H1313575   0.384   3.693   4.769 -0.5225 -1.4824 -2.2066
  896THF     O113576   0.553   5.395   1.343  0.3461 -0.2366  0.5155
  896THF     C213577   0.561   5.517   1.419 -0.4262 -0.0903  0.3350
  896THF     C313578   0.418   5.374   1.321  0.1623  0.2106 -0.4158
  896THF     H413579   0.636   5.590   1.390  0.4601 -1.8864 -2.2491
  896THF     H513580   0.597   5.478   1.514 -0.4976 -2.1140 -0.4175
  896THF     H613581   0.382   5.325   1.230 -2.1104 -1.0489  1.0767
  896THF     H713582   0.392   5.316   1.409  0.0744  0.4401 -0.2892
  896THF     C813583   0.348   5.509   1.337  0.0500 -0.3568  0.0408
  896THF     C913584   0.432   5.590   1.432 -0.6234 -0.7166  0.0194
  896THF    H1013585   0.248   5.494   1.377 -0.4535  1.7340 -0.3071
  896THF    H1113586   0.338   5.553   1.238  1.3712  0.5457  0.2850
  896THF    H1213587   0.439   5.692   1.394 -0.2487 -1.5519 -2.3523
  896THF    H1313588   0.400   5.580   1.535  0.0055 -2.5119  0.0757
  897THF     O113589   1.437   4.504   4.798 -0.3744  0.0796  0.3736
  897THF     C213590   1.497   4.384   4.744  0.6617 -0.3672  0.3261
  897THF     C313591   1.533   4.608   4.792  0.2861  0.0173  0.8124
  897THF     H413592   1.479   4.383   4.637 -0.8235  0.4510  0.5506
  897THF     H513593   1.455   4.290   4.781  0.0431 -1.1289 -2.1569
  897THF     H613594   1.510   4.682   4.715 -1.4260  0.0496  1.3111
  897THF     H713595   1.534   4.663   4.886  1.3788 -1.3858  1.6594
  897THF     C813596   1.667   4.544   4.764 -0.2378 -0.2904  0.0276
  897THF     C913597   1.643   4.394   4.774 -1.1545 -0.0985  0.0974
  897THF    H1013598   1.730   4.557   4.853 -1.6591 -2.0756  1.3520
  897THF    H1113599   1.716   4.584   4.675 -0.2516  0.2936  0.2709
  897THF    H1213600   1.712   4.334   4.717 -1.0080  1.9836 -2.0687
  897THF    H1313601   1.661   4.364   4.877  0.9544 -0.4876 -0.3516
  898THF     O113602   3.435   4.628   1.630  0.2580 -0.2685  0.3755
  898THF     C213603   3.534   4.559   1.702 -0.7624  0.0170 -0.5467
  898THF     C313604   3.347   4.694   1.717 -0.2763 -0.1694 -0.0599
  898THF     H413605   3.631   4.568   1.653 -0.3549 -0.7842  0.0840
  898THF     H513606   3.516   4.453   1.724 -0.2371 -0.1240 -0.7715
  898THF     H613607   3.338   4.801   1.698 -0.2389 -0.1069  0.2714
  898THF     H713608   3.242   4.666   1.704 -0.2906  0.3338 -1.1859
  898THF     C813609   3.397   4.663   1.862 -0.8279 -0.0044  0.2257
  898THF     C913610   3.546   4.635   1.837 -0.1645  0.4249 -0.1999
  898THF    H1013611   3.356   4.569   1.896  0.3584 -1.0651 -1.1537
  898THF    H1113612   3.386   4.745   1.933  1.7654 -0.1543  0.8885
  898THF    H1213613   3.614   4.720   1.825  1.1296 -0.8468 -3.0153
  898THF    H1313614   3.593   4.570   1.911 -1.9233  0.6865  1.2133
  899THF     O113615   1.247   0.452   5.306  0.2857  0.1600 -0.1754
  899THF     C213616   1.192   0.379   5.194 -0.6932 -0.4318  0.2240
  899THF     C313617   1.212   0.591   5.297 -0.3715  0.2272 -0.6972
  899THF     H413618   1.121   0.305   5.231 -0.3236 -1.3032 -0.7375
  899THF     H513619   1.271   0.316   5.153 -0.2398  0.7098 -0.7206
  899THF     H613620   1.209   0.639   5.395  0.9616 -1.0057 -0.0045
  899THF     H713621   1.289   0.642   5.239 -0.4831  0.1139 -0.9493
  899THF     C813622   1.088   0.590   5.203  0.4266  0.3710  0.3455
  899THF     C913623   1.120   0.482   5.116  0.0196  0.9485 -0.1852
  899THF    H1013624   1.085   0.687   5.153  0.2185 -0.8282 -2.1348
  899THF    H1113625   0.999   0.569   5.261 -0.0236  0.9840 -0.1096
  899THF    H1213626   1.032   0.443   5.065  0.1855  0.3778 -0.0447
  899THF    H1313627   1.184   0.516   5.034  1.1499 -2.1247 -0.7451
  900THF     O113628   5.340   4.807   0.050  0.2913  0.5924 -0.6567
  900THF     C213629   5.201   4.830   0.063  0.2578  0.2998  0.1060
  900THF     C313630   5.394   4.875  -0.062 -0.1511 -0.2088  0.5313
  900THF     H413631   5.171   4.811   0.166 -0.1699  2.3537  0.4090
  900THF     H513632   5.157   4.761  -0.009  0.0416 -2.6147  2.8428
  900THF     H613633   5.494   4.904  -0.028 -0.8234  0.9200  1.6199
  900THF     H713634   5.402   4.814  -0.152  1.4697 -1.2700  1.3474
  900THF     C813635   5.293   4.991  -0.080  0.0519  0.0753  0.0389
  900THF     C913636   5.188   4.975   0.038 -0.4957 -0.0753 -0.2049
  900THF    H1013637   5.236   4.976  -0.172  0.8110 -1.9324 -0.1487
  900THF    H1113638   5.343   5.088  -0.077  0.0051  0.0848  0.6433
  900THF    H1213639   5.219   5.042   0.118 -0.1691  0.0217 -0.4136
  900THF    H1313640   5.089   5.018   0.021  0.2901  1.3744 -1.3396
  901THF     O113641   2.633   0.640   4.521  0.1144 -0.4516 -0.0051
  901THF     C213642   2.494   0.631   4.495 -0.0836  0.0946 -0.3814
  901THF     C313643   2.658   0.734   4.627  0.2992  0.4874  0.1199
  901THF     H413644   2.483   0.526   4.468 -1.3684 -0.0660  0.6276
  901THF     H513645   2.462   0.698   4.416  0.3989  0.2509 -0.4468
  901THF     H613646   2.715   0.680   4.702  0.1734 -1.4612 -1.1154
  901THF     H713647   2.723   0.815   4.592  1.0495 -0.4519 -0.7199
  901THF     C813648   2.512   0.773   4.681 -0.4197 -0.1938 -0.2958
  901THF     C913649   2.423   0.663   4.627 -0.5434 -0.5090 -0.1858
  901THF    H1013650   2.492   0.876   4.651 -0.5331  0.2313  1.1391
  901THF    H1113651   2.527   0.776   4.789  2.6663 -1.2892 -0.6034
  901THF    H1213652   2.419   0.571   4.685  0.6859 -0.3936  0.1186
  901THF    H1313653   2.321   0.696   4.606  0.0325  1.4274 -0.1187
  902THF     O113654   2.279   4.444   0.635 -0.2710 -0.4859  0.5272
  902THF     C213655   2.322   4.561   0.560 -0.1905  0.1650 -0.5072
  902THF     C313656   2.179   4.381   0.562 -0.1579 -0.3437  0.9221
  902THF     H413657   2.376   4.528   0.471  2.9427 -0.1008  1.3067
  902THF     H513658   2.398   4.622   0.609  0.1506 -0.8144  0.2164
  902THF     H613659   2.227   4.309   0.496 -0.6027 -1.9359  2.2945
  902THF     H713660   2.104   4.330   0.621  1.2132 -1.7417  1.5305
  902THF     C813661   2.106   4.499   0.489  0.0834  0.0821  0.6120
  902THF     C913662   2.192   4.616   0.508 -0.4942 -0.5075  0.5912
  902THF    H1013663   2.013   4.521   0.543  0.7272 -2.1224  2.8601
  902THF    H1113664   2.071   4.484   0.387 -2.0326  1.4785  1.0742
  902THF    H1213665   2.204   4.680   0.420 -1.8779  0.9641  1.4180
  902THF    H1313666   2.140   4.686   0.573 -3.0613 -1.2574 -0.5376
  903THF     O113667   1.199   2.479   2.261 -0.0188 -0.4843 -0.2852
  903THF     C213668   1.103   2.519   2.358  0.0102  0.5136 -0.3935
  903THF     C313669   1.140   2.510   2.128  0.2649 -0.5671 -0.6392
  903THF     H413670   1.141   2.536   2.459 -1.7113 -1.5545  0.6912
  903THF     H513671   1.040   2.433   2.377 -0.5980  0.5638 -2.0723
  903THF     H613672   1.225   2.533   2.064  1.1415 -0.1560  0.6337
  903THF     H713673   1.096   2.416   2.093 -0.6166 -0.8247  1.0481
  903THF     C813674   1.041   2.622   2.150  0.2869 -0.3034  0.4748
  903THF     C913675   1.027   2.636   2.298 -0.1505  0.4066 -0.7348
  903THF    H1013676   0.946   2.596   2.102  0.7212 -1.8648  0.4003
  903THF    H1113677   1.079   2.712   2.103  0.9824  0.1422  1.8533
  903THF    H1213678   1.076   2.729   2.325 -0.6171  0.3550  0.3133
  903THF    H1313679   0.926   2.642   2.339  0.7120  2.1151  1.3329
  904THF     O113680   3.902   4.372   3.055  0.2909 -0.2538 -0.2835
  904THF     C213681   3.826   4.391   2.939  0.0836  0.3440  0.4412
  904THF     C313682   3.937   4.233   3.045 -0.6378  0.7971  0.0942
  904THF     H413683   3.892   4.402   2.852  1.6599 -1.1886  1.3594
  904THF     H513684   3.757   4.475   2.947 -0.3919 -0.1383  1.5192
  904THF     H613685   4.006   4.212   2.964 -0.0116  0.7845  0.6224
  904THF     H713686   3.990   4.191   3.130  0.2916  0.7367 -0.5030
  904THF     C813687   3.811   4.156   3.011 -0.2267 -0.0397  0.0675
  904THF     C913688   3.752   4.260   2.918 -0.4411 -0.3513 -0.1067
  904THF    H1013689   3.747   4.151   3.099 -1.8723  0.8044 -1.0312
  904THF    H1113690   3.828   4.054   2.976  0.2205 -1.0660  2.9834
  904THF    H1213691   3.768   4.225   2.816 -1.9824 -0.0484 -0.4675
  904THF    H1313692   3.644   4.263   2.929 -0.5464 -2.6081 -0.0013
  905THF     O113693   0.783   0.725   5.430 -0.1357  0.4510  0.1864
  905THF     C213694   0.700   0.830   5.492 -0.5924 -0.4880  0.1240
  905THF     C313695   0.883   0.706   5.522  0.1626 -0.3123  0.0684
  905THF     H413696   0.600   0.838   5.451 -1.0637  1.6947  1.5224
  905THF     H513697   0.746   0.927   5.472 -2.6145  0.7254  1.0993
  905THF     H613698   0.922   0.604   5.515 -1.5331 -0.8813 -2.9631
  905THF     H713699   0.954   0.787   5.506  0.3550 -0.6430 -0.8187
  905THF     C813700   0.815   0.706   5.658 -0.2365 -0.0256 -0.0956
  905THF     C913701   0.703   0.797   5.634 -0.3624 -0.4295  0.0964
  905THF    H1013702   0.880   0.748   5.735 -0.4302  0.2312 -0.0710
  905THF    H1113703   0.779   0.606   5.680 -1.0389  0.7472  2.5863
  905THF    H1213704   0.608   0.751   5.663 -0.4002  0.0339  0.7530
  905THF    H1313705   0.709   0.893   5.685  1.5129 -0.1290 -0.6178
  906THF     O113706   4.777   4.164   1.183  0.0362  0.1532  0.0142
  906THF     C213707   4.725   4.204   1.309  0.4130 -0.3793 -0.6932
  906THF     C313708   4.818   4.282   1.112 -0.4306 -0.2244 -0.2047
  906THF     H413709   4.801   4.189   1.385 -0.6260  0.5697  0.5797
  906THF     H513710   4.641   4.141   1.340 -0.1490 -0.3977 -2.1352
  906THF     H613711   4.920   4.307   1.143 -0.7468  2.1411 -0.8903
  906THF     H713712   4.829   4.270   1.004  0.2658  1.4089 -0.3521
  906THF     C813713   4.710   4.393   1.143 -0.2585  0.8412 -0.0154
  906THF     C913714   4.696   4.358   1.295  1.2575  0.2172  0.0551
  906THF    H1013715   4.621   4.375   1.082  0.0672 -0.3228 -0.1679
  906THF    H1113716   4.744   4.495   1.126  1.8815  0.2399  0.4190
  906THF    H1213717   4.777   4.410   1.345  0.8552  0.4687  0.4630
  906THF    H1313718   4.604   4.386   1.348  1.1513 -1.7580  1.0273
  907THF     O113719   2.318   3.356   1.900 -0.5599 -0.3057  0.1344
  907THF     C213720   2.456   3.337   1.871  0.6136 -0.4230 -0.2813
  907THF     C313721   2.249   3.233   1.895 -0.2465 -0.2357 -0.3551
  907THF     H413722   2.520   3.396   1.935 -0.1418  0.2956 -0.1704
  907THF     H513723   2.478   3.356   1.766 -0.2667  0.1440 -0.3742
  907THF     H613724   2.159   3.257   1.952  0.6099 -2.1332  1.9238
  907THF     H713725   2.221   3.198   1.796  0.9131 -1.3626 -0.3049
  907THF     C813726   2.348   3.141   1.962 -0.3564 -0.0406  0.1313
  907THF     C913727   2.484   3.186   1.901  0.1538  0.3737 -0.1415
  907THF    H1013728   2.321   3.037   1.940 -0.5323  0.1052 -0.3619
  907THF    H1113729   2.339   3.156   2.069  1.3859  0.3238  0.2616
  907THF    H1213730   2.565   3.176   1.974 -2.0093 -0.6390  2.2955
  907THF    H1313731   2.493   3.127   1.810 -0.9831 -1.7246  1.0290
  908THF     O113732   1.306   3.577   0.132 -0.6316  0.7267 -0.0118
  908THF     C213733   1.426   3.512   0.099  0.5683 -0.1844  0.3907
  908THF     C313734   1.205   3.551   0.037  0.5207 -0.0607 -0.8005
  908THF     H413735   1.422   3.407   0.125  1.6272 -0.6284 -1.1008
  908THF     H513736   1.513   3.553   0.150  1.4532  0.1252 -1.3137
  908THF     H613737   1.170   3.448   0.052 -0.1107  0.3137  0.4568
  908THF     H713738   1.115   3.611   0.046 -0.3261 -1.2871 -0.7915
  908THF     C813739   1.279   3.568  -0.094 -0.7390 -0.4497  0.1459
  908THF     C913740   1.427   3.530  -0.051 -0.5141  0.1012 -0.3074
  908THF    H1013741   1.280   3.665  -0.144  2.1248 -1.8314 -2.8999
  908THF    H1113742   1.249   3.509  -0.181 -3.0826  0.4769  0.2624
  908THF    H1213743   1.479   3.448  -0.102  0.0913 -0.2281  0.7912
  908THF    H1313744   1.497   3.611  -0.072 -0.8872  0.9655  1.6040
  909THF     O113745   1.052   2.011   4.712  0.3693  0.2738  0.2124
  909THF     C213746   0.947   2.091   4.763 -0.2802  0.0274 -0.3633
  909THF     C313747   1.172   2.046   4.781  0.0517 -0.1146  0.9049
  909THF     H413748   0.883   2.021   4.817  3.0650 -1.6630  1.8023
  909THF     H513749   0.884   2.137   4.687  0.3924  1.0898 -0.2953
  909THF     H613750   1.226   1.963   4.826  1.2555  0.1207 -0.0654
  909THF     H713751   1.245   2.079   4.707 -0.3075 -0.3856  0.4259
  909THF     C813752   1.145   2.145   4.893  0.1123  0.8102  0.4940
  909THF     C913753   1.014   2.200   4.851 -0.4839  0.1720  0.0519
  909THF    H1013754   1.229   2.213   4.882  0.5203  0.2068 -0.2467
  909THF    H1113755   1.145   2.103   4.994  0.8039  0.5209  0.3795
  909THF    H1213756   0.953   2.230   4.936 -0.8999  2.0470 -0.8802
  909THF    H1313757   1.036   2.287   4.790  2.6202 -0.7574 -0.3689
  910THF     O113758   1.854   1.746   1.355 -0.1033 -0.1113  0.3011
  910THF     C213759   1.862   1.803   1.229  0.3965  0.2688  0.1136
  910THF     C313760   1.992   1.733   1.404  0.5674  0.6780 -0.4815
  910THF     H413761   1.828   1.906   1.236  0.2677  0.2455 -0.1612
  910THF     H513762   1.797   1.742   1.166  0.6552  0.6175 -0.5022
  910THF     H613763   2.014   1.827   1.455 -0.0248  0.4892  0.1466
  910THF     H713764   2.002   1.654   1.478 -1.1666 -0.7490 -1.6961
  910THF     C813765   2.073   1.715   1.272 -0.2275  0.2052 -0.3679
  910THF     C913766   2.007   1.810   1.183 -0.3622 -0.3433  0.0231
  910THF    H1013767   2.056   1.612   1.241 -2.0783  0.1152  0.7726
  910THF    H1113768   2.181   1.724   1.282 -0.2200 -0.1004 -0.1223
  910THF    H1213769   2.040   1.914   1.194 -1.7428 -0.0641  2.3147
  910THF    H1313770   2.017   1.782   1.079  1.4286 -0.9340  0.3280
  911THF     O113771   4.805   3.514   4.379 -0.1594  0.4675 -0.1396
  911THF     C213772   4.918   3.431   4.406 -0.1697  0.1092  0.1610
  911THF     C313773   4.833   3.596   4.264 -0.5673 -0.3679  0.2644
  911THF     H413774   4.908   3.339   4.348 -0.1135 -0.3371  0.8417
  911THF     H513775   4.918   3.400   4.511 -0.4451 -2.6110 -0.5551
  911THF     H613776   4.759   3.589   4.184 -0.0387  1.5529 -0.4501
  911THF     H713777   4.834   3.699   4.300  0.6659 -0.2425 -0.0845
  911THF     C813778   4.980   3.558   4.229  0.7534 -0.8343  0.8573
  911THF     C913779   5.046   3.501   4.353 -0.1218  0.8042  0.1764
  911THF    H1013780   5.038   3.645   4.197  0.7245 -1.6066 -1.4439
  911THF    H1113781   4.983   3.498   4.138  0.1047 -1.2978  1.1319
  911THF    H1213782   5.134   3.440   4.332 -0.6673 -0.2413  0.8215
  911THF    H1313783   5.074   3.584   4.417 -0.4781  0.2518  1.0789
  912THF     O113784   3.144   1.971   5.266 -0.1431 -0.7077  0.1514
  912THF     C213785   3.049   1.878   5.211  0.7421 -0.5881 -0.6915
  912THF     C313786   3.094   2.008   5.391  0.3698 -0.4454 -0.0611
  912THF     H413787   3.061   1.779   5.254 -1.0229 -1.8498 -2.9151
  912THF     H513788   3.054   1.861   5.104  3.1815 -0.2864 -0.6912
  912THF     H613789   3.123   1.929   5.460  1.3834  0.4407  0.5396
  912THF     H713790   3.137   2.102   5.423  2.1103 -1.1978 -0.0968
  912THF     C813791   2.941   2.016   5.381 -0.6093 -0.4478 -1.0219
  912THF     C913792   2.916   1.945   5.248 -0.1431  0.4352 -0.3424
  912THF    H1013793   2.910   2.119   5.398  1.7292  0.3647 -1.3380
  912THF    H1113794   2.893   1.954   5.456 -1.3029  1.4710  0.1876
  912THF    H1213795   2.829   1.880   5.250 -1.2692  1.8987  0.4530
  912THF    H1313796   2.882   2.015   5.171 -2.7871  0.6070  0.8782
  913THF     O113797   0.302   1.249   3.664  0.2333  0.3262 -0.1182
  913THF     C213798   0.365   1.182   3.558  0.4106 -0.1813 -0.5223
  913THF     C313799   0.278   1.384   3.624 -0.2926  0.7166  0.1381
  913THF     H413800   0.327   1.080   3.551  1.3528 -0.6186  0.4018
  913THF     H513801   0.471   1.185   3.585  0.6362 -0.3790 -1.3432
  913THF     H613802   0.210   1.434   3.694  1.0577 -1.7996  3.5076
  913THF     H713803   0.373   1.438   3.627  0.5303 -0.6180  3.9167
  913THF     C813804   0.227   1.365   3.476 -0.4285 -0.3087  0.0598
  913THF     C913805   0.331   1.262   3.430  0.8986 -0.6206 -0.3595
  913THF    H1013806   0.231   1.458   3.420  2.2148  0.0056  0.6224
  913THF    H1113807   0.129   1.318   3.470 -0.1146 -1.0770  0.7788
  913THF    H1213808   0.316   1.199   3.342  0.5361 -0.9664 -0.0574
  913THF    H1313809   0.424   1.315   3.412  1.1131 -0.6803  0.5404
  914THF     O113810   0.896   2.287   2.525  0.4787  0.2721  0.4625
  914THF     C213811   0.893   2.235   2.657  0.5593 -0.0626 -0.4178
  914THF     C313812   0.783   2.374   2.519  0.5699  0.2698  0.3051
  914THF     H413813   0.996   2.203   2.671  0.4321 -0.4839 -0.4409
  914THF     H513814   0.817   2.157   2.656 -2.1721  2.3995  0.5636
  914THF     H613815   0.765   2.436   2.431  0.0939 -1.8486 -1.1746
  914THF     H713816   0.695   2.311   2.535  0.3304 -0.4730 -3.0165
  914THF     C813817   0.804   2.455   2.650 -0.3371  0.2669 -0.0461
  914THF     C913818   0.855   2.349   2.754 -0.0057  0.6681 -0.2690
  914THF    H1013819   0.721   2.518   2.683  1.2833  0.9522  3.0762
  914THF    H1113820   0.879   2.533   2.636  0.9756 -1.2760 -2.0700
  914THF    H1213821   0.946   2.384   2.803  0.1461  2.7050 -1.8154
  914THF    H1313822   0.784   2.312   2.827 -1.4383  1.9244 -0.9709
  915THF     O113823   3.587   1.407   1.105 -0.3874 -0.1757 -0.6175
  915THF     C213824   3.554   1.543   1.125 -0.0347 -0.1571 -0.0080
  915THF     C313825   3.726   1.392   1.151 -0.7184 -0.5929 -0.2182
  915THF     H413826   3.502   1.554   1.220  0.0280  0.8092 -0.0766
  915THF     H513827   3.486   1.575   1.047  0.4291  0.0903 -0.3155
  915THF     H613828   3.728   1.397   1.260 -0.5599  2.3615 -0.2839
  915THF     H713829   3.769   1.297   1.118 -0.1434 -0.6454  0.6482
  915THF     C813830   3.789   1.514   1.093  0.2737  0.6962 -0.5474
  915THF     C913831   3.683   1.623   1.111  0.2587 -0.5154 -0.1102
  915THF    H1013832   3.818   1.491   0.990 -2.1392 -1.8571 -0.7947
  915THF    H1113833   3.877   1.529   1.156  0.5895  0.4758 -0.9290
  915THF    H1213834   3.689   1.678   1.205  1.2899 -2.7829  1.2414
  915THF    H1313835   3.681   1.701   1.035  0.2874  1.4087  1.7751
  916THF     O113836   2.066   3.025   2.693  0.2740  0.1605 -0.4190
  916THF     C213837   2.183   2.954   2.647 -0.3124 -0.9034 -0.3226
  916THF     C313838   2.096   3.165   2.715  0.6037  0.6932 -0.2694
  916THF     H413839   2.198   2.970   2.541  0.6332 -2.5090 -0.4718
  916THF     H513840   2.192   2.848   2.668 -0.4973 -0.7696  0.4665
  916THF     H613841   2.053   3.231   2.640 -1.3827  2.1720  2.0258
  916THF     H713842   2.053   3.192   2.812  0.7674  0.9120 -0.2578
  916THF     C813843   2.247   3.180   2.717  0.5076  0.0472 -0.8734
  916THF     C913844   2.292   3.040   2.716 -0.4504  0.2983 -0.2460
  916THF    H1013845   2.300   3.235   2.795  1.9137  1.1531 -2.5140
  916THF    H1113846   2.273   3.220   2.618  0.4041 -2.1287 -1.8407
  916THF    H1213847   2.385   3.024   2.662  0.8865  0.7875  1.7726
  916THF    H1313848   2.307   3.008   2.819  0.6536 -0.5792 -0.6620
  917THF     O113849   0.282   0.801   0.989 -0.1931 -0.3316  0.0369
  917THF     C213850   0.251   0.838   0.859  0.4070  0.1052 -0.2735
  917THF     C313851   0.418   0.835   1.014  0.3040 -0.0797  0.0047
  917THF     H413852   0.151   0.883   0.859 -0.1122 -0.9793  1.1501
  917THF     H513853   0.259   0.751   0.793 -0.4434  0.4632 -0.8792
  917THF     H613854   0.431   0.847   1.121 -0.0551 -0.4362  0.0942
  917THF     H713855   0.496   0.766   0.981  1.2634  1.6294 -1.4562
  917THF     C813856   0.444   0.959   0.929  0.7061  0.6451  0.1083
  917THF     C913857   0.345   0.942   0.813  0.1510  0.4587  0.3800
  917THF    H1013858   0.547   0.975   0.897  0.9622 -0.6138  0.2434
  917THF    H1113859   0.419   1.056   0.972 -0.1586  1.5613 -2.2925
  917THF    H1213860   0.286   1.030   0.788 -2.1861 -1.4710 -1.4452
  917THF    H1313861   0.400   0.914   0.723 -0.6769  1.5603 -0.4964
  918THF     O113862   0.856   1.128   0.277 -0.0500  0.4173 -0.0570
  918THF     C213863   0.975   1.137   0.199  0.1493  0.3411 -0.2267
  918THF     C313864   0.886   1.059   0.393 -0.3408  0.7726 -0.4847
  918THF     H413865   0.964   1.212   0.121  1.1120  1.0188  0.2715
  918THF     H513866   0.994   1.042   0.149 -0.2328  0.7474 -1.1712
  918THF     H613867   0.803   1.074   0.462 -0.2017  3.2861 -0.7601
  918THF     H713868   0.901   0.952   0.383  2.1210  1.2033 -2.5714
  918THF     C813869   1.017   1.128   0.444 -0.0969  0.7579 -0.0750
  918THF     C913870   1.075   1.165   0.307 -0.1647 -0.2166  0.8477
  918THF    H1013871   1.076   1.057   0.503 -0.4582 -0.5100 -1.1976
  918THF    H1113872   0.977   1.212   0.501 -1.3722 -1.4883  2.6419
  918THF    H1213873   1.090   1.273   0.307  1.6934 -0.4319  1.3859
  918THF    H1313874   1.173   1.121   0.287  0.2933 -0.1025  2.6525
  919THF     O113875   3.855   4.048   2.308  0.0027 -1.1054 -0.5362
  919THF     C213876   3.747   3.960   2.302  0.0501 -0.2104 -0.1322
  919THF     C313877   3.820   4.156   2.391 -0.9672  0.3730 -0.1779
  919THF     H413878   3.770   3.863   2.257 -1.3525 -0.5996 -0.0474
  919THF     H513879   3.667   3.993   2.235 -2.6553 -2.3965  1.8181
  919THF     H613880   3.905   4.205   2.438  0.9398 -1.4104 -1.5546
  919THF     H713881   3.769   4.234   2.335  0.0854 -1.1191 -3.5089
  919THF     C813882   3.724   4.088   2.494  0.0043 -0.5135 -0.5686
  919THF     C913883   3.680   3.958   2.440 -0.3465  0.0231 -0.1226
  919THF    H1013884   3.643   4.155   2.523  2.2486  1.5303  1.4166
  919THF    H1113885   3.783   4.077   2.585 -0.5117 -1.5673 -0.3463
  919THF    H1213886   3.726   3.885   2.507  2.6421  0.5224 -1.4491
  919THF    H1313887   3.572   3.952   2.437 -0.4164 -0.7800  1.8451
  920THF     O113888   0.239   5.143   0.002  0.5445  0.1524 -0.3563
  920THF     C213889   0.365   5.084  -0.028 -0.1601  0.3053  0.0725
  920THF     C313890   0.193   5.193  -0.118  0.5369 -0.2479  0.9539
  920THF     H413891   0.371   4.978  -0.052 -0.7954 -0.1021  1.6487
  920THF     H513892   0.422   5.099   0.064 -0.6348  1.4670  0.1915
  920THF     H613893   0.167   5.111  -0.185 -0.0213 -1.3857  2.5119
  920THF     H713894   0.100   5.251  -0.115  0.4384 -0.0833 -1.9641
  920THF     C813895   0.311   5.265  -0.186 -0.1917 -0.4067 -0.2402
  920THF     C913896   0.423   5.168  -0.144 -0.3580  0.1095 -0.3818
  920THF    H1013897   0.325   5.367  -0.150 -0.5912 -0.6301  0.5652
  920THF    H1113898   0.303   5.269  -0.295 -1.4268  2.3100 -0.1340
  920THF    H1213899   0.444   5.098  -0.225 -1.7131  0.1646 -0.7972
  920THF    H1313900   0.524   5.206  -0.128 -0.4787 -0.0315  0.8430
  921THF     O113901   4.456   1.239   4.958  0.4769 -0.5817  0.1472
  921THF     C213902   4.515   1.276   4.827 -0.7577  0.1168  0.3224
  921THF     C313903   4.319   1.213   4.929 -0.1942  1.1092 -0.5033
  921THF     H413904   4.620   1.251   4.812 -0.5763  0.8203  0.3656
  921THF     H513905   4.502   1.384   4.816 -0.2337  0.0366 -1.2830
  921THF     H613906   4.257   1.178   5.011  0.0732  2.3645  0.2742
  921THF     H713907   4.258   1.298   4.897 -2.9646 -1.0389 -1.2507
  921THF     C813908   4.321   1.126   4.808  0.0147  0.1178 -0.1807
  921THF     C913909   4.415   1.207   4.724 -0.6874 -0.2687 -0.0506
  921THF    H1013910   4.226   1.109   4.758 -0.6957 -1.4101  1.5751
  921THF    H1113911   4.364   1.029   4.834  1.4109  0.1456 -2.1733
  921THF    H1213912   4.469   1.142   4.655 -0.6832 -0.4126  0.0866
  921THF    H1313913   4.358   1.283   4.672  0.1444  0.8498  0.6281
  922THF     O113914   3.891   1.682   4.033 -0.1480 -0.0762  0.1679
  922THF     C213915   3.832   1.694   4.158  0.5074  0.2821 -0.6607
  922THF     C313916   3.794   1.730   3.939  1.1709  0.1267  0.1042
  922THF     H413917   3.910   1.685   4.233  2.4418 -0.1931 -2.6192
  922THF     H513918   3.766   1.608   4.171 -0.0833  0.7668 -0.3721
  922THF     H613919   3.846   1.760   3.848  1.4042  0.2448  0.2747
  922THF     H713920   3.722   1.652   3.914 -0.5867  2.2359 -1.7597
  922THF     C813921   3.742   1.850   4.013  0.0020  0.0077  0.0853
  922THF     C913922   3.772   1.830   4.158  0.4777 -1.1563  0.2130
  922THF    H1013923   3.633   1.850   4.007 -0.0866  1.7880  1.2433
  922THF    H1113924   3.768   1.947   3.970 -0.1798 -0.9335 -2.2877
  922THF    H1213925   3.848   1.906   4.176  0.1387 -0.3781 -1.4263
  922THF    H1313926   3.685   1.840   4.221 -0.7522 -0.0159 -1.5623
  923THF     O113927   0.904   1.259   4.484  0.1525 -0.4237  0.2939
  923THF     C213928   0.915   1.203   4.609  0.8241 -0.2191  0.2486
  923THF     C313929   0.763   1.294   4.463  0.0477 -0.1119 -0.2190
  923THF     H413930   0.958   1.283   4.670 -0.2531 -0.3279  1.1761
  923THF     H513931   0.980   1.115   4.603  0.7445 -0.3032  0.5901
  923THF     H613932   0.757   1.393   4.418 -2.2569  0.5264  1.3319
  923THF     H713933   0.730   1.227   4.384 -1.2790  1.7551 -1.3453
  923THF     C813934   0.693   1.276   4.594 -0.4563  0.7323  0.0441
  923THF     C913935   0.780   1.169   4.654  0.2951 -0.6874  1.1951
  923THF    H1013936   0.591   1.241   4.580  0.2144 -0.7852 -1.5715
  923THF    H1113937   0.697   1.371   4.647 -1.7129  0.9488 -0.2321
  923THF    H1213938   0.776   1.168   4.763 -1.4799 -0.7338  1.1653
  923THF    H1313939   0.751   1.073   4.612 -1.1874  0.6328 -1.0734
  924THF     O113940   5.294   1.352   2.542 -0.1954  0.0220  0.1249
  924THF     C213941   5.219   1.411   2.641  0.3449 -0.9578 -0.6115
  924THF     C313942   5.218   1.251   2.471  0.0168  0.1697  0.0513
  924THF     H413943   5.161   1.494   2.601  0.1028 -0.5077  0.6467
  924THF     H513944   5.283   1.458   2.715  0.4992  0.1090 -1.4045
  924THF     H613945   5.138   1.291   2.408 -0.5588 -2.2041 -0.8396
  924THF     H713946   5.284   1.180   2.421  2.2536 -0.0411  3.0189
  924THF     C813947   5.124   1.194   2.584 -0.0351  0.2540  1.0074
  924THF     C913948   5.132   1.303   2.695 -0.0564  0.1879 -0.3842
  924THF    H1013949   5.168   1.102   2.621 -1.2220 -1.5454 -1.7544
  924THF    H1113950   5.025   1.182   2.541  0.1669  1.0286  0.2902
  924THF    H1213951   5.041   1.352   2.731  0.3595 -0.0895  1.1582
  924THF    H1313952   5.177   1.258   2.784  0.1620  0.6979 -0.2328
  925THF     O113953   2.875   3.275   0.924 -0.1053 -0.0883 -0.0418
  925THF     C213954   2.993   3.205   0.880 -0.8241  0.0991  1.0004
  925THF     C313955   2.872   3.384   0.834  0.3999  0.0955 -0.7076
  925THF     H413956   2.970   3.148   0.790  0.6658  0.9801  0.0090
  925THF     H513957   3.033   3.136   0.954 -1.0977  0.9025  1.9347
  925THF     H613958   2.806   3.343   0.758 -0.6107  2.8464 -1.4444
  925THF     H713959   2.825   3.470   0.884 -1.3966 -0.0045 -2.1210
  925THF     C813960   3.012   3.418   0.788  0.2515 -0.3761 -0.0343
  925THF     C913961   3.094   3.308   0.841 -0.7595 -0.1876 -0.9565
  925THF    H1013962   3.045   3.513   0.831  1.8733  0.0692 -2.1210
  925THF    H1113963   3.022   3.433   0.681  2.0532 -0.0895  0.1444
  925THF    H1213964   3.160   3.255   0.773  0.4774  0.1647 -0.0775
  925THF    H1313965   3.158   3.343   0.923  0.5700 -0.6359 -1.7694
  926THF     O113966   1.259   2.235   0.044  0.5756  0.0977  0.1379
  926THF     C213967   1.372   2.163   0.011 -0.7452  0.2298  0.2976
  926THF     C313968   1.253   2.264   0.181 -0.0974  0.3759  0.5056
  926THF     H413969   1.385   2.171  -0.097 -0.3481 -0.0306  0.3265
  926THF     H513970   1.359   2.058   0.036  0.4109 -0.1606 -0.6484
  926THF     H613971   1.193   2.355   0.190  1.2153  1.3581 -0.2942
  926THF     H713972   1.194   2.186   0.229 -1.1370  0.0394 -1.2315
  926THF     C813973   1.399   2.273   0.221 -0.2371  0.3800 -0.3101
  926THF     C913974   1.470   2.239   0.090 -0.2273  0.5880  0.6762
  926THF    H1013975   1.412   2.204   0.304  0.5561 -0.3631 -1.0239
  926THF    H1113976   1.407   2.377   0.253  2.1602  0.7732 -1.8829
  926THF    H1213977   1.492   2.331   0.036  1.1806 -0.6495 -0.9778
  926THF    H1313978   1.564   2.185   0.100 -1.2009 -1.2717  0.3596
  927THF     O113979   3.379   3.386   3.163  0.3905 -0.0367  0.1147
  927THF     C213980   3.435   3.483   3.257 -0.0682 -0.0510 -0.5144
  927THF     C313981   3.374   3.448   3.038  0.2127 -1.0283 -0.3902
  927THF     H413982   3.454   3.433   3.352 -1.3741 -2.0885 -1.2742
  927THF     H513983   3.359   3.557   3.280 -1.5954 -1.8276  0.4376
  927THF     H613984   3.367   3.371   2.961 -0.4292 -0.0085 -1.3828
  927THF     H713985   3.286   3.511   3.027  0.7086 -0.1347  0.6223
  927THF     C813986   3.517   3.517   3.034  0.0155 -0.5154  0.1097
  927THF     C913987   3.548   3.539   3.181  1.1371 -0.6267  0.3828
  927THF    H1013988   3.530   3.604   2.969  0.0836 -1.5045 -1.2388
  927THF    H1113989   3.585   3.439   3.001  1.1495  0.2254  0.6373
  927THF    H1213990   3.637   3.479   3.196  1.3193 -0.1096  1.4037
  927THF    H1313991   3.573   3.644   3.199 -0.6143 -0.4809  2.4213
  928THF     O113992   5.000   3.473   2.328  0.3025  0.3968  0.5196
  928THF     C213993   4.981   3.450   2.465  0.0381 -0.3716 -0.3588
  928THF     C313994   4.900   3.393   2.263 -0.5551 -0.2572  0.4297
  928THF     H413995   4.899   3.515   2.495  0.9483  1.3033 -1.3272
  928THF     H513996   5.075   3.468   2.517  2.0922  0.3256 -3.9789
  928THF     H613997   4.812   3.455   2.249  1.6321  2.9599 -0.1479
  928THF     H713998   4.933   3.369   2.162 -0.8970 -1.5173  0.6066
  928THF     C813999   4.871   3.270   2.349  0.0924  0.8550  0.0049
  928THF     C914000   4.935   3.308   2.482  0.3278  0.2891 -0.0546
  928THF    H1014001   4.930   3.185   2.316  0.7586  0.3042  2.4289
  928THF    H1114002   4.769   3.234   2.341  0.3753  0.4472 -2.5939
  928THF    H1214003   4.878   3.307   2.574 -0.6864  0.3106 -0.6619
  928THF    H1314004   5.016   3.244   2.519  0.0176 -0.9272 -1.3803
  929THF     O114005   0.618   0.798   3.888  0.1708  0.3767 -0.4990
  929THF     C214006   0.550   0.829   3.764 -0.7095  0.9956 -0.6142
  929THF     C314007   0.545   0.688   3.931  0.4117  0.8200 -0.1234
  929THF     H414008   0.614   0.893   3.703  0.8225  1.3316  1.2705
  929THF     H514009   0.455   0.875   3.790 -1.2822 -0.1842 -0.5271
  929THF     H614010   0.592   0.645   4.020  1.2879  0.7544 -0.6065
  929THF     H714011   0.442   0.713   3.956 -0.0131 -1.2234  0.3428
  929THF     C814012   0.551   0.597   3.813 -0.3001 -0.1479  0.1889
  929THF     C914013   0.530   0.693   3.695 -0.0924  0.6078  0.5538
  929THF    H1014014   0.478   0.516   3.812 -2.7518  1.9474 -0.8138
  929THF    H1114015   0.653   0.561   3.802 -0.2378  0.2787 -0.7281
  929THF    H1214016   0.607   0.668   3.621 -0.6504 -0.8608  0.4338
  929THF    H1314017   0.434   0.663   3.654  1.3622 -3.1088 -0.5923
  930THF     O114018   0.462   4.603   3.158 -0.1586  0.1697 -1.0475
  930THF     C214019   0.364   4.698   3.144  0.0073 -0.3876  0.0586
  930THF     C314020   0.403   4.486   3.212  0.8859 -0.6164 -0.2641
  930THF     H414021   0.394   4.783   3.084 -0.4428  0.3181  0.8165
  930THF     H514022   0.332   4.731   3.243 -1.5911  1.6134 -1.0365
  930THF     H614023   0.464   4.398   3.190 -0.7458 -2.4614  2.0101
  930THF     H714024   0.386   4.497   3.319 -1.5867  1.2438 -0.7705
  930THF     C814025   0.272   4.476   3.138  0.1338  0.1041  0.0584
  930THF     C914026   0.246   4.617   3.079 -0.2036  0.1830  0.1533
  930THF    H1014027   0.189   4.470   3.208 -0.5277  2.6202 -0.4101
  930THF    H1114028   0.290   4.402   3.060  1.0074  0.6775 -0.3042
  930THF    H1214029   0.257   4.602   2.971 -0.5478 -1.8444  0.3585
  930THF    H1314030   0.153   4.662   3.113 -0.2052 -0.3042  0.7951
  931THF     O114031   4.077   4.604   5.224 -0.1494  0.3864 -0.0163
  931THF     C214032   4.172   4.706   5.242  0.2259  0.1191 -0.2337
  931THF     C314033   4.145   4.480   5.256  0.3688 -0.0363 -0.0522
  931THF     H414034   4.192   4.728   5.347  1.9812 -0.7647 -0.3517
  931THF     H514035   4.140   4.795   5.188 -0.5188  0.6324  1.0069
  931THF     H614036   4.168   4.472   5.362  1.9145 -0.6683 -0.4058
  931THF     H714037   4.090   4.390   5.229 -0.0636 -0.1296  1.0737
  931THF     C814038   4.269   4.496   5.167  0.0637  0.0948  0.5736
  931THF     C914039   4.301   4.643   5.192 -0.2144  0.0634  0.3983
  931THF    H1014040   4.249   4.487   5.061 -0.0982  3.1330  0.2709
  931THF    H1114041   4.345   4.424   5.199  0.3521  1.1363  2.3711
  931THF    H1214042   4.367   4.668   5.275  0.0174  1.7005 -0.2463
  931THF    H1314043   4.340   4.685   5.099 -0.4689 -1.0144 -0.2121
  932THF     O114044   0.013   3.615   0.436  0.4307  0.2326  0.0907
  932THF     C214045  -0.019   3.619   0.575  0.8652  0.7682 -0.5954
  932THF     C314046  -0.084   3.690   0.365 -0.6293  0.1535  0.4198
  932THF     H414047   0.011   3.717   0.613 -1.4912  1.1167  0.5215
  932THF     H514048   0.033   3.543   0.634  1.0988  2.0730  0.9509
  932THF     H614049  -0.073   3.798   0.377 -0.6140  0.2082 -0.0648
  932THF     H714050  -0.069   3.670   0.259  1.8092  2.2682  0.2723
  932THF     C814051  -0.215   3.644   0.429 -0.2395 -0.1454  0.0424
  932THF     C914052  -0.170   3.619   0.578  0.1893  0.0649  0.1698
  932THF    H1014053  -0.265   3.561   0.379 -0.8272  0.8956 -1.1605
  932THF    H1114054  -0.290   3.724   0.434 -0.4517 -0.3207 -0.3311
  932THF    H1214055  -0.210   3.696   0.644 -0.1211  0.9208 -0.9663
  932THF    H1314056  -0.210   3.523   0.610 -3.2961  1.5815  0.8206
  933THF     O114057   2.374   0.794   2.427 -0.3615  0.2437  0.1729
  933THF     C214058   2.286   0.883   2.496  0.6635  0.4937 -0.2375
  933THF     C314059   2.417   0.697   2.517 -0.3169  0.1798  0.0540
  933THF     H414060   2.211   0.925   2.429 -0.8522  0.4327  1.3516
  933THF     H514061   2.331   0.972   2.540 -1.6298  0.5045  2.3150
  933THF     H614062   2.454   0.609   2.465  0.0461 -0.4744  1.3887
  933THF     H714063   2.502   0.732   2.577  2.1766 -0.5452 -2.7967
  933THF     C814064   2.288   0.658   2.599  0.3112 -0.6215  0.1398
  933THF     C914065   2.223   0.797   2.611  0.2770  0.2922 -0.2655
  933THF    H1014066   2.297   0.615   2.698  3.0181 -1.2338 -0.2774
  933THF    H1114067   2.221   0.596   2.540 -0.9152 -0.4194  1.2785
  933THF    H1214068   2.116   0.783   2.594  0.4020  0.1168 -0.9835
  933THF    H1314069   2.238   0.850   2.704  1.1800  0.0439 -0.2640
  934THF     O114070   4.298   3.649   4.264 -0.0785  0.0237 -0.4326
  934THF     C214071   4.194   3.693   4.174 -0.2207  0.1332  0.2464
  934THF     C314072   4.412   3.640   4.190  0.1332 -0.0630 -0.4036
  934THF     H414073   4.109   3.743   4.220  0.3557  1.2495  0.1200
  934THF     H514074   4.155   3.610   4.115  0.4499 -1.1867  1.5538
  934THF     H614075   4.497   3.639   4.258 -0.8163  1.1461  0.8438
  934THF     H714076   4.412   3.545   4.136 -0.8035 -0.1306 -0.2954
  934THF     C814077   4.407   3.760   4.102  0.0696 -0.5198 -0.2789
  934THF     C914078   4.264   3.783   4.074  0.4161 -0.3516 -0.0632
  934THF    H1014079   4.462   3.754   4.008  1.7460  0.1215  0.6321
  934THF    H1114080   4.462   3.838   4.153  1.2852 -1.4274 -0.1666
  934THF    H1214081   4.241   3.889   4.086  1.6300 -0.1871  1.0578
  934THF    H1314082   4.241   3.765   3.969 -1.2015  2.4380 -0.3014
  935THF     O114083   1.130   2.577   0.599 -0.0729  0.2251  0.0719
  935THF     C214084   1.079   2.512   0.717  0.3706  0.1247 -0.3119
  935THF     C314085   1.065   2.537   0.483  0.0095 -0.5836 -0.1558
  935THF     H414086   0.986   2.557   0.750 -0.9265 -2.8957  0.5108
  935THF     H514087   1.159   2.513   0.792  0.0053  0.5199  0.0748
  935THF     H614088   0.995   2.618   0.460  0.5922  0.3076  1.0917
  935THF     H714089   1.124   2.521   0.393 -0.2023  0.4074 -0.4867
  935THF     C814090   0.993   2.405   0.521 -0.9768  0.9228  0.3444
  935THF     C914091   1.042   2.375   0.663 -0.0049 -0.0591 -0.8994
  935THF    H1014092   1.023   2.324   0.455  0.5685  2.6828 -1.2388
  935THF    H1114093   0.885   2.422   0.521 -1.4208 -1.5607 -0.5347
  935THF    H1214094   0.972   2.307   0.712 -0.5340  0.5918 -0.7283
  935THF    H1314095   1.136   2.321   0.660 -0.3202 -1.1029  2.7981
  936THF     O114096   3.627   4.188   0.495  0.0195  0.4839 -0.7484
  936THF     C214097   3.691   4.254   0.606  0.5820 -0.3655  0.3241
  936THF     C314098   3.497   4.254   0.491 -0.9784 -0.4159  0.2041
  936THF     H414099   3.725   4.349   0.565 -1.2919  0.0220 -0.4503
  936THF     H514100   3.772   4.201   0.654 -0.1006 -1.5274  0.2276
  936THF     H614101   3.517   4.358   0.464  1.5002 -0.8220  0.1806
  936THF     H714102   3.433   4.210   0.414 -1.5770  0.4093  0.2211
  936THF     C814103   3.449   4.253   0.641  0.8814  0.4987  0.1871
  936THF     C914104   3.581   4.262   0.712 -0.4750  0.6386 -0.4208
  936THF    H1014105   3.403   4.159   0.669  1.8840  0.5145  2.0386
  936THF    H1114106   3.380   4.335   0.659 -0.8470 -0.7267 -0.5872
  936THF    H1214107   3.598   4.356   0.764  2.1175  0.4135 -0.7297
  936THF    H1314108   3.586   4.192   0.794  3.2457  0.3466 -0.7470
  937THF     O114109   2.139   3.923   1.658 -0.5718 -0.1185  0.2772
  937THF     C214110   2.034   3.902   1.564  0.1255  0.8280  0.0982
  937THF     C314111   2.110   4.046   1.715 -0.4176  0.1125  0.1169
  937THF     H414112   2.033   3.797   1.535 -1.2308  0.7575  0.3433
  937THF     H514113   2.045   3.973   1.482 -0.5263 -0.0195 -0.7465
  937THF     H614114   2.170   4.083   1.797  1.0105 -3.0938  0.6608
  937THF     H714115   2.131   4.125   1.642  1.1937 -1.9157 -1.7442
  937THF     C814116   1.970   4.031   1.759 -0.2987 -0.0286 -0.9766
  937THF     C914117   1.916   3.940   1.650 -0.0269 -0.1768  0.6318
  937THF    H1014118   1.917   4.126   1.764  1.9163  1.4570 -3.4849
  937THF    H1114119   1.966   3.984   1.858  3.1700  2.8900  0.8424
  937THF    H1214120   1.877   3.856   1.706  2.5091 -1.7028  0.2281
  937THF    H1314121   1.836   3.989   1.594  1.3442  1.7217  0.2324
  938THF     O114122   4.537   5.441   0.383 -0.1832  0.0577 -0.0326
  938THF     C214123   4.623   5.325   0.378 -0.2038 -0.7200  1.0943
  938THF     C314124   4.432   5.404   0.469 -0.2997  0.5572 -0.5269
  938THF     H414125   4.728   5.347   0.395  0.1864  0.3397 -2.0645
  938THF     H514126   4.631   5.295   0.273  1.7788  0.4244  0.8842
  938THF     H614127   4.453   5.443   0.568 -2.3051 -0.6546  0.4349
  938THF     H714128   4.337   5.450   0.440 -0.3623  0.8967  0.2035
  938THF     C814129   4.429   5.245   0.479 -0.7335  0.1490 -0.5257
  938THF     C914130   4.574   5.216   0.468  0.2852 -0.1306 -0.3711
  938THF    H1014131   4.375   5.214   0.389 -1.1005 -0.4508 -0.1066
  938THF    H1114132   4.375   5.202   0.564  0.1712 -0.3668 -0.2046
  938THF    H1214133   4.622   5.242   0.563 -0.6735 -1.1830  0.4264
  938THF    H1314134   4.601   5.116   0.433  1.2593  0.1429 -0.4557
  939THF     O114135   2.808   0.367   2.029 -0.6577  0.0395  0.3926
  939THF     C214136   2.710   0.468   2.054  0.0360 -0.0425  0.0112
  939THF     C314137   2.846   0.376   1.892 -0.6240  0.2993 -0.1396
  939THF     H414138   2.763   0.563   2.068 -0.7902  0.8826 -2.4767
  939THF     H514139   2.653   0.455   2.145  0.1106 -0.0069  0.0636
  939THF     H614140   2.936   0.437   1.907 -1.2497  0.9749  0.9591
  939THF     H714141   2.875   0.277   1.856  0.7488  0.4719  0.4119
  939THF     C814142   2.738   0.443   1.814 -0.1495  1.1056  0.5852
  939THF     C914143   2.640   0.479   1.915 -0.1581 -0.2824 -0.8074
  939THF    H1014144   2.689   0.382   1.738 -0.5217  2.5408 -0.3700
  939THF    H1114145   2.782   0.525   1.756 -1.6915  0.2854 -1.8912
  939THF    H1214146   2.607   0.582   1.903  2.2328  0.7979  0.9981
  939THF    H1314147   2.556   0.411   1.914  0.1390 -0.6691 -2.7367
  940THF     O114148   2.899   3.729   1.696 -0.0433 -0.1869  0.4902
  940THF     C214149   2.898   3.646   1.815 -0.4188 -0.7559  0.6227
  940THF     C314150   2.813   3.662   1.600  0.0393  0.4174 -0.0345
  940THF     H414151   2.900   3.726   1.889 -1.2674  0.9553 -1.1253
  940THF     H514152   2.986   3.582   1.828  0.0596 -0.0151  1.0761
  940THF     H614153   2.766   3.730   1.529 -0.3363 -0.9748 -1.1575
  940THF     H714154   2.870   3.590   1.542  1.4361  3.2456 -2.4604
  940THF     C814155   2.696   3.603   1.683 -0.8760  0.2204 -0.1048
  940THF     C914156   2.768   3.567   1.815 -0.0279  0.5224  0.0428
  940THF    H1014157   2.648   3.523   1.626  1.8688 -1.1156 -0.7427
  940THF    H1114158   2.625   3.682   1.706 -2.9254 -1.3777 -0.6588
  940THF    H1214159   2.697   3.583   1.896 -2.7296  0.6371 -2.1915
  940THF    H1314160   2.785   3.459   1.820 -2.5607  0.0827  0.9296
  941THF     O114161   3.981   4.787   0.638  0.3801  0.5172 -0.1257
  941THF     C214162   4.003   4.649   0.619  0.0472 -0.2645  0.1931
  941THF     C314163   3.867   4.818   0.558 -0.6647 -0.3712 -0.0559
  941THF     H414164   3.940   4.594   0.688 -1.0964 -0.4659 -0.9744
  941THF     H514165   4.111   4.636   0.626  0.1488  0.3730 -0.1668
  941THF     H614166   3.781   4.824   0.626 -0.4918  0.4232  0.1074
  941THF     H714167   3.866   4.912   0.501  0.0987  0.2074  0.8550
  941THF     C814168   3.850   4.718   0.453  0.0695 -0.2093 -0.1092
  941THF     C914169   3.958   4.620   0.474 -0.4678 -0.5662  0.1580
  941THF    H1014170   3.857   4.748   0.349 -1.3785  2.9804  0.5990
  941THF    H1114171   3.749   4.683   0.470 -0.4587  0.3798 -1.8106
  941THF    H1214172   3.920   4.519   0.462 -1.6360 -0.2212  0.8086
  941THF    H1314173   4.036   4.630   0.399 -1.9791 -0.0884 -1.3986
  942THF     O114174   3.389   4.198   0.041  0.3938  0.6510  0.6520
  942THF     C214175   3.376   4.071   0.097 -0.4781  0.0213  0.4551
  942THF     C314176   3.519   4.224   0.008 -0.6436  0.1355 -0.7692
  942THF     H414177   3.362   3.999   0.016  4.0473 -2.5558  1.5794
  942THF     H514178   3.290   4.062   0.163 -1.1668 -0.9276 -0.5350
  942THF     H614179   3.537   4.207  -0.098 -0.4643  0.1504 -0.7401
  942THF     H714180   3.559   4.325   0.014  1.2439 -0.6242  0.1649
  942THF     C814181   3.599   4.143   0.105 -0.1373 -0.0592  0.1718
  942THF     C914182   3.505   4.043   0.168  0.2044  0.7908 -0.5749
  942THF    H1014183   3.646   4.202   0.183 -0.2034 -2.0629  1.8132
  942THF    H1114184   3.684   4.092   0.058  0.1336  1.2535 -0.8558
  942THF    H1214185   3.545   3.942   0.158 -0.3187  0.5108  0.0785
  942THF    H1314186   3.487   4.056   0.275 -1.3153 -1.3593 -0.4963
  943THF     O114187   2.677   3.714   1.305  0.6433 -0.2914 -0.4687
  943THF     C214188   2.749   3.737   1.189  0.1281 -0.1957 -0.1452
  943THF     C314189   2.612   3.593   1.303  0.1155  0.4895  0.4637
  943THF     H414190   2.855   3.760   1.191  0.0355  0.6270 -2.3429
  943THF     H514191   2.700   3.824   1.145  1.2790  0.3634 -0.3454
  943THF     H614192   2.671   3.531   1.370 -0.1593  0.2023  0.4425
  943THF     H714193   2.515   3.601   1.352  0.3819  2.2348  0.7445
  943THF     C814194   2.616   3.538   1.154  0.1891  0.6985  0.0354
  943THF     C914195   2.741   3.610   1.109  0.2121 -0.1726 -0.4553
  943THF    H1014196   2.532   3.560   1.088 -1.0284  1.5397  1.7912
  943THF    H1114197   2.633   3.430   1.156  1.5384  0.9094  1.1575
  943THF    H1214198   2.821   3.538   1.128  0.8943  1.0508  1.5362
  943THF    H1314199   2.742   3.616   1.000  0.0774 -2.3082 -0.6163
  944THF     O114200   2.652   3.478   3.279 -0.2609  0.6605 -0.1619
  944THF     C214201   2.524   3.418   3.309 -0.8715  0.8967 -0.7236
  944THF     C314202   2.629   3.616   3.248 -0.2603 -0.2014 -0.1499
  944THF     H414203   2.513   3.434   3.416  1.0073 -1.5095 -0.0778
  944THF     H514204   2.518   3.312   3.288 -0.7056  0.6699  0.3201
  944THF     H614205   2.657   3.682   3.330  2.3504  0.6728 -1.6322
  944THF     H714206   2.688   3.640   3.160  3.2177 -0.2750  1.9689
  944THF     C814207   2.478   3.646   3.235 -0.5661 -0.7260 -0.2314
  944THF     C914208   2.424   3.492   3.224  0.4406 -0.7431 -0.2121
  944THF    H1014209   2.453   3.695   3.141  0.4059  1.5673  0.6268
  944THF    H1114210   2.437   3.700   3.320 -1.5092  0.4449 -1.3830
  944THF    H1214211   2.318   3.485   3.247  0.2777  3.3430  1.1245
  944THF    H1314212   2.430   3.455   3.122 -0.2431 -0.3419 -0.4024
  945THF     O114213   1.269   0.559   0.781 -0.0142  0.1135  0.5355
  945THF     C214214   1.388   0.638   0.796 -0.3165 -0.4002  0.2739
  945THF     C314215   1.258   0.522   0.644  0.2214  0.0642  0.1953
  945THF     H414216   1.450   0.580   0.864 -0.9553 -0.9819  0.3656
  945THF     H514217   1.365   0.730   0.849  0.9166  0.0154  0.1228
  945THF     H614218   1.232   0.417   0.640  0.5110 -0.0631  1.3475
  945THF     H714219   1.178   0.581   0.600 -1.0782 -0.7178  1.4522
  945THF     C814220   1.400   0.549   0.582  0.2033  0.0704  0.3604
  945THF     C914221   1.442   0.669   0.664  0.0349  0.8821 -0.3322
  945THF    H1014222   1.388   0.577   0.477 -0.1474  0.1530  0.4205
  945THF    H1114223   1.462   0.464   0.608  0.0061  0.2390  1.4314
  945THF    H1214224   1.551   0.675   0.674  0.1791 -0.7451 -0.6215
  945THF    H1314225   1.402   0.764   0.630 -0.0602  1.0818  0.3454
  946THF     O114226   3.919   2.086   1.880 -0.1351 -0.1640  0.6265
  946THF     C214227   3.829   2.072   1.989 -0.9260  0.2953  0.7393
  946THF     C314228   4.006   1.973   1.872  0.5389 -0.0242  0.4684
  946THF     H414229   3.738   2.130   1.974 -0.9527  0.1218  0.2212
  946THF     H514230   3.863   2.112   2.085  3.6469 -2.8153  0.7476
  946THF     H614231   4.048   1.961   1.772  1.7975 -1.1411  1.0969
  946THF     H714232   4.086   1.991   1.945 -0.5957  0.8308  1.5402
  946THF     C814233   3.905   1.859   1.901  0.8674 -0.4743  0.0146
  946THF     C914234   3.806   1.924   2.000  0.0438  0.2314  0.1868
  946THF    H1014235   3.947   1.770   1.947 -0.0933 -0.1493  1.6008
  946THF    H1114236   3.845   1.834   1.814  0.9791 -1.5053  0.2250
  946THF    H1214237   3.704   1.890   1.982  0.2461  0.3027 -1.2005
  946THF    H1314238   3.846   1.886   2.094  2.9657  0.3400 -0.9107
  947THF     O114239   3.191   0.586   4.615 -0.5000 -0.4142  0.1799
  947THF     C214240   3.081   0.496   4.606  0.0516  0.8327  0.2986
  947THF     C314241   3.159   0.681   4.705  0.4714  0.4647 -0.2183
  947THF     H414242   3.086   0.411   4.674 -0.9582 -1.6672 -2.5683
  947THF     H514243   3.062   0.450   4.509 -1.1371  2.0716 -0.0844
  947THF     H614244   3.170   0.640   4.805  0.1834 -0.0661 -0.3975
  947THF     H714245   3.215   0.774   4.703 -0.3039  0.9964  1.2278
  947THF     C814246   3.008   0.708   4.673 -0.9269 -0.0504  0.4786
  947THF     C914247   2.954   0.573   4.629 -0.5810 -0.4305 -0.2614
  947THF    H1014248   2.996   0.774   4.587  0.3890 -2.2303 -1.4737
  947THF    H1114249   2.960   0.762   4.754 -0.7559  1.1350 -0.1757
  947THF    H1214250   2.894   0.537   4.713 -1.6371 -0.2231 -0.9050
  947THF    H1314251   2.901   0.581   4.534  3.1333 -1.0130 -2.6072
  948THF     O114252   4.045   2.589   5.219 -0.2878 -0.1422 -0.1895
  948THF     C214253   4.068   2.575   5.081 -0.0701  0.6650 -0.0342
  948THF     C314254   3.982   2.471   5.267 -0.7699 -0.5362 -0.8835
  948THF     H414255   4.158   2.518   5.059 -0.7597 -0.6148  0.3615
  948THF     H514256   4.073   2.674   5.034 -0.1794  0.1350 -1.1913
  948THF     H614257   4.049   2.420   5.336 -0.7369 -2.8496 -2.5197
  948THF     H714258   3.905   2.508   5.335 -0.6172  0.1715 -1.0882
  948THF     C814259   3.937   2.381   5.149 -0.2229 -0.9770  0.1533
  948THF     C914260   3.952   2.486   5.037 -0.0495 -0.5746  0.0793
  948THF    H1014261   3.833   2.351   5.160 -0.1820 -1.1573  0.0387
  948THF    H1114262   3.999   2.296   5.121 -0.4874 -0.5440 -1.8589
  948THF    H1214263   3.975   2.448   4.938  0.7340 -2.8484  1.0632
  948THF    H1314264   3.852   2.529   5.031 -0.0306 -0.7704 -2.5315
  949THF     O114265   1.620   4.482   0.549 -0.2735  0.3448 -0.3138
  949THF     C214266   1.625   4.527   0.422  0.0251  0.2018  0.0003
  949THF     C314267   1.615   4.339   0.555  0.0013  0.2161  0.3691
  949THF     H414268   1.706   4.599   0.408  0.9029 -1.0134 -1.5213
  949THF     H514269   1.536   4.582   0.393 -0.8696 -0.9688  0.4541
  949THF     H614270   1.653   4.297   0.648  1.3081  1.2437  0.3299
  949THF     H714271   1.511   4.312   0.537  0.5101 -1.4165 -0.3370
  949THF     C814272   1.704   4.304   0.442 -0.2913 -0.0580 -0.3215
  949THF     C914273   1.660   4.401   0.334  0.3652 -0.0688 -0.1652
  949THF    H1014274   1.690   4.200   0.412 -0.9499  0.3432 -1.4537
  949THF    H1114275   1.808   4.317   0.474 -0.1630  0.0983 -0.7992
  949THF    H1214276   1.744   4.416   0.266  0.6797 -1.4861 -0.1237
  949THF    H1314277   1.567   4.374   0.284 -0.0962  0.4198  0.4073
  950THF     O114278   5.113   3.826   0.867  0.9954  0.5854 -0.3988
  950THF     C214279   5.026   3.725   0.798 -0.1491  0.4095 -0.2169
  950THF     C314280   5.127   3.937   0.789  0.0024 -0.5062 -0.3982
  950THF     H414281   4.981   3.648   0.862 -1.1367 -1.5334 -3.0594
  950THF     H514282   5.094   3.668   0.734 -0.8271 -1.2267  0.4553
  950THF     H614283   5.106   4.017   0.860 -1.0431 -0.9970 -0.1416
  950THF     H714284   5.222   3.952   0.737 -1.8645  2.6723 -3.3165
  950THF     C814285   5.012   3.923   0.685 -0.6077 -0.2223 -0.4213
  950THF     C914286   4.921   3.811   0.734 -0.4349 -0.1663  0.1843
  950THF    H1014287   5.048   3.909   0.583  0.3514 -2.3255  0.1449
  950THF    H1114288   4.961   4.019   0.679  2.0330  1.3197 -0.2650
  950THF    H1214289   4.856   3.844   0.815  1.5422 -0.0338  1.7833
  950THF    H1314290   4.864   3.760   0.656  1.6848 -1.1711 -0.7692
  951THF     O114291   4.204   4.477   1.970 -0.3313 -0.0759 -0.3077
  951THF     C214292   4.229   4.443   2.107 -0.0227  0.4076  0.0450
  951THF     C314293   4.314   4.430   1.894 -0.0760  0.1195  0.5578
  951THF     H414294   4.131   4.418   2.147 -0.9332 -1.5493 -3.0355
  951THF     H514295   4.285   4.523   2.156  1.4065 -0.6866  0.2606
  951THF     H614296   4.282   4.391   1.798  0.9372  0.4510  0.0795
  951THF     H714297   4.364   4.524   1.870 -3.2335  2.4332  2.3489
  951THF     C814298   4.394   4.335   1.984 -0.1099  0.3469 -0.0473
  951THF     C914299   4.309   4.314   2.104  0.5133  0.2624  0.2407
  951THF    H1014300   4.494   4.372   2.006  0.2376 -0.4582 -0.2323
  951THF    H1114301   4.402   4.233   1.947  1.1995  0.5242 -0.3045
  951THF    H1214302   4.246   4.231   2.073 -0.3085  0.1966  1.9280
  951THF    H1314303   4.362   4.286   2.196 -0.0091  1.2716  0.8656
  952THF     O114304   5.191   0.001   0.149  0.0129  0.1839  0.3118
  952THF     C214305   5.115  -0.034   0.259  0.2636  0.8043 -0.3987
  952THF     C314306   5.184  -0.108   0.061  0.5610  0.2995 -0.0694
  952THF     H414307   5.110   0.046   0.333 -0.2957  0.5133 -0.1158
  952THF     H514308   5.158  -0.117   0.314 -0.1214  0.8410 -0.0376
  952THF     H614309   5.199  -0.070  -0.040  0.0685  1.5761  0.3158
  952THF     H714310   5.248  -0.195   0.073  2.5239  1.7840  0.8718
  952THF     C814311   5.036  -0.146   0.069 -0.8329  0.2053 -0.5188
  952THF     C914312   4.986  -0.078   0.198  0.1998 -0.0294  0.1952
  952THF    H1014313   5.027  -0.253   0.085  0.3088  0.2769  0.8372
  952THF    H1114314   4.978  -0.134  -0.023 -0.4365  0.3870 -0.7448
  952THF    H1214315   4.922   0.006   0.170 -2.3543 -1.9372 -0.0309
  952THF    H1314316   4.923  -0.151   0.249 -0.8813 -0.0232 -1.0676
  953THF     O114317   5.158   4.273   3.957 -0.0932 -0.3829 -0.1102
  953THF     C214318   5.290   4.326   3.971 -0.0715  0.3189  0.3289
  953THF     C314319   5.091   4.357   3.862  0.0817 -0.1707 -0.2752
  953THF     H414320   5.352   4.291   3.889  0.0329 -0.0064  0.5459
  953THF     H514321   5.331   4.290   4.065 -0.2805  0.5554  0.5127
  953THF     H614322   5.116   4.340   3.757 -1.7590 -0.2514 -0.7384
  953THF     H714323   4.984   4.335   3.854 -0.0836 -0.5489  2.2401
  953THF     C814324   5.126   4.494   3.912 -0.9603  0.2826 -0.0050
  953THF     C914325   5.257   4.478   3.979 -0.3855  0.0655  0.3412
  953THF    H1014326   5.056   4.522   3.991  0.6471 -0.6612  1.8092
  953THF    H1114327   5.120   4.568   3.831  0.2124  1.6980  1.1407
  953THF    H1214328   5.332   4.536   3.927 -1.2970 -1.1272 -2.4704
  953THF    H1314329   5.248   4.496   4.086 -1.4478  3.5569 -0.2105
  954THF     O114330   3.495   2.236   1.798 -0.0067 -0.1535  0.3789
  954THF     C214331   3.481   2.102   1.754  0.0377  0.0015  0.1302
  954THF     C314332   3.609   2.291   1.733 -0.0753 -0.3913 -0.2238
  954THF     H414333   3.380   2.069   1.731  0.1156  0.1429 -0.4195
  954THF     H514334   3.517   2.035   1.833  1.3463 -0.8047 -1.1062
  954THF     H614335   3.611   2.398   1.712  2.2310 -0.6792 -1.9392
  954THF     H714336   3.689   2.259   1.800 -1.1665 -0.4786  1.0577
  954THF     C814337   3.625   2.213   1.605  0.5699  0.0834 -0.6671
  954THF     C914338   3.570   2.078   1.627  0.6861 -0.1860  0.7711
  954THF    H1014339   3.722   2.220   1.557  0.8094  3.6725  0.0723
  954THF    H1114340   3.554   2.262   1.539 -2.1145  0.0688  1.9757
  954THF    H1214341   3.528   2.030   1.539 -0.2478 -0.2790  1.2515
  954THF    H1314342   3.643   2.000   1.648  0.0100 -0.8505  0.7137
  955THF     O114343   2.541   4.884   5.026  0.0888  0.0005 -0.3573
  955THF     C214344   2.535   4.843   5.154  0.1337 -0.4126  0.1881
  955THF     C314345   2.416   4.893   4.964  0.5081  0.3611  0.6799
  955THF     H414346   2.628   4.873   5.201 -0.8937  1.5189  1.0957
  955THF     H514347   2.522   4.735   5.147  0.1999 -0.3491 -1.2176
  955THF     H614348   2.399   4.961   4.880  1.1270  0.6724  0.8029
  955THF     H714349   2.398   4.793   4.925 -1.5550  1.2174 -0.7884
  955THF     C814350   2.309   4.917   5.075 -0.2362  0.8077  0.2832
  955THF     C914351   2.397   4.910   5.193  0.4684  0.1721 -0.3977
  955THF    H1014352   2.231   4.841   5.082  1.4373 -1.0975 -0.4463
  955THF    H1114353   2.265   5.015   5.063  0.1418  0.8784 -0.6082
  955THF    H1214354   2.407   5.017   5.209  0.0624  0.3371 -1.2582
  955THF    H1314355   2.362   4.868   5.287  0.0558  1.2093 -0.0732
  956THF     O114356   3.353   1.597   0.422 -0.1428 -0.1912 -0.1600
  956THF     C214357   3.457   1.570   0.328 -0.1033 -0.8049 -0.6809
  956THF     C314358   3.251   1.504   0.412  0.1924  0.6162 -0.3657
  956THF     H414359   3.545   1.581   0.392 -0.9797 -0.6131  0.5248
  956THF     H514360   3.457   1.645   0.249  1.3822  0.1427  0.1665
  956THF     H614361   3.202   1.488   0.508 -0.5406  2.5435 -0.3794
  956THF     H714362   3.178   1.542   0.341 -0.5695  0.4538  0.3067
  956THF     C814363   3.321   1.375   0.358 -0.4066 -0.2034  0.7819
  956THF     C914364   3.437   1.425   0.271 -0.4753 -0.5781 -0.6455
  956THF    H1014365   3.253   1.318   0.294 -0.7781 -1.0607  1.9227
  956THF    H1114366   3.346   1.307   0.439  1.6325  1.8406  1.9602
  956THF    H1214367   3.523   1.362   0.295 -0.5541  0.1937  2.0403
  956THF    H1314368   3.414   1.424   0.165  1.5521 -0.7231 -1.1214
  957THF     O114369   2.198   5.250   4.451  0.7572  0.0900  0.2591
  957THF     C214370   2.161   5.354   4.537 -0.2147  0.5294 -0.2297
  957THF     C314371   2.320   5.271   4.399  0.0307  0.1221  0.4692
  957THF     H414372   2.143   5.317   4.638 -0.8128  1.9329  0.1996
  957THF     H514373   2.072   5.405   4.501 -0.7982  0.6108  1.2458
  957THF     H614374   2.392   5.220   4.463 -0.5688 -0.9728  0.3054
  957THF     H714375   2.339   5.242   4.296  0.0672 -0.0012  0.5104
  957THF     C814376   2.346   5.422   4.402  0.2910 -0.6023 -0.1129
  957THF     C914377   2.273   5.456   4.533 -0.1582 -0.9959  0.3996
  957THF    H1014378   2.287   5.474   4.327 -0.5091 -0.6625  0.4703
  957THF    H1114379   2.453   5.445   4.408  0.2384 -0.2508 -0.4778
  957THF    H1214380   2.339   5.445   4.619  2.9150 -1.2815 -1.8149
  957THF    H1314381   2.236   5.559   4.529  1.7698 -0.2863 -1.1822
  958THF     O114382   1.360   0.676   2.242 -0.8511 -0.0836 -0.3374
  958THF     C214383   1.379   0.767   2.350 -0.7863  0.2602 -0.5401
  958THF     C314384   1.259   0.728   2.159 -0.4779  0.1477  0.0787
  958THF     H414385   1.468   0.734   2.405 -0.8188  1.4245  0.2400
  958THF     H514386   1.301   0.756   2.426 -0.6515 -1.8278 -0.6351
  958THF     H614387   1.253   0.688   2.058 -1.9879  1.5699 -0.4498
  958THF     H714388   1.163   0.696   2.200 -0.0169  0.5223  1.4966
  958THF     C814389   1.281   0.879   2.161 -0.4324  0.2070 -0.2640
  958THF     C914390   1.371   0.905   2.284 -0.1565 -0.3510 -0.4771
  958THF    H1014391   1.185   0.930   2.166  0.5563  2.6013 -2.6742
  958THF    H1114392   1.320   0.923   2.069 -0.3386 -0.0897 -0.3662
  958THF    H1214393   1.473   0.917   2.245  1.1038  0.0235  2.6606
  958THF    H1314394   1.338   0.982   2.353  0.5016 -1.7303  1.4703
  959THF     O114395   0.401   0.805   4.732 -0.2138 -0.1233 -0.0590
  959THF     C214396   0.324   0.901   4.667 -0.7792  0.2735 -0.0881
  959THF     C314397   0.519   0.861   4.770  0.2856  0.0423  0.6623
  959THF     H414398   0.221   0.875   4.694 -0.0300 -0.0166  2.7549
  959THF     H514399   0.340   0.894   4.559 -1.9789 -0.7871 -0.2261
  959THF     H614400   0.561   0.794   4.845 -0.0167 -1.7417 -0.7074
  959THF     H714401   0.587   0.870   4.686  0.5955 -1.8514  0.6811
  959THF     C814402   0.483   1.003   4.810 -0.4022 -0.0482  0.0907
  959THF     C914403   0.373   1.037   4.719  0.3485  0.0752  0.0855
  959THF    H1014404   0.570   1.068   4.800  0.2475 -1.0400 -0.8304
  959THF    H1114405   0.446   1.007   4.913 -1.7940 -1.3845 -0.3304
  959THF    H1214406   0.294   1.091   4.772  0.1268  1.0906 -1.2454
  959THF    H1314407   0.406   1.100   4.637  0.6147  1.1284  0.9650
  960THF     O114408   4.141   5.354   4.389  1.0243  0.2959 -0.0528
  960THF     C214409   4.231   5.313   4.486 -0.2354 -0.2139 -0.0972
  960THF     C314410   4.148   5.496   4.369 -0.6476 -0.5553  0.5759
  960THF     H414411   4.334   5.319   4.450  0.5505 -1.9023  1.6729
  960THF     H514412   4.212   5.211   4.521  0.1257 -0.1621  0.2597
  960THF     H614413   4.239   5.523   4.316 -0.3406 -0.7755  0.9846
  960THF     H714414   4.055   5.542   4.336 -0.7183 -1.1849 -0.1289
  960THF     C814415   4.174   5.545   4.514 -0.6594 -0.4630  0.1366
  960THF     C914416   4.198   5.419   4.592  0.1497 -0.1729  0.7182
  960THF    H1014417   4.085   5.589   4.558 -0.8977  0.2688 -1.0245
  960THF    H1114418   4.254   5.619   4.518 -1.0864 -0.0320  0.8052
  960THF    H1214419   4.280   5.437   4.662  2.3808  1.5085 -2.1043
  960THF    H1314420   4.108   5.388   4.644 -0.0028  0.1962  0.6810
  961THF     O114421   2.369   4.163   5.309 -0.1494 -0.0954  0.6639
  961THF     C214422   2.433   4.081   5.214  0.4902 -0.1161 -0.0448
  961THF     C314423   2.365   4.092   5.430  0.0001 -0.5241  0.2819
  961THF     H414424   2.486   4.130   5.133  2.3181  0.6266  1.5054
  961THF     H514425   2.353   4.021   5.172  0.9899  1.2163 -3.1435
  961THF     H614426   2.337   4.156   5.513  0.6160 -0.3533  0.3613
  961THF     H714427   2.287   4.015   5.424 -1.3405  0.8197 -0.2275
  961THF     C814428   2.504   4.039   5.450  0.0081  0.1515  0.9160
  961THF     C914429   2.538   4.005   5.305 -0.2791  0.3943 -0.0506
  961THF    H1014430   2.502   3.959   5.524  1.7576  1.0489  2.0059
  961THF    H1114431   2.571   4.114   5.491  1.5569  0.6397 -2.1810
  961THF    H1214432   2.639   4.034   5.277 -0.5961  0.8370 -0.7715
  961THF    H1314433   2.537   3.898   5.290  1.0575  0.4033 -0.2904
  962THF     O114434   4.104   4.161   0.209  0.8201  0.1504  0.1260
  962THF     C214435   3.997   4.103   0.276 -0.4757 -0.4712  0.1473
  962THF     C314436   4.181   4.256   0.289  0.0032 -0.1968  0.5469
  962THF     H414437   4.034   4.009   0.318  2.8047  0.7057  0.1367
  962THF     H514438   3.912   4.084   0.210 -0.7581  1.3243 -0.0391
  962THF     H614439   4.281   4.218   0.309 -0.4416  0.0748  3.7829
  962THF     H714440   4.176   4.346   0.228  1.0599 -0.7100 -0.3433
  962THF     C814441   4.100   4.254   0.420 -0.5651 -0.0494 -0.3913
  962THF     C914442   3.965   4.197   0.383 -0.4408 -0.2634 -0.1284
  962THF    H1014443   4.091   4.358   0.454  1.3733  0.8362 -2.3277
  962THF    H1114444   4.161   4.199   0.491 -0.4076  2.9431  2.0208
  962THF    H1214445   3.912   4.147   0.464 -1.7719  0.5911 -0.4384
  962THF    H1314446   3.894   4.271   0.347 -1.6223 -1.3977 -0.2174
  963THF     O114447   4.718   2.006   4.573  0.8566  0.3539  0.0145
  963THF     C214448   4.817   2.096   4.620 -0.1569  0.0422  0.1226
  963THF     C314449   4.588   2.048   4.596 -0.4050  0.2378 -0.2605
  963THF     H414450   4.886   2.110   4.536 -0.2939 -2.0698 -0.4012
  963THF     H514451   4.880   2.057   4.700  0.8139 -0.7918 -1.0172
  963THF     H614452   4.521   2.012   4.518 -0.2030 -1.1133  0.1563
  963THF     H714453   4.553   2.013   4.693  0.7434  2.5281  1.0745
  963THF     C814454   4.605   2.201   4.605 -0.2838  0.3122  0.1181
  963THF     C914455   4.745   2.226   4.660  0.0121 -0.0311 -0.4307
  963THF    H1014456   4.526   2.243   4.668 -0.6778  1.3977 -1.0670
  963THF    H1114457   4.607   2.246   4.506  1.2564  0.0420  0.0002
  963THF    H1214458   4.789   2.320   4.627  2.6207 -1.5910 -1.7483
  963THF    H1314459   4.741   2.229   4.769  0.5906 -1.4777 -0.3476
  964THF     O114460   0.844   1.850   2.418 -0.5231 -0.4744 -0.5139
  964THF     C214461   0.935   1.887   2.518 -0.6467 -0.3071 -0.1550
  964THF     C314462   0.886   1.725   2.360 -0.0621 -0.9057  0.1512
  964THF     H414463   0.899   1.854   2.615 -0.5025  0.9624  0.3516
  964THF     H514464   0.932   1.995   2.535 -0.6106 -0.3478  0.1066
  964THF     H614465   0.871   1.636   2.422  1.9318 -1.4143 -0.0244
  964THF     H714466   0.836   1.706   2.266  1.0851 -0.8680 -0.4822
  964THF     C814467   1.036   1.752   2.348 -0.2060  0.0988 -0.4105
  964THF     C914468   1.070   1.826   2.482 -0.3495  0.4536  0.1712
  964THF    H1014469   1.051   1.813   2.259 -0.0559 -0.9451 -1.1283
  964THF    H1114470   1.096   1.661   2.337 -0.8873 -0.4619  0.3990
  964THF    H1214471   1.119   1.763   2.555 -1.5718  0.1663  0.7697
  964THF    H1314472   1.138   1.908   2.456  0.0649 -0.1430 -0.6577
  965THF     O114473   4.487   4.728   3.992 -0.7909 -0.3066  0.1268
  965THF     C214474   4.521   4.637   3.886  0.2438 -1.2488 -0.4776
  965THF     C314475   4.352   4.755   3.989  0.7021  0.2062  0.3798
  965THF     H414476   4.547   4.538   3.925  0.8034 -1.0046 -0.2202
  965THF     H514477   4.606   4.678   3.832 -1.1055  0.1716 -1.6224
  965THF     H614478   4.292   4.686   4.048 -0.2228  0.8867  0.2562
  965THF     H714479   4.322   4.852   4.026  0.0815 -0.3270  1.3011
  965THF     C814480   4.311   4.743   3.844 -0.3745 -0.6251  0.4864
  965THF     C914481   4.396   4.632   3.798  0.0167  0.7006  0.3940
  965THF    H1014482   4.334   4.837   3.794  0.2181 -0.5782  0.8324
  965THF    H1114483   4.205   4.729   3.825 -0.2862 -1.8855  0.8660
  965THF    H1214484   4.354   4.532   3.809  2.6365 -0.3051  2.6345
  965THF    H1314485   4.409   4.648   3.691  0.8668  0.7060  0.4904
  966THF     O114486   4.244   0.392   4.012  0.4843 -0.4077  0.0534
  966THF     C214487   4.179   0.288   4.089 -0.1759  0.3912  0.5204
  966THF     C314488   4.154   0.445   3.910 -0.1002  0.4331  0.1638
  966THF     H414489   4.225   0.279   4.188  1.5912 -1.3889 -0.4114
  966THF     H514490   4.188   0.196   4.031  1.3471  1.0846 -0.3644
  966THF     H614491   4.178   0.550   3.894 -2.0113  1.1432  1.5779
  966THF     H714492   4.174   0.391   3.817  4.0874  0.6716  0.7296
  966THF     C814493   4.019   0.407   3.966  0.1511 -0.0872  0.0185
  966THF     C914494   4.036   0.330   4.095  0.1163 -0.0384 -1.0377
  966THF    H1014495   3.977   0.358   3.878  2.8605  0.4053 -1.6622
  966THF    H1114496   3.957   0.494   3.987  0.2155 -0.7146  3.2963
  966THF    H1214497   4.031   0.402   4.176  0.7735  0.5212 -1.4858
  966THF    H1314498   3.971   0.243   4.106 -1.6960  1.5049  1.2724
  967THF     O114499   3.289   2.196   3.935  0.3974 -0.7243 -0.4727
  967THF     C214500   3.330   2.084   4.008  0.5481 -0.6819  0.4966
  967THF     C314501   3.342   2.199   3.808  0.6432 -0.5091  0.1090
  967THF     H414502   3.269   2.061   4.095 -2.7042 -1.3501 -1.7749
  967THF     H514503   3.434   2.105   4.033  0.3034  0.6136  0.5101
  967THF     H614504   3.280   2.257   3.739 -0.9945 -2.0852  0.1898
  967THF     H714505   3.444   2.237   3.797  0.8535 -1.3661 -1.2586
  967THF     C814506   3.348   2.049   3.770  0.6745  0.4363 -0.1860
  967THF     C914507   3.329   1.973   3.898  0.3014 -0.3840  0.1600
  967THF    H1014508   3.440   2.028   3.717  0.7574 -2.1356  0.7971
  967THF    H1114509   3.264   2.013   3.710 -0.4051 -1.7426  2.4177
  967THF    H1214510   3.235   1.919   3.895  0.5665 -0.9042  0.9136
  967THF    H1314511   3.414   1.904   3.897  1.3870  0.8670 -1.8524
  968THF     O114512   0.517   1.435   0.466  0.3535 -0.2035  0.0683
  968THF     C214513   0.400   1.520   0.484 -0.1217 -0.4185 -0.1100
  968THF     C314514   0.541   1.364   0.591  0.3792 -0.5499 -0.5611
  968THF     H414515   0.313   1.457   0.468 -0.2772 -0.8246  2.0499
  968THF     H514516   0.407   1.599   0.410 -1.9029  1.6406  1.7970
  968THF     H614517   0.471   1.284   0.615 -1.0395  0.5507 -0.9562
  968THF     H714518   0.645   1.331   0.579  0.6944  0.9074 -2.1821
  968THF     C814519   0.525   1.481   0.692 -0.3869  0.3430 -0.0435
  968THF     C914520   0.421   1.579   0.625  0.7837 -0.5256  0.0047
  968THF    H1014521   0.621   1.530   0.702  0.0833 -0.5333 -0.1244
  968THF    H1114522   0.490   1.455   0.792 -0.6746  0.5427 -0.0902
  968THF    H1214523   0.321   1.581   0.669  0.2659  1.0196 -1.1778
  968THF    H1314524   0.456   1.682   0.627  0.7020 -0.5020  0.6833
  969THF     O114525   1.916   5.214   0.746 -0.0016 -0.3659  0.2062
  969THF     C214526   1.840   5.153   0.644 -0.0882 -0.3248 -0.5406
  969THF     C314527   1.871   5.181   0.869 -0.1050  0.2735 -0.8847
  969THF     H414528   1.898   5.149   0.552 -1.2240  1.3504 -1.3817
  969THF     H514529   1.756   5.218   0.622  1.4365  1.9223 -0.0944
  969THF     H614530   1.959   5.157   0.928 -0.6870 -0.2186 -0.1977
  969THF     H714531   1.812   5.268   0.897  1.6289  0.8532  1.2498
  969THF     C814532   1.779   5.062   0.842  0.2703 -0.2801  0.0279
  969THF     C914533   1.793   5.017   0.699  0.3540 -0.5036 -0.4288
  969THF    H1014534   1.677   5.084   0.873  0.9234 -1.1352  3.1462
  969THF    H1114535   1.800   4.973   0.900 -3.3403 -1.4290 -0.1668
  969THF    H1214536   1.862   4.933   0.690 -1.5418 -2.2009  0.1683
  969THF    H1314537   1.701   4.973   0.659 -0.0652  1.1867 -1.4053
  970THF     O114538   2.751   3.901   3.176  0.0750 -0.0765  0.2127
  970THF     C214539   2.678   3.957   3.069  0.6514  0.0528 -0.7067
  970THF     C314540   2.748   3.992   3.281 -0.2840 -0.0518  0.5744
  970THF     H414541   2.650   3.886   2.990  0.9231  0.0166 -0.7737
  970THF     H514542   2.726   4.039   3.017  1.6362  0.2039  0.4073
  970THF     H614543   2.771   3.947   3.377  3.1045  2.5694  1.1538
  970THF     H714544   2.813   4.076   3.259 -0.7362 -0.0987 -1.0631
  970THF     C814545   2.601   4.044   3.275 -0.5374  0.2574 -0.3535
  970THF     C914546   2.557   4.013   3.132 -0.0813  0.1604  0.1510
  970THF    H1014547   2.605   4.151   3.295  0.7888  0.2871 -0.6373
  970THF    H1114548   2.547   4.002   3.359 -0.1099  3.8312  1.9147
  970THF    H1214549   2.473   3.944   3.139 -1.5585  2.0501  2.5635
  970THF    H1314550   2.527   4.102   3.076 -0.4514  0.7053  1.1865
  971PF6-    P114551   5.185   1.249   4.859  0.3056 -0.4238 -0.3358
  971PF6-    F214552   5.238   1.283   5.004 -0.2304 -0.0775 -0.1243
  971PF6-    F314553   5.126   1.211   4.714 -0.8219  0.2697  0.8356
  971PF6-    F414554   5.035   1.242   4.914  0.0570 -0.3626 -0.4864
  971PF6-    F514555   5.334   1.263   4.803 -0.0265  0.1904  0.4909
  971PF6-    F614556   5.207   1.090   4.881  0.1199 -0.1778  0.3692
  971PF6-    F714557   5.168   1.406   4.833  0.0502 -0.0848 -0.0508
  972PF6-    P114558   3.745   0.999   1.539  0.3122 -0.0657  0.1285
  972PF6-    F214559   3.672   1.137   1.492 -0.0000  0.0393  0.0601
  972PF6-    F314560   3.826   0.866   1.586 -0.1455 -0.2222 -0.4495
  972PF6-    F414561   3.852   1.085   1.622  0.3037  0.0303  0.1157
  972PF6-    F514562   3.636   0.908   1.454  0.0310 -0.2595 -0.0862
  972PF6-    F614563   3.836   1.011   1.406 -0.4365  0.7032 -0.0957
  972PF6-    F714564   3.656   0.992   1.672 -0.1298  0.0871  0.4536
  973PF6-    P114565   1.276   3.900   2.748  0.1663  0.3021 -0.0125
  973PF6-    F214566   1.217   3.796   2.854 -0.1533 -0.0132  0.0160
  973PF6-    F314567   1.329   4.004   2.641 -0.6551 -0.0930 -0.2558
  973PF6-    F414568   1.189   4.014   2.817 -0.3595 -0.0514  0.4097
  973PF6-    F514569   1.367   3.786   2.678 -0.0389 -0.4819  0.0032
  973PF6-    F614570   1.151   3.866   2.649  0.0265 -0.4658  0.1462
  973PF6-    F714571   1.398   3.937   2.849  0.2575  0.1526 -0.1515
  974PF6-    P114572   3.406   3.665   2.443 -0.1124 -0.3122 -0.2569
  974PF6-    F214573   3.515   3.749   2.533  0.7525 -0.4384  0.4324
  974PF6-    F314574   3.298   3.582   2.355 -0.2281 -0.3595  0.3704
  974PF6-    F414575   3.523   3.561   2.406 -0.6340  0.4321 -0.2093
  974PF6-    F514576   3.294   3.772   2.483  0.0669  0.1871 -0.2007
  974PF6-    F614577   3.442   3.761   2.317  0.2784  0.2492  0.1295
  974PF6-    F714578   3.367   3.581   2.572  0.2645  0.1520  0.1142
  975PF6-    P114579   2.791   1.518   4.992 -0.1654  0.0756  0.0561
  975PF6-    F214580   2.777   1.661   5.060 -0.3126 -0.3557 -0.6768
  975PF6-    F314581   2.799   1.375   4.922  0.3694  0.1958 -0.1743
  975PF6-    F414582   2.849   1.592   4.863 -0.4044  0.3961  0.2899
  975PF6-    F514583   2.737   1.457   5.120  0.1660 -0.1250 -0.2967
  975PF6-    F614584   2.641   1.532   4.930 -0.3275  0.6549  0.1770
  975PF6-    F714585   2.937   1.501   5.057 -0.2787  0.0835  0.5659
  976PF6-    P114586   3.411   4.090   3.766  0.1240 -0.0479  0.1636
  976PF6-    F214587   3.328   4.004   3.662 -0.0410  0.0278  0.2974
  976PF6-    F314588   3.491   4.174   3.870 -0.0479 -0.3933 -1.1941
  976PF6-    F414589   3.378   3.992   3.883 -0.0244 -0.1476 -0.7120
  976PF6-    F514590   3.436   4.201   3.650 -0.3408  0.3139  0.1964
  976PF6-    F614591   3.277   4.161   3.804 -0.3247 -0.0378  0.1382
  976PF6-    F714592   3.543   4.011   3.729 -0.0303  0.5979 -0.3055
  977PF6-    P114593   4.053   0.136   3.604 -0.1633 -0.4503  0.5348
  977PF6-    F214594   3.919   0.222   3.640  0.2809 -0.0964 -0.5542
  977PF6-    F314595   4.182   0.048   3.561  0.1495 -0.0397 -0.4724
  977PF6-    F414596   3.965   0.010   3.595 -0.2953  0.0389 -0.1702
  977PF6-    F514597   4.140   0.270   3.607 -0.1533  0.1875  0.1182
  977PF6-    F614598   4.084   0.109   3.756 -0.1132  0.2339 -0.3627
  977PF6-    F714599   4.024   0.163   3.449 -0.3776  0.1780 -0.4576
  978PF6-    P114600   1.260   1.553   1.260 -0.0088 -0.4627 -0.2064
  978PF6-    F214601   1.148   1.543   1.382  0.5360 -0.2500 -0.0765
  978PF6-    F314602   1.368   1.572   1.143  0.6395 -0.5123  0.2949
  978PF6-    F414603   1.286   1.701   1.304 -0.0513  0.0547 -0.5256
  978PF6-    F514604   1.228   1.403   1.214  0.3507  0.1633  0.1402
  978PF6-    F614605   1.143   1.613   1.164 -0.1836 -0.1087  0.1856
  978PF6-    F714606   1.377   1.504   1.359 -0.0839  0.0612  0.2268
  979PF6-    P114607   0.094   3.427   2.022  0.1987 -0.0047  0.2136
  979PF6-    F214608   0.011   3.551   1.960  0.0009 -0.1489 -0.3364
  979PF6-    F314609   0.175   3.300   2.080  0.2702 -0.4568  0.4333
  979PF6-    F414610   0.137   3.385   1.874  0.0559  0.2570 -0.0206
  979PF6-    F514611   0.056   3.473   2.165 -0.3807  0.3534 -0.1462
  979PF6-    F614612  -0.037   3.335   2.009  0.1461  0.2088 -0.0279
  979PF6-    F714613   0.231   3.512   2.025  0.2457  0.1013 -0.1363
  980PF6-    P114614   1.865   4.571   2.661 -0.1166  0.1020  0.1296
  980PF6-    F214615   1.899   4.462   2.544 -0.2910  0.9351  0.0514
  980PF6-    F314616   1.831   4.674   2.778  0.5437  0.2331 -0.2096
  980PF6-    F414617   1.856   4.684   2.544 -0.0092 -0.1377 -0.0593
  980PF6-    F514618   1.879   4.458   2.769 -0.3977 -0.0173 -0.5112
  980PF6-    F614619   2.024   4.594   2.685 -0.2189 -0.1943  0.0668
  980PF6-    F714620   1.714   4.545   2.646 -0.0463 -0.3605  0.2691
  981PF6-    P114621   4.805   4.428   4.195  0.0006  0.2974  0.1708
  981PF6-    F214622   4.668   4.501   4.228 -0.2951 -0.0384 -0.0255
  981PF6-    F314623   4.940   4.348   4.159 -0.1034 -0.3743 -0.3195
  981PF6-    F414624   4.886   4.526   4.298 -0.4083 -0.3344 -0.4346
  981PF6-    F514625   4.726   4.336   4.086 -0.3972 -0.3299  0.1336
  981PF6-    F614626   4.828   4.532   4.075  0.2512 -0.1428 -0.0840
  981PF6-    F714627   4.769   4.329   4.312 -0.1030 -0.9010  0.0503
  982PF6-    P114628   1.790   2.189   1.012  0.0067  0.0518 -0.1468
  982PF6-    F214629   1.845   2.048   0.971 -0.1739 -0.0944 -0.0293
  982PF6-    F314630   1.731   2.335   1.061  0.0038  0.2288  0.4807
  982PF6-    F414631   1.934   2.231   1.054  0.4051  0.1809  0.1655
  982PF6-    F514632   1.646   2.136   0.975 -0.5430 -0.5712  0.1997
  982PF6-    F614633   1.773   2.133   1.164 -0.1436 -0.0471  0.7557
  982PF6-    F714634   1.808   2.243   0.858 -0.1107  0.6129 -0.3734
  983PF6-    P114635   3.852   2.084   3.612  0.4887 -0.2852  0.3698
  983PF6-    F214636   3.741   1.968   3.608  0.1705  0.2424  0.1451
  983PF6-    F314637   3.959   2.200   3.620 -0.2598 -0.3359  0.1177
  983PF6-    F414638   3.790   2.143   3.481 -0.3099  0.1690  0.2377
  983PF6-    F514639   3.911   2.025   3.747  0.0096 -0.3958  0.1520
  983PF6-    F614640   3.959   1.992   3.521  0.4096 -0.4396  0.0099
  983PF6-    F714641   3.752   2.177   3.696  0.1631  0.3142  0.0852
  984PF6-    P114642   4.762   5.379   4.360 -0.4773 -0.4643 -0.0604
  984PF6-    F214643   4.684   5.245   4.400  0.3527  0.2860  0.2150
  984PF6-    F314644   4.840   5.516   4.320 -0.1294  0.1845  0.1265
  984PF6-    F414645   4.889   5.327   4.444  0.0625  0.3463  0.0957
  984PF6-    F514646   4.641   5.428   4.275 -0.5015  0.0559  0.2818
  984PF6-    F614647   4.703   5.458   4.482  0.5864 -0.2011 -0.5250
  984PF6-    F714648   4.831   5.316   4.230 -0.2201  0.2687 -0.1526
  985PF6-    P114649   0.178   4.714   5.155  0.0947  0.3417  0.3387
  985PF6-    F214650   0.326   4.734   5.207  0.0939 -0.1909  0.5050
  985PF6-    F314651   0.031   4.685   5.101  0.3738  0.2070  0.5796
  985PF6-    F414652   0.140   4.867   5.181  0.0653  0.3499  0.8369
  985PF6-    F514653   0.207   4.560   5.129 -0.1640  0.2888  0.0195
  985PF6-    F614654   0.130   4.685   5.306 -0.2424  0.1177 -0.0332
  985PF6-    F714655   0.231   4.745   5.010  0.3783  0.3622  0.0624
  986PF6-    P114656   5.010   2.377   5.037 -0.0363 -0.3054  0.0173
  986PF6-    F214657   4.920   2.465   5.134  1.0458 -0.3581  0.8709
  986PF6-    F314658   5.099   2.293   4.938 -0.5962 -0.4670  0.6944
  986PF6-    F414659   4.905   2.383   4.923  0.3475 -0.1994 -0.2067
  986PF6-    F514660   5.119   2.360   5.157  0.0620  0.4050  0.4496
  986PF6-    F614661   4.942   2.246   5.094 -0.2863  0.3934 -0.4119
  986PF6-    F714662   5.080   2.511   4.987  0.0889  0.2063 -0.2844
  987PF6-    P114663   1.869   0.397   0.805 -0.1026  0.1135  0.4588
  987PF6-    F214664   2.025   0.372   0.836 -0.3028 -0.3987  0.1649
  987PF6-    F314665   1.714   0.422   0.774  0.5247 -0.5216  0.4081
  987PF6-    F414666   1.831   0.341   0.948 -0.7880  0.1361  0.2253
  987PF6-    F514667   1.905   0.451   0.661  0.3142 -0.6164  0.5498
  987PF6-    F614668   1.862   0.251   0.742 -0.4665 -0.3238  0.1365
  987PF6-    F714669   1.888   0.547   0.862 -0.4353 -0.2576  0.9757
  988PF6-    P114670   3.686   4.549   2.517  0.0220 -0.0705  0.3510
  988PF6-    F214671   3.708   4.420   2.609  0.0596 -0.0902 -0.4269
  988PF6-    F314672   3.648   4.682   2.426 -0.6247  0.0225  0.4622
  988PF6-    F414673   3.801   4.508   2.416 -0.4329  0.4577  0.2689
  988PF6-    F514674   3.568   4.588   2.624 -0.6447 -0.0928  0.0714
  988PF6-    F614675   3.796   4.624   2.599 -0.4256  0.0873  0.5269
  988PF6-    F714676   3.581   4.464   2.435  0.2083  0.1841 -0.1817
  989PF6-    P114677   1.285   1.285   5.393  0.1381  0.1136 -0.4300
  989PF6-    F214678   1.355   1.423   5.370  0.1781 -0.1337 -0.0195
  989PF6-    F314679   1.213   1.138   5.418 -0.1917 -0.7213  0.2893
  989PF6-    F414680   1.145   1.349   5.358 -0.5743 -0.0639 -0.3581
  989PF6-    F514681   1.430   1.222   5.432 -0.7139 -0.0149  0.0987
  989PF6-    F614682   1.263   1.320   5.546  0.0966 -0.1862  0.3358
  989PF6-    F714683   1.305   1.254   5.240  0.1568 -0.5271 -0.1241
  990PF6-    P114684   2.547   1.662   1.395 -0.2656  0.0666 -0.3093
  990PF6-    F214685   2.633   1.546   1.334  0.0695 -0.0671 -0.1212
  990PF6-    F314686   2.463   1.784   1.459  0.1434 -0.1051 -0.1048
  990PF6-    F414687   2.587   1.606   1.542 -0.0109 -0.4447  0.3426
  990PF6-    F514688   2.509   1.716   1.248  0.2978  0.2658  0.3316
  990PF6-    F614689   2.413   1.570   1.403 -1.0253 -0.3986  0.4349
  990PF6-    F714690   2.679   1.757   1.404  0.4160 -0.1460 -0.0629
  991PF6-    P114691   3.935   0.879   4.005 -0.0849  0.2190  0.4456
  991PF6-    F214692   3.795   0.825   4.061  0.0249 -0.3768 -0.2669
  991PF6-    F314693   4.078   0.929   3.947 -0.5397  0.3047 -0.0575
  991PF6-    F414694   3.953   0.740   3.932 -0.5618 -0.0186 -0.8389
  991PF6-    F514695   3.921   1.015   4.088  0.0827 -0.0525 -0.3153
  991PF6-    F614696   4.011   0.814   4.124 -0.0961  0.5234 -0.3025
  991PF6-    F714697   3.859   0.945   3.877 -0.1667  0.6505  0.0232
  992PF6-    P114698   0.140   3.766   2.602 -0.2143 -0.3225 -0.1329
  992PF6-    F214699   0.154   3.913   2.662  0.5391 -0.2664 -0.2591
  992PF6-    F314700   0.123   3.626   2.529 -0.5137 -0.7666 -0.1023
  992PF6-    F414701   0.282   3.719   2.667  0.6341 -0.3003 -0.2771
  992PF6-    F514702   0.005   3.810   2.526 -0.7789  0.3366 -0.6757
  992PF6-    F614703   0.228   3.819   2.480 -0.6581 -0.0874  0.4781
  992PF6-    F714704   0.064   3.710   2.727  0.5876  0.0670  0.4687
  993PF6-    P114705   1.190   3.289   4.966 -0.0928  0.4090 -0.2976
  993PF6-    F214706   1.028   3.301   4.951 -0.2124  0.5167 -0.0359
  993PF6-    F314707   1.349   3.273   4.983  0.4838 -0.3462  0.5130
  993PF6-    F414708   1.200   3.444   4.946  0.2989 -0.2719  0.1479
  993PF6-    F514709   1.162   3.132   4.993 -0.4495  0.1824 -0.4400
  993PF6-    F614710   1.195   3.278   4.805 -0.5835 -0.0230  0.2070
  993PF6-    F714711   1.181   3.311   5.127 -0.0970  0.0646  0.0384
  994PF6-    P114712   0.299   2.925   3.769 -0.0563 -0.3691  0.1807
  994PF6-    F214713   0.178   2.953   3.867  0.2045 -0.6633 -0.2495
  994PF6-    F314714   0.425   2.898   3.671 -0.3040 -0.4610 -0.2997
  994PF6-    F414715   0.392   3.007   3.867  0.5057 -0.0744 -0.0209
  994PF6-    F514716   0.193   2.847   3.669  0.0976 -0.0088  0.3520
  994PF6-    F614717   0.275   3.062   3.689 -0.0501 -0.1995  0.0417
  994PF6-    F714718   0.333   2.790   3.847  0.1385 -0.0519  0.3424
  995PF6-    P114719   1.629   1.497   3.799  0.2105 -0.3686  0.1848
  995PF6-    F214720   1.573   1.640   3.748  0.2507  0.1598 -0.0433
  995PF6-    F314721   1.692   1.361   3.851  0.2232 -0.2173  0.1016
  995PF6-    F414722   1.512   1.470   3.899 -0.1648 -0.0299  0.0386
  995PF6-    F514723   1.755   1.511   3.700 -0.4378  0.3521 -0.2135
  995PF6-    F614724   1.712   1.568   3.912 -0.0949  0.0100  0.1312
  995PF6-    F714725   1.547   1.428   3.681 -0.0912  0.2885  0.3676
  996PF6-    P114726   2.767   2.214   0.300  0.2040  0.5854  0.2673
  996PF6-    F214727   2.734   2.306   0.170 -0.0404  0.1994  0.2853
  996PF6-    F314728   2.815   2.131   0.424 -0.5630  0.3094  0.2969
  996PF6-    F414729   2.654   2.106   0.256  0.0736  0.5945  0.0502
  996PF6-    F514730   2.872   2.326   0.348 -0.0795  0.2041 -0.0900
  996PF6-    F614731   2.654   2.289   0.387  0.3081  0.2100  0.5191
  996PF6-    F714732   2.873   2.142   0.210  0.0431 -0.7452  0.1362
  997PF6-    P114733   2.019   4.507   1.547  0.3258  0.2047 -0.3094
  997PF6-    F214734   1.882   4.429   1.550  0.0383 -0.2220 -0.0569
  997PF6-    F314735   2.157   4.598   1.539  0.3964  0.3729  0.4878
  997PF6-    F414736   2.031   4.510   1.711  0.2105 -0.0859 -0.4224
  997PF6-    F514737   2.015   4.492   1.388 -0.2898  0.2933  0.1800
  997PF6-    F614738   1.930   4.646   1.549 -0.4823  0.2317  0.1107
  997PF6-    F714739   2.099   4.372   1.549  0.0645 -0.1936  0.3642
  998PF6-    P114740   0.143   5.076   1.206  0.1367  0.1324  0.1999
  998PF6-    F214741   0.163   4.920   1.185 -0.5721  0.1193 -0.1820
  998PF6-    F314742   0.124   5.237   1.226 -0.3327  0.5614  0.2749
  998PF6-    F414743   0.003   5.042   1.284  0.6241  0.5070  0.3164
  998PF6-    F514744   0.280   5.104   1.122  0.0481  0.9712  0.4362
  998PF6-    F614745   0.051   5.070   1.075 -0.0959 -0.2799  0.1810
  998PF6-    F714746   0.224   5.075   1.342  0.5196 -0.0284 -0.4158
  999PF6-    P114747   3.411   5.101   3.657  0.2410 -0.0967 -0.0832
  999PF6-    F214748   3.491   5.045   3.531  0.0964  0.0372 -0.5715
  999PF6-    F314749   3.327   5.159   3.777  0.4058  0.2735 -0.1450
  999PF6-    F414750   3.447   4.970   3.743 -0.4377 -0.0422  0.5567
  999PF6-    F514751   3.374   5.232   3.572 -0.1900  0.4565 -0.0388
  999PF6-    F614752   3.283   5.024   3.610  0.7200 -0.1654 -0.0414
  999PF6-    F714753   3.543   5.171   3.709 -0.0205  0.5218  0.0161
 1000PF6-    P114754   3.384   1.124   3.378  0.0039 -0.2677 -0.0260
 1000PF6-    F214755   3.296   1.089   3.248  0.9962 -0.0053 -0.0228
 1000PF6-    F314756   3.468   1.161   3.510 -0.0420  0.2551  0.0994
 1000PF6-    F414757   3.421   0.966   3.397 -0.1736 -0.4885  0.6335
 1000PF6-    F514758   3.341   1.277   3.357 -0.1650  0.0448  0.5601
 1000PF6-    F614759   3.257   1.106   3.472 -0.0929 -0.1072 -0.3306
 1000PF6-    F714760   3.508   1.144   3.284  0.1153 -0.0475  0.8756
 1001PF6-    P114761   0.274   0.804   3.359 -0.1974  0.0876 -0.1109
 1001PF6-    F214762   0.420   0.870   3.394  0.4987 -0.8737  0.3488
 1001PF6-    F314763   0.136   0.728   3.321 -0.3763 -0.1792 -0.0997
 1001PF6-    F414764   0.232   0.808   3.515  0.0286  0.3294  0.5108
 1001PF6-    F514765   0.319   0.798   3.204 -0.3135 -0.5043  0.0455
 1001PF6-    F614766   0.347   0.663   3.382 -0.3194 -0.0924 -0.4400
 1001PF6-    F714767   0.205   0.944   3.338 -0.1404 -0.0518 -0.8753
 1002PF6-    P114768   1.976   0.477   1.794  0.1873  0.0110  0.3106
 1002PF6-    F214769   1.996   0.560   1.931 -0.0671  0.2153 -0.4568
 1002PF6-    F314770   1.961   0.401   1.649 -0.3289  0.1175  0.2315
 1002PF6-    F414771   1.974   0.622   1.717  0.0500  0.3041  0.0789
 1002PF6-    F514772   1.972   0.336   1.871 -0.4336  0.2162  0.4016
 1002PF6-    F614773   1.820   0.483   1.806  0.0746 -0.1092  0.4634
 1002PF6-    F714774   2.139   0.474   1.786  0.3961 -0.3130  0.4818
 1003PF6-    P114775   0.444   2.516   2.236 -0.1605  0.5582  0.1323
 1003PF6-    F214776   0.340   2.421   2.160  0.2057 -0.5559 -0.1218
 1003PF6-    F314777   0.560   2.604   2.305  0.6091 -0.2258 -0.5324
 1003PF6-    F414778   0.499   2.390   2.316  0.0499 -0.0933 -0.1392
 1003PF6-    F514779   0.394   2.643   2.156  0.1178 -0.5124 -0.0019
 1003PF6-    F614780   0.341   2.541   2.354 -0.1625 -0.0125  0.5769
 1003PF6-    F714781   0.543   2.482   2.116 -0.3048  0.6957 -0.0607
 1004PF6-    P114782   5.055   2.088   2.248  0.1381  0.1860  0.2106
 1004PF6-    F214783   4.958   2.051   2.366  0.4162 -0.2773  0.1141
 1004PF6-    F314784   5.155   2.117   2.120  0.2192  0.2800 -0.2230
 1004PF6-    F414785   5.119   1.940   2.259 -0.0871 -0.0978 -0.1589
 1004PF6-    F514786   4.991   2.234   2.230  0.2009 -0.1257 -0.0149
 1004PF6-    F614787   5.163   2.140   2.355 -0.1494 -0.0458  0.0865
 1004PF6-    F714788   4.947   2.032   2.147 -0.2705  0.2618 -0.2063
 1005PF6-    P114789   3.239   2.758   1.643  0.0843 -0.1937 -0.4475
 1005PF6-    F214790   3.165   2.619   1.650  0.7006 -0.2670 -0.4599
 1005PF6-    F314791   3.312   2.900   1.638 -0.1852  0.4516 -0.0787
 1005PF6-    F414792   3.110   2.820   1.586 -0.0935  0.1457 -0.2556
 1005PF6-    F514793   3.375   2.687   1.690 -0.6227 -0.2244  0.0977
 1005PF6-    F614794   3.285   2.734   1.489  0.6737  0.4251 -0.4330
 1005PF6-    F714795   3.191   2.793   1.795 -0.1913  0.2884 -0.1690
 1006PF6-    P114796   0.523   2.204   4.829 -0.0914  0.1238 -0.1941
 1006PF6-    F214797   0.397   2.183   4.729 -0.0912 -0.0038 -0.4144
 1006PF6-    F314798   0.644   2.220   4.932 -1.0787 -0.1519  0.2374
 1006PF6-    F414799   0.428   2.161   4.955  0.1054 -0.7609  0.1951
 1006PF6-    F514800   0.631   2.242   4.711  0.5878  0.4296  0.2210
 1006PF6-    F614801   0.483   2.356   4.846 -0.2073  0.2421  0.1392
 1006PF6-    F714802   0.560   2.055   4.806  0.2202  0.0569 -0.0433
 1007PF6-    P114803   3.031   2.780   5.286 -0.3224  0.3304 -0.1816
 1007PF6-    F214804   2.879   2.836   5.306  0.0139 -0.6836  0.1908
 1007PF6-    F314805   3.181   2.736   5.276  0.0542  0.0176  0.0335
 1007PF6-    F414806   2.986   2.670   5.178  0.1026 -0.1961  0.0480
 1007PF6-    F514807   3.078   2.890   5.390 -0.5282  0.0205  0.6411
 1007PF6-    F614808   3.015   2.666   5.401 -0.0183 -0.0508  0.6293
 1007PF6-    F714809   3.053   2.896   5.176  0.5936 -0.2752  0.8266
 1008PF6-    P114810   4.044   2.660   1.251  0.1900  0.0313  0.1827
 1008PF6-    F214811   4.047   2.642   1.092 -0.4100  0.0122 -0.3572
 1008PF6-    F314812   4.043   2.676   1.408 -0.2724  0.1411  0.0281
 1008PF6-    F414813   3.888   2.675   1.244  0.0170  0.7557 -0.5776
 1008PF6-    F514814   4.203   2.652   1.257 -0.6518  0.5711  0.2811
 1008PF6-    F614815   4.055   2.816   1.238  0.0989 -0.0203  0.3298
 1008PF6-    F714816   4.028   2.499   1.260  0.6836  0.7272  0.1548
 1009PF6-    P114817   0.915   0.149   2.703 -0.0616  0.2969  0.0362
 1009PF6-    F214818   0.789   0.241   2.708 -0.0077 -0.7542 -0.1776
 1009PF6-    F314819   1.051   0.056   2.704  0.6782 -0.0094  0.3076
 1009PF6-    F414820   0.962   0.216   2.562 -0.1645 -0.3263 -0.5189
 1009PF6-    F514821   0.878   0.073   2.835 -0.3645  0.0877 -0.3408
 1009PF6-    F614822   0.835   0.034   2.622  0.6794  0.4466 -0.0387
 1009PF6-    F714823   0.996   0.261   2.786 -0.7402  0.8206 -0.0665
 1010PF6-    P114824   5.253   1.247   2.069 -0.2767  0.0800 -0.0967
 1010PF6-    F214825   5.354   1.325   1.962  0.0134  0.0222  0.3912
 1010PF6-    F314826   5.156   1.178   2.178  0.0622 -0.3686  0.0333
 1010PF6-    F414827   5.379   1.158   2.109 -0.0141  0.2475  0.2418
 1010PF6-    F514828   5.132   1.343   2.032  0.2698  0.2478  0.6354
 1010PF6-    F614829   5.213   1.137   1.955 -0.0000  0.0321 -0.3941
 1010PF6-    F714830   5.303   1.363   2.180  0.3323 -0.0651 -0.8262
 1011PF6-    P114831   2.591   4.660   3.930 -0.0100  0.0342 -0.2086
 1011PF6-    F214832   2.625   4.756   3.808 -0.3146 -0.3591  0.0686
 1011PF6-    F314833   2.557   4.562   4.055 -0.0694  0.3945 -0.5370
 1011PF6-    F414834   2.745   4.640   3.959  0.5557  0.2045 -0.1124
 1011PF6-    F514835   2.437   4.675   3.895  0.1411  0.0208 -0.0424
 1011PF6-    F614836   2.593   4.530   3.835  0.2204  0.3255 -0.3820
 1011PF6-    F714837   2.587   4.785   4.023 -0.2682  0.1587  0.3623
 1012PF6-    P114838   5.248   0.489   1.842  0.1989 -0.4154  0.0211
 1012PF6-    F214839   5.130   0.464   1.947 -0.4887  0.1149 -0.0218
 1012PF6-    F314840   5.367   0.524   1.739  0.4621  0.4450 -0.3250
 1012PF6-    F414841   5.292   0.619   1.927  0.2404 -0.0546 -0.2092
 1012PF6-    F514842   5.200   0.368   1.754  0.3913  0.0513  0.4513
 1012PF6-    F614843   5.158   0.582   1.756  0.2567 -0.0735 -0.1155
 1012PF6-    F714844   5.343   0.391   1.929 -0.0144 -0.5994  0.2827
 1013PF6-    P114845   5.263   0.180   4.071  0.2918  0.2628 -0.1232
 1013PF6-    F214846   5.125   0.120   4.020  0.2665 -0.1294  0.1543
 1013PF6-    F314847   5.398   0.247   4.117  0.2778  0.1346  0.3006
 1013PF6-    F414848   5.180   0.266   4.178 -0.3549 -0.7685 -0.0642
 1013PF6-    F514849   5.341   0.091   3.962 -0.1981 -0.2433 -0.2251
 1013PF6-    F614850   5.241   0.305   3.966 -0.0030 -0.1039 -0.1296
 1013PF6-    F714851   5.286   0.064   4.176  0.1542 -0.4780 -0.2617
 1014PF6-    P114852   0.258   4.312   3.636 -0.4477 -0.1919 -0.0039
 1014PF6-    F214853   0.221   4.471   3.649  0.0712 -0.3126  0.0328
 1014PF6-    F314854   0.300   4.161   3.612  0.4616 -0.4366  0.2098
 1014PF6-    F414855   0.410   4.354   3.624  0.3593 -0.0041  0.3766
 1014PF6-    F514856   0.103   4.263   3.638 -0.6071 -0.3463 -0.6807
 1014PF6-    F614857   0.244   4.330   3.479 -0.0915 -0.3940 -0.6144
 1014PF6-    F714858   0.276   4.287   3.795 -0.2468  0.0094  0.2414
 1015PF6-    P114859   0.835   3.697   3.981 -0.3139  0.1382  0.0752
 1015PF6-    F214860   0.691   3.702   4.045 -0.4712 -0.0388 -0.1965
 1015PF6-    F314861   0.979   3.694   3.917  0.3785  0.1337 -0.0844
 1015PF6-    F414862   0.780   3.601   3.871  0.2262  0.3321 -0.1926
 1015PF6-    F514863   0.887   3.791   4.098 -0.0371  0.0077  0.0238
 1015PF6-    F614864   0.878   3.571   4.069 -0.0043  0.2063 -0.3235
 1015PF6-    F714865   0.805   3.828   3.889  0.1519 -0.5204  0.2095
 1016PF6-    P114866   4.901   0.201   3.068 -0.1232  0.3489  0.3723
 1016PF6-    F214867   4.934   0.169   2.917  0.3936  0.1021  0.3074
 1016PF6-    F314868   4.880   0.239   3.221 -0.2019  0.1469  0.6044
 1016PF6-    F414869   4.916   0.047   3.102 -0.0773  0.4206 -0.0882
 1016PF6-    F514870   4.873   0.356   3.025  0.2142 -0.6045 -0.1886
 1016PF6-    F614871   4.749   0.176   3.039 -0.7165 -0.0942 -0.1259
 1016PF6-    F714872   5.052   0.230   3.086 -0.9242  0.3074 -0.0026
 1017PF6-    P114873   4.886   4.973   0.333 -0.2663  0.4053 -0.2031
 1017PF6-    F214874   4.855   5.033   0.479 -0.2073  0.1255  0.0099
 1017PF6-    F314875   4.914   4.920   0.186  0.4006 -0.3441  0.7231
 1017PF6-    F414876   4.756   4.878   0.345 -0.0710  0.1040 -0.3291
 1017PF6-    F514877   5.009   5.066   0.322 -0.4806  0.1920 -0.0734
 1017PF6-    F614878   4.974   4.859   0.403 -0.1305  0.1500 -0.0196
 1017PF6-    F714879   4.795   5.083   0.268 -0.2634  0.3656  0.1241
 1018PF6-    P114880   2.605   1.003   0.358  0.4090 -0.5600  0.1794
 1018PF6-    F214881   2.523   0.896   0.450 -0.2302  0.8980 -0.3991
 1018PF6-    F314882   2.687   1.111   0.280 -0.1501 -0.0936  0.1795
 1018PF6-    F414883   2.721   1.001   0.467 -0.1630  0.0154  0.0356
 1018PF6-    F514884   2.491   1.007   0.250 -0.2352  0.5120 -0.0602
 1018PF6-    F614885   2.532   1.126   0.435  0.3553 -0.7403  0.1972
 1018PF6-    F714886   2.682   0.884   0.281 -0.0397  0.1906 -0.4465
 1019PF6-    P114887   0.981   1.953   3.007 -0.2005 -0.1428 -0.5499
 1019PF6-    F214888   1.022   2.024   3.136  0.2668 -0.1559  0.4277
 1019PF6-    F314889   0.937   1.877   2.876  0.3579  0.1423 -0.4640
 1019PF6-    F414890   1.103   2.013   2.933 -0.1014 -0.1953  0.3875
 1019PF6-    F514891   0.851   1.891   3.081 -0.3762  0.0853  0.0038
 1019PF6-    F614892   0.893   2.079   2.969 -0.3213  0.3713 -0.0435
 1019PF6-    F714893   1.066   1.827   3.047  0.3168  0.0511  0.4751
 1020PF6-    P114894   4.624   0.591   1.148  0.5769 -0.4048  0.0855
 1020PF6-    F214895   4.657   0.727   1.069  0.0698  0.0167 -0.3658
 1020PF6-    F314896   4.585   0.456   1.222 -0.0038 -0.2740  0.0595
 1020PF6-    F414897   4.719   0.509   1.042 -0.0470 -0.6201  0.0345
 1020PF6-    F514898   4.536   0.671   1.254  0.0676  0.0420 -0.3764
 1020PF6-    F614899   4.500   0.566   1.055  0.8113 -0.2357  0.4868
 1020PF6-    F714900   4.751   0.613   1.235  0.4554  0.1317  0.1205
 1021PF6-    P114901   4.146   1.969   4.384 -0.1893 -0.1869 -0.2893
 1021PF6-    F214902   4.140   1.988   4.546 -0.1409 -0.2501 -0.1750
 1021PF6-    F314903   4.151   1.958   4.227  0.2629 -0.1956  0.1307
 1021PF6-    F414904   4.062   2.108   4.369  0.2507 -0.0028  0.4596
 1021PF6-    F514905   4.239   1.842   4.398  0.4945 -0.3743 -0.3446
 1021PF6-    F614906   4.015   1.873   4.386  0.3285 -0.1442 -0.0604
 1021PF6-    F714907   4.277   2.052   4.376 -0.5267  0.0043 -0.2091
 1022PF6-    P114908   0.856   4.972   0.839 -0.0048 -0.3418  0.5211
 1022PF6-    F214909   0.928   5.107   0.780  0.1476 -0.0562  0.6564
 1022PF6-    F314910   0.785   4.837   0.884 -0.1410  0.0563  0.0012
 1022PF6-    F414911   1.004   4.916   0.884 -0.1934  0.2852  0.0582
 1022PF6-    F514912   0.718   5.035   0.796  0.4382 -0.4818 -0.2274
 1022PF6-    F614913   0.872   4.907   0.693  0.6401  0.2879 -0.1097
 1022PF6-    F714914   0.836   5.034   0.981  0.4117 -0.5337  0.1001
 1023PF6-    P114915   4.193   0.826   3.090  0.1606 -0.3118 -0.0768
 1023PF6-    F214916   4.088   0.801   2.975 -0.2315  0.8792  0.0622
 1023PF6-    F314917   4.300   0.847   3.205 -0.3019 -0.1246 -0.3472
 1023PF6-    F414918   4.182   0.985   3.072 -0.2740  0.2898  0.0062
 1023PF6-    F514919   4.208   0.667   3.112  0.8644 -0.0854 -0.5915
 1023PF6-    F614920   4.316   0.818   2.984 -0.1282 -0.6424  0.2033
 1023PF6-    F714921   4.072   0.829   3.195  0.6008  0.2758 -0.1957
 1024PF6-    P114922   0.635   1.410   2.117 -0.4944 -0.2171  0.2978
 1024PF6-    F214923   0.695   1.297   2.026  0.2150 -0.1343  0.6296
 1024PF6-    F314924   0.571   1.523   2.216  0.5739  0.8125 -0.0672
 1024PF6-    F414925   0.505   1.416   2.020  0.4925 -0.8221 -0.2050
 1024PF6-    F514926   0.767   1.392   2.210  0.9141  0.4110 -0.1321
 1024PF6-    F614927   0.701   1.527   2.034  0.1214  0.5310 -0.0200
 1024PF6-    F714928   0.556   1.294   2.204 -0.2931 -0.3210  0.4771
 1025PF6-    P114929   0.578   2.290   0.657 -0.2981 -0.0667  0.1416
 1025PF6-    F214930   0.503   2.150   0.669  0.3934 -0.2610 -0.1318
 1025PF6-    F314931   0.645   2.438   0.649  0.7193 -0.0929 -0.0785
 1025PF6-    F414932   0.555   2.308   0.808 -0.0792 -0.2853 -0.2261
 1025PF6-    F514933   0.595   2.272   0.499 -0.0250 -0.4361 -0.0234
 1025PF6-    F614934   0.437   2.362   0.636 -0.0238 -0.2080 -0.2819
 1025PF6-    F714935   0.725   2.221   0.679 -0.1100  0.1435  0.1214
 1026PF6-    P114936   1.527   1.456   2.393  0.2055  0.1767 -0.0738
 1026PF6-    F214937   1.475   1.444   2.543  0.0309  0.5058  0.2672
 1026PF6-    F314938   1.572   1.466   2.245 -0.0977 -0.0107  0.0434
 1026PF6-    F414939   1.570   1.606   2.413  0.0930 -0.0951  0.4946
 1026PF6-    F514940   1.483   1.300   2.364  0.0032  0.2587  0.1649
 1026PF6-    F614941   1.382   1.508   2.340 -0.2847 -0.2228  0.3226
 1026PF6-    F714942   1.675   1.408   2.433 -0.2295 -0.1692 -0.0564
 1027PF6-    P114943   3.783   3.699   4.473  0.2840 -0.0170  0.4104
 1027PF6-    F214944   3.696   3.637   4.596  0.4467 -0.2301 -0.2463
 1027PF6-    F314945   3.865   3.758   4.348  0.0289 -0.0118  0.3648
 1027PF6-    F414946   3.795   3.556   4.397  0.2689  0.1898 -0.0756
 1027PF6-    F514947   3.773   3.844   4.541 -0.1098 -0.0937 -0.2976
 1027PF6-    F614948   3.919   3.674   4.554 -0.1977 -0.3183 -0.0095
 1027PF6-    F714949   3.646   3.727   4.396 -0.0839  0.3295  0.5311
 1028PF6-    P114950   4.812   2.786   1.292  0.1369  0.4347  0.4710
 1028PF6-    F214951   4.728   2.764   1.432 -0.4209  0.1609  0.7460
 1028PF6-    F314952   4.891   2.806   1.153  0.3241  0.1848 -0.1114
 1028PF6-    F414953   4.674   2.823   1.213  0.5468 -0.3023  0.0552
 1028PF6-    F514954   4.942   2.755   1.368 -0.1412  0.4549  0.6055
 1028PF6-    F614955   4.795   2.626   1.258  0.0163 -0.4810 -0.0482
 1028PF6-    F714956   4.835   2.937   1.325  0.1070  0.7940  0.4547
 1029PF6-    P114957   1.948   3.784   3.610  0.2913  0.0361 -0.1744
 1029PF6-    F214958   1.954   3.733   3.765 -0.3874  0.3005 -0.7480
 1029PF6-    F314959   1.943   3.841   3.455  0.0407  0.5774 -0.6737
 1029PF6-    F414960   1.799   3.715   3.605 -0.1804  0.2206  0.3680
 1029PF6-    F514961   2.098   3.851   3.627 -0.3560  0.3861  0.1667
 1029PF6-    F614962   2.013   3.651   3.564 -0.3806 -0.4575 -0.3762
 1029PF6-    F714963   1.885   3.922   3.670  0.0990 -0.0750  0.0160
 1030PF6-    P114964   1.655   2.304   4.840 -0.1243 -0.2744  0.2744
 1030PF6-    F214965   1.798   2.230   4.799  0.2562 -0.5447 -0.4197
 1030PF6-    F314966   1.515   2.372   4.870  0.1647 -0.1448 -0.1310
 1030PF6-    F414967   1.652   2.234   4.987 -0.0577  0.7242 -0.4179
 1030PF6-    F514968   1.655   2.380   4.695  0.2843 -0.1611 -0.0945
 1030PF6-    F614969   1.579   2.179   4.781 -0.6014 -0.1312 -0.1131
 1030PF6-    F714970   1.733   2.430   4.902  0.2231 -0.2358 -0.2201
 1031PF6-    P114971   2.240   1.630   3.080  0.2489 -0.1964  0.3864
 1031PF6-    F214972   2.259   1.627   2.929  0.1104  0.0482  0.4424
 1031PF6-    F314973   2.214   1.649   3.234  0.0871 -0.0866 -0.6069
 1031PF6-    F414974   2.350   1.748   3.089 -0.1955 -0.3928 -0.0424
 1031PF6-    F514975   2.140   1.507   3.071  0.7201  0.1997  0.5367
 1031PF6-    F614976   2.354   1.522   3.114 -0.1124  0.1620 -0.1234
 1031PF6-    F714977   2.121   1.733   3.053 -0.1153 -0.7543 -0.1436
 1032PF6-    P114978   0.552   4.093   4.854  0.0555 -0.2002  0.0109
 1032PF6-    F214979   0.480   4.087   4.710 -0.8984 -0.1233 -0.6714
 1032PF6-    F314980   0.619   4.094   5.000 -0.1499  0.4027  0.7033
 1032PF6-    F414981   0.640   4.219   4.801 -0.1729 -1.0128 -0.2125
 1032PF6-    F514982   0.460   3.967   4.899 -0.5956  0.5276  0.1135
 1032PF6-    F614983   0.667   3.997   4.808 -0.0638  0.2069  0.6610
 1032PF6-    F714984   0.440   4.199   4.904 -0.0641 -0.4030  0.0804
 1033PF6-    P114985   0.351   3.185   0.125 -0.0058  0.1996  0.1064
 1033PF6-    F214986   0.287   3.044   0.158  0.4021  0.0696 -0.4951
 1033PF6-    F314987   0.434   3.318   0.099  0.0501 -0.2804  0.2376
 1033PF6-    F414988   0.344   3.147  -0.029  0.5640  0.3322  0.0402
 1033PF6-    F514989   0.356   3.219   0.280  0.0681 -0.4086  0.2415
 1033PF6-    F614990   0.491   3.108   0.130 -0.1409 -0.7230  0.1035
 1033PF6-    F714991   0.207   3.263   0.109  0.1669 -0.1027 -0.0741
 1034PF6-    P114992   0.579   4.256   1.914  0.4317 -0.2641  0.0724
 1034PF6-    F214993   0.662   4.227   2.042  0.2201  0.0659 -0.0216
 1034PF6-    F314994   0.486   4.286   1.786  0.6701  0.6472  0.0996
 1034PF6-    F414995   0.638   4.398   1.895 -0.1712  0.1537 -0.2015
 1034PF6-    F514996   0.517   4.115   1.933  0.2305  0.4552 -0.0940
 1034PF6-    F614997   0.463   4.317   2.002  0.0097  0.7183  0.2738
 1034PF6-    F714998   0.691   4.190   1.826  0.0318 -0.0632 -0.1863
 1035PF6-    P114999   0.014   2.077   4.146  0.2969  0.0357 -0.4304
 1035PF6-    F215000  -0.052   1.998   4.026  0.4541  0.0789  0.2206
 1035PF6-    F315001   0.080   2.152   4.272  0.0287 -0.4167  0.4672
 1035PF6-    F415002  -0.046   1.967   4.241  0.2026  0.1600 -0.4961
 1035PF6-    F515003   0.075   2.191   4.054 -0.2885 -0.1219 -0.4441
 1035PF6-    F615004  -0.119   2.158   4.166  0.3831 -0.0958 -0.5246
 1035PF6-    F715005   0.149   1.994   4.133 -0.4443  0.1831  0.4688
 1036PF6-    P115006   5.463   3.660   4.077  0.2978  0.0075  0.3569
 1036PF6-    F215007   5.588   3.695   4.168 -0.8596  0.3758 -0.4072
 1036PF6-    F315008   5.340   3.621   3.982  0.2730 -0.1630  0.4508
 1036PF6-    F415009   5.379   3.782   4.148 -0.2655 -0.0363  0.1754
 1036PF6-    F515010   5.547   3.544   4.004 -0.4906  0.1354  0.2129
 1036PF6-    F615011   5.413   3.555   4.190  0.0676 -0.1744  0.6199
 1036PF6-    F715012   5.519   3.764   3.966 -0.0487 -0.3420  0.1709
 1037PF6-    P115013   4.093   3.372   0.656 -0.3141  0.0133  0.0526
 1037PF6-    F215014   4.214   3.450   0.588 -0.2076 -0.1921  0.7199
 1037PF6-    F315015   3.971   3.285   0.717 -0.4851 -0.5317 -0.2077
 1037PF6-    F415016   4.143   3.401   0.801  0.1258 -0.4814  0.0864
 1037PF6-    F515017   4.041   3.337   0.509 -0.1249  0.3201  0.4269
 1037PF6-    F615018   4.188   3.244   0.651 -1.4889  0.0299  0.0174
 1037PF6-    F715019   4.005   3.506   0.662  0.3234 -0.4097 -0.0629
 1038PF6-    P115020   4.217   2.465   2.763 -0.1650 -0.0571  0.1034
 1038PF6-    F215021   4.378   2.434   2.755 -0.0865  0.5447  0.2248
 1038PF6-    F315022   4.059   2.491   2.759  0.5598 -0.0852 -0.0817
 1038PF6-    F415023   4.199   2.313   2.790 -0.6481 -0.3096 -0.3082
 1038PF6-    F515024   4.247   2.617   2.724 -0.1685  0.0359  0.3192
 1038PF6-    F615025   4.209   2.430   2.602 -0.3126  0.2014 -0.0926
 1038PF6-    F715026   4.224   2.491   2.913  0.4554 -0.2709 -0.4105
 1039PF6-    P115027   4.353   0.226   5.021 -0.3380  0.0143 -0.2946
 1039PF6-    F215028   4.450   0.269   5.133 -0.6028 -1.0912 -0.4243
 1039PF6-    F315029   4.243   0.186   4.919  0.0398 -0.4202 -0.3527
 1039PF6-    F415030   4.318   0.379   4.983  0.3298 -0.1643 -0.3325
 1039PF6-    F515031   4.385   0.075   5.059 -0.2338 -0.2682 -0.4504
 1039PF6-    F615032   4.230   0.232   5.128 -0.1558 -0.5362 -0.8209
 1039PF6-    F715033   4.469   0.224   4.918 -0.5078 -0.2437  0.0007
 1040PF6-    P115034   0.478   3.191   1.574  0.2582  0.6030 -0.1624
 1040PF6-    F215035   0.454   3.350   1.571  0.3589 -0.4062 -0.0927
 1040PF6-    F315036   0.495   3.030   1.575 -0.0775  0.0253 -0.0572
 1040PF6-    F415037   0.587   3.202   1.457 -0.2466  0.1267 -0.0259
 1040PF6-    F515038   0.378   3.181   1.698  0.0791  0.0596  0.1166
 1040PF6-    F615039   0.355   3.181   1.469  0.0633  0.2549  0.1870
 1040PF6-    F715040   0.606   3.207   1.670  0.2946 -0.3020  0.3496
 1041PF6-    P115041   4.437   3.390   1.819 -0.4776 -0.0908 -0.1759
 1041PF6-    F215042   4.305   3.412   1.920  0.1791  0.1639  0.2364
 1041PF6-    F315043   4.564   3.362   1.727  0.3704 -0.4131 -0.4882
 1041PF6-    F415044   4.405   3.236   1.816 -0.1743  0.1201 -0.3742
 1041PF6-    F515045   4.473   3.549   1.842 -0.3307 -0.4493  0.0822
 1041PF6-    F615046   4.526   3.361   1.944  0.2661 -0.2623  0.5249
 1041PF6-    F715047   4.347   3.416   1.687 -0.2202  0.4919  0.6888
 1042PF6-    P115048   0.503   4.983   3.994 -0.2854 -0.1539  0.0648
 1042PF6-    F215049   0.581   4.856   4.055 -0.0650 -0.4711 -0.1039
 1042PF6-    F315050   0.423   5.105   3.929 -0.1323 -0.3569 -0.4950
 1042PF6-    F415051   0.571   5.084   4.096  0.0043  0.6226 -0.0527
 1042PF6-    F515052   0.429   4.887   3.888 -0.4146 -0.1497  0.4861
 1042PF6-    F615053   0.386   4.961   4.102  0.4826 -0.1465  0.6954
 1042PF6-    F715054   0.622   5.003   3.892  0.2250  0.4045 -0.3733
 1043PF6-    P115055   3.323   1.893   4.447  0.2098 -0.0001  0.5262
 1043PF6-    F215056   3.351   1.749   4.518 -0.3648  0.0667  0.2421
 1043PF6-    F315057   3.297   2.037   4.376 -0.8312  0.3464  0.3995
 1043PF6-    F415058   3.238   1.818   4.330 -0.1691  0.1854  0.5521
 1043PF6-    F515059   3.408   1.964   4.560  0.4767  0.2824 -0.1555
 1043PF6-    F615060   3.458   1.880   4.367 -0.1073 -0.3215  0.4646
 1043PF6-    F715061   3.185   1.907   4.533  0.1852 -0.2253  0.2914
 1044PF6-    P115062   0.608   5.365   3.696 -0.4485 -0.0992 -0.0191
 1044PF6-    F215063   0.534   5.423   3.567 -0.0437  0.3984 -0.0737
 1044PF6-    F315064   0.690   5.303   3.820 -0.1077  0.4269  0.4665
 1044PF6-    F415065   0.734   5.340   3.606  0.0422 -0.3280  0.1696
 1044PF6-    F515066   0.472   5.389   3.786 -0.0747 -0.2162 -0.0263
 1044PF6-    F615067   0.552   5.225   3.655 -0.1632  0.5979 -0.2426
 1044PF6-    F715068   0.665   5.506   3.735  0.0779 -1.0220  0.4036
 1045PF6-    P115069   0.109   1.064   0.398 -0.1689 -0.4473 -0.5790
 1045PF6-    F215070   0.026   1.198   0.424 -0.1238  0.0375 -0.1555
 1045PF6-    F315071   0.190   0.933   0.369 -0.8752 -0.0681 -0.6760
 1045PF6-    F415072   0.001   1.015   0.292 -0.1512 -0.2797 -0.1476
 1045PF6-    F515073   0.218   1.111   0.500  0.0004 -0.2084  0.3188
 1045PF6-    F615074   0.035   0.985   0.511  0.6432  0.1328 -0.1117
 1045PF6-    F715075   0.187   1.143   0.283 -0.6213 -0.5778 -0.4152
 1046PF6-    P115076   3.857   1.152   0.286  0.1414 -0.4187 -0.1853
 1046PF6-    F215077   3.791   1.222   0.154  0.2285 -0.7567 -0.5576
 1046PF6-    F315078   3.920   1.077   0.414  0.1795  0.0330  0.5075
 1046PF6-    F415079   3.895   1.027   0.194 -0.2265  0.4291  0.7364
 1046PF6-    F515080   3.812   1.276   0.377 -0.0094  0.0343  0.4567
 1046PF6-    F615081   3.716   1.088   0.319  0.1540  0.0438  0.5610
 1046PF6-    F715082   3.997   1.222   0.253  0.0137 -0.0270 -0.5439
 1047PF6-    P115083   4.211   5.443   1.774 -0.2345 -0.3127 -0.0313
 1047PF6-    F215084   4.198   5.602   1.794  0.9786 -0.3746 -0.3009
 1047PF6-    F315085   4.232   5.285   1.765 -0.0784  0.0557 -0.2972
 1047PF6-    F415086   4.065   5.420   1.831  0.1082  0.1519  0.7819
 1047PF6-    F515087   4.365   5.466   1.716 -0.1571 -0.3843 -0.6188
 1047PF6-    F615088   4.275   5.444   1.922 -0.3848 -0.1355  0.2019
 1047PF6-    F715089   4.148   5.448   1.626 -0.1529  0.0831  0.0870
 1048PF6-    P115090   3.057   1.825   1.631 -0.5061 -0.1501 -0.2638
 1048PF6-    F215091   3.011   1.757   1.772  0.4667 -0.0547 -0.3653
 1048PF6-    F315092   3.106   1.906   1.498 -0.3796 -0.4571  0.0512
 1048PF6-    F415093   3.160   1.920   1.714 -0.3166  0.4013 -0.2117
 1048PF6-    F515094   2.955   1.726   1.552 -0.1895 -0.2188  0.0167
 1048PF6-    F615095   2.934   1.930   1.642 -0.5585 -0.1188 -0.4162
 1048PF6-    F715096   3.176   1.719   1.605 -0.1858  0.1352  0.2684
 1049PF6-    P115097   3.114   5.251   1.712  0.0519  0.2052  0.1946
 1049PF6-    F215098   3.120   5.410   1.722 -0.6089 -0.0949  0.0283
 1049PF6-    F315099   3.114   5.089   1.705 -0.0328  0.1051 -0.0641
 1049PF6-    F415100   3.075   5.255   1.555 -0.0346 -0.0906 -0.0134
 1049PF6-    F515101   3.150   5.243   1.869  0.1543 -0.3186 -0.6808
 1049PF6-    F615102   2.959   5.261   1.748  0.0041  0.3263  0.1279
 1049PF6-    F715103   3.272   5.248   1.681  0.6636 -0.3381  0.2118
 1050PF6-    P115104   3.100   3.625   0.026 -0.0792 -0.1487 -0.3438
 1050PF6-    F215105   3.005   3.617   0.161 -0.7091  0.1994 -0.0536
 1050PF6-    F315106   3.190   3.633  -0.103  0.1414  0.0664  0.1470
 1050PF6-    F415107   3.020   3.752  -0.032 -0.0837  0.0475  0.5629
 1050PF6-    F515108   3.179   3.492   0.078 -0.3657  0.3422 -0.1967
 1050PF6-    F615109   2.999   3.532  -0.049 -0.6190  0.6527  0.4142
 1050PF6-    F715110   3.205   3.725   0.105  0.2113 -0.4059  0.1980
 1051PF6-    P115111   4.133   2.156   0.073 -0.0556 -0.2854 -0.7575
 1051PF6-    F215112   4.095   2.163  -0.077 -0.3264  0.5667  0.2885
 1051PF6-    F315113   4.178   2.140   0.228 -0.6543  0.5537 -0.1843
 1051PF6-    F415114   4.195   2.304   0.067  0.3590 -0.1097 -0.3703
 1051PF6-    F515115   4.070   2.009   0.081 -0.2684 -0.3041  0.1232
 1051PF6-    F615116   4.272   2.089   0.029  0.0523 -0.4616  0.1032
 1051PF6-    F715117   3.991   2.221   0.112  0.2023 -0.0158 -0.4667
 1052PF6-    P115118   4.623   3.289   5.001  0.3302 -0.0136 -0.1509
 1052PF6-    F215119   4.710   3.168   4.945  0.4907  0.0195  0.3251
 1052PF6-    F315120   4.539   3.409   5.067 -0.2662  0.0224  0.2057
 1052PF6-    F415121   4.702   3.398   4.905 -0.3496  0.7089 -0.1315
 1052PF6-    F515122   4.554   3.184   5.103 -0.2515  0.1810 -0.1954
 1052PF6-    F615123   4.734   3.310   5.109 -0.1948 -0.1271  0.1154
 1052PF6-    F715124   4.516   3.262   4.885  0.0495 -0.1867 -0.2512
 1053PF6-    P115125   1.546   4.925   3.427 -0.1741 -0.0391  0.3736
 1053PF6-    F215126   1.589   4.815   3.318  0.0661  0.5928 -0.4301
 1053PF6-    F315127   1.505   5.036   3.531 -0.3506 -0.0322 -0.2216
 1053PF6-    F415128   1.568   4.817   3.541 -0.4140  0.0453  0.1544
 1053PF6-    F515129   1.518   5.034   3.308 -0.1274 -0.5238 -0.0949
 1053PF6-    F615130   1.395   4.885   3.416  0.1276  0.7119  0.5893
 1053PF6-    F715131   1.702   4.970   3.436 -0.0961 -0.5519 -0.0449
 1054PF6-    P115132   4.049   2.843   4.270  0.2422  0.2020  0.1150
 1054PF6-    F215133   4.192   2.901   4.305 -0.2524  0.1094 -0.3249
 1054PF6-    F315134   3.905   2.789   4.237  0.1901  0.6651  0.4506
 1054PF6-    F415135   4.020   2.836   4.423 -0.0264 -0.0449 -0.4156
 1054PF6-    F515136   4.086   2.856   4.119 -0.1692  0.4133  0.3365
 1054PF6-    F615137   4.101   2.692   4.274  0.2798  0.2118 -0.3805
 1054PF6-    F715138   3.981   2.990   4.272 -0.0644  0.1080  0.1453
 1055PF6-    P115139   5.397   4.782   4.313 -0.0169  0.0265 -0.3951
 1055PF6-    F215140   5.276   4.882   4.263 -0.3501 -0.1963 -0.5914
 1055PF6-    F315141   5.506   4.677   4.360 -0.5791  0.4980  0.5948
 1055PF6-    F415142   5.408   4.723   4.165  0.4711  0.1913 -0.4804
 1055PF6-    F515143   5.386   4.841   4.464 -0.4670 -0.0566 -0.0168
 1055PF6-    F615144   5.286   4.674   4.351  0.2556  0.3990 -0.0432
 1055PF6-    F715145   5.504   4.893   4.268 -0.5120  0.7034 -0.0629
 1056PF6-    P115146   2.572   4.475   3.064  0.3327 -0.3081 -0.4730
 1056PF6-    F215147   2.719   4.410   3.083  0.0152  0.0213 -0.0340
 1056PF6-    F315148   2.427   4.543   3.057  0.0850 -0.6591 -0.1227
 1056PF6-    F415149   2.630   4.581   2.960  0.6175  0.3093  0.0986
 1056PF6-    F515150   2.516   4.365   3.178  0.0844  0.2488  0.7623
 1056PF6-    F615151   2.606   4.577   3.180  0.2023  0.0509 -0.2973
 1056PF6-    F715152   2.539   4.380   2.935  0.4019  0.2302  0.0469
 1057PF6-    P115153   2.119   0.332   2.957  0.4483  0.0548  0.0421
 1057PF6-    F215154   2.127   0.467   3.043 -0.0283  0.3889 -0.0044
 1057PF6-    F315155   2.116   0.191   2.884  0.4373  0.8626  0.1547
 1057PF6-    F415156   2.229   0.265   3.056 -0.3863  0.5235  0.2107
 1057PF6-    F515157   2.011   0.398   2.857  0.1942 -0.0627 -0.3452
 1057PF6-    F615158   2.233   0.378   2.856  0.1765 -0.1824  0.1566
 1057PF6-    F715159   2.001   0.289   3.056  0.3135  0.1970  0.2494
 1058PF6-    P115160   3.788   2.879   3.574  0.0612 -0.0881  0.1161
 1058PF6-    F215161   3.743   2.852   3.418 -0.3295  0.1265 -0.0132
 1058PF6-    F315162   3.831   2.906   3.722  0.5771  0.1896  0.0223
 1058PF6-    F415163   3.647   2.825   3.623 -0.3316  0.1881  0.6160
 1058PF6-    F515164   3.936   2.930   3.523 -1.0306 -0.1927 -0.1880
 1058PF6-    F615165   3.720   3.029   3.567  0.5008 -0.5734 -0.0478
 1058PF6-    F715166   3.841   2.729   3.580 -0.0601  0.1697  0.0809
 1059PF6-    P115167   5.030   2.427   0.812 -0.0957  0.3437 -0.2342
 1059PF6-    F215168   4.985   2.389   0.658  0.0338 -0.3516 -0.0359
 1059PF6-    F315169   5.059   2.466   0.964 -0.0607 -0.5542 -0.8699
 1059PF6-    F415170   5.146   2.314   0.813  0.0325  0.2091 -0.0117
 1059PF6-    F515171   4.907   2.530   0.824 -0.0352  0.2223 -0.0550
 1059PF6-    F615172   4.924   2.316   0.863 -0.0355  0.4642  0.5230
 1059PF6-    F715173   5.137   2.535   0.770  0.4499 -0.0060 -0.1422
 1060PF6-    P115174   0.510   0.638   1.444  0.3131 -0.1269  0.0821
 1060PF6-    F215175   0.483   0.781   1.378  0.3950  0.0034  0.0483
 1060PF6-    F315176   0.535   0.490   1.512  0.4100 -0.1572  0.1755
 1060PF6-    F415177   0.573   0.706   1.573 -0.3349  0.0049  0.4699
 1060PF6-    F515178   0.441   0.573   1.315  0.2719  0.3527  0.7289
 1060PF6-    F615179   0.651   0.632   1.376  0.1122 -0.6104 -0.2121
 1060PF6-    F715180   0.361   0.644   1.517 -0.3189 -0.0170  0.0602
 1061PF6-    P115181   1.260   2.840   3.859 -0.2669 -0.5290  0.1185
 1061PF6-    F215182   1.141   2.765   3.790  0.1590 -0.0860  0.2239
 1061PF6-    F315183   1.381   2.924   3.918  0.1455 -0.1783  0.3894
 1061PF6-    F415184   1.157   2.943   3.920  0.1179  0.1642 -0.4993
 1061PF6-    F515185   1.364   2.739   3.789 -0.6786  0.2171 -0.0451
 1061PF6-    F615186   1.265   2.938   3.727 -0.2138 -0.7624 -0.1691
 1061PF6-    F715187   1.259   2.740   3.982  0.2137  0.3541 -0.4387
 1062PF6-    P115188   5.314   1.774   0.061 -0.1700  0.4394  0.6239
 1062PF6-    F215189   5.368   1.916   0.106  0.1614 -0.3595  0.1477
 1062PF6-    F315190   5.263   1.633   0.012  0.3092 -0.1964 -0.0254
 1062PF6-    F415191   5.458   1.732   0.019 -0.6833  0.1600  0.0853
 1062PF6-    F515192   5.162   1.818   0.105  0.5382  0.2132  0.5205
 1062PF6-    F615193   5.289   1.840  -0.091 -0.3789 -0.3571 -0.7696
 1062PF6-    F715194   5.339   1.719   0.205  0.2250  0.1907 -0.5955
 1063PF6-    P115195   4.717   1.967   3.459  0.2611  0.2258 -0.4051
 1063PF6-    F215196   4.614   1.916   3.349  0.1421 -0.2333  0.4399
 1063PF6-    F315197   4.822   2.012   3.567 -0.2076 -0.0085 -0.2832
 1063PF6-    F415198   4.609   2.064   3.523 -0.0709  0.0710  0.1036
 1063PF6-    F515199   4.821   1.849   3.403  0.0718 -0.2233 -0.1352
 1063PF6-    F615200   4.769   2.076   3.351 -0.1116  0.6915 -0.0825
 1063PF6-    F715201   4.658   1.856   3.560  0.0433  0.1346 -0.4102
 1064PF6-    P115202   4.804   2.810   2.695 -0.0329  0.2083 -0.0895
 1064PF6-    F215203   4.910   2.709   2.760 -0.0727  0.0568  0.0818
 1064PF6-    F315204   4.701   2.909   2.629 -0.4211  0.0102 -0.1175
 1064PF6-    F415205   4.802   2.900   2.825  0.4283  0.5251  0.5506
 1064PF6-    F515206   4.806   2.728   2.562  0.3485  0.0835 -0.0493
 1064PF6-    F615207   4.679   2.724   2.740 -0.5362  0.2781  0.3629
 1064PF6-    F715208   4.927   2.899   2.637  0.2575 -0.0982 -0.3964
 1065PF6-    P115209   2.332   1.851   4.262 -0.1173 -0.2243 -0.1517
 1065PF6-    F215210   2.462   1.778   4.205 -0.5420 -0.3038 -0.5402
 1065PF6-    F315211   2.206   1.932   4.315  0.5551  0.2823  0.0610
 1065PF6-    F415212   2.417   1.894   4.392 -0.0173  0.3635 -0.1787
 1065PF6-    F515213   2.250   1.811   4.131 -0.0218 -0.5881  0.1430
 1065PF6-    F615214   2.287   1.716   4.344  0.3715 -0.0301  0.0797
 1065PF6-    F715215   2.379   1.984   4.184 -0.0937 -0.6161 -0.0748
 1066PF6-    P115216   1.241   2.887   1.343 -0.3263 -0.1337 -0.4311
 1066PF6-    F215217   1.355   2.985   1.297  0.0928  0.1773 -0.4444
 1066PF6-    F315218   1.128   2.781   1.383  0.2266  0.5681 -0.5714
 1066PF6-    F415219   1.219   2.854   1.188  0.1132  0.0612 -0.1026
 1066PF6-    F515220   1.271   2.938   1.495 -0.3718  0.1757 -0.2838
 1066PF6-    F615221   1.133   3.008   1.324  0.0805  0.0655 -0.1156
 1066PF6-    F715222   1.350   2.771   1.358 -0.1961 -0.8683 -0.8028
 1067PF6-    P115223   2.644   1.138   4.434 -0.3685  0.3391  0.1293
 1067PF6-    F215224   2.754   1.260   4.450  0.2603 -0.4355  0.8118
 1067PF6-    F315225   2.542   1.020   4.414 -0.6251  0.1193 -0.4055
 1067PF6-    F415226   2.633   1.170   4.277  0.3590  0.3451  0.5053
 1067PF6-    F515227   2.653   1.119   4.595  0.2000 -0.3321 -0.4881
 1067PF6-    F615228   2.528   1.244   4.460  0.3406 -0.1166 -0.4721
 1067PF6-    F715229   2.761   1.031   4.401  0.0864  0.5604 -0.1928
 1068PF6-    P115230   4.180   4.832   4.762  0.2849  0.6102 -0.4742
 1068PF6-    F215231   4.339   4.826   4.766 -0.3348 -0.0866  0.2042
 1068PF6-    F315232   4.022   4.842   4.773  0.1161 -0.0800  0.5045
 1068PF6-    F415233   4.173   4.805   4.605  0.1407  0.1576 -0.4435
 1068PF6-    F515234   4.188   4.863   4.917  0.0623  0.0224  0.3804
 1068PF6-    F615235   4.188   4.983   4.732  0.1725  0.2453  0.0811
 1068PF6-    F715236   4.172   4.673   4.800 -0.3026 -0.6975 -0.1930
 1069PF6-    P115237   2.652   2.862   0.627 -0.2993  0.1417 -0.0728
 1069PF6-    F215238   2.749   2.799   0.512 -0.1625  0.2669 -0.1480
 1069PF6-    F315239   2.556   2.930   0.735  0.2996  0.6651  0.5741
 1069PF6-    F415240   2.664   2.726   0.719 -0.1350  0.3276  0.0063
 1069PF6-    F515241   2.631   2.992   0.541 -0.8223 -0.2405  0.0210
 1069PF6-    F615242   2.527   2.792   0.559 -0.1893 -0.4438  0.4484
 1069PF6-    F715243   2.779   2.925   0.698 -0.1998  0.1146 -0.1398
 1070PF6-    P115244   4.551   1.354   4.227 -0.3026  0.3523  0.2054
 1070PF6-    F215245   4.598   1.257   4.105  0.2292  0.3126 -0.1501
 1070PF6-    F315246   4.511   1.446   4.345 -0.7408  0.3012 -0.4132
 1070PF6-    F415247   4.398   1.305   4.203 -0.6027  0.2587  0.4662
 1070PF6-    F515248   4.701   1.397   4.245  0.3235  0.5112 -0.7991
 1070PF6-    F615249   4.531   1.474   4.124  0.2750 -0.1520 -0.1676
 1070PF6-    F715250   4.574   1.227   4.327  0.4833  0.2817  0.7915
 1071Na+     N115251   4.693   0.702   5.219  0.4323  0.1324  0.2693
 1072Na+     N115252   0.639   2.501   4.266 -0.1272  0.3886 -0.2261
 1073Na+     N115253   4.225   1.370   3.570  0.1202  0.0722 -0.3235
 1074Na+     N115254   4.814   3.101   0.568  0.1914  0.0403 -0.0582
 1075Na+     N115255   0.456   2.187   2.142  0.2745 -0.1460  0.3882
 1076Na+     N115256   0.815   3.367   4.204 -0.1464 -0.3729 -0.0202
 1077Na+     N115257   5.402   3.327   4.962  0.1479 -0.2282 -0.3392
 1078Na+     N115258   2.252   4.988   2.406 -0.0887  0.5574 -0.2617
 1079Na+     N115259   2.261   4.156   4.003 -0.0098 -0.0719  0.0703
 1080Na+     N115260   4.805   0.240   3.446 -0.3944 -0.4044  0.0189
 1081Na+     N115261   1.203   3.062   1.768 -0.1763 -0.3700  0.3020
 1082Na+     N115262   4.057   2.683   1.676 -0.2749  0.1410 -0.1662
 1083Na+     N115263   2.354   3.081   0.852  0.0871 -0.4100  1.1975
 1084Na+     N115264   2.763   1.514   3.713 -0.0466 -0.3740  0.1435
 1085Na+     N115265   2.633   4.343   1.401  0.5746  0.0649  0.1409
 1086Na+     N115266   4.668   4.729   4.154  0.1356 -0.0945 -0.4948
 1087Na+     N115267   3.780   5.403   5.048  0.1501 -0.0298 -0.1101
 1088Na+     N115268   2.831   2.199   4.710  0.4124 -0.1519 -0.1680
 1089Na+     N115269   5.468   1.844   4.877  0.6622 -0.0911 -0.1173
 1090Na+     N115270   4.949   5.449   4.045 -0.6326 -0.2779 -0.9377
 1091Na+     N115271   0.852   5.150   3.735 -0.1549  0.0683 -0.1170
 1092Na+     N115272   2.813   1.394   4.662 -0.1966  0.1814 -0.6662
 1093Na+     N115273   2.418   2.270   0.905 -0.1941 -0.5750  0.0869
 1094Na+     N115274   4.719   3.454   1.584  0.1999  0.2075  0.2360
 1095Na+     N115275   4.432   0.541   1.462  0.0275 -0.4152  0.0054
 1096Na+     N115276   5.409   5.353   2.230 -0.5412 -0.3402 -0.1728
 1097Na+     N115277   3.289   4.815   3.814 -0.2278  0.3427 -0.0622
 1098Na+     N115278   4.290   1.493   5.448 -0.3022 -0.2398  0.0405
 1099Na+     N115279   1.791   1.154   1.685 -0.4576 -0.2777  0.0285
 1100Na+     N115280   4.037   1.739   4.726  0.1689 -0.5884  0.0238
 1101Na+     N115281   4.628   2.929   4.907  0.1661 -0.4539 -0.0831
 1102Na+     N115282   4.843   5.220   4.686 -0.1766 -0.0224  0.2360
 1103Na+     N115283   2.711   1.793   1.649 -0.6387  0.1325 -0.1577
 1104Na+     N115284   0.131   4.730   0.485 -0.1508 -0.4379 -0.1497
 1105Na+     N115285   0.364   0.837   1.707 -0.2222  0.8366  0.0732
 1106Na+     N115286   1.638   3.885   2.550  0.3721  0.2537 -0.2511
 1107Na+     N115287   4.545   0.622   4.384 -0.4681  0.1741 -0.0346
 1108Na+     N115288   0.299   5.152   3.719 -0.1508 -0.2151 -0.7158
 1109Na+     N115289   4.932   1.474   4.266 -0.0996  0.2311 -0.3836
 1110Na+     N115290   5.447   1.474   2.355 -0.2684 -0.4035  0.1328
 1111Na+     N115291   3.605   0.289   2.026 -0.5239 -0.2055  0.4496
 1112Na+     N115292   5.330   4.128   4.666  0.0830  0.2500 -0.2171
 1113Na+     N115293   1.864   0.861   5.206 -0.1195  0.2259 -0.4337
 1114Na+     N115294   2.177   0.049   1.151  0.3905 -0.1423  0.1085
 1115Na+     N115295   3.752   0.197   3.429 -0.2181 -0.4296 -0.1170
 1116Na+     N115296   4.904   2.033   0.256  0.3899  0.3074 -0.2328
 1117Na+     N115297   1.407   3.130   3.756 -0.1374 -0.0655  0.3327
 1118Na+     N115298   0.730   4.773   1.491  0.1939 -0.0920  0.0484
 1119Na+     N115299   2.766   1.574   0.243 -0.4330 -0.0106 -0.3066
 1120Na+     N115300   4.478   2.376   2.540 -0.3994 -0.0900  0.1071
 1121Na+     N115301   3.616   1.146   3.054 -0.4945 -0.6174  0.4524
 1122Na+     N115302   3.735   4.256   4.095 -0.5289  0.4993  0.0411
 1123Na+     N115303   5.244   2.710   2.101  0.1128  0.0478  0.1640
 1124Na+     N115304   1.699   0.303   2.511 -0.1085  0.4809 -0.0321
 1125Na+     N115305   3.169   4.438   2.608  0.3522  0.4028  0.3611
 1126Na+     N115306   2.031   1.024   3.308 -0.2479  0.3098  0.4039
 1127Na+     N115307   2.074   5.125   3.153  0.0332  0.1008 -0.2128
 1128Na+     N115308   3.177   3.045   5.000 -0.0360  0.3044 -0.2539
 1129Na+     N115309   0.379   3.466   1.818  0.1515 -0.3225 -0.1772
 1130Na+     N115310   3.764   5.197   1.283  0.4825  0.7390  0.2633
 1131Na+     N115311   5.132   1.126   1.350 -0.1478 -0.2695 -0.6571
 1132Na+     N115312   1.245   1.021   3.868  0.1794  0.1261 -0.4718
 1133Na+     N115313   2.058   2.020   3.647  0.2000  0.1433  0.2989
 1134Na+     N115314   2.920   2.865   0.313  0.0288 -0.1761  0.2684
 1135Na+     N115315   1.211   2.206   1.004 -0.1596 -0.2102 -0.3931
 1136Na+     N115316   5.466   3.157   2.661  0.2421  0.0636 -0.3768
 1137Na+     N115317   5.149   0.017   0.865 -0.1550 -0.4051  0.2725
 1138Na+     N115318   4.797   0.590   2.478 -0.0914 -0.4650  0.7841
 1139Na+     N115319   1.421   2.037   2.859  0.0677  0.4191  0.0381
 1140Na+     N115320   0.772   1.891   5.466  0.5569 -0.3818  0.2063
 1141Na+     N115321   0.646   1.276   2.869 -0.1848 -0.2225  0.3104
 1142Na+     N115322   0.155   3.541   3.760 -0.4657  0.3081  0.2741
 1143Na+     N115323   1.320   4.251   3.580  0.3476  0.1161 -0.1590
 1144Na+     N115324   0.082   0.496   3.419  0.1557 -0.0784  0.6076
 1145Na+     N115325   3.672   3.391   1.821 -0.0223  0.5567  0.1727
 1146Na+     N115326   2.267   4.437   3.256 -0.4065 -0.1212  0.5817
 1147Na+     N115327   3.670   2.541   4.237 -0.0331 -0.2478 -0.0302
 1148Na+     N115328   5.395   2.382   3.922 -0.1988 -0.0370 -0.1423
 1149Na+     N115329   0.319   4.874   4.766 -0.0615 -0.5811 -0.2160
 1150Na+     N115330   4.300   1.946   4.044  0.1110 -0.6073  0.0852
 1151Na+     N115331   0.043   3.900   2.277  0.0509 -0.1138 -0.4674
 1152Na+     N115332   3.601   2.791   3.027  0.4723  0.3487  0.0089
 1153Na+     N115333   0.568   3.537   0.243 -0.0163  0.0177  0.0010
 1154Na+     N115334   3.369   1.200   4.180  0.1730  0.2474  0.3559
 1155Na+     N115335   3.959   3.424   3.782 -0.3317  0.1071  0.0805
 1156Na+     N115336   0.420   4.264   4.084  0.0340  0.3492 -0.1342
 1157Na+     N115337   0.305   1.111   0.060 -0.3437 -0.2078 -0.2654
 1158Na+     N115338   4.250   2.419   3.160 -0.1982  0.0271 -0.6423
 1159Na+     N115339   0.570   4.398   2.590  0.2267 -0.0649  0.2973
 1160Na+     N115340   2.132   1.370   0.846 -0.1341  0.0162 -0.1526
 1161Na+     N115341   0.164   2.491   5.456  0.6488 -0.2952 -0.1159
 1162Na+     N115342   3.393   4.047   4.846  0.2714  0.2268  0.2176
 1163Na+     N115343   4.152   3.627   4.485  0.3372 -0.6340 -0.1220
 1164Na+     N115344   3.869   2.608   0.559  0.1060 -0.2121 -0.1695
 1165Na+     N115345   0.582   2.945   0.977 -0.1902 -0.0457  0.7216
 1166Na+     N115346   1.510   1.926   1.911  0.6044 -0.1102 -0.1876
 1167Na+     N115347   1.218   5.482   1.016 -0.4052  0.0334 -0.0970
 1168Na+     N115348   1.690   1.566   4.547 -0.1318  0.3082  0.1091
 1169Na+     N115349   4.813   2.462   1.097  0.0534  0.4990  0.0732
 1170Na+     N115350   3.514   1.260   0.923 -0.3483  0.4318 -0.1474
   5.49792   5.49792   5.49792
