DG-THF-PF6-Na    Amber RESP
15350
    1DG      C1    1   5.475   1.082   2.034 -0.0569  0.6402  0.7148
    1DG      C2    2   5.753   1.122   1.653  0.8824  0.2190  0.4233
    1DG      H3    3   5.560   1.079   1.958  2.6736 -2.0309  0.2676
    1DG      H4    4   5.521   1.019   2.116  1.5322  0.0237 -1.3279
    1DG      H5    5   5.442   1.185   2.066  0.1381  0.7045  2.8395
    1DG      H6    6   5.818   1.095   1.560 -0.4585 -2.1237 -2.6399
    1DG      H7    7   5.733   1.231   1.661  1.6438  1.1846  0.5348
    1DG      H8    8   5.808   1.120   1.751 -2.7985  1.8724  1.3473
    1DG      O9    9   5.355   1.011   1.990 -0.5861  0.2183  0.3853
    1DG     O10   10   5.643   1.035   1.667  0.1184 -0.2192  0.1188
    1DG     C11   11   5.356   0.869   2.010 -1.2341  0.4581 -0.4040
    1DG     C12   12   5.689   0.897   1.684 -0.0140  0.2479  0.7996
    1DG     H13   13   5.259   0.824   1.999 -0.1128  2.6682  1.6271
    1DG     H14   14   5.383   0.849   2.112  0.0292 -2.1001  0.6514
    1DG     H15   15   5.747   0.885   1.773 -1.1980 -1.4196  3.5472
    1DG     H16   16   5.761   0.873   1.605 -0.8817 -0.9204 -1.8341
    1DG     C17   17   5.464   0.804   1.914  0.0695  0.2940 -0.2195
    1DG     C18   18   5.560   0.811   1.692  1.1654  0.7351 -0.1316
    1DG     O19   19   5.453   0.855   1.776 -0.4132 -1.3235 -0.2789
    1DG     H20   20   5.468   0.690   1.919  1.2846 -0.3474 -0.2310
    1DG     H21   21   5.558   0.844   1.952  0.5584 -1.8579  1.2422
    1DG     H22   22   5.511   0.806   1.594 -4.8418  1.1612  0.3788
    1DG     H23   23   5.577   0.705   1.706 -0.1511  0.5008 -0.9044
    2DG      C1   24   2.461   2.487   0.389 -0.0109 -0.1148  0.2218
    2DG      C2   25   2.666   2.504  -0.189 -0.0280 -0.0891  0.2643
    2DG      H3   26   2.449   2.467   0.499 -1.9775 -1.6504  0.6896
    2DG      H4   27   2.406   2.574   0.365 -0.0757 -2.2761  2.5601
    2DG      H5   28   2.566   2.500   0.376 -3.0243  3.7725 -0.1568
    2DG      H6   29   2.676   2.488  -0.296 -0.9688 -0.8582  1.5786
    2DG      H7   30   2.612   2.594  -0.195 -2.0104  0.4627  1.1232
    2DG      H8   31   2.765   2.516  -0.130  0.2710  1.8769  0.5974
    2DG      O9   32   2.406   2.393   0.304  0.0558 -0.3512  0.7437
    2DG     O10   33   2.584   2.404  -0.127 -1.0515  0.0769  0.3728
    2DG     C11   34   2.458   2.261   0.322  1.2085 -0.1675  0.1721
    2DG     C12   35   2.661   2.283  -0.103  0.4101  0.0590 -0.3671
    2DG     H13   36   2.379   2.196   0.300 -1.6862  3.2668  1.3807
    2DG     H14   37   2.471   2.247   0.430 -0.9601  0.0344  1.7164
    2DG     H15   38   2.737   2.274  -0.176 -1.6948  2.6328  1.2829
    2DG     H16   39   2.603   2.198  -0.116  0.9172 -0.3060  0.4509
    2DG     C17   40   2.592   2.242   0.252 -0.1910 -0.0602  0.5370
    2DG     C18   41   2.709   2.283   0.046  0.2890  0.1326  0.4104
    2DG     O19   42   2.586   2.282   0.114  0.9039 -0.0424 -0.7908
    2DG     H20   43   2.627   2.142   0.264 -1.0124  0.9069  2.0690
    2DG     H21   44   2.665   2.309   0.299  0.3738  3.2923 -0.0233
    2DG     H22   45   2.765   2.189   0.065  0.9724 -0.1965  2.3944
    2DG     H23   46   2.780   2.370   0.069  1.0858  0.8062 -0.1129
    3DG      C1   47   0.394   1.352   3.049 -0.0487  0.2191  0.1285
    3DG      C2   48   0.937   1.399   2.565 -0.6442  0.4646  0.0470
    3DG      H3   49   0.462   1.405   3.110  3.4659  2.4216 -1.7335
    3DG      H4   50   0.395   1.239   3.059 -4.0044  1.1783 -1.9338
    3DG      H5   51   0.288   1.379   3.061  1.2089 -1.6847 -1.1284
    3DG      H6   52   0.938   1.291   2.576 -0.7642 -0.9496 -0.9418
    3DG      H7   53   0.979   1.420   2.468 -1.9251  1.2160 -1.2001
    3DG      H8   54   1.009   1.456   2.625  0.3690  0.4594 -3.1770
    3DG      O9   55   0.416   1.375   2.908 -0.6217  0.2642  0.1765
    3DG     O10   56   0.814   1.453   2.587  0.5738  0.0971  0.1731
    3DG     C11   57   0.426   1.511   2.880  0.6451 -0.2098 -0.4454
    3DG     C12   58   0.715   1.408   2.505 -0.2357 -0.4580 -0.5811
    3DG     H13   59   0.518   1.557   2.921  0.4306  0.6091  0.4136
    3DG     H14   60   0.341   1.565   2.905 -1.7843  0.1260 -0.9025
    3DG     H15   61   0.709   1.297   2.528 -1.9002 -0.9379 -0.7658
    3DG     H16   62   0.736   1.431   2.401  1.4438 -0.0226 -0.5747
    3DG     C17   63   0.433   1.522   2.730 -0.0170  0.4230 -0.7616
    3DG     C18   64   0.586   1.482   2.542 -0.5070  0.0103 -0.1507
    3DG     O19   65   0.557   1.464   2.680  0.0228 -0.2579  0.6757
    3DG     H20   66   0.436   1.626   2.706 -0.0887 -1.9691  0.7722
    3DG     H21   67   0.350   1.472   2.685 -0.1478 -0.9371  0.4336
    3DG     H22   68   0.594   1.587   2.525 -0.0300 -1.7922 -0.7083
    3DG     H23   69   0.512   1.452   2.460 -1.7021 -0.2408  3.3479
    4DG      C1   70   3.034   4.217   3.028 -0.0513  0.0193  0.5692
    4DG      C2   71   2.882   4.775   2.644 -0.3156  0.5987 -0.1252
    4DG      H3   72   3.104   4.169   3.089 -2.8252  0.5248 -1.3511
    4DG      H4   73   2.971   4.137   2.991 -1.6815  1.7287 -0.2665
    4DG      H5   74   2.973   4.288   3.088 -3.0539  1.0176  1.2965
    4DG      H6   75   2.789   4.722   2.639 -2.2009  1.6431  1.6982
    4DG      H7   76   2.861   4.855   2.714  1.0304  0.2512  1.3644
    4DG      H8   77   2.890   4.821   2.539 -2.3935 -0.0228  1.0182
    4DG      O9   78   3.101   4.293   2.922 -0.5020 -0.1161 -0.2444
    4DG     O10   79   2.978   4.682   2.681 -0.4188 -0.4122 -0.1585
    4DG     C11   80   3.211   4.375   2.976 -0.2510  0.3934  0.1428
    4DG     C12   81   3.102   4.749   2.717 -1.2280  0.1816  0.7663
    4DG     H13   82   3.286   4.303   2.995 -1.2100 -0.7608  1.0264
    4DG     H14   83   3.190   4.433   3.063  0.4709 -0.1389  0.8491
    4DG     H15   84   3.080   4.810   2.808 -1.7335  0.8203 -0.8615
    4DG     H16   85   3.124   4.833   2.648 -0.7062  0.1573 -1.0383
    4DG     C17   86   3.259   4.452   2.851  0.3207 -0.1949  0.8035
    4DG     C18   87   3.208   4.641   2.722 -0.1103 -0.8307  0.3424
    4DG     O19   88   3.176   4.561   2.834 -0.5617  0.4080 -0.2462
    4DG     H20   89   3.257   4.403   2.757  1.5716 -0.4857  1.6307
    4DG     H21   90   3.361   4.497   2.880  1.4266 -0.6934  1.4073
    4DG     H22   91   3.221   4.579   2.632 -0.1608 -3.7864 -0.9772
    4DG     H23   92   3.313   4.685   2.737  2.8411  2.7473 -0.3539
    5DG      C1   93   5.053   4.724   1.301 -0.1839  0.0059 -0.2499
    5DG      C2   94   4.817   5.543   1.141  0.5569  0.3051  0.0791
    5DG      H3   95   5.019   4.651   1.229  1.9317 -0.9049 -0.4365
    5DG      H4   96   5.002   4.715   1.394 -0.3295 -1.3721 -2.2511
    5DG      H5   97   5.162   4.706   1.307  1.0380  0.6592 -1.4349
    5DG      H6   98   4.810   5.628   1.069 -0.2074  0.6035 -0.4555
    5DG      H7   99   4.749   5.565   1.228 -0.4711  0.3445  4.0211
    5DG      H8  100   4.928   5.545   1.167  1.9601 -0.8697  0.4302
    5DG      O9  101   5.031   4.850   1.237 -0.1167  0.0537 -0.5237
    5DG     O10  102   4.777   5.419   1.078 -0.1056  0.3331 -0.1532
    5DG     C11  103   5.075   4.958   1.317 -0.1121 -0.8426  0.6883
    5DG     C12  104   4.802   5.303   1.157  0.3588  0.0034  0.1588
    5DG     H13  105   5.175   4.942   1.350  1.0319  2.6609  1.0785
    5DG     H14  106   5.012   4.977   1.402 -0.8292  2.1398  0.3253
    5DG     H15  107   4.737   5.233   1.124  2.5527  2.9851 -1.7388
    5DG     H16  108   4.770   5.322   1.261  0.6876  0.7116  1.1241
    5DG     C17  109   5.081   5.090   1.246  0.3809  0.0304 -0.3804
    5DG     C18  110   4.947   5.262   1.162  0.7779 -0.1546  0.0922
    5DG     O19  111   4.950   5.138   1.234  0.3449 -0.1330  0.4215
    5DG     H20  112   5.135   5.080   1.149  2.6379 -0.1408 -1.8607
    5DG     H21  113   5.140   5.150   1.317 -2.4018  0.5514  1.3855
    5DG     H22  114   4.966   5.248   1.056 -0.7549  2.2725 -0.0034
    5DG     H23  115   5.007   5.336   1.207 -1.3815 -0.0257  0.4520
    6DG      C1  116   1.541   0.941   2.374  0.1336  0.2139  0.5369
    6DG      C2  117   1.863   0.791   1.713 -0.5660  0.1719 -0.2353
    6DG      H3  118   1.556   1.010   2.447 -0.9609  1.2895 -1.7697
    6DG      H4  119   1.527   0.842   2.419  0.2663  3.3666  2.2209
    6DG      H5  120   1.447   0.957   2.317  1.6817  4.1278  1.6339
    6DG      H6  121   1.772   0.774   1.655 -0.9394 -0.5035  0.4323
    6DG      H7  122   1.915   0.872   1.664  0.5054 -1.9003  0.6084
    6DG      H8  123   1.920   0.701   1.705 -1.6176 -0.5165  0.0125
    6DG      O9  124   1.654   0.950   2.291  0.6356 -0.3934  0.2351
    6DG     O10  125   1.845   0.819   1.851  0.1900  0.1614 -0.3552
    6DG     C11  126   1.674   1.077   2.236  0.5743  0.3543 -0.0655
    6DG     C12  127   1.965   0.844   1.924 -0.3670 -0.4578 -0.5414
    6DG     H13  128   1.666   1.153   2.313 -0.2466  2.6148  1.6058
    6DG     H14  129   1.602   1.097   2.157 -0.1060  0.5770 -1.2950
    6DG     H15  130   2.053   0.851   1.867 -0.9923 -0.8276 -2.5924
    6DG     H16  131   1.975   0.776   2.009 -1.5589 -0.1823  3.6037
    6DG     C17  132   1.811   1.090   2.166  0.2095  0.6167  0.5791
    6DG     C18  133   1.939   0.979   1.989 -0.6053 -0.2635  0.2723
    6DG     O19  134   1.815   0.992   2.063  0.0240  0.4850  0.1965
    6DG     H20  135   1.896   1.067   2.236 -0.4215 -1.9489  1.1512
    6DG     H21  136   1.815   1.194   2.130 -1.0364  3.5494 -1.0581
    6DG     H22  137   2.024   1.010   2.041 -3.0156 -0.5259  0.2564
    6DG     H23  138   1.915   1.059   1.914 -1.0577 -0.3270  4.7563
    7DG      C1  139   3.733   0.197   3.554 -0.6004  0.5088  0.4653
    7DG      C2  140   4.340   0.500   3.684  0.5918  0.1898 -0.4110
    7DG      H3  141   3.678   0.281   3.588  0.6931 -2.8257  1.0506
    7DG      H4  142   3.755   0.128   3.643  0.6442  2.8248  0.3973
    7DG      H5  143   3.669   0.141   3.487  3.1270 -0.4701  0.6040
    7DG      H6  144   4.287   0.602   3.683 -0.2264  0.3271  2.3792
    7DG      H7  145   4.318   0.467   3.785  1.2690  1.6880 -2.8053
    7DG      H8  146   4.447   0.504   3.661 -1.3786 -2.2067 -1.7630
    7DG      O9  147   3.859   0.243   3.498 -0.7453 -0.1212 -0.2130
    7DG     O10  148   4.265   0.412   3.603  0.1872 -0.7023 -0.8975
    7DG     C11  149   3.852   0.315   3.379 -0.1877  0.2858  0.3207
    7DG     C12  150   4.304   0.434   3.471  0.3187 -0.3694  0.2196
    7DG     H13  151   3.827   0.421   3.393  0.7771  2.3705 -3.6510
    7DG     H14  152   3.779   0.270   3.304 -1.3254 -0.7698  0.1391
    7DG     H15  153   4.406   0.404   3.449  0.5035 -0.1306  1.6808
    7DG     H16  154   4.304   0.539   3.440  2.0109  2.1343  0.3993
    7DG     C17  155   3.994   0.309   3.314  0.5308  0.5424  0.3360
    7DG     C18  156   4.217   0.370   3.372 -0.3127 -0.2604  0.0385
    7DG     O19  157   4.079   0.389   3.399  0.0247 -0.7842 -0.0325
    7DG     H20  158   3.981   0.349   3.210  1.4307  1.5097 -0.6501
    7DG     H21  159   4.036   0.208   3.304  1.2432 -3.1520 -0.7753
    7DG     H22  160   4.249   0.391   3.267  1.3358  0.6393 -1.0703
    7DG     H23  161   4.229   0.262   3.384 -2.8587 -1.0824 -3.5261
    8DG      C1  162   3.477   0.594   2.623  0.4041  0.2241 -0.0755
    8DG      C2  163   3.120   1.164   2.524  0.0626  0.1277  0.9519
    8DG      H3  164   3.415   0.522   2.684 -0.5642  0.5875 -1.8516
    8DG      H4  165   3.539   0.653   2.692  1.0399 -1.5685 -1.1207
    8DG      H5  166   3.554   0.534   2.565 -1.0889 -0.7402  0.7273
    8DG      H6  167   3.100   1.262   2.492  0.3366 -1.0956  0.8416
    8DG      H7  168   3.028   1.132   2.576 -0.7828 -0.0551 -0.5634
    8DG      H8  169   3.196   1.176   2.604 -1.0883  1.4519 -1.2711
    8DG      O9  170   3.404   0.685   2.543  0.2009  0.6734  0.7306
    8DG     O10  171   3.171   1.069   2.426 -0.1134 -0.9651 -0.2298
    8DG     C11  172   3.305   0.625   2.461 -0.0255 -0.0340  0.2021
    8DG     C12  173   3.077   1.024   2.335  0.1629 -0.0123  0.1401
    8DG     H13  174   3.225   0.586   2.524  0.5790 -0.1848 -1.6753
    8DG     H14  175   3.340   0.533   2.423 -0.4841 -1.2718 -1.1096
    8DG     H15  176   3.064   1.096   2.255 -1.8291 -0.2534  0.1446
    8DG     H16  177   2.978   1.027   2.379 -1.4817  0.3639  3.9519
    8DG     C17  178   3.249   0.706   2.339 -0.3391 -0.5425 -0.2622
    8DG     C18  179   3.135   0.894   2.281 -0.2636 -0.3444  0.3545
    8DG     O19  180   3.190   0.825   2.387  0.0320 -0.2151 -0.2390
    8DG     H20  181   3.178   0.637   2.287  0.3492  0.0377  1.1320
    8DG     H21  182   3.334   0.720   2.274 -0.7067  0.9214 -2.2690
    8DG     H22  183   3.059   0.834   2.229  1.2089  1.0943 -0.1860
    8DG     H23  184   3.217   0.911   2.208  3.5084 -0.6558 -0.5337
    9DG      C1  185   1.113   0.423   4.478 -0.1128 -0.1982  0.8628
    9DG      C2  186   0.633   0.469   4.057  0.0187 -0.0111 -0.3607
    9DG      H3  187   1.110   0.453   4.585 -0.7771 -1.8112 -0.6604
    9DG      H4  188   1.135   0.503   4.405  1.2583 -0.2935  0.6083
    9DG      H5  189   1.189   0.352   4.451 -3.2779 -2.4274 -1.1360
    9DG      H6  190   0.609   0.560   4.102 -1.9749 -0.8999 -0.1249
    9DG      H7  191   0.718   0.488   3.996  0.1088 -2.3583 -0.2232
    9DG      H8  192   0.546   0.441   3.999 -1.6379 -0.4108  1.2642
    9DG      O9  193   0.985   0.373   4.438 -0.1821 -0.2534  1.0012
    9DG     O10  194   0.677   0.364   4.148  0.7016  0.0056  0.1250
    9DG     C11  195   0.941   0.282   4.540 -0.4851  0.4577 -0.2143
    9DG     C12  196   0.582   0.318   4.240 -0.2955 -0.4834  0.2285
    9DG     H13  197   0.905   0.336   4.628  0.1053 -0.8045 -0.7031
    9DG     H14  198   1.011   0.211   4.579  0.0928  0.4776 -0.7725
    9DG     H15  199   0.486   0.277   4.196 -1.4128  0.5817  0.3459
    9DG     H16  200   0.546   0.403   4.296 -0.1550  1.1131  1.3567
    9DG     C17  201   0.821   0.209   4.482  0.0061  0.5429  0.4533
    9DG     C18  202   0.632   0.228   4.355  0.3380 -0.1874 -0.2414
    9DG     O19  203   0.742   0.302   4.404 -0.3771  0.0613 -0.3723
    9DG     H20  204   0.769   0.160   4.562  1.2626  0.0308  2.8433
    9DG     H21  205   0.863   0.129   4.429  1.7845  2.7989  3.4819
    9DG     H22  206   0.554   0.215   4.430  1.4439 -0.9160 -0.1196
    9DG     H23  207   0.667   0.127   4.330  0.1492  0.2698  3.0649
   10DG      C1  208   2.473   5.437   2.252  0.7630 -0.0944 -0.1714
   10DG      C2  209   3.264   5.255   1.844 -0.7250  0.1625  0.3097
   10DG      H3  210   2.416   5.490   2.327  1.0459  0.5258  2.3037
   10DG      H4  211   2.406   5.384   2.182 -2.6321  0.5812  0.3803
   10DG      H5  212   2.513   5.523   2.197 -1.1939  2.9519  1.1995
   10DG      H6  213   3.208   5.200   1.766 -1.1155 -1.3563 -1.1952
   10DG      H7  214   3.348   5.302   1.794 -1.8328 -2.6801 -1.4398
   10DG      H8  215   3.297   5.183   1.910  1.4649  3.0867 -0.0205
   10DG      O9  216   2.576   5.354   2.315  0.5023  0.6122  0.3980
   10DG     O10  217   3.174   5.336   1.909  0.0460 -0.2470 -0.0808
   10DG     C11  218   2.654   5.293   2.216 -0.6741  0.1475 -0.1438
   10DG     C12  219   3.056   5.274   1.962 -0.2741  0.4091  0.1322
   10DG     H13  220   2.592   5.276   2.126 -3.9824  1.4581  0.9757
   10DG     H14  221   2.687   5.201   2.260  1.1465 -0.3261  0.6642
   10DG     H15  222   3.092   5.181   2.012  3.9314 -0.4797 -1.9077
   10DG     H16  223   2.994   5.247   1.875  1.8338 -1.6455  0.4005
   10DG     C17  224   2.777   5.382   2.176 -0.8318 -0.6778 -0.4835
   10DG     C18  225   2.978   5.369   2.061  0.0499  0.0883 -0.2155
   10DG     O19  226   2.857   5.303   2.093  0.2612  0.0688 -0.3797
   10DG     H20  227   2.817   5.424   2.273  4.6420 -0.7271  0.8225
   10DG     H21  228   2.738   5.462   2.113 -0.7565 -1.1529 -0.0714
   10DG     H22  229   3.031   5.391   2.153 -1.0022  1.0194 -0.7712
   10DG     H23  230   2.967   5.469   2.021  0.5748 -2.3198  1.2837
   11DG      C1  231   0.578   3.862   0.846  0.4303  0.1368 -0.0613
   11DG      C2  232   0.418   3.306   0.555  0.3731  0.1679 -0.2546
   11DG      H3  233   0.553   3.958   0.887 -2.4494 -0.9172  0.3869
   11DG      H4  234   0.657   3.874   0.776  0.0007  1.0337  1.0506
   11DG      H5  235   0.625   3.801   0.923 -1.6888  1.1281 -2.4165
   11DG      H6  236   0.459   3.224   0.617 -0.3084 -0.5430  2.2188
   11DG      H7  237   0.349   3.255   0.490 -1.9025 -2.2439 -0.0185
   11DG      H8  238   0.501   3.351   0.504  0.6848  1.7172  1.2618
   11DG      O9  239   0.462   3.798   0.799 -0.4217  0.1667  0.4930
   11DG     O10  240   0.357   3.409   0.628  0.0239 -0.7479 -0.8907
   11DG     C11  241   0.369   3.783   0.905  0.8196 -0.9900 -0.0067
   11DG     C12  242   0.251   3.368   0.711 -0.2077 -0.1102 -0.3372
   11DG     H13  243   0.325   3.880   0.930 -2.2559  0.8806 -0.5845
   11DG     H14  244   0.411   3.736   0.998 -0.7020 -2.8105  1.1024
   11DG     H15  245   0.284   3.299   0.785  0.3114  1.7299  0.8775
   11DG     H16  246   0.172   3.323   0.649  1.1485  1.0067 -2.4264
   11DG     C17  247   0.247   3.704   0.859 -0.3183  0.3528 -0.4571
   11DG     C18  248   0.201   3.494   0.778 -0.8591  0.1265 -0.5643
   11DG     O19  249   0.302   3.582   0.823 -0.0838 -0.2648 -0.7574
   11DG     H20  250   0.201   3.752   0.775  1.2099  1.4539  0.5095
   11DG     H21  251   0.176   3.700   0.939  0.3912  2.6303  2.3792
   11DG     H22  252   0.146   3.544   0.699 -2.9669  3.0956  1.1029
   11DG     H23  253   0.136   3.471   0.861 -0.0979 -0.0947 -0.3457
   12DG      C1  254   1.561   0.981   3.272 -0.1847 -0.6655 -0.0216
   12DG      C2  255   1.134   1.406   3.680 -0.5688  0.2306 -0.0508
   12DG      H3  256   1.536   0.896   3.213  2.5391  0.1218  0.3270
   12DG      H4  257   1.620   0.965   3.360 -0.1142  1.6155  1.3661
   12DG      H5  258   1.625   1.039   3.205  0.6955  0.6820 -3.0168
   12DG      H6  259   1.120   1.515   3.652  0.7014 -1.5697  1.1765
   12DG      H7  260   1.055   1.376   3.747  0.1869  0.6858  0.8294
   12DG      H8  261   1.228   1.404   3.733 -0.4788  1.2636  4.6954
   12DG      O9  262   1.453   1.066   3.304  0.4942 -0.3597  0.0268
   12DG     O10  263   1.154   1.335   3.561  0.1803  0.5545  0.6279
   12DG     C11  264   1.365   1.098   3.193 -0.5857 -0.0615  0.1222
   12DG     C12  265   1.068   1.384   3.458 -0.0401  0.2657 -0.1949
   12DG     H13  266   1.355   1.005   3.135 -2.0243 -2.4688 -0.7678
   12DG     H14  267   1.408   1.172   3.122  0.8249 -2.6153 -0.3552
   12DG     H15  268   1.106   1.478   3.425  1.0464 -1.1266 -2.3888
   12DG     H16  269   0.968   1.404   3.484 -1.0508 -1.2107  1.5315
   12DG     C17  270   1.215   1.127   3.227  0.6058  0.1528 -0.2930
   12DG     C18  271   1.068   1.273   3.355  0.4017  0.1867 -0.2574
   12DG     O19  272   1.201   1.220   3.338  0.0705  0.6741  0.0883
   12DG     H20  273   1.163   1.034   3.254 -2.3368 -2.0322  0.0159
   12DG     H21  274   1.161   1.155   3.135 -0.8361 -1.6413  0.9127
   12DG     H22  275   1.005   1.195   3.405  1.5144  1.5662 -2.2103
   12DG     H23  276   1.026   1.296   3.255 -1.1016  1.6326  1.9739
   13DG      C1  277   5.149   1.503   2.808  0.4509  0.1440  0.1481
   13DG      C2  278   4.889   2.066   2.726  0.3838 -0.8221  0.2625
   13DG      H3  279   5.107   1.415   2.858 -0.9265 -2.2887  0.7227
   13DG      H4  280   5.191   1.567   2.890  2.8971  1.3858  2.1183
   13DG      H5  281   5.230   1.479   2.741 -1.0981  1.1073  2.2357
   13DG      H6  282   4.994   2.064   2.744  0.6527 -0.7394  0.8881
   13DG      H7  283   4.876   2.124   2.636 -0.2172 -2.4743  2.2890
   13DG      H8  284   4.830   2.111   2.807 -0.3396 -1.7809 -1.1161
   13DG      O9  285   5.041   1.580   2.751  0.3642  0.8328  0.1310
   13DG     O10  286   4.844   1.931   2.716 -0.1589 -0.3628 -0.1071
   13DG     C11  287   4.979   1.518   2.643  0.3644  0.0209  0.1135
   13DG     C12  288   4.721   1.913   2.662 -0.0833  0.0788 -0.4516
   13DG     H13  289   4.994   1.414   2.650 -0.9801  0.2269 -1.0725
   13DG     H14  290   5.025   1.541   2.543  0.3305  1.7486 -0.8068
   13DG     H15  291   4.705   1.957   2.562  1.0997 -0.4614  0.3839
   13DG     H16  292   4.651   1.952   2.737  1.0816  0.2080  2.3866
   13DG     C17  293   4.832   1.563   2.632  0.1126 -0.3722  0.4348
   13DG     C18  294   4.707   1.760   2.662 -0.2431  0.1495  0.0816
   13DG     O19  295   4.832   1.703   2.615 -0.6769 -0.1529 -0.6352
   13DG     H20  296   4.793   1.529   2.726 -1.1003 -0.6194 -1.5097
   13DG     H21  297   4.778   1.505   2.554 -2.4632 -2.6517  1.8200
   13DG     H22  298   4.675   1.721   2.755  0.8970 -0.8113 -0.5683
   13DG     H23  299   4.631   1.732   2.593  0.6800 -2.2427 -2.6147
   14DG      C1  300   4.601   4.843   2.617 -0.2863  0.1848  0.4694
   14DG      C2  301   4.657   4.622   3.406 -0.4535  0.1341  0.6972
   14DG      H3  302   4.676   4.921   2.596  0.1054 -0.2422  0.1239
   14DG      H4  303   4.500   4.883   2.618  3.2029  1.5172 -3.8309
   14DG      H5  304   4.606   4.788   2.523 -2.1115 -0.8940  2.2565
   14DG      H6  305   4.687   4.526   3.361  0.8661  2.1160 -1.4016
   14DG      H7  306   4.744   4.671   3.448  0.6537 -0.1654 -3.3595
   14DG      H8  307   4.588   4.610   3.489 -0.5360 -1.3642  1.1980
   14DG      O9  308   4.614   4.775   2.747 -0.0829  0.6367  0.2695
   14DG     O10  309   4.585   4.699   3.305 -0.4115 -0.2266 -0.8523
   14DG     C11  310   4.532   4.660   2.760  0.4095 -0.3641 -0.2711
   14DG     C12  311   4.675   4.739   3.209 -0.0422 -0.2237  0.0232
   14DG     H13  312   4.581   4.561   2.742 -0.2270  1.6105 -1.2715
   14DG     H14  313   4.449   4.667   2.686  0.9363 -0.8741  1.5802
   14DG     H15  314   4.750   4.668   3.188  0.9425  3.0120  1.2292
   14DG     H16  315   4.728   4.832   3.239  0.3444  2.0709 -1.5442
   14DG     C17  316   4.457   4.660   2.899 -0.0173  0.3817 -0.0013
   14DG     C18  317   4.613   4.764   3.068  0.5942 -0.2984  0.6689
   14DG     O19  318   4.535   4.644   3.020  0.4941  0.0993 -0.1170
   14DG     H20  319   4.386   4.571   2.893  1.0428  1.9307 -2.6773
   14DG     H21  320   4.392   4.747   2.906  3.9500  2.9320  1.6327
   14DG     H22  321   4.546   4.849   3.073  0.4725 -0.8704 -1.4676
   14DG     H23  322   4.694   4.789   3.001 -0.0313  2.2949  0.1146
   15DG      C1  323   2.995   2.729   5.262  0.1325 -0.3481 -0.3789
   15DG      C2  324   3.366   3.155   4.939 -0.2752 -0.3561 -0.7902
   15DG      H3  325   2.964   2.663   5.343  0.8097 -1.4649  1.0510
   15DG      H4  326   2.946   2.705   5.167  0.4384  2.8619  1.9971
   15DG      H5  327   2.972   2.829   5.281  1.9338 -0.6096 -0.0118
   15DG      H6  328   3.350   3.211   5.029 -0.3203 -2.2096  0.9883
   15DG      H7  329   3.470   3.180   4.910 -0.0130  0.2852 -2.9669
   15DG      H8  330   3.303   3.166   4.848  0.5902  0.2833 -0.7068
   15DG      O9  331   3.137   2.735   5.237 -0.2732 -0.3149 -0.4393
   15DG     O10  332   3.373   3.023   4.982  0.5381 -0.4316 -0.3028
   15DG     C11  333   3.206   2.611   5.205  0.5720  0.2926  0.0890
   15DG     C12  334   3.399   2.922   4.895 -0.7958 -0.0981  0.5015
   15DG     H13  335   3.142   2.558   5.144 -1.4679 -1.0849  0.6110
   15DG     H14  336   3.212   2.553   5.292 -0.0860 -1.5555  0.5901
   15DG     H15  337   3.483   2.940   4.825 -1.7537  0.1746  2.9020
   15DG     H16  338   3.313   2.901   4.834  0.9174 -0.0922  0.6332
   15DG     C17  339   3.344   2.653   5.142 -0.3021 -0.1445 -0.1080
   15DG     C18  340   3.434   2.798   4.976 -0.1227 -0.2278 -0.2093
   15DG     O19  341   3.318   2.760   5.049  0.5307  0.3469  0.1042
   15DG     H20  342   3.393   2.571   5.096 -2.0597  1.7019 -3.0428
   15DG     H21  343   3.401   2.692   5.225 -1.1979  1.4479  2.4056
   15DG     H22  344   3.464   2.712   4.912 -0.4614  1.1714 -1.8716
   15DG     H23  345   3.513   2.818   5.045 -1.7398 -1.3955 -0.2439
   16DG      C1  346   0.311   3.278   3.696 -0.0712  0.0589 -0.6988
   16DG      C2  347   0.080   4.021   3.697 -0.5481 -0.5080 -0.5447
   16DG      H3  348   0.270   3.177   3.707 -0.2952 -1.7683 -2.1366
   16DG      H4  349   0.381   3.301   3.776  0.4785  2.0367  1.2863
   16DG      H5  350   0.352   3.298   3.599 -1.1531  1.2077 -0.2461
   16DG      H6  351   0.008   4.071   3.763 -2.0315 -1.1184 -0.0785
   16DG      H7  352   0.174   4.001   3.756  0.0210 -0.1991 -0.1487
   16DG      H8  353   0.111   4.093   3.617 -0.3199 -0.5041 -0.4420
   16DG      O9  354   0.204   3.368   3.717 -0.7746  0.6270 -0.1009
   16DG     O10  355   0.038   3.897   3.652  0.3284  1.0964  0.4710
   16DG     C11  356   0.120   3.386   3.607  0.3037 -0.7258  0.3106
   16DG     C12  357  -0.023   3.814   3.755 -0.1069  0.1707 -0.4652
   16DG     H13  358   0.074   3.286   3.588  0.5784 -0.7243  0.5624
   16DG     H14  359   0.175   3.425   3.528 -0.3589  0.2651  1.6550
   16DG     H15  360  -0.113   3.873   3.789 -1.8353 -0.4790 -3.6771
   16DG     H16  361   0.057   3.795   3.831 -0.7283  2.6353  2.0600
   16DG     C17  362  -0.002   3.464   3.643 -0.2361  0.6704 -0.3646
   16DG     C18  363  -0.073   3.682   3.695  0.0776 -0.3373 -1.0273
   16DG     O19  364   0.038   3.593   3.681 -0.5384 -0.4316  0.1283
   16DG     H20  365  -0.066   3.420   3.720  2.6097  0.1781 -2.7271
   16DG     H21  366  -0.059   3.476   3.554 -1.2694 -1.0289 -0.6357
   16DG     H22  367  -0.155   3.647   3.755  1.6072 -1.2396  2.3114
   16DG     H23  368  -0.128   3.695   3.601  3.7641 -1.3904 -1.0537
   17DG      C1  369   3.048   4.016   4.864 -0.2953 -0.5540  0.0699
   17DG      C2  370   3.595   3.688   5.058 -0.5414 -0.4518 -0.1879
   17DG      H3  371   3.013   4.070   4.774  1.0558  0.8383  0.9748
   17DG      H4  372   3.086   4.095   4.942  1.1633  2.7616 -0.4994
   17DG      H5  373   2.964   3.960   4.902 -0.2315 -1.0269  0.5527
   17DG      H6  374   3.619   3.776   5.122 -0.0827  1.1579 -1.8472
   17DG      H7  375   3.589   3.610   5.125  0.4958  1.0565 -0.6215
   17DG      H8  376   3.693   3.681   5.006  3.5466 -0.3414  0.9694
   17DG      O9  377   3.158   3.941   4.802 -0.0081  0.6388 -0.1614
   17DG     O10  378   3.497   3.704   4.959 -0.3477  0.4178 -0.0665
   17DG     C11  379   3.117   3.848   4.700  0.4979  0.3256 -0.6090
   17DG     C12  380   3.466   3.585   4.892  0.1840 -0.1042 -0.0310
   17DG     H13  381   3.076   3.895   4.612 -2.7458 -2.6461  1.2775
   17DG     H14  382   3.037   3.794   4.738 -2.5236 -0.3301 -0.1158
   17DG     H15  383   3.395   3.525   4.950  0.4613  2.0218 -0.7986
   17DG     H16  384   3.567   3.535   4.879  1.3952  1.3280 -1.4436
   17DG     C17  385   3.227   3.746   4.666  0.7562 -0.1488 -0.6781
   17DG     C18  386   3.406   3.623   4.756  0.2631 -0.4969 -0.7728
   17DG     O19  387   3.303   3.720   4.786 -0.2426  0.1666 -0.7260
   17DG     H20  388   3.281   3.791   4.586 -1.2951  0.4240  0.9160
   17DG     H21  389   3.186   3.655   4.621 -0.8182 -0.0984 -1.7024
   17DG     H22  390   3.480   3.666   4.691  0.4145  1.4373  0.3984
   17DG     H23  391   3.366   3.528   4.721  0.7712  0.9686 -1.2010
   18DG      C1  392   3.684   3.217   5.155  0.2377 -0.0245  0.6321
   18DG      C2  393   4.144   3.565   4.630 -0.3936 -0.1881 -0.7793
   18DG      H3  394   3.626   3.136   5.109 -2.6523 -1.0356 -0.7698
   18DG      H4  395   3.603   3.300   5.168 -2.7382  2.3373  1.0388
   18DG      H5  396   3.727   3.183   5.246 -2.5520 -0.9137 -0.9961
   18DG      H6  397   4.184   3.672   4.628  2.5220 -0.0589 -2.4520
   18DG      H7  398   4.208   3.505   4.696 -1.9987  0.6262  0.0969
   18DG      H8  399   4.143   3.513   4.533 -2.4996 -0.3876 -1.7574
   18DG      O9  400   3.780   3.266   5.067 -0.0549  0.8071  0.2634
   18DG     O10  401   4.009   3.568   4.676  0.1746 -0.6843  0.6719
   18DG     C11  402   3.863   3.356   5.130 -0.1264  0.2537 -0.0655
   18DG     C12  403   3.953   3.441   4.704 -0.3967  1.0560  0.1115
   18DG     H13  404   3.926   3.306   5.203  0.7244 -0.5118  0.5096
   18DG     H14  405   3.804   3.431   5.185  1.1081 -0.3413  1.2316
   18DG     H15  406   4.032   3.372   4.728  0.1938 -1.3892 -2.1876
   18DG     H16  407   3.915   3.405   4.610  0.9389  1.7428 -1.2279
   18DG     C17  408   3.951   3.429   5.028 -0.0848 -0.3298  0.0902
   18DG     C18  409   3.845   3.443   4.817 -0.0948  0.1534  0.5631
   18DG     O19  410   3.876   3.502   4.936  0.3379 -0.1685  0.5604
   18DG     H20  411   4.028   3.361   4.984  0.7473  3.8322 -0.5034
   18DG     H21  412   4.020   3.505   5.078  2.3006  0.4120 -0.9051
   18DG     H22  413   3.752   3.488   4.776  1.1155  4.8547 -0.6990
   18DG     H23  414   3.814   3.341   4.831 -0.1121 -0.8092  1.2175
   19DG      C1  415   1.728   4.837   1.968  1.0334 -0.1172  0.7285
   19DG      C2  416   1.795   5.345   1.555 -0.1843 -0.0696 -0.0197
   19DG      H3  417   1.642   4.787   1.922 -0.5679  1.0085  0.0944
   19DG      H4  418   1.717   4.809   2.078 -0.9698  0.5802  0.6351
   19DG      H5  419   1.822   4.790   1.936  1.2761  1.4999 -2.6152
   19DG      H6  420   1.814   5.449   1.521 -2.9810 -1.4843 -0.6398
   19DG      H7  421   1.878   5.304   1.505 -1.8664  0.1138  3.2807
   19DG      H8  422   1.705   5.310   1.496  1.2565  3.4488 -1.1837
   19DG      O9  423   1.705   4.978   1.946 -0.1234 -0.2399  0.0316
   19DG     O10  424   1.785   5.334   1.698 -0.0094 -0.2163  0.2208
   19DG     C11  425   1.584   5.021   1.998 -0.0875  0.4106  0.5991
   19DG     C12  426   1.657   5.391   1.745  0.3311 -0.7563  0.2530
   19DG     H13  427   1.589   5.026   2.105 -3.1867  0.8465 -0.0697
   19DG     H14  428   1.496   4.955   1.978 -0.5915 -0.3562 -0.8237
   19DG     H15  429   1.573   5.342   1.699 -1.9073  2.2020 -1.0319
   19DG     H16  430   1.650   5.496   1.719 -2.6957 -1.6497 -1.2222
   19DG     C17  431   1.550   5.165   1.959 -0.5917 -0.5958 -0.3234
   19DG     C18  432   1.652   5.372   1.898  0.3077  0.3766  0.4880
   19DG     O19  433   1.670   5.235   1.927 -0.0129 -0.4051 -0.0145
   19DG     H20  434   1.492   5.218   2.031 -0.3875 -1.7237 -0.7969
   19DG     H21  435   1.485   5.163   1.867  0.5521  1.3740 -1.7002
   19DG     H22  436   1.735   5.418   1.944 -3.2953  1.5757  2.8778
   19DG     H23  437   1.556   5.405   1.929 -0.9148 -2.1845  3.4660
   20DG      C1  438   1.812   3.470   3.570  0.5404 -0.7269 -0.1700
   20DG      C2  439   2.032   2.945   3.892  0.4886 -0.1600 -0.6055
   20DG      H3  440   1.777   3.455   3.467  1.3831 -1.1032  0.6302
   20DG      H4  441   1.917   3.509   3.558 -0.2368  1.5549 -0.9137
   20DG      H5  442   1.738   3.548   3.614  0.2162 -1.3049 -1.0850
   20DG      H6  443   2.135   2.971   3.921  0.1582  1.5874 -0.8945
   20DG      H7  444   2.012   2.840   3.909  0.8257  1.5913  1.1744
   20DG      H8  445   2.024   2.975   3.789  2.1373  1.1925  0.8306
   20DG      O9  446   1.805   3.347   3.647 -0.2138 -0.7220 -0.0022
   20DG     O10  447   1.951   3.036   3.965 -0.1532 -0.1727  0.3983
   20DG     C11  448   1.668   3.296   3.649  0.1355  0.2544  0.6965
   20DG     C12  449   1.822   2.979   3.976  0.2803  0.4886 -0.4021
   20DG     H13  450   1.617   3.311   3.555  0.9013 -1.3413  0.2916
   20DG     H14  451   1.621   3.349   3.735 -0.1666  0.9564 -1.8950
   20DG     H15  452   1.767   3.026   4.051  0.4178 -1.7587  0.5011
   20DG     H16  453   1.825   2.872   3.999  1.0795 -1.4446  0.5209
   20DG     C17  454   1.668   3.146   3.685 -0.4108 -0.4662 -0.2132
   20DG     C18  455   1.731   2.997   3.854  0.3643  0.1240  0.1896
   20DG     O19  456   1.725   3.137   3.815 -0.1067 -0.2920  0.2911
   20DG     H20  457   1.725   3.095   3.609  2.6029  0.9258 -1.8473
   20DG     H21  458   1.567   3.105   3.681 -0.1419  0.6214 -0.8965
   20DG     H22  459   1.770   2.926   3.783 -1.3299  1.2521 -0.3951
   20DG     H23  460   1.631   2.971   3.887 -0.4952  0.2434  1.9006
   21DG      C1  461   3.923   4.613   3.879  0.1298 -0.0566  0.4853
   21DG      C2  462   3.663   5.271   3.843 -0.5170  0.3972 -0.3247
   21DG      H3  463   3.974   4.649   3.965 -3.0696  0.1396 -3.0700
   21DG      H4  464   3.977   4.529   3.845  0.7161  1.4790  0.1647
   21DG      H5  465   3.810   4.594   3.895 -1.0878  0.8830  2.8911
   21DG      H6  466   3.586   5.230   3.903  2.0590  1.8421 -0.1695
   21DG      H7  467   3.727   5.312   3.914 -0.0490  0.3109 -1.3793
   21DG      H8  468   3.626   5.344   3.777  1.7185  0.1594  2.6630
   21DG      O9  469   3.922   4.715   3.783 -0.0686  0.1630  0.2192
   21DG     O10  470   3.736   5.167   3.775 -0.1102  0.0789 -0.2642
   21DG     C11  471   4.046   4.783   3.757  0.3200  0.5735  0.0661
   21DG     C12  472   3.845   5.217   3.710  0.6840  0.3794  0.1964
   21DG     H13  473   4.115   4.710   3.719 -1.7553  0.2440  1.2280
   21DG     H14  474   4.092   4.829   3.844 -0.0535 -2.4825 -0.6171
   21DG     H15  475   3.924   5.257   3.770  0.4551  1.5102 -1.5084
   21DG     H16  476   3.820   5.300   3.647  0.3258  2.0068 -0.2302
   21DG     C17  477   4.029   4.895   3.656  0.0141  0.0835  0.4834
   21DG     C18  478   3.907   5.099   3.634  0.0945 -0.0544 -0.1370
   21DG     O19  479   3.938   4.993   3.717 -0.2354 -0.2946 -0.3066
   21DG     H20  480   3.988   4.844   3.563  1.3274 -0.9595 -1.7567
   21DG     H21  481   4.122   4.949   3.634  1.3428  1.6340  0.2893
   21DG     H22  482   3.833   5.054   3.570  0.6134 -0.4362 -0.8510
   21DG     H23  483   3.988   5.142   3.579  0.2129  2.4371 -1.6082
   22DG      C1  484   3.753   2.425   2.005  0.5236  0.4266 -0.3066
   22DG      C2  485   3.309   2.060   1.670 -0.1610 -0.7613 -0.1737
   22DG      H3  486   3.859   2.449   2.039 -1.7130  0.0379  1.5203
   22DG      H4  487   3.699   2.421   2.099 -3.2306 -0.5558  0.7449
   22DG      H5  488   3.717   2.512   1.959 -0.6611 -0.0132  0.3728
   22DG      H6  489   3.258   2.152   1.646 -2.6854  1.1567  0.2285
   22DG      H7  490   3.282   1.975   1.612  1.6807  1.0626  1.3402
   22DG      H8  491   3.283   2.036   1.777  0.8826 -4.0088 -0.0784
   22DG      O9  492   3.770   2.317   1.919 -0.4871  0.2236  0.4505
   22DG     O10  493   3.449   2.075   1.670 -0.2697 -0.0850 -0.1017
   22DG     C11  494   3.838   2.347   1.802 -0.0026 -0.4239  0.2656
   22DG     C12  495   3.508   2.113   1.547  0.0135  0.0645 -0.2167
   22DG     H13  496   3.941   2.374   1.827  0.6105  0.2755  0.6134
   22DG     H14  497   3.806   2.426   1.741  1.5840 -3.6807 -0.0811
   22DG     H15  498   3.467   2.211   1.522 -2.0622 -1.8601 -0.9398
   22DG     H16  499   3.482   2.049   1.465 -0.2845 -1.2701  2.4220
   22DG     C17  500   3.827   2.232   1.706  0.1313 -0.5598  0.0334
   22DG     C18  501   3.659   2.127   1.565 -0.4457 -0.1364 -0.1189
   22DG     O19  502   3.684   2.211   1.680  0.1460  0.1145  0.2764
   22DG     H20  503   3.874   2.142   1.744 -0.9160  3.5014 -0.0409
   22DG     H21  504   3.879   2.272   1.621  0.2265 -1.9658  0.6191
   22DG     H22  505   3.711   2.028   1.563 -4.0241 -1.1013 -2.6833
   22DG     H23  506   3.702   2.167   1.473 -1.6649  1.2764  0.0591
   23DG      C1  507   0.148   5.019   2.196 -0.5760 -0.2304 -0.3577
   23DG      C2  508   0.727   4.788   1.940 -0.7097 -0.4872  0.4384
   23DG      H3  509   0.082   5.044   2.277 -2.0519  3.3998 -1.2688
   23DG      H4  510   0.104   4.956   2.125 -0.8539  0.7404  0.7764
   23DG      H5  511   0.181   5.112   2.154 -0.9178 -0.1552 -1.0755
   23DG      H6  512   0.664   4.768   1.849  1.5817 -1.4415 -1.3893
   23DG      H7  513   0.801   4.873   1.926 -0.8954  0.2498 -0.5632
   23DG      H8  514   0.769   4.697   1.966 -0.8966 -0.5027  0.1566
   23DG      O9  515   0.264   4.966   2.267 -0.5520  0.0327  0.3963
   23DG     O10  516   0.645   4.842   2.051 -0.9242  0.5757  0.5501
   23DG     C11  517   0.340   5.052   2.349  0.3148 -0.2575 -0.4406
   23DG     C12  518   0.723   4.849   2.166  0.4432  1.0829 -0.7179
   23DG     H13  519   0.290   5.077   2.440 -1.7846 -3.1683  1.2530
   23DG     H14  520   0.372   5.141   2.300 -1.0369  0.1587 -0.5400
   23DG     H15  521   0.794   4.925   2.167 -1.1520 -0.2536  0.7738
   23DG     H16  522   0.793   4.769   2.176 -0.2353 -0.7382 -0.8210
   23DG     C17  523   0.457   4.973   2.389 -0.1062  0.6337 -0.8577
   23DG     C18  524   0.633   4.859   2.288  0.2757 -0.4026 -0.0116
   23DG     O19  525   0.524   4.951   2.271 -0.6993  0.9886  0.6324
   23DG     H20  526   0.426   4.888   2.448  2.8752 -0.0774  1.4082
   23DG     H21  527   0.524   5.032   2.448  0.3786 -1.1459  1.6248
   23DG     H22  528   0.594   4.761   2.297 -2.9447  0.4840 -2.9305
   23DG     H23  529   0.700   4.885   2.375  2.1092 -1.4632 -0.8714
   24DG      C1  530   5.036   4.971   2.406 -0.5201  0.8807  1.3926
   24DG      C2  531   4.301   4.547   2.404 -0.4378 -0.1267 -0.0413
   24DG      H3  532   5.086   5.062   2.398 -0.1940  0.4315 -1.6872
   24DG      H4  533   5.113   4.890   2.398 -1.2573 -1.5040  2.3921
   24DG      H5  534   5.006   4.957   2.507 -1.1527 -1.8456 -1.2134
   24DG      H6  535   4.221   4.599   2.465  1.6691  1.2725  1.1397
   24DG      H7  536   4.259   4.484   2.326  0.7129 -1.3294 -0.5747
   24DG      H8  537   4.360   4.490   2.472  0.6309  0.6217 -0.0122
   24DG      O9  538   4.934   4.959   2.306  0.2120  0.4733 -0.8016
   24DG     O10  539   4.389   4.646   2.344  0.1722  0.5541 -0.1704
   24DG     C11  540   4.864   4.833   2.325 -0.6122  0.0549  0.3184
   24DG     C12  541   4.477   4.583   2.254 -0.4599 -0.3681  0.0678
   24DG     H13  542   4.835   4.823   2.429 -1.5441  0.1977  1.9749
   24DG     H14  543   4.945   4.749   2.310  1.3861 -3.1728  0.4657
   24DG     H15  544   4.424   4.521   2.178 -0.4678 -1.9136 -1.6808
   24DG     H16  545   4.549   4.522   2.312 -0.4942  0.7618  2.3178
   24DG     C17  546   4.748   4.827   2.223  0.0707  0.5888 -0.3444
   24DG     C18  547   4.562   4.685   2.175  0.6514  0.3935  0.1661
   24DG     O19  548   4.686   4.703   2.250 -0.0831  0.6283  0.3097
   24DG     H20  549   4.784   4.828   2.124  0.0413  0.4657  1.2881
   24DG     H21  550   4.675   4.906   2.233  0.7767  1.8363  0.2088
   24DG     H22  551   4.594   4.656   2.073  1.8164 -0.8459 -1.1356
   24DG     H23  552   4.489   4.772   2.163 -1.6798 -0.6856  1.1162
   25DG      C1  553   3.733   3.981   2.005 -0.2214 -0.5932  0.6615
   25DG      C2  554   3.792   3.953   2.652  1.2766  0.1507  0.2263
   25DG      H3  555   3.701   3.998   1.900 -0.9752  0.3625  1.2082
   25DG      H4  556   3.759   3.877   2.008  0.1922 -0.9620  1.3079
   25DG      H5  557   3.826   4.033   2.029  0.7219 -0.8483 -2.3884
   25DG      H6  558   3.859   3.889   2.605 -0.2265 -1.1470  2.8497
   25DG      H7  559   3.857   4.036   2.685  1.6239 -0.4503  0.4541
   25DG      H8  560   3.744   3.915   2.741 -0.3406 -0.6527 -2.0214
   25DG      O9  561   3.632   4.002   2.103 -0.1786  0.0199 -0.5654
   25DG     O10  562   3.693   3.987   2.555  0.0109 -0.0535 -0.1803
   25DG     C11  563   3.598   4.136   2.103  0.3941  0.2439 -0.4154
   25DG     C12  564   3.628   4.115   2.583 -0.0713  0.4511 -0.2485
   25DG     H13  565   3.537   4.150   2.015  0.0693 -3.8473  0.8813
   25DG     H14  566   3.684   4.205   2.098  3.3546 -1.4150 -0.5968
   25DG     H15  567   3.700   4.200   2.588 -3.3394 -0.0203 -0.3350
   25DG     H16  568   3.572   4.113   2.679 -1.5040 -0.4039 -0.6300
   25DG     C17  569   3.525   4.170   2.232  0.4218 -0.8912 -0.0525
   25DG     C18  570   3.531   4.151   2.468  0.4121  0.0518 -0.3272
   25DG     O19  571   3.594   4.119   2.348 -0.8347  0.1969  0.1240
   25DG     H20  572   3.430   4.123   2.221 -0.8243 -0.0810  3.3025
   25DG     H21  573   3.517   4.277   2.233  0.8851  0.4294  0.5011
   25DG     H22  574   3.443   4.079   2.473  1.5776  0.1845 -0.7681
   25DG     H23  575   3.499   4.250   2.473  2.3851 -1.7582  2.3081
   26DG      C1  576   1.318   1.682   5.199  0.2938  0.6003  1.1499
   26DG      C2  577   1.066   1.979   5.790 -0.6424 -0.1913 -0.5270
   26DG      H3  578   1.238   1.710   5.138  1.3341 -1.6827  0.7938
   26DG      H4  579   1.279   1.592   5.247 -0.5149  0.0441  0.7710
   26DG      H5  580   1.390   1.667   5.124 -3.5561  0.3348 -2.0913
   26DG      H6  581   0.986   2.020   5.737  0.1525  0.1403  0.3688
   26DG      H7  582   1.047   1.880   5.832 -0.9854 -1.7409  0.1200
   26DG      H8  583   1.069   2.044   5.874  3.1633 -0.0101  2.7489
   26DG      O9  584   1.352   1.776   5.303  0.1947  0.1141 -0.0038
   26DG     O10  585   1.184   1.982   5.713 -0.1229 -0.0662 -0.3869
   26DG     C11  586   1.474   1.748   5.374  0.4166 -0.8626  0.1960
   26DG     C12  587   1.297   1.918   5.777  0.1545  0.2452 -0.0980
   26DG     H13  588   1.553   1.735   5.306 -0.7555  0.3656 -4.2850
   26DG     H14  589   1.466   1.656   5.429 -0.6902  1.3596  2.3534
   26DG     H15  590   1.296   1.821   5.812  1.1862  0.8393 -1.8630
   26DG     H16  591   1.321   1.979   5.868  3.7462  0.0808 -0.8982
   26DG     C17  592   1.492   1.866   5.467  0.4155 -0.1232 -0.1968
   26DG     C18  593   1.413   1.931   5.676 -0.0644 -0.3160 -0.4245
   26DG     O19  594   1.382   1.859   5.550 -0.4557 -0.2029 -0.4258
   26DG     H20  595   1.489   1.958   5.408 -0.8118  1.8047 -1.3740
   26DG     H21  596   1.592   1.864   5.520  1.1998  0.3315 -1.1332
   26DG     H22  597   1.431   2.037   5.670 -1.1432  0.0928  0.2845
   26DG     H23  598   1.497   1.886   5.719 -0.0733 -1.1222 -2.5955
   27DG      C1  599   2.099   4.877   4.017  0.1359  0.8830  0.3338
   27DG      C2  600   2.490   4.775   3.366  0.0446 -0.1015 -0.5655
   27DG      H3  601   1.998   4.915   4.036 -2.7659 -2.3197  0.6160
   27DG      H4  602   2.174   4.956   4.035 -0.1333 -0.8163  2.3723
   27DG      H5  603   2.102   4.808   4.107 -0.7632 -0.5399  1.0896
   27DG      H6  604   2.494   4.884   3.361  0.6236 -0.4961  1.6833
   27DG      H7  605   2.548   4.744   3.449 -2.2789  0.9845 -1.4064
   27DG      H8  606   2.534   4.737   3.274 -0.7159 -2.5250  0.2068
   27DG      O9  607   2.119   4.819   3.892  0.1068  0.5171  0.1416
   27DG     O10  608   2.358   4.728   3.375  0.2857 -0.1565  0.7255
   27DG     C11  609   2.037   4.703   3.871  0.0241  0.4104 -0.5091
   27DG     C12  610   2.285   4.795   3.477  0.5969 -0.4863 -0.0075
   27DG     H13  611   1.933   4.725   3.902 -2.3874  2.0325  3.1762
   27DG     H14  612   2.071   4.619   3.928 -2.0082  2.5607  0.8283
   27DG     H15  613   2.256   4.894   3.442  2.1173 -1.3653 -0.0576
   27DG     H16  614   2.341   4.816   3.568 -1.3190 -4.2010 -1.2344
   27DG     C17  615   2.040   4.676   3.721 -0.2379  0.0264  0.9725
   27DG     C18  616   2.169   4.703   3.525 -0.7554 -0.6694 -0.1509
   27DG     O19  617   2.136   4.757   3.649 -0.7120 -0.2211 -0.2989
   27DG     H20  618   1.935   4.662   3.684 -1.5116 -0.6505  1.8286
   27DG     H21  619   2.074   4.572   3.713  2.2992 -1.6094 -1.8152
   27DG     H22  620   2.086   4.701   3.457 -1.0283 -1.8243  2.8331
   27DG     H23  621   2.197   4.598   3.532 -2.6977 -1.0487  2.7048
   28DG      C1  622   1.286   2.409   4.856  0.0746 -0.4816  0.5593
   28DG      C2  623   1.607   2.871   4.314 -0.6304 -0.3500 -0.3176
   28DG      H3  624   1.322   2.305   4.850  1.0861 -1.4501  0.6711
   28DG      H4  625   1.172   2.389   4.846 -4.4026  2.1253  2.4939
   28DG      H5  626   1.310   2.458   4.948  0.1778 -2.4764 -1.2096
   28DG      H6  627   1.560   2.829   4.224  0.1761 -0.5816 -1.0391
   28DG      H7  628   1.641   2.974   4.305  0.7336 -2.3106  1.8834
   28DG      H8  629   1.699   2.821   4.333  0.6299  0.9167 -0.1498
   28DG      O9  630   1.340   2.469   4.741 -0.3514 -0.3893  0.0654
   28DG     O10  631   1.521   2.851   4.425 -0.2870 -0.3448  0.7543
   28DG     C11  632   1.282   2.597   4.706  0.4754  0.2894 -0.8014
   28DG     C12  633   1.578   2.909   4.540  0.5949  0.3685  0.0091
   28DG     H13  634   1.277   2.658   4.795  1.2124 -0.0720 -2.3148
   28DG     H14  635   1.185   2.574   4.668  3.3483 -1.0650 -2.5439
   28DG     H15  636   1.599   3.013   4.528  1.6315  1.2036  1.3508
   28DG     H16  637   1.682   2.873   4.559 -0.6107  0.1017  0.9632
   28DG     C17  638   1.364   2.687   4.621 -0.0652 -1.0675 -0.2433
   28DG     C18  639   1.486   2.895   4.658  0.5619 -0.0926  0.6564
   28DG     O19  640   1.458   2.765   4.703 -0.3493 -0.3429  0.0913
   28DG     H20  641   1.308   2.755   4.567  0.7357 -1.7023  1.8785
   28DG     H21  642   1.414   2.628   4.544 -1.6470 -1.4341  0.7717
   28DG     H22  643   1.536   2.941   4.739 -1.4937 -0.8307 -2.0495
   28DG     H23  644   1.395   2.951   4.639  1.8220  1.2266 -1.1970
   29DG      C1  645   1.410   4.195   5.037  0.1488  0.3475  0.0557
   29DG      C2  646   0.885   3.828   5.078 -0.9510 -0.2907 -0.3572
   29DG      H3  647   1.424   4.090   5.003  1.6206  1.2466  1.4159
   29DG      H4  648   1.495   4.246   5.090 -1.0726 -2.2747  0.8315
   29DG      H5  649   1.385   4.260   4.948 -1.7391  2.3208  0.3730
   29DG      H6  650   0.786   3.817   5.034 -1.2181  2.1609  2.0987
   29DG      H7  651   0.957   3.787   5.004  0.2368  2.5771 -1.2427
   29DG      H8  652   0.884   3.758   5.168  3.9514  0.3288  4.2056
   29DG      O9  653   1.299   4.190   5.126  0.1960 -0.3461 -0.1873
   29DG     O10  654   0.922   3.952   5.131 -0.7192 -0.1388 -0.2300
   29DG     C11  655   1.221   4.317   5.133 -0.1609  0.4833  0.3066
   29DG     C12  656   0.833   4.056   5.097 -0.1325  0.0617  0.6031
   29DG     H13  657   1.210   4.353   5.039 -1.3002 -1.9156 -1.1638
   29DG     H14  658   1.279   4.399   5.189 -0.4738  0.4116  0.0319
   29DG     H15  659   0.737   4.026   5.138  1.2816  1.0900  1.0125
   29DG     H16  660   0.835   4.071   4.982 -1.7193  1.0005 -1.2548
   29DG     C17  661   1.082   4.302   5.190  0.2976  0.2233  0.0318
   29DG     C18  662   0.873   4.186   5.167  0.7118  0.7761 -0.1209
   29DG     O19  663   1.006   4.199   5.119  0.2942  0.0394 -0.2366
   29DG     H20  664   1.027   4.394   5.178  0.0926 -2.5178  2.4485
   29DG     H21  665   1.092   4.280   5.291  2.5128  2.4862 -1.8053
   29DG     H22  666   0.808   4.260   5.140  4.4095  0.9360  1.0552
   29DG     H23  667   0.872   4.170   5.273 -0.7908  1.1366 -0.4871
   30DG      C1  668   0.924   0.717   2.637  0.6434 -0.7367  0.7423
   30DG      C2  669   0.541   0.311   2.226  0.4925 -0.2369 -0.6810
   30DG      H3  670   0.824   0.762   2.654 -3.0840  0.1232 -1.2784
   30DG      H4  671   1.004   0.786   2.654 -1.1312 -0.9098  2.1198
   30DG      H5  672   0.941   0.639   2.719  2.2801 -0.3802  2.5547
   30DG      H6  673   0.540   0.223   2.290 -0.5357  0.5728  0.8553
   30DG      H7  674   0.489   0.392   2.274  1.4939 -1.4166  0.2426
   30DG      H8  675   0.488   0.292   2.135 -2.9566  1.1456 -0.4595
   30DG      O9  676   0.948   0.651   2.512  0.0811  0.0463 -0.3827
   30DG     O10  677   0.672   0.361   2.193  0.0578 -0.2523 -0.2781
   30DG     C11  678   0.941   0.744   2.407 -0.3333  0.2245 -0.3975
   30DG     C12  679   0.760   0.384   2.313  0.4912  0.1354 -0.0692
   30DG     H13  680   1.014   0.819   2.412  1.9412 -0.9705 -1.3514
   30DG     H14  681   0.853   0.794   2.427  0.9795 -0.3768  1.0468
   30DG     H15  682   0.789   0.284   2.354  2.5807  2.2356 -2.2130
   30DG     H16  683   0.707   0.437   2.394  3.8494 -1.8598  3.3292
   30DG     C17  684   0.960   0.677   2.270  0.0423 -0.0752  0.3965
   30DG     C18  685   0.891   0.450   2.274  0.7843  0.0217 -0.1139
   30DG     O19  686   0.852   0.586   2.245 -0.4445  0.0533  0.4540
   30DG     H20  687   1.058   0.633   2.259 -0.3161  1.9858 -0.1071
   30DG     H21  688   0.950   0.748   2.191 -0.4910 -1.4002 -2.7220
   30DG     H22  689   0.970   0.441   2.349  0.8637  1.9383 -0.3605
   30DG     H23  690   0.946   0.400   2.190  0.8288 -3.2839 -1.2200
   31DG      C1  691   3.495   2.999   5.353 -0.3345  0.0860 -0.2350
   31DG      C2  692   2.936   2.951   4.904 -0.2477 -0.9479 -0.0613
   31DG      H3  693   3.530   2.919   5.288  1.2328 -1.1073 -0.0433
   31DG      H4  694   3.490   2.970   5.456 -1.8667  0.6573  1.6220
   31DG      H5  695   3.561   3.076   5.335 -0.5808 -0.8472  1.9281
   31DG      H6  696   2.836   2.979   4.881 -1.3521 -0.1758  0.6791
   31DG      H7  697   3.005   2.991   4.830 -0.7449 -2.6730 -0.0164
   31DG      H8  698   2.962   2.849   4.908  0.5060  1.5169  1.1221
   31DG      O9  699   3.365   3.036   5.300  0.1132 -0.2745  0.6991
   31DG     O10  700   2.969   3.012   5.034 -0.4512 -0.7623 -0.0302
   31DG     C11  701   3.320   3.158   5.353  0.4381 -0.3068 -0.2034
   31DG     C12  702   2.950   3.150   5.050  0.1460 -0.2402  0.2109
   31DG     H13  703   3.373   3.238   5.294  2.9961  0.2947 -0.4188
   31DG     H14  704   3.355   3.162   5.451  1.1653 -2.5263 -0.0305
   31DG     H15  705   2.847   3.181   5.050  2.9963  0.0891 -0.0431
   31DG     H16  706   3.003   3.214   4.982  1.7235  0.2869  0.5300
   31DG     C17  707   3.172   3.189   5.350  0.6342  0.1479 -0.0981
   31DG     C18  708   2.988   3.191   5.193  0.5087 -0.1336 -0.6364
   31DG     O19  709   3.133   3.164   5.212  0.6242  0.0347 -0.3096
   31DG     H20  710   3.152   3.287   5.378 -2.3188  0.7193  0.5360
   31DG     H21  711   3.126   3.112   5.414 -0.2908 -0.9820 -0.0541
   31DG     H22  712   2.963   3.294   5.218 -3.5053 -1.9370  1.2913
   31DG     H23  713   2.935   3.133   5.273  1.5134  1.3824  1.8380
   32DG      C1  714   3.966   4.201   2.406  0.1639 -0.0657 -0.5032
   32DG      C2  715   3.591   3.658   2.285  0.4375 -0.2751  0.7826
   32DG      H3  716   3.877   4.264   2.393 -0.2686 -1.1566  1.0131
   32DG      H4  717   4.059   4.258   2.408  0.4033  0.3073  1.4446
   32DG      H5  718   3.946   4.175   2.504  1.5728  0.9768 -1.1263
   32DG      H6  719   3.588   3.559   2.338 -3.7380 -0.5116  0.8772
   32DG      H7  720   3.517   3.721   2.341  0.3037 -0.2335  2.2849
   32DG      H8  721   3.560   3.648   2.180  1.4822 -1.9622  2.0251
   32DG      O9  722   3.967   4.097   2.316 -0.4091 -0.2740  0.6523
   32DG     O10  723   3.720   3.712   2.310 -0.3712  0.2140  0.5865
   32DG     C11  724   4.069   4.006   2.334  0.1411  0.7143 -0.0342
   32DG     C12  725   3.833   3.627   2.289 -0.5171  0.5554 -0.4451
   32DG     H13  726   4.048   3.963   2.433  0.3081  0.2600  1.3655
   32DG     H14  727   4.170   4.056   2.334  2.0611  0.1292 -1.0588
   32DG     H15  728   3.819   3.589   2.188  0.7209  3.0246 -0.7665
   32DG     H16  729   3.837   3.537   2.353 -1.1623 -2.5553 -1.1407
   32DG     C17  730   4.058   3.906   2.222  0.0607  0.7265  0.0507
   32DG     C18  731   3.963   3.707   2.290  0.3184  0.2642 -0.8353
   32DG     O19  732   3.946   3.825   2.212  0.7548  0.3239 -0.5061
   32DG     H20  733   4.155   3.856   2.224  1.4081  0.0214 -0.9530
   32DG     H21  734   4.070   3.961   2.127 -2.1737  2.2834 -0.5512
   32DG     H22  735   3.991   3.731   2.394  1.7892 -1.9231  0.2660
   32DG     H23  736   4.039   3.646   2.247 -3.7801 -1.6770  1.8261
   33DG      C1  737   1.837   0.531   2.679  0.3459 -0.5398 -0.3103
   33DG      C2  738   2.108   0.086   2.314 -0.3879  1.0347 -1.1155
   33DG      H3  739   1.769   0.456   2.628 -0.1336  1.9637  0.8516
   33DG      H4  740   1.820   0.633   2.641  2.4069  1.7133 -3.3635
   33DG      H5  741   1.819   0.515   2.789  0.4754  0.6886  0.9404
   33DG      H6  742   2.142   0.102   2.211  0.9933  2.2371 -0.9337
   33DG      H7  743   2.171   0.010   2.359 -0.2972  1.9386 -1.0364
   33DG      H8  744   2.013   0.041   2.318 -0.8493  1.0400 -0.1477
   33DG      O9  745   1.964   0.499   2.634  0.3159 -0.5305 -0.2840
   33DG     O10  746   2.124   0.206   2.383  0.0868 -0.0830 -0.4122
   33DG     C11  747   2.075   0.564   2.700 -0.0707  0.2948  0.2252
   33DG     C12  748   2.259   0.256   2.385 -0.3076 -0.1827 -0.1041
   33DG     H13  749   2.076   0.531   2.806  1.7679 -2.3961 -0.4337
   33DG     H14  750   2.069   0.668   2.703  0.7601 -0.4656  0.1137
   33DG     H15  751   2.314   0.245   2.298 -1.5186  2.0564  1.3747
   33DG     H16  752   2.319   0.194   2.457  1.0008 -2.1251 -1.1676
   33DG     C17  753   2.203   0.537   2.626 -0.8846  0.6606 -0.1001
   33DG     C18  754   2.253   0.405   2.427  0.0814 -0.5157 -0.2907
   33DG     O19  755   2.187   0.413   2.550  0.2482 -0.0174 -0.1114
   33DG     H20  756   2.291   0.535   2.687  2.2008 -0.1571 -1.3885
   33DG     H21  757   2.237   0.617   2.562 -0.2214  1.5471 -2.2804
   33DG     H22  758   2.346   0.468   2.415  2.0099  3.0768 -0.0113
   33DG     H23  759   2.181   0.458   2.357  1.9207  0.8389  1.2413
   34DG      C1  760   1.347   4.202   3.810 -0.4768 -0.2025 -0.9033
   34DG      C2  761   1.585   3.959   4.411 -0.1089  0.2422 -0.5355
   34DG      H3  762   1.273   4.222   3.892 -0.1074  0.4971  1.3838
   34DG      H4  763   1.332   4.106   3.756 -0.8952  2.4786 -0.5740
   34DG      H5  764   1.340   4.285   3.736  2.9303  0.7695 -0.7635
   34DG      H6  765   1.646   3.889   4.356 -1.0055  0.2502 -3.3279
   34DG      H7  766   1.644   3.977   4.506  1.7737  1.7673 -1.2313
   34DG      H8  767   1.495   3.914   4.437 -2.1754  1.7662 -2.2448
   34DG      O9  768   1.469   4.192   3.883  0.0586  0.2589  0.0622
   34DG     O10  769   1.571   4.080   4.346 -0.1096 -0.3118  0.8176
   34DG     C11  770   1.524   4.323   3.900  0.1685 -0.3581  0.1456
   34DG     C12  771   1.691   4.145   4.318 -0.0171  0.8907 -0.0382
   34DG     H13  772   1.466   4.406   3.946 -1.5981 -1.0715 -1.1746
   34DG     H14  773   1.547   4.353   3.800  0.3830  1.1224 -0.2375
   34DG     H15  774   1.757   4.075   4.274 -2.5039 -2.4821 -0.7519
   34DG     H16  775   1.736   4.180   4.412 -1.0590  2.0062 -1.4380
   34DG     C17  776   1.653   4.311   3.981 -0.3306 -0.1174 -0.2199
   34DG     C18  777   1.661   4.266   4.225  0.1861 -0.0203 -0.5019
   34DG     O19  778   1.620   4.224   4.094  0.0968 -0.6544 -0.0048
   34DG     H20  779   1.688   4.408   4.015  0.2305 -0.7787 -0.0282
   34DG     H21  780   1.737   4.264   3.937 -0.1997 -0.1680  1.2584
   34DG     H22  781   1.580   4.320   4.273  1.1446  1.3953  1.3666
   34DG     H23  782   1.743   4.336   4.224 -0.3715 -3.0847  0.6078
   35DG      C1  783   3.113   1.524   1.685  0.8413 -0.4230  0.4446
   35DG      C2  784   3.671   1.174   1.791  0.4034 -0.9306  1.0486
   35DG      H3  785   3.116   1.525   1.797  0.9467  2.7856 -2.0150
   35DG      H4  786   3.067   1.430   1.657 -5.0598  0.2003  1.3640
   35DG      H5  787   3.051   1.605   1.646 -3.8689 -1.4937  0.6215
   35DG      H6  788   3.738   1.203   1.863 -0.0166 -0.2009  0.5688
   35DG      H7  789   3.594   1.094   1.813  1.4474  0.2843  2.5232
   35DG      H8  790   3.733   1.132   1.708 -0.8722  0.7823  0.6027
   35DG      O9  791   3.242   1.533   1.627 -0.1335  0.2089 -0.0300
   35DG     O10  792   3.607   1.291   1.739  0.6635 -0.1678 -0.3528
   35DG     C11  793   3.310   1.651   1.661  0.4781 -0.5019  0.1198
   35DG     C12  794   3.695   1.402   1.720 -0.4890 -0.0835  0.6546
   35DG     H13  795   3.306   1.667   1.773  0.0567  0.4669  0.3306
   35DG     H14  796   3.249   1.730   1.633 -2.7724  0.7042 -3.5628
   35DG     H15  797   3.795   1.371   1.685  0.7789  2.4376  0.8179
   35DG     H16  798   3.714   1.447   1.814 -2.4684  0.4394  2.9251
   35DG     C17  799   3.450   1.649   1.599 -0.5067  0.0069  0.3066
   35DG     C18  800   3.637   1.503   1.618  0.6160 -0.4656  0.3803
   35DG     O19  801   3.503   1.530   1.662  0.1518 -0.4414 -0.5696
   35DG     H20  802   3.509   1.727   1.642 -1.0974 -4.2427  0.5713
   35DG     H21  803   3.441   1.664   1.492 -0.3636  0.1384  0.3822
   35DG     H22  804   3.702   1.588   1.608 -1.9119  2.4857 -2.0286
   35DG     H23  805   3.634   1.463   1.518 -0.6471 -0.3752  0.3014
   36DG      C1  806   0.628   3.373   1.681 -0.0838 -0.5171 -0.2948
   36DG      C2  807   0.214   3.986   1.953 -0.2163 -0.6348 -0.6374
   36DG      H3  808   0.661   3.283   1.634 -0.9947  0.9457 -3.3969
   36DG      H4  809   0.580   3.362   1.778  3.5052  0.4164  0.4657
   36DG      H5  810   0.724   3.422   1.711  2.3439 -0.9384  2.2358
   36DG      H6  811   0.252   4.091   1.965  0.5182  3.0949  1.9070
   36DG      H7  812   0.109   3.984   1.954  2.3823 -1.1145  0.9065
   36DG      H8  813   0.252   3.938   2.044  1.3455  2.4908 -4.0329
   36DG      O9  814   0.553   3.464   1.614  0.4288  0.2873 -0.3176
   36DG     O10  815   0.280   3.924   1.842 -0.0584  0.2096 -0.5160
   36DG     C11  816   0.511   3.587   1.690  0.3203  0.1753 -0.4784
   36DG     C12  817   0.291   4.000   1.724 -0.1056 -0.2524 -0.2327
   36DG     H13  818   0.599   3.636   1.724 -1.1185 -1.0994  0.3998
   36DG     H14  819   0.450   3.562   1.781 -0.8450 -0.7689  0.3564
   36DG     H15  820   0.363   4.080   1.731 -0.0367  2.5565 -0.0538
   36DG     H16  821   0.195   4.055   1.702 -0.4390 -0.3031  0.0553
   36DG     C17  822   0.435   3.687   1.602 -0.5789 -0.9527 -0.2457
   36DG     C18  823   0.341   3.913   1.613 -0.1545 -0.0782 -0.4135
   36DG     O19  824   0.452   3.825   1.653 -0.3710 -0.2527 -0.0223
   36DG     H20  825   0.330   3.654   1.585 -2.0315 -0.6094 -0.6673
   36DG     H21  826   0.473   3.675   1.509  0.0184 -0.9672  2.6306
   36DG     H22  827   0.260   3.847   1.581  1.2707 -0.3069 -0.0046
   36DG     H23  828   0.367   3.961   1.522 -2.2842  1.8169 -0.9278
   37DG      C1  829   0.617   1.930   2.890  0.4278 -0.3697 -0.7545
   37DG      C2  830   1.194   1.599   3.078  0.2539  0.2510  1.0878
   37DG      H3  831   0.547   1.851   2.860  0.0381  2.5246  0.5799
   37DG      H4  832   0.591   2.020   2.839  1.2407 -0.8346 -0.3629
   37DG      H5  833   0.608   1.943   3.002  2.6331  2.2833  0.6593
   37DG      H6  834   1.145   1.655   3.161  0.4194 -0.2033  1.7009
   37DG      H7  835   1.158   1.493   3.068  0.1762  1.4309  0.4951
   37DG      H8  836   1.304   1.603   3.094  1.5639  3.2398 -0.9516
   37DG      O9  837   0.751   1.892   2.854 -0.3556  0.4983 -0.1238
   37DG     O10  838   1.146   1.672   2.967 -0.2815 -0.4806 -0.1891
   37DG     C11  839   0.749   1.816   2.735  0.3001 -0.2079 -0.1830
   37DG     C12  840   1.158   1.603   2.842 -0.5967 -0.2471  0.1871
   37DG     H13  841   0.690   1.872   2.664  1.7354  0.7155 -1.5562
   37DG     H14  842   0.686   1.728   2.748  1.5624  1.0068  1.3857
   37DG     H15  843   1.135   1.498   2.843 -1.7003 -1.2878 -0.9694
   37DG     H16  844   1.271   1.600   2.812  0.5725 -1.4680 -0.6198
   37DG     C17  845   0.882   1.785   2.672  0.1930  0.2063  0.1833
   37DG     C18  846   1.092   1.692   2.736  0.1412 -0.1585  0.2668
   37DG     O19  847   0.960   1.717   2.772 -0.2656  0.4703 -0.3150
   37DG     H20  848   0.931   1.880   2.651  0.1174 -1.3534 -0.9306
   37DG     H21  849   0.874   1.726   2.578  1.0833  0.7648  0.6719
   37DG     H22  850   1.157   1.781   2.734 -1.2747  0.2555 -0.1482
   37DG     H23  851   1.095   1.644   2.639  1.1965 -0.1195 -0.6433
   38DG      C1  852   1.451   0.896   1.875 -0.0458  0.0527 -0.4980
   38DG      C2  853   1.944   0.653   2.309  0.2717  0.4965 -0.1660
   38DG      H3  854   1.464   0.997   1.917  0.4991  0.3718  0.9375
   38DG      H4  855   1.348   0.881   1.846  0.3434 -0.1061  1.7029
   38DG      H5  856   1.522   0.890   1.794  2.1229 -1.0234  1.1749
   38DG      H6  857   1.951   0.711   2.398  2.6621 -1.5510 -0.5280
   38DG      H7  858   1.985   0.550   2.317  1.7123  1.2365  0.3130
   38DG      H8  859   2.003   0.698   2.232 -1.4681  0.6038 -0.2852
   38DG      O9  860   1.490   0.800   1.974  0.1133  0.4010  0.4435
   38DG     O10  861   1.817   0.639   2.256 -0.0027 -0.3039 -0.0508
   38DG     C11  862   1.385   0.796   2.079  0.3826  0.3761  0.0594
   38DG     C12  863   1.716   0.599   2.345  0.3319 -0.0777 -0.4222
   38DG     H13  864   1.284   0.787   2.033  2.1486 -0.4290  1.9818
   38DG     H14  865   1.389   0.893   2.132  0.5641  1.3874  2.3533
   38DG     H15  866   1.690   0.670   2.417 -0.7627 -0.8107  1.4352
   38DG     H16  867   1.750   0.512   2.404  3.2128  1.3796  1.0167
   38DG     C17  868   1.408   0.679   2.167  0.0717 -0.0826 -0.6031
   38DG     C18  869   1.588   0.569   2.270 -0.1740 -0.2118 -0.4478
   38DG     O19  870   1.532   0.688   2.228 -0.1831 -0.7540 -0.5034
   38DG     H20  871   1.415   0.589   2.112  0.0525 -1.9786 -1.5562
   38DG     H21  872   1.334   0.662   2.244 -0.0649  0.4298  1.4231
   38DG     H22  873   1.611   0.494   2.192  0.7363 -1.0757 -2.1576
   38DG     H23  874   1.518   0.529   2.343 -1.7485  2.0315  0.0949
   39DG      C1  875   4.612   5.090   0.520 -0.5295  0.1706  0.0783
   39DG      C2  876   5.013   5.108   0.177 -0.4461 -0.3218 -0.4086
   39DG      H3  877   4.688   5.050   0.591  1.7763 -2.2548 -0.3360
   39DG      H4  878   4.540   5.010   0.507  2.7543  2.1724  1.0953
   39DG      H5  879   4.549   5.172   0.566 -1.0853 -2.3040  0.7286
   39DG      H6  880   4.928   5.044   0.155  1.6045 -0.3446 -1.1576
   39DG      H7  881   5.086   5.050   0.229 -0.9381 -1.4891  1.5675
   39DG      H8  882   4.977   5.191   0.235  1.4413  1.2482  1.7094
   39DG      O9  883   4.681   5.140   0.400  0.1297  0.6650 -0.7752
   39DG     O10  884   5.048   5.166   0.054 -0.2813 -0.8137  0.5813
   39DG     C11  885   4.585   5.158   0.296  0.1327  0.9524 -0.4989
   39DG     C12  886   4.976   5.285   0.016 -0.1776 -0.9804  0.0332
   39DG     H13  887   4.554   5.259   0.306 -0.7450  0.5020 -0.2411
   39DG     H14  888   4.503   5.097   0.291 -0.1107  3.3843 -1.9756
   39DG     H15  889   4.996   5.304  -0.090 -2.3753 -0.8283 -0.0536
   39DG     H16  890   5.015   5.371   0.074 -2.2941  3.4500  1.8423
   39DG     C17  891   4.656   5.158   0.156  0.6144  0.1502  0.1891
   39DG     C18  892   4.823   5.260   0.027  0.2234 -0.0940  0.3888
   39DG     O19  893   4.761   5.252   0.154  0.0821 -0.2459  0.5835
   39DG     H20  894   4.589   5.186   0.075 -2.2484 -0.3996  0.4821
   39DG     H21  895   4.695   5.053   0.144  0.1811  1.5022 -0.5982
   39DG     H22  896   4.771   5.346  -0.028  1.7964 -0.5960  1.9599
   39DG     H23  897   4.807   5.170  -0.033 -0.2944 -0.5286  0.1227
   40DG      C1  898   3.823   3.603   1.298 -0.1956 -0.2409 -0.2627
   40DG      C2  899   3.183   3.307   1.196 -0.4472  0.3097 -0.4410
   40DG      H3  900   3.767   3.682   1.345 -0.0744 -0.6233 -0.6980
   40DG      H4  901   3.915   3.639   1.248 -2.1411 -1.3417  0.5893
   40DG      H5  902   3.847   3.522   1.368 -1.3875 -1.2497  0.1779
   40DG      H6  903   3.120   3.240   1.143 -1.4781  0.8114  0.5910
   40DG      H7  904   3.211   3.269   1.294 -2.0129  0.9417 -1.1347
   40DG      H8  905   3.119   3.395   1.227 -1.1857  1.3926  0.1208
   40DG      O9  906   3.732   3.554   1.199 -0.0091 -0.2099  0.0026
   40DG     O10  907   3.287   3.352   1.108  0.8513 -0.7033 -0.4089
   40DG     C11  908   3.797   3.460   1.117  0.5039  0.2282  0.4863
   40DG     C12  909   3.374   3.251   1.057  0.1178  0.4268 -0.8996
   40DG     H13  910   3.817   3.366   1.178 -1.0313 -1.3880 -0.6849
   40DG     H14  911   3.895   3.489   1.073  1.3407  0.2183 -0.6730
   40DG     H15  912   3.306   3.193   0.988 -1.1664 -1.6175  1.1401
   40DG     H16  913   3.422   3.183   1.130  2.6154 -0.1700  0.0672
   40DG     C17  914   3.708   3.416   1.003 -0.4211  0.9824  0.6028
   40DG     C18  915   3.494   3.308   0.977 -0.5846  0.1962  0.1361
   40DG     O19  916   3.590   3.359   1.065  0.1525 -0.1199 -0.9699
   40DG     H20  917   3.747   3.341   0.935 -1.6346  2.8676  1.3527
   40DG     H21  918   3.672   3.496   0.942  1.8205  0.1168  2.7194
   40DG     H22  919   3.546   3.238   0.912 -1.9559  0.6199  2.6060
   40DG     H23  920   3.452   3.391   0.916 -0.3256 -1.1607 -0.3063
   41DG      C1  921   3.869   0.925   2.784 -0.2017 -0.1755  0.3438
   41DG      C2  922   4.339   1.001   2.704 -0.0170  0.0299  0.4598
   41DG      H3  923   3.977   0.911   2.756  1.7302  0.3250 -1.0040
   41DG      H4  924   3.863   0.928   2.889  0.5780 -0.0066  0.5078
   41DG      H5  925   3.831   1.027   2.761 -0.9566  0.3655 -1.4874
   41DG      H6  926   4.301   1.093   2.652 -1.9961  2.9802 -1.6580
   41DG      H7  927   4.329   1.008   2.807 -1.1256 -0.9199 -1.3409
   41DG      H8  928   4.443   0.979   2.681 -0.3289 -0.9035  0.6937
   41DG      O9  929   3.807   0.808   2.731  0.5508 -0.0953 -0.6073
   41DG     O10  930   4.250   0.890   2.669  0.5629  0.2483  0.3090
   41DG     C11  931   3.787   0.817   2.595 -0.4130 -0.8126 -0.3624
   41DG     C12  932   4.267   0.854   2.535  0.3625  0.4449 -0.1638
   41DG     H13  933   3.755   0.910   2.551  2.0977  0.5034 -0.3999
   41DG     H14  934   3.700   0.757   2.562 -0.7522 -0.5853  1.5991
   41DG     H15  935   4.358   0.792   2.535 -0.3779  0.5721  2.2969
   41DG     H16  936   4.274   0.939   2.473 -0.0285 -2.4041 -0.0361
   41DG     C17  937   3.902   0.760   2.516 -0.7735 -0.5250  0.0065
   41DG     C18  938   4.146   0.775   2.493  0.2394 -1.0641  0.2713
   41DG     O19  939   4.024   0.839   2.532  0.6196  0.4276 -0.0673
   41DG     H20  940   3.875   0.763   2.408 -0.0128  0.0596  0.5832
   41DG     H21  941   3.917   0.652   2.538 -0.9329  1.0094 -2.5101
   41DG     H22  942   4.169   0.749   2.396  1.5520  0.0849 -3.1520
   41DG     H23  943   4.155   0.683   2.549 -1.0123  1.0762 -1.6231
   42DG      C1  944   2.255   3.714   2.020 -0.5412  0.8866 -0.4280
   42DG      C2  945   2.177   3.456   1.424 -0.0310  0.2274 -0.1407
   42DG      H3  946   2.364   3.705   2.025 -1.9288  1.1559 -0.7071
   42DG      H4  947   2.193   3.618   2.053  0.6380 -0.2315 -2.3759
   42DG      H5  948   2.230   3.792   2.094  2.1448 -1.0013  1.4338
   42DG      H6  949   2.281   3.431   1.449  1.9737  1.2057 -1.8113
   42DG      H7  950   2.110   3.393   1.486  0.1456 -1.7215  0.2931
   42DG      H8  951   2.160   3.433   1.314 -0.9712 -2.6113 -0.4402
   42DG      O9  952   2.227   3.752   1.890  0.8479  0.1302  0.0865
   42DG     O10  953   2.148   3.584   1.462  0.1709 -0.1054  0.0725
   42DG     C11  954   2.281   3.874   1.841 -0.2287 -0.3750 -0.3003
   42DG     C12  955   2.235   3.682   1.400  0.1470 -0.5218  0.0197
   42DG     H13  956   2.392   3.870   1.851  2.5251  0.9631 -1.6481
   42DG     H14  957   2.244   3.947   1.914  2.3987 -1.4962  0.3805
   42DG     H15  958   2.200   3.689   1.299  1.4919  1.4014  0.7225
   42DG     H16  959   2.334   3.640   1.403 -1.4136 -0.0091  0.5760
   42DG     C17  960   2.234   3.908   1.702 -0.8423  0.0171  0.6849
   42DG     C18  961   2.225   3.817   1.480 -0.0297 -0.6960  0.2127
   42DG     O19  962   2.254   3.798   1.615  0.0742  0.5587  0.2218
   42DG     H20  963   2.283   4.002   1.664 -0.7530  1.7749 -2.7517
   42DG     H21  964   2.125   3.932   1.709  0.6912  1.3772 -1.2283
   42DG     H22  965   2.282   3.897   1.428 -1.0374  2.0961  0.6198
   42DG     H23  966   2.127   3.859   1.470 -1.2167  0.7950 -0.8245
   43DG      C1  967   1.124   5.386   0.175  0.7042  0.2650 -0.8665
   43DG      C2  968   1.483   5.115   0.597 -0.1073 -0.2530 -0.9812
   43DG      H3  969   1.233   5.411   0.153  3.0552 -2.6833  0.5731
   43DG      H4  970   1.076   5.478   0.216 -1.0637  0.9178  1.8939
   43DG      H5  971   1.067   5.344   0.090  0.8030 -2.4475 -2.1550
   43DG      H6  972   1.505   5.079   0.696  1.0460 -3.2244 -2.9008
   43DG      H7  973   1.513   5.045   0.522 -1.9105  1.3319 -0.2280
   43DG      H8  974   1.541   5.204   0.575  0.2609 -1.3254  1.5973
   43DG      O9  975   1.140   5.279   0.275 -0.3590  0.2831 -0.3621
   43DG     O10  976   1.346   5.132   0.574 -0.0345 -0.4075 -0.1481
   43DG     C11  977   1.026   5.191   0.285 -0.4960 -0.3351  0.2934
   43DG     C12  978   1.290   5.003   0.567 -0.1752  0.4300  0.0182
   43DG     H13  979   0.989   5.155   0.185 -0.5287 -0.8980  1.2073
   43DG     H14  980   0.942   5.249   0.314  1.4238  1.7487 -1.6288
   43DG     H15  981   1.325   4.946   0.650 -0.2143 -0.5118  2.6626
   43DG     H16  982   1.318   4.960   0.473 -1.5727  1.1636 -0.5863
   43DG     C17  983   1.039   5.071   0.372 -0.1644 -0.7414 -0.5214
   43DG     C18  984   1.139   5.009   0.576  0.2925 -0.0038  0.2839
   43DG     O19  985   1.103   5.118   0.487 -0.7055  0.4449 -0.1215
   43DG     H20  986   1.113   5.002   0.322  1.8639 -0.0919  1.3891
   43DG     H21  987   0.946   5.019   0.394 -0.3335 -0.6453 -0.2635
   43DG     H22  988   1.079   4.925   0.558 -1.3932  1.0009 -0.7766
   43DG     H23  989   1.102   5.051   0.674 -0.4524 -1.2759  2.4363
   44DG      C1  990   0.441   2.849   2.840 -0.2480 -0.0726 -0.2939
   44DG      C2  991   1.128   3.062   2.921  0.4695  0.7828 -0.2774
   44DG      H3  992   0.440   2.772   2.767  1.8445  1.5270 -2.0980
   44DG      H4  993   0.455   2.938   2.787 -0.4547 -0.1735  1.1770
   44DG      H5  994   0.341   2.860   2.864 -0.8800  1.2974 -0.3518
   44DG      H6  995   1.115   3.039   2.810  2.2920  1.6137 -1.4799
   44DG      H7  996   1.136   3.169   2.913 -1.1466  2.3355 -0.2990
   44DG      H8  997   1.221   3.005   2.952  1.7959 -1.0772  1.0758
   44DG      O9  998   0.528   2.829   2.949 -0.2274  0.0756  0.1059
   44DG     O10  999   1.008   3.017   2.981 -0.4620  0.3850  0.1271
   44DG     C11 1000   0.524   2.931   3.049 -0.5663  0.1484 -0.3473
   44DG     C12 1001   0.986   3.086   3.095  0.1530  0.3415 -0.2447
   44DG     H13 1002   0.436   2.905   3.109  0.0379  0.4545 -1.0127
   44DG     H14 1003   0.509   3.033   3.010  1.2722  2.8958 -1.8949
   44DG     H15 1004   0.948   3.193   3.077 -4.1443 -2.3514  0.1116
   44DG     H16 1005   1.071   3.107   3.155 -0.5269 -2.1772 -0.7507
   44DG     C17 1006   0.649   2.929   3.134 -0.3624 -0.1308  0.4420
   44DG     C18 1007   0.868   3.013   3.166 -0.0170 -0.2047  0.2639
   44DG     O19 1008   0.748   3.017   3.083  0.7558  0.3927 -0.9259
   44DG     H20 1009   0.688   2.831   3.130 -1.2022 -3.0383  1.4071
   44DG     H21 1010   0.627   2.940   3.239  0.9649  1.2745 -1.7355
   44DG     H22 1011   0.892   2.911   3.191 -0.5987  2.2995  1.0697
   44DG     H23 1012   0.844   3.056   3.261 -0.2449  0.1489  3.9543
   45DG      C1 1013   3.332   5.121   4.397 -0.0769 -0.2578  0.8373
   45DG      C2 1014   4.120   5.485   4.311 -0.6143  0.7361  0.5566
   45DG      H3 1015   3.372   5.147   4.487  1.6522 -2.2128 -0.5956
   45DG      H4 1016   3.362   5.020   4.366 -1.3449  0.7768  3.2547
   45DG      H5 1017   3.224   5.119   4.414 -0.8672 -0.5519 -2.7564
   45DG      H6 1018   4.209   5.419   4.303  2.6654 -0.2079  2.8516
   45DG      H7 1019   4.150   5.587   4.331 -0.8817  2.4134  0.3992
   45DG      H8 1020   4.084   5.453   4.409  1.0544  0.1550  1.2906
   45DG      O9 1021   3.364   5.217   4.298  0.3056 -0.2855  0.7825
   45DG     O10 1022   4.029   5.484   4.202  0.7356 -0.2041  0.2351
   45DG     C11 1023   3.504   5.212   4.254 -0.3699  0.2811 -0.0159
   45DG     C12 1024   3.934   5.377   4.205  0.2462  0.2435  0.3152
   45DG     H13 1025   3.495   5.247   4.153 -0.1905 -0.4361  0.0866
   45DG     H14 1026   3.542   5.109   4.217  0.3823 -1.5239  0.1542
   45DG     H15 1027   3.969   5.279   4.230  0.4237  1.0614 -1.4923
   45DG     H16 1028   3.893   5.366   4.105  0.6213 -0.6884  2.9262
   45DG     C17 1029   3.602   5.297   4.336 -0.2461 -0.3633  0.3453
   45DG     C18 1030   3.814   5.394   4.295  0.5144  0.0179 -0.1109
   45DG     O19 1031   3.722   5.290   4.270  0.5483  0.0388 -0.0690
   45DG     H20 1032   3.605   5.267   4.442 -0.1478 -2.3701  1.5546
   45DG     H21 1033   3.572   5.402   4.315 -2.1293 -0.8080 -1.8192
   45DG     H22 1034   3.841   5.398   4.403 -2.2818 -0.4261  4.2876
   45DG     H23 1035   3.776   5.483   4.251  1.4966 -3.1824 -1.3194
   46DG      C1 1036   0.521   1.851   1.870  0.2935  0.9327  0.5520
   46DG      C2 1037   0.778   2.345   1.526  0.2485 -0.5444  0.4486
   46DG      H3 1038   0.625   1.810   1.861 -0.8700 -1.4569 -1.2577
   46DG      H4 1039   0.454   1.769   1.899 -0.3629 -1.3221  0.7850
   46DG      H5 1040   0.539   1.909   1.960 -0.1518 -3.2055  1.9159
   46DG      H6 1041   0.723   2.428   1.494 -0.2280  0.7085 -0.9360
   46DG      H7 1042   0.825   2.384   1.618 -0.0171 -1.3865 -2.0234
   46DG      H8 1043   0.861   2.325   1.455 -0.1798 -1.3566  1.2377
   46DG      O9 1044   0.468   1.933   1.771 -0.4954 -0.5828  0.7518
   46DG     O10 1045   0.697   2.237   1.538 -0.8619  0.2990  0.4394
   46DG     C11 1046   0.434   1.866   1.656  0.6636  0.1357  0.3894
   46DG     C12 1047   0.666   2.169   1.422 -0.1088  0.4021 -0.0792
   46DG     H13 1048   0.344   1.798   1.671 -4.0083 -4.1560 -0.6414
   46DG     H14 1049   0.521   1.818   1.614 -0.4456  0.5150  1.6635
   46DG     H15 1050   0.754   2.157   1.363 -1.0523 -2.2512 -0.6085
   46DG     H16 1051   0.603   2.232   1.368 -1.7422 -1.7031  0.0157
   46DG     C17 1052   0.383   1.970   1.551  1.2375  0.1564 -0.4355
   46DG     C18 1053   0.591   2.037   1.448 -0.1260 -0.2735 -0.1837
   46DG     O19 1054   0.480   2.069   1.534 -0.0516 -0.4014 -0.1137
   46DG     H20 1055   0.298   2.027   1.577 -0.2989  0.6367  0.1071
   46DG     H21 1056   0.353   1.927   1.454  1.0356  1.5573  0.9739
   46DG     H22 1057   0.552   2.004   1.348 -0.0178  0.2980 -0.0909
   46DG     H23 1058   0.663   1.964   1.492 -0.2911  2.8607  1.5035
   47DG      C1 1059   5.380   1.504   0.061 -0.6075 -0.0311 -0.5817
   47DG      C2 1060   4.762   1.595  -0.100  0.1256  0.5767  0.4962
   47DG      H3 1061   5.487   1.469   0.049  1.2820  0.1179 -2.0933
   47DG      H4 1062   5.360   1.513   0.165  1.1691 -0.1455 -2.3114
   47DG      H5 1063   5.397   1.607   0.025  2.1421  0.7690  2.5760
   47DG      H6 1064   4.677   1.584  -0.176 -1.1987  2.5999 -0.5403
   47DG      H7 1065   4.733   1.571   0.002  1.1113  2.9802  0.5712
   47DG      H8 1066   4.802   1.696  -0.095 -3.9582  0.0373  0.9335
   47DG      O9 1067   5.283   1.438  -0.012 -0.2163 -0.1444 -0.3887
   47DG     O10 1068   4.860   1.496  -0.133 -0.4504 -0.1006 -0.5453
   47DG     C11 1069   5.323   1.425  -0.145  0.2160 -0.3521 -0.2465
   47DG     C12 1070   4.872   1.465  -0.271 -0.4909  0.0251  0.1991
   47DG     H13 1071   5.402   1.362  -0.160 -2.9695 -2.3318 -2.8511
   47DG     H14 1072   5.343   1.517  -0.189  1.5438  0.0738 -2.0607
   47DG     H15 1073   4.912   1.556  -0.317  1.4678 -0.7973  0.4699
   47DG     H16 1074   4.784   1.427  -0.319  3.1775  0.6820 -0.2491
   47DG     C17 1075   5.217   1.347  -0.211  0.6900 -0.1594 -0.3890
   47DG     C18 1076   4.989   1.371  -0.285  0.2114 -0.2372  0.1072
   47DG     O19 1077   5.101   1.428  -0.228 -0.6798 -1.1011 -0.2336
   47DG     H20 1078   5.195   1.254  -0.157 -1.9415 -2.1434 -1.8918
   47DG     H21 1079   5.252   1.323  -0.313  0.5323  2.0093 -1.5597
   47DG     H22 1080   4.964   1.277  -0.237  3.4811  0.3657 -1.3660
   47DG     H23 1081   5.011   1.344  -0.389 -1.8377 -2.9156 -1.1722
   48DG      C1 1082   2.250   0.822   0.556 -0.1905 -0.0646 -0.4919
   48DG      C2 1083   1.786   0.636   0.971  0.3708  0.2188  0.2169
   48DG      H3 1084   2.165   0.790   0.504  1.9363  1.5197 -2.1333
   48DG      H4 1085   2.318   0.732   0.541  0.3950 -1.9844  0.6816
   48DG      H5 1086   2.303   0.917   0.524 -1.7380  0.7141  0.4128
   48DG      H6 1087   1.771   0.580   0.878  4.3603  0.2421  1.9681
   48DG      H7 1088   1.791   0.564   1.059 -1.0190 -0.9404  2.5947
   48DG      H8 1089   1.695   0.697   0.986  0.2604  1.1107  0.9152
   48DG      O9 1090   2.227   0.852   0.688 -0.1211 -0.0613  0.3993
   48DG     O10 1091   1.894   0.720   0.937 -0.7394  0.3942  0.0148
   48DG     C11 1092   2.202   0.989   0.724 -0.1217  0.5398 -0.1600
   48DG     C12 1093   1.924   0.794   1.057 -0.8121  0.2352 -0.2467
   48DG     H13 1094   2.124   1.024   0.654 -2.1564 -1.0661 -1.6116
   48DG     H14 1095   2.289   1.053   0.714 -1.4273 -0.7196 -0.1652
   48DG     H15 1096   1.973   0.721   1.126  3.1083 -0.5108  2.7151
   48DG     H16 1097   1.841   0.833   1.115 -0.4197 -1.6889 -1.0603
   48DG     C17 1098   2.164   0.995   0.875 -0.0467 -0.0692  0.1994
   48DG     C18 1099   2.010   0.916   1.025  0.5084 -0.7052 -0.2565
   48DG     O19 1100   2.089   0.881   0.908 -0.6051  0.2632 -0.2816
   48DG     H20 1101   2.105   1.079   0.895 -2.5624  0.1648 -2.8821
   48DG     H21 1102   2.257   1.008   0.939  1.1016  3.8516  2.2672
   48DG     H22 1103   1.944   0.998   1.000 -1.0954  0.6762 -0.0893
   48DG     H23 1104   2.068   0.942   1.112  0.4084 -2.8401 -1.6777
   49DG      C1 1105   1.823   0.898   0.640 -0.4484 -0.3525 -0.0656
   49DG      C2 1106   2.376   0.504   0.737  0.1154 -0.0235  0.0654
   49DG      H3 1107   1.850   0.963   0.731 -1.1762  1.2865  0.8056
   49DG      H4 1108   1.717   0.892   0.643  0.5382 -0.2731 -1.3520
   49DG      H5 1109   1.833   0.943   0.542  1.0791 -0.2151 -1.0486
   49DG      H6 1110   2.371   0.404   0.782 -2.4350 -0.0847  1.9905
   49DG      H7 1111   2.456   0.513   0.670 -1.1460 -1.2762 -1.7993
   49DG      H8 1112   2.387   0.571   0.822  0.4266 -0.3832  0.2357
   49DG      O9 1113   1.877   0.767   0.652  0.1145 -0.8654 -0.1548
   49DG     O10 1114   2.248   0.532   0.674  0.2917 -0.0761  0.5516
   49DG     C11 1115   1.815   0.675   0.556  0.6344 -0.2527 -1.3959
   49DG     C12 1116   2.228   0.437   0.570 -0.5556  0.1711  0.4034
   49DG     H13 1117   1.832   0.713   0.455 -0.6839 -0.8369  0.6864
   49DG     H14 1118   1.713   0.665   0.586 -3.1358  0.4197  1.5504
   49DG     H15 1119   2.280   0.340   0.588  0.8074 -0.6203 -0.3946
   49DG     H16 1120   2.257   0.479   0.472 -0.6120 -1.5839 -0.1114
   49DG     C17 1121   1.875   0.534   0.571 -0.1161 -0.1942 -0.0172
   49DG     C18 1122   2.087   0.403   0.562 -0.4100  0.7979 -0.4482
   49DG     O19 1123   2.017   0.526   0.553 -0.0636  0.5555  0.0766
   49DG     H20 1124   1.815   0.471   0.505  3.5638 -3.0083 -0.8237
   49DG     H21 1125   1.853   0.511   0.676  0.3912 -1.3269 -1.2638
   49DG     H22 1126   2.061   0.340   0.471  0.8463 -0.3100 -1.8092
   49DG     H23 1127   2.070   0.346   0.653  3.6711 -2.3020  1.1105
   50DG      C1 1128   0.797   5.319   2.505  0.3853  0.3435  0.4832
   50DG      C2 1129  -0.017   5.496   2.723 -0.4057  0.5146 -0.3515
   50DG      H3 1130   0.758   5.221   2.483  1.3345  0.2159  2.2752
   50DG      H4 1131   0.830   5.310   2.614 -2.8165 -0.2561  3.0207
   50DG      H5 1132   0.884   5.332   2.441 -0.5364  0.4042  2.8599
   50DG      H6 1133   0.002   5.431   2.808 -0.8520 -2.1731 -2.8574
   50DG      H7 1134  -0.068   5.586   2.761 -0.4148  0.0438  0.5932
   50DG      H8 1135  -0.095   5.452   2.652 -0.2685 -0.6115  0.2205
   50DG      O9 1136   0.712   5.433   2.493 -0.3081 -0.0506  0.0258
   50DG     O10 1137   0.096   5.520   2.646 -0.0465 -0.3114 -0.1077
   50DG     C11 1138   0.601   5.420   2.574 -0.4441  0.6705 -0.4631
   50DG     C12 1139   0.187   5.616   2.694 -0.9192  0.1355  0.6997
   50DG     H13 1140   0.616   5.437   2.684  1.1636 -0.3554 -1.9945
   50DG     H14 1141   0.555   5.322   2.544 -3.8245  0.7124 -2.7603
   50DG     H15 1142   0.235   5.577   2.782  1.6953 -0.8536 -0.2537
   50DG     H16 1143   0.130   5.707   2.735 -3.3042 -0.1913  0.5227
   50DG     C17 1144   0.509   5.528   2.524  0.3774  0.0107  0.2402
   50DG     C18 1145   0.302   5.646   2.594  0.4668  0.3731 -0.5607
   50DG     O19 1146   0.391   5.537   2.610  0.4542  0.0554  0.4296
   50DG     H20 1147   0.486   5.495   2.423 -0.0055 -1.8302 -1.0694
   50DG     H21 1148   0.566   5.621   2.540 -0.0572  0.6788  1.9521
   50DG     H22 1149   0.259   5.654   2.497 -3.8595  0.8788  0.7997
   50DG     H23 1150   0.351   5.740   2.615  1.1297 -1.5370  2.5556
   51DG      C1 1151   1.247   4.197   3.378 -0.0338  1.2510  0.2253
   51DG      C2 1152   0.614   4.171   2.875  0.4993  0.2260  0.6083
   51DG      H3 1153   1.204   4.095   3.400  2.6154 -0.4671  1.7865
   51DG      H4 1154   1.200   4.267   3.451 -1.1120 -1.9733 -2.5725
   51DG      H5 1155   1.359   4.207   3.387 -2.9026 -0.9103  0.3616
   51DG      H6 1156   0.581   4.184   2.771 -0.7909 -2.1298 -1.3114
   51DG      H7 1157   0.579   4.066   2.894 -1.5169 -2.9709 -0.7608
   51DG      H8 1158   0.553   4.236   2.931  0.1587 -0.2876 -1.3974
   51DG      O9 1159   1.228   4.228   3.240 -0.0878  0.6471  0.7872
   51DG     O10 1160   0.748   4.193   2.894  0.2719 -0.1498  0.1397
   51DG     C11 1161   1.097   4.213   3.195  0.5812  0.7551 -0.6255
   51DG     C12 1162   0.788   4.326   2.871  0.2558  0.0408 -0.1323
   51DG     H13 1163   1.024   4.222   3.280 -0.0401 -0.8711  1.3663
   51DG     H14 1164   1.076   4.109   3.164 -1.1251  1.9900 -0.8116
   51DG     H15 1165   0.735   4.398   2.936  1.3674  0.6381 -3.5835
   51DG     H16 1166   0.770   4.362   2.769  0.4350  1.3240  0.2359
   51DG     C17 1167   1.087   4.296   3.073  0.2807 -0.5960 -0.2961
   51DG     C18 1168   0.939   4.334   2.889  0.2745  0.2309  0.7630
   51DG     O19 1169   0.962   4.278   3.018 -0.8141 -0.2896 -1.2095
   51DG     H20 1170   1.158   4.276   2.993  1.6347  0.5557  0.6870
   51DG     H21 1171   1.101   4.404   3.094  1.6167 -1.6152 -0.5179
   51DG     H22 1172   0.994   4.284   2.812 -2.3247  1.1453 -3.6480
   51DG     H23 1173   0.972   4.436   2.871 -0.4468 -1.8626  0.0056
   52DG      C1 1174   4.643   5.454   0.794  0.2937  0.2434  0.3725
   52DG      C2 1175   4.521   5.998   0.486 -0.1340 -0.0883 -0.4444
   52DG      H3 1176   4.533   5.432   0.804  0.9841 -1.2410 -0.2285
   52DG      H4 1177   4.670   5.527   0.867 -2.6078  0.1723  0.5166
   52DG      H5 1178   4.704   5.369   0.810 -1.6213  0.5214 -0.8765
   52DG      H6 1179   4.588   6.030   0.563  0.2564  1.4501  1.4548
   52DG      H7 1180   4.519   6.073   0.409  0.7986  0.3780  1.5541
   52DG      H8 1181   4.420   6.002   0.516 -1.2057  0.1674 -0.0844
   52DG      O9 1182   4.661   5.503   0.662 -0.3047  0.4290  0.3073
   52DG     O10 1183   4.563   5.872   0.432  0.1922  0.5297  0.3630
   52DG     C11 1184   4.632   5.429   0.551 -0.9570 -0.6479 -0.3332
   52DG     C12 1185   4.479   5.824   0.334  0.0772 -0.2314  0.0387
   52DG     H13 1186   4.530   5.383   0.551 -0.8198 -0.8592  1.2716
   52DG     H14 1187   4.714   5.350   0.541  3.6264 -1.5796  0.8026
   52DG     H15 1188   4.459   5.901   0.254 -1.2365  1.1269 -0.2811
   52DG     H16 1189   4.375   5.802   0.370  2.2027 -0.6891  0.8018
   52DG     C17 1190   4.663   5.520   0.431 -0.8243 -0.4344  0.1800
   52DG     C18 1191   4.544   5.684   0.298  0.1295 -0.4845 -0.8260
   52DG     O19 1192   4.550   5.606   0.417 -0.1586 -1.0334  0.1571
   52DG     H20 1193   4.667   5.449   0.340  0.7399 -1.7529 -0.8493
   52DG     H21 1194   4.758   5.573   0.437  0.0868 -1.2407 -0.7531
   52DG     H22 1195   4.480   5.637   0.230  1.1997 -2.8766  1.6324
   52DG     H23 1196   4.647   5.687   0.262  3.1267 -2.0389  2.1723
   53DG      C1 1197   3.083   0.073   0.636  0.4343  0.1104  0.3954
   53DG      C2 1198   3.024  -0.459   1.016  0.4161  0.2805 -0.3487
   53DG      H3 1199   3.190   0.065   0.622  0.4039 -1.6059 -0.1517
   53DG      H4 1200   3.065   0.122   0.726 -2.1153  1.9727 -1.9208
   53DG      H5 1201   3.040   0.124   0.545 -0.8562  0.7656  0.5060
   53DG      H6 1202   2.964  -0.540   1.054 -1.3335  1.0326 -2.1062
   53DG      H7 1203   3.127  -0.485   0.988 -0.4555 -0.9320 -2.5850
   53DG      H8 1204   3.011  -0.380   1.093  0.0332  1.1700 -1.6577
   53DG      O9 1205   3.030  -0.058   0.655 -0.2294 -0.2445 -0.0784
   53DG     O10 1206   2.954  -0.402   0.912  0.2514 -0.3734 -0.1777
   53DG     C11 1207   3.029  -0.130   0.530 -0.6066 -0.2497 -0.7495
   53DG     C12 1208   2.949  -0.477   0.793  0.4422 -0.1692  0.4979
   53DG     H13 1209   3.119  -0.112   0.465 -0.4731  0.9866 -1.8219
   53DG     H14 1210   2.946  -0.107   0.463  2.2532 -0.8876 -1.5826
   53DG     H15 1211   2.919  -0.575   0.823  3.1227 -0.4985  0.6274
   53DG     H16 1212   3.052  -0.483   0.762  2.5868  0.6042  0.1496
   53DG     C17 1213   3.005  -0.281   0.554  0.5480  0.3694  0.6166
   53DG     C18 1214   2.865  -0.417   0.683 -1.0992  0.2912 -0.2320
   53DG     O19 1215   2.906  -0.282   0.660 -0.2512  0.1171 -0.0033
   53DG     H20 1216   3.102  -0.316   0.593  1.1706  0.4583  0.6138
   53DG     H21 1217   2.982  -0.341   0.467  2.4627  1.3255 -2.2717
   53DG     H22 1218   2.856  -0.483   0.602  1.2042  0.5310  0.7032
   53DG     H23 1219   2.765  -0.396   0.722  2.1201  2.2410  0.9227
   54DG      C1 1220   0.348   3.979   0.601  0.1421 -0.2203 -0.4013
   54DG      C2 1221   0.619   3.440   0.830 -0.4508  0.3493  0.4967
   54DG      H3 1222   0.258   3.934   0.640 -0.1380 -1.0755  0.0256
   54DG      H4 1223   0.326   4.064   0.535  0.8283 -1.6299 -0.6207
   54DG      H5 1224   0.413   4.017   0.675  0.0484 -0.4538 -1.2898
   54DG      H6 1225   0.551   3.459   0.911 -0.4413  0.7304 -0.2316
   54DG      H7 1226   0.604   3.334   0.805  0.7063  0.8042 -0.7949
   54DG      H8 1227   0.712   3.440   0.888 -2.7955 -0.8097  0.0332
   54DG      O9 1228   0.425   3.887   0.534 -0.3450  0.4089  0.5412
   54DG     O10 1229   0.609   3.532   0.718  0.1096  0.2367  0.0314
   54DG     C11 1230   0.545   3.940   0.480  0.1280  1.1085 -0.5543
   54DG     C12 1231   0.743   3.544   0.666 -0.2819  0.5153 -0.3572
   54DG     H13 1232   0.586   3.991   0.563 -0.5862 -3.8978  2.2504
   54DG     H14 1233   0.536   4.009   0.402 -1.8074 -2.6540  0.5806
   54DG     H15 1234   0.787   3.444   0.634  0.0420 -0.9666 -0.1150
   54DG     H16 1235   0.814   3.589   0.736  0.8795 -3.5139 -3.2700
   54DG     C17 1236   0.632   3.827   0.434 -0.3935 -0.4418  0.2220
   54DG     C18 1237   0.749   3.644   0.546 -0.2431 -0.3341 -0.2907
   54DG     O19 1238   0.638   3.739   0.545 -0.0545 -0.0503  0.2184
   54DG     H20 1239   0.716   3.866   0.391  0.8141  0.4820  0.0960
   54DG     H21 1240   0.567   3.783   0.359  0.6669 -0.8847 -0.3129
   54DG     H22 1241   0.845   3.698   0.560  1.9429  1.8384  0.1697
   54DG     H23 1242   0.756   3.583   0.462 -0.1554  1.8976 -3.2622
   55DG      C1 1243   3.678   0.772   0.628 -0.0880 -0.4642  0.1515
   55DG      C2 1244   3.578   0.315   0.145 -0.1371  0.2281  0.8850
   55DG      H3 1245   3.747   0.785   0.706  0.3284 -0.1684  3.2808
   55DG      H4 1246   3.705   0.672   0.595  0.8751  1.4630  1.0348
   55DG      H5 1247   3.573   0.784   0.664 -1.1831 -2.3356 -1.4845
   55DG      H6 1248   3.680   0.346   0.172  0.9406 -2.1028 -0.3923
   55DG      H7 1249   3.511   0.299   0.233  1.3870  0.5842  1.7884
   55DG      H8 1250   3.611   0.217   0.096 -0.4918  1.2849  1.4958
   55DG      O9 1251   3.696   0.854   0.522  0.2615 -0.0679 -0.0593
   55DG     O10 1252   3.530   0.409   0.051 -0.1182 -0.0214  0.3170
   55DG     C11 1253   3.598   0.850   0.421 -0.4182 -0.2798  0.0536
   55DG     C12 1254   3.541   0.541   0.102 -0.4487  0.4089  0.5452
   55DG     H13 1255   3.602   0.938   0.355  1.5451  2.2021  3.7272
   55DG     H14 1256   3.501   0.876   0.460  2.6224  1.2397  3.2133
   55DG     H15 1257   3.533   0.607   0.015 -1.2672 -2.0043 -0.8806
   55DG     H16 1258   3.642   0.564   0.135  2.0079 -3.3685  1.3102
   55DG     C17 1259   3.597   0.717   0.348  0.4653  0.1338  0.3997
   55DG     C18 1260   3.453   0.585   0.225  0.0437  0.1799 -0.2081
   55DG     O19 1261   3.477   0.716   0.271 -0.0054 -0.5424  0.3780
   55DG     H20 1262   3.588   0.634   0.423  2.5028 -0.8440 -1.6331
   55DG     H21 1263   3.691   0.713   0.296 -1.5517  1.2591  0.7521
   55DG     H22 1264   3.355   0.579   0.177 -0.1737 -2.9474 -0.7426
   55DG     H23 1265   3.447   0.517   0.310  0.9541  0.7134  0.1292
   56DG      C1 1266   2.702   3.633   4.079 -0.5532 -0.4617 -0.7347
   56DG      C2 1267   2.693   3.842   4.587 -0.7188 -0.4425  0.1658
   56DG      H3 1268   2.641   3.688   4.007  1.7947  0.1676  2.0641
   56DG      H4 1269   2.674   3.647   4.188  0.6118 -1.0228  3.8536
   56DG      H5 1270   2.683   3.533   4.045 -1.0148  1.1219 -0.9966
   56DG      H6 1271   2.791   3.897   4.573 -0.0469 -1.0097 -1.1379
   56DG      H7 1272   2.622   3.865   4.502 -0.9664  0.2028  0.0555
   56DG      H8 1273   2.657   3.892   4.674  1.4820 -0.9582 -1.1623
   56DG      O9 1274   2.829   3.689   4.055 -0.4021  0.4795 -0.1820
   56DG     O10 1275   2.705   3.707   4.626 -0.2470  0.5908 -0.7527
   56DG     C11 1276   2.938   3.675   4.146 -0.0026 -0.2787  0.2488
   56DG     C12 1277   2.739   3.620   4.518 -0.3896  0.1574 -0.2101
   56DG     H13 1278   3.020   3.679   4.076 -1.7991 -1.8361  0.6244
   56DG     H14 1279   2.954   3.575   4.186  0.3561  0.2509 -2.3314
   56DG     H15 1280   2.660   3.598   4.443  0.7278  3.4022  0.4578
   56DG     H16 1281   2.748   3.529   4.574 -2.1207  1.5773 -2.9738
   56DG     C17 1282   2.946   3.776   4.261 -0.2305 -0.1069  0.8193
   56DG     C18 1283   2.876   3.652   4.448 -0.1624 -0.3481  0.7654
   56DG     O19 1284   2.844   3.759   4.352 -0.4551  0.2066 -0.5416
   56DG     H20 1285   2.936   3.875   4.225 -0.0501 -0.6059 -0.4191
   56DG     H21 1286   3.041   3.779   4.311  1.2114  2.6140  2.1934
   56DG     H22 1287   2.963   3.681   4.517  0.8491 -1.4517  2.0981
   56DG     H23 1288   2.917   3.570   4.395  3.4601  1.1962  0.5193
   57DG      C1 1289   2.460   0.029   3.625 -0.0499  0.4041 -0.1729
   57DG      C2 1290   2.869  -0.481   3.874 -0.2407  0.0535  0.2107
   57DG      H3 1291   2.398   0.070   3.706 -0.5570 -0.1163  0.7407
   57DG      H4 1292   2.429   0.060   3.522 -0.2743 -0.8351 -0.3864
   57DG      H5 1293   2.558   0.084   3.629  1.4347  0.7700  0.4693
   57DG      H6 1294   2.888  -0.584   3.857 -0.0223  1.8366  0.0177
   57DG      H7 1295   2.963  -0.435   3.834 -2.0548 -1.7371  0.1856
   57DG      H8 1296   2.851  -0.474   3.981 -2.1439 -2.4944  1.4855
   57DG      O9 1297   2.503  -0.107   3.623 -0.1393 -0.3659  0.3896
   57DG     O10 1298   2.758  -0.442   3.801 -0.0320  0.0687  0.1891
   57DG     C11 1299   2.396  -0.192   3.586  0.3167 -0.6580 -0.1011
   57DG     C12 1300   2.649  -0.533   3.808 -0.3480 -0.4876 -0.2780
   57DG     H13 1301   2.348  -0.162   3.501  2.8011 -1.6515 -0.8649
   57DG     H14 1302   2.315  -0.196   3.665 -2.7129  1.0640  4.3389
   57DG     H15 1303   2.609  -0.525   3.902  0.0194 -3.4731  1.5645
   57DG     H16 1304   2.682  -0.640   3.812 -0.3247  1.8854  1.6402
   57DG     C17 1305   2.447  -0.339   3.582  0.1015  0.3732 -1.3138
   57DG     C18 1306   2.538  -0.518   3.710 -0.1508  0.1405 -0.2396
   57DG     O19 1307   2.508  -0.376   3.698 -0.1092  0.2298  0.1840
   57DG     H20 1308   2.518  -0.340   3.500  0.7133  0.8054 -1.3737
   57DG     H21 1309   2.367  -0.403   3.566 -3.5307 -0.3997  0.0806
   57DG     H22 1310   2.566  -0.563   3.614  1.1542  4.1695 -1.0405
   57DG     H23 1311   2.456  -0.576   3.755  1.7627  1.7479  2.0668
   58DG      C1 1312   4.464   3.697   1.984 -0.1677  0.6823  0.1010
   58DG      C2 1313   5.121   3.727   2.114 -0.0766  0.5189  0.8425
   58DG      H3 1314   4.378   3.752   2.000  1.6000  2.9511 -0.9764
   58DG      H4 1315   4.434   3.590   1.973  2.7637 -1.9474 -0.2995
   58DG      H5 1316   4.510   3.723   1.890  0.7092  2.5894 -0.1941
   58DG      H6 1317   5.125   3.632   2.056  0.6083  1.5088 -1.2028
   58DG      H7 1318   5.148   3.806   2.049 -0.3567 -1.9101 -1.0539
   58DG      H8 1319   5.208   3.714   2.185 -0.5242 -1.6877 -0.0252
   58DG      O9 1320   4.565   3.719   2.080  0.4847  0.0381  0.1298
   58DG     O10 1321   4.998   3.743   2.182  0.5042  0.4256  0.1988
   58DG     C11 1322   4.545   3.833   2.163  0.4633  0.0893 -0.5760
   58DG     C12 1323   4.997   3.843   2.277  0.9277  0.4968  0.2725
   58DG     H13 1324   4.444   3.829   2.206 -0.6784 -0.7683  2.3708
   58DG     H14 1325   4.560   3.924   2.096 -1.0843 -1.2302  1.8131
   58DG     H15 1326   5.017   3.943   2.236 -1.6464 -0.4848 -0.9738
   58DG     H16 1327   5.062   3.806   2.350  0.3719 -2.5957  3.1196
   58DG     C17 1328   4.639   3.841   2.284  0.2866  0.1675  0.2303
   58DG     C18 1329   4.858   3.844   2.343 -0.3553 -0.2382 -0.8180
   58DG     O19 1330   4.768   3.858   2.240  0.2351  0.5449  0.8992
   58DG     H20 1331   4.621   3.747   2.333  0.6493  0.0526  0.4166
   58DG     H21 1332   4.607   3.927   2.344  0.0966  0.3727 -2.4857
   58DG     H22 1333   4.849   3.744   2.375  3.3164 -1.9304  0.8578
   58DG     H23 1334   4.851   3.915   2.422  0.9406 -1.2589 -0.3237
   59DG      C1 1335   1.728   2.526   4.474  0.2164 -0.2112 -0.1210
   59DG      C2 1336   2.185   2.171   4.896 -0.4285 -0.3087  0.0920
   59DG      H3 1337   1.790   2.523   4.376 -1.8223 -1.0118 -2.5840
   59DG      H4 1338   1.651   2.598   4.470  0.0967  1.6039 -0.9844
   59DG      H5 1339   1.686   2.431   4.500 -0.0336 -0.6454 -2.5874
   59DG      H6 1340   2.219   2.172   4.793  2.8454  3.5382  0.0967
   59DG      H7 1341   2.266   2.214   4.961  2.8547 -0.3730  0.6935
   59DG      H8 1342   2.168   2.067   4.922  2.8484  3.1183  1.5111
   59DG      O9 1343   1.825   2.577   4.568  0.0291  0.1576  0.6123
   59DG     O10 1344   2.065   2.239   4.929 -0.1386 -0.4509  0.5838
   59DG     C11 1345   1.763   2.582   4.696  0.3690  0.5889 -0.3158
   59DG     C12 1346   1.958   2.176   4.867  0.0938  0.1450  0.0126
   59DG     H13 1347   1.678   2.646   4.687  1.8236  0.8539 -1.7989
   59DG     H14 1348   1.817   2.638   4.767 -0.7425  0.3119  1.7194
   59DG     H15 1349   1.931   2.083   4.926 -0.1830 -1.3737  0.0601
   59DG     H16 1350   1.983   2.155   4.756  2.3365  1.0708 -1.9877
   59DG     C17 1351   1.735   2.444   4.760 -1.0964  0.1191 -0.4726
   59DG     C18 1352   1.835   2.272   4.881  0.3381  0.8726 -0.7907
   59DG     O19 1353   1.850   2.372   4.790  0.0177  0.6594  0.5680
   59DG     H20 1354   1.660   2.382   4.712 -0.3825 -1.8529 -3.2544
   59DG     H21 1355   1.677   2.469   4.850 -0.1875  2.7419 -0.1750
   59DG     H22 1356   1.742   2.218   4.855  0.9919  3.1093  0.7020
   59DG     H23 1357   1.836   2.302   4.985  0.3351 -1.9157 -2.2593
   60DG      C1 1358   4.439   1.340   3.206 -0.2020  0.1131  0.3887
   60DG      C2 1359   4.928   1.153   3.287 -0.5319 -0.3434  0.8528
   60DG      H3 1360   4.395   1.280   3.127  0.3721  0.3856  2.0618
   60DG      H4 1361   4.383   1.433   3.224 -1.0583  1.3945  0.4530
   60DG      H5 1362   4.418   1.293   3.297  0.7310  1.0479  0.9074
   60DG      H6 1363   4.845   1.211   3.259  3.0316 -2.0000 -0.5613
   60DG      H7 1364   4.930   1.063   3.221  1.8882 -1.5591  0.8124
   60DG      H8 1365   4.906   1.099   3.385 -0.8087 -2.6356  0.8318
   60DG      O9 1366   4.577   1.360   3.194 -0.5000  0.0122  0.1980
   60DG     O10 1367   5.042   1.235   3.274  0.0955 -0.6437  0.4772
   60DG     C11 1368   4.609   1.475   3.122 -0.0528 -0.5097 -0.8012
   60DG     C12 1369   5.054   1.307   3.153  0.1031  0.9906  0.2430
   60DG     H13 1370   4.541   1.553   3.149  0.0281  0.1607  1.5793
   60DG     H14 1371   4.590   1.461   3.010 -0.1757 -2.2154  0.2634
   60DG     H15 1372   5.020   1.249   3.065  2.5073 -0.4941 -2.2531
   60DG     H16 1373   5.160   1.333   3.147 -2.6132 -0.5895 -1.8657
   60DG     C17 1374   4.744   1.522   3.157 -0.3407 -0.6574  0.0903
   60DG     C18 1375   4.976   1.447   3.150  0.3600  0.8892  0.1356
   60DG     O19 1376   4.838   1.416   3.130 -0.0735 -0.1328 -0.0280
   60DG     H20 1377   4.736   1.545   3.264 -0.5475 -2.6390 -0.1460
   60DG     H21 1378   4.778   1.609   3.108 -0.2233 -2.8290  1.2694
   60DG     H22 1379   5.000   1.494   3.245 -0.7435  2.5241  0.3982
   60DG     H23 1380   5.008   1.505   3.070  0.6637 -1.5844 -1.1310
   61DG      C1 1381   2.063   2.291   0.688 -0.5865 -0.2319 -0.3542
   61DG      C2 1382   2.669   1.978   0.586 -0.4493  0.2742 -0.3641
   61DG      H3 1383   2.008   2.320   0.781 -1.7203 -1.4961  0.5535
   61DG      H4 1384   1.989   2.218   0.649  1.1758  1.7335  2.2352
   61DG      H5 1385   2.055   2.380   0.623  0.7895 -0.6036  0.2124
   61DG      H6 1386   2.762   1.951   0.627 -4.6184  1.0967  3.3269
   61DG      H7 1387   2.600   1.948   0.666 -0.1790 -0.1266  0.3698
   61DG      H8 1388   2.645   1.911   0.502 -0.7422 -1.4346 -1.6432
   61DG      O9 1389   2.193   2.243   0.716 -0.0921 -0.3125  0.1827
   61DG     O10 1390   2.673   2.108   0.535 -0.2356 -0.2915 -0.5051
   61DG     C11 1391   2.283   2.328   0.778  1.2186  0.4041  0.7674
   61DG     C12 1392   2.724   2.209   0.624 -0.5335 -0.2044  0.0006
   61DG     H13 1393   2.236   2.394   0.846  2.7009 -0.5583 -0.2384
   61DG     H14 1394   2.324   2.391   0.699  0.9514 -0.0329 -1.3069
   61DG     H15 1395   2.729   2.302   0.567  0.0177  1.3898 -1.5288
   61DG     H16 1396   2.831   2.211   0.661  1.4379 -1.1606  0.9721
   61DG     C17 1397   2.409   2.260   0.834 -0.5918  0.0540  0.6315
   61DG     C18 1398   2.640   2.229   0.751 -0.0060  0.4321 -0.3184
   61DG     O19 1399   2.499   2.235   0.720 -0.2402  0.5033 -0.4389
   61DG     H20 1400   2.381   2.164   0.875 -2.2505 -2.1238 -1.5743
   61DG     H21 1401   2.458   2.321   0.911  0.5767  0.2333 -0.3956
   61DG     H22 1402   2.657   2.143   0.824 -0.7524 -0.2138  0.4184
   61DG     H23 1403   2.674   2.312   0.810 -0.2826 -0.4060  3.2074
   62DG      C1 1404   1.580   2.758   3.078  0.7922  0.4335 -0.1838
   62DG      C2 1405   1.366   2.452   3.676 -0.0537 -0.4725 -0.3532
   62DG      H3 1406   1.585   2.749   2.970  0.0105 -1.2085  2.1638
   62DG      H4 1407   1.684   2.775   3.108 -0.6615  1.0546 -1.4011
   62DG      H5 1408   1.527   2.846   3.109  1.7712 -1.1476  1.0706
   62DG      H6 1409   1.381   2.540   3.736  1.6585  1.3653 -3.0015
   62DG      H7 1410   1.267   2.460   3.636  0.1677 -0.4701  0.1977
   62DG      H8 1411   1.360   2.372   3.747  0.3095 -0.4600  1.3375
   62DG      O9 1412   1.526   2.644   3.145 -0.0019  0.2817  0.0436
   62DG     O10 1413   1.465   2.424   3.579 -0.2896  0.0786 -0.7413
   62DG     C11 1414   1.609   2.527   3.147 -0.7167  0.1954  0.4805
   62DG     C12 1415   1.447   2.295   3.519  0.1292 -0.1742  0.3494
   62DG     H13 1416   1.698   2.547   3.205 -0.8535 -1.3958 -1.0562
   62DG     H14 1417   1.641   2.525   3.044 -2.7946  1.3303  0.6719
   62DG     H15 1418   1.342   2.285   3.486  0.0350  0.7362  0.6362
   62DG     H16 1419   1.454   2.213   3.591 -0.5599  1.4336  0.9807
   62DG     C17 1420   1.537   2.394   3.187 -0.3850 -0.4726  0.3918
   62DG     C18 1421   1.524   2.287   3.394 -0.0999  0.2266 -0.8710
   62DG     O19 1422   1.490   2.401   3.319 -0.3395 -0.0683 -0.2175
   62DG     H20 1423   1.608   2.306   3.184 -0.5945 -1.4368 -0.6219
   62DG     H21 1424   1.456   2.371   3.121 -1.3197 -0.1836  1.0177
   62DG     H22 1425   1.634   2.285   3.412  0.1198  4.7590 -2.3452
   62DG     H23 1426   1.496   2.205   3.332  1.5286 -3.5100 -1.3979
   63DG      C1 1427   3.385   1.476   2.634  0.2359  0.4109 -0.3706
   63DG      C2 1428   3.154   0.849   2.737 -0.5437  0.2920  0.1122
   63DG      H3 1429   3.328   1.463   2.540 -0.0954 -0.7894 -1.4634
   63DG      H4 1430   3.459   1.555   2.627 -0.6036  2.4243  2.7385
   63DG      H5 1431   3.302   1.514   2.696  0.4113  0.9598  4.1654
   63DG      H6 1432   3.089   0.828   2.652  1.7833  3.1377 -0.1871
   63DG      H7 1433   3.190   0.751   2.773 -3.4218  0.2810 -1.3974
   63DG      H8 1434   3.095   0.894   2.821 -0.7880  0.4239 -0.0583
   63DG      O9 1435   3.444   1.344   2.669 -0.0733 -0.2673 -0.4760
   63DG     O10 1436   3.266   0.933   2.697 -0.0511 -0.7500  0.0363
   63DG     C11 1437   3.543   1.293   2.582 -0.4532 -0.3525 -0.1386
   63DG     C12 1438   3.360   0.944   2.801  0.3104  0.2265 -0.4638
   63DG     H13 1439   3.622   1.366   2.585 -1.5602 -2.6812 -1.4093
   63DG     H14 1440   3.509   1.304   2.477 -0.6606 -1.2155  0.1769
   63DG     H15 1441   3.416   0.854   2.809  0.9024  0.0425 -1.0007
   63DG     H16 1442   3.314   0.953   2.902 -0.2643 -1.1548 -1.3461
   63DG     C17 1443   3.593   1.149   2.621 -0.6298 -0.2264  0.1544
   63DG     C18 1444   3.448   1.065   2.777 -0.4945 -0.1167 -0.2960
   63DG     O19 1445   3.484   1.060   2.642 -0.1423  0.0023  0.2555
   63DG     H20 1446   3.657   1.155   2.712 -1.3372  0.2378  0.6710
   63DG     H21 1447   3.648   1.126   2.534  0.8435  0.9497  0.7576
   63DG     H22 1448   3.406   1.159   2.815  0.4399  0.6344  0.8035
   63DG     H23 1449   3.534   1.049   2.853  2.0756 -0.0535 -0.6730
   64DG      C1 1450   3.299   0.280   3.622  0.1036  0.5782 -0.0218
   64DG      C2 1451   3.033   0.878   3.673 -0.5413  0.2910 -0.7978
   64DG      H3 1452   3.292   0.170   3.607  0.9193 -0.6954 -0.7960
   64DG      H4 1453   3.296   0.301   3.720  2.1932 -0.9572 -1.4258
   64DG      H5 1454   3.390   0.325   3.583  0.6736 -1.2814 -0.0451
   64DG      H6 1455   2.972   0.942   3.617  0.1645  0.7212  2.9648
   64DG      H7 1456   2.979   0.859   3.762  1.5609 -1.2194 -1.2378
   64DG      H8 1457   3.119   0.945   3.700  2.0395  0.1993 -1.1040
   64DG      O9 1458   3.177   0.337   3.567 -0.2268  0.0694 -0.4294
   64DG     O10 1459   3.072   0.766   3.588  0.6479 -0.0152  0.2992
   64DG     C11 1460   3.187   0.332   3.427 -0.5242 -0.8658  0.3242
   64DG     C12 1461   3.146   0.808   3.473  0.2403 -0.4108  0.3621
   64DG     H13 1462   3.141   0.245   3.385 -1.8230 -0.7388  2.1980
   64DG     H14 1463   3.294   0.327   3.396  0.5981 -1.4017 -1.1667
   64DG     H15 1464   3.248   0.838   3.492 -0.7451  0.0521  0.2121
   64DG     H16 1465   3.085   0.884   3.426  0.2112  0.6277 -0.4267
   64DG     C17 1466   3.127   0.458   3.367  0.0620 -0.3719 -0.2948
   64DG     C18 1467   3.139   0.694   3.378 -0.1726 -0.0645 -0.1347
   64DG     O19 1468   3.177   0.569   3.438  0.3774  0.1062  0.0167
   64DG     H20 1469   3.016   0.447   3.363  0.4239  1.2135  1.2334
   64DG     H21 1470   3.158   0.464   3.261  2.4072  2.3591  3.2318
   64DG     H22 1471   3.035   0.697   3.341  0.2090  0.8110 -0.4041
   64DG     H23 1472   3.195   0.702   3.278  2.2354 -0.6981 -3.9526
   65DG      C1 1473   1.048   4.198   4.755 -0.2545  0.5268 -0.4516
   65DG      C2 1474   1.258   3.793   5.267 -0.0297  0.0079  0.3023
   65DG      H3 1475   1.086   4.270   4.678 -0.6297 -0.0633  2.4569
   65DG      H4 1476   1.030   4.263   4.841 -1.6550  0.9309  2.3694
   65DG      H5 1477   0.949   4.147   4.722 -0.7708 -0.4256  2.0759
   65DG      H6 1478   1.236   3.889   5.316  1.7135 -1.2726 -1.0843
   65DG      H7 1479   1.181   3.717   5.287  2.0045  0.2291 -4.1143
   65DG      H8 1480   1.363   3.761   5.309  0.1998  0.3157 -0.2056
   65DG      O9 1481   1.140   4.095   4.799 -0.2119  0.3760  0.3830
   65DG     O10 1482   1.267   3.821   5.135  0.4620  0.1680 -0.2299
   65DG     C11 1483   1.186   4.012   4.687 -0.4497  0.0771 -0.7632
   65DG     C12 1484   1.309   3.713   5.054 -0.2448  0.6131  1.0015
   65DG     H13 1485   1.235   4.072   4.608 -0.2618  1.5760 -1.0444
   65DG     H14 1486   1.102   3.959   4.645  0.7834 -1.5469  0.9501
   65DG     H15 1487   1.229   3.637   5.043 -1.4960  0.7750 -1.2165
   65DG     H16 1488   1.403   3.659   5.081  2.9956 -2.1665  1.1911
   65DG     C17 1489   1.292   3.913   4.742 -0.0400  0.9718 -0.4013
   65DG     C18 1490   1.351   3.759   4.912 -0.4867 -0.3757 -0.1115
   65DG     O19 1491   1.258   3.860   4.873 -0.1699 -0.0583 -0.5578
   65DG     H20 1492   1.385   3.962   4.769 -3.2351 -0.2224 -1.1824
   65DG     H21 1493   1.320   3.836   4.671 -0.3382 -0.9446  0.2233
   65DG     H22 1494   1.452   3.800   4.921  0.2679 -1.3998 -2.1688
   65DG     H23 1495   1.361   3.670   4.847 -2.7943 -2.3184  1.5215
   66DG      C1 1496   3.233   5.442   0.955  0.3596 -1.3411 -0.4326
   66DG      C2 1497   2.530   5.220   0.866 -0.0403 -0.1807 -0.4908
   66DG      H3 1498   3.274   5.346   0.918  1.1448 -0.9644 -1.3113
   66DG      H4 1499   3.291   5.464   1.047 -0.1096  2.2675 -1.3862
   66DG      H5 1500   3.247   5.525   0.884 -1.6407 -1.1047 -0.4633
   66DG      H6 1501   2.505   5.311   0.820  1.4769 -0.2167  0.0819
   66DG      H7 1502   2.557   5.144   0.791 -1.7647  1.3088  1.9984
   66DG      H8 1503   2.451   5.159   0.907  0.3809 -0.7284  1.4460
   66DG      O9 1504   3.099   5.416   0.994  0.0427 -0.4745 -0.4371
   66DG     O10 1505   2.638   5.245   0.954 -0.3416 -0.0723 -0.7263
   66DG     C11 1506   3.028   5.519   1.061  0.0461  0.4576 -0.3279
   66DG     C12 1507   2.610   5.292   1.086 -0.6541 -0.3693 -0.4788
   66DG     H13 1508   2.980   5.581   0.988  0.1638  0.1487 -0.2316
   66DG     H14 1509   3.094   5.576   1.121 -1.8892 -0.1001  0.6079
   66DG     H15 1510   2.543   5.226   1.148  1.2742  2.3924 -0.2006
   66DG     H16 1511   2.551   5.384   1.086  1.4978 -0.7179  1.2479
   66DG     C17 1512   2.927   5.461   1.162 -0.4453 -0.0384 -0.1951
   66DG     C18 1513   2.737   5.320   1.167 -0.0053 -0.3719  0.4479
   66DG     O19 1514   2.825   5.393   1.081 -0.0985  0.1339 -0.1744
   66DG     H20 1515   2.876   5.544   1.203 -1.1291  0.3390 -0.6327
   66DG     H21 1516   2.976   5.402   1.240  1.2771 -0.3811  1.7433
   66DG     H22 1517   2.707   5.371   1.262 -1.6581 -1.2358  0.0776
   66DG     H23 1518   2.780   5.231   1.202  0.0522  0.0519 -2.4972
   67DG      C1 1519   4.131   5.370   3.245 -0.3447 -0.0632  0.3407
   67DG      C2 1520   4.441   5.343   2.670 -0.5140  0.3014 -0.1191
   67DG      H3 1521   4.073   5.314   3.311  2.2021 -0.0556 -0.6903
   67DG      H4 1522   4.124   5.473   3.283  2.3968 -0.3297  0.5283
   67DG      H5 1523   4.232   5.342   3.258  1.2974 -1.3990 -1.1550
   67DG      H6 1524   4.491   5.435   2.655  1.5179  0.9936  0.2479
   67DG      H7 1525   4.498   5.279   2.741  1.5570 -1.4009  0.3897
   67DG      H8 1526   4.452   5.288   2.582 -1.2721 -1.2614  2.5288
   67DG      O9 1527   4.101   5.357   3.108  0.2029 -0.0263 -0.0033
   67DG     O10 1528   4.310   5.344   2.726  0.7194  0.3011  0.3758
   67DG     C11 1529   3.976   5.401   3.061  0.3044 -0.2137 -0.0956
   67DG     C12 1530   4.221   5.428   2.653 -0.4829  0.3538  0.0152
   67DG     H13 1531   3.942   5.495   3.108 -0.4821  1.1642  1.3336
   67DG     H14 1532   3.891   5.337   3.085  1.3316 -0.9959 -1.2443
   67DG     H15 1533   4.214   5.398   2.553 -1.9191  0.7611  2.0454
   67DG     H16 1534   4.257   5.527   2.640 -2.5227 -0.1036  1.9551
   67DG     C17 1535   3.964   5.396   2.916 -0.0839 -0.4366 -0.3437
   67DG     C18 1536   4.087   5.417   2.715  0.0503  0.2737  0.7211
   67DG     O19 1537   4.085   5.429   2.858 -0.0161  0.2357 -0.0510
   67DG     H20 1538   3.881   5.460   2.875  0.2494 -3.7608  4.1299
   67DG     H21 1539   3.937   5.296   2.896  0.0168  1.1713 -1.0222
   67DG     H22 1540   4.019   5.494   2.688 -0.4849 -2.6680 -2.1310
   67DG     H23 1541   4.042   5.323   2.690 -0.9263 -2.7744 -1.3543
   68DG      C1 1542   0.118   2.548   3.168  0.4409 -0.2569 -0.8020
   68DG      C2 1543   0.522   2.392   3.639  0.5668  0.3003 -0.6326
   68DG      H3 1544   0.085   2.618   3.245 -1.0524 -0.3577  1.0559
   68DG      H4 1545   0.041   2.550   3.085 -1.5316 -2.6076  2.8887
   68DG      H5 1546   0.207   2.602   3.133 -0.8922  1.1710 -0.7180
   68DG      H6 1547   0.590   2.437   3.567  0.9824 -0.2390 -1.2189
   68DG      H7 1548   0.482   2.468   3.709  1.0202 -0.9619 -2.1938
   68DG      H8 1549   0.581   2.316   3.697  1.0451 -2.2460 -1.9478
   68DG      O9 1550   0.147   2.411   3.211  0.4383 -0.0946 -0.2499
   68DG     O10 1551   0.436   2.321   3.554  0.1221  0.4167 -0.1194
   68DG     C11 1552   0.045   2.347   3.284  0.5294  0.1421 -0.1684
   68DG     C12 1553   0.352   2.247   3.634  0.1312 -0.0725 -0.6589
   68DG     H13 1554  -0.033   2.307   3.204 -1.3234  0.1766 -1.5014
   68DG     H14 1555  -0.009   2.421   3.345  0.8973 -1.6439  0.5490
   68DG     H15 1556   0.303   2.311   3.702  0.2819 -0.4249 -0.8845
   68DG     H16 1557   0.400   2.179   3.704  3.8845 -0.9772 -0.0929
   68DG     C17 1558   0.116   2.232   3.356 -0.1332  0.3854  0.3799
   68DG     C18 1559   0.248   2.178   3.540  0.3338 -0.8204 -0.5506
   68DG     O19 1560   0.199   2.280   3.451 -0.3936 -0.3067 -0.3663
   68DG     H20 1561   0.171   2.182   3.279  0.1972  0.7920 -1.2978
   68DG     H21 1562   0.047   2.159   3.403  0.5593  3.2407  0.8812
   68DG     H22 1563   0.293   2.101   3.481 -0.0481  3.4159 -2.3750
   68DG     H23 1564   0.169   2.137   3.598  0.7529  0.6030  0.4281
   69DG      C1 1565   0.295   0.770   1.305 -0.3198  0.2814  0.1362
   69DG      C2 1566   0.619   0.780   0.743 -0.0816 -0.3591  0.2940
   69DG      H3 1567   0.309   0.799   1.409  1.7892 -3.0760 -0.0019
   69DG      H4 1568   0.365   0.688   1.287  1.8910  1.8018 -0.1577
   69DG      H5 1569   0.190   0.745   1.287 -0.0770 -1.8577  2.0190
   69DG      H6 1570   0.551   0.706   0.708  0.3516 -0.5994 -0.6437
   69DG      H7 1571   0.660   0.825   0.651  1.1759 -2.9702  0.4354
   69DG      H8 1572   0.703   0.720   0.780 -2.4111 -2.5299  0.1382
   69DG      O9 1573   0.311   0.869   1.205  0.1752  0.0309 -0.3934
   69DG     O10 1574   0.565   0.865   0.847  0.2917 -0.7984  0.5892
   69DG     C11 1575   0.331   1.000   1.251 -0.7516 -0.3702  0.1969
   69DG     C12 1576   0.662   0.950   0.904  0.3737  0.4963 -0.0104
   69DG     H13 1577   0.400   1.003   1.336  1.0305  2.2794 -0.2195
   69DG     H14 1578   0.245   1.058   1.275 -1.6407  0.1198  1.4065
   69DG     H15 1579   0.732   0.995   0.835 -1.3573  0.5331  3.4403
   69DG     H16 1580   0.723   0.898   0.975  1.9243  0.9556 -1.4775
   69DG     C17 1581   0.398   1.081   1.139  0.4997 -0.1427  0.4375
   69DG     C18 1582   0.581   1.057   0.979  0.3889 -0.1728  0.7123
   69DG     O19 1583   0.492   0.995   1.070 -0.3316  0.4243 -0.4193
   69DG     H20 1584   0.436   1.175   1.173  0.4903 -1.3104  0.7130
   69DG     H21 1585   0.313   1.098   1.077 -0.7299 -1.2346  0.9188
   69DG     H22 1586   0.660   1.111   1.022 -1.3667  1.5505 -0.9012
   69DG     H23 1587   0.527   1.121   0.904 -2.7190 -1.6082 -4.2730
   70DG      C1 1588   4.807   3.576   3.618 -0.0528 -0.1645  0.5775
   70DG      C2 1589   4.893   3.723   4.286  0.0117 -0.6936 -0.0467
   70DG      H3 1590   4.911   3.564   3.642  0.8097 -0.2141 -0.1550
   70DG      H4 1591   4.799   3.684   3.594 -2.0572  1.6483  0.2267
   70DG      H5 1592   4.761   3.521   3.541  0.4735  1.1658 -2.7461
   70DG      H6 1593   5.003   3.710   4.279 -0.5187  0.9810  2.6545
   70DG      H7 1594   4.860   3.824   4.280  3.4132  1.6779  0.4309
   70DG      H8 1595   4.874   3.682   4.387  2.1285 -1.4038 -3.6013
   70DG      O9 1596   4.746   3.536   3.746 -1.0656  0.7348  0.4040
   70DG     O10 1597   4.826   3.649   4.185 -0.0020  0.5042 -0.1430
   70DG     C11 1598   4.608   3.566   3.750  0.5932 -0.0072 -0.0408
   70DG     C12 1599   4.687   3.631   4.213  0.6094 -0.4934 -0.3703
   70DG     H13 1600   4.551   3.508   3.672  0.2277  0.8222  0.7457
   70DG     H14 1601   4.586   3.673   3.738  0.6214 -0.6758  1.9617
   70DG     H15 1602   4.640   3.731   4.203 -1.0731  0.1916 -1.2816
   70DG     H16 1603   4.670   3.596   4.309  1.8302  0.6966  0.9679
   70DG     C17 1604   4.571   3.508   3.881  0.8033  0.0724 -0.1051
   70DG     C18 1605   4.610   3.541   4.118  0.3070 -0.4956  0.6343
   70DG     O19 1606   4.616   3.591   3.987 -0.6231 -0.1411  0.5925
   70DG     H20 1607   4.608   3.407   3.897  0.2790 -0.8343  0.1041
   70DG     H21 1608   4.458   3.505   3.884  1.1026 -2.0908 -1.0403
   70DG     H22 1609   4.657   3.448   4.136  1.4499 -0.5799 -0.1678
   70DG     H23 1610   4.505   3.530   4.159 -0.1699  1.7961  3.9144
   71DG      C1 1611   5.045   4.924   4.556 -0.7517  0.0736 -0.4493
   71DG      C2 1612   4.393   5.014   4.479  0.3978 -0.3847  0.6790
   71DG      H3 1613   5.029   4.848   4.474  3.9217 -1.5774 -0.6983
   71DG      H4 1614   5.026   4.866   4.646 -2.4883  1.4291 -0.7683
   71DG      H5 1615   5.147   4.947   4.545 -0.0601  3.2092  0.0494
   71DG      H6 1616   4.351   4.974   4.571  0.6182  2.4193 -0.1140
   71DG      H7 1617   4.308   5.070   4.429 -2.0461  1.8189  0.8082
   71DG      H8 1618   4.433   4.936   4.419 -3.6452 -0.8583 -0.2394
   71DG      O9 1619   4.957   5.028   4.535  0.2753 -0.4903 -0.4629
   71DG     O10 1620   4.498   5.103   4.503  0.5961 -0.3286 -0.2317
   71DG     C11 1621   4.964   5.137   4.626 -0.1708 -0.3672  0.5034
   71DG     C12 1622   4.489   5.180   4.622  0.0174 -0.2251 -0.3502
   71DG     H13 1623   5.065   5.171   4.596  0.4091 -2.7327 -0.0533
   71DG     H14 1624   4.981   5.098   4.727  4.0535  3.0041  0.1408
   71DG     H15 1625   4.484   5.121   4.718  2.1084  0.7987  1.0984
   71DG     H16 1626   4.392   5.230   4.610  2.6515  1.1527  1.0932
   71DG     C17 1627   4.850   5.243   4.622  0.6118  0.0564  0.4984
   71DG     C18 1628   4.612   5.266   4.640  0.5530  0.0373  0.5383
   71DG     O19 1629   4.729   5.174   4.646  0.2820  0.2007 -0.9408
   71DG     H20 1630   4.847   5.285   4.522 -1.0167  1.4618 -0.4154
   71DG     H21 1631   4.866   5.308   4.708 -0.9576  2.1862 -1.2940
   71DG     H22 1632   4.616   5.328   4.552  1.4686 -1.0071  1.5584
   71DG     H23 1633   4.605   5.329   4.730 -3.5864  0.3835  0.2157
   72DG      C1 1634   2.607   5.494   4.572 -0.1587  0.0016  0.3067
   72DG      C2 1635   3.023   5.791   5.007  0.4228  0.0827 -0.7995
   72DG      H3 1636   2.582   5.572   4.501 -1.4377 -0.6570  1.8963
   72DG      H4 1637   2.535   5.413   4.574  0.7716 -0.4374  1.4938
   72DG      H5 1638   2.697   5.440   4.533 -0.8259 -0.8338 -0.6474
   72DG      H6 1639   3.070   5.842   5.090 -0.2526  1.7570 -0.0512
   72DG      H7 1640   3.017   5.684   5.035  1.6042 -0.1343 -1.6613
   72DG      H8 1641   3.092   5.786   4.932 -2.6861 -0.0731  0.1473
   72DG      O9 1642   2.637   5.554   4.708 -0.0447  0.4797 -0.5751
   72DG     O10 1643   2.903   5.853   4.955  0.1072 -0.1493  0.0033
   72DG     C11 1644   2.516   5.574   4.785  0.1092  0.2008 -0.6861
   72DG     C12 1645   2.804   5.871   5.053 -0.0247 -0.4285 -0.4515
   72DG     H13 1646   2.470   5.475   4.795 -0.1340 -0.6513 -0.2082
   72DG     H14 1647   2.457   5.639   4.721  2.7869  0.1835 -0.5795
   72DG     H15 1648   2.745   5.961   5.039  1.9715 -1.9110  0.2671
   72DG     H16 1649   2.841   5.889   5.152  0.8990  1.5121  1.3303
   72DG     C17 1650   2.573   5.622   4.919  0.2351  0.2489 -0.5182
   72DG     C18 1651   2.709   5.745   5.054  0.0140 -0.1681 -0.0477
   72DG     O19 1652   2.668   5.724   4.919 -0.5854 -0.2521  0.4393
   72DG     H20 1653   2.610   5.535   4.961 -2.2986 -1.3965 -0.0131
   72DG     H21 1654   2.496   5.648   4.989  0.3881 -1.0262  0.5052
   72DG     H22 1655   2.760   5.656   5.085 -1.1610 -0.1553  1.6106
   72DG     H23 1656   2.630   5.755   5.129  2.9229 -2.4044 -0.8622
   73DG      C1 1657   1.860   0.513   4.184  0.6396 -0.0359 -0.7374
   73DG      C2 1658   1.706   0.748   3.649 -0.5124 -0.5823  0.0976
   73DG      H3 1659   1.961   0.525   4.167  1.8375  0.0214  0.3227
   73DG      H4 1660   1.849   0.455   4.267 -1.5022  4.4386  1.5738
   73DG      H5 1661   1.818   0.614   4.210 -0.9697  3.0627  0.6869
   73DG      H6 1662   1.802   0.798   3.630 -1.4136 -0.7810 -1.2864
   73DG      H7 1663   1.654   0.757   3.550  1.8985 -0.0458  1.6554
   73DG      H8 1664   1.657   0.802   3.725 -0.0707  2.4995 -0.4441
   73DG      O9 1665   1.805   0.453   4.069  0.0492 -0.0594  0.1142
   73DG     O10 1666   1.714   0.612   3.697  0.0708  0.2609  0.4267
   73DG     C11 1667   1.673   0.399   4.100 -0.3569  0.1361  0.7657
   73DG     C12 1668   1.578   0.550   3.705 -0.4209  0.1052 -0.3154
   73DG     H13 1669   1.608   0.467   4.159 -0.8994 -0.9482  1.3058
   73DG     H14 1670   1.693   0.301   4.152 -1.1171  1.3787 -1.6019
   73DG     H15 1671   1.526   0.572   3.611  0.1309  0.8555  0.0861
   73DG     H16 1672   1.516   0.603   3.779  0.5902 -0.2183 -0.5635
   73DG     C17 1673   1.591   0.381   3.971 -0.8321  0.3236  0.3801
   73DG     C18 1674   1.606   0.400   3.732 -0.6626  0.4401 -1.0969
   73DG     O19 1675   1.677   0.381   3.856 -0.0827 -0.4363 -0.4124
   73DG     H20 1676   1.524   0.461   3.946 -0.5155 -0.0512 -1.8343
   73DG     H21 1677   1.537   0.288   3.970  1.7583  0.7902 -0.5583
   73DG     H22 1678   1.515   0.336   3.733  1.6938  0.7768 -1.5459
   73DG     H23 1679   1.670   0.353   3.652  0.2764  3.8299 -1.6972
   74DG      C1 1680   4.030   1.303   3.302  0.8373  0.0455  0.0403
   74DG      C2 1681   3.424   1.454   3.423 -0.4029 -0.1538 -0.3840
   74DG      H3 1682   4.107   1.229   3.323 -2.1770  0.1837 -0.9680
   74DG      H4 1683   4.073   1.403   3.302 -1.3701 -0.5554 -0.6207
   74DG      H5 1684   4.006   1.287   3.198 -0.2427 -0.1850  0.8241
   74DG      H6 1685   3.319   1.444   3.428 -5.7853 -0.0938 -0.0643
   74DG      H7 1686   3.446   1.555   3.465 -0.0058 -0.1022 -0.7069
   74DG      H8 1687   3.454   1.456   3.326 -0.0346  1.1532  2.5338
   74DG      O9 1688   3.926   1.276   3.392  0.3380  0.4384 -0.1041
   74DG     O10 1689   3.488   1.342   3.489 -0.2427  0.1316 -0.2278
   74DG     C11 1690   3.956   1.290   3.533  0.5764  0.0798  0.2289
   74DG     C12 1691   3.505   1.355   3.631  0.0779  0.4737 -0.3502
   74DG     H13 1692   3.973   1.399   3.555  1.4282  2.5585 -0.7344
   74DG     H14 1693   4.050   1.241   3.560  0.2605  0.9383  0.6450
   74DG     H15 1694   3.412   1.333   3.678 -2.1664 -1.4380 -3.0990
   74DG     H16 1695   3.536   1.454   3.670  0.2347  1.3568 -0.8884
   74DG     C17 1696   3.847   1.224   3.609  0.1875  0.7728 -0.0871
   74DG     C18 1697   3.609   1.257   3.667 -0.0882 -0.1425  0.2531
   74DG     O19 1698   3.729   1.314   3.617  0.0616 -0.2599 -0.5420
   74DG     H20 1699   3.865   1.211   3.716 -2.2987  0.4570 -0.9715
   74DG     H21 1700   3.820   1.127   3.567 -0.7384  1.4735 -0.7394
   74DG     H22 1701   3.622   1.254   3.767 -2.2334 -0.4409 -1.2752
   74DG     H23 1702   3.591   1.160   3.630 -0.0526  1.6886  1.7495
   75DG      C1 1703   4.606   1.373   3.537 -0.4952 -0.4611  0.0953
   75DG      C2 1704   4.875   1.681   4.145  0.6639  0.2947 -0.0597
   75DG      H3 1705   4.568   1.476   3.501  1.0657 -1.2598 -2.6537
   75DG      H4 1706   4.533   1.300   3.507 -2.0503  0.3637 -0.5357
   75DG      H5 1707   4.711   1.359   3.509  0.5275  1.3730  0.2475
   75DG      H6 1708   4.973   1.658   4.118  0.2240 -0.6636 -1.8183
   75DG      H7 1709   4.865   1.790   4.144 -1.3259  3.1924  1.2137
   75DG      H8 1710   4.856   1.652   4.249 -0.6125  3.6755 -1.4022
   75DG      O9 1711   4.603   1.381   3.678  0.0745 -0.0637 -0.2164
   75DG     O10 1712   4.773   1.612   4.074 -0.0852 -0.5071 -0.4652
   75DG     C11 1713   4.468   1.423   3.717 -0.4368 -0.0592  0.0592
   75DG     C12 1714   4.644   1.666   4.099  1.0129  0.6257 -1.0031
   75DG     H13 1715   4.394   1.353   3.678 -2.6807  0.5891 -0.3464
   75DG     H14 1716   4.445   1.519   3.670  0.7956 -3.5628  0.8337
   75DG     H15 1717   4.626   1.754   4.037  2.5920  1.0094  1.8560
   75DG     H16 1718   4.627   1.685   4.207 -0.1078 -2.6715 -0.0462
   75DG     C17 1719   4.456   1.450   3.872 -0.5350 -0.1500  0.5325
   75DG     C18 1720   4.537   1.565   4.050  0.2171 -0.4036 -0.1745
   75DG     O19 1721   4.557   1.538   3.912 -0.1545  0.1262 -0.1840
   75DG     H20 1722   4.455   1.353   3.921  1.4621 -0.4435  2.1322
   75DG     H21 1723   4.363   1.492   3.883 -0.0774 -2.0805 -1.2493
   75DG     H22 1724   4.549   1.476   4.110  0.0335 -1.0684  0.3957
   75DG     H23 1725   4.434   1.594   4.077  0.5623  1.3086  0.3140
   76DG      C1 1726   2.882   5.257   5.192  0.0307 -0.0695  0.0112
   76DG      C2 1727   2.949   5.078   4.552  0.3227  0.7183  0.6900
   76DG      H3 1728   2.898   5.352   5.143 -0.5286 -3.2956 -0.6584
   76DG      H4 1729   2.983   5.203   5.220  0.5031 -2.0183 -0.0874
   76DG      H5 1730   2.819   5.261   5.279 -1.8756 -0.7735 -4.8175
   76DG      H6 1731   3.048   5.029   4.570 -0.0144  1.4634 -3.2000
   76DG      H7 1732   2.914   5.034   4.460 -1.3436 -0.7122  3.0876
   76DG      H8 1733   2.974   5.187   4.546  1.4357  0.1234 -0.8801
   76DG      O9 1734   2.816   5.170   5.100  0.6363  0.4449 -0.0203
   76DG     O10 1735   2.855   5.055   4.656 -0.3007 -0.5031 -0.3614
   76DG     C11 1736   2.673   5.200   5.097  0.7108  0.3325 -0.0097
   76DG     C12 1737   2.718   5.092   4.630 -0.0986 -0.1389 -0.2095
   76DG     H13 1738   2.655   5.312   5.085  1.6132  0.2556  1.6890
   76DG     H14 1739   2.626   5.173   5.194  0.3415  2.0684  0.9710
   76DG     H15 1740   2.680   5.028   4.542  1.8015 -3.0529 -4.4714
   76DG     H16 1741   2.700   5.198   4.613 -0.2423  0.9411  1.0007
   76DG     C17 1742   2.608   5.118   4.984 -0.4431  0.6869 -0.5349
   76DG     C18 1743   2.640   5.056   4.756 -0.1907 -0.3067  0.7559
   76DG     O19 1744   2.689   5.143   4.866 -0.0904  0.2316 -0.1377
   76DG     H20 1745   2.500   5.143   4.981 -0.7468 -1.1913  0.3194
   76DG     H21 1746   2.617   5.016   5.014 -0.3542  0.7399 -1.9132
   76DG     H22 1747   2.528   5.064   4.741 -1.5491  1.5574 -2.7383
   76DG     H23 1748   2.651   4.952   4.764 -1.5666 -0.4820 -1.3792
   77DG      C1 1749   2.384   1.952   4.168 -0.2310 -0.6851 -1.6055
   77DG      C2 1750   2.516   2.597   4.218 -0.3808  0.2738  0.1409
   77DG      H3 1751   2.311   1.880   4.140  0.4681  0.0948  0.4200
   77DG      H4 1752   2.417   1.945   4.272  1.9241  1.7547 -2.5736
   77DG      H5 1753   2.466   1.931   4.105  2.9880 -0.7309  1.1708
   77DG      H6 1754   2.499   2.697   4.253 -1.8478  0.5215 -1.1213
   77DG      H7 1755   2.565   2.543   4.304  3.3941 -3.5593  1.4270
   77DG      H8 1756   2.584   2.575   4.137  2.9808  0.2740  3.3992
   77DG      O9 1757   2.330   2.082   4.143 -0.1656 -0.0082  0.1601
   77DG     O10 1758   2.389   2.536   4.198 -0.2584  0.7260  0.0577
   77DG     C11 1759   2.278   2.090   4.012 -0.1025  0.2456 -0.9507
   77DG     C12 1760   2.330   2.554   4.073 -0.1447 -0.2666  0.2769
   77DG     H13 1761   2.216   1.998   3.986 -1.9173  1.4782  1.0639
   77DG     H14 1762   2.363   2.084   3.942 -0.1170 -1.3733  0.8194
   77DG     H15 1763   2.403   2.547   3.987  1.2776  0.2522 -1.5660
   77DG     H16 1764   2.283   2.658   4.065  1.0808  0.5530 -2.0158
   77DG     C17 1765   2.197   2.223   3.994  0.4317  0.7486 -0.1865
   77DG     C18 1766   2.221   2.452   4.049 -0.6937 -0.2231  0.1492
   77DG     O19 1767   2.279   2.323   4.035  0.2807 -0.1811  0.6150
   77DG     H20 1768   2.101   2.234   4.041 -0.0918 -1.7539 -0.0343
   77DG     H21 1769   2.176   2.225   3.886 -0.1615 -0.8622  0.0228
   77DG     H22 1770   2.156   2.460   4.136 -1.2912  1.5130  1.5636
   77DG     H23 1771   2.159   2.474   3.963 -1.9251  0.4775  0.8411
   78DG      C1 1772   0.036   0.916   0.966 -0.1833  0.1730  0.1776
   78DG      C2 1773   0.623   0.671   1.151  0.6467 -0.6606  0.0066
   78DG      H3 1774   0.124   0.980   0.972 -0.2541 -0.3581 -0.5989
   78DG      H4 1775  -0.004   0.898   1.064  1.6023 -1.3083 -1.6287
   78DG      H5 1776  -0.031   0.962   0.895  1.9171 -0.5056 -0.0024
   78DG      H6 1777   0.600   0.632   1.249 -1.7838  0.0176  1.0739
   78DG      H7 1778   0.712   0.631   1.109 -1.4377 -1.3368 -0.5929
   78DG      H8 1779   0.641   0.780   1.165  1.4078 -0.4569  1.9200
   78DG      O9 1780   0.103   0.799   0.905  0.0505  0.1896 -0.0169
   78DG     O10 1781   0.520   0.661   1.060  0.8453  0.7055 -0.2635
   78DG     C11 1782   0.032   0.674   0.933 -0.1072 -0.1598  0.0701
   78DG     C12 1783   0.475   0.530   1.049 -0.4232  0.1900 -0.2897
   78DG     H13 1784  -0.057   0.663   0.876 -2.2147 -1.4522 -1.9782
   78DG     H14 1785   0.012   0.669   1.042 -1.2983  2.1884 -1.5439
   78DG     H15 1786   0.452   0.510   1.153  3.2066  2.8433 -2.9153
   78DG     H16 1787   0.559   0.468   1.017  0.1682  1.1931  0.5415
   78DG     C17 1788   0.129   0.559   0.894  0.6880  0.2527 -0.6029
   78DG     C18 1789   0.365   0.493   0.944 -0.2335  0.1054  0.4109
   78DG     O19 1790   0.248   0.579   0.979  0.3444 -0.8017 -0.1949
   78DG     H20 1791   0.159   0.571   0.791  2.7517 -1.4546 -0.8854
   78DG     H21 1792   0.084   0.456   0.912 -1.2736 -2.2112 -2.8262
   78DG     H22 1793   0.392   0.519   0.844  0.8958  1.6582 -1.4560
   78DG     H23 1794   0.325   0.390   0.950 -2.1930  0.6858  2.4174
   79DG      C1 1795   0.235   2.106   4.008 -0.3738  0.4564 -0.3554
   79DG      C2 1796   0.059   2.599   4.408 -0.3396 -0.1494 -0.3642
   79DG      H3 1797   0.140   2.056   4.046 -0.7548 -0.0288  1.5978
   79DG      H4 1798   0.324   2.058   4.047  3.9858  0.2032 -3.2113
   79DG      H5 1799   0.231   2.093   3.900 -0.8472  2.4389  0.2725
   79DG      H6 1800   0.131   2.581   4.486  2.1841 -1.2840 -1.1858
   79DG      H7 1801   0.016   2.701   4.413  2.5459  0.7643 -0.1739
   79DG      H8 1802  -0.033   2.543   4.420  1.3367  1.1382  0.4461
   79DG      O9 1803   0.249   2.245   4.045 -0.0421  0.4053  0.6236
   79DG     O10 1804   0.110   2.576   4.276 -0.6850  0.4573  0.4517
   79DG     C11 1805   0.386   2.281   4.049 -0.0501 -0.0811  0.1318
   79DG     C12 1806   0.210   2.677   4.247 -0.2053  0.1440  0.2040
   79DG     H13 1807   0.438   2.240   3.959  1.6812  1.9516  0.4686
   79DG     H14 1808   0.428   2.251   4.143 -1.6972  1.1994  0.0145
   79DG     H15 1809   0.282   2.678   4.326 -0.0903 -0.5160 -1.9389
   79DG     H16 1810   0.165   2.777   4.247 -1.7580  3.5968 -2.3954
   79DG     C17 1811   0.387   2.433   4.028  0.2629  0.0367 -0.2541
   79DG     C18 1812   0.269   2.617   4.120  0.0447 -0.7684  0.4105
   79DG     O19 1813   0.320   2.490   4.144  0.7138  0.3322  0.2766
   79DG     H20 1814   0.343   2.450   3.927 -1.3943 -1.2394  0.0418
   79DG     H21 1815   0.480   2.479   4.029 -0.3188 -1.3758 -0.7717
   79DG     H22 1816   0.183   2.612   4.053  1.3215  3.5714 -1.2166
   79DG     H23 1817   0.351   2.680   4.092 -0.5511 -0.9683  1.7795
   80DG      C1 1818   0.835   2.055   1.869 -0.1046  0.5751  0.4592
   80DG      C2 1819   0.201   2.304   1.694  0.3630  0.7432 -0.1150
   80DG      H3 1820   0.868   2.145   1.823 -0.6060 -0.9955  1.5505
   80DG      H4 1821   0.823   1.983   1.791 -0.8645  0.7205 -1.8154
   80DG      H5 1822   0.911   2.019   1.944 -0.3393  0.1038  0.4375
   80DG      H6 1823   0.106   2.270   1.713  0.9566 -1.5896  1.7276
   80DG      H7 1824   0.209   2.408   1.723 -1.4256 -2.1016 -1.0856
   80DG      H8 1825   0.232   2.294   1.591  1.6875 -1.5721 -1.5338
   80DG      O9 1826   0.715   2.099   1.923 -0.1038  0.5428  0.1079
   80DG     O10 1827   0.289   2.237   1.773  0.0174  0.4215 -0.3175
   80DG     C11 1828   0.729   2.200   2.029 -0.3185  0.4777  0.6259
   80DG     C12 1829   0.264   2.279   1.911 -0.4123 -0.5206 -1.0083
   80DG     H13 1830   0.770   2.295   1.989 -0.2539 -1.0934 -1.5393
   80DG     H14 1831   0.800   2.177   2.106  0.3007  1.5491  1.6697
   80DG     H15 1832   0.160   2.263   1.940  0.7710 -2.7803  1.2588
   80DG     H16 1833   0.265   2.385   1.930  0.4710 -1.2622  1.1720
   80DG     C17 1834   0.593   2.220   2.090  0.6493 -0.2525  0.2229
   80DG     C18 1835   0.358   2.220   2.020  0.2794 -0.9019  0.8489
   80DG     O19 1836   0.498   2.226   1.980 -0.1588  0.4336 -0.1744
   80DG     H20 1837   0.595   2.319   2.142 -1.2202  1.4522  2.7715
   80DG     H21 1838   0.559   2.143   2.163 -2.0172 -1.4088  0.4716
   80DG     H22 1839   0.337   2.281   2.111  0.2001  1.7250  3.0980
   80DG     H23 1840   0.333   2.121   2.043  2.7635  2.9638  0.6384
   81DG      C1 1841   2.310   1.659   1.383  0.0412  0.0260 -0.0358
   81DG      C2 1842   2.391   1.395   0.773  0.1040 -0.5718  0.1062
   81DG      H3 1843   2.380   1.594   1.429 -1.3873  2.4166 -2.5146
   81DG      H4 1844   2.216   1.601   1.372  0.4532  0.0435 -0.4035
   81DG      H5 1845   2.296   1.750   1.440 -0.3279  2.8024  0.1091
   81DG      H6 1846   2.287   1.426   0.740 -0.2689 -1.4802  1.0339
   81DG      H7 1847   2.457   1.386   0.684 -1.4269  1.0492  0.5763
   81DG      H8 1848   2.381   1.291   0.796 -1.4608  0.7069 -0.8532
   81DG      O9 1849   2.376   1.693   1.261 -0.1805 -0.3984  0.3890
   81DG     O10 1850   2.451   1.468   0.879  0.7267 -0.1098 -0.0828
   81DG     C11 1851   2.503   1.768   1.283  0.5668  0.4026 -0.0664
   81DG     C12 1852   2.498   1.590   0.836 -0.3447 -0.2313  0.9938
   81DG     H13 1853   2.557   1.758   1.383  3.2586  3.4394  2.2324
   81DG     H14 1854   2.472   1.867   1.258  0.8022  0.9897 -0.2403
   81DG     H15 1855   2.422   1.659   0.803  0.6423 -0.4831 -1.0848
   81DG     H16 1856   2.565   1.563   0.753  3.6351  0.7803  0.7617
   81DG     C17 1857   2.597   1.734   1.168 -0.0855 -0.1063 -0.3873
   81DG     C18 1858   2.598   1.650   0.938 -0.0527 -0.0456 -0.1701
   81DG     O19 1859   2.520   1.686   1.057  0.2908  0.3090  0.4935
   81DG     H20 1860   2.669   1.657   1.192  1.2106  1.7594 -0.8545
   81DG     H21 1861   2.660   1.825   1.138  2.6468 -0.1078  1.1648
   81DG     H22 1862   2.680   1.585   0.976  1.5512 -1.0462  0.6534
   81DG     H23 1863   2.647   1.738   0.901  0.9239  3.6695 -1.1530
   82DG      C1 1864   5.135   4.039   0.182 -0.3181 -0.0374 -0.3989
   82DG      C2 1865   5.156   3.373   0.460 -0.0086  0.1878 -0.5570
   82DG      H3 1866   5.062   4.036   0.101 -1.4092 -0.3391  0.2150
   82DG      H4 1867   5.217   4.112   0.154 -0.2188  0.2451  1.1988
   82DG      H5 1868   5.080   4.064   0.269 -4.1642  4.4406 -0.2184
   82DG      H6 1869   5.197   3.273   0.451 -0.1664  1.8984  0.3049
   82DG      H7 1870   5.177   3.418   0.560  0.7388  3.2157  0.6084
   82DG      H8 1871   5.048   3.356   0.457  1.7081  1.7882  2.2351
   82DG      O9 1872   5.187   3.907   0.193 -0.8393  0.1418 -0.3377
   82DG     O10 1873   5.194   3.456   0.361 -0.1681 -0.3383  0.4240
   82DG     C11 1874   5.225   3.855   0.069  0.4166 -0.3017  0.4817
   82DG     C12 1875   5.174   3.413   0.225 -0.7050  0.5002 -0.0571
   82DG     H13 1876   5.297   3.917   0.017 -0.1748  1.2781 -2.2643
   82DG     H14 1877   5.134   3.850   0.013  1.7466  0.5479  0.2545
   82DG     H15 1878   5.072   3.428   0.191 -0.2899  4.5109 -1.2348
   82DG     H16 1879   5.210   3.307   0.209  2.2824 -1.7305 -0.4713
   82DG     C17 1880   5.291   3.719   0.072  0.5096 -0.2704  0.3361
   82DG     C18 1881   5.254   3.503   0.132 -0.0763 -0.2716 -0.5575
   82DG     O19 1882   5.205   3.632   0.146 -0.0415 -0.5004 -0.1564
   82DG     H20 1883   5.390   3.721   0.115 -3.4785 -0.7820  0.3653
   82DG     H21 1884   5.292   3.681  -0.032 -1.2555  2.4717 -1.2711
   82DG     H22 1885   5.357   3.491   0.157 -0.4594  1.3452  1.1831
   82DG     H23 1886   5.244   3.471   0.032  1.7514  0.2286 -0.0515
   83DG      C1 1887   3.966   1.663   1.083 -0.0051  0.2977 -0.3677
   83DG      C2 1888   4.353   1.171   1.421 -0.0366  0.0689  0.1524
   83DG      H3 1889   4.018   1.738   1.145 -0.7105  2.2932 -2.6085
   83DG      H4 1890   3.868   1.706   1.048 -1.2559  2.0425  0.3104
   83DG      H5 1891   4.017   1.659   0.995  0.9606  2.3250  2.5605
   83DG      H6 1892   4.410   1.113   1.349  1.3259  2.9580  1.0718
   83DG      H7 1893   4.406   1.260   1.437 -2.1776  2.2139 -1.6962
   83DG      H8 1894   4.358   1.122   1.517  1.8104  0.5544  0.0186
   83DG      O9 1895   3.966   1.542   1.160  0.4632 -0.2665 -0.0483
   83DG     O10 1896   4.219   1.208   1.383  0.5700  0.3177 -0.3931
   83DG     C11 1897   3.883   1.443   1.101  0.2471 -0.2456 -0.3375
   83DG     C12 1898   4.128   1.104   1.365 -0.4288  0.4096  0.1353
   83DG     H13 1899   3.926   1.424   1.007 -1.1784 -0.5609 -0.9993
   83DG     H14 1900   3.780   1.500   1.104 -2.3955  1.3016 -1.1665
   83DG     H15 1901   4.104   1.047   1.461 -1.3445  0.0238  1.0455
   83DG     H16 1902   4.144   1.030   1.289  1.3653  1.4201 -1.1568
   83DG     C17 1903   3.867   1.326   1.201 -0.4878  0.7742  0.0509
   83DG     C18 1904   3.991   1.159   1.315  0.3571  0.5724  0.2751
   83DG     O19 1905   3.997   1.271   1.230 -0.4339 -0.6331  0.6926
   83DG     H20 1906   3.811   1.243   1.156 -1.3633 -0.3565  0.8362
   83DG     H21 1907   3.826   1.343   1.300  2.1853 -0.9217  1.2705
   83DG     H22 1908   3.923   1.086   1.267 -3.3747  3.1034  1.1024
   83DG     H23 1909   3.940   1.195   1.406 -1.7782 -1.0576  0.2915
   84DG      C1 1910   2.576   0.926   1.001  0.2608 -0.1502 -0.5687
   84DG      C2 1911   3.047   0.528   0.982  0.9966  0.5108 -0.0460
   84DG      H3 1912   2.576   0.884   0.903  2.3910  2.6602 -0.3904
   84DG      H4 1913   2.629   1.021   0.989  0.3912 -1.2221 -0.8662
   84DG      H5 1914   2.466   0.956   1.020 -1.4283 -2.1520 -1.9640
   84DG      H6 1915   3.015   0.565   0.895  1.6804 -2.9632 -1.6727
   84DG      H7 1916   3.130   0.580   1.019  0.6532 -1.1455 -0.3061
   84DG      H8 1917   3.078   0.425   0.956  1.0342 -2.2741 -0.8938
   84DG      O9 1918   2.639   0.836   1.092 -0.5959  0.2690  0.0163
   84DG     O10 1919   2.953   0.512   1.089 -0.2815 -0.1699 -0.2102
   84DG     C11 1920   2.539   0.748   1.134  0.4124  0.5555  0.1102
   84DG     C12 1921   2.852   0.416   1.067  0.4666 -0.0644 -0.2695
   84DG     H13 1922   2.472   0.723   1.046 -0.2941 -1.4333 -0.1702
   84DG     H14 1923   2.474   0.803   1.199 -1.7411  0.1712 -0.1722
   84DG     H15 1924   2.893   0.318   1.070 -0.1006 -0.9805  1.6100
   84DG     H16 1925   2.823   0.440   0.959 -1.0058  0.1817  1.9897
   84DG     C17 1926   2.581   0.614   1.207 -0.8504 -0.5014  0.3275
   84DG     C18 1927   2.723   0.437   1.151  0.1798 -0.1017 -0.2971
   84DG     O19 1928   2.677   0.562   1.122 -0.4278  0.5990  0.0756
   84DG     H20 1929   2.499   0.547   1.218  1.0755  1.5841  1.9134
   84DG     H21 1930   2.626   0.612   1.306 -0.4061 -1.6021 -1.6980
   84DG     H22 1931   2.647   0.362   1.108 -0.0376 -0.5940  1.4011
   84DG     H23 1932   2.745   0.422   1.256  2.1021 -0.8338 -1.0407
   85DG      C1 1933   4.424   1.493   2.567 -0.6481 -0.5199  0.0452
   85DG      C2 1934   4.259   1.795   2.045  0.0935  0.1664  0.0786
   85DG      H3 1935   4.452   1.495   2.672 -2.2099 -0.6891 -0.9468
   85DG      H4 1936   4.505   1.448   2.513  0.2578 -1.8256  0.1315
   85DG      H5 1937   4.340   1.430   2.566  0.2867 -0.6933  1.0923
   85DG      H6 1938   4.348   1.826   2.101  2.6063  0.2319  1.5674
   85DG      H7 1939   4.283   1.724   1.971 -0.5799  0.5081  1.3774
   85DG      H8 1940   4.235   1.888   1.998  1.1516  0.4815  1.6778
   85DG      O9 1941   4.389   1.615   2.520  0.8521  0.6047  0.2315
   85DG     O10 1942   4.153   1.747   2.121 -0.1305 -0.1239  0.8549
   85DG     C11 1943   4.329   1.700   2.609 -0.0602 -0.2806 -0.2173
   85DG     C12 1944   4.102   1.856   2.203  0.0770 -0.1211 -0.0007
   85DG     H13 1945   4.407   1.726   2.678 -0.6471 -1.4335 -1.3257
   85DG     H14 1946   4.244   1.649   2.651  0.5509  2.3116 -1.0806
   85DG     H15 1947   4.010   1.821   2.244  0.2805  1.1026  1.3241
   85DG     H16 1948   4.062   1.944   2.149 -0.8194 -0.7532  0.8282
   85DG     C17 1949   4.286   1.816   2.523 -0.7684 -0.1237  0.1963
   85DG     C18 1950   4.183   1.900   2.324  0.3662  0.6869  0.1908
   85DG     O19 1951   4.221   1.788   2.401  0.5025  0.3911  0.2552
   85DG     H20 1952   4.374   1.861   2.485 -1.8053  0.8349  1.4175
   85DG     H21 1953   4.222   1.881   2.578 -0.0848  0.3465 -0.7100
   85DG     H22 1954   4.263   1.964   2.287 -0.0613  0.4868 -1.5299
   85DG     H23 1955   4.114   1.960   2.381 -2.9778  0.2684  2.0735
   86DG      C1 1956   2.571   3.989   2.109 -0.5861  0.1822 -0.4394
   86DG      C2 1957   2.879   4.417   1.636  0.3333 -0.2217  0.4922
   86DG      H3 1958   2.582   3.915   2.024 -0.6063 -1.0247 -2.0761
   86DG      H4 1959   2.478   4.044   2.069 -1.1032 -0.8972 -1.5004
   86DG      H5 1960   2.544   3.936   2.194  1.9469 -0.1295 -1.3313
   86DG      H6 1961   2.874   4.353   1.552 -1.9648  2.5369  0.0458
   86DG      H7 1962   2.821   4.510   1.612 -1.3829  0.2690 -0.4240
   86DG      H8 1963   2.987   4.455   1.651  0.6966 -0.1306 -0.4574
   86DG      O9 1964   2.688   4.062   2.118  0.5470  0.5045  0.1473
   86DG     O10 1965   2.824   4.368   1.759  0.3088 -0.2228 -0.2629
   86DG     C11 1966   2.682   4.166   2.217 -0.4606  0.4795 -0.0376
   86DG     C12 1967   2.839   4.463   1.871 -0.0396  0.4343 -0.0952
   86DG     H13 1968   2.788   4.183   2.252  1.2251  1.5281  0.8250
   86DG     H14 1969   2.613   4.143   2.299  0.4880 -1.6191  1.6406
   86DG     H15 1970   2.833   4.565   1.829 -0.9364  0.5349 -2.0630
   86DG     H16 1971   2.928   4.451   1.922  1.5503 -0.9264 -2.0214
   86DG     C17 1972   2.641   4.295   2.148 -0.1306  0.0578 -0.0014
   86DG     C18 1973   2.724   4.450   1.974 -0.4722  0.4303  1.2693
   86DG     O19 1974   2.739   4.323   2.043 -0.1568 -0.1169  0.4880
   86DG     H20 1975   2.644   4.375   2.229  1.7625  0.6125 -0.2581
   86DG     H21 1976   2.542   4.289   2.101  1.2985 -1.4659 -0.8190
   86DG     H22 1977   2.747   4.531   2.048 -1.5088  0.7401  0.2789
   86DG     H23 1978   2.620   4.472   1.935  1.0867  0.7348  0.4587
   87DG      C1 1979   4.630   2.661   1.455  0.2942 -0.5211 -0.2601
   87DG      C2 1980   4.455   2.939   0.799 -0.5513  0.0143  0.0668
   87DG      H3 1981   4.688   2.571   1.449  0.0056 -2.3320  0.7943
   87DG      H4 1982   4.553   2.639   1.522  4.0113 -0.5019 -3.8418
   87DG      H5 1983   4.684   2.746   1.507  1.6436 -1.8664  1.1196
   87DG      H6 1984   4.370   2.987   0.746 -0.8055  1.1963  0.3102
   87DG      H7 1985   4.537   3.009   0.810 -0.0121  0.2901 -1.1177
   87DG      H8 1986   4.496   2.855   0.745 -0.1145 -0.6772  0.9759
   87DG      O9 1987   4.559   2.702   1.338  0.6718  0.0509 -0.5369
   87DG     O10 1988   4.407   2.922   0.936 -0.0448 -0.1760  0.1837
   87DG     C11 1989   4.496   2.831   1.343  0.6399 -0.2565  0.3095
   87DG     C12 1990   4.299   2.836   0.934  0.0858  0.0962 -0.9536
   87DG     H13 1991   4.573   2.900   1.387  0.0879 -1.6951  0.6255
   87DG     H14 1992   4.426   2.837   1.427  0.7433  0.7886 -1.2798
   87DG     H15 1993   4.344   2.740   0.913  0.0196 -0.3573  0.1359
   87DG     H16 1994   4.228   2.837   0.848 -1.5619 -3.8205  3.5566
   87DG     C17 1995   4.431   2.867   1.208  0.2483 -0.1217 -0.1405
   87DG     C18 1996   4.234   2.845   1.069  0.2652  0.2712  0.5085
   87DG     O19 1997   4.313   2.800   1.177 -0.2035  0.5812 -0.4005
   87DG     H20 1998   4.512   2.855   1.133  4.0732  1.4014 -1.9385
   87DG     H21 1999   4.424   2.975   1.194  0.3250 -0.1193 -0.1349
   87DG     H22 2000   4.203   2.949   1.084  0.4498 -1.7454  0.0266
   87DG     H23 2001   4.142   2.784   1.068 -2.6337  1.5496  1.0108
   88DG      C1 2002   2.692   4.234   2.868  0.7893 -0.7013  0.4479
   88DG      C2 2003   2.950   4.627   3.083 -0.4653 -0.0657  0.4311
   88DG      H3 2004   2.610   4.167   2.854  1.1644  1.6418  0.1616
   88DG      H4 2005   2.663   4.323   2.928 -1.1255 -0.7343 -3.3511
   88DG      H5 2006   2.753   4.170   2.926  0.5018 -0.4117  0.4006
   88DG      H6 2007   2.935   4.735   3.104  0.4998 -0.5027  0.9477
   88DG      H7 2008   2.937   4.575   3.171  1.4606  0.1472 -1.4465
   88DG      H8 2009   3.052   4.607   3.064 -3.2293  0.7045  0.7794
   88DG      O9 2010   2.756   4.273   2.744 -0.2562  0.1076 -0.7873
   88DG     O10 2011   2.860   4.576   2.986  0.2127  0.0125 -0.2210
   88DG     C11 2012   2.664   4.331   2.662  0.5244  0.0115  0.0973
   88DG     C12 2013   2.732   4.621   3.014 -0.2312  0.4508  0.3637
   88DG     H13 2014   2.589   4.252   2.634 -1.9256  1.6684 -2.0639
   88DG     H14 2015   2.721   4.359   2.571  0.1883 -3.0166  1.0595
   88DG     H15 2016   2.727   4.723   3.048 -0.3187 -1.3181 -1.0981
   88DG     H16 2017   2.686   4.566   3.097  1.2543  2.9380  1.4227
   88DG     C17 2018   2.599   4.458   2.711  0.4687  0.1401  0.4539
   88DG     C18 2019   2.634   4.612   2.890 -0.2740 -0.2246  0.0261
   88DG     O19 2020   2.693   4.534   2.788  0.4793 -0.2350  0.3384
   88DG     H20 2021   2.524   4.410   2.772 -0.5134 -0.0883  1.1917
   88DG     H21 2022   2.549   4.525   2.639 -1.3871  1.4391  0.3854
   88DG     H22 2023   2.531   4.580   2.914 -0.2125  0.8470 -3.0253
   88DG     H23 2024   2.628   4.715   2.854  0.5827 -0.6806 -0.8845
   89DG      C1 2025   5.317   2.240   3.992 -0.2307 -0.1125  0.6657
   89DG      C2 2026   5.783   2.318   4.443 -0.4181 -0.3278 -0.7826
   89DG      H3 2027   5.339   2.150   4.052  1.4342  1.6645  0.5780
   89DG      H4 2028   5.363   2.239   3.897 -0.5161  2.5880  2.6965
   89DG      H5 2029   5.210   2.256   3.983  0.5727 -0.8107 -0.7702
   89DG      H6 2030   5.839   2.398   4.390  0.9809  0.4981  0.0479
   89DG      H7 2031   5.718   2.362   4.519 -1.4510  2.7908 -2.5426
   89DG      H8 2032   5.863   2.252   4.491  4.4883 -3.9713 -0.2696
   89DG      O9 2033   5.385   2.349   4.058  0.2625 -0.6721  0.6643
   89DG     O10 2034   5.696   2.237   4.364  0.2459  0.6347  0.8183
   89DG     C11 2035   5.312   2.412   4.156 -0.1579 -0.0837 -0.4579
   89DG     C12 2036   5.610   2.147   4.435 -0.4470 -0.3093 -0.2978
   89DG     H13 2037   5.213   2.432   4.120  1.6082 -0.3791 -0.3307
   89DG     H14 2038   5.344   2.519   4.167 -0.1155  2.0743  0.2563
   89DG     H15 2039   5.645   2.114   4.531  0.7851  1.0551  0.9128
   89DG     H16 2040   5.598   2.052   4.380 -0.0463 -0.2083  1.3120
   89DG     C17 2041   5.311   2.324   4.282  0.4963  0.1548  0.1082
   89DG     C18 2042   5.471   2.218   4.438 -0.4626  0.6967  0.9410
   89DG     O19 2043   5.441   2.264   4.304 -0.0274  0.3840 -0.2279
   89DG     H20 2044   5.239   2.238   4.277 -0.3720  0.6679 -0.5892
   89DG     H21 2045   5.282   2.381   4.372  0.2938 -1.4171 -1.9138
   89DG     H22 2046   5.396   2.148   4.447 -1.8183  1.6271 -1.1379
   89DG     H23 2047   5.462   2.285   4.524  1.0800  0.5442  0.5634
   90DG      C1 2048   1.289   4.332   0.889  0.6819  0.2755 -0.2427
   90DG      C2 2049   1.876   4.341   0.487 -0.6881 -0.4510  0.2413
   90DG      H3 2050   1.318   4.243   0.936 -2.0699  0.4104 -2.3475
   90DG      H4 2051   1.185   4.312   0.865  1.6080  0.4230 -0.4772
   90DG      H5 2052   1.304   4.420   0.954 -0.3055  0.2758  2.0247
   90DG      H6 2053   1.854   4.234   0.476 -2.6981  2.4424 -0.2123
   90DG      H7 2054   1.944   4.372   0.411  2.6796  0.7015 -2.2119
   90DG      H8 2055   1.930   4.346   0.583  3.1864 -0.6470 -2.2336
   90DG      O9 2056   1.352   4.350   0.766  0.3914  0.1569 -0.2733
   90DG     O10 2057   1.754   4.411   0.498  0.2247  0.3171  0.0780
   90DG     C11 2058   1.306   4.472   0.706  0.3636  0.1198 -0.0915
   90DG     C12 2059   1.663   4.389   0.390  0.1419  0.9458  0.0478
   90DG     H13 2060   1.353   4.553   0.763  0.8619  3.4559 -0.3407
   90DG     H14 2061   1.194   4.476   0.713  1.0701 -1.3632 -2.8085
   90DG     H15 2062   1.632   4.282   0.380  0.5530  1.0067  0.8731
   90DG     H16 2063   1.703   4.423   0.300 -1.0609 -1.6957 -1.0717
   90DG     C17 2064   1.350   4.485   0.555  0.6946 -0.0685 -0.6893
   90DG     C18 2065   1.531   4.460   0.413  0.0004  0.7311 -0.3477
   90DG     O19 2066   1.483   4.444   0.543  0.3005 -0.3340 -0.0451
   90DG     H20 2067   1.341   4.591   0.524  0.6972 -1.4363 -3.4255
   90DG     H21 2068   1.287   4.424   0.493 -1.3650  0.9442  0.6207
   90DG     H22 2069   1.553   4.559   0.400 -0.2253  1.5078 -0.9653
   90DG     H23 2070   1.450   4.427   0.345 -4.7674  0.8225  2.0034
   91DG      C1 2071   2.008   3.245   0.148  0.6440 -0.7677  0.1454
   91DG      C2 2072   2.032   3.697   0.648  0.2016  0.3572 -0.8129
   91DG      H3 2073   1.985   3.162   0.083  0.3789  1.2576  4.1508
   91DG      H4 2074   2.110   3.278   0.148 -0.8968  0.7668  0.8584
   91DG      H5 2075   1.948   3.318   0.096  2.7398 -0.7847  0.2640
   91DG      H6 2076   1.958   3.749   0.595 -0.1792 -0.1852 -0.6544
   91DG      H7 2077   2.035   3.720   0.758 -1.9294  0.0844 -1.0784
   91DG      H8 2078   2.135   3.707   0.609  3.5225 -2.3077  0.4095
   91DG      O9 2079   1.958   3.240   0.283 -0.3179 -0.6370 -0.3485
   91DG     O10 2080   1.995   3.563   0.628 -0.0572  0.5939  0.2859
   91DG     C11 2081   2.026   3.137   0.364  0.0841  0.4700  0.1913
   91DG     C12 2082   2.107   3.490   0.681  0.0913 -0.0350 -0.1570
   91DG     H13 2083   2.130   3.132   0.346 -0.9105  0.6034  1.2628
   91DG     H14 2084   1.987   3.034   0.334  1.0332  2.3811  0.4354
   91DG     H15 2085   2.145   3.509   0.778  3.0600 -1.4334 -0.5917
   91DG     H16 2086   2.194   3.506   0.614 -1.7663  1.4198 -0.7534
   91DG     C17 2087   1.998   3.176   0.515  0.1805 -0.3994 -1.2084
   91DG     C18 2088   2.068   3.342   0.663 -0.1883  0.3313 -0.3985
   91DG     O19 2089   2.052   3.309   0.537  0.0318  0.7375  0.0027
   91DG     H20 2090   2.055   3.102   0.575  1.3461 -0.8724 -0.3412
   91DG     H21 2091   1.886   3.173   0.539  0.6488  1.3176 -0.1580
   91DG     H22 2092   2.151   3.280   0.696 -0.3425  1.3591  0.8402
   91DG     H23 2093   1.981   3.327   0.727 -1.2026  0.8247 -0.6112
   92DG      C1 2094   0.331   2.076   0.263 -0.4708  0.1846  0.4151
   92DG      C2 2095  -0.001   2.210  -0.319  0.6583  0.0379 -0.5420
   92DG      H3 2096   0.388   2.166   0.240 -1.5344 -0.1331 -1.8473
   92DG      H4 2097   0.402   2.003   0.304  1.0262 -0.6196 -0.0555
   92DG      H5 2098   0.251   2.099   0.331  2.4633 -2.6842 -4.8281
   92DG      H6 2099   0.046   2.223  -0.414  1.2571 -1.3025  0.8340
   92DG      H7 2100  -0.107   2.187  -0.334  1.2916  1.2583  0.9913
   92DG      H8 2101   0.008   2.309  -0.270  0.3413  2.7747  1.4391
   92DG      O9 2102   0.286   2.014   0.142  0.3192  0.2038  0.6536
   92DG     O10 2103   0.071   2.121  -0.232  0.1126 -0.2789  0.1862
   92DG     C11 2104   0.208   1.898   0.174  0.5341 -0.0743  0.0754
   92DG     C12 2105   0.029   1.990  -0.255  0.4134  0.2385  0.3116
   92DG     H13 2106   0.115   1.921   0.215  2.5063 -0.1901 -0.9830
   92DG     H14 2107   0.263   1.827   0.240  4.4547 -0.6822 -0.5949
   92DG     H15 2108   0.028   1.972  -0.367  0.2067 -3.9218  0.3604
   92DG     H16 2109  -0.073   1.967  -0.221 -1.4675  2.5874  1.8034
   92DG     C17 2110   0.184   1.838   0.032 -0.5611 -0.1815  0.0997
   92DG     C18 2111   0.122   1.888  -0.185 -0.1881  0.0662  0.8873
   92DG     O19 2112   0.119   1.929  -0.053  0.8348 -0.3880 -0.1655
   92DG     H20 2113   0.129   1.747   0.038 -1.6149  0.8956 -0.3166
   92DG     H21 2114   0.285   1.812  -0.012  0.8293 -1.1059 -1.8446
   92DG     H22 2115   0.093   1.785  -0.200  0.3994  1.2734  0.4971
   92DG     H23 2116   0.225   1.898  -0.213 -0.5022  0.8538  3.0301
   93DG      C1 2117   4.588   0.807   1.745  0.5458 -0.3522 -0.0044
   93DG      C2 2118   4.062   0.747   2.122  0.2667 -0.2906 -0.1193
   93DG      H3 2119   4.586   0.845   1.644 -0.2399 -1.8427  0.0539
   93DG      H4 2120   4.557   0.705   1.728 -0.7378  0.9701  0.3825
   93DG      H5 2121   4.684   0.804   1.793 -0.5379 -1.5473  1.1470
   93DG      H6 2122   4.118   0.710   2.206 -0.5141  0.7645 -1.0418
   93DG      H7 2123   3.966   0.773   2.168 -0.5568 -0.1587  0.6878
   93DG      H8 2124   4.029   0.674   2.051 -1.9181  3.8249 -0.7655
   93DG      O9 2125   4.492   0.878   1.828  0.3815  0.0763 -0.1096
   93DG     O10 2126   4.123   0.858   2.063  0.1438 -0.6462  0.5296
   93DG     C11 2127   4.527   1.017   1.846  0.4429 -0.3916 -0.2689
   93DG     C12 2128   4.133   0.965   2.145  0.2542  0.0442  0.7502
   93DG     H13 2129   4.554   1.065   1.753 -0.3353  1.8500 -2.3712
   93DG     H14 2130   4.614   1.037   1.905 -1.7082  0.6319 -3.6314
   93DG     H15 2131   4.191   0.949   2.238  2.0800  0.5820 -1.0297
   93DG     H16 2132   4.039   1.014   2.172  0.6349  2.2928  0.8518
   93DG     C17 2133   4.402   1.088   1.909  0.2599  0.2203 -0.1743
   93DG     C18 2134   4.214   1.062   2.058  0.4994  0.5925  0.8620
   93DG     O19 2135   4.328   1.003   1.993 -0.7022 -0.3135 -0.7142
   93DG     H20 2136   4.330   1.116   1.827  1.6814  1.0222  1.4083
   93DG     H21 2137   4.444   1.186   1.952  0.2841  3.0790  0.6256
   93DG     H22 2138   4.149   1.101   1.980  1.0622 -0.0911  0.9554
   93DG     H23 2139   4.248   1.148   2.112 -0.3562 -0.9434  1.9104
   94DG      C1 2140   4.968   5.318   1.516  0.4629 -0.2184 -0.6069
   94DG      C2 2141   5.030   5.526   2.127  0.1094 -0.2531  0.4009
   94DG      H3 2142   4.907   5.229   1.509  1.5555  1.5570 -0.4487
   94DG      H4 2143   5.068   5.296   1.531  3.2473  2.6242  2.0084
   94DG      H5 2144   4.956   5.376   1.420 -2.9615  2.6504 -2.3383
   94DG      H6 2145   5.140   5.517   2.113  0.8811 -3.0871 -0.9785
   94DG      H7 2146   5.032   5.583   2.220  1.1668 -1.6853  0.1186
   94DG      H8 2147   4.987   5.428   2.132 -2.2053  0.0858 -2.3550
   94DG      O9 2148   4.921   5.399   1.620 -0.0056 -0.2084 -0.3493
   94DG     O10 2149   4.991   5.592   2.007  0.0280  0.1331  0.7498
   94DG     C11 2150   4.789   5.457   1.605  0.6622  0.6870 -0.0641
   94DG     C12 2151   4.854   5.623   2.013  0.4025  0.6773 -0.1049
   94DG     H13 2152   4.720   5.378   1.574  2.2291  0.6492 -1.8180
   94DG     H14 2153   4.798   5.515   1.512 -1.3020 -0.7723  2.1888
   94DG     H15 2154   4.830   5.677   2.099 -2.3187 -0.8496  0.6853
   94DG     H16 2155   4.800   5.524   2.019 -2.3622 -0.9730  1.3025
   94DG     C17 2156   4.741   5.536   1.728  0.4781 -0.3838  0.3408
   94DG     C18 2157   4.822   5.710   1.886 -0.4020  0.1895  0.0898
   94DG     O19 2158   4.848   5.627   1.772 -0.1652 -0.1165 -0.3306
   94DG     H20 2159   4.723   5.468   1.806 -1.9991 -1.3464 -0.0601
   94DG     H21 2160   4.646   5.591   1.719 -2.1915 -1.2869  0.0179
   94DG     H22 2161   4.723   5.752   1.878  2.6937  1.0680  0.6215
   94DG     H23 2162   4.895   5.787   1.882 -2.3753  0.3215  2.1040
   95DG      C1 2163   4.527   4.474   1.749  0.2301  0.4033 -0.2815
   95DG      C2 2164   4.509   5.129   1.494  0.6706 -0.6374  0.2015
   95DG      H3 2165   4.430   4.445   1.705 -0.6506  0.7089 -2.2495
   95DG      H4 2166   4.499   4.526   1.838  1.4454 -1.1137 -1.1659
   95DG      H5 2167   4.588   4.391   1.783 -1.4555 -1.5789  2.3717
   95DG      H6 2168   4.471   5.132   1.596  1.7207  0.6342 -1.4941
   95DG      H7 2169   4.565   5.224   1.475  0.4631 -1.3936  0.3525
   95DG      H8 2170   4.420   5.121   1.431 -0.2130  0.6150  0.5262
   95DG      O9 2171   4.598   4.562   1.660 -0.2077 -0.2923 -0.0204
   95DG     O10 2172   4.586   5.009   1.481  0.3045 -0.3353  0.0914
   95DG     C11 2173   4.626   4.513   1.528 -0.4672 -0.7501 -0.3051
   95DG     C12 2174   4.615   4.960   1.347 -0.5908 -0.3848  0.1759
   95DG     H13 2175   4.529   4.490   1.475  3.9934  0.4627 -2.3195
   95DG     H14 2176   4.677   4.426   1.551 -0.2498  0.0098  0.7761
   95DG     H15 2177   4.671   5.041   1.299  1.9264  1.3398  0.4621
   95DG     H16 2178   4.521   4.937   1.295 -1.8721  1.3931 -0.6479
   95DG     C17 2179   4.711   4.615   1.448  0.1202  0.3619 -0.2732
   95DG     C18 2180   4.697   4.831   1.357 -0.6523 -1.0643  0.5107
   95DG     O19 2181   4.636   4.735   1.442  0.8197 -0.1295  0.1170
   95DG     H20 2182   4.735   4.576   1.351 -0.8671 -0.7636  0.0539
   95DG     H21 2183   4.807   4.633   1.495  3.1377  2.0329 -2.1083
   95DG     H22 2184   4.710   4.791   1.258  1.3389  1.1233 -1.5087
   95DG     H23 2185   4.793   4.874   1.394 -0.0922  0.0564 -2.5131
   96DG      C1 2186   2.663   2.942   3.700 -0.2949  1.0166  0.1813
   96DG      C2 2187   2.250   3.447   3.318 -0.4740  0.0016  0.7803
   96DG      H3 2188   2.650   3.015   3.772 -2.4632 -0.9497 -2.0975
   96DG      H4 2189   2.771   2.956   3.676  0.6289 -0.3770  0.7392
   96DG      H5 2190   2.650   2.837   3.737  1.8367 -1.0021  0.2052
   96DG      H6 2191   2.187   3.502   3.389 -1.6538  3.9972  1.3282
   96DG      H7 2192   2.354   3.483   3.328  2.6364 -0.5057 -1.8028
   96DG      H8 2193   2.210   3.453   3.218 -0.9373 -4.2534 -0.5221
   96DG      O9 2194   2.594   2.941   3.579 -0.0682  0.5312 -0.0735
   96DG     O10 2195   2.234   3.308   3.352  0.3761  0.8552 -0.3094
   96DG     C11 2196   2.452   2.952   3.605  0.1653 -0.2572  0.0252
   96DG     C12 2197   2.293   3.221   3.257  0.0222 -0.4558  0.1147
   96DG     H13 2198   2.432   3.059   3.644 -0.3779  0.9557 -1.5737
   96DG     H14 2199   2.419   2.890   3.676  1.5110  1.5648 -2.0464
   96DG     H15 2200   2.397   3.249   3.258 -1.3748 -0.3592 -0.7897
   96DG     H16 2201   2.253   3.245   3.165 -0.7677  0.8157  0.5364
   96DG     C17 2202   2.361   2.940   3.485  0.2760 -0.4110  0.5902
   96DG     C18 2203   2.269   3.072   3.302 -0.1211  0.5494  0.0643
   96DG     O19 2204   2.347   3.066   3.427 -0.0788  0.1720  0.5224
   96DG     H20 2205   2.263   2.900   3.515  0.4357  1.6354 -1.7107
   96DG     H21 2206   2.401   2.874   3.407  0.2064  1.2840 -0.2371
   96DG     H22 2207   2.157   3.046   3.313 -1.4425  0.8660  1.2224
   96DG     H23 2208   2.320   3.008   3.226  0.2728  1.0461 -3.7429
   97DG      C1 2209   1.765   2.151   1.087  0.1220  0.4731  0.0047
   97DG      C2 2210   1.913   1.671   1.619  0.4756  0.5235  0.1389
   97DG      H3 2211   1.702   2.232   1.059  0.6372  0.1688 -0.8795
   97DG      H4 2212   1.745   2.071   1.012 -0.6090 -0.4274 -1.4442
   97DG      H5 2213   1.872   2.167   1.069  0.0344 -1.9500 -0.0858
   97DG      H6 2214   2.018   1.705   1.614  1.1954 -1.4218  0.4614
   97DG      H7 2215   1.879   1.655   1.725  1.6104  1.5970  1.4466
   97DG      H8 2216   1.916   1.565   1.586  1.5686  2.2622 -1.2775
   97DG      O9 2217   1.723   2.108   1.214  0.9608 -0.1425 -0.4320
   97DG     O10 2218   1.831   1.764   1.545 -0.9251  0.2956  0.2447
   97DG     C11 2219   1.594   2.053   1.211 -0.1199  0.1278 -0.1324
   97DG     C12 2220   1.693   1.718   1.533 -0.2463 -0.1605  0.6676
   97DG     H13 2221   1.600   1.962   1.147 -0.2878  0.1001 -0.9341
   97DG     H14 2222   1.518   2.123   1.166  1.6417 -0.5748  0.0928
   97DG     H15 2223   1.650   1.661   1.618  0.8844  2.8133 -0.2545
   97DG     H16 2224   1.678   1.660   1.440  1.0119 -1.6828 -1.3529
   97DG     C17 2225   1.546   1.998   1.354 -0.1166 -0.7627 -0.1438
   97DG     C18 2226   1.600   1.841   1.508 -0.0638  0.4380  0.7301
   97DG     O19 2227   1.633   1.890   1.387  0.0138 -0.6344  0.0340
   97DG     H20 2228   1.442   1.967   1.352 -0.7739  1.4928 -1.7104
   97DG     H21 2229   1.558   2.095   1.404  0.0572 -1.2357  0.1433
   97DG     H22 2230   1.495   1.809   1.510 -3.4777 -0.1057  1.3657
   97DG     H23 2231   1.613   1.915   1.584 -3.1070 -0.8224 -0.1892
   98DG      C1 2232   4.920   1.135   2.741 -0.5960  0.2771  0.1962
   98DG      C2 2233   4.598   0.536   2.873  0.0743 -0.8670  0.1870
   98DG      H3 2234   4.991   1.061   2.698 -0.3368 -1.1552 -0.9490
   98DG      H4 2235   4.979   1.226   2.778  0.6075  1.2665  0.9968
   98DG      H5 2236   4.854   1.164   2.661 -1.4426 -2.9538  0.2843
   98DG      H6 2237   4.599   0.542   2.767  0.7909  2.8457  1.6149
   98DG      H7 2238   4.685   0.488   2.911  0.1128 -0.0509 -1.0425
   98DG      H8 2239   4.512   0.484   2.912  0.8527  1.9943  1.6573
   98DG      O9 2240   4.841   1.069   2.843 -0.1711 -0.1432  0.2511
   98DG     O10 2241   4.602   0.668   2.929 -0.1249 -0.3998  0.0622
   98DG     C11 2242   4.732   1.147   2.893 -0.5257  0.0271 -0.1070
   98DG     C12 2243   4.478   0.739   2.928 -0.1190 -0.2682 -0.5510
   98DG     H13 2244   4.668   1.180   2.810  0.6042  0.1229 -1.7643
   98DG     H14 2245   4.759   1.234   2.950 -3.8310  2.1853 -0.2507
   98DG     H15 2246   4.407   0.683   2.994  0.4326  0.2111  1.0041
   98DG     H16 2247   4.436   0.748   2.821 -0.8837  0.9362  0.9301
   98DG     C17 2248   4.650   1.062   2.991 -0.3593 -0.4123 -1.0275
   98DG     C18 2249   4.505   0.876   2.997  0.2855  0.3298  0.1941
   98DG     O19 2250   4.592   0.954   2.920 -0.0500 -0.5758 -0.3771
   98DG     H20 2251   4.565   1.128   3.038 -1.8946 -0.8531  1.5539
   98DG     H21 2252   4.716   1.041   3.069 -1.3085  1.2995 -1.7022
   98DG     H22 2253   4.416   0.931   3.005 -2.9124 -3.2538 -1.7745
   98DG     H23 2254   4.548   0.861   3.098  0.9805 -1.1101  1.6637
   99DG      C1 2255   3.271   4.953   4.748 -0.2440 -0.3945  0.0613
   99DG      C2 2256   2.737   4.858   5.248  0.0040  0.5991  0.1751
   99DG      H3 2257   3.313   4.942   4.651 -0.5594  0.1407 -1.0019
   99DG      H4 2258   3.334   4.893   4.811  0.9387 -0.7442  0.6963
   99DG      H5 2259   3.269   5.062   4.764 -0.6114  0.5637  0.6414
   99DG      H6 2260   2.713   4.965   5.284 -2.0308  0.7464  0.3499
   99DG      H7 2261   2.665   4.775   5.263  0.4168 -1.8639  0.6497
   99DG      H8 2262   2.830   4.831   5.305 -0.4346 -0.0100 -0.9142
   99DG      O9 2263   3.138   4.911   4.743 -0.3221  0.5905 -0.1998
   99DG     O10 2264   2.770   4.861   5.110 -0.1139  0.3165  0.0456
   99DG     C11 2265   3.121   4.773   4.729 -0.4108 -1.1202  1.0041
   99DG     C12 2266   2.802   4.729   5.061 -0.0197  0.2632 -0.1422
   99DG     H13 2267   3.186   4.726   4.804 -0.5598  0.7240  1.8393
   99DG     H14 2268   3.155   4.742   4.630  1.2538 -1.7742  1.4812
   99DG     H15 2269   2.734   4.663   5.097  0.4342  0.2359  3.8737
   99DG     H16 2270   2.893   4.706   5.111 -0.0450  0.3197 -1.4605
   99DG     C17 2271   2.973   4.739   4.746 -0.5466 -0.0072  0.2873
   99DG     C18 2272   2.809   4.709   4.911  0.5603  0.4801 -0.3372
   99DG     O19 2273   2.934   4.759   4.878 -0.3302 -0.2533 -0.2663
   99DG     H20 2274   2.952   4.644   4.709  0.2861 -0.2210 -0.1362
   99DG     H21 2275   2.905   4.806   4.689  0.2330  0.5060  1.2045
   99DG     H22 2276   2.802   4.605   4.882 -1.1418  1.7822 -0.8407
   99DG     H23 2277   2.737   4.770   4.849  0.2023  3.4255 -0.8551
  100DG      C1 2278   4.401   0.298   0.764  0.3653  0.1086 -0.2115
  100DG      C2 2279   4.932   0.322   0.464  0.1386 -0.1063  0.2670
  100DG      H3 2280   4.322   0.352   0.820  1.3511 -0.0573 -0.7450
  100DG      H4 2281   4.424   0.202   0.818  2.4431 -0.7512 -1.0922
  100DG      H5 2282   4.367   0.273   0.656 -0.5604 -1.7268  0.4054
  100DG      H6 2283   4.858   0.292   0.391  0.3441  0.3841  0.0309
  100DG      H7 2284   4.955   0.428   0.440  0.3110  0.9982  1.7437
  100DG      H8 2285   5.025   0.267   0.452 -1.0898 -1.6858 -0.4575
  100DG      O9 2286   4.517   0.386   0.760 -0.2375 -0.3123  0.1466
  100DG     O10 2287   4.883   0.293   0.592 -0.3292 -0.6426  0.0822
  100DG     C11 2288   4.571   0.422   0.884 -0.5328 -0.4848  0.2892
  100DG     C12 2289   4.966   0.339   0.698 -0.0594 -0.8232 -0.2217
  100DG     H13 2290   4.550   0.369   0.979 -0.0249  0.9721 -0.1494
  100DG     H14 2291   4.543   0.529   0.901 -0.1742 -0.7891  0.4036
  100DG     H15 2292   4.970   0.454   0.704 -0.5334 -0.1634 -2.7946
  100DG     H16 2293   5.068   0.306   0.687 -0.3376  2.0821 -1.4131
  100DG     C17 2294   4.721   0.420   0.871 -0.1485 -0.2542 -0.6544
  100DG     C18 2295   4.904   0.277   0.826 -0.7145  0.7007  0.0102
  100DG     O19 2296   4.761   0.293   0.830 -0.1146  0.7558 -0.6022
  100DG     H20 2297   4.770   0.455   0.964 -0.0962 -1.6391  1.3270
  100DG     H21 2298   4.743   0.500   0.798  0.8607  0.4168  0.6334
  100DG     H22 2299   4.929   0.166   0.822  0.9169  2.1761 -0.0089
  100DG     H23 2300   4.943   0.313   0.920  0.2441  0.5593 -1.0448
  101DG      C1 2301   0.991   4.759   1.696 -0.6082  0.1822 -0.8110
  101DG      C2 2302   1.419   4.645   1.209  0.3268 -0.1657  0.2453
  101DG      H3 2303   1.070   4.829   1.717  0.1614 -1.7669  1.2512
  101DG      H4 2304   0.948   4.737   1.795  1.3007  0.1954 -0.5073
  101DG      H5 2305   0.912   4.806   1.646  1.1065 -0.0371  0.4265
  101DG      H6 2306   1.363   4.719   1.144 -0.9105  1.7536 -1.2652
  101DG      H7 2307   1.491   4.699   1.278  0.9110 -0.8749 -2.2380
  101DG      H8 2308   1.479   4.585   1.141 -0.9903 -0.2565  1.1670
  101DG      O9 2309   1.039   4.648   1.634 -0.3783  0.1058  0.4327
  101DG     O10 2310   1.332   4.575   1.298 -0.0577 -0.5820  0.2295
  101DG     C11 2311   0.941   4.549   1.601 -0.0959  0.2330 -0.4647
  101DG     C12 2312   1.257   4.471   1.241 -0.3830 -0.6615 -0.6107
  101DG     H13 2313   0.869   4.593   1.532 -0.8378 -0.4594 -0.6539
  101DG     H14 2314   0.885   4.512   1.692  2.1841  1.6929  2.0887
  101DG     H15 2315   1.328   4.395   1.196 -0.2140  1.6446  0.4390
  101DG     H16 2316   1.193   4.498   1.158  1.7240  0.7466  1.3061
  101DG     C17 2317   1.004   4.432   1.524  0.6891 -0.5229  0.4454
  101DG     C18 2318   1.177   4.395   1.354  0.5107  0.0829  0.0548
  101DG     O19 2319   1.095   4.486   1.426  0.1994  0.3115 -0.3849
  101DG     H20 2320   0.921   4.378   1.478 -0.7149  1.4675 -1.4245
  101DG     H21 2321   1.061   4.376   1.592  0.6415 -1.5044  1.0741
  101DG     H22 2322   1.114   4.318   1.307  0.0076 -2.9052  1.0594
  101DG     H23 2323   1.254   4.361   1.420 -0.2861  2.6747 -1.1850
  102DG      C1 2324   3.773   1.660   2.489  0.7500  0.1139  0.1911
  102DG      C2 2325   4.307   1.407   2.135 -0.1693 -0.7790  0.4446
  102DG      H3 2326   3.856   1.732   2.471 -1.2134  3.3783 -1.9018
  102DG      H4 2327   3.785   1.595   2.574 -2.6552 -0.2437 -3.1490
  102DG      H5 2328   3.682   1.716   2.505  1.9100  0.0434 -1.7632
  102DG      H6 2329   4.350   1.389   2.227 -1.4050  1.9463 -0.2557
  102DG      H7 2330   4.366   1.358   2.058  1.9631  1.6068  1.7522
  102DG      H8 2331   4.328   1.511   2.111 -0.3452  0.2804 -0.5886
  102DG      O9 2332   3.763   1.569   2.379  0.3228  0.7860  0.3097
  102DG     O10 2333   4.166   1.379   2.139 -0.4832  1.2112 -0.6009
  102DG     C11 2334   3.730   1.636   2.257  0.4249 -0.0200  0.5190
  102DG     C12 2335   4.107   1.415   2.014 -0.2982  0.0075 -0.2171
  102DG     H13 2336   3.793   1.720   2.234 -0.3889 -3.3083 -2.0103
  102DG     H14 2337   3.626   1.668   2.253  0.2545 -0.2913 -1.8796
  102DG     H15 2338   4.131   1.334   1.944  1.7116  1.0293  1.7270
  102DG     H16 2339   4.153   1.508   1.984 -0.2575  2.0647 -0.5003
  102DG     C17 2340   3.760   1.526   2.146 -0.2636 -0.3432 -0.6983
  102DG     C18 2341   3.950   1.428   2.026  0.6631 -0.2401 -0.3900
  102DG     O19 2342   3.903   1.513   2.131  0.3279 -0.7485  0.2447
  102DG     H20 2343   3.716   1.554   2.049 -0.1535  1.3055 -0.5390
  102DG     H21 2344   3.707   1.438   2.175  0.6105 -3.4835  2.5211
  102DG     H22 2345   3.908   1.471   1.935 -2.4763 -1.3306 -2.1700
  102DG     H23 2346   3.910   1.329   2.036  1.3840 -0.7780 -1.0787
  103DG      C1 2347   0.827   0.182   1.741  0.0455 -0.3088  0.0152
  103DG      C2 2348   1.217   0.321   1.244 -0.2308  0.4682  0.2564
  103DG      H3 2349   0.734   0.187   1.679 -0.5109 -0.5739  0.8872
  103DG      H4 2350   0.864   0.277   1.767 -0.5942 -1.3660 -0.6335
  103DG      H5 2351   0.799   0.127   1.829 -0.4117  3.9912  0.8569
  103DG      H6 2352   1.141   0.372   1.187  0.5223  1.6623 -0.6581
  103DG      H7 2353   1.273   0.391   1.313 -0.7110 -1.3548  1.0391
  103DG      H8 2354   1.296   0.291   1.170  0.0601 -0.8492 -0.6648
  103DG      O9 2355   0.924   0.111   1.659 -0.0455  0.3792 -0.2415
  103DG     O10 2356   1.165   0.206   1.313  0.2793 -0.1331 -0.5625
  103DG     C11 2357   0.880  -0.021   1.634 -0.9770  0.6228 -0.5680
  103DG     C12 2358   1.097   0.116   1.230 -0.0204 -0.1031 -0.3498
  103DG     H13 2359   0.770  -0.028   1.609 -0.4683  0.6264  0.4149
  103DG     H14 2360   0.879  -0.087   1.718  1.5978  0.0174 -1.0951
  103DG     H15 2361   1.154   0.090   1.147 -0.5159  0.8880  0.3730
  103DG     H16 2362   1.009   0.176   1.190 -1.7356 -0.1079 -1.7813
  103DG     C17 2363   0.961  -0.077   1.517  0.2601  0.9941  0.6689
  103DG     C18 2364   1.044  -0.009   1.305 -0.0586  0.8860  0.6115
  103DG     O19 2365   0.990   0.033   1.429  0.3751  0.6299 -0.3441
  103DG     H20 2366   0.901  -0.153   1.469  0.2768 -0.4353 -2.3965
  103DG     H21 2367   1.058  -0.106   1.557  0.2021 -1.6121 -1.9841
  103DG     H22 2368   0.968  -0.050   1.238  0.3592 -0.2165 -0.5085
  103DG     H23 2369   1.129  -0.079   1.330  0.9905  2.3487  0.8216
  104DG      C1 2370   1.914   3.682   1.718  0.6744 -0.5099 -0.1913
  104DG      C2 2371   2.213   3.122   1.540  0.1890  0.1782  0.7562
  104DG      H3 2372   1.810   3.703   1.699 -1.4436  0.6378  0.9393
  104DG      H4 2373   1.972   3.730   1.635  3.6783  2.1962 -2.0463
  104DG      H5 2374   1.950   3.754   1.797 -0.3043  4.5546 -3.4971
  104DG      H6 2375   2.301   3.061   1.559  2.0532 -0.2982 -2.0062
  104DG      H7 2376   2.130   3.062   1.537 -0.5620 -0.6530  0.8080
  104DG      H8 2377   2.243   3.174   1.447 -1.5631  0.9516 -1.6998
  104DG      O9 2378   1.964   3.552   1.740  0.7397  0.4052 -0.3031
  104DG     O10 2379   2.212   3.219   1.651  0.4070 -0.4671 -0.1459
  104DG     C11 2380   1.886   3.490   1.844  1.0426  0.6382 -0.0333
  104DG     C12 2381   2.200   3.160   1.781 -0.0142  0.5875 -0.4931
  104DG     H13 2382   1.783   3.481   1.825  0.0223  0.3592  1.0882
  104DG     H14 2383   1.883   3.562   1.929  0.9231  2.9995  1.1767
  104DG     H15 2384   2.277   3.084   1.803 -0.2271  0.4663  0.2827
  104DG     H16 2385   2.106   3.102   1.779  1.0805 -3.1452  0.9823
  104DG     C17 2386   1.951   3.362   1.882 -0.9113 -0.1268  0.3624
  104DG     C18 2387   2.175   3.260   1.897 -0.1647  0.7544 -0.7408
  104DG     O19 2388   2.089   3.368   1.864 -0.4289  0.3379 -0.2430
  104DG     H20 2389   1.915   3.277   1.820 -1.4910 -0.0180 -1.7188
  104DG     H21 2390   1.928   3.342   1.983  1.9771  0.4401 -2.1781
  104DG     H22 2391   2.135   3.214   1.984  1.7385  0.2151  1.6203
  104DG     H23 2392   2.266   3.312   1.937 -2.3827 -1.5910 -1.0460
  105DG      C1 2393   0.039   1.245   0.319  0.0749  0.1558 -0.2204
  105DG      C2 2394   0.794   1.820   0.164  0.5079 -0.6206  0.4369
  105DG      H3 2395   0.090   1.157   0.354 -1.0935  2.7909 -0.8700
  105DG      H4 2396  -0.040   1.218   0.258 -1.3234 -1.4609 -1.4551
  105DG      H5 2397  -0.017   1.300   0.404  0.0280  0.0134  1.8126
  105DG      H6 2398   0.746   1.915   0.168 -0.8608 -1.1959  0.5670
  105DG      H7 2399   0.847   1.807   0.256 -1.0902 -0.8337  2.9801
  105DG      H8 2400   0.867   1.827   0.086  1.8157 -1.7021 -1.3391
  105DG      O9 2401   0.124   1.328   0.243 -0.7076 -0.2535 -0.1503
  105DG     O10 2402   0.695   1.727   0.137 -0.6510 -0.8387  0.5154
  105DG     C11 2403   0.245   1.363   0.309 -0.1156  0.2390  1.2495
  105DG     C12 2404   0.614   1.692   0.247  0.3174  0.2144 -0.9649
  105DG     H13 2405   0.296   1.274   0.342  0.1932  1.5075  2.9299
  105DG     H14 2406   0.214   1.406   0.404  1.5705 -0.3552  3.2999
  105DG     H15 2407   0.547   1.761   0.283  2.1903 -0.9553 -1.5996
  105DG     H16 2408   0.670   1.652   0.330  1.5642  1.4473 -0.0387
  105DG     C17 2409   0.329   1.454   0.219 -0.0069 -0.5086  0.4258
  105DG     C18 2410   0.518   1.595   0.173  0.9573 -0.1738 -0.4753
  105DG     O19 2411   0.450   1.501   0.266 -0.0690 -0.9204  0.0623
  105DG     H20 2412   0.271   1.537   0.192  2.7107  0.6723 -0.7304
  105DG     H21 2413   0.341   1.389   0.127 -0.4710 -0.1530 -1.4505
  105DG     H22 2414   0.461   1.656   0.103  0.3912  1.7485  0.5169
  105DG     H23 2415   0.575   1.538   0.096 -0.9462  1.5586 -0.0282
  106DG      C1 2416   1.642   2.039   4.208 -0.5325  0.4619  0.3318
  106DG      C2 2417   1.202   1.653   3.931 -0.3221  0.7098  0.2747
  106DG      H3 2418   1.670   2.124   4.270 -1.3095 -0.6669 -0.3282
  106DG      H4 2419   1.716   2.036   4.131  1.0877 -0.5773 -0.4501
  106DG      H5 2420   1.635   1.942   4.259  1.1543  1.4915  2.3358
  106DG      H6 2421   1.242   1.600   4.012 -2.2141 -1.6813  1.1214
  106DG      H7 2422   1.102   1.616   3.922 -0.2740  0.0870 -0.2150
  106DG      H8 2423   1.256   1.615   3.844 -1.8542 -0.5028  0.3627
  106DG      O9 2424   1.519   2.049   4.144  0.8894 -0.4566 -0.3053
  106DG     O10 2425   1.228   1.791   3.947 -0.5727  0.3248  0.5357
  106DG     C11 2426   1.495   2.151   4.048 -0.2490 -0.0912  0.4666
  106DG     C12 2427   1.116   1.868   3.994 -0.3723  0.8747  0.8683
  106DG     H13 2428   1.544   2.127   3.952  0.5478  2.6035 -1.4467
  106DG     H14 2429   1.526   2.249   4.073  0.8119  0.3260  0.8566
  106DG     H15 2430   1.092   1.824   4.085 -1.7250  0.8888 -0.4613
  106DG     H16 2431   1.019   1.858   3.930 -0.8407  0.5181  1.1098
  106DG     C17 2432   1.350   2.151   4.024  0.4592  0.0475 -0.0916
  106DG     C18 2433   1.163   2.011   3.993  0.4147  0.1983  1.0203
  106DG     O19 2434   1.306   2.023   3.994  0.8902  0.8598  0.2101
  106DG     H20 2435   1.319   2.209   3.934 -0.2910 -2.3717  0.8951
  106DG     H21 2436   1.293   2.188   4.112  1.2436  1.5478 -0.5546
  106DG     H22 2437   1.127   2.068   3.901  1.0857  0.3157 -1.9868
  106DG     H23 2438   1.120   2.052   4.080  1.3742 -0.4035  1.0076
  107DG      C1 2439   0.533   1.839   5.200  0.7620  0.5468 -0.4160
  107DG      C2 2440   0.094   1.320   4.839  0.4213 -0.3932  0.4102
  107DG      H3 2441   0.478   1.916   5.255  1.2131  0.4395 -1.2794
  107DG      H4 2442   0.624   1.872   5.165 -1.9650  1.3020 -2.8733
  107DG      H5 2443   0.548   1.762   5.274  2.4992  3.4381 -0.0178
  107DG      H6 2444  -0.000   1.311   4.780  0.8592 -2.5929 -1.2052
  107DG      H7 2445   0.163   1.243   4.805  3.0491  0.8376 -0.4030
  107DG      H8 2446   0.076   1.305   4.942  0.3753 -0.8233  2.9496
  107DG      O9 2447   0.451   1.774   5.102  0.0198 -0.5837 -0.0156
  107DG     O10 2448   0.149   1.450   4.812 -0.4776 -0.5875 -0.3331
  107DG     C11 2449   0.422   1.861   4.993  0.0555  0.0877  0.4849
  107DG     C12 2450   0.289   1.469   4.842  0.4785  1.1545  0.2578
  107DG     H13 2451   0.511   1.873   4.930  0.2371 -1.0121 -1.0233
  107DG     H14 2452   0.412   1.960   5.035 -1.1272  0.5628 -0.5473
  107DG     H15 2453   0.341   1.478   4.752 -1.1141  2.6320  1.0485
  107DG     H16 2454   0.327   1.378   4.889 -1.3868 -1.0828  0.6640
  107DG     C17 2455   0.285   1.825   4.933  0.0502  0.2908  0.6669
  107DG     C18 2456   0.302   1.586   4.940  0.0114  0.5056 -0.3401
  107DG     O19 2457   0.292   1.704   4.860  0.2111 -0.0931 -0.4492
  107DG     H20 2458   0.246   1.906   4.870 -0.6103 -0.2313 -0.1465
  107DG     H21 2459   0.203   1.819   5.016  1.1720  1.6681  1.8504
  107DG     H22 2460   0.236   1.579   5.030  0.0088  1.2875  1.9525
  107DG     H23 2461   0.403   1.580   4.982 -0.5100 -0.7828  1.1154
  108DG      C1 2462   1.680   4.324   1.086 -0.2310 -0.2400  0.1013
  108DG      C2 2463   1.450   4.093   0.602  0.7783 -0.4487 -0.4041
  108DG      H3 2464   1.687   4.218   1.081  0.5369  1.2838 -2.0526
  108DG      H4 2465   1.580   4.346   1.109  0.8125 -1.7433 -1.5306
  108DG      H5 2466   1.746   4.359   1.166 -1.5611 -0.1126  0.4875
  108DG      H6 2467   1.438   3.994   0.552 -1.0718 -0.6936  0.0874
  108DG      H7 2468   1.409   4.089   0.707 -1.0992 -2.6144  1.1212
  108DG      H8 2469   1.390   4.161   0.546  0.9218  1.9064 -0.1180
  108DG      O9 2470   1.718   4.369   0.960  0.1471 -0.3345  0.0393
  108DG     O10 2471   1.587   4.143   0.638 -0.1490  0.1192  0.3726
  108DG     C11 2472   1.863   4.371   0.933 -0.1059 -0.4736 -0.1794
  108DG     C12 2473   1.664   4.029   0.692  0.1134  0.2266  0.8388
  108DG     H13 2474   1.926   4.395   1.028  1.2608  0.6084  1.4174
  108DG     H14 2475   1.896   4.444   0.862  0.9210 -0.9593 -0.6298
  108DG     H15 2476   1.668   3.956   0.618  1.5273  1.4456  1.8423
  108DG     H16 2477   1.625   3.982   0.779  1.5475  2.4146  0.3451
  108DG     C17 2478   1.900   4.238   0.876  0.2220 -0.4089  0.5849
  108DG     C18 2479   1.805   4.072   0.732  0.4833 -0.1665 -0.2289
  108DG     O19 2480   1.795   4.192   0.801  0.2645 -0.3551  0.0562
  108DG     H20 2481   1.910   4.176   0.959  0.9742 -0.2663 -2.1121
  108DG     H21 2482   1.995   4.250   0.824 -3.0079  2.1245 -2.0697
  108DG     H22 2483   1.851   4.003   0.801  1.2916  0.6594  0.5949
  108DG     H23 2484   1.859   4.079   0.638 -1.1766  0.1432  3.2034
  109DG      C1 2485   4.663   1.292   0.130  0.1693 -0.2800  0.2343
  109DG      C2 2486   5.078   1.771  -0.070 -0.5204  0.5420  0.5541
  109DG      H3 2487   4.654   1.210   0.199 -0.3830 -1.4825  0.9524
  109DG      H4 2488   4.677   1.243   0.035  0.4987  0.6988  1.1150
  109DG      H5 2489   4.566   1.345   0.131 -1.7694 -1.4575 -2.3402
  109DG      H6 2490   4.988   1.826  -0.085  0.4672 -2.1055  0.7263
  109DG      H7 2491   5.165   1.839  -0.052 -0.3843 -2.2855  0.2047
  109DG      H8 2492   5.088   1.712  -0.159 -5.2363 -1.4626 -1.3946
  109DG      O9 2493   4.775   1.370   0.155 -0.6870  0.2793 -0.6435
  109DG     O10 2494   5.049   1.689   0.043 -0.2660 -0.1519 -0.3375
  109DG     C11 2495   4.775   1.418   0.286 -0.0071 -0.3879  0.2304
  109DG     C12 2496   5.048   1.754   0.174  0.8382  0.3248  0.2148
  109DG     H13 2497   4.819   1.353   0.362 -1.1060  1.4485  0.8984
  109DG     H14 2498   4.672   1.435   0.321 -0.4578  3.0976 -2.9935
  109DG     H15 2499   4.946   1.797   0.184  1.5474 -0.8422  0.6988
  109DG     H16 2500   5.121   1.834   0.184  1.7570 -0.6400 -0.5747
  109DG     C17 2501   4.842   1.551   0.295 -0.1147 -0.1863 -0.0896
  109DG     C18 2502   5.058   1.651   0.291  0.4991 -0.1639 -0.0084
  109DG     O19 2503   4.981   1.536   0.265  0.1550  0.0356  0.2305
  109DG     H20 2504   4.816   1.587   0.395  0.0863 -3.2793  0.4519
  109DG     H21 2505   4.797   1.622   0.231  0.8584 -2.2477  0.9356
  109DG     H22 2506   5.163   1.623   0.297 -2.0841  1.8971 -3.0778
  109DG     H23 2507   5.029   1.708   0.385 -0.0801  1.5606  1.0909
  110DG      C1 2508   2.658   5.363   3.912 -0.0922  0.3673 -0.3122
  110DG      C2 2509   2.696   5.338   3.307  1.0789  0.0129  0.3078
  110DG      H3 2510   2.677   5.391   4.020  1.6486 -3.1959  0.1761
  110DG      H4 2511   2.617   5.255   3.907 -0.5267 -4.8542 -1.5572
  110DG      H5 2512   2.592   5.426   3.864  2.4254 -4.1751 -2.3773
  110DG      H6 2513   2.604   5.391   3.326  2.2015  1.0335  3.2699
  110DG      H7 2514   2.731   5.367   3.208 -0.2969  2.3712 -2.2404
  110DG      H8 2515   2.679   5.238   3.326 -1.6744  1.8270  0.4357
  110DG      O9 2516   2.789   5.365   3.851  0.6539  0.3104 -0.1449
  110DG     O10 2517   2.787   5.387   3.403 -0.1126  0.0614 -0.6457
  110DG     C11 2518   2.844   5.493   3.859  0.0474 -0.4957  0.1096
  110DG     C12 2519   2.820   5.525   3.398  0.3116  0.5269  0.4758
  110DG     H13 2520   2.915   5.497   3.943  1.4419  0.8798  2.0455
  110DG     H14 2521   2.770   5.572   3.854  0.5026 -0.1770  1.9640
  110DG     H15 2522   2.730   5.582   3.415  0.5292  1.3002 -3.0757
  110DG     H16 2523   2.851   5.552   3.299 -0.1543  2.3806 -2.9817
  110DG     C17 2524   2.939   5.501   3.736  0.5840  0.1879 -0.1768
  110DG     C18 2525   2.922   5.545   3.507  0.4067 -0.3220  0.5659
  110DG     O19 2526   2.853   5.526   3.630 -0.2397 -0.0347  0.4689
  110DG     H20 2527   2.987   5.409   3.715 -1.6669 -2.0897 -1.3272
  110DG     H21 2528   3.007   5.585   3.739  0.3075  2.0241  1.2538
  110DG     H22 2529   3.001   5.471   3.504 -1.9278 -1.4339  3.9127
  110DG     H23 2530   2.966   5.647   3.507 -1.0152  2.4198  2.0606
  111DG      C1 2531   5.163   2.805   2.166 -0.2593 -0.1509  0.3141
  111DG      C2 2532   4.669   2.475   2.417  0.5634  0.0798 -0.4391
  111DG      H3 2533   5.205   2.805   2.273  1.9202  0.0876  0.6464
  111DG      H4 2534   5.128   2.901   2.146  3.6759 -0.1855  2.4747
  111DG      H5 2535   5.255   2.782   2.107  1.0608  0.2134 -2.0156
  111DG      H6 2536   4.631   2.374   2.401  0.8232 -0.3104  0.3282
  111DG      H7 2537   4.742   2.479   2.497 -2.4217  0.6129  0.9353
  111DG      H8 2538   4.578   2.534   2.439  2.3568 -1.6104  2.0858
  111DG      O9 2539   5.068   2.711   2.128 -0.1245 -0.1591  0.2887
  111DG     O10 2540   4.726   2.522   2.295 -0.5071  0.5301 -0.1260
  111DG     C11 2541   5.025   2.719   1.995 -0.0244  0.2564  0.5570
  111DG     C12 2542   4.639   2.510   2.182 -0.1361 -0.3652  0.0872
  111DG     H13 2543   5.108   2.724   1.914 -0.5316 -0.1617 -1.1185
  111DG     H14 2544   4.960   2.805   1.986  2.7724  0.2637  0.9440
  111DG     H15 2545   4.560   2.592   2.177  0.1442 -3.7903  0.1512
  111DG     H16 2546   4.585   2.418   2.194  1.5820 -2.0942 -0.6109
  111DG     C17 2547   4.935   2.599   1.983 -0.2027  0.0454  0.1756
  111DG     C18 2548   4.728   2.511   2.056  0.5207 -0.4564  0.1511
  111DG     O19 2549   4.829   2.611   2.073  0.0924 -0.0007 -0.1161
  111DG     H20 2550   4.987   2.508   2.003 -1.3062 -3.0590 -0.7063
  111DG     H21 2551   4.899   2.601   1.883 -1.7756 -2.6809  0.1021
  111DG     H22 2552   4.775   2.413   2.056 -1.8098 -0.3196  1.5277
  111DG     H23 2553   4.664   2.513   1.963 -0.3756  1.8369 -1.7793
  112DG      C1 2554   3.898   4.507   0.428 -1.3254 -0.0248 -0.2477
  112DG      C2 2555   3.729   4.586   1.043 -0.5087 -0.7627  0.7941
  112DG      H3 2556   3.857   4.601   0.386  2.8345  0.4469 -2.4339
  112DG      H4 2557   3.935   4.432   0.355 -0.7762 -0.7415  1.2443
  112DG      H5 2558   3.989   4.540   0.479  0.1591 -0.8392  1.1469
  112DG      H6 2559   3.715   4.689   1.003 -0.1335 -2.8888 -3.9959
  112DG      H7 2560   3.683   4.557   1.136 -0.4466  0.0040  0.1139
  112DG      H8 2561   3.832   4.553   1.054 -1.3843 -1.1050 -1.0757
  112DG      O9 2562   3.816   4.447   0.521  0.1230  0.1758 -0.2824
  112DG     O10 2563   3.682   4.500   0.936 -0.7040  0.5683 -0.1822
  112DG     C11 2564   3.692   4.397   0.469  0.5770 -0.2057  0.1574
  112DG     C12 2565   3.547   4.521   0.908  0.2359  0.4226 -0.4606
  112DG     H13 2566   3.717   4.318   0.401  1.4297  2.4432  2.0684
  112DG     H14 2567   3.641   4.477   0.410  0.2358 -0.3871 -1.1245
  112DG     H15 2568   3.535   4.625   0.874  0.3959  3.6959  0.3377
  112DG     H16 2569   3.480   4.494   0.991 -0.8662 -1.9875 -0.8768
  112DG     C17 2570   3.599   4.346   0.581  0.1653 -0.0844 -0.2751
  112DG     C18 2571   3.507   4.430   0.790  0.0678 -0.6505 -0.5175
  112DG     O19 2572   3.604   4.440   0.687  0.3479 -0.0853  0.1690
  112DG     H20 2573   3.634   4.251   0.610 -0.1905 -0.9688 -1.5069
  112DG     H21 2574   3.499   4.346   0.546 -0.5876 -0.0742  2.1007
  112DG     H22 2575   3.500   4.328   0.822 -0.0444  3.6163 -2.0194
  112DG     H23 2576   3.411   4.466   0.757  0.7156  1.0786  0.1598
  113DG      C1 2577   0.358   1.189   4.598  0.6625 -0.4242 -0.4061
  113DG      C2 2578   0.760   1.573   4.681 -0.1012 -0.0945  0.1623
  113DG      H3 2579   0.331   1.084   4.613  0.5858  2.1868 -0.9289
  113DG      H4 2580   0.265   1.250   4.557 -0.3603  0.0604 -1.3379
  113DG      H5 2581   0.406   1.226   4.695 -0.7687 -0.7917  2.9417
  113DG      H6 2582   0.759   1.662   4.618 -1.7829 -0.0297 -0.1495
  113DG      H7 2583   0.679   1.575   4.757  1.1656 -1.1382 -0.9704
  113DG      H8 2584   0.859   1.579   4.726 -0.5701  1.1963  1.6208
  113DG      O9 2585   0.466   1.216   4.515 -0.1486 -0.2325  0.2385
  113DG     O10 2586   0.745   1.456   4.611 -0.1043  0.2068 -0.3686
  113DG     C11 2587   0.564   1.115   4.520  0.1698  0.2106 -0.7803
  113DG     C12 2588   0.855   1.421   4.527 -0.5043  0.0120  0.8967
  113DG     H13 2589   0.511   1.023   4.509  0.8034  1.6435  0.9173
  113DG     H14 2590   0.621   1.117   4.613 -0.0827  2.4441 -1.6914
  113DG     H15 2591   0.949   1.440   4.579 -0.9154  0.8039  1.5120
  113DG     H16 2592   0.859   1.486   4.440 -0.9241  1.3585  1.6322
  113DG     C17 2593   0.652   1.147   4.405 -0.2434  0.1913 -0.1981
  113DG     C18 2594   0.825   1.280   4.488 -0.2064  0.7560 -0.5217
  113DG     O19 2595   0.703   1.277   4.409 -0.2377 -0.4216  0.3796
  113DG     H20 2596   0.593   1.155   4.310 -0.4064  3.3363  1.7153
  113DG     H21 2597   0.729   1.074   4.395 -0.0573  1.5600  3.2225
  113DG     H22 2598   0.904   1.234   4.432  2.0646  1.0605  1.7705
  113DG     H23 2599   0.830   1.226   4.582  1.2028  0.1358 -0.9072
  114DG      C1 2600   5.208   3.697   4.497  0.2568 -0.8567 -0.2274
  114DG      C2 2601   5.337   3.955   5.148  0.1872  0.1728  0.6977
  114DG      H3 2602   5.312   3.688   4.478 -0.6395  0.1727 -1.5255
  114DG      H4 2603   5.189   3.788   4.441 -1.1308 -2.0869  0.7762
  114DG      H5 2604   5.151   3.608   4.447  0.1832 -1.1601 -2.4346
  114DG      H6 2605   5.319   4.058   5.130 -0.6732  1.0040 -0.2166
  114DG      H7 2606   5.330   3.933   5.253 -0.8566 -0.5138 -4.9361
  114DG      H8 2607   5.440   3.928   5.139 -1.8023  0.8088  3.7362
  114DG      O9 2608   5.176   3.708   4.632 -0.1631  0.2553  0.0646
  114DG     O10 2609   5.250   3.877   5.068 -0.1795 -0.5679  0.1389
  114DG     C11 2610   5.033   3.721   4.663 -0.2711 -0.2093  0.9503
  114DG     C12 2611   5.111   3.898   5.097  0.0096  0.1152  0.3525
  114DG     H13 2612   4.986   3.633   4.618  0.0190  0.5972  0.4188
  114DG     H14 2613   4.988   3.807   4.622 -0.1465  0.1970 -0.6722
  114DG     H15 2614   5.101   4.000   5.108 -1.7447  1.5115 -1.2305
  114DG     H16 2615   5.080   3.880   5.199 -2.5162 -2.1461  1.9849
  114DG     C17 2616   4.987   3.715   4.808  0.7495  0.5872 -0.1409
  114DG     C18 2617   5.009   3.831   5.011  0.1485 -0.0764 -0.1753
  114DG     O19 2618   5.054   3.819   4.875  0.3777 -0.4868  0.3543
  114DG     H20 2619   5.019   3.617   4.840  0.6968  1.2715  2.6710
  114DG     H21 2620   4.884   3.720   4.814  3.3955 -0.6086 -1.6042
  114DG     H22 2621   5.007   3.721   5.059  1.1665 -3.2188  0.4092
  114DG     H23 2622   4.906   3.877   5.022  0.8130  4.1910 -2.6014
  115DG      C1 2623   4.635   1.927   1.725  0.4413 -0.1971 -0.1411
  115DG      C2 2624   5.025   1.689   2.268  0.3257 -0.6525  0.6783
  115DG      H3 2625   4.620   1.980   1.627 -1.8816 -3.2911  2.0589
  115DG      H4 2626   4.570   1.973   1.800  1.0325 -3.0865  0.1866
  115DG      H5 2627   4.581   1.830   1.715 -2.6026  0.9406 -2.0358
  115DG      H6 2628   4.947   1.729   2.336 -0.7801 -0.8505 -0.5365
  115DG      H7 2629   5.006   1.582   2.283  0.0174 -1.8264  1.6093
  115DG      H8 2630   5.115   1.695   2.316 -1.9172 -1.4178 -0.4422
  115DG      O9 2631   4.767   1.911   1.771  0.2337  0.2632 -0.2243
  115DG     O10 2632   5.027   1.730   2.135  0.2337 -0.4545  0.1033
  115DG     C11 2633   4.851   1.836   1.679 -0.2517  0.0614 -0.0380
  115DG     C12 2634   5.093   1.634   2.052 -0.1622 -0.3399  0.1881
  115DG     H13 2635   4.851   1.893   1.579 -1.4682  1.5894  1.4680
  115DG     H14 2636   4.799   1.745   1.657 -1.5829  0.4801 -1.0840
  115DG     H15 2637   5.038   1.535   2.044  0.6305 -0.7191 -0.6710
  115DG     H16 2638   5.188   1.615   2.092 -0.5147 -1.4660 -1.3024
  115DG     C17 2639   4.991   1.822   1.732  0.1147 -0.2658  0.2212
  115DG     C18 2640   5.107   1.696   1.914 -0.1435 -0.1397  0.5943
  115DG     O19 2641   4.987   1.761   1.864 -0.2386 -0.4896 -0.4621
  115DG     H20 2642   5.042   1.919   1.723 -0.8841  0.4059  1.1601
  115DG     H21 2643   5.043   1.752   1.660 -1.2849 -1.2568 -1.0512
  115DG     H22 2644   5.188   1.760   1.913 -1.4462 -0.9887  1.9186
  115DG     H23 2645   5.132   1.609   1.853 -1.1914 -0.0709 -1.3773
  116DG      C1 2646   0.672   0.525   5.144  0.0618 -0.5800 -0.2085
  116DG      C2 2647   0.286   0.017   5.107 -0.2357  0.3811 -0.4492
  116DG      H3 2648   0.713   0.578   5.234 -1.6246 -2.1325  1.9715
  116DG      H4 2649   0.669   0.593   5.049 -1.8266  0.8811 -0.7334
  116DG      H5 2650   0.736   0.438   5.141 -1.5192  1.5373 -1.3490
  116DG      H6 2651   0.365  -0.041   5.046 -0.5834 -0.3019 -0.0320
  116DG      H7 2652   0.318   0.013   5.215  3.0332  1.4321  1.2207
  116DG      H8 2653   0.192  -0.042   5.108  0.2900 -2.9608 -0.6191
  116DG      O9 2654   0.544   0.478   5.178  0.2736  0.3947  0.4011
  116DG     O10 2655   0.279   0.150   5.053 -0.3267 -0.2380 -0.3222
  116DG     C11 2656   0.447   0.581   5.208 -0.4070 -0.1870  0.6444
  116DG     C12 2657   0.156   0.214   5.101  0.4062 -0.2719  0.1858
  116DG     H13 2658   0.479   0.676   5.183 -0.4199 -0.9397  4.0508
  116DG     H14 2659   0.436   0.576   5.316  1.3135 -2.1409 -0.1552
  116DG     H15 2660   0.147   0.177   5.204  0.9302  0.3000  3.3998
  116DG     H16 2661   0.075   0.183   5.039  0.6250  0.3941  1.4425
  116DG     C17 2662   0.327   0.545   5.119  0.0531 -0.6716 -0.0132
  116DG     C18 2663   0.166   0.366   5.096  0.8187 -0.2967 -0.7539
  116DG     O19 2664   0.286   0.411   5.141 -0.1622 -0.0445  0.2152
  116DG     H20 2665   0.346   0.548   5.018 -0.7207  0.0536  1.2444
  116DG     H21 2666   0.242   0.616   5.140 -0.1060  0.3900  0.1691
  116DG     H22 2667   0.152   0.402   4.994 -0.6513 -1.4628  1.4874
  116DG     H23 2668   0.078   0.408   5.160 -0.3134 -0.5414  1.2016
  117DG      C1 2669   1.805   3.573   0.912 -0.5040 -0.0387  0.8241
  117DG      C2 2670   1.446   3.183   1.293 -0.3908 -0.0296  0.1909
  117DG      H3 2671   1.857   3.645   0.976 -2.9945  1.1880  2.9215
  117DG      H4 2672   1.788   3.609   0.816  0.6655  1.4136  0.8884
  117DG      H5 2673   1.870   3.482   0.915 -2.6387  1.5601 -2.2738
  117DG      H6 2674   1.412   3.226   1.386 -0.7741 -0.7969 -0.9810
  117DG      H7 2675   1.385   3.101   1.259  1.8270  2.5952 -0.7089
  117DG      H8 2676   1.556   3.168   1.309  1.2708 -0.5601  1.6239
  117DG      O9 2677   1.679   3.535   0.955 -0.1753  0.3052 -0.2552
  117DG     O10 2678   1.424   3.279   1.191 -0.3161 -0.3478  0.8566
  117DG     C11 2679   1.582   3.637   0.946  0.1060  0.1944  0.5525
  117DG     C12 2680   1.295   3.338   1.193 -0.4406  0.2509 -0.2605
  117DG     H13 2681   1.594   3.698   0.859  1.1835 -2.0508 -0.0361
  117DG     H14 2682   1.597   3.704   1.028  1.2205 -3.0047 -0.2438
  117DG     H15 2683   1.285   3.403   1.285 -0.5278  0.6328 -1.1371
  117DG     H16 2684   1.208   3.273   1.172 -1.4742  0.9171 -0.6907
  117DG     C17 2685   1.435   3.584   0.944 -0.4925 -1.4422 -0.6581
  117DG     C18 2686   1.305   3.432   1.070  0.6049  0.1338  0.2130
  117DG     O19 2687   1.426   3.500   1.062  0.2525  0.1587  0.2723
  117DG     H20 2688   1.415   3.529   0.852 -0.1113  0.7638 -0.1360
  117DG     H21 2689   1.353   3.664   0.950 -0.1786 -0.8045 -1.8672
  117DG     H22 2690   1.294   3.374   0.978  0.3339 -0.5040 -1.2466
  117DG     H23 2691   1.226   3.508   1.070 -0.0060  0.3500 -0.3827
  118DG      C1 2692   0.222   4.649   5.374  0.5019  0.7874  0.2793
  118DG      C2 2693   0.355   4.076   5.691  0.4974 -0.5931  0.0094
  118DG      H3 2694   0.200   4.754   5.393 -0.1788 -2.8971 -1.6315
  118DG      H4 2695   0.162   4.631   5.287  2.6614 -0.5733  1.5387
  118DG      H5 2696   0.326   4.647   5.361 -0.8194  0.4563  0.8561
  118DG      H6 2697   0.338   4.011   5.599 -1.1548  1.1438 -3.2835
  118DG      H7 2698   0.456   4.106   5.679 -2.3252 -3.7026  0.9487
  118DG      H8 2699   0.346   4.007   5.778 -0.0191 -0.6089 -0.9342
  118DG      O9 2700   0.189   4.568   5.488 -0.4265  0.5742 -0.1187
  118DG     O10 2701   0.252   4.179   5.681  0.3235  0.2963  0.4125
  118DG     C11 2702   0.049   4.549   5.500 -0.5512  0.1473 -0.8673
  118DG     C12 2703   0.124   4.119   5.683 -0.4580 -0.1814  0.4170
  118DG     H13 2704   0.011   4.508   5.411  0.4776  0.8172 -0.1502
  118DG     H14 2705   0.003   4.646   5.513  1.3117 -1.9283  1.2307
  118DG     H15 2706   0.112   4.048   5.769 -2.8663 -2.0872  0.4055
  118DG     H16 2707   0.096   4.085   5.584 -1.1752  0.9945  2.6989
  118DG     C17 2708   0.005   4.462   5.616  0.2121 -0.3218 -0.3315
  118DG     C18 2709   0.033   4.238   5.703  0.3683 -0.6542 -0.0157
  118DG     O19 2710   0.066   4.335   5.603  0.1336 -0.2063  0.2012
  118DG     H20 2711  -0.107   4.458   5.614 -0.9783 -1.1912  0.1866
  118DG     H21 2712   0.028   4.501   5.719  1.3582  0.5204  1.3613
  118DG     H22 2713  -0.074   4.210   5.689 -1.6828  0.6701 -4.1457
  118DG     H23 2714   0.049   4.283   5.797  2.2899  0.5524 -0.9248
  119DG      C1 2715   2.567   3.197   2.337  0.2820  0.2038 -0.7051
  119DG      C2 2716   2.875   2.731   1.974 -0.2473 -0.3525  0.3063
  119DG      H3 2717   2.469   3.179   2.299 -0.0903  1.1607 -3.1719
  119DG      H4 2718   2.616   3.253   2.268  1.0396 -2.1125  1.7902
  119DG      H5 2719   2.542   3.254   2.433  2.0429 -2.4216 -0.7115
  119DG      H6 2720   2.783   2.742   1.921 -1.2253 -3.8952  2.8340
  119DG      H7 2721   2.965   2.785   1.941  0.6011  0.2024  0.5645
  119DG      H8 2722   2.903   2.621   1.972 -0.3568 -1.1891  3.1451
  119DG      O9 2723   2.647   3.091   2.356 -0.2643  0.2623 -0.3784
  119DG     O10 2724   2.847   2.767   2.106  0.0635 -0.4544  0.0918
  119DG     C11 2725   2.769   3.105   2.433 -0.2696 -0.2001 -0.6116
  119DG     C12 2726   2.956   2.744   2.200  0.4045  1.1876  0.0738
  119DG     H13 2727   2.743   3.157   2.526 -2.5782  0.5510 -0.4584
  119DG     H14 2728   2.839   3.179   2.380  1.4047 -0.9299  0.0533
  119DG     H15 2729   3.040   2.792   2.155  2.2116 -3.3588 -0.8548
  119DG     H16 2730   2.967   2.631   2.199  0.8640 -0.8729  0.2351
  119DG     C17 2731   2.845   2.979   2.461  0.6885 -0.5483  0.3758
  119DG     C18 2732   2.934   2.791   2.344 -0.8592  0.4296  0.3611
  119DG     O19 2733   2.889   2.928   2.337  0.1214  0.0049 -0.8671
  119DG     H20 2734   2.769   2.910   2.516 -1.7920 -3.7186  1.7085
  119DG     H21 2735   2.933   2.998   2.525 -0.0251 -1.4626 -2.1739
  119DG     H22 2736   2.866   2.726   2.385  0.8708 -0.4175 -0.7355
  119DG     H23 2737   3.030   2.786   2.396  3.3297  0.8296 -0.4173
  120DG      C1 2738   1.218   0.128   1.872  0.5622 -0.1196  0.2305
  120DG      C2 2739   0.824   0.413   1.387 -0.2225  0.8606 -0.6256
  120DG      H3 2740   1.203   0.162   1.975  0.3563 -0.9582 -1.1264
  120DG      H4 2741   1.317   0.080   1.879  1.1167 -0.0154  0.3505
  120DG      H5 2742   1.155   0.041   1.864  0.6754 -0.4281  2.4112
  120DG      H6 2743   0.832   0.479   1.307  0.2540  0.0592 -2.0810
  120DG      H7 2744   0.817   0.308   1.358 -0.2972 -2.1771  0.9483
  120DG      H8 2745   0.730   0.424   1.445 -0.9362 -0.8015 -0.5998
  120DG      O9 2746   1.222   0.225   1.769  0.2298 -0.5074  0.3947
  120DG     O10 2747   0.932   0.414   1.471 -0.5255 -0.1797  0.1697
  120DG     C11 2748   1.301   0.338   1.807  1.2326 -0.1537  0.0720
  120DG     C12 2749   0.946   0.535   1.542  0.2341 -0.5726 -0.6849
  120DG     H13 2750   1.406   0.307   1.822 -1.9857 -0.0038 -0.7808
  120DG     H14 2751   1.258   0.371   1.900  1.9504  1.8480 -0.4190
  120DG     H15 2752   0.876   0.534   1.624 -2.2476 -0.2724  0.7680
  120DG     H16 2753   0.924   0.622   1.486 -0.1653 -0.6475  3.0943
  120DG     C17 2754   1.283   0.443   1.692  0.3871 -0.1037 -0.0594
  120DG     C18 2755   1.099   0.554   1.581  0.6753  0.3369 -0.0370
  120DG     O19 2756   1.142   0.449   1.666  0.8693 -0.4340  0.0265
  120DG     H20 2757   1.335   0.416   1.605  0.2815 -0.9159 -0.7135
  120DG     H21 2758   1.332   0.540   1.722  2.0869  0.1025 -4.0106
  120DG     H22 2759   1.156   0.544   1.484 -2.0252 -1.1978 -1.1452
  120DG     H23 2760   1.113   0.650   1.626 -2.1586  0.6812 -1.6789
  121DG      C1 2761   1.500   3.687   2.139  0.0303 -0.3840 -0.0785
  121DG      C2 2762   1.062   4.159   1.877 -0.1693 -1.1393 -0.7729
  121DG      H3 2763   1.545   3.594   2.116 -0.6714  2.2561  0.3817
  121DG      H4 2764   1.422   3.656   2.209  0.4705 -3.4008 -1.2046
  121DG      H5 2765   1.580   3.742   2.188  2.4434  1.1978  0.0704
  121DG      H6 2766   1.050   4.210   1.975 -1.3802 -2.7883 -1.0188
  121DG      H7 2767   1.022   4.223   1.801  0.1726  0.1125  0.6397
  121DG      H8 2768   0.995   4.075   1.893 -1.6756  3.6806  0.3239
  121DG      O9 2769   1.448   3.743   2.015 -0.1802 -0.0928 -0.0496
  121DG     O10 2770   1.202   4.131   1.853 -0.1913  0.2520  0.0446
  121DG     C11 2771   1.555   3.768   1.920  0.7064 -0.6435 -1.0444
  121DG     C12 2772   1.220   4.051   1.731 -0.6382 -0.3035  0.5826
  121DG     H13 2773   1.610   3.679   1.896  0.6184  1.3746  2.8268
  121DG     H14 2774   1.626   3.830   1.975 -0.1163 -1.2559  1.7638
  121DG     H15 2775   1.181   4.108   1.643  0.9831  1.4912 -0.1162
  121DG     H16 2776   1.157   3.962   1.751  0.3103 -0.4141  2.4914
  121DG     C17 2777   1.506   3.832   1.797  0.5513 -0.0916 -0.3515
  121DG     C18 2778   1.365   4.003   1.716  0.2425  0.5836  0.5396
  121DG     O19 2779   1.410   3.930   1.827  0.4136  0.1335 -0.0224
  121DG     H20 2780   1.451   3.766   1.737 -0.0776  1.2832  2.2299
  121DG     H21 2781   1.589   3.881   1.756  0.2448  3.2469  2.4531
  121DG     H22 2782   1.376   3.964   1.613 -3.5019  1.2621 -0.1190
  121DG     H23 2783   1.426   4.092   1.716  2.0565 -0.5023 -1.6500
  122DG      C1 2784   3.766   1.552   4.548 -0.9716  0.2835 -0.0138
  122DG      C2 2785   3.732   1.070   4.926 -0.0694  0.6066  0.2381
  122DG      H3 2786   3.831   1.609   4.472  0.5472 -1.7326 -1.3819
  122DG      H4 2787   3.670   1.603   4.586 -0.9717 -1.5082  0.9344
  122DG      H5 2788   3.737   1.459   4.491 -1.0439 -1.7878 -1.3842
  122DG      H6 2789   3.834   1.027   4.943  3.8095 -2.2818  2.4778
  122DG      H7 2790   3.670   1.053   5.018  0.9612 -0.2385  0.3444
  122DG      H8 2791   3.681   1.008   4.850 -3.1938  1.6946  2.1155
  122DG      O9 2792   3.852   1.500   4.655  0.3370  0.3022  0.1464
  122DG     O10 2793   3.733   1.213   4.896  0.1296  0.8359 -0.6418
  122DG     C11 2794   3.917   1.603   4.733 -0.3291 -0.0055  0.3670
  122DG     C12 2795   3.803   1.291   4.996  0.0989  0.4180 -0.7620
  122DG     H13 2796   3.849   1.662   4.792  2.1502  1.7472  2.2435
  122DG     H14 2797   3.962   1.671   4.665  0.2380  0.7555 -2.2923
  122DG     H15 2798   3.887   1.234   5.047  0.7150 -1.9981 -0.4758
  122DG     H16 2799   3.734   1.306   5.073  0.5627 -0.7665  0.4926
  122DG     C17 2800   4.012   1.533   4.818 -0.4654 -0.2046  0.2432
  122DG     C18 2801   3.844   1.424   4.958 -0.0598 -1.3747 -0.1446
  122DG     O19 2802   3.964   1.410   4.875  0.7211 -0.3531 -0.2289
  122DG     H20 2803   4.032   1.601   4.895 -0.5449  0.8610 -0.4947
  122DG     H21 2804   4.110   1.517   4.765 -2.9220  0.3480  0.5319
  122DG     H22 2805   3.763   1.484   4.913 -3.3449 -1.2806  2.6540
  122DG     H23 2806   3.876   1.486   5.039  1.0385 -0.2054 -2.2984
  123DG      C1 2807   1.091   3.799   2.096 -0.4286  0.0078  0.2364
  123DG      C2 2808   1.617   4.173   1.992  0.5872  0.7024  1.0533
  123DG      H3 2809   1.021   3.760   2.174 -1.5327  2.8792  0.5006
  123DG      H4 2810   1.197   3.767   2.109  0.5138  0.5682 -1.5603
  123DG      H5 2811   1.061   3.767   1.997 -0.1874  2.5237  1.4636
  123DG      H6 2812   1.683   4.194   2.073  2.7170  1.3220  0.3890
  123DG      H7 2813   1.648   4.079   1.938  0.0268 -3.3307 -1.7121
  123DG      H8 2814   1.605   4.248   1.911  1.8185  1.8222  0.0389
  123DG      O9 2815   1.097   3.940   2.102  0.3908  0.6905 -0.0198
  123DG     O10 2816   1.489   4.160   2.052  0.4969  0.0576 -0.3534
  123DG     C11 2817   1.074   3.995   2.225  0.5775  0.7208  0.0966
  123DG     C12 2818   1.440   4.281   2.113  0.9806  0.2174  0.5495
  123DG     H13 2819   1.115   3.940   2.309 -1.8472  2.8943  0.7516
  123DG     H14 2820   0.967   4.000   2.257 -1.3171  0.8582  3.0563
  123DG     H15 2821   1.407   4.331   2.024 -0.6110 -1.9972  1.6602
  123DG     H16 2822   1.519   4.331   2.167  2.3068 -2.4766 -1.1563
  123DG     C17 2823   1.127   4.135   2.235 -0.4417 -0.3097  0.6370
  123DG     C18 2824   1.320   4.271   2.195  0.7763 -0.0024  0.5281
  123DG     O19 2825   1.251   4.148   2.168  0.0299  0.0854  0.5330
  123DG     H20 2826   1.137   4.165   2.339 -1.1397  0.5246 -1.8425
  123DG     H21 2827   1.057   4.196   2.193  0.0149  0.1329  0.0075
  123DG     H22 2828   1.361   4.281   2.293  0.9397 -1.8043 -0.1887
  123DG     H23 2829   1.257   4.357   2.178 -2.4945  1.0288 -1.2128
  124DG      C1 2830   5.130   2.770   4.663 -0.0105 -0.4223 -0.2176
  124DG      C2 2831   5.099   3.310   4.895  0.4719  0.6385 -0.6592
  124DG      H3 2832   5.115   2.664   4.670 -0.3176 -0.3882  0.9035
  124DG      H4 2833   5.109   2.815   4.759 -0.6228  0.0793 -0.5352
  124DG      H5 2834   5.237   2.792   4.643 -1.2967 -0.1164  1.0750
  124DG      H6 2835   5.200   3.362   4.897  2.2001 -0.4676 -1.8223
  124DG      H7 2836   5.035   3.328   4.978 -0.3902  1.2724 -5.0470
  124DG      H8 2837   5.117   3.203   4.919 -1.9077  0.6489  1.4551
  124DG      O9 2838   5.052   2.807   4.552  0.2762 -0.3231 -0.2484
  124DG     O10 2839   5.044   3.340   4.770  0.3365  0.8761  0.1687
  124DG     C11 2840   5.077   2.940   4.502 -0.0755 -0.5365 -0.3765
  124DG     C12 2841   4.919   3.283   4.740 -0.0414  0.2670  0.3451
  124DG     H13 2842   5.045   2.938   4.399 -1.7488  0.6131 -0.2393
  124DG     H14 2843   5.187   2.955   4.509 -1.5806 -1.2694  1.0247
  124DG     H15 2844   4.847   3.355   4.785 -1.2324  0.1175 -2.0425
  124DG     H16 2845   4.893   3.190   4.792 -3.4886  1.7254  0.7569
  124DG     C17 2846   4.987   3.038   4.584  0.5350 -0.0280 -0.2595
  124DG     C18 2847   4.892   3.264   4.589 -0.3175  0.0343 -0.9442
  124DG     O19 2848   4.976   3.170   4.524  0.2690  0.0579  0.6746
  124DG     H20 2849   5.046   3.040   4.676  0.1857  1.5118  1.1549
  124DG     H21 2850   4.887   3.004   4.604  1.2620  0.2888 -1.3026
  124DG     H22 2851   4.786   3.232   4.582 -0.7768  2.9699  2.8847
  124DG     H23 2852   4.908   3.365   4.545 -1.5001 -2.9338  2.7558
  125DG      C1 2853   0.190   5.112   1.853  0.7724 -0.2647  0.3881
  125DG      C2 2854   0.198   4.615   2.353  0.7387  0.0116 -0.8748
  125DG      H3 2855   0.246   5.203   1.868 -1.4951  1.9452 -0.6750
  125DG      H4 2856   0.088   5.122   1.895  0.8450 -2.4829  3.2396
  125DG      H5 2857   0.180   5.108   1.745 -1.0677  1.3654  1.6320
  125DG      H6 2858   0.278   4.571   2.412 -2.6951  2.2005 -1.2689
  125DG      H7 2859   0.194   4.719   2.364  1.3278  0.1106 -1.3547
  125DG      H8 2860   0.103   4.567   2.384  0.1022  0.0340 -1.5762
  125DG      O9 2861   0.269   4.998   1.898  0.1775  0.2411  0.7762
  125DG     O10 2862   0.226   4.580   2.221 -0.1325  0.4582  0.6250
  125DG     C11 2863   0.251   4.882   1.813  0.2126  0.0221  0.3875
  125DG     C12 2864   0.364   4.614   2.183 -0.0125 -0.2086  0.0544
  125DG     H13 2865   0.267   4.912   1.704  1.2449 -0.9026 -0.1591
  125DG     H14 2866   0.152   4.841   1.827  0.9085 -0.1213 -1.2970
  125DG     H15 2867   0.433   4.539   2.222  1.0871 -3.1083 -1.8231
  125DG     H16 2868   0.393   4.704   2.236 -0.7940 -0.8861 -2.2943
  125DG     C17 2869   0.344   4.769   1.857  0.0445 -0.8244 -0.2692
  125DG     C18 2870   0.390   4.637   2.033  0.6136  0.3623 -0.8924
  125DG     O19 2871   0.323   4.749   1.996  0.4262 -0.0641 -0.9217
  125DG     H20 2872   0.444   4.787   1.838 -2.2136  0.4758  1.3955
  125DG     H21 2873   0.313   4.683   1.806  0.2090  0.7609 -0.0162
  125DG     H22 2874   0.497   4.653   2.020 -0.5355  4.4875 -1.3269
  125DG     H23 2875   0.359   4.551   1.977  3.1280 -0.2138 -2.1755
  126DG      C1 2876   4.842   0.728   3.164 -0.0060  0.2742 -0.2228
  126DG      C2 2877   4.734   0.805   2.602 -0.7654  0.4887 -0.1709
  126DG      H3 2878   4.813   0.645   3.109  1.1117  2.8544 -1.7220
  126DG      H4 2879   4.757   0.797   3.180 -2.2212 -0.4467 -0.8449
  126DG      H5 2880   4.868   0.690   3.266 -1.2721  2.1999 -0.0340
  126DG      H6 2881   4.695   0.763   2.503 -2.5691  0.3003 -0.4339
  126DG      H7 2882   4.645   0.845   2.647  1.7377  0.1262  1.7836
  126DG      H8 2883   4.808   0.883   2.587  0.1968  3.0738  1.2252
  126DG      O9 2884   4.942   0.802   3.094  0.1414 -0.0710  0.6688
  126DG     O10 2885   4.792   0.714   2.683  0.1185  0.5483 -0.3815
  126DG     C11 2886   5.066   0.741   3.079 -0.5045 -0.4153  0.0590
  126DG     C12 2887   4.911   0.653   2.631  0.0387 -0.1123  0.3815
  126DG     H13 2888   5.095   0.684   3.173 -2.5399 -2.1290 -1.3491
  126DG     H14 2889   5.135   0.820   3.067 -2.1565 -2.2176  1.6734
  126DG     H15 2890   4.979   0.724   2.589  2.9781 -0.6605 -1.9625
  126DG     H16 2891   4.892   0.585   2.556 -0.1318  0.9126  0.7609
  126DG     C17 2892   5.075   0.639   2.956  0.4902  0.7804 -0.4880
  126DG     C18 2893   4.982   0.590   2.748 -0.2072  0.1373 -0.0328
  126DG     O19 2894   4.996   0.681   2.851 -0.0500  0.2042 -0.1989
  126DG     H20 2895   5.018   0.551   2.985  2.1088  0.5294 -2.2895
  126DG     H21 2896   5.179   0.609   2.936  2.1086  1.9743  2.0550
  126DG     H22 2897   4.922   0.500   2.781  1.1093 -0.1606 -2.3550
  126DG     H23 2898   5.081   0.544   2.724 -0.8280  1.0211 -3.7028
  127DG      C1 2899   2.915   1.173   0.053  0.4537  0.2541  0.5802
  127DG      C2 2900   2.620   1.894   0.147  0.2675 -0.1648  0.8632
  127DG      H3 2901   2.951   1.084   0.002 -1.6837 -2.8308 -0.9114
  127DG      H4 2902   2.832   1.152   0.110  0.5477  1.3014  1.1557
  127DG      H5 2903   2.990   1.216   0.120 -0.5987  0.3710  2.2286
  127DG      H6 2904   2.514   1.877   0.127 -0.9422 -3.1772  0.8762
  127DG      H7 2905   2.628   1.906   0.256  3.2651 -0.5181 -0.4894
  127DG      H8 2906   2.655   1.990   0.113 -1.6541  0.0705  1.8441
  127DG      O9 2907   2.867   1.262  -0.050 -0.3964 -0.7463 -0.3483
  127DG     O10 2908   2.699   1.788   0.092  0.1414  0.3070 -0.7405
  127DG     C11 2909   2.839   1.386   0.006  0.3082 -0.3456  0.0657
  127DG     C12 2910   2.837   1.804   0.124  0.4719 -0.8150 -0.0864
  127DG     H13 2911   2.829   1.378   0.115  0.7832 -1.9679 -1.6104
  127DG     H14 2912   2.737   1.402  -0.016  1.0259  2.4376  1.5730
  127DG     H15 2913   2.863   1.766   0.222  0.4614  1.9029  2.3329
  127DG     H16 2914   2.879   1.909   0.137  1.4485  0.4791  1.9809
  127DG     C17 2915   2.932   1.498  -0.047  0.2725  0.2200 -0.1848
  127DG     C18 2916   2.926   1.732   0.021 -1.1065 -0.4023  0.2911
  127DG     O19 2917   2.855   1.618  -0.012  0.0723 -0.1922  0.1542
  127DG     H20 2918   2.963   1.493  -0.156 -0.7681 -0.7311 -0.7213
  127DG     H21 2919   3.024   1.480   0.015  0.3712 -1.2381  1.0313
  127DG     H22 2920   2.963   1.791  -0.060 -0.2740  1.0750 -1.5337
  127DG     H23 2921   3.014   1.695   0.073 -2.8777  0.7041  0.3727
  128DG      C1 2922   3.006   4.399   3.877  0.2753  0.4274 -0.2088
  128DG      C2 2923   3.275   3.967   3.454 -0.1442  0.4404  0.8038
  128DG      H3 2924   3.098   4.456   3.892  0.3216  0.7267 -1.0370
  128DG      H4 2925   3.021   4.320   3.953  1.1076 -0.3934  4.4669
  128DG      H5 2926   2.931   4.463   3.904  3.0736  1.6663 -1.1267
  128DG      H6 2927   3.356   3.937   3.391 -2.0969 -0.6263 -1.4562
  128DG      H7 2928   3.290   3.924   3.550 -1.3485  2.3625 -1.0234
  128DG      H8 2929   3.179   3.918   3.426  0.0111 -1.6381 -0.0476
  128DG      O9 2930   2.999   4.363   3.742 -0.0205 -0.0507 -0.1730
  128DG     O10 2931   3.239   4.104   3.477 -0.1377  0.2337  0.5660
  128DG     C11 2932   2.991   4.470   3.656 -0.2995  0.0881  0.0478
  128DG     C12 2933   3.238   4.187   3.359  0.0896 -0.1958 -0.0705
  128DG     H13 2934   3.077   4.529   3.675 -1.7820  3.1588  2.6011
  128DG     H14 2935   2.909   4.531   3.686 -3.2257  1.2957 -0.3939
  128DG     H15 2936   3.259   4.127   3.269 -1.1651  1.2402 -2.7346
  128DG     H16 2937   3.325   4.246   3.366  0.5507 -0.6665 -0.7278
  128DG     C17 2938   2.981   4.410   3.509 -0.4411  0.2941 -0.2795
  128DG     C18 2939   3.116   4.276   3.360  0.2663 -0.4462 -0.5118
  128DG     O19 2940   3.077   4.305   3.495  0.0314 -0.1266  0.4090
  128DG     H20 2941   2.989   4.496   3.449  0.0917 -4.0546  1.7768
  128DG     H21 2942   2.884   4.371   3.485 -0.6910 -1.1767  0.2127
  128DG     H22 2943   3.134   4.370   3.307 -0.7203  0.9408  0.3714
  128DG     H23 2944   3.031   4.219   3.312 -1.7670  0.7084  2.0022
  129DG      C1 2945   5.120   2.055   2.000  0.1935 -0.0775  0.2923
  129DG      C2 2946   4.656   1.560   2.222 -0.0722 -0.1683 -0.2286
  129DG      H3 2947   5.166   1.975   1.950 -1.6344  2.2511  3.6243
  129DG      H4 2948   5.176   2.063   2.091  1.1777  0.3854  0.1892
  129DG      H5 2949   5.141   2.140   1.941  0.0340  0.4539  1.5038
  129DG      H6 2950   4.704   1.495   2.147  1.8141 -0.4929  1.2398
  129DG      H7 2951   4.715   1.553   2.315 -1.1192  0.7061  1.7476
  129DG      H8 2952   4.552   1.525   2.235 -2.0718  2.0753  3.5107
  129DG      O9 2953   4.981   2.032   2.013 -0.3799  0.4827  0.2589
  129DG     O10 2954   4.662   1.695   2.168  0.2576 -0.2790  0.1503
  129DG     C11 2955   4.919   2.131   2.089  0.0287  0.2766 -0.0884
  129DG     C12 2956   4.612   1.793   2.252 -0.3760  0.0058 -0.0545
  129DG     H13 2957   4.928   2.237   2.059 -0.3617  0.8926 -1.8987
  129DG     H14 2958   4.962   2.136   2.189 -1.0110 -3.4484 -0.1724
  129DG     H15 2959   4.673   1.792   2.345  2.8801  0.3861 -1.4234
  129DG     H16 2960   4.508   1.765   2.274 -0.3132  0.5840  2.2929
  129DG     C17 2961   4.768   2.094   2.104 -0.4922  0.3088  0.3729
  129DG     C18 2962   4.614   1.929   2.186 -0.1391  0.0688 -0.2085
  129DG     O19 2963   4.751   1.969   2.170 -0.2379 -0.2924  0.2132
  129DG     H20 2964   4.721   2.093   2.004  0.1069  0.9536 -0.9287
  129DG     H21 2965   4.705   2.165   2.162 -0.8395 -0.0833  0.6769
  129DG     H22 2966   4.558   1.929   2.090  0.1005 -3.1952 -0.9857
  129DG     H23 2967   4.578   2.004   2.249  1.5103 -0.6498  0.1410
  130DG      C1 2968   1.788   0.157   2.432 -0.2004  0.5574  0.0031
  130DG      C2 2969   2.308   0.292   2.838  0.1970  0.0611 -0.0890
  130DG      H3 2970   1.804   0.051   2.412  0.2599 -1.3451  1.8730
  130DG      H4 2971   1.851   0.203   2.362 -1.3671 -2.4443 -1.0384
  130DG      H5 2972   1.686   0.188   2.408 -0.1305  1.5531  0.3897
  130DG      H6 2973   2.353   0.371   2.901 -0.1738  0.8212 -0.0347
  130DG      H7 2974   2.356   0.197   2.862  1.3416  0.6781  0.0402
  130DG      H8 2975   2.328   0.316   2.733  1.0070  2.3447 -1.0358
  130DG      O9 2976   1.826   0.190   2.563  0.2026 -0.1846  0.3417
  130DG     O10 2977   2.164   0.283   2.836 -0.1376 -0.5861  0.2186
  130DG     C11 2978   1.748   0.116   2.657  0.5563 -0.0246  0.9141
  130DG     C12 2979   2.097   0.238   2.949  0.1349  0.3611 -0.1438
  130DG     H13 2980   1.768   0.010   2.650 -0.5008 -0.6097 -1.5947
  130DG     H14 2981   1.638   0.115   2.630  2.2418 -1.9428 -0.4451
  130DG     H15 2982   2.129   0.288   3.039  0.5925  1.6315  0.6541
  130DG     H16 2983   2.127   0.141   2.977 -3.2735  0.1117  1.1560
  130DG     C17 2984   1.768   0.180   2.797 -0.9527  0.2301 -0.1500
  130DG     C18 2985   1.941   0.255   2.933  0.4355  0.4179  0.2187
  130DG     O19 2986   1.906   0.182   2.816  0.0481 -0.5455 -0.0937
  130DG     H20 2987   1.722   0.136   2.886 -3.4644  2.6260  1.0453
  130DG     H21 2988   1.717   0.268   2.792  0.0966  0.4094 -0.1456
  130DG     H22 2989   1.879   0.226   3.021  3.6612  0.5376  1.2457
  130DG     H23 2990   1.926   0.359   2.915  0.8633 -0.1227 -0.3284
  131DG      C1 2991   4.434   2.853   4.091  0.0420 -0.1322  0.1429
  131DG      C2 2992   5.116   2.540   3.817 -0.6074  0.4998 -0.1128
  131DG      H3 2993   4.378   2.883   4.180  0.1197  2.6749 -0.2951
  131DG      H4 2994   4.380   2.770   4.034  0.3372  0.2752  1.2098
  131DG      H5 2995   4.432   2.946   4.039  0.9400  1.6027  1.3674
  131DG      H6 2996   5.146   2.441   3.762 -0.2047 -0.4401  0.9050
  131DG      H7 2997   5.133   2.615   3.741 -0.2300 -2.2647 -0.5671
  131DG      H8 2998   5.204   2.551   3.879  0.5617  1.8253  0.8003
  131DG      O9 2999   4.564   2.803   4.113 -0.1514 -0.3249 -0.1950
  131DG     O10 3000   4.992   2.560   3.889 -0.4898  0.3346  0.4645
  131DG     C11 3001   4.653   2.884   4.180  0.0992 -0.8740 -0.3464
  131DG     C12 3002   4.998   2.669   3.978 -0.1294 -0.4891  0.4888
  131DG     H13 3003   4.605   2.926   4.273 -0.5851  1.2495  3.8216
  131DG     H14 3004   4.683   2.971   4.127  1.4735 -1.8934  1.4208
  131DG     H15 3005   5.014   2.769   3.923 -1.9636  0.7506 -1.7216
  131DG     H16 3006   5.084   2.654   4.046 -0.0248 -0.8600 -1.9586
  131DG     C17 3007   4.780   2.818   4.237  0.0247  0.4613 -0.5655
  131DG     C18 3008   4.864   2.683   4.053 -0.3492  0.2374  0.1050
  131DG     O19 3009   4.883   2.792   4.136 -0.0400  0.0339 -0.2122
  131DG     H20 3010   4.763   2.734   4.299  0.1660  2.3285  1.0394
  131DG     H21 3011   4.822   2.879   4.313 -1.1249 -0.3916  2.0186
  131DG     H22 3012   4.776   2.701   3.983 -0.7810  0.3914 -2.2627
  131DG     H23 3013   4.846   2.593   4.117 -0.5169 -0.0577  0.0499
  132DG      C1 3014   5.016   0.236   1.429  0.1931 -0.4698 -0.4627
  132DG      C2 3015   5.107  -0.264   1.933 -0.3049 -0.1118  0.1207
  132DG      H3 3016   4.930   0.276   1.488  0.8693 -2.2814 -2.9948
  132DG      H4 3017   4.961   0.172   1.351  0.9394 -0.2174 -0.6861
  132DG      H5 3018   5.067   0.321   1.373  1.2393  0.2629  1.0959
  132DG      H6 3019   5.026  -0.213   1.981 -0.4889 -0.2948  2.0264
  132DG      H7 3020   5.067  -0.331   1.855 -0.3803  2.4141  0.7278
  132DG      H8 3021   5.164  -0.318   2.003 -1.0301  1.4280 -0.9996
  132DG      O9 3022   5.110   0.158   1.509  0.6881  0.7658 -0.2646
  132DG     O10 3023   5.186  -0.165   1.865 -0.2318 -0.3376  0.2695
  132DG     C11 3024   5.213   0.095   1.441 -0.2904 -0.1983 -0.7428
  132DG     C12 3025   5.308  -0.215   1.804 -0.3514 -0.0044  0.0694
  132DG     H13 3026   5.251   0.158   1.356 -0.4596 -0.5877 -1.4615
  132DG     H14 3027   5.177   0.008   1.389  1.9385 -0.4535  0.3613
  132DG     H15 3028   5.280  -0.279   1.733 -1.5652 -1.8299 -1.5327
  132DG     H16 3029   5.376  -0.260   1.870 -2.9186 -0.3718  0.0631
  132DG     C17 3030   5.333   0.048   1.535 -0.6197  0.4511 -0.0939
  132DG     C18 3031   5.370  -0.089   1.730 -0.1415  0.1750 -0.3408
  132DG     O19 3032   5.277  -0.038   1.636  0.6400 -0.0357 -0.2098
  132DG     H20 3033   5.375   0.128   1.581 -3.9963 -1.8356 -0.0890
  132DG     H21 3034   5.402   0.002   1.467 -0.1355  0.2289 -2.3731
  132DG     H22 3035   5.396  -0.007   1.795  1.2202 -0.7857 -0.1151
  132DG     H23 3036   5.465  -0.127   1.678  1.4621  1.0247  0.2370
  133DG      C1 3037   4.732   3.986   1.839 -0.6092  0.2021  0.2585
  133DG      C2 3038   4.764   3.470   2.249  0.1001 -0.1361  0.0265
  133DG      H3 3039   4.770   4.053   1.756  0.6609 -0.4271 -0.9701
  133DG      H4 3040   4.761   4.028   1.929 -0.6426 -0.4137 -2.7229
  133DG      H5 3041   4.624   3.994   1.846  0.2872 -1.6963  1.1727
  133DG      H6 3042   4.663   3.488   2.288  0.9797 -1.4501 -0.2841
  133DG      H7 3043   4.787   3.365   2.276  0.9685  2.9225 -0.8301
  133DG      H8 3044   4.829   3.529   2.308 -0.0356  1.2355  1.3983
  133DG      O9 3045   4.772   3.851   1.832  0.7609  0.3664  0.1191
  133DG     O10 3046   4.775   3.504   2.108 -0.5690 -0.3219  0.1178
  133DG     C11 3047   4.746   3.783   1.719 -0.2471 -0.4499  0.6815
  133DG     C12 3048   4.750   3.399   2.019 -0.6082 -0.2533  0.3020
  133DG     H13 3049   4.808   3.820   1.636  0.2328 -1.0921  0.5589
  133DG     H14 3050   4.646   3.806   1.691  1.0257 -3.7223  1.0590
  133DG     H15 3051   4.645   3.369   2.026 -1.1494  0.1448 -0.2199
  133DG     H16 3052   4.817   3.310   2.040  0.4596 -0.6527 -0.9556
  133DG     C17 3053   4.787   3.632   1.738  0.0380  0.3827  0.6144
  133DG     C18 3054   4.774   3.450   1.879 -0.5356  0.1743  1.1104
  133DG     O19 3055   4.728   3.583   1.860 -0.3908  0.2863  0.0701
  133DG     H20 3056   4.896   3.628   1.750  0.3907  2.0373 -1.2738
  133DG     H21 3057   4.773   3.574   1.644  1.6501  0.5940 -0.4888
  133DG     H22 3058   4.877   3.440   1.857 -2.7959 -1.3092  2.7915
  133DG     H23 3059   4.725   3.386   1.802 -0.5691  0.4198 -0.2424
  134DG      C1 3060   4.368   4.996   0.051  0.8941  0.3727  0.1227
  134DG      C2 3061   4.925   4.908  -0.283  0.3806 -0.1300  0.3454
  134DG      H3 3062   4.386   5.063  -0.035  0.3025 -0.6360 -0.6098
  134DG      H4 3063   4.349   5.061   0.137 -2.0569  1.7015 -0.3312
  134DG      H5 3064   4.295   4.913   0.036 -1.5992  2.2722 -0.4063
  134DG      H6 3065   4.883   5.001  -0.297 -0.2681  0.8641  1.7964
  134DG      H7 3066   5.028   4.928  -0.250 -0.1742 -0.6942  2.1637
  134DG      H8 3067   4.925   4.854  -0.385  2.4187 -0.5252 -2.5079
  134DG      O9 3068   4.492   4.930   0.060 -0.5325 -0.0806  0.0237
  134DG     O10 3069   4.828   4.845  -0.201 -0.2518 -0.2776 -0.5743
  134DG     C11 3070   4.501   4.820   0.148 -0.2674  0.6695 -0.8366
  134DG     C12 3071   4.837   4.707  -0.171 -0.4666 -0.6585  0.4478
  134DG     H13 3072   4.423   4.742   0.135  1.3977  0.4777 -1.9477
  134DG     H14 3073   4.489   4.848   0.254  1.8625  2.5143  2.0187
  134DG     H15 3074   4.942   4.689  -0.181 -2.6284  1.3996 -0.1420
  134DG     H16 3075   4.778   4.646  -0.238  0.4393 -0.4593  1.7691
  134DG     C17 3076   4.630   4.753   0.132 -0.4547 -0.4079 -0.5836
  134DG     C18 3077   4.799   4.699  -0.021 -0.5491 -0.5108 -0.0760
  134DG     O19 3078   4.672   4.751  -0.002 -0.1202  0.3339  0.2098
  134DG     H20 3079   4.647   4.660   0.183 -0.4822  0.7185 -2.6605
  134DG     H21 3080   4.705   4.815   0.184  1.0435 -1.4701 -1.0178
  134DG     H22 3081   4.802   4.600   0.023  2.4805 -0.4008  0.7524
  134DG     H23 3082   4.875   4.765   0.028  1.0164  1.2538  1.7958
  135DG      C1 3083   3.629   3.187   1.414 -0.1640  0.4762  0.4858
  135DG      C2 3084   3.395   3.762   1.145 -0.8065 -0.3460 -0.2030
  135DG      H3 3085   3.617   3.108   1.488  1.6266  1.0324 -1.0832
  135DG      H4 3086   3.714   3.242   1.452 -1.9280 -0.3295  1.2203
  135DG      H5 3087   3.655   3.156   1.308 -2.3138 -0.2601 -0.4485
  135DG      H6 3088   3.466   3.839   1.168 -4.2871 -1.9999 -0.8611
  135DG      H7 3089   3.435   3.708   1.059  0.8181 -0.5065 -0.0709
  135DG      H8 3090   3.296   3.799   1.116  1.0714 -1.8999 -1.0405
  135DG      O9 3091   3.511   3.264   1.420 -0.5706 -0.0903 -0.1361
  135DG     O10 3092   3.380   3.661   1.244  0.2114 -0.0382 -0.4663
  135DG     C11 3093   3.493   3.313   1.551  0.7244  0.4977 -0.1496
  135DG     C12 3094   3.294   3.704   1.345 -0.0459  0.7033  0.2666
  135DG     H13 3095   3.580   3.368   1.589 -2.7617  3.3882  2.5381
  135DG     H14 3096   3.486   3.230   1.616  0.0914 -1.2831 -0.0871
  135DG     H15 3097   3.196   3.733   1.305 -1.8903  1.5311 -0.0993
  135DG     H16 3098   3.344   3.792   1.396 -0.7102 -1.4739  0.6716
  135DG     C17 3099   3.376   3.412   1.567 -0.6232 -0.1763  0.4031
  135DG     C18 3100   3.275   3.598   1.452  0.2704 -0.2291 -0.6769
  135DG     O19 3101   3.394   3.517   1.466  0.0564  0.4448 -0.0386
  135DG     H20 3102   3.384   3.457   1.662  0.3867  0.3880  0.5680
  135DG     H21 3103   3.279   3.368   1.567  0.4585  1.7602  0.4771
  135DG     H22 3104   3.253   3.648   1.541 -2.3621 -1.0888 -0.2172
  135DG     H23 3105   3.190   3.527   1.433  2.4235 -0.3425  0.3442
  136DG      C1 3106   3.522   0.686   5.141  0.5288 -0.0612 -0.0263
  136DG      C2 3107   4.125   0.788   5.134 -0.4682 -0.1537  0.2732
  136DG      H3 3108   3.553   0.589   5.112  0.0027  0.4854  0.0414
  136DG      H4 3109   3.528   0.757   5.059  2.0176 -0.2027 -0.9472
  136DG      H5 3110   3.423   0.673   5.172 -0.6651 -1.7214 -0.8966
  136DG      H6 3111   4.080   0.696   5.092 -3.3617  1.5091  0.6527
  136DG      H7 3112   4.098   0.868   5.067 -0.4944  0.3466  0.2993
  136DG      H8 3113   4.231   0.769   5.160  1.8545 -4.3876 -3.0045
  136DG      O9 3114   3.602   0.732   5.250  0.5827 -0.2284  0.0445
  136DG     O10 3115   4.049   0.788   5.254  0.1471  0.6888 -0.7984
  136DG     C11 3116   3.568   0.858   5.297 -0.3745  0.0779  0.1177
  136DG     C12 3117   4.044   0.915   5.315 -0.4082 -0.5774 -0.0348
  136DG     H13 3118   3.468   0.851   5.342 -1.0121  3.6713 -0.4626
  136DG     H14 3119   3.578   0.924   5.209 -0.2643 -0.0021 -0.9271
  136DG     H15 3120   4.045   0.994   5.240  1.1235 -1.9963 -1.7382
  136DG     H16 3121   4.129   0.935   5.370  0.4836 -1.0205 -1.8766
  136DG     C17 3122   3.681   0.899   5.395  0.9066  0.7952 -0.1163
  136DG     C18 3123   3.922   0.929   5.405  0.3576 -0.0630 -0.2383
  136DG     O19 3124   3.810   0.869   5.336  0.5581 -0.1356  0.2173
  136DG     H20 3125   3.677   0.851   5.485  0.5041  0.6005  0.9089
  136DG     H21 3126   3.664   1.011   5.411  0.8905 -0.1140 -0.5273
  136DG     H22 3127   3.945   0.864   5.491 -0.9786 -0.4883  1.4510
  136DG     H23 3128   3.890   1.026   5.437 -1.9110 -0.3722  1.6542
  137DG      C1 3129   4.933   2.024   0.498  0.1953 -0.4484 -0.2084
  137DG      C2 3130   4.547   2.586   0.736  0.1514  0.0602  0.2001
  137DG      H3 3131   4.861   1.989   0.434 -0.2873  0.6885  0.7150
  137DG      H4 3132   4.928   1.961   0.581  0.7750 -0.7216  0.5293
  137DG      H5 3133   5.027   2.002   0.448 -1.5201  0.2086  1.6724
  137DG      H6 3134   4.494   2.526   0.812 -2.5020  0.3922 -0.9892
  137DG      H7 3135   4.601   2.666   0.792  0.4225 -0.9743  0.9396
  137DG      H8 3136   4.475   2.638   0.672  0.2281 -1.9737 -0.0931
  137DG      O9 3137   4.918   2.159   0.536  0.0875  0.2119  0.7861
  137DG     O10 3138   4.640   2.524   0.656 -0.6501  0.0443  0.4991
  137DG     C11 3139   4.980   2.246   0.438 -0.9043  0.1746  0.0891
  137DG     C12 3140   4.683   2.614   0.548  0.1090 -0.2020  0.3260
  137DG     H13 3141   4.927   2.230   0.348 -0.5802 -2.6392  3.2740
  137DG     H14 3142   5.084   2.214   0.442  0.4386  1.5729  0.7020
  137DG     H15 3143   4.682   2.718   0.584  0.8106  0.4568  0.8844
  137DG     H16 3144   4.622   2.606   0.459  0.0321  1.0364  0.3988
  137DG     C17 3145   4.976   2.395   0.474  0.3733  0.2452  0.9851
  137DG     C18 3146   4.824   2.574   0.525  0.4345  0.5547  0.2414
  137DG     O19 3147   4.842   2.436   0.493 -0.0840  0.0493  0.2769
  137DG     H20 3148   5.037   2.459   0.400  1.2528  3.7746  1.9589
  137DG     H21 3149   5.039   2.405   0.568 -2.3144  1.1286 -0.7171
  137DG     H22 3150   4.864   2.641   0.455 -0.9244  1.0050  1.7750
  137DG     H23 3151   4.877   2.588   0.623 -0.8756 -1.9200  1.0503
  138DG      C1 3152   3.399   4.264   3.792  0.0788 -0.5448  0.0818
  138DG      C2 3153   2.843   4.066   3.582 -0.1762  0.3495 -0.1482
  138DG      H3 3154   3.363   4.353   3.847  0.3621 -0.2771 -1.0103
  138DG      H4 3155   3.418   4.283   3.688 -0.8567 -1.3885 -2.4191
  138DG      H5 3156   3.499   4.234   3.824 -0.4413 -2.4746 -0.4779
  138DG      H6 3157   2.799   4.159   3.624  1.7812  2.4103  0.5710
  138DG      H7 3158   2.900   4.086   3.495  0.7798 -2.1177 -2.5451
  138DG      H8 3159   2.761   4.001   3.554 -1.6686  3.0009 -2.2193
  138DG      O9 3160   3.312   4.167   3.821  0.2784 -0.2169  0.1110
  138DG     O10 3161   2.936   4.002   3.664 -0.2323 -0.6056 -0.5937
  138DG     C11 3162   3.296   4.125   3.956  0.0246  0.0507 -0.3882
  138DG     C12 3163   2.874   3.939   3.783  0.2231  0.0508  0.3620
  138DG     H13 3164   3.259   4.216   3.997 -1.2351 -1.7121 -1.5921
  138DG     H14 3165   3.395   4.095   3.992 -0.6477 -1.3036  2.0984
  138DG     H15 3166   2.827   3.846   3.743  1.1544 -2.5530 -0.1588
  138DG     H16 3167   2.807   4.015   3.827  0.7584  0.0960 -1.0129
  138DG     C17 3168   3.195   4.008   3.972 -0.2842  0.2962  0.3083
  138DG     C18 3169   2.997   3.915   3.875  0.4926  0.7200 -1.0671
  138DG     O19 3170   3.080   4.030   3.883 -0.1147 -0.1571  0.0351
  138DG     H20 3171   3.173   3.997   4.074  1.8439 -0.6021 -1.0003
  138DG     H21 3172   3.262   3.922   3.945  0.6957 -2.8337  0.8336
  138DG     H22 3173   2.956   3.900   3.972  1.3105  0.9028 -3.0548
  138DG     H23 3174   3.046   3.823   3.843  0.4375 -1.0212 -0.9689
  139DG      C1 3175   3.956   2.763   3.284 -0.5729  0.1461 -1.0058
  139DG      C2 3176   4.435   2.400   3.414  0.2817 -0.1291  0.1525
  139DG      H3 3177   3.989   2.797   3.184 -0.2857 -1.3658 -0.4944
  139DG      H4 3178   4.015   2.816   3.359  0.3216 -1.4694  0.3601
  139DG      H5 3179   3.857   2.799   3.295 -0.0109  1.3986  0.3097
  139DG      H6 3180   4.462   2.488   3.460  1.9026 -2.2336 -1.1568
  139DG      H7 3181   4.493   2.326   3.472  1.4745  1.0662 -0.9729
  139DG      H8 3182   4.475   2.395   3.315  0.1858 -3.3621 -0.9361
  139DG      O9 3183   3.961   2.630   3.307 -0.0640 -0.2024 -0.0929
  139DG     O10 3184   4.297   2.379   3.402 -0.6817 -0.6575 -0.5017
  139DG     C11 3185   3.909   2.540   3.210  0.1178 -0.1438 -0.3195
  139DG     C12 3186   4.264   2.258   3.342 -0.4627 -0.3542  0.0030
  139DG     H13 3187   3.964   2.562   3.117  1.0892  0.0076 -1.2944
  139DG     H14 3188   3.806   2.561   3.175 -1.8123  1.7826  0.0137
  139DG     H15 3189   4.315   2.175   3.391  0.1825  1.5631 -0.6478
  139DG     H16 3190   4.292   2.256   3.237  1.1891 -0.3433 -0.1542
  139DG     C17 3191   3.930   2.396   3.265 -0.3969  0.2767  0.7725
  139DG     C18 3192   4.111   2.248   3.346 -0.3854 -0.0009  0.9740
  139DG     O19 3193   4.070   2.375   3.291  0.4271  0.7043  0.2016
  139DG     H20 3194   3.899   2.323   3.186  1.3232  1.5446  1.1579
  139DG     H21 3195   3.874   2.386   3.358 -2.4348 -1.0521 -1.4097
  139DG     H22 3196   4.077   2.154   3.301 -3.6486  3.5640  1.8712
  139DG     H23 3197   4.084   2.249   3.456 -0.6278  1.4470  0.8904
  140DG      C1 3198   4.497   4.511   5.361 -0.4821 -0.1341 -0.0658
  140DG      C2 3199   4.569   5.170   5.223  0.1199  0.4105  0.1435
  140DG      H3 3200   4.446   4.415   5.370 -2.6071  0.8102 -1.0870
  140DG      H4 3201   4.551   4.526   5.451 -1.1452  1.4093  3.1376
  140DG      H5 3202   4.576   4.501   5.291 -1.7041 -1.6318 -1.6193
  140DG      H6 3203   4.667   5.149   5.272  1.1323  0.4312 -0.0123
  140DG      H7 3204   4.597   5.185   5.120 -0.2974 -0.9383  0.9256
  140DG      H8 3205   4.534   5.267   5.257 -0.8765 -0.9127 -0.2886
  140DG      O9 3206   4.410   4.617   5.322 -0.0426 -0.2139  0.1459
  140DG     O10 3207   4.478   5.062   5.243  0.8476  0.3821 -0.2983
  140DG     C11 3208   4.351   4.592   5.199 -0.1655 -0.4432  0.1464
  140DG     C12 3209   4.352   5.063   5.173 -0.7519 -0.2685  1.2193
  140DG     H13 3210   4.295   4.501   5.198  2.5021  2.0957  0.9083
  140DG     H14 3211   4.446   4.580   5.134 -0.0956 -0.9070 -0.4202
  140DG     H15 3212   4.370   5.075   5.064  0.4504 -3.4572 -1.4713
  140DG     H16 3213   4.288   5.155   5.193 -0.7633  2.0448  0.5860
  140DG     C17 3214   4.256   4.713   5.174 -0.3637  0.2108  0.0610
  140DG     C18 3215   4.271   4.938   5.196  0.8709 -0.0070 -0.2596
  140DG     O19 3216   4.343   4.818   5.172  0.5232 -0.3776 -0.5167
  140DG     H20 3217   4.184   4.735   5.253 -0.5177  1.1842 -0.3503
  140DG     H21 3218   4.202   4.706   5.078  0.7471 -0.1885 -0.0458
  140DG     H22 3219   4.222   4.935   5.288 -3.0541 -0.6455 -0.9463
  140DG     H23 3220   4.198   4.948   5.122 -0.8326 -1.3409 -1.0840
  141DG      C1 3221   2.848   1.086   1.241  0.3526 -0.1867  0.4298
  141DG      C2 3222   3.234   0.726   1.286 -0.2135  0.0707  0.5051
  141DG      H3 3223   2.951   1.110   1.211  0.4098  2.4235  1.1512
  141DG      H4 3224   2.810   1.159   1.312  0.7735 -1.9361  1.9383
  141DG      H5 3225   2.769   1.091   1.160 -0.5824  1.1548  1.7151
  141DG      H6 3226   3.247   0.800   1.210  0.0329 -1.4430  2.3246
  141DG      H7 3227   3.282   0.763   1.379 -0.9285 -0.9449 -0.7180
  141DG      H8 3228   3.293   0.638   1.249  2.3813 -2.0199 -0.1217
  141DG      O9 3229   2.852   0.954   1.292 -1.2017 -0.1233 -0.3932
  141DG     O10 3230   3.097   0.688   1.305 -0.6595  0.3510 -0.2697
  141DG     C11 3231   2.773   0.926   1.415 -0.2559  0.4381 -0.2998
  141DG     C12 3232   3.079   0.615   1.422  0.0741  0.1189  0.3303
  141DG     H13 3233   2.672   0.908   1.388  1.9302  3.0117  0.0926
  141DG     H14 3234   2.759   1.001   1.487  2.6858 -0.1642  0.8503
  141DG     H15 3235   3.130   0.653   1.511  0.0900 -1.3945  1.0737
  141DG     H16 3236   3.128   0.522   1.417  0.3763  0.1315 -0.2843
  141DG     C17 3237   2.833   0.803   1.479  0.5117 -0.1850 -0.7060
  141DG     C18 3238   2.928   0.587   1.444  0.0756 -0.2077 -0.4427
  141DG     O19 3239   2.838   0.683   1.398 -0.2061  0.2203 -0.2250
  141DG     H20 3240   2.778   0.768   1.569  0.3078 -0.4062  0.3849
  141DG     H21 3241   2.926   0.836   1.514 -0.4662 -3.7818  0.7765
  141DG     H22 3242   2.900   0.492   1.396 -1.2285 -2.1783 -0.8704
  141DG     H23 3243   2.906   0.563   1.554  0.4965  2.2117  0.1018
  142DG      C1 3244   5.050   3.872   3.960  0.0107 -0.1221  0.2241
  142DG      C2 3245   4.822   3.192   4.227  0.3969 -0.7923  0.2880
  142DG      H3 3246   5.023   3.906   4.059  2.0764  2.4427 -1.7262
  142DG      H4 3247   4.964   3.881   3.901  2.4504  2.1938 -1.5650
  142DG      H5 3248   5.130   3.941   3.921  0.6092 -1.3082  0.9804
  142DG      H6 3249   4.875   3.099   4.251  1.1092  0.1287  2.1342
  142DG      H7 3250   4.791   3.223   4.327  2.1428  0.0852 -1.6823
  142DG      H8 3251   4.731   3.173   4.168 -1.8259  2.8068  0.1661
  142DG      O9 3252   5.100   3.737   3.966  0.2810 -0.0901  0.4225
  142DG     O10 3253   4.899   3.291   4.152  0.2527 -0.1127 -0.1056
  142DG     C11 3254   5.210   3.730   4.048  0.1859  0.2334  0.3241
  142DG     C12 3255   5.012   3.324   4.230  0.4680 -0.3580 -0.0356
  142DG     H13 3256   5.189   3.786   4.138 -3.7873  1.1482  0.4254
  142DG     H14 3257   5.295   3.761   3.998  1.7224 -0.7563 -0.0350
  142DG     H15 3258   5.058   3.231   4.275  2.1879 -0.8238  0.7238
  142DG     H16 3259   4.982   3.389   4.317  2.4818  1.5261 -2.6241
  142DG     C17 3260   5.228   3.584   4.087  0.0619 -0.2109 -0.1065
  142DG     C18 3261   5.127   3.384   4.153  0.4069 -0.2300 -0.9332
  142DG     O19 3262   5.104   3.529   4.129 -0.2234 -0.2408 -0.3665
  142DG     H20 3263   5.311   3.572   4.155  1.4453  0.4208  0.1459
  142DG     H21 3264   5.261   3.529   3.998  2.2030 -0.8583  1.2541
  142DG     H22 3265   5.216   3.373   4.216 -0.5423  2.2894  0.1627
  142DG     H23 3266   5.138   3.334   4.061  2.1227 -0.2689  1.3756
  143DG      C1 3267   5.031   2.415   2.354  0.1110 -0.1613  0.5709
  143DG      C2 3268   4.875   3.042   2.193 -0.1068  0.3504  0.6024
  143DG      H3 3269   5.010   2.337   2.420  2.1240  1.9988 -2.8070
  143DG      H4 3270   5.137   2.398   2.322 -2.5045  0.9940  0.6987
  143DG      H5 3271   4.978   2.407   2.259 -0.9500 -1.2341  1.4851
  143DG      H6 3272   4.793   3.115   2.209 -1.7616 -1.0035 -0.2871
  143DG      H7 3273   4.967   3.097   2.166  0.5299 -0.3532  0.5219
  143DG      H8 3274   4.848   2.981   2.104  2.2369  1.0251 -0.5676
  143DG      O9 3275   5.001   2.543   2.398  0.1064 -0.2699  0.3767
  143DG     O10 3276   4.902   2.964   2.308 -0.0932 -0.2562 -0.3133
  143DG     C11 3277   5.083   2.575   2.502 -0.5565  0.1455 -1.2307
  143DG     C12 3278   4.971   3.036   2.412  0.5182  0.1624 -0.9761
  143DG     H13 3279   5.188   2.569   2.471 -0.2767 -0.3055  1.3869
  143DG     H14 3280   5.078   2.500   2.583 -1.2831  2.4742 -0.6596
  143DG     H15 3281   4.920   3.123   2.454  1.8472  2.9221 -0.2417
  143DG     H16 3282   5.058   3.075   2.370 -1.7794 -0.8378 -0.0254
  143DG     C17 3283   5.057   2.708   2.578  0.0010 -0.2896  1.1474
  143DG     C18 3284   5.016   2.945   2.530 -0.3852  0.1537 -0.6391
  143DG     O19 3285   5.054   2.812   2.485 -0.2291  0.1232  0.6222
  143DG     H20 3286   5.116   2.737   2.665 -0.0684  0.6435  1.2005
  143DG     H21 3287   4.960   2.701   2.628 -0.7832  0.1059  0.8042
  143DG     H22 3288   5.107   2.990   2.576  0.6827 -0.9536  0.9197
  143DG     H23 3289   4.939   2.930   2.606 -3.0221 -1.2308  2.4803
  144DG      C1 3290   0.079   1.695   2.712  0.6974 -0.6797 -0.0814
  144DG      C2 3291   0.521   1.399   2.182 -0.4549  0.1697  0.6118
  144DG      H3 3292   0.107   1.626   2.780  0.5072 -0.4525 -0.7089
  144DG      H4 3293  -0.010   1.653   2.657 -0.0766  0.4710 -1.5142
  144DG      H5 3294   0.057   1.791   2.765  1.4618 -1.3426  0.7907
  144DG      H6 3295   0.584   1.416   2.090 -1.8853 -0.7407 -1.5900
  144DG      H7 3296   0.559   1.325   2.254  3.3897 -1.6533  0.2136
  144DG      H8 3297   0.429   1.352   2.147  2.0575 -1.8713 -0.1674
  144DG      O9 3298   0.198   1.720   2.639 -0.1276 -0.5550  0.0059
  144DG     O10 3299   0.498   1.528   2.244 -0.1935  0.0154  0.1460
  144DG     C11 3300   0.186   1.833   2.552 -0.2581 -0.1427 -0.4992
  144DG     C12 3301   0.409   1.612   2.181 -0.4262  0.5162  1.0651
  144DG     H13 3302   0.177   1.919   2.612  0.5419 -1.0298 -1.1851
  144DG     H14 3303   0.088   1.836   2.506  4.2275  0.2145  0.1964
  144DG     H15 3304   0.306   1.569   2.162 -1.9611  2.1148 -1.6521
  144DG     H16 3305   0.443   1.631   2.076  0.3347  0.6605 -0.1147
  144DG     C17 3306   0.304   1.839   2.449  0.3802  0.3922  0.0009
  144DG     C18 3307   0.393   1.748   2.243  0.6747 -0.5955  0.1388
  144DG     O19 3308   0.305   1.729   2.360  0.2224 -0.4990 -0.8669
  144DG     H20 3309   0.397   1.840   2.503  0.7785  2.8141  1.5246
  144DG     H21 3310   0.287   1.928   2.389  0.5527 -0.8090  2.7898
  144DG     H22 3311   0.490   1.798   2.269 -0.0679  1.4492  2.0899
  144DG     H23 3312   0.341   1.809   2.169 -0.4186 -0.3784  0.1840
  145DG      C1 3313   1.303   2.571   2.863 -0.0914  0.2395 -0.1341
  145DG      C2 3314   0.459   2.463   2.809  0.2858 -0.3390  0.0461
  145DG      H3 3315   1.341   2.468   2.900  0.8773 -0.7447  0.9462
  145DG      H4 3316   1.371   2.640   2.913  0.3481 -3.4218 -1.8302
  145DG      H5 3317   1.327   2.576   2.755 -0.1248  0.9258  2.4858
  145DG      H6 3318   0.383   2.409   2.757  0.7764  0.7924 -2.1339
  145DG      H7 3319   0.501   2.387   2.873 -0.6294 -1.4740 -0.4180
  145DG      H8 3320   0.426   2.552   2.869 -0.1223  0.5243  1.1542
  145DG      O9 3321   1.161   2.578   2.893 -0.2525  0.0111  0.0462
  145DG     O10 3322   0.541   2.508   2.703  0.3225 -0.0382  0.5332
  145DG     C11 3323   1.096   2.697   2.847 -0.0072  0.0592  0.1639
  145DG     C12 3324   0.679   2.500   2.724  0.2276  0.3925 -0.0576
  145DG     H13 3325   1.114   2.701   2.739 -0.5830  1.3247 -0.6696
  145DG     H14 3326   1.149   2.781   2.890  0.0803 -4.7747 -0.5755
  145DG     H15 3327   0.731   2.499   2.629 -0.0246  3.0281  0.7589
  145DG     H16 3328   0.710   2.405   2.766  2.4665 -1.2538  0.7212
  145DG     C17 3329   0.948   2.704   2.870 -0.0103 -0.2401  0.1209
  145DG     C18 3330   0.735   2.622   2.801 -0.4143  0.5823 -0.5563
  145DG     O19 3331   0.876   2.604   2.800 -0.3768 -0.3453 -0.1015
  145DG     H20 3332   0.911   2.799   2.843 -1.3037 -0.7905 -2.5644
  145DG     H21 3333   0.921   2.701   2.975 -0.0608  0.0450 -2.4781
  145DG     H22 3334   0.699   2.717   2.762  0.5002 -0.4997 -0.7870
  145DG     H23 3335   0.710   2.596   2.904 -0.9926 -1.9309  0.9712
  146DG      C1 3336   0.964   4.331   3.756 -0.3983  0.3772 -0.1287
  146DG      C2 3337   0.326   4.356   4.025 -0.1389  0.3111  0.3156
  146DG      H3 3338   1.022   4.268   3.694  3.7629  0.5950 -1.2416
  146DG      H4 3339   1.019   4.347   3.850  2.0240  3.0080  1.3525
  146DG      H5 3340   0.934   4.427   3.713  1.2214  0.0478 -1.1639
  146DG      H6 3341   0.238   4.311   4.066 -0.1993  2.0974 -1.0122
  146DG      H7 3342   0.397   4.390   4.100 -0.4396  1.0816 -2.7958
  146DG      H8 3343   0.290   4.429   3.961  2.1290  1.9765 -0.5694
  146DG      O9 3344   0.843   4.260   3.778 -0.0850  0.1145 -0.0069
  146DG     O10 3345   0.411   4.269   3.950  0.5111 -0.3307  0.5024
  146DG     C11 3346   0.879   4.127   3.816 -0.3076  0.7613 -0.5499
  146DG     C12 3347   0.451   4.157   4.027 -0.5974 -0.1367 -0.3732
  146DG     H13 3348   0.941   4.122   3.911  2.0097 -1.4021  1.4605
  146DG     H14 3349   0.929   4.070   3.739 -0.5284 -1.4819  2.3201
  146DG     H15 3350   0.366   4.095   4.061  1.3803  2.4875 -1.2294
  146DG     H16 3351   0.499   4.183   4.117 -0.5219  0.0089 -0.6774
  146DG     C17 3352   0.741   4.060   3.828 -0.3993 -0.0960 -0.3506
  146DG     C18 3353   0.538   4.067   3.948 -0.2374 -0.0217  0.2806
  146DG     O19 3354   0.657   4.138   3.919 -0.4110  0.7119  0.2083
  146DG     H20 3355   0.751   3.964   3.878 -0.6688 -1.0106  0.4192
  146DG     H21 3356   0.687   4.055   3.732 -1.1213 -1.7983 -1.5883
  146DG     H22 3357   0.555   3.983   4.009 -1.6335  2.3910  1.6990
  146DG     H23 3358   0.496   4.044   3.853  0.9667  0.0968 -0.0364
  147DG      C1 3359   4.004   0.180   1.314 -0.6905 -0.0680  0.0325
  147DG      C2 3360   3.928   0.090   1.974  0.3465 -0.3609 -0.3620
  147DG      H3 3361   4.112   0.209   1.323 -1.1487 -0.8220  0.4869
  147DG      H4 3362   3.951   0.228   1.230  0.0317  2.7515  0.7132
  147DG      H5 3363   3.982   0.070   1.310  1.5118 -0.8126 -3.2338
  147DG      H6 3364   3.902  -0.007   1.944  2.3382  0.7596 -1.7526
  147DG      H7 3365   4.033   0.088   1.983 -1.8419 -0.1446 -1.4327
  147DG      H8 3366   3.875   0.112   2.063  2.0523  1.3211  2.3608
  147DG      O9 3367   3.937   0.224   1.432 -0.0158 -0.2763 -0.0450
  147DG     O10 3368   3.901   0.175   1.870 -0.2112  0.0780  0.0330
  147DG     C11 3369   3.966   0.362   1.459  0.7854 -0.4514  0.0632
  147DG     C12 3370   3.890   0.313   1.918 -0.1124 -0.0539 -0.1055
  147DG     H13 3371   3.951   0.429   1.369 -0.4942  0.4933 -1.6375
  147DG     H14 3372   4.071   0.384   1.474  2.4804  2.7322 -0.9060
  147DG     H15 3373   3.989   0.345   1.948 -0.3474  1.1640 -2.7711
  147DG     H16 3374   3.827   0.324   2.003  1.2715  1.3616  2.2852
  147DG     C17 3375   3.881   0.422   1.564 -0.5948 -0.5749  0.0013
  147DG     C18 3376   3.839   0.394   1.807 -1.1112 -0.2465  0.3850
  147DG     O19 3377   3.908   0.358   1.684  0.2442 -0.5050  0.0989
  147DG     H20 3378   3.774   0.419   1.541  2.2742 -0.5446 -2.4486
  147DG     H21 3379   3.913   0.524   1.564 -1.6630 -2.8166 -0.3722
  147DG     H22 3380   3.732   0.379   1.797 -0.8710 -0.5021  2.4167
  147DG     H23 3381   3.861   0.499   1.820 -0.8053  0.3271  0.3146
  148DG      C1 3382   4.083   4.092   0.575  1.0413 -0.0981  0.7901
  148DG      C2 3383   3.912   4.885   0.872 -0.3519  0.1580 -0.1661
  148DG      H3 3384   3.996   4.035   0.575  1.2278  0.7461  0.4138
  148DG      H4 3385   4.166   4.028   0.576  1.0447 -0.0084  2.3351
  148DG      H5 3386   4.085   4.161   0.491  1.6400 -0.9448  0.7464
  148DG      H6 3387   3.815   4.892   0.906  0.9365 -0.8470  0.1617
  148DG      H7 3388   3.965   4.909   0.966  0.7621  4.5124 -2.2492
  148DG      H8 3389   3.935   4.962   0.793 -1.3017  0.5219 -0.8749
  148DG      O9 3390   4.086   4.157   0.703  0.0968  1.0394 -0.1091
  148DG     O10 3391   3.927   4.752   0.835 -0.2491  0.5708 -0.6037
  148DG     C11 3392   3.990   4.252   0.726 -0.7759 -0.1514 -0.3735
  148DG     C12 3393   4.060   4.729   0.802 -0.1961 -0.2666  0.2972
  148DG     H13 3394   3.888   4.214   0.758 -2.5099  1.8500  2.2798
  148DG     H14 3395   3.976   4.304   0.638 -3.8783 -3.9010  3.9623
  148DG     H15 3396   4.120   4.808   0.854  1.0151  2.6145  0.8785
  148DG     H16 3397   4.086   4.729   0.695 -0.1341 -0.3251  0.7432
  148DG     C17 3398   4.045   4.360   0.822  0.0851  0.1615 -0.0591
  148DG     C18 3399   4.102   4.585   0.834  0.7569 -0.4137  0.1140
  148DG     O19 3400   4.007   4.492   0.780  0.1400  0.0090 -0.2878
  148DG     H20 3401   4.154   4.349   0.812  1.1887 -3.1115 -2.7344
  148DG     H21 3402   4.018   4.331   0.924  1.2759 -0.6425 -2.3606
  148DG     H22 3403   4.202   4.573   0.797  0.6451 -1.0397  3.5265
  148DG     H23 3404   4.105   4.585   0.945 -2.3924  0.2016  3.0423
  149DG      C1 3405   3.498   2.402   1.018 -0.1053 -0.6862  0.7532
  149DG      C2 3406   3.765   1.789   1.423 -0.2599  0.0413 -0.0228
  149DG      H3 3407   3.476   2.488   1.074 -0.5020 -2.5077  0.7753
  149DG      H4 3408   3.404   2.363   0.977  1.7622  0.1120 -1.1272
  149DG      H5 3409   3.568   2.424   0.933  1.0235 -0.7094 -1.1803
  149DG      H6 3410   3.841   1.850   1.371 -0.7262  0.6246 -1.3861
  149DG      H7 3411   3.783   1.818   1.531  0.2853  2.7551 -0.1964
  149DG      H8 3412   3.787   1.681   1.409 -2.4356  0.8015 -0.2249
  149DG      O9 3413   3.546   2.300   1.103 -0.7481  0.1143  0.6091
  149DG     O10 3414   3.634   1.808   1.394  0.2028 -0.0602  0.6850
  149DG     C11 3415   3.458   2.262   1.204  0.6010  0.5802 -0.5251
  149DG     C12 3416   3.604   1.816   1.256  0.2203  0.2572 -0.0217
  149DG     H13 3417   3.375   2.332   1.221  2.0774  0.1703 -0.4930
  149DG     H14 3418   3.511   2.261   1.305 -0.5956  2.2078  2.0005
  149DG     H15 3419   3.602   1.716   1.210 -0.7187 -2.0428 -1.0166
  149DG     H16 3420   3.690   1.865   1.202  1.3972 -0.4225  1.2607
  149DG     C17 3421   3.416   2.118   1.175  0.1971  0.1007  0.4611
  149DG     C18 3422   3.479   1.900   1.223  0.7561 -0.3457 -0.2102
  149DG     O19 3423   3.519   2.034   1.224  0.2017 -0.7624  0.6630
  149DG     H20 3424   3.410   2.100   1.070  2.0938  0.2600  0.1439
  149DG     H21 3425   3.317   2.104   1.226  0.4609  0.9307 -0.1450
  149DG     H22 3426   3.450   1.872   1.119 -0.7040 -1.8209  0.1514
  149DG     H23 3427   3.393   1.895   1.290  0.0774  3.3331 -4.1116
  150DG      C1 3428   2.575   2.563   2.246 -0.1781 -0.2838 -0.3207
  150DG      C2 3429   2.894   3.099   2.046  0.1577 -0.6760  0.2785
  150DG      H3 3430   2.629   2.571   2.345 -0.4445 -2.7145  1.6229
  150DG      H4 3431   2.638   2.500   2.183  0.6449 -0.3276 -1.2496
  150DG      H5 3432   2.475   2.527   2.269  0.1006 -0.0809 -0.9576
  150DG      H6 3433   2.921   3.198   2.001  1.2970 -2.2000 -0.2952
  150DG      H7 3434   2.934   3.106   2.149  0.3991  2.3666  1.2791
  150DG      H8 3435   2.947   3.019   1.998 -4.1367  2.0969  1.4538
  150DG      O9 3436   2.569   2.686   2.172  0.3985 -0.2961  0.2614
  150DG     O10 3437   2.751   3.086   2.046 -0.3770 -0.0769  0.6108
  150DG     C11 3438   2.497   2.670   2.058  0.4028 -0.2255 -0.4843
  150DG     C12 3439   2.693   3.090   1.913 -0.4203  0.5636 -0.8278
  150DG     H13 3440   2.391   2.629   2.079  0.6503  0.2587 -1.3847
  150DG     H14 3441   2.537   2.600   1.990  0.0771 -0.8557 -0.0343
  150DG     H15 3442   2.756   3.035   1.844 -1.8748  1.8675  0.7777
  150DG     H16 3443   2.693   3.193   1.888  1.3283  0.0560  1.5122
  150DG     C17 3444   2.463   2.801   1.989 -0.3070 -0.8033  0.2397
  150DG     C18 3445   2.558   3.012   1.916 -0.7323  0.1211  0.5662
  150DG     O19 3446   2.581   2.876   1.965 -0.0032  0.3456  0.2866
  150DG     H20 3447   2.390   2.859   2.043 -0.4061  0.2219  1.0357
  150DG     H21 3448   2.420   2.783   1.889  1.1918  0.7468  1.2501
  150DG     H22 3449   2.488   3.068   1.977 -0.7125  0.1529  3.3139
  150DG     H23 3450   2.516   2.997   1.812 -4.1642  2.1551  3.1915
  151DG      C1 3451   0.488   3.560   4.505  0.2620 -0.0308 -0.4197
  151DG      C2 3452   1.075   3.796   4.321 -0.1781 -0.4678 -0.4710
  151DG      H3 3453   0.539   3.457   4.508 -0.5876 -2.3850  1.5873
  151DG      H4 3454   0.382   3.534   4.488 -1.9772 -1.3848 -1.7325
  151DG      H5 3455   0.504   3.613   4.600  1.2244 -0.9708 -1.4544
  151DG      H6 3456   1.108   3.806   4.222  0.7611 -2.6483 -1.3937
  151DG      H7 3457   1.124   3.881   4.378 -0.9046  0.7723 -0.7490
  151DG      H8 3458   1.111   3.709   4.375 -1.0728  0.3530 -1.1091
  151DG      O9 3459   0.531   3.638   4.402  0.1845 -0.7715  0.0762
  151DG     O10 3460   0.930   3.808   4.330 -0.2885  0.6945 -0.4862
  151DG     C11 3461   0.458   3.751   4.368  0.1383  0.5092  0.1559
  151DG     C12 3462   0.893   3.933   4.275  0.2054 -0.1795  0.2318
  151DG     H13 3463   0.436   3.816   4.457 -0.3486 -0.3509 -0.3422
  151DG     H14 3464   0.366   3.717   4.319 -1.0143  1.4723  2.1079
  151DG     H15 3465   0.954   3.970   4.192  1.1636  2.9227  1.9121
  151DG     H16 3466   0.888   4.006   4.356  0.3650 -0.0418 -1.6167
  151DG     C17 3467   0.532   3.829   4.257 -0.0140  0.9514 -0.3274
  151DG     C18 3468   0.745   3.922   4.218 -0.0459  0.1207  0.6300
  151DG     O19 3469   0.664   3.849   4.309 -0.5263 -0.0003 -0.3181
  151DG     H20 3470   0.482   3.924   4.243 -0.1482 -2.2401  1.8825
  151DG     H21 3471   0.530   3.768   4.166 -0.4856  0.7695  1.0061
  151DG     H22 3472   0.694   4.020   4.204 -1.8862  1.6048  0.5615
  151DG     H23 3473   0.752   3.863   4.127  0.8185  0.0443  0.1733
  152DG      C1 3474   1.194   2.396   0.691 -0.1895  0.0210 -0.4376
  152DG      C2 3475   0.886   2.727   1.266  0.0629  0.4451  0.4537
  152DG      H3 3476   1.108   2.403   0.626 -0.8501  2.5571  1.9669
  152DG      H4 3477   1.229   2.292   0.703 -0.1307  1.5292  0.8327
  152DG      H5 3478   1.272   2.456   0.649 -1.6456  1.8971 -0.2546
  152DG      H6 3479   0.798   2.782   1.239 -2.5103 -1.2164  0.8569
  152DG      H7 3480   0.851   2.631   1.249 -0.9835 -1.3364  0.4996
  152DG      H8 3481   0.900   2.736   1.373 -1.6169  2.6326  0.3911
  152DG      O9 3482   1.154   2.453   0.816 -0.4156 -0.4263  0.2766
  152DG     O10 3483   1.000   2.769   1.196 -0.0726 -1.0753 -0.0719
  152DG     C11 3484   1.266   2.493   0.888 -0.4267  0.1267 -0.5391
  152DG     C12 3485   1.118   2.731   1.254 -0.1528  0.3287  0.4075
  152DG     H13 3486   1.345   2.553   0.841  0.3894 -1.9105 -1.0535
  152DG     H14 3487   1.325   2.395   0.904 -0.9830 -0.8805  2.5791
  152DG     H15 3488   1.108   2.627   1.277  0.8321 -2.1638  0.4427
  152DG     H16 3489   1.136   2.793   1.344 -1.0244 -2.6407 -1.3048
  152DG     C17 3490   1.238   2.544   1.027  0.0780 -0.1308 -0.6519
  152DG     C18 3491   1.232   2.756   1.153  0.7014  0.3145 -0.2418
  152DG     O19 3492   1.214   2.684   1.027 -0.3912 -0.3170  0.0249
  152DG     H20 3493   1.327   2.526   1.084  1.1861  0.8980 -2.5551
  152DG     H21 3494   1.152   2.502   1.067 -1.2378 -0.4287  0.2759
  152DG     H22 3495   1.223   2.855   1.126 -1.6610 -0.6650 -1.3165
  152DG     H23 3496   1.338   2.739   1.188  2.2496  2.6094  1.7976
  153DG      C1 3497   4.236   3.977   0.995  0.1396  0.8296 -0.0122
  153DG      C2 3498   4.469   4.174   1.567 -1.2644 -0.0706 -0.6662
  153DG      H3 3499   4.169   4.058   1.018  0.9724 -0.0920 -1.1482
  153DG      H4 3500   4.163   3.908   0.952  1.8385 -0.3908  1.1504
  153DG      H5 3501   4.303   4.002   0.909  2.1922 -1.7732  0.3584
  153DG      H6 3502   4.388   4.153   1.629  0.3343 -1.0201 -0.3382
  153DG      H7 3503   4.549   4.221   1.623 -1.1176 -1.5422 -0.4267
  153DG      H8 3504   4.436   4.235   1.483 -0.2506 -0.3241 -1.9595
  153DG      O9 3505   4.312   3.922   1.100 -0.2082  0.4278  0.3898
  153DG     O10 3506   4.502   4.044   1.527 -0.4937  0.0969  0.0930
  153DG     C11 3507   4.415   3.833   1.065  0.5935 -0.1223  0.5319
  153DG     C12 3508   4.622   4.033   1.456 -0.3365  0.2085  0.1205
  153DG     H13 3509   4.471   3.876   0.981  0.2200  1.5399  1.0251
  153DG     H14 3510   4.374   3.733   1.036 -2.3322  2.6235  1.5770
  153DG     H15 3511   4.692   4.022   1.538 -0.9142  0.7670 -2.0660
  153DG     H16 3512   4.653   4.119   1.396  2.1190  0.2412 -1.6425
  153DG     C17 3513   4.508   3.794   1.181 -1.0578  0.0701 -0.5273
  153DG     C18 3514   4.613   3.909   1.363  0.1286 -0.0266  0.6381
  153DG     O19 3515   4.525   3.916   1.253 -0.2366 -0.7612 -0.0126
  153DG     H20 3516   4.592   3.759   1.127 -2.3964  0.2228  0.9004
  153DG     H21 3517   4.460   3.727   1.249  1.0978 -2.2362 -3.3391
  153DG     H22 3518   4.706   3.871   1.335 -0.2951  1.7080  0.7672
  153DG     H23 3519   4.562   3.837   1.431  1.1955  0.3742 -0.1774
  154DG      C1 3520   0.747   4.530   4.074  0.6730 -1.1788  0.4053
  154DG      C2 3521   0.318   4.280   3.687  0.4669 -0.1285  0.1069
  154DG      H3 3522   0.842   4.586   4.084  3.7418 -0.1388  0.0475
  154DG      H4 3523   0.767   4.428   4.104  1.7302 -1.6357  0.1694
  154DG      H5 3524   0.671   4.565   4.142  1.8005  0.7096 -3.3153
  154DG      H6 3525   0.257   4.263   3.596  1.2032 -0.9447 -1.0150
  154DG      H7 3526   0.374   4.190   3.712  0.5396  1.4404 -0.2553
  154DG      H8 3527   0.257   4.294   3.779 -1.8345  0.9546  1.9069
  154DG      O9 3528   0.708   4.540   3.933 -0.5086  0.2982 -0.0007
  154DG     O10 3529   0.405   4.390   3.664 -0.1875  0.2450 -0.2931
  154DG     C11 3530   0.676   4.668   3.901 -0.3192  0.5563 -0.1700
  154DG     C12 3531   0.362   4.490   3.587  0.6552  0.2186 -0.3616
  154DG     H13 3532   0.774   4.724   3.917  2.4386 -2.0119 -2.2246
  154DG     H14 3533   0.605   4.716   3.964 -0.7017  1.2703 -0.5622
  154DG     H15 3534   0.271   4.532   3.636 -1.0892 -0.3114 -1.5364
  154DG     H16 3535   0.338   4.449   3.491  1.7792  0.4077  3.0190
  154DG     C17 3536   0.629   4.687   3.758  0.4444 -0.2448 -0.8780
  154DG     C18 3537   0.479   4.585   3.597  0.0475  0.7042 -0.4684
  154DG     O19 3538   0.520   4.595   3.739 -0.4615 -0.1515 -0.2382
  154DG     H20 3539   0.716   4.669   3.686  0.0238  2.1444 -2.5034
  154DG     H21 3540   0.581   4.783   3.742  0.3534  0.4340 -0.5948
  154DG     H22 3541   0.562   4.545   3.540  0.7741 -0.2902 -0.0492
  154DG     H23 3542   0.445   4.687   3.575 -0.0298 -0.8906  0.1135
  155DG      C1 3543   0.258   3.015   0.922  0.3376  1.0252  0.9291
  155DG      C2 3544   0.354   2.952   1.584  0.4197  0.2406  1.0369
  155DG      H3 3545   0.158   2.973   0.954 -0.8589 -0.8726  0.0723
  155DG      H4 3546   0.315   2.919   0.908  1.8889 -1.3822 -0.8706
  155DG      H5 3547   0.252   3.072   0.829 -0.1325  1.7893  0.2411
  155DG      H6 3548   0.343   2.847   1.557 -0.7910 -1.6854 -0.2335
  155DG      H7 3549   0.425   2.965   1.667 -0.7730  0.1254  1.3589
  155DG      H8 3550   0.262   2.989   1.623 -0.7075 -0.2995 -0.6726
  155DG      O9 3551   0.332   3.076   1.023  0.0280 -0.1119 -0.0740
  155DG     O10 3552   0.406   3.017   1.469 -0.6253  0.2057  0.3913
  155DG     C11 3553   0.471   3.110   0.998 -0.1223 -0.0814 -0.9282
  155DG     C12 3554   0.543   3.008   1.453 -0.3585  0.7268  0.3315
  155DG     H13 3555   0.474   3.175   0.911  2.5549 -0.9958  1.0739
  155DG     H14 3556   0.523   3.009   0.970 -0.1538 -0.2860  1.5560
  155DG     H15 3557   0.563   2.914   1.400  0.4066 -0.2273  0.1258
  155DG     H16 3558   0.598   3.005   1.542  1.4578  2.5228 -0.3291
  155DG     C17 3559   0.545   3.173   1.126  0.1789 -0.3040 -0.0922
  155DG     C18 3560   0.591   3.111   1.349  0.0136 -0.1472  0.2051
  155DG     O19 3561   0.513   3.085   1.234  0.4193 -0.2053  0.1793
  155DG     H20 3562   0.505   3.275   1.134 -2.2577  1.3215 -0.1433
  155DG     H21 3563   0.659   3.175   1.107  2.0923  1.0631 -1.6679
  155DG     H22 3564   0.566   3.205   1.393 -3.3565 -2.7260 -1.2794
  155DG     H23 3565   0.700   3.094   1.326 -1.4344 -1.5173 -1.4814
  156DG      C1 3566   4.521   3.236   4.888 -0.0954 -0.4265  0.6906
  156DG      C2 3567   4.633   2.545   5.251  0.2341  0.2001 -0.0416
  156DG      H3 3568   4.622   3.251   4.848 -1.1129 -0.7779  0.8271
  156DG      H4 3569   4.471   3.331   4.900 -1.1973 -0.3348  0.4961
  156DG      H5 3570   4.469   3.178   4.813  1.9832 -2.8671  0.7294
  156DG      H6 3571   4.586   2.525   5.354 -3.2295  1.8956 -1.3186
  156DG      H7 3572   4.563   2.517   5.163  1.6303 -0.3021 -2.6972
  156DG      H8 3573   4.719   2.484   5.221 -0.3782  0.6947  1.3478
  156DG      O9 3574   4.507   3.165   5.011 -0.4512  0.7535 -0.2891
  156DG     O10 3575   4.649   2.688   5.246  0.6874  0.3144 -0.0642
  156DG     C11 3576   4.590   3.210   5.124  0.4489  0.3236  0.1598
  156DG     C12 3577   4.527   2.756   5.259  0.3532  0.2536 -0.0078
  156DG     H13 3578   4.575   3.312   5.147  1.4034 -0.7163 -2.2940
  156DG     H14 3579   4.695   3.193   5.094  0.9854  0.5023 -0.3193
  156DG     H15 3580   4.466   2.703   5.324  1.2627 -0.5815 -3.8697
  156DG     H16 3581   4.470   2.771   5.175 -0.9918  1.3889 -0.0034
  156DG     C17 3582   4.549   3.118   5.232  0.0728  0.0641 -0.3050
  156DG     C18 3583   4.550   2.895   5.314  0.4208  0.5262  0.0830
  156DG     O19 3584   4.584   2.985   5.206  0.3436  0.2792  0.0740
  156DG     H20 3585   4.438   3.129   5.247 -1.9064  0.8088  0.7244
  156DG     H21 3586   4.588   3.145   5.331  0.1958  3.6276  1.8419
  156DG     H22 3587   4.456   2.936   5.353  0.9815 -1.9522 -0.2141
  156DG     H23 3588   4.618   2.884   5.396 -0.1949  1.7427 -2.6194
  157DG      C1 3589   1.860   3.233   4.230  0.0708  0.0555  0.6713
  157DG      C2 3590   2.063   3.177   3.594 -0.0422 -0.7883 -0.1359
  157DG      H3 3591   1.871   3.294   4.319 -3.9232 -0.2503 -0.0037
  157DG      H4 3592   1.881   3.130   4.260 -4.1545  1.2264  1.2680
  157DG      H5 3593   1.752   3.243   4.202  1.7087 -0.9507 -2.6500
  157DG      H6 3594   1.980   3.111   3.582  0.1883 -0.7577 -4.7481
  157DG      H7 3595   2.051   3.246   3.506 -0.5550  2.5922 -0.3430
  157DG      H8 3596   2.157   3.120   3.584 -2.9032 -0.0890 -1.1751
  157DG      O9 3597   1.949   3.287   4.127  0.7977 -0.4798  0.1141
  157DG     O10 3598   2.073   3.261   3.711 -0.0793  0.1270 -0.1392
  157DG     C11 3599   2.086   3.268   4.155 -0.5343  0.1800 -0.2350
  157DG     C12 3600   2.178   3.361   3.706 -0.4535  0.0665 -0.2862
  157DG     H13 3601   2.099   3.161   4.139 -1.0491  1.3484 -0.2091
  157DG     H14 3602   2.105   3.285   4.259  0.2315  0.1659 -1.5397
  157DG     H15 3603   2.141   3.445   3.645  0.7544 -0.9256 -1.9646
  157DG     H16 3604   2.269   3.301   3.670 -0.2582 -0.8696  1.2478
  157DG     C17 3605   2.174   3.355   4.061 -0.3017 -0.0065  0.5330
  157DG     C18 3606   2.201   3.419   3.842 -0.0028  0.5085  0.1677
  157DG     O19 3607   2.154   3.322   3.930  0.1284 -0.2428  0.2758
  157DG     H20 3608   2.275   3.328   4.085  1.1704 -1.8205  0.0345
  157DG     H21 3609   2.159   3.464   4.070 -1.7846 -0.0244  1.2544
  157DG     H22 3610   2.310   3.435   3.871  1.9765  1.7577 -1.3713
  157DG     H23 3611   2.157   3.516   3.858 -0.0051  2.0002  3.9646
  158DG      C1 3612   2.736   0.097   5.348 -0.9166 -0.5140 -0.3212
  158DG      C2 3613   2.134   0.554   5.707 -0.1099  0.7896  0.4472
  158DG      H3 3614   2.836   0.126   5.313 -0.1572  2.0036 -1.0584
  158DG      H4 3615   2.689   0.019   5.289 -3.7250 -3.2743 -1.4267
  158DG      H5 3616   2.758   0.044   5.443  0.0371  2.3166  0.9945
  158DG      H6 3617   2.112   0.514   5.803  0.0926 -1.9619 -0.3172
  158DG      H7 3618   2.132   0.664   5.722 -0.8279  3.8315  0.9281
  158DG      H8 3619   2.051   0.514   5.641 -2.0135 -1.6211  3.3825
  158DG      O9 3620   2.656   0.219   5.361 -0.4416  0.3005  0.1339
  158DG     O10 3621   2.263   0.507   5.655 -0.0552 -0.5974 -0.6139
  158DG     C11 3622   2.718   0.328   5.433  0.4920  0.3524 -0.8464
  158DG     C12 3623   2.286   0.560   5.530 -0.6463  0.1692  0.2665
  158DG     H13 3624   2.818   0.355   5.395  2.1756 -1.6045 -0.6581
  158DG     H14 3625   2.729   0.299   5.540 -0.4033  2.4446 -0.7380
  158DG     H15 3626   2.237   0.646   5.513  0.9165 -0.8468 -3.8118
  158DG     H16 3627   2.247   0.487   5.464 -0.6575  0.3488 -0.2097
  158DG     C17 3628   2.636   0.460   5.431 -0.2186 -0.2437 -0.5100
  158DG     C18 3629   2.439   0.596   5.496  0.1700 -0.0840 -0.0891
  158DG     O19 3630   2.507   0.459   5.490 -0.3873 -0.3899 -0.1075
  158DG     H20 3631   2.630   0.500   5.331  0.0298  0.7373 -0.8728
  158DG     H21 3632   2.703   0.524   5.494  2.0042  3.8428  1.0424
  158DG     H22 3633   2.439   0.630   5.395  0.7085  0.3258  1.1491
  158DG     H23 3634   2.488   0.671   5.560 -0.0950  0.5187  2.7036
  159DG      C1 3635   1.753   4.186   4.788 -0.2765 -0.2593  0.4103
  159DG      C2 3636   1.844   4.836   4.891 -0.4755  0.2801  0.1368
  159DG      H3 3637   1.827   4.176   4.861 -0.8941  2.1332 -2.0340
  159DG      H4 3638   1.799   4.172   4.690  0.0954  0.0397  2.1593
  159DG      H5 3639   1.686   4.100   4.806 -1.1208 -1.2972  0.9785
  159DG      H6 3640   1.900   4.782   4.969 -2.0230 -2.3634  0.2134
  159DG      H7 3641   1.905   4.860   4.798 -2.2433  1.4038  0.6352
  159DG      H8 3642   1.796   4.929   4.935 -0.2946 -2.5320 -3.1294
  159DG      O9 3643   1.678   4.310   4.792  0.0540  0.4781 -0.0795
  159DG     O10 3644   1.739   4.739   4.869  0.0935 -0.4338  0.0380
  159DG     C11 3645   1.577   4.320   4.683 -0.1761 -0.0062 -0.0272
  159DG     C12 3646   1.656   4.787   4.764  0.2887 -0.1297 -0.7139
  159DG     H13 3647   1.510   4.235   4.683 -0.0161 -2.1531 -0.1160
  159DG     H14 3648   1.619   4.316   4.581  1.9662  1.8466 -0.3540
  159DG     H15 3649   1.704   4.796   4.669  0.9691  0.3971  0.5374
  159DG     H16 3650   1.602   4.875   4.802  2.5825  2.1691  0.3246
  159DG     C17 3651   1.501   4.456   4.682  0.2039  0.3203 -0.2313
  159DG     C18 3652   1.542   4.682   4.746 -0.4264  0.8530  0.8315
  159DG     O19 3653   1.602   4.555   4.716  0.5684 -0.3968 -0.2832
  159DG     H20 3654   1.423   4.459   4.751  0.2435  2.4499 -2.2980
  159DG     H21 3655   1.451   4.471   4.584  1.4479 -0.1206  3.1815
  159DG     H22 3656   1.472   4.669   4.830 -1.2561  1.4475 -1.0836
  159DG     H23 3657   1.491   4.718   4.654 -1.8613 -1.3794  1.0920
  160DG      C1 3658   4.938   4.545   1.745 -0.4244 -0.3107  0.2229
  160DG      C2 3659   5.535   4.418   1.850  0.1722  0.0616  0.5951
  160DG      H3 3660   4.965   4.551   1.639  0.0269 -0.0054 -2.2974
  160DG      H4 3661   4.960   4.649   1.779 -0.0300  2.4965 -0.6293
  160DG      H5 3662   4.838   4.521   1.773  1.5465 -1.2299 -0.3642
  160DG      H6 3663   5.629   4.369   1.862  0.5526 -0.1690  1.1404
  160DG      H7 3664   5.535   4.472   1.751  2.4666 -0.1959  0.2159
  160DG      H8 3665   5.530   4.502   1.925  1.3043 -1.7587  0.1939
  160DG      O9 3666   5.016   4.453   1.813  0.0995  0.0892 -0.2082
  160DG     O10 3667   5.427   4.332   1.857  0.0592 -0.0401  0.3373
  160DG     C11 3668   4.965   4.323   1.793 -0.1118  0.7847 -0.1905
  160DG     C12 3669   5.425   4.221   1.761 -0.1584  0.8024  0.2014
  160DG     H13 3670   4.962   4.303   1.686  3.9154  1.1844  0.4306
  160DG     H14 3671   4.869   4.309   1.843 -0.8044 -0.5616 -2.5205
  160DG     H15 3672   5.516   4.158   1.778  1.7193 -0.6804 -0.2737
  160DG     H16 3673   5.419   4.257   1.661 -3.2371 -0.9518  0.6241
  160DG     C17 3674   5.066   4.219   1.839  1.4070 -0.5091  0.5533
  160DG     C18 3675   5.290   4.157   1.792  0.1066  0.5339 -0.1882
  160DG     O19 3676   5.194   4.256   1.778  0.0911 -0.8298  0.1902
  160DG     H20 3677   5.034   4.114   1.828 -1.0977 -1.6961 -1.1448
  160DG     H21 3678   5.083   4.226   1.945  1.4638  1.6824  0.0899
  160DG     H22 3679   5.272   4.083   1.713  1.0066  1.2666 -2.3554
  160DG     H23 3680   5.288   4.119   1.891 -0.2439 -0.1668 -0.0954
  161DG      C1 3681   5.406   1.415   1.838  0.8855  0.0263 -0.1101
  161DG      C2 3682   5.269   0.869   1.431 -0.1451 -0.5180 -0.3876
  161DG      H3 3683   5.363   1.358   1.917  2.5767 -0.2709  1.6571
  161DG      H4 3684   5.353   1.516   1.839 -0.9375 -2.3313  0.7546
  161DG      H5 3685   5.510   1.418   1.873  0.7581 -1.1270  2.4394
  161DG      H6 3686   5.291   0.815   1.523  1.7667  1.4114 -0.0025
  161DG      H7 3687   5.162   0.862   1.439  2.8482 -2.7109  4.0940
  161DG      H8 3688   5.312   0.803   1.359  0.2813  0.5990 -1.0055
  161DG      O9 3689   5.403   1.357   1.711  0.3344 -0.8930  0.0121
  161DG     O10 3690   5.329   0.999   1.449  0.4449 -0.2469 -0.2216
  161DG     C11 3691   5.454   1.445   1.614  0.2454 -0.0333 -0.0223
  161DG     C12 3692   5.341   1.069   1.325  0.8710  0.9130  0.1714
  161DG     H13 3693   5.531   1.506   1.658  0.7882  1.8057  1.3501
  161DG     H14 3694   5.368   1.511   1.596 -0.9649 -3.0244 -1.3047
  161DG     H15 3695   5.246   1.098   1.282 -0.5431  0.6386 -0.1162
  161DG     H16 3696   5.388   1.009   1.250  2.0472 -2.2107 -0.1155
  161DG     C17 3697   5.485   1.361   1.491  0.3185  0.5688 -0.2176
  161DG     C18 3698   5.446   1.176   1.360 -0.4854  0.0538  0.1750
  161DG     O19 3699   5.410   1.240   1.483  0.1063  0.2613  0.2629
  161DG     H20 3700   5.588   1.335   1.502  1.2445  1.2976 -1.7984
  161DG     H21 3701   5.491   1.433   1.402  4.0238  0.5681 -2.3893
  161DG     H22 3702   5.543   1.131   1.351 -2.0599  1.0772  1.4456
  161DG     H23 3703   5.447   1.251   1.285 -0.1280 -1.2487 -0.1032
  162DG      C1 3704   4.965   2.940   5.024 -0.1401  0.0585 -0.1050
  162DG      C2 3705   4.753   2.570   5.626 -0.0392 -0.1422 -0.7013
  162DG      H3 3706   5.046   3.002   5.071  1.3142 -0.5368  0.3351
  162DG      H4 3707   4.869   2.985   5.034 -0.9371  0.0312 -0.4506
  162DG      H5 3708   4.973   2.920   4.915  1.5300 -1.9863  1.7986
  162DG      H6 3709   4.650   2.576   5.587 -0.5967  0.1008 -3.1644
  162DG      H7 3710   4.773   2.469   5.665 -0.1536  1.6463  0.1279
  162DG      H8 3711   4.767   2.641   5.703  2.6431 -0.4179 -1.3284
  162DG      O9 3712   4.954   2.802   5.068  0.5303  0.1487 -0.5002
  162DG     O10 3713   4.838   2.593   5.513  0.0835 -0.0997 -0.2000
  162DG     C11 3714   5.075   2.740   5.091  0.3022  0.0367 -0.3233
  162DG     C12 3715   4.975   2.564   5.532  0.0271 -0.6039 -0.8543
  162DG     H13 3716   5.131   2.799   5.165 -0.7181 -0.0917  1.7816
  162DG     H14 3717   5.124   2.725   4.997 -2.3241 -0.6759 -1.8288
  162DG     H15 3718   5.004   2.491   5.606  1.7509  0.5299  0.6350
  162DG     H16 3719   5.022   2.658   5.561 -1.7375  1.7464  5.0467
  162DG     C17 3720   5.045   2.608   5.162  0.1511  0.5375 -0.5057
  162DG     C18 3721   5.037   2.534   5.389  0.1390 -0.2697  0.4371
  162DG     O19 3722   5.005   2.638   5.297 -1.0234  0.0477  0.2287
  162DG     H20 3723   5.134   2.545   5.155 -0.0609 -2.0786 -1.3668
  162DG     H21 3724   4.955   2.562   5.111 -0.7564  0.9695  0.6066
  162DG     H22 3725   5.148   2.519   5.389  0.2320 -0.0342 -0.8273
  162DG     H23 3726   5.003   2.438   5.366 -2.9804 -0.3611 -0.3826
  163DG      C1 3727   5.195   4.088   4.790 -0.2306 -0.0131  0.4719
  163DG      C2 3728   5.430   3.440   4.652 -0.3485 -0.2717  0.3224
  163DG      H3 3729   5.168   4.092   4.689  1.9531 -0.2225 -0.8223
  163DG      H4 3730   5.210   4.185   4.838 -1.2807 -0.2180 -0.6521
  163DG      H5 3731   5.118   4.049   4.848 -0.4519  1.9752 -0.0962
  163DG      H6 3732   5.344   3.411   4.711 -3.1293  2.3206 -0.1708
  163DG      H7 3733   5.394   3.438   4.547  1.8279  0.3802 -0.1753
  163DG      H8 3734   5.508   3.365   4.648  0.1591 -0.0915 -1.3205
  163DG      O9 3735   5.310   4.007   4.792 -0.1344 -0.2934  0.7311
  163DG     O10 3736   5.480   3.564   4.707  0.0058  0.5873  0.1968
  163DG     C11 3737   5.427   4.077   4.750  0.0128 -0.3270 -0.0559
  163DG     C12 3738   5.576   3.633   4.623 -0.9673  0.2606  0.3612
  163DG     H13 3739   5.446   4.163   4.806  1.9146 -0.6097 -1.9921
  163DG     H14 3740   5.413   4.115   4.643 -1.3832 -0.4967 -0.1647
  163DG     H15 3741   5.548   3.640   4.512 -1.0595 -0.6918 -1.7485
  163DG     H16 3742   5.670   3.575   4.622  0.2833 -0.9490  0.7649
  163DG     C17 3743   5.543   3.978   4.766 -0.2957 -0.2840 -0.8664
  163DG     C18 3744   5.614   3.764   4.694 -0.3601  0.9219  0.5683
  163DG     O19 3745   5.507   3.848   4.714  0.4735 -0.0249 -0.1651
  163DG     H20 3746   5.587   3.976   4.869 -0.5890  0.3863  1.0961
  163DG     H21 3747   5.621   4.019   4.710 -2.1154  1.0194 -1.6803
  163DG     H22 3748   5.664   3.740   4.788 -0.4039  1.1498  1.9922
  163DG     H23 3749   5.689   3.826   4.631  1.0531  2.4253 -0.2092
  164DG      C1 3750   4.332   2.364   1.058 -0.4787  0.0644  0.0413
  164DG      C2 3751   4.184   2.709   1.574  0.2579  0.0832  0.8030
  164DG      H3 3752   4.322   2.457   0.996  1.0453 -1.2759  0.0648
  164DG      H4 3753   4.229   2.338   1.080 -3.9771  1.0969 -0.0303
  164DG      H5 3754   4.395   2.288   1.002 -2.9463 -1.6845  0.1529
  164DG      H6 3755   4.172   2.757   1.674  0.3485 -2.2841 -0.1982
  164DG      H7 3756   4.206   2.784   1.497  0.4761  1.5774  0.8569
  164DG      H8 3757   4.092   2.661   1.533 -0.0514 -0.3927 -1.4380
  164DG      O9 3758   4.406   2.404   1.173 -0.9259  0.0049 -0.1365
  164DG     O10 3759   4.302   2.625   1.567  0.5280 -0.2690 -0.4374
  164DG     C11 3760   4.454   2.288   1.243 -0.6028  0.7373 -0.1047
  164DG     C12 3761   4.268   2.494   1.614 -0.8494 -0.7065 -0.5024
  164DG     H13 3762   4.536   2.233   1.196  1.1946 -1.2602  2.7151
  164DG     H14 3763   4.372   2.229   1.265 -0.6288  0.2739 -0.1231
  164DG     H15 3764   4.172   2.459   1.581 -3.1797 -2.9877  0.2796
  164DG     H16 3765   4.276   2.490   1.720  1.1245 -2.2264  0.8935
  164DG     C17 3766   4.502   2.339   1.381 -0.3879  1.0508 -0.1591
  164DG     C18 3767   4.393   2.408   1.582 -0.0253  0.8543 -0.0410
  164DG     O19 3768   4.400   2.410   1.438 -0.0661 -1.0661  0.0307
  164DG     H20 3769   4.586   2.410   1.360  1.2051  2.4868  3.4774
  164DG     H21 3770   4.533   2.251   1.434 -0.6921  1.3910  0.8299
  164DG     H22 3771   4.487   2.444   1.621  0.9711 -1.3955  0.0571
  164DG     H23 3772   4.373   2.307   1.627 -1.8171  0.8248  1.3917
  165DG      C1 3773   2.154   0.280   3.960 -0.2129 -0.0728  0.4599
  165DG      C2 3774   1.716   0.772   3.986 -0.3526  0.3414  0.1374
  165DG      H3 3775   2.232   0.218   3.916 -0.7246 -1.7603 -0.0955
  165DG      H4 3776   2.067   0.219   3.943  0.2337 -0.6888 -2.9202
  165DG      H5 3777   2.175   0.285   4.071  2.5934 -1.0480  0.1893
  165DG      H6 3778   1.721   0.774   4.090 -2.5880 -0.6113 -2.5180
  165DG      H7 3779   1.702   0.870   3.949  3.4274 -1.8110 -0.9042
  165DG      H8 3780   1.642   0.700   3.959  2.0882 -2.7151 -2.6933
  165DG      O9 3781   2.140   0.406   3.903  0.1080 -0.2747  0.2637
  165DG     O10 3782   1.846   0.743   3.930 -0.4494 -0.4133 -0.4434
  165DG     C11 3783   2.260   0.476   3.892  0.3448 -0.1417  0.0600
  165DG     C12 3784   1.943   0.842   3.945  0.0303  0.7242  0.0183
  165DG     H13 3785   2.326   0.426   3.816 -0.0920  1.7647 -1.1753
  165DG     H14 3786   2.322   0.477   3.976 -0.9550 -0.0118  1.1587
  165DG     H15 3787   1.969   0.879   4.041 -0.9481 -0.3994 -1.2576
  165DG     H16 3788   1.912   0.924   3.883 -1.3082 -1.0518  1.2337
  165DG     C17 3789   2.218   0.615   3.844 -0.3196  0.1639 -0.2462
  165DG     C18 3790   2.073   0.794   3.881  0.8272  0.1032 -0.3591
  165DG     O19 3791   2.116   0.668   3.923  0.2722  0.0224 -0.5590
  165DG     H20 3792   2.185   0.607   3.745  1.4457  3.4168  0.9868
  165DG     H21 3793   2.304   0.680   3.827 -2.0831  0.0884 -4.7062
  165DG     H22 3794   2.065   0.801   3.770 -2.0718 -1.7218 -0.9103
  165DG     H23 3795   2.157   0.856   3.912 -1.0209 -1.7056 -0.6743
  166DG      C1 3796   3.181   3.221   3.481 -0.7783  0.3751 -1.0460
  166DG      C2 3797   3.793   3.335   3.688 -0.0091  0.0444 -0.0830
  166DG      H3 3798   3.161   3.325   3.511  1.7750  2.0237  0.6513
  166DG      H4 3799   3.083   3.175   3.500  0.3932  0.7688  1.1493
  166DG      H5 3800   3.199   3.220   3.372  1.9055 -2.3340  0.5922
  166DG      H6 3801   3.888   3.307   3.745 -0.0804 -0.8925  1.7503
  166DG      H7 3802   3.819   3.366   3.583 -0.5534  1.8440  1.8581
  166DG      H8 3803   3.742   3.413   3.740 -3.0507  2.6528 -1.5700
  166DG      O9 3804   3.282   3.169   3.565 -0.0671  0.1955 -0.7785
  166DG     O10 3805   3.715   3.214   3.689  0.0299  0.4603  0.1080
  166DG     C11 3806   3.319   3.037   3.518  0.2404 -0.8415 -0.5340
  166DG     C12 3807   3.771   3.104   3.619 -0.6752 -0.0688 -0.1068
  166DG     H13 3808   3.335   3.035   3.413  0.3064  1.8443  1.4984
  166DG     H14 3809   3.232   2.964   3.524 -1.6919 -1.5600  1.0059
  166DG     H15 3810   3.856   3.065   3.667  0.9945  1.9462 -1.3744
  166DG     H16 3811   3.819   3.139   3.528  2.7560  2.8874  1.1321
  166DG     C17 3812   3.438   2.972   3.592 -0.2164 -0.0444  0.7011
  166DG     C18 3813   3.661   2.995   3.630  0.2648 -0.3869  0.0008
  166DG     O19 3814   3.544   3.061   3.581  0.7078  0.5277 -0.1093
  166DG     H20 3815   3.458   2.867   3.557 -0.7065  1.2953  1.8832
  166DG     H21 3816   3.425   2.971   3.701  0.6099  2.2567  3.0411
  166DG     H22 3817   3.690   2.919   3.567  0.0422  1.2974  0.3835
  166DG     H23 3818   3.643   2.955   3.725 -2.5721 -1.4899 -1.6753
  167DG      C1 3819   0.676   3.071   1.981 -0.0807 -0.6662 -0.4809
  167DG      C2 3820   0.899   3.229   2.671 -0.2816  0.6473 -0.5095
  167DG      H3 3821   0.582   3.033   1.940  1.7385  1.7509 -3.3041
  167DG      H4 3822   0.762   3.017   1.944 -1.6439 -0.4304  2.4429
  167DG      H5 3823   0.697   3.171   1.935  0.1527 -1.4911  1.6293
  167DG      H6 3824   0.892   3.198   2.774 -1.5083  1.5654  1.3853
  167DG      H7 3825   0.998   3.197   2.642  2.1292  2.5991  1.7437
  167DG      H8 3826   0.883   3.336   2.680 -1.7088 -1.4835  2.0812
  167DG      O9 3827   0.682   3.078   2.123  0.2569  0.5838 -0.2460
  167DG     O10 3828   0.806   3.173   2.586 -0.0519  0.1024  0.2206
  167DG     C11 3829   0.694   2.945   2.169  0.2164  1.1531 -0.2049
  167DG     C12 3830   0.758   3.048   2.636 -0.6725 -0.5916 -0.5311
  167DG     H13 3831   0.797   2.914   2.155  0.4724  3.8687  0.5660
  167DG     H14 3832   0.622   2.878   2.115  0.9212 -2.6545  1.4490
  167DG     H15 3833   0.709   3.069   2.730 -0.2869 -2.0783 -4.5302
  167DG     H16 3834   0.835   2.974   2.662  1.1576 -2.0981  1.0924
  167DG     C17 3835   0.645   2.926   2.312 -0.0588  0.2227  0.2071
  167DG     C18 3836   0.650   2.993   2.544  0.3585  0.8499  0.2779
  167DG     O19 3837   0.714   2.996   2.412  0.5336  0.0076  0.2243
  167DG     H20 3838   0.635   2.818   2.342 -3.8809 -0.8757 -1.5519
  167DG     H21 3839   0.540   2.963   2.308 -3.5270 -4.0880  0.4978
  167DG     H22 3840   0.619   2.888   2.568 -1.9655  0.0923  1.3205
  167DG     H23 3841   0.567   3.064   2.532 -1.5262  0.8749 -1.7658
  168DG      C1 3842   2.926   3.569   4.925 -0.3535 -0.9658  0.5183
  168DG      C2 3843   3.521   4.117   5.114 -0.0264 -0.1565  0.5312
  168DG      H3 3844   2.899   3.674   4.901 -0.4888  0.5733  0.7563
  168DG      H4 3845   2.833   3.520   4.930  1.5785  0.1917 -3.4370
  168DG      H5 3846   2.990   3.528   4.844 -0.6015 -0.0851 -3.1311
  168DG      H6 3847   3.535   4.148   5.010 -2.8782 -1.2266  1.1909
  168DG      H7 3848   3.502   4.209   5.182 -0.3990  0.5552 -2.4426
  168DG      H8 3849   3.616   4.066   5.138  0.0949  0.0998 -0.3837
  168DG      O9 3850   2.990   3.580   5.053  0.0356  0.0476  0.9398
  168DG     O10 3851   3.408   4.033   5.136 -0.0284  0.7648 -0.3545
  168DG     C11 3852   3.116   3.652   5.046 -0.3675 -0.6890 -0.5498
  168DG     C12 3853   3.379   4.007   5.268  0.1753  1.5070  0.2618
  168DG     H13 3854   3.131   3.710   4.956  0.2575 -0.9755 -0.8554
  168DG     H14 3855   3.198   3.580   5.046 -1.9821  1.3536 -0.2827
  168DG     H15 3856   3.354   4.095   5.323  1.2468 -1.8515  2.6075
  168DG     H16 3857   3.455   3.955   5.316  2.5853  0.2815 -0.7815
  168DG     C17 3858   3.120   3.756   5.163 -0.2537  0.3564 -0.5263
  168DG     C18 3859   3.248   3.920   5.267  0.6029  0.2408  0.7944
  168DG     O19 3860   3.240   3.830   5.163  0.2368  0.1728  0.3403
  168DG     H20 3861   3.109   3.700   5.257  1.2337  2.6005  2.0839
  168DG     H21 3862   3.026   3.795   5.153  1.9907 -0.6451  4.1731
  168DG     H22 3863   3.245   3.869   5.364 -1.2157 -0.0764  1.0963
  168DG     H23 3864   3.161   3.980   5.256  2.6419 -0.7817 -1.0216
  169DG      C1 3865   0.424   0.754   2.136 -0.1095  0.4285 -0.0505
  169DG      C2 3866   1.024   0.552   1.908  0.1825 -0.6866 -0.2229
  169DG      H3 3867   0.431   0.647   2.156 -0.9547  1.4837 -0.8655
  169DG      H4 3868   0.370   0.763   2.045  1.2156 -0.6097 -0.1006
  169DG      H5 3869   0.364   0.802   2.207 -1.4263 -0.1321  2.6537
  169DG      H6 3870   1.128   0.581   1.895 -0.0933  2.7589  1.2004
  169DG      H7 3871   1.012   0.470   1.976 -1.4087  1.8861 -1.6563
  169DG      H8 3872   0.984   0.498   1.820 -1.0099  1.2982  0.2296
  169DG      O9 3873   0.557   0.802   2.119 -0.1218 -0.0824 -0.0361
  169DG     O10 3874   0.958   0.662   1.959 -0.4359 -0.0596  0.0408
  169DG     C11 3875   0.554   0.936   2.065 -0.6176  0.3342 -0.2774
  169DG     C12 3876   0.953   0.778   1.871 -0.3906 -0.2712 -0.5132
  169DG     H13 3877   0.511   1.001   2.142 -1.5266  2.3650 -0.1499
  169DG     H14 3878   0.501   0.955   1.967 -1.0236 -0.2007  0.1881
  169DG     H15 3879   0.892   0.749   1.787 -3.3352  0.6168 -1.4042
  169DG     H16 3880   1.053   0.793   1.830 -2.0248  1.1465 -1.5084
  169DG     C17 3881   0.703   0.968   2.058  0.6832  0.7117  0.1539
  169DG     C18 3882   0.891   0.907   1.935 -0.7105 -0.5425  0.2226
  169DG     O19 3883   0.758   0.875   1.972 -0.1392  0.4480  0.0593
  169DG     H20 3884   0.754   0.961   2.154 -1.6581 -1.2674  0.4091
  169DG     H21 3885   0.717   1.060   2.008 -0.2482 -3.1274 -2.1906
  169DG     H22 3886   0.952   0.921   2.025  1.1000 -1.2359  0.0816
  169DG     H23 3887   0.896   0.992   1.864 -1.8539  0.1880  1.1956
  170DG      C1 3888   4.062   5.475   3.582  0.3708  0.7632  0.0942
  170DG      C2 3889   3.984   6.143   3.755 -0.2698  0.0443  0.6709
  170DG      H3 3890   4.151   5.502   3.523 -0.3375  1.1842  0.1153
  170DG      H4 3891   3.984   5.478   3.507 -0.5933  1.0559  0.4336
  170DG      H5 3892   4.075   5.372   3.612  1.8809  4.5301  1.9238
  170DG      H6 3893   4.091   6.169   3.762  1.8353 -0.6551  1.1604
  170DG      H7 3894   3.970   6.152   3.645  4.1321 -1.2732 -1.4860
  170DG      H8 3895   3.941   6.230   3.810 -1.6404  0.0687  0.4532
  170DG      O9 3896   4.047   5.573   3.688 -0.2475 -0.4779 -0.2575
  170DG     O10 3897   3.976   6.005   3.801 -0.1355  0.3803  0.2332
  170DG     C11 3898   4.129   5.541   3.804 -0.6517  0.9866 -0.6652
  170DG     C12 3899   4.020   5.982   3.930 -0.1208 -0.2618 -0.2255
  170DG     H13 3900   4.233   5.558   3.769  1.7083 -1.4266 -1.9231
  170DG     H14 3901   4.125   5.434   3.831  1.6554  0.6190  1.8517
  170DG     H15 3902   3.970   6.053   3.993 -0.0209 -2.5956 -1.4181
  170DG     H16 3903   4.130   6.006   3.926  1.1293  1.0492  3.2622
  170DG     C17 3904   4.091   5.625   3.928  0.4122  0.1681  0.1231
  170DG     C18 3905   4.009   5.839   3.977 -0.2600 -0.9823 -0.0279
  170DG     O19 3906   4.084   5.757   3.884  0.0325 -0.5908  0.3740
  170DG     H20 3907   4.162   5.611   4.012  0.6112  1.2266 -0.1811
  170DG     H21 3908   3.989   5.592   3.958  0.1728  1.4932 -0.9676
  170DG     H22 3909   4.051   5.822   4.074  2.2331 -0.7350 -2.2857
  170DG     H23 3910   3.902   5.814   3.972  0.3983 -1.2558  0.7210
  171DG      C1 3911   3.812   1.650   3.513  0.6482  0.6985 -0.0582
  171DG      C2 3912   3.800   1.172   3.067 -0.3563  0.3974 -0.3873
  171DG      H3 3913   3.915   1.634   3.495 -0.9630 -1.8350 -2.0582
  171DG      H4 3914   3.774   1.578   3.588  0.8208  1.2462 -2.2754
  171DG      H5 3915   3.798   1.753   3.557 -0.6828 -0.4857 -0.5355
  171DG      H6 3916   3.890   1.197   3.006 -3.0947  2.8682  2.1076
  171DG      H7 3917   3.829   1.122   3.161  2.8614  0.8499 -1.8267
  171DG      H8 3918   3.736   1.097   3.017  0.6790  0.3765  1.3187
  171DG      O9 3919   3.742   1.628   3.391 -0.2363  0.2095  0.4019
  171DG     O10 3920   3.728   1.288   3.106 -0.2019  0.2420 -0.3870
  171DG     C11 3921   3.751   1.732   3.294 -0.3596 -0.5341 -0.5293
  171DG     C12 3922   3.686   1.366   3.000 -0.2278  0.2266 -0.5213
  171DG     H13 3923   3.852   1.743   3.252  0.2736  1.2850 -1.3611
  171DG     H14 3924   3.716   1.831   3.343  0.4692  0.6323  2.2222
  171DG     H15 3925   3.605   1.312   2.939  1.2332 -0.3706 -0.7087
  171DG     H16 3926   3.770   1.394   2.935  0.4411 -1.1457  0.2707
  171DG     C17 3927   3.655   1.681   3.184 -0.2364  0.1660 -0.4159
  171DG     C18 3928   3.623   1.493   3.049  0.2579  0.7125  0.5408
  171DG     O19 3929   3.699   1.550   3.149  0.2674 -0.0011  0.2438
  171DG     H20 3930   3.647   1.760   3.108  0.8282 -0.2070 -0.8704
  171DG     H21 3931   3.560   1.681   3.228  0.5475  2.1913 -1.7933
  171DG     H22 3932   3.602   1.563   2.963  2.7044  2.0251 -0.7285
  171DG     H23 3933   3.527   1.478   3.110 -1.2519  2.3411 -0.4761
  172DG      C1 3934   4.968   1.334   3.597 -0.1863  0.2316  0.3496
  172DG      C2 3935   4.756   1.694   3.524  0.4293  0.3981 -0.5868
  172DG      H3 3936   4.899   1.264   3.623  0.4430  0.2250  5.3484
  172DG      H4 3937   5.055   1.273   3.594 -0.4796  1.0302 -1.4265
  172DG      H5 3938   4.948   1.372   3.496 -0.3176 -2.7957 -0.3485
  172DG      H6 3939   4.863   1.664   3.517  1.5244 -3.2351  2.5406
  172DG      H7 3940   4.697   1.611   3.475 -4.4784 -0.7092  0.1282
  172DG      H8 3941   4.741   1.782   3.472 -0.4123 -1.6512  1.1078
  172DG      O9 3942   4.971   1.431   3.695  0.3092 -0.1023 -0.0354
  172DG     O10 3943   4.732   1.688   3.665 -1.0879 -0.3585  0.3508
  172DG     C11 3944   5.095   1.503   3.710 -0.4166 -0.4889 -0.0117
  172DG     C12 3945   4.798   1.793   3.732 -0.3003 -0.6672 -0.4793
  172DG     H13 3946   5.117   1.573   3.627 -1.0518 -2.3523  0.9907
  172DG     H14 3947   5.174   1.425   3.724  0.1176 -1.4560 -0.8838
  172DG     H15 3948   4.748   1.816   3.826  2.0953  2.9627  1.0982
  172DG     H16 3949   4.790   1.880   3.669 -0.3277  0.1930 -0.2907
  172DG     C17 3950   5.091   1.586   3.835 -1.0525  0.2977 -0.8057
  172DG     C18 3951   4.945   1.759   3.763 -0.5061 -0.0255  0.7133
  172DG     O19 3952   4.957   1.639   3.835  0.4519 -0.0878 -0.8805
  172DG     H20 3953   5.176   1.652   3.836  0.0505  0.0321  0.9508
  172DG     H21 3954   5.104   1.543   3.933 -2.8593  0.4553 -1.0548
  172DG     H22 3955   5.009   1.780   3.681 -1.5916  0.1013  0.8276
  172DG     H23 3956   4.975   1.838   3.838 -1.8433  2.4091 -1.2272
  173DG      C1 3957   4.943   3.688   0.320 -0.2109  0.4364  0.4174
  173DG      C2 3958   5.403   4.051   0.475  0.3813 -0.2016  0.4590
  173DG      H3 3959   4.829   3.685   0.320 -0.4207  0.4766  1.4885
  173DG      H4 3960   4.978   3.615   0.254  1.4782  5.8132  1.4092
  173DG      H5 3961   4.989   3.777   0.277 -1.5143 -2.3169 -2.7578
  173DG      H6 3962   5.507   4.094   0.492 -0.4003  1.8112 -1.8081
  173DG      H7 3963   5.374   4.055   0.371  1.7769 -0.4512  0.6975
  173DG      H8 3964   5.322   4.099   0.532 -3.4372 -1.8972 -0.5248
  173DG      O9 3965   4.996   3.671   0.451  0.3865 -0.4333  0.3956
  173DG     O10 3966   5.408   3.907   0.497 -0.4077 -0.1769 -0.2142
  173DG     C11 3967   4.976   3.784   0.533  0.0706  0.3189 -0.5349
  173DG     C12 3968   5.436   3.861   0.628 -0.8706 -0.0613  0.5198
  173DG     H13 3969   4.870   3.787   0.563 -1.3761 -0.7366 -3.0255
  173DG     H14 3970   4.976   3.875   0.478 -0.9044  0.7279  0.5197
  173DG     H15 3971   5.506   3.923   0.684 -0.1033 -1.5614 -0.3675
  173DG     H16 3972   5.473   3.762   0.625  1.1441  0.8127  1.0711
  173DG     C17 3973   5.069   3.791   0.656 -0.3103  1.0490  0.3401
  173DG     C18 3974   5.296   3.857   0.697  0.5610  0.2119  0.0081
  173DG     O19 3975   5.199   3.798   0.608 -0.4142  0.6003 -0.6659
  173DG     H20 3976   5.060   3.703   0.725  2.5052 -1.7228  0.3501
  173DG     H21 3977   5.054   3.880   0.717  0.3922  1.6017 -2.2541
  173DG     H22 3978   5.290   3.793   0.784 -0.4803 -1.6176 -1.7315
  173DG     H23 3979   5.273   3.962   0.725  0.1422  3.1665  1.7655
  174DG      C1 3980   2.451   4.239   1.813  0.1036 -0.2070 -0.0783
  174DG      C2 3981   3.035   3.919   2.045 -0.1429  0.0172  0.2471
  174DG      H3 3982   2.423   4.266   1.911 -0.3599  0.9110 -0.8848
  174DG      H4 3983   2.362   4.203   1.759 -0.8767 -0.8930  1.2372
  174DG      H5 3984   2.458   4.340   1.774 -1.5979  2.0800  1.6056
  174DG      H6 3985   3.128   3.958   2.008 -1.4192  1.0009  0.3164
  174DG      H7 3986   3.007   3.976   2.133  0.7385 -0.7646  0.4027
  174DG      H8 3987   3.038   3.812   2.079  1.7902  1.9705  3.3701
  174DG      O9 3988   2.559   4.157   1.800 -0.0831  0.3764 -0.0238
  174DG     O10 3989   2.944   3.938   1.934 -0.2698  0.3848 -0.1230
  174DG     C11 3990   2.595   4.147   1.670  0.0295 -0.0576  0.1164
  174DG     C12 3991   2.975   3.876   1.812  0.0237 -0.0732  0.1748
  174DG     H13 3992   2.632   4.246   1.636 -1.7184 -1.9015  2.4756
  174DG     H14 3993   2.507   4.130   1.608  0.3139 -0.5987 -1.1690
  174DG     H15 3994   2.992   3.769   1.838 -0.3635 -0.4259  0.2108
  174DG     H16 3995   3.067   3.914   1.763  1.1445  0.0182 -0.1728
  174DG     C17 3996   2.681   4.026   1.635  0.5868  0.2846  0.3099
  174DG     C18 3997   2.852   3.887   1.728  0.6877 -0.0587  0.4555
  174DG     O19 3998   2.784   4.014   1.731 -0.1270 -0.0142  0.1202
  174DG     H20 3999   2.721   4.032   1.533 -1.6133 -2.3903  1.3813
  174DG     H21 4000   2.614   3.941   1.630 -0.6357  1.2881  0.7166
  174DG     H22 4001   2.877   3.856   1.620 -0.1847 -1.1569 -3.3604
  174DG     H23 4002   2.775   3.818   1.767 -2.3676  1.1082  0.8935
  175DG      C1 4003   0.705   3.474   2.063 -0.0401 -0.6249  0.2284
  175DG      C2 4004   1.168   3.001   2.311  0.2456  0.4605  0.3681
  175DG      H3 4005   0.618   3.418   2.078  0.2650  1.8185  0.0244
  175DG      H4 4006   0.712   3.525   1.972 -1.2907  0.8526  1.7133
  175DG      H5 4007   0.715   3.555   2.133 -1.5518  0.3624  0.7729
  175DG      H6 4008   1.176   3.111   2.322 -1.2260 -1.1686 -1.1557
  175DG      H7 4009   1.166   2.952   2.403 -0.0335  0.9670 -0.6308
  175DG      H8 4010   1.254   2.980   2.252 -0.1686  0.4770  0.1142
  175DG      O9 4011   0.812   3.375   2.081 -0.5785 -0.9731 -0.4476
  175DG     O10 4012   1.059   2.971   2.223 -0.0112 -0.0641 -0.1727
  175DG     C11 4013   0.939   3.443   2.092  0.4494  0.1577 -0.0199
  175DG     C12 4014   1.084   2.981   2.080  0.0297 -0.1809 -0.1925
  175DG     H13 4015   0.952   3.457   2.198  0.8464  0.8728 -1.1234
  175DG     H14 4016   0.938   3.535   2.035 -1.4994 -3.4625  0.7197
  175DG     H15 4017   0.998   2.946   2.025  1.6238  0.1533 -1.1431
  175DG     H16 4018   1.151   2.904   2.053 -2.4425  0.2558  1.3147
  175DG     C17 4019   1.044   3.350   2.027  0.1757  0.1256 -0.5205
  175DG     C18 4020   1.110   3.119   2.017  0.1319  0.6677  0.4105
  175DG     O19 4021   1.020   3.214   2.070  0.3270 -0.2760 -0.9798
  175DG     H20 4022   1.145   3.376   2.058 -1.0909 -1.2055 -1.2696
  175DG     H21 4023   1.047   3.373   1.917  0.0524  0.0654  1.3208
  175DG     H22 4024   1.212   3.154   2.045  2.4291  1.9230 -2.1061
  175DG     H23 4025   1.107   3.114   1.910  1.5774  0.1621 -0.2154
  176DG      C1 4026   0.069   3.190   1.523 -0.8031 -0.0597 -0.5709
  176DG      C2 4027   0.460   2.735   1.171 -0.0822 -0.2985  0.5914
  176DG      H3 4028   0.167   3.237   1.547  1.0538  0.2109 -2.2675
  176DG      H4 4029   0.054   3.118   1.602 -1.7733 -1.5494 -0.6464
  176DG      H5 4030   0.002   3.272   1.532 -2.1472 -0.2663 -0.9802
  176DG      H6 4031   0.549   2.802   1.159 -1.2821  0.8050  0.8526
  176DG      H7 4032   0.474   2.671   1.258  0.5529  2.0814  0.7249
  176DG      H8 4033   0.477   2.681   1.075 -0.8242  0.5833  0.3273
  176DG      O9 4034   0.049   3.137   1.397  0.7196 -0.0385  0.2755
  176DG     O10 4035   0.338   2.805   1.168 -0.4120  1.0082  0.0920
  176DG     C11 4036  -0.070   3.065   1.377 -0.4491 -0.0137 -0.8508
  176DG     C12 4037   0.225   2.716   1.185 -0.5074 -0.1529  0.1116
  176DG     H13 4038  -0.167   3.122   1.366 -2.7663 -1.9400  0.0235
  176DG     H14 4039  -0.087   3.012   1.472 -0.7394  2.7469  0.2068
  176DG     H15 4040   0.245   2.673   1.283  0.3595  2.8387  0.1362
  176DG     H16 4041   0.235   2.632   1.115 -1.6321  0.2667  0.9888
  176DG     C17 4042  -0.050   2.964   1.255  0.9157  0.2092 -0.1109
  176DG     C18 4043   0.085   2.785   1.173 -0.6620 -0.7743  0.4530
  176DG     O19 4044   0.070   2.895   1.267 -0.2860  0.6572  0.2654
  176DG     H20 4045  -0.066   3.020   1.159  0.2905 -0.9228 -1.9468
  176DG     H21 4046  -0.142   2.902   1.263 -0.5414  1.7029  0.6466
  176DG     H22 4047   0.074   2.833   1.071  1.0561  2.4534 -1.5134
  176DG     H23 4048   0.010   2.714   1.195 -0.2864  1.1817 -3.0547
  177DG      C1 4049   1.402   2.897   5.022 -0.4667 -0.1873  0.3371
  177DG      C2 4050   1.195   3.102   5.672  0.1514 -0.0886  0.9004
  177DG      H3 4051   1.511   2.885   5.037  0.2470 -0.6307 -1.5662
  177DG      H4 4052   1.399   3.002   4.998 -1.1438  0.1147 -2.0375
  177DG      H5 4053   1.384   2.839   4.928  1.2132  0.9262 -1.6389
  177DG      H6 4054   1.101   3.098   5.723  3.9184  0.3275  1.2700
  177DG      H7 4055   1.265   3.056   5.744  1.9328 -0.0679  0.6551
  177DG      H8 4056   1.234   3.204   5.652  0.2610  0.1672 -0.3624
  177DG      O9 4057   1.322   2.874   5.136  0.0002  0.2916 -0.3045
  177DG     O10 4058   1.189   3.017   5.562 -0.2564 -0.2667 -0.3083
  177DG     C11 4059   1.320   2.734   5.183 -0.5574  0.9242  0.4532
  177DG     C12 4060   1.153   2.884   5.602 -0.2431  0.0437 -0.8423
  177DG     H13 4061   1.418   2.709   5.225 -1.1622  4.2300 -2.6698
  177DG     H14 4062   1.313   2.659   5.104  1.0729  0.3998  1.3018
  177DG     H15 4063   1.067   2.890   5.666  1.5230  2.7687 -1.1420
  177DG     H16 4064   1.243   2.834   5.644 -1.0401  0.4264 -0.8967
  177DG     C17 4065   1.217   2.713   5.288  0.1896  0.1098 -0.5904
  177DG     C18 4066   1.120   2.799   5.484  0.1388  0.0474  0.4582
  177DG     O19 4067   1.214   2.823   5.380 -0.3382 -0.1868 -0.3846
  177DG     H20 4068   1.248   2.620   5.344  2.2858  2.9972  0.7639
  177DG     H21 4069   1.120   2.691   5.248  0.5942 -1.4793 -0.1744
  177DG     H22 4070   1.118   2.692   5.511 -3.7544 -0.9664 -0.7047
  177DG     H23 4071   1.022   2.833   5.453 -0.3479 -2.4090  0.5862
  178DG      C1 4072   0.369   4.379   0.385 -0.0506 -0.3399  0.0101
  178DG      C2 4073   0.271   4.330  -0.257 -0.1602 -0.2445  0.4290
  178DG      H3 4074   0.410   4.446   0.467  3.4791  0.2419 -0.7933
  178DG      H4 4075   0.384   4.280   0.413 -1.0372 -1.0387 -2.7647
  178DG      H5 4076   0.256   4.392   0.385 -2.0924 -3.4733  0.4681
  178DG      H6 4077   0.165   4.311  -0.221  0.4792 -1.8223  2.4391
  178DG      H7 4078   0.282   4.427  -0.322  0.9770  2.7419 -0.6788
  178DG      H8 4079   0.291   4.243  -0.323  2.4310  2.3843 -1.5377
  178DG      O9 4080   0.438   4.399   0.263  0.5645  0.2214  0.0596
  178DG     O10 4081   0.360   4.325  -0.147  0.2027 -0.1763 -0.0765
  178DG     C11 4082   0.577   4.372   0.267 -0.2347 -0.1770  0.3734
  178DG     C12 4083   0.495   4.282  -0.180  0.5237  0.9127  0.1594
  178DG     H13 4084   0.591   4.267   0.276 -0.8713  1.7973 -0.7400
  178DG     H14 4085   0.623   4.422   0.352 -1.6948  2.1119 -0.7802
  178DG     H15 4086   0.516   4.301  -0.288 -1.1147 -0.2298  0.2851
  178DG     H16 4087   0.517   4.183  -0.164  0.0890  1.0637 -2.6511
  178DG     C17 4088   0.641   4.422   0.133  0.1186  0.7535  0.1191
  178DG     C18 4089   0.593   4.366  -0.096  0.6658  0.0589 -0.1259
  178DG     O19 4090   0.557   4.359   0.034  0.4019  0.0979 -0.7478
  178DG     H20 4091   0.743   4.383   0.134  0.0784 -0.4732 -0.1381
  178DG     H21 4092   0.637   4.533   0.118 -0.8250 -0.4078  1.1218
  178DG     H22 4093   0.693   4.334  -0.118 -0.0033 -0.7251  3.1302
  178DG     H23 4094   0.594   4.473  -0.124  1.9767 -1.9657  0.1350
  179DG      C1 4095   4.492   0.741   2.180 -0.2691 -0.0592  0.6985
  179DG      C2 4096   4.197   0.796   1.617  0.1888 -0.1854 -0.0398
  179DG      H3 4097   4.558   0.696   2.257  3.2666  0.3789  1.0009
  179DG      H4 4098   4.433   0.809   2.233 -0.4837 -0.0629 -0.8473
  179DG      H5 4099   4.554   0.795   2.113 -2.1199  0.5898  1.5818
  179DG      H6 4100   4.281   0.847   1.654  2.4455 -0.0367  2.9731
  179DG      H7 4101   4.211   0.781   1.515  2.7683  0.5089  0.3558
  179DG      H8 4102   4.093   0.841   1.636 -0.1806 -0.1400 -1.5025
  179DG      O9 4103   4.407   0.648   2.128 -0.0059  0.4643  0.5022
  179DG     O10 4104   4.191   0.680   1.695 -0.1902  0.5400 -0.1629
  179DG     C11 4105   4.478   0.548   2.059  0.6187 -0.5178 -0.5623
  179DG     C12 4106   4.285   0.586   1.643  0.9382 -0.8645 -0.5168
  179DG     H13 4107   4.519   0.482   2.139 -0.6632  0.1891 -1.4482
  179DG     H14 4108   4.558   0.593   1.996  2.9296  1.6586  1.7384
  179DG     H15 4109   4.385   0.622   1.624  2.3280  0.1424  1.4106
  179DG     H16 4110   4.250   0.544   1.551  0.4356  1.1473  1.8279
  179DG     C17 4111   4.389   0.461   1.969 -0.4343  0.7323 -0.6841
  179DG     C18 4112   4.283   0.485   1.751 -0.2088  0.3003  0.0227
  179DG     O19 4113   4.337   0.547   1.864 -0.0770  0.1106 -0.0481
  179DG     H20 4114   4.318   0.409   2.022  1.2183  1.6014 -1.4350
  179DG     H21 4115   4.441   0.380   1.918  1.2312  1.3471 -1.8861
  179DG     H22 4116   4.182   0.447   1.767  0.2734  1.2326 -1.3082
  179DG     H23 4117   4.348   0.401   1.723 -0.9733 -0.8207  1.8315
  180DG      C1 4118   1.997   4.736   5.405 -0.3299 -0.2609 -0.0973
  180DG      C2 4119   1.811   5.286   5.879  0.2853  0.7051  0.0180
  180DG      H3 4120   2.080   4.785   5.374 -0.2489 -0.8910 -0.3092
  180DG      H4 4121   1.916   4.764   5.331 -3.5270 -1.6584 -0.9500
  180DG      H5 4122   2.018   4.629   5.405  0.0108 -1.8559 -0.9669
  180DG      H6 4123   1.802   5.353   5.795 -0.0209 -3.2605 -0.5245
  180DG      H7 4124   1.754   5.320   5.970 -3.5939 -0.6486  0.1604
  180DG      H8 4125   1.918   5.283   5.902  0.8954  0.2433 -0.7687
  180DG      O9 4126   1.949   4.798   5.520  0.3176  0.1855  0.6781
  180DG     O10 4127   1.753   5.160   5.852  0.1974  0.4608  0.4610
  180DG     C11 4128   1.823   4.749   5.564  0.5972 -0.5768  0.0783
  180DG     C12 4129   1.800   5.064   5.945  0.1766 -0.3358  1.0114
  180DG     H13 4130   1.810   4.647   5.543  1.4106  0.9953  0.8807
  180DG     H14 4131   1.741   4.799   5.516  0.9189 -0.2699  0.4354
  180DG     H15 4132   1.753   5.076   6.039  0.1164  1.0055 -0.2232
  180DG     H16 4133   1.907   5.087   5.955 -2.2150  3.6535  1.0707
  180DG     C17 4134   1.804   4.774   5.715 -0.0033 -0.6468  0.3499
  180DG     C18 4135   1.770   4.922   5.891  0.2817  0.0940  0.0194
  180DG     O19 4136   1.802   4.911   5.754 -0.3057  0.1683  0.3184
  180DG     H20 4137   1.875   4.710   5.773 -0.1634 -2.2216 -2.3444
  180DG     H21 4138   1.704   4.739   5.726 -0.6718  0.7873 -0.0115
  180DG     H22 4139   1.820   4.843   5.952 -0.3345 -1.6177  0.7649
  180DG     H23 4140   1.664   4.893   5.899 -3.3173 -1.0840 -0.3013
  181DG      C1 4141   0.467   2.285   3.138  0.3038  0.1309  0.2632
  181DG      C2 4142   0.224   2.860   3.393 -0.2089 -0.0519  0.1400
  181DG      H3 4143   0.469   2.207   3.211  0.4603 -1.0468  1.1064
  181DG      H4 4144   0.544   2.256   3.071 -2.2655 -0.4445 -0.1587
  181DG      H5 4145   0.372   2.284   3.089  0.2806  0.5862  3.2321
  181DG      H6 4146   0.161   2.859   3.303  0.0283 -1.5596  0.2354
  181DG      H7 4147   0.162   2.824   3.474 -1.9999  0.1599  2.3619
  181DG      H8 4148   0.254   2.961   3.419 -2.4909 -1.4577  0.2709
  181DG      O9 4149   0.493   2.411   3.201 -0.1052 -0.5034  0.1377
  181DG     O10 4150   0.338   2.775   3.377 -0.1379  0.4523  0.1003
  181DG     C11 4151   0.619   2.410   3.265 -0.8276 -0.4509 -0.0216
  181DG     C12 4152   0.402   2.761   3.498  0.1968  0.2863  0.2561
  181DG     H13 4153   0.700   2.392   3.193 -1.3938  0.6300  0.5257
  181DG     H14 4154   0.632   2.324   3.331 -1.2154 -3.4392  1.9537
  181DG     H15 4155   0.360   2.693   3.576  1.0189  1.5607  1.0811
  181DG     H16 4156   0.421   2.860   3.545  1.6012 -2.0791 -0.1997
  181DG     C17 4157   0.647   2.541   3.340 -0.1281  0.7072  0.2168
  181DG     C18 4158   0.542   2.704   3.469  0.0869  0.6904 -0.2768
  181DG     O19 4159   0.523   2.591   3.390  0.3563 -0.2369  0.2420
  181DG     H20 4160   0.691   2.615   3.271  0.7320  0.6565 -0.8474
  181DG     H21 4161   0.726   2.522   3.415  2.1004 -1.5934  3.3960
  181DG     H22 4162   0.609   2.779   3.424 -1.2703  0.3659 -1.1840
  181DG     H23 4163   0.593   2.688   3.567  1.0007  0.1834  2.9792
  182DG      C1 4164   4.498   2.374   0.352  0.2411 -0.5910 -0.1609
  182DG      C2 4165   4.905   2.109   0.855 -0.3226  0.2089  0.0601
  182DG      H3 4166   4.593   2.413   0.317  0.7879 -0.4318 -0.5174
  182DG      H4 4167   4.424   2.458   0.356  0.7983 -0.6069  0.0105
  182DG      H5 4168   4.472   2.300   0.278  0.2613  0.3214 -0.5475
  182DG      H6 4169   4.905   2.029   0.933 -0.9915 -2.2841  0.1268
  182DG      H7 4170   4.981   2.091   0.772  3.0769 -1.8231 -0.1844
  182DG      H8 4171   4.939   2.208   0.885  0.8952  0.3925 -2.6179
  182DG      O9 4172   4.512   2.302   0.475  0.4770  0.0821 -0.2898
  182DG     O10 4173   4.778   2.119   0.790 -0.0176 -0.2044 -0.0234
  182DG     C11 4174   4.388   2.290   0.547  0.2207  0.3287  0.3494
  182DG     C12 4175   4.676   2.132   0.885  0.0838 -0.5527 -0.2034
  182DG     H13 4176   4.306   2.261   0.483  0.8600  1.2895  0.3156
  182DG     H14 4177   4.378   2.392   0.588  3.7260  0.8017 -0.3061
  182DG     H15 4178   4.686   2.230   0.929 -2.6583  1.4153  1.3872
  182DG     H16 4179   4.687   2.051   0.958 -3.2745 -2.9078 -0.9355
  182DG     C17 4180   4.401   2.183   0.656  0.0592  0.2200 -0.1353
  182DG     C18 4181   4.535   2.110   0.833 -0.0077 -0.4536 -0.4049
  182DG     O19 4182   4.514   2.214   0.736  0.9378 -0.0162  0.3545
  182DG     H20 4183   4.420   2.090   0.606  1.3376 -0.4220 -0.0890
  182DG     H21 4184   4.303   2.181   0.717 -0.5701 -1.3037  2.5015
  182DG     H22 4185   4.532   2.010   0.786  2.8387 -0.8492 -2.4671
  182DG     H23 4186   4.460   2.093   0.919 -0.1471 -1.4891  1.8425
  183DG      C1 4187   1.742   5.013   5.266 -0.3672  0.6183  0.0985
  183DG      C2 4188   2.155   5.005   5.689  0.2582 -0.3687  0.1083
  183DG      H3 4189   1.710   4.925   5.319  2.1756  3.2747  2.3427
  183DG      H4 4190   1.824   4.983   5.200 -0.5333  1.2822 -0.2531
  183DG      H5 4191   1.662   5.051   5.202  0.9195 -0.1886  0.5456
  183DG      H6 4192   2.121   5.019   5.794 -0.9829 -1.2153 -1.1710
  183DG      H7 4193   2.143   4.900   5.669 -2.1083  2.0373 -1.4973
  183DG      H8 4194   2.257   5.033   5.678 -2.6019  1.4831  0.3485
  183DG      O9 4195   1.791   5.105   5.356  0.2251  0.3524  0.6974
  183DG     O10 4196   2.067   5.086   5.609  0.6985 -0.6196 -0.1810
  183DG     C11 4197   1.828   5.226   5.288  0.6049 -0.8738  0.4988
  183DG     C12 4198   2.111   5.219   5.615  0.2303  0.9229 -0.1892
  183DG     H13 4199   1.759   5.258   5.214  3.1077  1.3381 -2.4321
  183DG     H14 4200   1.925   5.206   5.237  0.8759  2.2518  2.0747
  183DG     H15 4201   2.217   5.223   5.597  0.8822 -0.3345 -0.1314
  183DG     H16 4202   2.107   5.272   5.706  0.6185  3.6039 -1.3149
  183DG     C17 4203   1.835   5.343   5.394  0.2072  0.1302 -0.4845
  183DG     C18 4204   2.038   5.292   5.507 -0.6337 -0.5248 -0.4887
  183DG     O19 4205   1.894   5.293   5.510  0.2289 -0.3913  0.7506
  183DG     H20 4206   1.741   5.388   5.421 -1.4660 -0.6584 -1.5819
  183DG     H21 4207   1.891   5.434   5.366 -2.4706 -0.9788  0.7415
  183DG     H22 4208   2.073   5.391   5.483 -2.6284 -1.3804 -3.4128
  183DG     H23 4209   2.067   5.237   5.416 -0.5393  1.2654 -0.0438
  184DG      C1 4210   3.316   0.972   1.843 -0.4741 -0.2006 -0.2016
  184DG      C2 4211   3.546   1.233   1.367 -0.0179  0.7484 -0.5030
  184DG      H3 4212   3.340   0.869   1.810  2.7308 -1.2871  0.2744
  184DG      H4 4213   3.244   0.975   1.932  1.3065 -0.5771  0.1636
  184DG      H5 4214   3.407   1.008   1.885  0.0961 -3.4329  1.2605
  184DG      H6 4215   3.628   1.256   1.431 -4.1176 -2.5850 -1.6611
  184DG      H7 4216   3.537   1.126   1.331  0.2144  1.9877  0.8399
  184DG      H8 4217   3.566   1.301   1.281  2.4609 -0.2313 -0.1049
  184DG      O9 4218   3.277   1.055   1.727 -0.1130  0.1909  0.4996
  184DG     O10 4219   3.425   1.258   1.438  0.0143 -0.4967 -0.8809
  184DG     C11 4220   3.144   1.034   1.688  0.6446  0.2976  0.8505
  184DG     C12 4221   3.313   1.257   1.353 -0.4609 -0.0577  0.5536
  184DG     H13 4222   3.072   1.090   1.749 -0.1383  0.1633 -2.1785
  184DG     H14 4223   3.116   0.926   1.695 -0.3311 -2.7761  0.7433
  184DG     H15 4224   3.300   1.159   1.301  2.5180  1.7832 -1.1320
  184DG     H16 4225   3.334   1.336   1.277  0.4488  0.3889 -1.8394
  184DG     C17 4226   3.119   1.096   1.549  0.2113 -0.0642  0.3856
  184DG     C18 4227   3.178   1.282   1.416  0.1729 -0.5082 -0.5008
  184DG     O19 4228   3.166   1.229   1.544 -0.3031  0.0689  0.2528
  184DG     H20 4229   3.019   1.097   1.529  1.9362  1.7456  3.4438
  184DG     H21 4230   3.161   1.037   1.465 -1.3168 -0.1429 -1.6972
  184DG     H22 4231   3.165   1.390   1.432 -0.1248 -0.1468 -0.3875
  184DG     H23 4232   3.091   1.260   1.353  0.2855 -2.0215 -2.2117
  185DG      C1 4233   0.163   1.950   0.679  0.3714  0.5703  0.1586
  185DG      C2 4234   0.086   2.389   1.137  0.5741  0.5499 -0.1624
  185DG      H3 4235   0.261   1.981   0.708 -2.1360 -2.0229 -0.4300
  185DG      H4 4236   0.128   2.034   0.615  0.2195  2.6860  0.5552
  185DG      H5 4237   0.186   1.862   0.620 -2.6002  2.3517 -0.7308
  185DG      H6 4238   0.030   2.416   1.226  0.7867  0.2537  1.7382
  185DG      H7 4239   0.195   2.403   1.147  0.3044 -2.0571 -0.1690
  185DG      H8 4240   0.047   2.452   1.064  1.7843 -3.8578  1.3084
  185DG      O9 4241   0.087   1.932   0.796  0.4671  0.0197  0.6206
  185DG     O10 4242   0.064   2.247   1.113 -0.7226 -0.2049  0.3850
  185DG     C11 4243   0.139   1.821   0.876  0.3238  0.3309  0.1320
  185DG     C12 4244   0.124   2.165   1.216  0.1430  1.1418  0.3998
  185DG     H13 4245   0.247   1.812   0.875 -3.5720 -1.3347 -0.2533
  185DG     H14 4246   0.096   1.734   0.835  0.5848  2.9712  2.1711
  185DG     H15 4247   0.091   2.193   1.314  1.2336 -1.1605  0.1185
  185DG     H16 4248   0.226   2.193   1.199 -0.6765  1.1040 -2.2355
  185DG     C17 4249   0.109   1.852   1.019  0.6689  1.0656  0.0188
  185DG     C18 4250   0.113   2.011   1.188  0.0856 -0.0684 -0.1109
  185DG     O19 4251   0.141   1.985   1.047 -0.2188 -0.3752  0.4285
  185DG     H20 4252   0.151   1.779   1.089 -1.9036 -1.0253  0.5434
  185DG     H21 4253   0.009   1.840   1.042  1.5390  0.3126 -2.5114
  185DG     H22 4254   0.192   1.958   1.240  0.2247  0.6173 -2.9029
  185DG     H23 4255   0.014   1.969   1.209  0.2614  1.0974 -1.2375
  186DG      C1 4256   4.263   2.625   2.988 -0.2584  0.4294 -0.6610
  186DG      C2 4257   4.172   2.538   3.676  0.0639 -0.1849  0.4660
  186DG      H3 4258   4.351   2.555   2.969  2.0993 -1.1623 -1.3536
  186DG      H4 4259   4.262   2.699   2.917  1.8848  0.6601  1.7894
  186DG      H5 4260   4.171   2.562   2.986 -0.2227 -1.8982 -0.0471
  186DG      H6 4261   4.267   2.487   3.679 -0.7272  1.4976  1.1147
  186DG      H7 4262   4.156   2.589   3.774  2.5617  1.6868  0.7453
  186DG      H8 4263   4.084   2.479   3.656 -2.9153 -0.3753  1.9730
  186DG      O9 4264   4.279   2.672   3.124  0.4599 -0.1271 -0.4874
  186DG     O10 4265   4.180   2.630   3.569 -0.0975 -0.2681 -0.0749
  186DG     C11 4266   4.371   2.776   3.139 -0.4381 -0.0817 -0.3805
  186DG     C12 4267   4.283   2.724   3.605 -0.5503  0.1052 -0.4363
  186DG     H13 4268   4.377   2.845   3.055 -1.1919 -0.2554 -2.0388
  186DG     H14 4269   4.474   2.731   3.146  0.6198 -0.3803 -1.1232
  186DG     H15 4270   4.382   2.680   3.624 -0.6020  0.9425  0.6183
  186DG     H16 4271   4.259   2.779   3.690 -1.2370 -1.2665 -0.0031
  186DG     C17 4272   4.346   2.852   3.265  0.2052  0.3386 -0.5587
  186DG     C18 4273   4.295   2.831   3.489  0.5189 -0.5012  1.2108
  186DG     O19 4274   4.334   2.762   3.370  0.9063 -0.4065  0.4719
  186DG     H20 4275   4.257   2.917   3.251  3.1111 -0.7024 -1.7442
  186DG     H21 4276   4.416   2.934   3.281  1.2724  1.1227 -0.9494
  186DG     H22 4277   4.192   2.868   3.486  2.8406  1.7476  0.6950
  186DG     H23 4278   4.369   2.908   3.514  0.2963 -0.2192  1.9139
  187DG      C1 4279   0.602   3.364   4.249  0.5032  0.6690  1.0912
  187DG      C2 4280   0.752   3.751   4.701  0.6171 -0.0152 -1.1318
  187DG      H3 4281   0.544   3.454   4.227  0.5407 -0.5241 -1.2514
  187DG      H4 4282   0.520   3.311   4.297  1.7000 -1.0337  1.1767
  187DG      H5 4283   0.613   3.318   4.155 -0.7927  1.9423  0.8535
  187DG      H6 4284   0.677   3.812   4.643 -0.3148  0.3779  0.3199
  187DG      H7 4285   0.697   3.713   4.790  1.7204  3.6151 -1.9568
  187DG      H8 4286   0.813   3.817   4.758  0.1839  0.2899  1.5907
  187DG      O9 4287   0.715   3.376   4.339 -0.3329  0.3671 -0.4353
  187DG     O10 4288   0.815   3.659   4.628  0.1090 -0.1735 -0.0686
  187DG     C11 4289   0.765   3.254   4.396  0.3735 -0.0864 -0.3545
  187DG     C12 4290   0.878   3.555   4.697  0.2095 -0.0298 -0.5705
  187DG     H13 4291   0.840   3.219   4.325  0.0227 -1.0751  1.1362
  187DG     H14 4292   0.690   3.184   4.425  1.1055  0.7928  0.7547
  187DG     H15 4293   0.805   3.485   4.738 -0.5771  2.2809  0.2371
  187DG     H16 4294   0.943   3.595   4.783  1.8388 -2.4154  1.2846
  187DG     C17 4295   0.848   3.297   4.518 -0.6599 -0.3778 -0.0609
  187DG     C18 4296   0.975   3.477   4.607 -0.3169  0.0069  0.1997
  187DG     O19 4297   0.911   3.422   4.495  0.3066  0.2217  0.2989
  187DG     H20 4298   0.921   3.225   4.539  0.6104  1.9943 -0.1181
  187DG     H21 4299   0.780   3.300   4.608 -1.2734 -0.4162  3.1656
  187DG     H22 4300   1.066   3.534   4.577  1.6081 -2.0690  0.8235
  187DG     H23 4301   1.011   3.381   4.658  1.5116 -1.0014 -2.6171
  188DG      C1 4302   4.116   1.114   4.866  0.2415  0.9843  0.7808
  188DG      C2 4303   3.538   1.252   4.581 -0.4740  0.4548  0.8215
  188DG      H3 4304   4.085   1.062   4.953 -0.4534 -4.7762 -1.0399
  188DG      H4 4305   4.132   1.221   4.875 -0.2827  0.4433 -1.0069
  188DG      H5 4306   4.216   1.072   4.841  0.1139  2.2398  0.9419
  188DG      H6 4307   3.579   1.347   4.623  1.2930 -2.1890 -0.9522
  188DG      H7 4308   3.479   1.268   4.493 -0.7689 -2.4176 -1.3726
  188DG      H8 4309   3.481   1.207   4.662 -0.7446  3.2784 -1.0092
  188DG      O9 4310   4.038   1.082   4.754  0.7971  0.2109  0.0702
  188DG     O10 4311   3.650   1.168   4.552 -0.1078 -0.5528  0.7094
  188DG     C11 4312   4.017   0.941   4.731 -0.3703  0.1603 -0.1338
  188DG     C12 4313   3.621   1.034   4.526  0.4997 -0.2882  0.3016
  188DG     H13 4314   3.963   0.895   4.810  1.8007 -0.0111 -1.2661
  188DG     H14 4315   4.120   0.899   4.731  0.1760  2.6529  1.7164
  188DG     H15 4316   3.544   1.025   4.452 -5.3367  0.2197  0.4719
  188DG     H16 4317   3.574   0.990   4.612  0.8602 -0.8936 -0.3357
  188DG     C17 4318   3.954   0.928   4.589  1.0090  0.1582  0.4094
  188DG     C18 4319   3.746   0.959   4.491 -0.5391 -0.3827 -0.2968
  188DG     O19 4320   3.827   0.979   4.601 -0.4211  0.0063 -0.0026
  188DG     H20 4321   3.942   0.820   4.575  1.8264  0.7115 -2.2657
  188DG     H21 4322   4.009   0.968   4.509 -2.1712  3.6304  0.5215
  188DG     H22 4323   3.730   0.855   4.460  0.2005 -0.3149  1.3159
  188DG     H23 4324   3.785   1.017   4.412 -0.4585 -0.4344 -1.3204
  189DG      C1 4325   0.234   1.996   2.915  0.1632  0.5881 -0.4014
  189DG      C2 4326   0.533   2.199   2.498 -0.5902 -0.6560 -0.3319
  189DG      H3 4327   0.279   2.036   2.823  1.4978 -0.7578 -0.3122
  189DG      H4 4328   0.235   1.885   2.907  0.4734 -0.0132  0.2116
  189DG      H5 4329   0.301   2.011   3.001  0.8781 -2.4603 -1.2859
  189DG      H6 4330   0.522   2.158   2.401 -0.4276  0.9511  0.4645
  189DG      H7 4331   0.577   2.299   2.482  1.4121  0.7454 -3.0387
  189DG      H8 4332   0.615   2.150   2.553 -1.1931 -1.4889 -1.5568
  189DG      O9 4333   0.107   2.035   2.955  0.0972  0.1962  0.0038
  189DG     O10 4334   0.409   2.191   2.571 -0.0990  0.0017  0.8164
  189DG     C11 4335   0.072   2.169   2.932  0.7546 -0.1900 -0.3681
  189DG     C12 4336   0.311   2.271   2.506  0.3450  1.1300  0.1881
  189DG     H13 4337   0.146   2.233   2.997  1.6843  1.4390 -0.2407
  189DG     H14 4338  -0.022   2.191   2.988  0.6347  0.6893  1.3432
  189DG     H15 4339   0.305   2.250   2.401 -1.9132 -0.7733  0.5294
  189DG     H16 4340   0.321   2.381   2.514 -0.1334  0.3857 -1.0615
  189DG     C17 4341   0.068   2.216   2.781  0.2553 -0.0981 -0.0939
  189DG     C18 4342   0.181   2.239   2.573  0.4368 -0.8922 -0.2930
  189DG     O19 4343   0.192   2.232   2.715  0.0375 -0.0325  0.1256
  189DG     H20 4344   0.014   2.306   2.777 -0.8875  0.1109  4.4101
  189DG     H21 4345   0.008   2.138   2.731 -0.3617  1.0653 -1.2784
  189DG     H22 4346   0.108   2.317   2.552 -1.2955  0.0017  1.6467
  189DG     H23 4347   0.139   2.142   2.544  1.9525  0.4149 -0.2070
  190DG      C1 4348   4.243   0.750   0.636 -0.8205 -0.0302  0.5416
  190DG      C2 4349   4.302   1.286   0.214 -0.3034 -0.3699  0.7328
  190DG      H3 4350   4.195   0.657   0.674 -0.1201  0.4168  0.4691
  190DG      H4 4351   4.253   0.797   0.738 -0.7661  2.3566  1.9718
  190DG      H5 4352   4.332   0.719   0.584 -2.8661 -1.3415 -2.0408
  190DG      H6 4353   4.260   1.373   0.150  1.1014  3.9010 -1.5273
  190DG      H7 4354   4.372   1.348   0.272 -3.8550  0.6285 -0.7558
  190DG      H8 4355   4.366   1.228   0.151 -2.9859 -0.6339 -0.7852
  190DG      O9 4356   4.169   0.833   0.549 -0.2069  0.0415  0.3514
  190DG     O10 4357   4.208   1.217   0.296  0.3413 -0.1469 -0.2359
  190DG     C11 4358   4.077   0.764   0.465 -0.3397  0.5495 -0.1295
  190DG     C12 4359   4.098   1.176   0.218  0.3912 -0.1172  0.3459
  190DG     H13 4360   4.015   0.701   0.520 -2.5906 -1.9320  0.6474
  190DG     H14 4361   4.122   0.700   0.388  0.2812 -0.8140  0.9460
  190DG     H15 4362   4.122   1.103   0.138  1.2300 -1.8313 -0.2919
  190DG     H16 4363   4.041   1.261   0.180 -0.3355 -2.5706  0.4937
  190DG     C17 4364   3.988   0.870   0.395 -0.2768 -0.6976  0.1729
  190DG     C18 4365   4.005   1.092   0.304  1.2786  0.0753 -0.5635
  190DG     O19 4366   4.069   0.967   0.329 -0.1265  0.3458  0.1614
  190DG     H20 4367   3.930   0.918   0.474  0.9630 -0.9989  2.3247
  190DG     H21 4368   3.918   0.834   0.317  1.1823 -0.4009  0.7222
  190DG     H22 4369   3.987   1.144   0.392 -0.0300 -0.9895 -0.1529
  190DG     H23 4370   3.907   1.073   0.254 -0.9061 -0.3182 -0.2547
  191DG      C1 4371   3.722   3.608   3.419  1.3949  0.5009 -0.6923
  191DG      C2 4372   3.504   3.307   3.932 -0.1319 -0.5365 -0.6854
  191DG      H3 4373   3.718   3.610   3.311  1.2814  0.4851  0.2237
  191DG      H4 4374   3.795   3.538   3.457  0.5587  1.1843  0.1132
  191DG      H5 4375   3.736   3.701   3.466  3.3622 -2.2510  2.0024
  191DG      H6 4376   3.451   3.213   3.922 -1.3114 -0.5022  1.7140
  191DG      H7 4377   3.609   3.290   3.937  1.6453 -0.0665  0.6361
  191DG      H8 4378   3.474   3.355   4.031 -0.1672  5.2350 -0.1969
  191DG      O9 4379   3.600   3.551   3.459 -0.0373  0.2875 -0.6581
  191DG     O10 4380   3.483   3.401   3.830  0.1622  1.0083  0.1661
  191DG     C11 4381   3.498   3.645   3.449  0.8863  0.8379  0.1084
  191DG     C12 4382   3.355   3.458   3.828  0.6282 -0.3867  0.3761
  191DG     H13 4383   3.502   3.704   3.354  0.2322  0.6011 -0.0399
  191DG     H14 4384   3.517   3.718   3.527 -1.4862  1.8335 -1.9400
  191DG     H15 4385   3.341   3.513   3.919 -2.5523  2.0162  0.4382
  191DG     H16 4386   3.281   3.381   3.807  2.9237 -0.1650  2.4075
  191DG     C17 4387   3.361   3.578   3.471 -0.0672 -0.3623 -0.3002
  191DG     C18 4388   3.338   3.553   3.709 -0.1400  0.4784 -0.1940
  191DG     O19 4389   3.365   3.488   3.586 -0.1258  0.0965 -0.0182
  191DG     H20 4390   3.331   3.523   3.384 -0.7769 -0.9626  2.1301
  191DG     H21 4391   3.290   3.657   3.485 -1.5352 -0.0422 -0.7090
  191DG     H22 4392   3.232   3.577   3.709  3.6290 -0.5952  0.0886
  191DG     H23 4393   3.404   3.635   3.730  1.4437  0.2246  0.9382
  192DG      C1 4394   5.379   2.269   0.629  0.5810  0.3320  0.0500
  192DG      C2 4395   5.268   2.252   1.294  0.1542 -0.1782 -0.8148
  192DG      H3 4396   5.440   2.235   0.551 -1.3460  1.9351  3.2120
  192DG      H4 4397   5.425   2.369   0.658  0.5914  0.6800  1.1645
  192DG      H5 4398   5.282   2.287   0.583 -2.1386 -0.1349  0.4530
  192DG      H6 4399   5.357   2.289   1.347 -2.1115  0.3536 -0.0700
  192DG      H7 4400   5.244   2.320   1.205 -2.8452  0.4045 -0.6199
  192DG      H8 4401   5.192   2.237   1.369  0.1526 -0.9288  1.2110
  192DG      O9 4402   5.353   2.181   0.741 -0.4283 -0.4683 -0.7440
  192DG     O10 4403   5.293   2.124   1.237 -0.1629 -0.1418  0.2720
  192DG     C11 4404   5.295   2.064   0.692  0.4573  0.1116  0.6062
  192DG     C12 4405   5.174   2.077   1.179 -0.4669  0.3307  0.4996
  192DG     H13 4406   5.367   2.006   0.640  0.3077 -0.2192  1.0932
  192DG     H14 4407   5.211   2.073   0.616 -0.6776  0.2668  0.9921
  192DG     H15 4408   5.095   2.149   1.149 -0.5346  1.2596  0.6580
  192DG     H16 4409   5.135   2.004   1.255 -0.0786  2.5214  1.2285
  192DG     C17 4410   5.238   1.986   0.813 -0.4571  0.9395 -0.0209
  192DG     C18 4411   5.203   1.994   1.052  0.5502 -0.4391  0.0312
  192DG     O19 4412   5.223   2.067   0.932 -0.1124 -0.3427 -0.0358
  192DG     H20 4413   5.307   1.910   0.838  0.5300 -2.3044 -0.2315
  192DG     H21 4414   5.144   1.929   0.796 -1.1311 -2.1931  1.9048
  192DG     H22 4415   5.278   1.923   1.079  0.7596 -0.5119 -1.4408
  192DG     H23 4416   5.108   1.939   1.034  0.2586 -0.9410  1.0989
  193DG      C1 4417   1.420   1.829   3.686 -0.6966  0.7367  0.8046
  193DG      C2 4418   1.342   1.709   4.290 -0.4707  0.4575  0.4798
  193DG      H3 4419   1.408   1.770   3.590  1.6038 -1.2256  0.0611
  193DG      H4 4420   1.481   1.916   3.672 -1.9649  0.4333 -2.2354
  193DG      H5 4421   1.324   1.879   3.701  1.9106  0.2110 -0.8764
  193DG      H6 4422   1.272   1.655   4.222 -1.1678 -1.9880  1.2185
  193DG      H7 4423   1.348   1.663   4.386 -4.1291 -1.2338 -5.3194
  193DG      H8 4424   1.302   1.804   4.314 -1.7488 -0.5628  3.2658
  193DG      O9 4425   1.461   1.748   3.794  0.2570 -0.2880  0.4806
  193DG     O10 4426   1.476   1.720   4.230  0.4788 -0.2501 -0.5058
  193DG     C11 4427   1.559   1.649   3.756 -0.2354 -0.0192 -0.5893
  193DG     C12 4428   1.543   1.599   4.196 -0.0145  0.6701  0.1490
  193DG     H13 4429   1.632   1.688   3.690 -1.6465  0.5993  0.1622
  193DG     H14 4430   1.524   1.569   3.686  1.1351  2.8397 -1.1302
  193DG     H15 4431   1.478   1.528   4.138 -1.6156 -1.5066  1.6202
  193DG     H16 4432   1.572   1.545   4.287 -0.7431  0.8228  1.6032
  193DG     C17 4433   1.620   1.600   3.882  0.1732 -0.4387 -0.4134
  193DG     C18 4434   1.666   1.629   4.109 -0.1638  0.1556 -0.2052
  193DG     O19 4435   1.629   1.700   3.987 -0.8949  0.0816 -0.1963
  193DG     H20 4436   1.718   1.566   3.859 -3.2656  0.6285  1.6559
  193DG     H21 4437   1.569   1.508   3.920  1.2957 -1.3318  0.3725
  193DG     H22 4438   1.735   1.689   4.170 -0.2104 -3.0704  4.5589
  193DG     H23 4439   1.727   1.539   4.081  1.3825  1.0061 -2.1748
  194DG      C1 4440   4.163   0.073   4.798 -0.0862  0.0268 -0.1634
  194DG      C2 4441   4.101   0.725   4.191 -0.3444  0.0089 -0.0883
  194DG      H3 4442   4.221  -0.018   4.774  0.6054 -1.5270 -1.2148
  194DG      H4 4443   4.059   0.033   4.807  1.9736 -0.9411  0.1548
  194DG      H5 4444   4.207   0.114   4.885 -2.0511  2.6673 -2.6362
  194DG      H6 4445   4.009   0.752   4.244 -1.0837  0.4966  3.4516
  194DG      H7 4446   4.194   0.777   4.233 -1.7335 -1.3361 -2.4705
  194DG      H8 4447   4.090   0.733   4.086 -3.1327  0.0579 -0.6225
  194DG      O9 4448   4.175   0.167   4.695  0.2030 -1.2049 -0.0017
  194DG     O10 4449   4.134   0.588   4.214  0.1384  0.0496  0.2802
  194DG     C11 4450   4.116   0.292   4.719  0.0492  0.4073 -0.1218
  194DG     C12 4451   4.152   0.563   4.350  0.7392 -0.5876  0.5359
  194DG     H13 4452   4.183   0.346   4.785 -2.1016  2.0812 -2.6349
  194DG     H14 4453   4.017   0.289   4.770 -2.9748  1.8572  0.8092
  194DG     H15 4454   4.052   0.578   4.390  1.0804  0.8628 -0.4648
  194DG     H16 4455   4.216   0.628   4.406 -0.4363  2.1876 -1.4198
  194DG     C17 4456   4.092   0.355   4.579 -0.0263  0.2651  0.7625
  194DG     C18 4457   4.207   0.418   4.368  0.5901  0.8811  0.0987
  194DG     O19 4458   4.216   0.374   4.506  0.3801  0.4467 -0.0868
  194DG     H20 4459   4.044   0.452   4.588  0.5793 -0.9267 -1.8067
  194DG     H21 4460   4.026   0.296   4.518  1.5699  0.3017  2.5732
  194DG     H22 4461   4.146   0.337   4.311 -1.0038  0.2351 -0.8825
  194DG     H23 4462   4.310   0.415   4.332  0.1095  0.2427  1.7769
  195THF     O1 4463   1.116   1.159   0.603 -0.4554  0.3600 -0.1513
  195THF     C2 4464   1.076   1.105   0.476  0.1409 -0.7466  0.2650
  195THF     C3 4465   1.049   1.089   0.709 -0.8876  0.2870 -1.0509
  195THF     H4 4466   1.150   1.105   0.400  0.1333  1.4759 -0.5901
  195THF     H5 4467   0.977   1.135   0.433 -4.2020  1.9122  1.1779
  195THF     H6 4468   1.093   1.107   0.806  1.6217 -0.3193 -2.3642
  195THF     H7 4469   0.944   1.134   0.708  1.7205  2.0330 -4.2792
  195THF     C8 4470   1.054   0.946   0.667 -0.2857  0.4795  0.5232
  195THF     C9 4471   1.041   0.951   0.512 -0.3625 -0.5246  0.0835
  195THF    H10 4472   0.973   0.892   0.713 -1.0205  0.8306 -1.8125
  195THF    H11 4473   1.148   0.909   0.701 -0.3094 -2.5926 -1.3632
  195THF    H12 4474   1.106   0.888   0.455 -0.5038  2.3329 -2.4655
  195THF    H13 4475   0.936   0.939   0.483 -2.1549  3.1988  0.6380
  196THF     O1 4476   2.686   0.627   0.472  0.1589 -0.0320  0.3438
  196THF     C2 4477   2.777   0.549   0.549  0.0563  0.6414 -0.4303
  196THF     C3 4478   2.678   0.581   0.336  0.5223  0.6683 -0.1740
  196THF     H4 4479   2.723   0.486   0.619  0.4025  2.5793  0.0664
  196THF     H5 4480   2.837   0.611   0.620 -0.1860 -1.2020  3.7476
  196THF     H6 4481   2.576   0.552   0.313 -0.3812  0.2651  0.8676
  196THF     H7 4482   2.711   0.655   0.272 -0.4560  1.0577  3.3027
  196THF     C8 4483   2.765   0.462   0.329  0.1997 -0.7603  0.4101
  196THF     C9 4484   2.862   0.480   0.443  0.8163 -0.0368 -0.7830
  196THF    H10 4485   2.824   0.453   0.235 -0.0526  2.2178  0.5772
  196THF    H11 4486   2.709   0.371   0.342  2.9757  0.6327 -1.6975
  196THF    H12 4487   2.892   0.383   0.481 -2.5531 -1.6305 -1.1449
  196THF    H13 4488   2.950   0.541   0.423 -2.0314  0.1874  0.2102
  197THF     O1 4489   4.663   0.392   2.567  0.0323 -0.1281  0.2900
  197THF     C2 4490   4.572   0.285   2.595  1.0948 -0.2939  0.1692
  197THF     C3 4491   4.602   0.460   2.451 -0.3790 -0.6953 -0.0189
  197THF     H4 4492   4.583   0.243   2.699  2.3875  1.0737  0.6329
  197THF     H5 4493   4.600   0.199   2.536  2.7632 -0.7222  0.6112
  197THF     H6 4494   4.643   0.562   2.435  1.0716  0.0231  0.8405
  197THF     H7 4495   4.626   0.401   2.362 -0.6481 -1.0278 -3.3025
  197THF     C8 4496   4.451   0.466   2.485 -0.0960  0.1608 -0.3885
  197THF     C9 4497   4.434   0.342   2.575 -0.0664 -1.0756 -0.1300
  197THF    H10 4498   4.388   0.471   2.398 -0.5286  0.6531  2.4075
  197THF    H11 4499   4.425   0.558   2.543 -1.1216 -0.8900  0.9481
  197THF    H12 4500   4.406   0.371   2.677  1.8648 -2.4682 -0.1915
  197THF    H13 4501   4.374   0.261   2.527 -2.7959  0.1914 -2.4633
  198THF     O1 4502   3.387   4.877   1.788  0.6566  0.1308  0.2499
  198THF     C2 4503   3.526   4.890   1.787 -0.3816 -1.1499  0.2078
  198THF     C3 4504   3.367   4.741   1.743 -0.2133  0.0030  0.4025
  198THF     H4 4505   3.557   4.990   1.826 -1.0013  1.2749 -2.7965
  198THF     H5 4506   3.573   4.876   1.688  2.4090  0.0702 -0.1052
  198THF     H6 4507   3.265   4.731   1.756  1.8325  0.9788  0.7348
  198THF     H7 4508   3.388   4.734   1.637  1.6003 -0.0787  1.2231
  198THF     C8 4509   3.463   4.667   1.832  0.3406  0.2795  0.3044
  198THF     C9 4510   3.568   4.768   1.874 -0.3023  0.1279  1.0370
  198THF    H10 4511   3.490   4.574   1.778 -0.4015 -0.2623 -1.8039
  198THF    H11 4512   3.393   4.641   1.910 -1.1182 -1.4167 -4.2905
  198THF    H12 4513   3.559   4.803   1.977  0.1670 -0.3438  0.8224
  198THF    H13 4514   3.668   4.723   1.867 -1.3723 -0.8630  1.1871
  199THF     O1 4515   4.043   0.919   3.234  0.2919  0.3778  0.3915
  199THF     C2 4516   3.963   0.814   3.183 -0.4979 -0.0018 -0.1903
  199THF     C3 4517   4.091   0.893   3.365  0.9867  0.2137 -0.6627
  199THF     H4 4518   3.989   0.785   3.079  4.4758 -1.9178  0.4511
  199THF     H5 4519   3.859   0.844   3.185  0.7815  0.4839  1.0411
  199THF     H6 4520   4.198   0.887   3.358 -0.0336  0.2316  0.6416
  199THF     H7 4521   4.063   0.976   3.425 -0.5479  1.9206  1.9339
  199THF     C8 4522   4.018   0.763   3.406 -0.8015 -0.4647 -0.3264
  199THF     C9 4523   3.990   0.699   3.270  0.3671  0.2209  0.0275
  199THF    H10 4524   3.925   0.783   3.464 -2.7263 -0.3851  0.5507
  199THF    H11 4525   4.085   0.702   3.459  0.2360  2.1459 -2.3782
  199THF    H12 4526   4.076   0.646   3.230 -2.3388 -1.3488 -0.1448
  199THF    H13 4527   3.904   0.628   3.273 -0.4476 -3.1500  1.7626
  200THF     O1 4528   5.011   2.932   3.032 -0.2220 -0.6577  0.1267
  200THF     C2 4529   5.139   2.897   2.990 -0.1560 -0.0409 -0.4293
  200THF     C3 4530   4.952   2.993   2.915 -0.2239  0.8511  0.4129
  200THF     H4 4531   5.143   2.796   2.945  0.9395 -2.8301  1.5781
  200THF     H5 4532   5.200   2.898   3.081  0.2083 -4.9421 -0.8913
  200THF     H6 4533   4.939   2.911   2.841  0.3908 -3.4436 -1.5325
  200THF     H7 4534   4.857   3.037   2.931  0.6690 -0.7960  0.9025
  200THF     C8 4535   5.058   3.090   2.871 -0.3656  0.3219 -0.9154
  200THF     C9 4536   5.189   3.007   2.893  0.1421 -0.3525  0.1522
  200THF    H10 4537   5.061   3.186   2.924  1.1623 -1.9791  1.8899
  200THF    H11 4538   5.039   3.115   2.767  0.3878  1.3071  1.3411
  200THF    H12 4539   5.228   2.949   2.813  1.1046  1.7954  1.4325
  200THF    H13 4540   5.262   3.073   2.948 -0.6424 -2.3974 -0.1103
  201THF     O1 4541   2.492   0.911   5.444 -0.3496 -0.0463  0.0786
  201THF     C2 4542   2.440   0.956   5.324  0.8873 -0.4813  0.5784
  201THF     C3 4543   2.630   0.952   5.454  0.7161 -0.8757 -0.1697
  201THF     H4 4544   2.379   1.046   5.340  1.8347  0.6386  0.4013
  201THF     H5 4545   2.382   0.876   5.282  1.2040 -1.3529  1.4762
  201THF     H6 4546   2.645   1.053   5.494 -1.8398 -1.4567  1.3039
  201THF     H7 4547   2.687   0.879   5.517  2.6287 -1.8323 -1.0375
  201THF     C8 4548   2.685   0.937   5.310 -0.3305  0.3700 -0.0692
  201THF     C9 4549   2.562   0.977   5.230  0.2124  0.1608  0.3617
  201THF    H10 4550   2.717   0.836   5.281 -1.2121  1.1255 -2.0577
  201THF    H11 4551   2.767   1.002   5.308  0.8412 -2.6388  0.0482
  201THF    H12 4552   2.571   1.088   5.200  0.9516 -0.4313  1.0748
  201THF    H13 4553   2.530   0.927   5.137 -2.2404 -0.9731  0.0976
  202THF     O1 4554   1.716   5.282   2.433 -0.0577 -0.7872  0.6882
  202THF     C2 4555   1.640   5.329   2.321 -0.0140  0.7279 -0.0182
  202THF     C3 4556   1.628   5.291   2.542  0.0597 -0.2441 -0.6430
  202THF     H4 4557   1.684   5.288   2.235  1.4024 -0.8524 -1.2306
  202THF     H5 4558   1.643   5.441   2.307  0.8583  1.7441  2.6127
  202THF     H6 4559   1.662   5.238   2.624  0.6767  0.0040 -1.7908
  202THF     H7 4560   1.587   5.392   2.575 -2.7926  2.7359 -0.2712
  202THF     C8 4561   1.504   5.224   2.483  0.4532  0.0316 -0.4531
  202THF     C9 4562   1.499   5.265   2.335 -0.0920  0.8004 -0.1993
  202THF    H10 4563   1.406   5.257   2.528  0.0218 -1.6850 -0.4929
  202THF    H11 4564   1.513   5.119   2.495  0.0093 -1.9746 -1.9640
  202THF    H12 4565   1.502   5.183   2.260 -1.7393 -0.8776 -0.7178
  202THF    H13 4566   1.428   5.341   2.316 -1.4047 -3.5475 -1.9294
  203THF     O1 4567   5.243   4.793   4.227 -0.3205 -0.1804  0.7660
  203THF     C2 4568   5.328   4.820   4.110  0.7119 -0.9200 -0.5692
  203THF     C3 4569   5.185   4.658   4.216  0.2784  0.1819  0.0285
  203THF     H4 4570   5.430   4.844   4.150  0.6466  0.1504  0.6974
  203THF     H5 4571   5.273   4.905   4.053 -1.5559 -0.2773 -1.2914
  203THF     H6 4572   5.174   4.625   4.320  1.2461 -2.3626 -4.2166
  203THF     H7 4573   5.092   4.653   4.161  0.6140 -3.3669 -0.3754
  203THF     C8 4574   5.294   4.583   4.140  0.9356 -0.0880 -0.2959
  203THF     C9 4575   5.324   4.693   4.030 -0.2236  0.5362  0.5227
  203THF    H10 4576   5.250   4.484   4.114 -0.6326 -0.0367  2.0090
  203THF    H11 4577   5.382   4.565   4.204  1.7510  0.3774  2.2555
  203THF    H12 4578   5.416   4.681   3.970 -0.7402 -0.7064 -1.1759
  203THF    H13 4579   5.258   4.698   3.948  0.7773 -1.4336 -1.1191
  204THF     O1 4580   0.920   1.310   1.258 -0.0757  0.3707 -0.3190
  204THF     C2 4581   0.852   1.430   1.226  0.2675  0.5035 -0.4963
  204THF     C3 4582   0.949   1.242   1.132 -0.0697  0.2178 -0.5641
  204THF     H4 4583   0.862   1.498   1.303 -2.6540 -1.8584 -0.7590
  204THF     H5 4584   0.744   1.404   1.224 -0.9648 -0.0425 -0.2723
  204THF     H6 4585   1.057   1.223   1.143 -0.9053  0.3829 -1.1657
  204THF     H7 4586   0.903   1.137   1.119  0.6855 -3.3376  0.3233
  204THF     C8 4587   0.927   1.347   1.023  0.1563 -0.6180  0.1382
  204THF     C9 4588   0.913   1.479   1.097 -0.2460 -0.3225  0.3413
  204THF    H10 4589   0.847   1.320   0.954  1.4393 -0.5194  0.4964
  204THF    H11 4590   1.000   1.347   0.943 -2.3250  3.0102 -0.8489
  204THF    H12 4591   1.011   1.513   1.119 -1.7065 -0.9783 -1.5022
  204THF    H13 4592   0.859   1.555   1.047 -0.4182 -0.2542 -1.1459
  205THF     O1 4593   4.987   1.069   4.825  0.4346 -0.2061  0.0656
  205THF     C2 4594   5.086   1.146   4.892 -0.2445  0.3394  0.2183
  205THF     C3 4595   5.044   0.941   4.813  0.4466  0.3372  0.0472
  205THF     H4 4596   5.028   1.220   4.947  1.4525  2.8196 -1.4047
  205THF     H5 4597   5.158   1.199   4.829  2.3175 -0.6019 -0.4430
  205THF     H6 4598   4.971   0.873   4.782  2.0628 -0.9822  0.3338
  205THF     H7 4599   5.116   0.936   4.744 -4.0929  2.2177 -0.3873
  205THF     C8 4600   5.092   0.919   4.957  0.0751 -0.0210  0.0161
  205THF     C9 4601   5.160   1.052   4.982  0.4187 -0.1565 -0.1649
  205THF    H10 4602   5.154   0.834   4.983  0.4419  3.4079  1.0982
  205THF    H11 4603   5.000   0.906   5.017 -1.7072  1.0341 -0.3429
  205THF    H12 4604   5.147   1.079   5.086  1.1425  2.5759 -2.2379
  205THF    H13 4605   5.263   1.048   4.948  1.5390  3.4348 -0.4820
  206THF     O1 4606   2.239   1.607   2.843  0.5987 -0.8076  0.0269
  206THF     C2 4607   2.312   1.526   2.936  0.1285 -0.1715  0.2684
  206THF     C3 4608   2.248   1.540   2.722 -0.0946 -0.8112 -0.5302
  206THF     H4 4609   2.298   1.552   3.043 -1.2899 -3.6487 -0.4363
  206THF     H5 4610   2.418   1.519   2.920  0.3230 -0.4100  0.6630
  206THF     H6 4611   2.201   1.586   2.635  2.8983 -0.8537  0.5091
  206THF     H7 4612   2.352   1.536   2.697 -3.7590  0.8843  1.2059
  206THF     C8 4613   2.206   1.403   2.758 -0.5552  0.2031  0.0080
  206THF     C9 4614   2.243   1.393   2.904  0.3109 -0.6539  0.1120
  206THF    H10 4615   2.261   1.326   2.706 -0.7085 -0.5465  1.3973
  206THF    H11 4616   2.101   1.398   2.746 -0.1793 -2.2711 -0.9910
  206THF    H12 4617   2.154   1.374   2.966 -0.4618 -3.6397 -1.5469
  206THF    H13 4618   2.308   1.308   2.925  0.5818  0.1323  0.3979
  207THF     O1 4619   3.770   3.564   4.155 -0.3084  0.0355  0.3822
  207THF     C2 4620   3.830   3.620   4.270 -0.2000  0.0878  0.4285
  207THF     C3 4621   3.856   3.473   4.086 -0.2684  0.0717 -0.3069
  207THF     H4 4622   3.763   3.664   4.350  2.6130  0.1442  1.0009
  207THF     H5 4623   3.880   3.704   4.234  0.4156 -1.5439 -1.2722
  207THF     H6 4624   3.829   3.379   4.040 -0.0294 -0.3833 -4.0893
  207THF     H7 4625   3.913   3.526   4.010 -1.0345 -1.3582  2.7164
  207THF     C8 4626   3.967   3.454   4.193  0.4586 -0.2273 -0.0075
  207THF     C9 4627   3.919   3.514   4.325  0.8135  0.5863  0.3383
  207THF    H10 4628   4.063   3.487   4.152  0.3660  0.3595 -1.7563
  207THF    H11 4629   3.983   3.346   4.219  0.6028  1.2566  0.5891
  207THF    H12 4630   3.865   3.440   4.375 -1.3391  1.9557 -2.6047
  207THF    H13 4631   3.996   3.553   4.392  1.8894  1.6679 -0.7482
  208THF     O1 4632   0.822   1.746   3.121 -0.2688 -0.3386 -0.0418
  208THF     C2 4633   0.772   1.751   3.256  0.4859 -0.3416 -0.6575
  208THF     C3 4634   0.759   1.628   3.070  0.2922 -0.4918 -0.1196
  208THF     H4 4635   0.672   1.801   3.250  0.7559  0.3962  0.3134
  208THF     H5 4636   0.835   1.824   3.311 -1.4469  0.8015 -0.4512
  208THF     H6 4637   0.657   1.655   3.042  2.0446 -1.7353 -1.5514
  208THF     H7 4638   0.817   1.607   2.977  1.2954 -0.4787  1.3580
  208THF     C8 4639   0.772   1.528   3.189 -0.3506  0.1194 -0.2981
  208THF     C9 4640   0.754   1.614   3.312 -0.0492  0.2669 -0.0493
  208THF    H10 4641   0.877   1.486   3.186  2.9778  1.8074  0.2553
  208THF    H11 4642   0.698   1.454   3.181  0.1912  1.7262  0.4154
  208THF    H12 4643   0.650   1.596   3.358  0.8165  0.8273 -0.5676
  208THF    H13 4644   0.832   1.582   3.378  1.2461 -3.4390 -2.0068
  209THF     O1 4645   2.559   0.679   2.518 -0.3328  0.2309  0.3024
  209THF     C2 4646   2.689   0.707   2.460 -0.0135  0.3222  1.0184
  209THF     C3 4647   2.580   0.684   2.661 -0.2411 -0.4619  0.5071
  209THF     H4 4648   2.678   0.780   2.383  1.6501 -1.3251 -1.7097
  209THF     H5 4649   2.740   0.618   2.417  1.2820 -1.4462  2.3954
  209THF     H6 4650   2.494   0.705   2.727 -2.8970  1.5702  1.5779
  209THF     H7 4651   2.607   0.584   2.693  1.6589  0.6284  0.0176
  209THF     C8 4652   2.692   0.775   2.689  0.2360 -0.4168  0.2529
  209THF     C9 4653   2.780   0.758   2.568  0.9281 -0.0940 -0.6259
  209THF    H10 4654   2.736   0.769   2.789  0.8843 -1.6980 -0.9096
  209THF    H11 4655   2.629   0.863   2.676 -2.5407 -1.2013 -1.2111
  209THF    H12 4656   2.830   0.851   2.543  0.7567  1.4842 -2.3089
  209THF    H13 4657   2.849   0.673   2.587 -0.7809 -0.8263 -2.5050
  210THF     O1 4658   0.338   3.674   5.331  1.1438 -0.0112 -0.2321
  210THF     C2 4659   0.377   3.762   5.232 -0.7462  0.6268  0.2405
  210THF     C3 4660   0.290   3.759   5.432 -0.1763  0.2113 -0.1429
  210THF     H4 4661   0.407   3.713   5.139 -1.4429  3.7648 -1.5989
  210THF     H5 4662   0.456   3.828   5.255 -0.4359  1.7404  2.4127
  210THF     H6 4663   0.245   3.705   5.514 -0.3277  0.5988 -1.2766
  210THF     H7 4664   0.367   3.810   5.478 -0.7912 -0.6835  1.3431
  210THF     C8 4665   0.194   3.861   5.362 -0.2160  0.1712  0.3543
  210THF     C9 4666   0.251   3.853   5.213 -0.2494 -0.1408  0.6522
  210THF    H10 4667   0.196   3.964   5.398 -0.8696  0.2799  0.2607
  210THF    H11 4668   0.094   3.826   5.365  0.6120 -0.0615 -0.0236
  210THF    H12 4669   0.184   3.802   5.138 -0.7873 -1.0861  2.1772
  210THF    H13 4670   0.276   3.956   5.179 -1.9225 -0.9459 -2.8126
  211THF     O1 4671   3.826   5.210   2.550 -0.3454  0.2577  0.2916
  211THF     C2 4672   3.725   5.298   2.589  0.4744 -0.1109  0.4298
  211THF     C3 4673   3.818   5.093   2.625 -0.2871 -0.1515  0.5934
  211THF     H4 4674   3.644   5.309   2.514 -0.0344  0.3494  0.1773
  211THF     H5 4675   3.784   5.388   2.598 -2.0820 -0.9175  0.9774
  211THF     H6 4676   3.817   5.000   2.565  0.8052  3.4036  2.5094
  211THF     H7 4677   3.896   5.088   2.699 -3.1169 -0.4542  1.1369
  211THF     C8 4678   3.688   5.095   2.709 -0.0345 -0.4927  0.0258
  211THF     C9 4679   3.675   5.247   2.725  0.8105 -0.1391 -0.3976
  211THF    H10 4680   3.680   5.029   2.790  0.1315  0.2805 -2.7556
  211THF    H11 4681   3.607   5.050   2.647 -0.9589  1.3333  1.1694
  211THF    H12 4682   3.571   5.280   2.750 -0.5858 -1.7723 -1.3424
  211THF    H13 4683   3.741   5.257   2.811 -0.0826  1.4438  2.3690
  212THF     O1 4684   4.699   4.847   1.000  0.0497 -0.7939  0.4636
  212THF     C2 4685   4.816   4.903   0.935 -0.1481  1.2711 -0.1487
  212THF     C3 4686   4.682   4.713   0.961  0.5395  0.2361  0.5223
  212THF     H4 4687   4.903   4.867   0.980 -1.5968 -0.1351  1.1051
  212THF     H5 4688   4.818   5.013   0.942  0.1473  0.0740 -2.2897
  212THF     H6 4689   4.730   4.649   1.036 -0.1675 -1.4394  0.8112
  212THF     H7 4690   4.573   4.702   0.945 -0.7068 -3.5949 -0.6949
  212THF     C8 4691   4.756   4.702   0.825 -1.2655  0.3549 -0.7524
  212THF     C9 4692   4.808   4.840   0.797 -0.3642  0.3942 -0.6927
  212THF    H10 4693   4.682   4.667   0.757  1.0516 -1.3548 -0.3277
  212THF    H11 4694   4.828   4.624   0.816 -2.2660  0.4959 -0.3959
  212THF    H12 4695   4.901   4.824   0.747  0.6421 -2.8386 -0.6101
  212THF    H13 4696   4.739   4.895   0.728 -0.6774 -0.3309 -3.1558
  213THF     O1 4697   3.691   1.999   1.938 -0.0562 -0.4008 -0.3917
  213THF     C2 4698   3.817   1.978   2.007  0.6582 -0.0230 -0.1936
  213THF     C3 4699   3.648   1.875   1.884 -0.1646 -0.4125 -0.1683
  213THF     H4 4700   3.792   1.954   2.109  0.3979 -0.8575  0.5845
  213THF     H5 4701   3.888   2.063   2.014 -0.0609 -1.2628 -2.4122
  213THF     H6 4702   3.587   1.818   1.954 -0.4349 -2.4245 -2.1689
  213THF     H7 4703   3.589   1.894   1.793 -1.8932  0.8228  0.2358
  213THF     C8 4704   3.778   1.806   1.856  0.4437  0.0919  0.2575
  213THF     C9 4705   3.880   1.854   1.958 -0.3535  0.1264  0.0865
  213THF    H10 4706   3.819   1.824   1.757 -0.2983  1.6001  0.4507
  213THF    H11 4707   3.768   1.694   1.852 -0.0778 -0.4122  0.0423
  213THF    H12 4708   3.887   1.776   2.035 -0.9079  0.2079 -2.2618
  213THF    H13 4709   3.980   1.864   1.918 -4.1183 -0.7063  2.8025
  214THF     O1 4710   1.931   3.159   4.943 -0.1335  0.1550 -0.3913
  214THF     C2 4711   1.990   3.218   4.828 -0.2801 -0.4574 -0.2949
  214THF     C3 4712   1.791   3.169   4.923 -0.3247 -0.2504  0.1293
  214THF     H4 4713   2.054   3.139   4.788 -0.7567 -0.6361  0.9097
  214THF     H5 4714   2.051   3.309   4.853  0.7123  1.8066  1.4790
  214THF     H6 4715   1.732   3.088   4.966  0.4024  0.9076  3.0093
  214THF     H7 4716   1.746   3.263   4.962  2.7237  2.0497 -0.3966
  214THF     C8 4717   1.765   3.157   4.768 -0.0186  0.1666  0.2980
  214THF     C9 4718   1.882   3.246   4.721 -0.0063 -0.0135  0.1202
  214THF    H10 4719   1.660   3.189   4.738  1.4297  2.3342 -0.1208
  214THF    H11 4720   1.781   3.052   4.743 -0.0402 -0.3619  0.2749
  214THF    H12 4721   1.924   3.222   4.622 -3.3090  0.2386  1.3316
  214THF    H13 4722   1.853   3.355   4.719  0.9719 -0.1621  0.0408
  215THF     O1 4723   4.572   2.136   0.143  0.1623 -0.1908  0.7004
  215THF     C2 4724   4.685   2.086   0.206 -0.1913 -0.0463  0.4354
  215THF     C3 4725   4.584   2.121   0.000  0.1333  0.0835 -0.4772
  215THF     H4 4726   4.655   1.987   0.236 -0.2783  1.1993 -3.7475
  215THF     H5 4727   4.723   2.147   0.292  0.6099  1.1006  1.3249
  215THF     H6 4728   4.506   2.047  -0.031  3.8544 -1.9509 -1.7295
  215THF     H7 4729   4.550   2.212  -0.041  2.5584 -2.3490  0.5041
  215THF     C8 4730   4.722   2.069  -0.040  0.3323 -0.3002  0.2387
  215THF     C9 4731   4.791   2.085   0.097 -1.0881 -0.9752  0.0556
  215THF    H10 4732   4.773   2.121  -0.123  0.6931 -1.5634  1.1834
  215THF    H11 4733   4.723   1.963  -0.055  2.6937 -1.3407 -0.4087
  215THF    H12 4734   4.874   2.009   0.114  0.6688 -1.9414 -0.6278
  215THF    H13 4735   4.837   2.185   0.092 -0.1552 -1.1171 -3.5094
  216THF     O1 4736   0.845   3.642   2.906  0.2189 -0.2923 -0.2000
  216THF     C2 4737   0.814   3.783   2.909  0.5441  0.5461 -0.0269
  216THF     C3 4738   0.957   3.624   2.987  0.8385  0.0772  0.6213
  216THF     H4 4739   0.711   3.792   2.872 -0.4907 -1.4384 -2.2959
  216THF     H5 4740   0.878   3.846   2.859  0.6918 -1.0856 -1.6839
  216THF     H6 4741   0.977   3.523   3.022 -1.2846  0.2390  0.5141
  216THF     H7 4742   1.043   3.668   2.929  0.8354 -1.1379  0.8514
  216THF     C8 4743   0.945   3.719   3.103 -0.9626  0.5108 -0.2507
  216THF     C9 4744   0.823   3.809   3.057 -0.0367 -0.4512 -0.3027
  216THF    H10 4745   1.046   3.767   3.110  0.5237 -0.8038  1.2007
  216THF    H11 4746   0.915   3.672   3.194 -0.3589 -1.0390 -1.2237
  216THF    H12 4747   0.725   3.772   3.093  2.2696  0.4058 -0.4184
  216THF    H13 4748   0.834   3.917   3.087  0.0449  0.4830 -0.0067
  217THF     O1 4749   3.536   2.132   4.485  0.2094  0.0755 -0.1716
  217THF     C2 4750   3.564   2.111   4.344 -0.7047 -0.2585  0.7228
  217THF     C3 4751   3.497   2.013   4.541  0.4031 -0.6708  0.5931
  217THF     H4 4752   3.669   2.128   4.322 -1.5711 -1.0032 -0.8475
  217THF     H5 4753   3.507   2.174   4.277 -2.8499 -0.2790  2.1716
  217THF     H6 4754   3.536   2.002   4.639 -0.8885  0.5203  1.4576
  217THF     H7 4755   3.388   2.011   4.552  2.0245  1.1823  3.7983
  217THF     C8 4756   3.556   1.894   4.456 -0.1107  0.1044  0.4121
  217THF     C9 4757   3.533   1.961   4.318 -0.5107  0.1643 -0.2466
  217THF    H10 4758   3.497   1.802   4.473 -1.1136 -2.3940  0.4707
  217THF    H11 4759   3.667   1.872   4.469 -2.7583  1.6133 -0.0866
  217THF    H12 4760   3.585   1.918   4.229  0.3164 -2.3043 -2.4539
  217THF    H13 4761   3.424   1.961   4.291 -1.9441  0.7682  1.5137
  218THF     O1 4762   3.175   1.777   0.620 -0.1507 -0.3812  0.1842
  218THF     C2 4763   3.068   1.710   0.557 -0.2165  0.2796  0.3346
  218THF     C3 4764   3.122   1.858   0.724  0.1835  0.5479  0.3204
  218THF     H4 4765   3.112   1.617   0.530 -1.1690  2.5544 -1.5824
  218THF     H5 4766   3.027   1.750   0.468  0.4400 -0.4090  1.2277
  218THF     H6 4767   3.205   1.868   0.793 -0.1840 -4.0235 -0.5416
  218THF     H7 4768   3.094   1.951   0.674 -3.0550 -0.5601 -1.4507
  218THF     C8 4769   2.996   1.788   0.781  0.1014  0.1263  0.1215
  218THF     C9 4770   2.962   1.694   0.667  0.8273 -0.8229 -0.6235
  218THF    H10 4771   2.923   1.864   0.805  2.8257  0.4503 -0.9681
  218THF    H11 4772   3.031   1.729   0.864  2.5308 -4.8046 -0.5857
  218THF    H12 4773   2.979   1.595   0.707 -4.0610 -0.7016  1.9187
  218THF    H13 4774   2.856   1.695   0.639  0.2547  1.4168  0.1867
  219THF     O1 4775   0.336   1.813   3.254 -0.1793 -0.0561  0.0725
  219THF     C2 4776   0.198   1.854   3.278 -0.2071  0.1004  0.6168
  219THF     C3 4777   0.335   1.667   3.264  0.1888 -0.8272 -0.6640
  219THF     H4 4778   0.186   1.949   3.231 -1.1815 -1.7129 -0.9771
  219THF     H5 4779   0.190   1.860   3.383 -2.1656 -1.2500  1.0490
  219THF     H6 4780   0.421   1.640   3.202  1.3401  3.3326  2.1978
  219THF     H7 4781   0.349   1.623   3.364 -1.2685  0.0414  0.5035
  219THF     C8 4782   0.205   1.622   3.201 -0.6659  0.2603 -0.0321
  219THF     C9 4783   0.123   1.748   3.206  0.4751  0.0707 -0.0970
  219THF    H10 4784   0.167   1.534   3.249 -2.5931 -0.2296  0.0203
  219THF    H11 4785   0.213   1.594   3.094 -3.3607 -0.7978  0.0913
  219THF    H12 4786   0.090   1.778   3.109  0.2693  0.1248 -0.5062
  219THF    H13 4787   0.032   1.719   3.259  0.8553  0.3940 -0.0418
  220THF     O1 4788   1.161   5.024   1.916 -0.3526  0.3073 -0.0031
  220THF     C2 4789   1.105   5.114   2.012  0.4211  1.0235  0.4945
  220THF     C3 4790   1.149   5.084   1.787 -0.0907  0.2483  0.4453
  220THF     H4 4791   1.120   5.096   2.114  1.3850 -0.9257 -2.9531
  220THF     H5 4792   1.000   5.113   1.997 -0.6347 -0.9749  0.6652
  220THF     H6 4793   1.220   5.036   1.722  1.3540 -2.5477  1.1067
  220THF     H7 4794   1.052   5.057   1.749  0.6997 -0.7158 -2.5320
  220THF     C8 4795   1.170   5.230   1.819 -0.1365  0.0712 -0.0424
  220THF     C9 4796   1.157   5.250   1.966 -0.0965  0.5423  0.2671
  220THF    H10 4797   1.101   5.283   1.768 -0.6252 -0.4482  0.0714
  220THF    H11 4798   1.268   5.258   1.791  4.6886 -0.7244  0.2059
  220THF    H12 4799   1.251   5.263   2.007 -1.4385 -2.1226 -0.0229
  220THF    H13 4800   1.100   5.337   1.998  0.0346 -1.3620  1.6086
  221THF     O1 4801   4.015   0.009   0.284 -0.1082  0.3348  0.1022
  221THF     C2 4802   3.970  -0.043   0.162  0.2337  0.0123 -0.0066
  221THF     C3 4803   4.157  -0.023   0.299  0.7780 -0.4253  0.4082
  221THF     H4 4804   3.973   0.027   0.080 -0.8299 -0.7344 -1.4272
  221THF     H5 4805   3.872  -0.075   0.158  1.1762  0.9122  1.5586
  221THF     H6 4806   4.226   0.060   0.283  0.2566  0.7466 -3.6064
  221THF     H7 4807   4.170  -0.069   0.399  4.1351 -0.4478  0.9511
  221THF     C8 4808   4.195  -0.106   0.185  0.0428 -0.1717  0.1785
  221THF     C9 4809   4.057  -0.163   0.147 -0.8760 -0.0205  0.3248
  221THF    H10 4810   4.265  -0.180   0.205  1.9281 -0.9135  0.9974
  221THF    H11 4811   4.238  -0.042   0.108  1.3176  0.2468  0.8984
  221THF    H12 4812   4.058  -0.199   0.042 -0.7146  0.6443 -2.9972
  221THF    H13 4813   4.035  -0.256   0.197  0.3859 -1.2399 -2.8236
  222THF     O1 4814   3.047   2.204   0.775 -0.5612  0.1580  0.4824
  222THF     C2 4815   3.139   2.305   0.814 -0.2579  0.5530 -0.2626
  222THF     C3 4816   2.995   2.152   0.897 -0.0376  0.6671 -0.3471
  222THF     H4 4817   3.145   2.375   0.730 -0.5016  2.0127  1.4063
  222THF     H5 4818   3.238   2.271   0.835  2.3110  1.1034  3.2961
  222THF     H6 4819   2.909   2.085   0.886  0.0981  0.3699 -1.8425
  222THF     H7 4820   3.061   2.098   0.957 -1.7759 -1.1851  0.5324
  222THF     C8 4821   2.956   2.270   0.980 -0.2833  0.3043 -0.1590
  222THF     C9 4822   3.064   2.377   0.933  0.7437 -0.4004 -0.0851
  222THF    H10 4823   2.966   2.232   1.087  1.2988  1.5247  0.1711
  222THF    H11 4824   2.852   2.308   0.960  3.1242  2.4856  2.5296
  222THF    H12 4825   3.015   2.467   0.896  1.2328 -0.6143 -0.0077
  222THF    H13 4826   3.133   2.418   1.009 -1.4640  2.5327  3.0869
  223THF     O1 4827   3.774   5.380   5.328  0.6213 -0.3545 -0.0234
  223THF     C2 4828   3.697   5.392   5.199  0.1484 -0.4292 -0.3073
  223THF     C3 4829   3.915   5.351   5.305 -0.3151 -0.7765  0.6619
  223THF     H4 4830   3.614   5.465   5.196 -1.2855 -0.3688  1.0971
  223THF     H5 4831   3.663   5.289   5.180  1.3473 -1.0838  0.7835
  223THF     H6 4832   3.969   5.425   5.359  1.2115 -2.5353 -0.9154
  223THF     H7 4833   3.949   5.260   5.352  0.5633  3.3642 -1.0540
  223THF     C8 4834   3.929   5.346   5.148  0.4514  0.4211 -0.2071
  223THF     C9 4835   3.805   5.418   5.098  0.0801 -0.2296  0.1089
  223THF    H10 4836   3.921   5.241   5.111  1.9661 -0.7029 -1.6553
  223THF    H11 4837   4.022   5.384   5.113  0.4247 -0.7771 -1.2129
  223THF    H12 4838   3.825   5.520   5.092 -0.9701 -1.2633 -2.7122
  223THF    H13 4839   3.776   5.376   5.000 -0.0760 -1.5425 -1.0801
  224THF     O1 4840   1.358   0.147   1.545  0.0344  0.2450  0.0358
  224THF     C2 4841   1.486   0.179   1.496  0.0047 -0.5982  0.7655
  224THF     C3 4842   1.352   0.013   1.506  0.2486 -0.3969  0.2822
  224THF     H4 4843   1.560   0.162   1.573  0.4416 -0.7227  2.4647
  224THF     H5 4844   1.490   0.285   1.466 -1.6470  0.0368  0.6413
  224THF     H6 4845   1.394  -0.039   1.589  0.8220  0.5746 -0.5249
  224THF     H7 4846   1.254  -0.029   1.492  0.5982  0.6137 -1.7763
  224THF     C8 4847   1.424  -0.011   1.374  0.4386 -0.8993  0.4721
  224THF     C9 4848   1.525   0.103   1.368 -0.9572  0.8981  0.1434
  224THF    H10 4849   1.360   0.005   1.295 -3.9163  0.0976  0.5763
  224THF    H11 4850   1.470  -0.108   1.363  0.3939 -2.0903 -0.3825
  224THF    H12 4851   1.626   0.075   1.361 -3.1593  1.2616  0.2934
  224THF    H13 4852   1.504   0.167   1.285  0.3248  2.1363 -1.4054
  225THF     O1 4853   2.558   2.317   3.078  0.6171  0.1461  0.3100
  225THF     C2 4854   2.495   2.286   3.201 -0.7558  0.1686  0.3001
  225THF     C3 4855   2.642   2.203   3.050  0.2003 -0.4922 -0.5034
  225THF     H4 4856   2.393   2.316   3.197 -3.3004 -0.4551 -0.3381
  225THF     H5 4857   2.554   2.350   3.263  0.5980  1.8147  0.8613
  225THF     H6 4858   2.592   2.136   2.979  1.0777  0.2351 -1.0797
  225THF     H7 4859   2.738   2.237   3.016  1.6134 -0.3577  0.8978
  225THF     C8 4860   2.666   2.121   3.173  0.5050 -0.1986 -0.6388
  225THF     C9 4861   2.525   2.136   3.236 -0.1466  0.1563 -0.4978
  225THF    H10 4862   2.738   2.173   3.237  1.3335  0.4840 -0.0626
  225THF    H11 4863   2.688   2.013   3.153  0.8672 -0.9589  1.1181
  225THF    H12 4864   2.457   2.069   3.187 -1.7419 -0.0527 -0.4853
  225THF    H13 4865   2.530   2.111   3.343  0.3114 -1.0736  2.1460
  226THF     O1 4866   5.448   1.981   4.895  0.3713 -0.1170 -0.0479
  226THF     C2 4867   5.367   2.092   4.836  0.2310 -0.4525 -0.0277
  226THF     C3 4868   5.472   1.886   4.787 -0.0648 -0.2185 -0.3924
  226THF     H4 4869   5.437   2.154   4.769 -1.6177 -1.2631 -0.8477
  226THF     H5 4870   5.318   2.156   4.909  0.8688  1.2462 -1.2460
  226THF     H6 4871   5.552   1.924   4.724 -1.9196 -0.9176 -0.9563
  226THF     H7 4872   5.503   1.787   4.821 -2.0028  0.8305 -0.8876
  226THF     C8 4873   5.336   1.887   4.714  1.0499  0.1428 -0.9183
  226THF     C9 4874   5.276   2.023   4.739 -0.1335 -0.0363  0.3590
  226THF    H10 4875   5.280   1.807   4.763 -0.9060  2.5930 -0.4942
  226THF    H11 4876   5.342   1.873   4.611 -2.7955 -0.5858  2.0088
  226THF    H12 4877   5.295   2.078   4.646 -0.3065  2.4542 -0.4270
  226THF    H13 4878   5.168   2.025   4.765 -1.6998  0.6019 -1.5708
  227THF     O1 4879   0.446   2.105   4.716 -0.0134 -0.6091  0.5444
  227THF     C2 4880   0.369   2.210   4.756 -0.9414 -0.3736  0.3691
  227THF     C3 4881   0.574   2.112   4.782  0.2539  0.4580  0.1111
  227THF     H4 4882   0.262   2.209   4.742 -0.4939 -0.9993 -0.9656
  227THF     H5 4883   0.389   2.298   4.690  1.8762 -0.3746 -2.5846
  227THF     H6 4884   0.596   2.007   4.789 -0.9234 -0.0047 -0.6161
  227THF     H7 4885   0.655   2.144   4.722  0.5984 -0.2998 -0.1359
  227THF     C8 4886   0.548   2.184   4.910  0.1045  0.1491  0.0423
  227THF     C9 4887   0.410   2.243   4.901 -0.1199 -0.1316 -0.0593
  227THF    H10 4888   0.616   2.262   4.914 -1.6576 -0.7793 -0.4845
  227THF    H11 4889   0.547   2.121   4.999  2.9169 -0.2702  0.3533
  227THF    H12 4890   0.339   2.196   4.965 -1.5435 -0.0984 -1.4288
  227THF    H13 4891   0.417   2.349   4.924  0.4610  0.5119  0.8638
  228THF     O1 4892   3.467   4.762   2.534  0.2134 -0.2897  0.2120
  228THF     C2 4893   3.463   4.699   2.410  0.1617  0.5447 -0.0380
  228THF     C3 4894   3.563   4.694   2.609 -0.9320 -0.1891  1.0515
  228THF     H4 4895   3.544   4.729   2.350 -0.4709  0.8716  3.3850
  228THF     H5 4896   3.373   4.733   2.358 -1.5020 -1.9451 -0.1032
  228THF     H6 4897   3.658   4.741   2.605 -0.9959  0.2077  4.0310
  228THF     H7 4898   3.552   4.700   2.718 -0.1243  0.1704  0.2550
  228THF     C8 4899   3.561   4.552   2.555  0.0646 -0.5133  0.3480
  228THF     C9 4900   3.462   4.545   2.435 -0.3952  0.1344 -0.4558
  228THF    H10 4901   3.523   4.487   2.632 -1.8090 -0.7945 -0.8170
  228THF    H11 4902   3.662   4.532   2.534 -2.1278  0.8281  1.2613
  228THF    H12 4903   3.493   4.479   2.353  2.1122 -1.2908 -1.4688
  228THF    H13 4904   3.357   4.516   2.475 -0.8416  0.8451  2.3698
  229THF     O1 4905   1.369   4.643   3.453  0.8235  0.2587 -0.3585
  229THF     C2 4906   1.481   4.681   3.383 -0.7242  0.4105  0.7333
  229THF     C3 4907   1.369   4.495   3.448 -0.1039 -0.0326 -0.3952
  229THF     H4 4908   1.517   4.782   3.409 -1.4104  1.0133 -1.2177
  229THF     H5 4909   1.466   4.689   3.277 -0.9727  0.9813 -2.0981
  229THF     H6 4910   1.301   4.461   3.526 -0.0371  2.9762 -2.6184
  229THF     H7 4911   1.324   4.459   3.356 -1.5204 -1.2124  0.1267
  229THF     C8 4912   1.512   4.457   3.468  0.2088  0.4149 -0.1750
  229THF     C9 4913   1.589   4.581   3.427  0.0648  0.3969 -0.0393
  229THF    H10 4914   1.543   4.380   3.395  1.4931  1.0886  0.2678
  229THF    H11 4915   1.552   4.432   3.568  2.8319 -0.8537  2.7337
  229THF    H12 4916   1.635   4.630   3.511 -2.8988  2.2297  0.9186
  229THF    H13 4917   1.660   4.552   3.346  1.7673  2.4193 -1.1914
  230THF     O1 4918   3.725   0.831   4.216  0.2295  0.6392 -0.0011
  230THF     C2 4919   3.808   0.883   4.115 -0.4832 -0.0611  1.2069
  230THF     C3 4920   3.595   0.847   4.165  0.0558 -0.0500  0.2228
  230THF     H4 4921   3.808   0.805   4.039  0.2219 -0.5221 -0.7848
  230THF     H5 4922   3.905   0.897   4.149  0.0444  0.9749 -0.8167
  230THF     H6 4923   3.572   0.790   4.082 -0.2882 -1.2497 -2.1881
  230THF     H7 4924   3.525   0.828   4.249 -0.0174 -2.3064 -3.0449
  230THF     C8 4925   3.588   0.989   4.113 -0.9020 -0.1758 -0.4766
  230THF     C9 4926   3.729   1.004   4.053 -0.6142  0.7807 -0.1802
  230THF    H10 4927   3.571   1.064   4.193 -0.5326 -2.3236  0.5028
  230THF    H11 4928   3.513   1.006   4.038 -0.9056  0.0155  1.3000
  230THF    H12 4929   3.726   0.995   3.945  1.6030 -0.4528 -1.5411
  230THF    H13 4930   3.773   1.102   4.086  1.3751  0.8507  2.7867
  231THF     O1 4931   4.952   1.591   0.684  0.0726 -0.3321 -0.4393
  231THF     C2 4932   4.848   1.500   0.724  0.2319 -0.5604  0.2928
  231THF     C3 4933   4.939   1.701   0.769  0.5170  0.1855  0.0930
  231THF     H4 4934   4.849   1.400   0.673  0.7297 -3.5504 -0.6147
  231THF     H5 4935   4.748   1.531   0.693 -0.0186  0.2853  1.5495
  231THF     H6 4936   5.019   1.774   0.755  0.1604 -1.9356 -0.6492
  231THF     H7 4937   4.845   1.750   0.757 -1.1779 -0.4838 -0.5019
  231THF     C8 4938   4.945   1.630   0.900  0.3845  1.1523  0.1628
  231THF     C9 4939   4.868   1.505   0.878  0.7118  0.1229  0.1186
  231THF    H10 4940   4.897   1.677   0.982 -2.9636 -0.0400 -0.9929
  231THF    H11 4941   5.046   1.604   0.917 -3.1630  1.2256 -0.2513
  231THF    H12 4942   4.926   1.424   0.925  0.6367 -0.4977  1.1242
  231THF    H13 4943   4.771   1.517   0.923  1.7087 -1.9757 -1.0074
  232THF     O1 4944   3.052   4.761   1.514 -0.3808 -0.4930  0.5783
  232THF     C2 4945   2.954   4.772   1.414  0.2009  0.2083  0.2997
  232THF     C3 4946   2.993   4.807   1.634 -0.1472  0.6059 -0.3267
  232THF     H4 4947   2.899   4.672   1.419  0.1377  0.5265 -0.2331
  232THF     H5 4948   2.995   4.786   1.322 -1.4070 -0.3218 -0.1341
  232THF     H6 4949   2.929   4.723   1.682 -0.7795 -0.5140 -2.7000
  232THF     H7 4950   3.067   4.829   1.708  1.5592  0.3887  1.6360
  232THF     C8 4951   2.900   4.922   1.593  0.2806 -0.0565  0.2397
  232THF     C9 4952   2.872   4.889   1.447  0.1289  0.0643 -0.0971
  232THF    H10 4953   2.953   5.018   1.583 -1.2129 -3.8129 -2.3698
  232THF    H11 4954   2.813   4.927   1.658  1.3295 -1.1741  1.1298
  232THF    H12 4955   2.772   4.855   1.425  1.8501 -1.0341 -0.0916
  232THF    H13 4956   2.891   4.979   1.383  1.3029  2.2712 -1.0828
  233THF     O1 4957   5.374   0.953   2.631 -0.2875 -0.5066  0.3021
  233THF     C2 4958   5.276   0.851   2.665  0.6583  0.3985  0.0232
  233THF     C3 4959   5.499   0.885   2.620 -0.6668  0.2004  0.4775
  233THF     H4 4960   5.248   0.777   2.586 -0.3433  2.4213  1.8190
  233THF     H5 4961   5.185   0.894   2.700 -1.0696  0.3452  0.2843
  233THF     H6 4962   5.485   0.819   2.527 -0.6322 -0.0933 -0.8492
  233THF     H7 4963   5.594   0.940   2.608 -0.6848 -0.9074  1.8346
  233THF     C8 4964   5.497   0.805   2.747  0.7062  0.2484 -0.4704
  233THF     C9 4965   5.346   0.777   2.780  0.1722 -0.2829  0.3843
  233THF    H10 4966   5.554   0.843   2.832  0.8762 -1.3995 -1.0951
  233THF    H11 4967   5.550   0.710   2.741  1.5187  3.1758  0.5775
  233THF    H12 4968   5.329   0.668   2.778 -0.7695 -0.7626  2.0516
  233THF    H13 4969   5.321   0.819   2.877  0.5903 -0.5350 -2.3204
  234THF     O1 4970   2.765   0.067   0.773  0.1279  0.0573  0.2554
  234THF     C2 4971   2.690   0.177   0.816  0.1616  0.1673  0.4511
  234THF     C3 4972   2.736   0.038   0.637 -0.2559  0.3390  0.5250
  234THF     H4 4973   2.753   0.266   0.829 -2.2390 -2.3429 -1.0956
  234THF     H5 4974   2.642   0.151   0.908  1.9851 -0.4945  0.8407
  234THF     H6 4975   2.808   0.098   0.578  0.2243  0.7291 -1.2845
  234THF     H7 4976   2.741  -0.068   0.635 -1.6588  2.3220  1.6962
  234THF     C8 4977   2.588   0.089   0.617 -0.8864 -0.3143 -0.7792
  234THF     C9 4978   2.579   0.205   0.713  0.0607 -0.1250  0.0978
  234THF    H10 4979   2.527   0.002   0.651 -0.2078 -2.5611 -0.8357
  234THF    H11 4980   2.569   0.121   0.522 -1.5239 -0.2336  0.4979
  234THF    H12 4981   2.591   0.304   0.677 -1.4997 -0.3914  0.1329
  234THF    H13 4982   2.484   0.211   0.764 -0.6522  0.2519 -1.1034
  235THF     O1 4983   4.564   4.208   3.543 -0.0580 -0.1859 -0.3833
  235THF     C2 4984   4.467   4.103   3.532  0.2031  0.4582  0.3250
  235THF     C3 4985   4.503   4.327   3.562 -0.2177 -0.1030  0.4889
  235THF     H4 4986   4.504   4.011   3.576  1.9130 -0.5937  1.0248
  235THF     H5 4987   4.449   4.081   3.429  0.7464 -0.1145  1.3192
  235THF     H6 4988   4.567   4.401   3.605 -3.2152 -0.6394 -1.4611
  235THF     H7 4989   4.479   4.355   3.462  0.7114  1.5667 -1.4253
  235THF     C8 4990   4.385   4.294   3.659 -0.3873  1.0195  0.7251
  235THF     C9 4991   4.345   4.164   3.607 -0.0623 -0.5766 -0.4926
  235THF    H10 4992   4.295   4.360   3.646 -1.4908 -1.7519  0.8050
  235THF    H11 4993   4.416   4.298   3.760  0.9861 -2.3457 -1.3642
  235THF    H12 4994   4.299   4.097   3.681  0.1469 -3.2074  3.1069
  235THF    H13 4995   4.267   4.180   3.526 -0.0458  1.1944 -1.2550
  236THF     O1 4996   4.191   5.119   3.469  0.2968  0.4813 -0.4152
  236THF     C2 4997   4.322   5.163   3.498  0.1822 -0.2248 -1.4923
  236THF     C3 4998   4.195   5.016   3.369 -0.2614  0.2396  0.3393
  236THF     H4 4999   4.323   5.223   3.591 -3.9873  0.9124  3.1669
  236THF     H5 5000   4.357   5.235   3.427 -0.8348  1.0581  1.8554
  236THF     H6 5001   4.096   4.974   3.370 -3.8642 -1.5979  0.6839
  236THF     H7 5002   4.218   5.053   3.264  0.8899 -1.8193 -1.8833
  236THF     C8 5003   4.314   4.936   3.414 -0.0409 -0.1688 -0.8373
  236THF     C9 5004   4.398   5.027   3.502  1.4726 -0.7372 -0.2666
  236THF    H10 5005   4.368   4.894   3.324 -0.4661  0.1227 -3.8031
  236THF    H11 5006   4.273   4.845   3.457  0.1576  0.1640 -1.4259
  236THF    H12 5007   4.389   4.985   3.602  0.7035 -0.5300  1.0389
  236THF    H13 5008   4.507   5.029   3.477 -1.1033  0.8632 -3.8579
  237THF     O1 5009   3.207   4.076   0.183 -0.2530  0.0284  0.1935
  237THF     C2 5010   3.264   4.196   0.131  0.1859  0.2728 -0.5333
  237THF     C3 5011   3.294   4.020   0.280 -0.5057  0.1392  0.6323
  237THF     H4 5012   3.186   4.249   0.068 -4.3182 -1.7562 -0.7146
  237THF     H5 5013   3.346   4.164   0.079  0.6356  2.5775 -0.9766
  237THF     H6 5014   3.253   3.949   0.349 -0.6398  1.0707  0.3573
  237THF     H7 5015   3.376   3.958   0.231  1.7319 -0.4942 -1.5353
  237THF     C8 5016   3.359   4.144   0.344  0.1894 -0.3654 -0.8653
  237THF     C9 5017   3.305   4.263   0.264 -0.4038 -0.1758 -0.8982
  237THF    H10 5018   3.463   4.139   0.333 -1.5279  0.6392 -1.4496
  237THF    H11 5019   3.331   4.165   0.448 -0.2657  0.0297 -1.1273
  237THF    H12 5020   3.216   4.307   0.308  0.5609  2.3141  1.8963
  237THF    H13 5021   3.374   4.350   0.249 -1.0424  1.7144  1.5284
  238THF     O1 5022   0.617   3.446   3.363  0.1294 -0.0784  0.9352
  238THF     C2 5023   0.693   3.458   3.247  0.3384 -0.0158  0.2720
  238THF     C3 5024   0.488   3.414   3.326  0.1053 -0.0450  0.6198
  238THF     H4 5025   0.794   3.467   3.272 -0.6747  0.5101 -0.4351
  238THF     H5 5026   0.656   3.546   3.194  0.2551 -3.0667  1.4734
  238THF     H6 5027   0.424   3.380   3.414 -1.2490 -0.6352 -2.9319
  238THF     H7 5028   0.452   3.508   3.275 -1.9933  2.4339  1.2300
  238THF     C8 5029   0.513   3.313   3.213  0.4481 -0.4521 -0.1512
  238THF     C9 5030   0.659   3.333   3.173 -0.8101 -0.4301 -0.8592
  238THF    H10 5031   0.443   3.330   3.133  0.8532 -1.0412  1.0546
  238THF    H11 5032   0.505   3.211   3.250  3.4808 -0.2572 -0.6066
  238THF    H12 5033   0.708   3.246   3.212  1.0413  0.3239 -0.7164
  238THF    H13 5034   0.667   3.348   3.064  0.2915  0.8151 -1.3525
  239THF     O1 5035   5.445   3.067   2.479  0.3112 -0.7019 -0.0557
  239THF     C2 5036   5.419   3.094   2.337 -0.3246 -0.1784  0.0266
  239THF     C3 5037   5.559   3.135   2.534 -0.2388 -0.5637  0.6170
  239THF     H4 5038   5.313   3.110   2.303  0.1464 -0.0446 -1.5495
  239THF     H5 5039   5.470   3.019   2.273 -0.5656  2.7533  1.2817
  239THF     H6 5040   5.521   3.213   2.589 -1.8438 -0.0412 -1.7969
  239THF     H7 5041   5.622   3.074   2.599 -0.4291 -0.3312  0.0441
  239THF     C8 5042   5.625   3.196   2.416 -1.0421  0.9992  1.4777
  239THF     C9 5043   5.501   3.221   2.331  0.4000  0.4822 -0.4843
  239THF    H10 5044   5.699   3.132   2.365  0.3193 -0.6206 -0.4968
  239THF    H11 5045   5.665   3.288   2.449 -1.2473  0.3890 -0.1658
  239THF    H12 5046   5.444   3.311   2.363  0.1980  1.2600 -1.8312
  239THF    H13 5047   5.539   3.236   2.226 -0.6516 -0.0211 -2.2222
  240THF     O1 5048   5.077   1.210   0.093  0.5581 -0.3388  0.0824
  240THF     C2 5049   5.063   1.086   0.026  0.0764 -0.2414  0.1712
  240THF     C3 5050   5.125   1.186   0.227 -0.1577 -0.0575 -0.7379
  240THF     H4 5051   5.157   1.047  -0.013 -1.6377  1.6381 -1.2309
  240THF     H5 5052   4.980   1.089  -0.051 -0.8260 -1.1695 -1.0500
  240THF     H6 5053   5.228   1.219   0.246 -0.0218  0.3685 -1.7383
  240THF     H7 5054   5.047   1.230   0.282 -0.9693 -0.0026  0.0440
  240THF     C8 5055   5.119   1.037   0.238 -0.6833  0.0742 -0.0913
  240THF     C9 5056   5.017   0.996   0.139  0.2547  0.4607 -0.0691
  240THF    H10 5057   5.098   0.994   0.345  1.1248 -3.3510  1.3077
  240THF    H11 5058   5.220   0.997   0.212 -1.5342 -1.3783 -1.6913
  240THF    H12 5059   5.024   0.889   0.107 -0.0588 -0.8619 -1.2030
  240THF    H13 5060   4.918   1.022   0.175  0.2558 -2.3321  1.2265
  241THF     O1 5061   2.946   2.331   3.559 -0.3320 -0.5664  0.2571
  241THF     C2 5062   2.995   2.224   3.641  0.0109 -0.7948  0.1140
  241THF     C3 5063   2.882   2.270   3.449  0.2921 -0.5557  0.3613
  241THF     H4 5064   2.921   2.200   3.722 -2.8537  2.7807  0.1211
  241THF     H5 5065   3.095   2.250   3.671 -1.4760 -1.2754  1.7730
  241THF     H6 5066   2.788   2.239   3.491  1.3660  1.3354 -3.1843
  241THF     H7 5067   2.863   2.336   3.367  3.1176  1.2805  0.4712
  241THF     C8 5068   2.978   2.160   3.407 -0.2093 -0.8313 -0.1074
  241THF     C9 5069   3.014   2.101   3.546 -0.3837  0.0073 -0.4270
  241THF    H10 5070   3.070   2.209   3.362 -0.0028 -0.5680 -1.7099
  241THF    H11 5071   2.936   2.088   3.340 -0.3459  2.2214 -0.5154
  241THF    H12 5072   2.946   2.027   3.575  1.0621  3.5093 -2.4436
  241THF    H13 5073   3.117   2.070   3.547 -1.6740 -0.0559  0.9455
  242THF     O1 5074   2.024   5.069   2.007  0.1063 -0.1388  1.0591
  242THF     C2 5075   2.127   5.157   2.036 -0.0273 -1.0265  0.0062
  242THF     C3 5076   2.027   4.982   2.123 -0.0803  0.3298  0.5639
  242THF     H4 5077   2.113   5.239   1.964  0.6213  0.8862  0.0978
  242THF     H5 5078   2.224   5.109   2.021 -0.9660 -3.2781  1.9022
  242THF     H6 5079   1.939   4.912   2.124 -0.7549 -1.3509  2.5162
  242THF     H7 5080   2.115   4.921   2.113 -3.2735  0.8285 -1.8214
  242THF     C8 5081   2.027   5.074   2.244  0.4567 -0.3186 -1.0002
  242THF     C9 5082   2.105   5.196   2.187  0.2845  0.2758 -0.1957
  242THF    H10 5083   2.068   5.030   2.329  1.1293 -1.9504 -0.4476
  242THF    H11 5084   1.921   5.092   2.266 -1.5517 -1.3176 -0.9276
  242THF    H12 5085   2.039   5.284   2.202 -0.5813  1.0728 -0.1437
  242THF    H13 5086   2.202   5.215   2.235  0.8560 -0.6774 -1.3546
  243THF     O1 5087   4.939   3.844   2.649 -0.0783  0.1351  0.4169
  243THF     C2 5088   4.838   3.912   2.728 -0.3551  0.2461  0.0883
  243THF     C3 5089   5.063   3.882   2.715  0.4213 -0.0430  0.2559
  243THF     H4 5090   4.826   3.859   2.820  1.1475 -1.9473 -0.0157
  243THF     H5 5091   4.737   3.910   2.678 -1.0860 -0.2112  3.2092
  243THF     H6 5092   5.061   3.833   2.813 -0.0543  0.7536  3.3117
  243THF     H7 5093   5.144   3.834   2.657 -0.8510 -2.2592 -1.8171
  243THF     C8 5094   5.056   4.024   2.722  0.3700 -0.2104  0.1666
  243THF     C9 5095   4.902   4.048   2.744  0.5705 -0.2471 -0.4437
  243THF    H10 5096   5.096   4.075   2.637 -0.3013 -0.2491  2.0410
  243THF    H11 5097   5.117   4.070   2.804 -0.3547 -2.3321  0.0921
  243THF    H12 5098   4.880   4.082   2.843 -1.8786 -0.7701 -2.1448
  243THF    H13 5099   4.854   4.123   2.672 -1.2718 -0.7558 -0.5174
  244THF     O1 5100   3.111   1.183   2.941  0.4502  0.0193 -0.3508
  244THF     C2 5101   3.117   1.324   2.909  0.0551  1.0469 -0.1603
  244THF     C3 5102   3.131   1.174   3.082 -0.3015 -0.4853  0.1059
  244THF     H4 5103   3.029   1.377   2.945  0.3922  0.1611  1.0126
  244THF     H5 5104   3.119   1.338   2.801 -0.3294  1.6553  2.2614
  244THF     H6 5105   3.047   1.219   3.124 -1.0955  0.2322 -0.6585
  244THF     H7 5106   3.141   1.074   3.124  0.7545  1.1114 -0.3512
  244THF     C8 5107   3.262   1.259   3.096 -0.0122  0.3300 -0.0668
  244THF     C9 5108   3.236   1.374   2.989 -0.3359 -0.4765  0.4575
  244THF    H10 5109   3.344   1.191   3.064  0.3573 -1.6004 -3.0483
  244THF    H11 5110   3.269   1.296   3.200  0.8353  2.1580  0.8696
  244THF    H12 5111   3.218   1.473   3.036  0.2976  0.1077 -1.5395
  244THF    H13 5112   3.329   1.383   2.926  2.3914  1.4326  2.6500
  245THF     O1 5113   1.079   1.970   0.937  0.3016  0.5013  0.0096
  245THF     C2 5114   1.016   1.859   1.004 -0.0985  0.5356  0.0905
  245THF     C3 5115   1.154   2.030   1.034 -0.0542  0.3664 -0.5204
  245THF     H4 5116   0.974   1.802   0.918  0.2937  1.0495 -0.2311
  245THF     H5 5117   0.937   1.897   1.065  1.4031 -2.9581  1.7367
  245THF     H6 5118   1.232   2.099   1.000 -0.7367  1.2319  1.4755
  245THF     H7 5119   1.101   2.095   1.101 -0.0842 -1.4713 -1.3865
  245THF     C8 5120   1.228   1.906   1.084  0.2454 -0.5239 -0.1918
  245THF     C9 5121   1.133   1.796   1.075 -0.9470 -0.9049  0.1118
  245THF    H10 5122   1.272   1.919   1.189 -0.0965  2.7103  0.0773
  245THF    H11 5123   1.304   1.890   1.015 -1.7349 -1.1125  0.7276
  245THF    H12 5124   1.178   1.722   1.002  1.4436  0.7149  0.7520
  245THF    H13 5125   1.106   1.747   1.166  2.5851  0.0352  1.7160
  246THF     O1 5126   1.471   1.181   5.200  0.1547 -0.2159 -0.1169
  246THF     C2 5127   1.570   1.252   5.273 -0.5417  0.3718  0.8812
  246THF     C3 5128   1.402   1.284   5.133 -0.2331 -0.1991  0.5386
  246THF     H4 5129   1.643   1.184   5.305  0.0276 -2.1362  0.5065
  246THF     H5 5130   1.525   1.293   5.363  0.7523 -0.4858  0.4812
  246THF     H6 5131   1.334   1.227   5.064  1.0423 -0.7227 -1.3819
  246THF     H7 5132   1.332   1.351   5.185  3.2227  1.3001  0.6239
  246THF     C8 5133   1.513   1.374   5.069 -0.2112  0.0945 -0.1470
  246THF     C9 5134   1.617   1.374   5.189 -0.1699 -0.4294 -0.1941
  246THF    H10 5135   1.480   1.467   5.044 -0.9578  0.3244 -0.0976
  246THF    H11 5136   1.550   1.321   4.984 -0.2680  1.7512 -2.2775
  246THF    H12 5137   1.722   1.379   5.166 -2.2996  2.0164 -2.0000
  246THF    H13 5138   1.605   1.468   5.246  2.3606 -0.7670  1.3294
  247THF     O1 5139   4.494   5.233   3.020  0.2772 -0.1609  0.4200
  247THF     C2 5140   4.501   5.241   3.167  0.1542 -0.8101  0.0902
  247THF     C3 5141   4.606   5.153   2.973  0.1877  0.1560 -0.6410
  247THF     H4 5142   4.414   5.223   3.229  2.7001 -1.3988 -0.5294
  247THF     H5 5143   4.537   5.343   3.190  1.6727 -2.1341  2.5078
  247THF     H6 5144   4.584   5.057   2.928  0.4498  1.5827 -3.8476
  247THF     H7 5145   4.663   5.216   2.899  0.7236 -1.4451  0.9460
  247THF     C8 5146   4.703   5.143   3.097  0.1186 -0.7244  0.4485
  247THF     C9 5147   4.611   5.146   3.211 -0.2462 -0.1798 -0.1858
  247THF    H10 5148   4.770   5.225   3.080 -0.5490  0.0744  1.5164
  247THF    H11 5149   4.762   5.053   3.100  1.3896 -1.5397  0.5663
  247THF    H12 5150   4.568   5.047   3.242 -0.3652  1.7923  1.9604
  247THF    H13 5151   4.651   5.183   3.304  0.2327  1.1546 -1.4600
  248THF     O1 5152   5.453   0.505   5.461  0.4307  0.2322 -0.0138
  248THF     C2 5153   5.378   0.560   5.566 -0.4432  0.4498 -0.3431
  248THF     C3 5154   5.415   0.561   5.332 -0.0628 -0.0521  0.5475
  248THF     H4 5155   5.438   0.578   5.650 -1.3973 -1.6566 -3.5700
  248THF     H5 5156   5.304   0.492   5.596 -2.3870  1.5680 -0.2324
  248THF     H6 5157   5.503   0.613   5.302 -0.4523 -0.8140 -1.8172
  248THF     H7 5158   5.390   0.490   5.250 -0.4678 -0.3434 -3.4082
  248THF     C8 5159   5.296   0.650   5.370 -0.1708  0.2957 -0.3332
  248THF     C9 5160   5.318   0.684   5.516  0.5191  0.0781  0.0886
  248THF    H10 5161   5.200   0.602   5.348  1.6727 -0.1840  2.0410
  248THF    H11 5162   5.296   0.748   5.322 -1.5996 -0.1183  0.7353
  248THF    H12 5163   5.384   0.773   5.533  1.5842  1.3084  0.7958
  248THF    H13 5164   5.223   0.709   5.566  0.4941 -1.6545 -1.1950
  249THF     O1 5165   1.426   0.313   4.486  0.2270  0.0688  0.0710
  249THF     C2 5166   1.512   0.300   4.378 -0.4449  0.2389  0.6100
  249THF     C3 5167   1.465   0.226   4.589  0.6449  0.3586  1.1140
  249THF     H4 5168   1.608   0.362   4.382  1.8884 -1.3410 -2.1735
  249THF     H5 5169   1.463   0.327   4.286  0.1518  1.9897  0.7181
  249THF     H6 5170   1.505   0.290   4.672  1.9681 -0.4157  1.2413
  249THF     H7 5171   1.374   0.167   4.619  1.5183 -0.1857 -3.0759
  249THF     C8 5172   1.569   0.134   4.531  0.3878  0.7878  0.4805
  249THF     C9 5173   1.550   0.148   4.378  0.2611  0.1979  0.4234
  249THF    H10 5174   1.566   0.026   4.556 -2.0353 -0.7597 -2.4906
  249THF    H11 5175   1.669   0.174   4.552  0.3709  2.5097  0.6421
  249THF    H12 5176   1.629   0.121   4.313 -2.4501  0.3638 -0.7537
  249THF    H13 5177   1.462   0.090   4.348  2.5150 -0.5995 -0.6638
  250THF     O1 5178   4.508   4.495   0.343 -0.1766 -0.1442 -0.5768
  250THF     C2 5179   4.413   4.396   0.368 -0.0787 -0.0750  0.3383
  250THF     C3 5180   4.505   4.589   0.452 -0.2447  0.4312  0.1656
  250THF     H4 5181   4.477   4.305   0.391 -0.2153 -1.7075 -0.4900
  250THF     H5 5182   4.343   4.377   0.280  0.0978  1.1935 -0.0876
  250THF     H6 5183   4.604   4.624   0.466 -1.5103  0.3057  1.1000
  250THF     H7 5184   4.440   4.671   0.433 -1.4386 -0.4573 -1.3574
  250THF     C8 5185   4.445   4.513   0.566  0.7256  0.5299  0.3763
  250THF     C9 5186   4.340   4.433   0.492  0.5911 -0.6525 -0.4031
  250THF    H10 5187   4.406   4.573   0.644 -3.8210  1.3999 -1.6474
  250THF    H11 5188   4.512   4.446   0.620 -1.1466 -1.5083  0.7946
  250THF    H12 5189   4.296   4.341   0.529  0.7739 -1.7634  0.0424
  250THF    H13 5190   4.252   4.491   0.462  0.3152  0.9016  2.1732
  251THF     O1 5191   5.434   1.712   4.382 -0.0995 -0.4549 -0.6204
  251THF     C2 5192   5.426   1.754   4.249  0.4405  0.2598 -0.2076
  251THF     C3 5193   5.304   1.651   4.412 -0.2566  0.5391  0.7000
  251THF     H4 5194   5.441   1.667   4.186  0.9186  1.7899 -1.1157
  251THF     H5 5195   5.502   1.826   4.218  1.0552 -1.3267 -1.1613
  251THF     H6 5196   5.319   1.547   4.410 -0.3279 -0.6351 -1.9473
  251THF     H7 5197   5.272   1.681   4.509 -3.3057 -1.2400 -1.7200
  251THF     C8 5198   5.208   1.698   4.300  0.5571  0.4455 -0.7003
  251THF     C9 5199   5.284   1.812   4.235  0.5919  0.3458 -0.5140
  251THF    H10 5200   5.104   1.721   4.342 -0.7610  0.5720 -0.8632
  251THF    H11 5201   5.189   1.618   4.226  0.3828  1.1246  0.2137
  251THF    H12 5202   5.268   1.821   4.129  1.3019 -2.4708  0.9597
  251THF    H13 5203   5.265   1.907   4.281 -0.4629  0.1537 -0.0660
  252THF     O1 5204   3.241   3.541   1.914  0.2810  0.3310 -0.0246
  252THF     C2 5205   3.134   3.455   1.945 -0.0675  0.2826 -0.6898
  252THF     C3 5206   3.364   3.489   1.947 -0.1084  0.1353  0.2437
  252THF     H4 5207   3.124   3.374   1.874 -0.4528  1.1818  0.6936
  252THF     H5 5208   3.044   3.513   1.956  0.3648  1.5520  3.0485
  252THF     H6 5209   3.402   3.412   1.875 -0.0750 -1.1725  0.4987
  252THF     H7 5210   3.445   3.551   1.955  0.4463 -1.2259  0.7978
  252THF     C8 5211   3.332   3.413   2.079  0.6750 -1.0343 -0.6724
  252THF     C9 5212   3.175   3.411   2.085  0.6784  0.0940  0.1121
  252THF    H10 5213   3.370   3.472   2.166 -0.8699  1.7815  0.0185
  252THF    H11 5214   3.380   3.316   2.080  0.8672  2.2658 -1.4617
  252THF    H12 5215   3.147   3.299   2.098 -2.5296 -1.2425  0.3434
  252THF    H13 5216   3.124   3.461   2.160 -1.2658 -1.4982 -0.8366
  253THF     O1 5217   5.416   3.594   5.002  0.6252  0.1073 -0.3309
  253THF     C2 5218   5.554   3.559   5.004 -0.5938  0.1532 -0.4880
  253THF     C3 5219   5.350   3.553   5.125  0.4579 -0.4320 -0.2516
  253THF     H4 5220   5.607   3.652   4.984 -0.2361  1.2747  0.1117
  253THF     H5 5221   5.569   3.492   4.920 -0.2121 -0.8743 -4.2380
  253THF     H6 5222   5.266   3.612   5.161 -1.4581 -0.9177 -0.5870
  253THF     H7 5223   5.297   3.458   5.119 -1.8593 -1.3329  0.5351
  253THF     C8 5224   5.473   3.531   5.223  0.0607 -0.2258 -0.6437
  253THF     C9 5225   5.584   3.488   5.136  0.2360  0.4320  0.0428
  253THF    H10 5226   5.443   3.444   5.289  0.1181  1.8854 -1.0049
  253THF    H11 5227   5.483   3.620   5.283  0.0889 -0.0136  2.7698
  253THF    H12 5228   5.684   3.509   5.175 -0.1438 -2.3232  0.0740
  253THF    H13 5229   5.578   3.383   5.127  0.2915  0.3166 -1.1822
  254THF     O1 5230   1.291   1.567   1.239  0.2080 -0.2579 -0.4741
  254THF     C2 5231   1.251   1.428   1.265 -0.2353  0.0166 -0.4245
  254THF     C3 5232   1.429   1.579   1.263 -0.4316  0.4504  0.0401
  254THF     H4 5233   1.254   1.380   1.168  0.4297  2.6111  0.1459
  254THF     H5 5234   1.155   1.424   1.299  0.3278  0.1964  1.9333
  254THF     H6 5235   1.469   1.540   1.169  0.8963  3.2256 -0.4271
  254THF     H7 5236   1.462   1.682   1.278  0.3583 -0.9678 -0.6721
  254THF     C8 5237   1.442   1.487   1.383  0.1753 -0.0366 -0.0611
  254THF     C9 5238   1.346   1.377   1.366  0.4455  0.5117  0.4887
  254THF    H10 5239   1.413   1.534   1.480  0.4071 -1.8978  1.0126
  254THF    H11 5240   1.538   1.454   1.391  1.4744  0.1153 -0.8666
  254THF    H12 5241   1.379   1.280   1.348 -5.6606  1.1238 -0.4836
  254THF    H13 5242   1.289   1.370   1.459  4.5077 -0.1301  0.1333
  255THF     O1 5243   5.401   0.076   0.547  0.0038 -0.6665  0.5139
  255THF     C2 5244   5.432   0.044   0.407 -0.2069 -0.3894 -0.7142
  255THF     C3 5245   5.360   0.210   0.562 -0.8090 -0.1850  0.4802
  255THF     H4 5246   5.346   0.023   0.353  2.8733  2.2247  0.4566
  255THF     H5 5247   5.500  -0.045   0.413 -1.7953 -1.3733  1.6552
  255THF     H6 5248   5.258   0.219   0.574  0.8288  1.6320 -0.4577
  255THF     H7 5249   5.398   0.250   0.654 -0.4160  1.1251  1.6970
  255THF     C8 5250   5.411   0.283   0.436 -0.0833 -0.1047  0.4100
  255THF     C9 5251   5.495   0.181   0.364 -0.1066  0.7753 -0.1988
  255THF    H10 5252   5.469   0.365   0.475  0.5385  1.8627  2.1724
  255THF    H11 5253   5.335   0.337   0.376  0.3793  2.0918 -1.7416
  255THF    H12 5254   5.486   0.183   0.259 -0.1621  1.7978 -1.0053
  255THF    H13 5255   5.592   0.187   0.394  1.2334 -0.7407 -1.5326
  256THF     O1 5256   2.774   3.656   3.638 -0.1221 -0.4557  0.2205
  256THF     C2 5257   2.815   3.550   3.719  0.7526 -0.1262 -0.7136
  256THF     C3 5258   2.807   3.637   3.499  0.6141  0.6001 -0.2576
  256THF     H4 5259   2.735   3.505   3.779 -0.0673 -0.5064 -1.7637
  256THF     H5 5260   2.889   3.597   3.788  0.8226 -0.3575  2.3686
  256THF     H6 5261   2.724   3.600   3.444 -1.2872  4.3755 -1.1319
  256THF     H7 5262   2.831   3.731   3.455 -0.8827  0.5576 -1.4106
  256THF     C8 5263   2.911   3.531   3.502  0.6663  0.8611 -0.1020
  256THF     C9 5264   2.877   3.446   3.620 -0.1420 -0.2154 -0.2471
  256THF    H10 5265   3.005   3.587   3.509  1.4213  3.0449  1.5048
  256THF    H11 5266   2.893   3.468   3.414 -0.3083  0.7531  0.2465
  256THF    H12 5267   2.797   3.371   3.604  2.8602 -1.8830 -0.4662
  256THF    H13 5268   2.971   3.397   3.651 -1.8949 -0.5134  1.2222
  257THF     O1 5269   3.494   2.829   4.261  0.1053 -0.8303  0.4280
  257THF     C2 5270   3.576   2.820   4.140 -0.0880 -0.1672 -0.0850
  257THF     C3 5271   3.386   2.927   4.241  0.2057  0.5230 -0.5209
  257THF     H4 5272   3.606   2.726   4.105  0.6299  0.5298  1.6376
  257THF     H5 5273   3.672   2.868   4.170 -2.8120  2.2773 -1.7899
  257THF     H6 5274   3.295   2.872   4.218 -0.5286 -0.0401 -2.1798
  257THF     H7 5275   3.365   2.983   4.332 -2.5220 -0.4546 -0.0299
  257THF     C8 5276   3.417   3.012   4.117 -0.4427 -0.2128  0.3190
  257THF     C9 5277   3.516   2.919   4.037  0.9391  0.4798 -0.7002
  257THF    H10 5278   3.467   3.104   4.138 -1.6579  2.3898 -0.7002
  257THF    H11 5279   3.332   3.040   4.057 -1.6539  2.7660 -1.4902
  257THF    H12 5280   3.454   2.875   3.955 -1.5332  4.4901 -3.0371
  257THF    H13 5281   3.596   2.981   3.994  3.2730  0.0906  1.3495
  258THF     O1 5282   4.351   0.022   0.983 -0.2825  0.3478 -0.7880
  258THF     C2 5283   4.415   0.103   1.080 -0.5316 -0.1493  0.0378
  258THF     C3 5284   4.255  -0.059   1.056  1.0973  0.3950  0.5512
  258THF     H4 5285   4.356   0.198   1.090 -0.2716  3.5014 -1.2488
  258THF     H5 5286   4.511   0.126   1.038 -1.3792  2.0319 -1.2027
  258THF     H6 5287   4.161  -0.007   1.035  2.2066  0.3410  1.5070
  258THF     H7 5288   4.252  -0.161   1.012 -1.9977 -0.8649  1.8641
  258THF     C8 5289   4.286  -0.054   1.209 -0.3598 -0.3683 -0.2740
  258THF     C9 5290   4.421   0.020   1.210  0.1891  0.0934  1.3212
  258THF    H10 5291   4.279  -0.153   1.257 -0.6628  0.5659 -0.3576
  258THF    H11 5292   4.210   0.006   1.259  0.5900  0.4282  0.5489
  258THF    H12 5293   4.436   0.078   1.298  1.1077 -2.4782 -0.4577
  258THF    H13 5294   4.506  -0.050   1.197  1.4269  0.1579  0.8617
  259THF     O1 5295   5.021   0.325   3.316 -0.0942 -0.1487 -0.1582
  259THF     C2 5296   4.942   0.361   3.429 -0.2398  0.3283 -0.6908
  259THF     C3 5297   5.016   0.177   3.322 -1.4168  0.2210  0.6139
  259THF     H4 5298   4.921   0.475   3.430  0.4261  2.3444  3.3178
  259THF     H5 5299   4.986   0.343   3.527 -1.5246  0.8629 -0.7385
  259THF     H6 5300   5.052   0.132   3.228  2.5894  0.1410  0.0729
  259THF     H7 5301   5.084   0.132   3.398 -0.0327 -0.6719  1.5958
  259THF     C8 5302   4.876   0.137   3.363  0.4586 -0.4077 -0.3279
  259THF     C9 5303   4.826   0.268   3.417  0.2620 -0.2052 -0.7912
  259THF    H10 5304   4.873   0.053   3.440  1.5399 -0.6995  0.6981
  259THF    H11 5305   4.818   0.103   3.275 -0.9330 -2.4698 -1.8807
  259THF    H12 5306   4.748   0.303   3.349  0.3959 -0.1907  2.5294
  259THF    H13 5307   4.776   0.271   3.514 -0.9906  0.8368  1.7414
  260THF     O1 5308   1.164   3.158   5.275  0.4981 -0.0746  0.9108
  260THF     C2 5309   1.047   3.083   5.248  0.0462  0.1307  0.1853
  260THF     C3 5310   1.169   3.249   5.165  0.7067  0.1794 -1.0874
  260THF     H4 5311   1.028   3.041   5.348  1.7526  1.7892 -1.4351
  260THF     H5 5312   1.061   2.993   5.181 -2.8627 -0.6118 -1.0764
  260THF     H6 5313   1.223   3.329   5.212  0.9852 -1.2662  0.7646
  260THF     H7 5314   1.214   3.200   5.082  0.0697  2.0459  1.0077
  260THF     C8 5315   1.024   3.279   5.126  0.4440 -0.1656  0.0298
  260THF     C9 5316   0.944   3.176   5.201 -0.1668 -0.4453 -0.1476
  260THF    H10 5317   1.014   3.260   5.014 -1.7139  0.8941 -1.2307
  260THF    H11 5318   0.992   3.377   5.153  1.0423  2.6075 -1.2912
  260THF    H12 5319   0.893   3.231   5.277  1.8930  0.3924 -0.1912
  260THF    H13 5320   0.887   3.118   5.125 -0.8265  1.9597 -0.8404
  261THF     O1 5321   4.784   5.469   4.898 -0.4138  0.1328  0.3613
  261THF     C2 5322   4.749   5.465   5.032  0.2027  0.4180 -0.4381
  261THF     C3 5323   4.897   5.554   4.880  0.2576 -0.2412  0.2309
  261THF     H4 5324   4.692   5.380   5.055 -0.4841  0.2451 -1.7864
  261THF     H5 5325   4.689   5.555   5.058 -2.2021  0.1644 -2.4407
  261THF     H6 5326   4.965   5.522   4.802 -0.4291  2.2432  0.9961
  261THF     H7 5327   4.850   5.649   4.855 -1.2051 -1.9503  0.0865
  261THF     C8 5328   4.974   5.558   5.009 -0.3286 -0.3710  0.7763
  261THF     C9 5329   4.882   5.486   5.112 -0.5441  0.0013 -0.2621
  261THF    H10 5330   5.003   5.658   5.039 -2.1534 -0.0820 -0.3076
  261THF    H11 5331   5.057   5.497   4.998 -0.0564  3.1006 -0.9559
  261THF    H12 5332   4.931   5.395   5.131 -0.6959  0.8851  0.2043
  261THF    H13 5333   4.876   5.535   5.209  1.1398 -1.4552 -0.3819
  262THF     O1 5334   4.408   3.250   2.882 -0.2485 -0.2864  0.1103
  262THF     C2 5335   4.376   3.179   2.770  0.2589 -0.6736  0.0851
  262THF     C3 5336   4.342   3.201   2.992  0.2572 -0.3389 -0.4008
  262THF     H4 5337   4.434   3.089   2.784  0.6854 -0.7991  1.4259
  262THF     H5 5338   4.404   3.237   2.679  1.9624 -1.1318  0.4989
  262THF     H6 5339   4.397   3.122   3.046  1.4032 -0.7561  1.7545
  262THF     H7 5340   4.314   3.279   3.057  0.5699 -1.9653 -0.3044
  262THF     C8 5341   4.226   3.111   2.930  0.3099 -0.2779 -0.6440
  262THF     C9 5342   4.234   3.135   2.780  0.0910  0.0830 -1.0132
  262THF    H10 5343   4.126   3.146   2.959 -1.1169  1.4990  1.4114
  262THF    H11 5344   4.229   3.008   2.944  1.4741  1.1540 -0.3290
  262THF    H12 5345   4.210   3.056   2.715 -3.0466 -1.6098  1.0888
  262THF    H13 5346   4.165   3.219   2.748 -0.9797 -0.4860 -2.8700
  263THF     O1 5347   3.487   2.380   4.953  0.4460  0.7641 -0.5259
  263THF     C2 5348   3.617   2.318   4.955 -0.2899 -0.1246 -0.9255
  263THF     C3 5349   3.416   2.321   4.850  0.2278  0.3407 -0.1193
  263THF     H4 5350   3.663   2.332   5.052 -0.8061  0.7852 -1.5851
  263THF     H5 5351   3.670   2.371   4.874  1.6169 -1.3724  0.0857
  263THF     H6 5352   3.311   2.356   4.873  2.3682  1.1796  1.4769
  263THF     H7 5353   3.444   2.373   4.762 -1.6962  0.9792  1.3525
  263THF     C8 5354   3.444   2.175   4.868 -0.1230 -0.0721 -0.8100
  263THF     C9 5355   3.580   2.175   4.928  0.3472 -0.1436 -0.7941
  263THF    H10 5356   3.418   2.114   4.780 -0.5327  0.8277 -1.1573
  263THF    H11 5357   3.381   2.129   4.949 -0.1653 -0.7013 -0.8243
  263THF    H12 5358   3.586   2.116   5.022 -1.7943  0.0582 -1.1798
  263THF    H13 5359   3.656   2.126   4.866  1.8007  0.4847  1.0101
  264THF     O1 5360   1.081   5.030   4.165  0.4587  0.0837  0.0293
  264THF     C2 5361   1.181   5.077   4.072 -0.8344 -0.2440 -0.5049
  264THF     C3 5362   1.097   5.103   4.281 -0.7430 -0.4838  1.0719
  264THF     H4 5363   1.149   5.168   4.030 -0.5879 -3.3933 -2.2080
  264THF     H5 5364   1.199   5.009   3.989  1.7408  0.8982  1.1331
  264THF     H6 5365   1.072   5.206   4.257  2.2256  2.2779 -0.3893
  264THF     H7 5366   1.046   5.053   4.370 -2.5392 -0.0467 -3.1764
  264THF     C8 5367   1.254   5.109   4.299  0.1838 -0.5677  0.5980
  264THF     C9 5368   1.303   5.098   4.157  0.0643  0.6028 -0.1425
  264THF    H10 5369   1.299   5.021   4.347  0.4944  0.1298 -3.1652
  264THF    H11 5370   1.285   5.195   4.353 -0.1916 -0.5463  0.0953
  264THF    H12 5371   1.368   5.185   4.140  1.4305  1.1613  0.7883
  264THF    H13 5372   1.358   5.003   4.136 -0.3913 -0.5285  0.1489
  265THF     O1 5373   5.329   2.920   4.289 -0.0020  0.1189  0.4509
  265THF     C2 5374   5.321   2.825   4.189 -0.2452  0.4769 -0.0911
  265THF     C3 5375   5.404   3.029   4.237 -0.1056 -0.0063 -0.5075
  265THF     H4 5376   5.242   2.743   4.197 -1.0078 -1.2134  1.9264
  265THF     H5 5377   5.415   2.770   4.193  0.7257 -0.5828 -0.2813
  265THF     H6 5378   5.398   3.112   4.307 -0.6336 -1.1740  1.8388
  265THF     H7 5379   5.509   3.000   4.231  0.5106 -0.9902 -0.9096
  265THF     C8 5380   5.355   3.038   4.089  0.6891 -0.2660  0.0276
  265THF     C9 5381   5.311   2.894   4.059  0.5224  0.2516 -0.4788
  265THF    H10 5382   5.423   3.092   4.025  0.4779  1.4844  1.8250
  265THF    H11 5383   5.265   3.097   4.082 -0.5021 -0.4919  0.1655
  265THF    H12 5384   5.210   2.891   4.016 -0.6303 -2.7728 -0.6621
  265THF    H13 5385   5.375   2.867   3.974  0.1509  1.2473  1.6748
  266THF     O1 5386   2.652   3.262   4.101 -0.5753  0.4059 -0.0142
  266THF     C2 5387   2.569   3.202   4.005 -0.0001 -0.8088  0.5574
  266THF     C3 5388   2.585   3.250   4.229  0.8856 -0.5304  0.1874
  266THF     H4 5389   2.619   3.175   3.915 -4.9091  1.6123 -4.5401
  266THF     H5 5390   2.484   3.258   3.973 -0.3409 -1.3880  0.0582
  266THF     H6 5391   2.649   3.265   4.313 -1.1352  1.4301  0.0456
  266THF     H7 5392   2.515   3.339   4.227  1.1213  2.5036 -2.4471
  266THF     C8 5393   2.509   3.121   4.226  0.8820  0.2274 -0.1467
  266THF     C9 5394   2.515   3.080   4.077  0.3951  0.2731 -0.4117
  266THF    H10 5395   2.410   3.126   4.268  1.2794  1.1825 -0.0355
  266THF    H11 5396   2.566   3.047   4.285 -0.4224 -1.3070 -1.1134
  266THF    H12 5397   2.587   3.002   4.070 -0.6093  1.1463  1.4660
  266THF    H13 5398   2.428   3.022   4.038 -2.8453 -0.9175 -1.7462
  267THF     O1 5399   2.525   4.089   4.194  0.0855 -0.1207 -0.0197
  267THF     C2 5400   2.533   4.200   4.289 -0.1214  0.0203 -0.3654
  267THF     C3 5401   2.655   4.021   4.203  0.0722  0.1723  0.2829
  267THF     H4 5402   2.526   4.167   4.392  2.6545  2.6168  1.6285
  267THF     H5 5403   2.461   4.281   4.272 -1.1229 -0.5719  0.6377
  267THF     H6 5404   2.648   3.954   4.289 -2.0116 -1.1060  2.1786
  267THF     H7 5405   2.676   3.954   4.120  2.2899 -1.0883 -1.7902
  267THF     C8 5406   2.755   4.133   4.221  0.3427  0.7459 -0.0101
  267THF     C9 5407   2.671   4.260   4.252  0.1409 -0.1473  1.4682
  267THF    H10 5408   2.831   4.123   4.144 -0.5274 -0.1565 -0.1273
  267THF    H11 5409   2.800   4.108   4.314 -0.3924  0.0115 -0.1324
  267THF    H12 5410   2.711   4.332   4.320  1.8724 -1.8865  0.8682
  267THF    H13 5411   2.659   4.320   4.158  0.5396  0.3902  0.7539
  268THF     O1 5412   0.864   3.866   2.493 -0.0141 -0.1098  0.0257
  268THF     C2 5413   0.823   3.987   2.558  0.0878 -0.3563 -0.0385
  268THF     C3 5414   0.973   3.816   2.571 -0.4240  0.2778 -0.2881
  268THF     H4 5415   0.759   3.976   2.649 -0.2730 -0.7854  0.4678
  268THF     H5 5416   0.774   4.048   2.490  0.8421 -1.3125  0.0288
  268THF     H6 5417   0.948   3.738   2.646 -0.2870 -0.2472  2.2227
  268THF     H7 5418   1.033   3.760   2.498  0.7479 -0.6632 -1.2155
  268THF     C8 5419   1.044   3.925   2.638  0.8858 -0.9226 -0.4245
  268THF     C9 5420   0.954   4.045   2.619  0.5197 -0.6481  0.5475
  268THF    H10 5421   1.148   3.936   2.599  1.8532 -0.2702  1.0425
  268THF    H11 5422   1.061   3.907   2.744 -0.9504  0.5693 -1.5778
  268THF    H12 5423   0.929   4.103   2.707  3.3717  5.8079  0.0064
  268THF    H13 5424   0.996   4.130   2.565 -0.0273  0.4644  0.6558
  269THF     O1 5425   1.709   1.510   1.843  0.2553 -0.2389  0.1096
  269THF     C2 5426   1.597   1.587   1.884  0.1886 -0.4987 -0.2552
  269THF     C3 5427   1.673   1.373   1.851 -0.7010 -0.7008  0.3215
  269THF     H4 5428   1.553   1.660   1.810 -0.7929 -0.8891  1.0581
  269THF     H5 5429   1.610   1.648   1.970 -2.1914 -2.7820  0.1141
  269THF     H6 5430   1.643   1.330   1.752  1.0118 -0.5192 -0.7853
  269THF     H7 5431   1.759   1.314   1.872 -0.4424 -2.6135  1.3590
  269THF     C8 5432   1.581   1.376   1.975 -0.1487  0.0252  0.4808
  269THF     C9 5433   1.495   1.492   1.929 -0.0014 -0.1080  0.2240
  269THF    H10 5434   1.636   1.393   2.063 -3.4541  0.8520  0.0646
  269THF    H11 5435   1.510   1.294   2.002 -1.5353 -0.2965  2.5282
  269THF    H12 5436   1.427   1.459   1.849 -0.6836  0.8902  2.0876
  269THF    H13 5437   1.437   1.537   2.013 -1.2786 -0.4577 -1.0962
  270THF     O1 5438   2.544   4.807   4.446  0.4935 -0.1087  0.1158
  270THF     C2 5439   2.495   4.681   4.442 -0.0587 -0.1933 -0.0126
  270THF     C3 5440   2.508   4.862   4.323 -0.0079  0.0973  0.3453
  270THF     H4 5441   2.384   4.690   4.458 -0.6534  1.0758 -1.7813
  270THF     H5 5442   2.539   4.613   4.519 -0.7115 -3.2731  0.8591
  270THF     H6 5443   2.412   4.904   4.321 -0.4434  0.1523  0.6211
  270THF     H7 5444   2.571   4.946   4.297 -1.3554 -2.1871 -0.7374
  270THF     C8 5445   2.509   4.752   4.216 -0.1223 -0.5471 -0.1610
  270THF     C9 5446   2.525   4.627   4.296  0.6777  0.3195 -0.5104
  270THF    H10 5447   2.589   4.769   4.151  1.4707  2.6975 -0.8494
  270THF    H11 5448   2.432   4.750   4.146  0.2024 -0.0810 -0.8048
  270THF    H12 5449   2.466   4.539   4.264  0.7054 -1.1327  0.4097
  270THF    H13 5450   2.633   4.603   4.294  0.1761  0.5470 -1.4408
  271THF     O1 5451   0.454   1.709   1.358 -0.6235  0.6021  0.0786
  271THF     C2 5452   0.318   1.681   1.353  0.3317 -0.0459 -0.3322
  271THF     C3 5453   0.518   1.596   1.302 -0.0454 -0.4144  0.7883
  271THF     H4 5454   0.282   1.690   1.252 -1.5830 -1.0639 -0.0424
  271THF     H5 5455   0.248   1.740   1.417  0.1935 -2.2810 -1.5095
  271THF     H6 5456   0.516   1.596   1.195  1.2050 -0.6672  1.3922
  271THF     H7 5457   0.627   1.591   1.325  1.6843  2.6046 -0.7382
  271THF     C8 5458   0.448   1.479   1.355 -0.6925 -0.1318 -0.4376
  271THF     C9 5459   0.315   1.541   1.409  0.1042 -0.4757 -0.5916
  271THF    H10 5460   0.502   1.443   1.444 -2.5697  0.5744  3.0891
  271THF    H11 5461   0.437   1.385   1.296 -0.2149 -0.5865  0.3171
  271THF    H12 5462   0.233   1.492   1.355  0.2253 -0.0247 -1.9310
  271THF    H13 5463   0.292   1.528   1.518  0.1386  3.9950  1.1940
  272THF     O1 5464   1.603   2.347   1.934  0.2665 -0.3249  0.1288
  272THF     C2 5465   1.555   2.251   1.851 -0.1088 -0.2104 -0.2580
  272THF     C3 5466   1.697   2.426   1.859  0.5098  0.7026  0.2347
  272THF     H4 5467   1.460   2.293   1.820 -4.0314 -4.8804  2.3443
  272THF     H5 5468   1.541   2.167   1.915 -2.2797  0.6458  1.2160
  272THF     H6 5469   1.672   2.523   1.850 -3.0896 -4.8625  2.0004
  272THF     H7 5470   1.792   2.410   1.907 -1.7218 -1.1496  2.0337
  272THF     C8 5471   1.712   2.358   1.721 -0.2083 -0.4013  0.0184
  272THF     C9 5472   1.657   2.223   1.743 -0.5916  0.2759 -0.2248
  272THF    H10 5473   1.815   2.372   1.692  0.6505 -1.3183 -0.5497
  272THF    H11 5474   1.656   2.415   1.640 -1.7723 -0.8115 -1.0484
  272THF    H12 5475   1.609   2.180   1.651  1.3567 -0.0637 -0.8674
  272THF    H13 5476   1.729   2.146   1.778 -0.5980  1.4836  0.3007
  273THF     O1 5477   3.473   4.448   1.253 -0.5248  0.3319 -0.0169
  273THF     C2 5478   3.528   4.319   1.262  0.2937  0.4001  0.0332
  273THF     C3 5479   3.400   4.477   1.378  0.0420  0.1292  0.3469
  273THF     H4 5480   3.636   4.322   1.243 -0.3494 -2.8493  0.1959
  273THF     H5 5481   3.485   4.246   1.198  1.7415 -0.2262  1.6160
  273THF     H6 5482   3.390   4.584   1.403  0.2822  1.1913  0.5849
  273THF     H7 5483   3.299   4.441   1.361  2.4903  0.0912  0.1167
  273THF     C8 5484   3.484   4.396   1.486  0.7638  0.5489 -0.1316
  273THF     C9 5485   3.515   4.274   1.407 -0.5422  0.1149 -0.5606
  273THF    H10 5486   3.437   4.393   1.581 -0.3384  0.3779 -0.6923
  273THF    H11 5487   3.576   4.454   1.515  1.4233 -3.1694  1.7454
  273THF    H12 5488   3.602   4.223   1.451  1.3731 -0.0604  0.8731
  273THF    H13 5489   3.425   4.215   1.417 -0.4254  2.7961 -2.2594
  274THF     O1 5490   2.632   5.033   2.943  0.7861  0.1435 -0.2757
  274THF     C2 5491   2.773   5.024   2.955  0.3274 -0.3557 -0.0481
  274THF     C3 5492   2.584   5.101   2.822 -0.9639 -0.4354 -0.1376
  274THF     H4 5493   2.798   4.920   2.926 -0.1985 -0.2880 -0.9772
  274THF     H5 5494   2.798   5.065   3.055 -1.6392  1.4327  0.8262
  274THF     H6 5495   2.513   5.045   2.767 -0.2501  0.3206 -0.1727
  274THF     H7 5496   2.544   5.199   2.841 -0.1989  0.6203 -0.8575
  274THF     C8 5497   2.716   5.109   2.738 -0.0485  1.4199  0.4746
  274THF     C9 5498   2.823   5.116   2.847 -0.9905 -0.1296  0.1250
  274THF    H10 5499   2.722   5.180   2.661 -0.7052 -0.7296  3.0246
  274THF    H11 5500   2.724   5.017   2.678 -0.7218  1.7639 -0.2357
  274THF    H12 5501   2.924   5.096   2.812 -0.0771 -0.1944  3.0380
  274THF    H13 5502   2.828   5.223   2.884  0.0347 -3.5834  0.4303
  275THF     O1 5503   5.332   5.296   2.153 -0.2563  0.1937  0.0288
  275THF     C2 5504   5.305   5.289   2.292 -0.1790 -0.6491  0.0612
  275THF     C3 5505   5.436   5.393   2.123  0.5453  0.5719  0.5883
  275THF     H4 5506   5.290   5.190   2.322 -0.4576  0.2013 -1.4156
  275THF     H5 5507   5.216   5.350   2.296 -0.9746 -0.7623  1.1227
  275THF     H6 5508   5.490   5.376   2.026 -0.4218  1.0151  0.0381
  275THF     H7 5509   5.401   5.496   2.125 -0.6876 -0.6806  0.5754
  275THF     C8 5510   5.532   5.386   2.235 -0.0543  0.3447  0.4847
  275THF     C9 5511   5.435   5.355   2.353 -0.4333 -0.3459  0.5590
  275THF    H10 5512   5.588   5.472   2.247 -0.6990 -2.6970 -1.3128
  275THF    H11 5513   5.595   5.305   2.207 -1.8733  2.6933 -1.6860
  275THF    H12 5514   5.471   5.287   2.431 -0.1752  0.9758 -2.9549
  275THF    H13 5515   5.415   5.451   2.399 -0.1145  0.3469 -0.7561
  276THF     O1 5516   1.904   2.526   1.091 -0.2411  0.1538  0.7720
  276THF     C2 5517   1.989   2.597   0.996 -0.3080  0.2626  0.2240
  276THF     C3 5518   1.774   2.578   1.062 -0.3773 -0.9997  0.0946
  276THF     H4 5519   2.083   2.540   0.978  1.6825 -1.3984  3.2345
  276THF     H5 5520   2.007   2.704   1.036 -1.4229 -1.5637 -0.5267
  276THF     H6 5521   1.696   2.518   1.106  2.6813 -0.3003 -2.3325
  276THF     H7 5522   1.760   2.677   1.108 -2.4965 -2.4550 -0.3293
  276THF     C8 5523   1.763   2.581   0.906  0.2666  0.2325  0.1070
  276THF     C9 5524   1.905   2.617   0.861 -0.4906  0.2565  0.0294
  276THF    H10 5525   1.690   2.652   0.875 -1.9493  2.3143 -0.4457
  276THF    H11 5526   1.729   2.482   0.863  4.7425 -0.1370 -0.1873
  276THF    H12 5527   1.947   2.545   0.792 -0.9201 -0.0100 -2.1115
  276THF    H13 5528   1.911   2.726   0.833  0.7448  0.4854  1.5460
  277THF     O1 5529   0.903   3.645   1.187  0.1051  0.5993 -0.3957
  277THF     C2 5530   0.778   3.677   1.126 -0.3906  0.5628 -0.0612
  277THF     C3 5531   0.903   3.506   1.219 -1.4599 -0.5573 -0.0754
  277THF     H4 5532   0.790   3.652   1.018  3.9631  0.8726 -2.1680
  277THF     H5 5533   0.741   3.783   1.125 -0.6696 -1.6550  2.5644
  277THF     H6 5534   0.934   3.460   1.124 -1.2274 -2.4741 -1.4159
  277THF     H7 5535   0.986   3.465   1.291  2.0640 -1.0048  0.8739
  277THF     C8 5536   0.765   3.484   1.267  0.2802  0.5031  0.3941
  277THF     C9 5537   0.681   3.594   1.214 -0.1580 -0.2729 -0.4196
  277THF    H10 5538   0.764   3.474   1.375  1.6956  1.9697 -0.5689
  277THF    H11 5539   0.726   3.395   1.217  0.7420  2.1926 -0.8957
  277THF    H12 5540   0.591   3.550   1.165  1.4479 -1.6453 -1.6957
  277THF    H13 5541   0.644   3.663   1.292  0.2885  0.0602  1.0657
  278THF     O1 5542   2.568   4.421   3.955 -0.8512 -0.0437  0.9899
  278THF     C2 5543   2.587   4.350   3.830  0.2506 -0.4002 -0.4378
  278THF     C3 5544   2.489   4.532   3.915 -0.3867  0.2796 -0.1567
  278THF     H4 5545   2.641   4.256   3.845 -1.0305 -2.1328  0.5678
  278THF     H5 5546   2.649   4.412   3.762  0.6321 -1.1949 -0.2532
  278THF     H6 5547   2.442   4.574   3.999 -0.7455 -0.5675 -0.5916
  278THF     H7 5548   2.555   4.612   3.865  1.3581 -0.0126  1.8514
  278THF     C8 5549   2.383   4.463   3.831 -0.0858  0.3386  0.6574
  278THF     C9 5550   2.443   4.335   3.782 -0.4089 -0.6095 -0.1006
  278THF    H10 5551   2.367   4.525   3.744  0.3043  0.7531  0.3328
  278THF    H11 5552   2.284   4.455   3.882 -1.5923  0.4221  0.8517
  278THF    H12 5553   2.393   4.252   3.831  0.0258 -0.7099  0.5994
  278THF    H13 5554   2.444   4.316   3.673 -2.9274 -2.5558 -0.2640
  279THF     O1 5555   3.421   0.662   4.802 -0.0638  0.4072  0.1284
  279THF     C2 5556   3.435   0.535   4.760 -0.7333 -0.7336 -0.3384
  279THF     C3 5557   3.449   0.747   4.695 -0.3849  0.0781 -0.2674
  279THF     H4 5558   3.382   0.478   4.833 -1.7179 -0.9274 -0.3229
  279THF     H5 5559   3.547   0.500   4.751  2.6313  0.8849  1.3493
  279THF     H6 5560   3.413   0.845   4.729  1.5465  1.3082  0.1108
  279THF     H7 5561   3.548   0.750   4.666 -0.5413 -0.5597  0.0661
  279THF     C8 5562   3.380   0.683   4.581 -0.7631  0.2934  0.0099
  279THF     C9 5563   3.352   0.543   4.629  0.1010  0.2245  0.6322
  279THF    H10 5564   3.446   0.674   4.488  0.0878 -2.7641 -0.0387
  279THF    H11 5565   3.283   0.742   4.567 -0.4535  0.4519  0.0983
  279THF    H12 5566   3.243   0.535   4.655 -1.5695  0.9431  0.9067
  279THF    H13 5567   3.377   0.461   4.556  2.5796  1.0186  0.5594
  280THF     O1 5568   1.326   0.523   2.819 -0.4722 -0.1368  0.2374
  280THF     C2 5569   1.409   0.638   2.783  0.4984  0.5760 -0.2413
  280THF     C3 5570   1.312   0.447   2.697 -0.5189  0.2462 -0.2113
  280THF     H4 5571   1.513   0.627   2.811  1.4295  1.0181  0.7321
  280THF     H5 5572   1.377   0.727   2.833  0.9234 -1.9300 -0.4418
  280THF     H6 5573   1.401   0.392   2.685  3.2396  0.8165 -1.0765
  280THF     H7 5574   1.220   0.389   2.702 -2.7769 -0.3003  2.5402
  280THF     C8 5575   1.292   0.554   2.589 -0.3814 -0.0167  0.0975
  280THF     C9 5576   1.399   0.654   2.632  0.1047 -0.4080 -1.0019
  280THF    H10 5577   1.186   0.588   2.601  0.8922 -0.8434  0.2959
  280THF    H11 5578   1.303   0.514   2.492 -0.3800 -1.5060  1.7508
  280THF    H12 5579   1.496   0.622   2.592 -1.8556 -1.1956 -1.1293
  280THF    H13 5580   1.384   0.757   2.591  1.3192 -1.2199  0.4248
  281THF     O1 5581   0.868   3.538   4.143  0.8752 -0.1256 -0.3802
  281THF     C2 5582   0.962   3.448   4.082 -0.1421  0.2749  0.5208
  281THF     C3 5583   0.775   3.568   4.041 -0.7437 -0.9038 -0.3251
  281THF     H4 5584   0.920   3.343   4.092 -0.6879 -1.6646  2.0649
  281THF     H5 5585   1.060   3.456   4.132 -0.3496 -2.0085 -0.0366
  281THF     H6 5586   0.701   3.488   4.029 -0.4046 -3.0847  3.8248
  281THF     H7 5587   0.727   3.661   4.064  0.3908 -0.0678  2.7789
  281THF     C8 5588   0.859   3.597   3.914 -0.2099  0.0263  0.6967
  281THF     C9 5589   0.961   3.478   3.932  1.8022 -0.4730  0.1090
  281THF    H10 5590   0.915   3.689   3.923  1.5388  0.0143  0.3261
  281THF    H11 5591   0.801   3.600   3.825 -0.2667 -1.0303  1.1479
  281THF    H12 5592   0.933   3.390   3.879  0.1228 -1.0161 -2.4518
  281THF    H13 5593   1.057   3.498   3.887 -0.1157  1.3055  0.0216
  282THF     O1 5594   2.059   4.881   0.849 -0.4867 -0.2710  0.3864
  282THF     C2 5595   2.043   4.873   0.708  0.4527  0.1953  0.7552
  282THF     C3 5596   2.119   5.003   0.873  0.0534  0.1698  0.0490
  282THF     H4 5597   1.954   4.925   0.678 -1.2735  1.2845 -0.3664
  282THF     H5 5598   2.032   4.773   0.679  2.0537 -1.2757  1.0728
  282THF     H6 5599   2.045   5.076   0.852  3.7320 -1.9374 -1.7778
  282THF     H7 5600   2.166   5.024   0.966  2.5997 -0.5046  1.4440
  282THF     C8 5601   2.228   5.014   0.765  0.0611  0.0060  0.3520
  282THF     C9 5602   2.167   4.946   0.649 -0.3492 -0.1293  1.1840
  282THF    H10 5603   2.322   4.961   0.795  1.6628 -3.6264  0.3464
  282THF    H11 5604   2.241   5.116   0.746 -1.0822 -0.4980  2.9762
  282THF    H12 5605   2.141   5.007   0.564  1.2951 -0.6984 -1.5073
  282THF    H13 5606   2.229   4.868   0.606  1.7009 -1.4480 -1.4095
  283THF     O1 5607   3.633   2.581   5.361 -0.0823  0.5935 -0.1938
  283THF     C2 5608   3.744   2.550   5.281 -0.0899 -0.0104  0.1370
  283THF     C3 5609   3.668   2.675   5.457  0.7424 -0.4309 -0.3565
  283THF     H4 5610   3.711   2.520   5.188  0.8067  1.8015  1.1936
  283THF     H5 5611   3.803   2.466   5.322 -1.2395 -2.1868  0.1364
  283THF     H6 5612   3.594   2.746   5.471 -0.0911  1.0149  3.8396
  283THF     H7 5613   3.686   2.618   5.547  1.9517 -1.9209  0.1118
  283THF     C8 5614   3.798   2.740   5.416  0.0363  0.8800 -0.1364
  283THF     C9 5615   3.835   2.675   5.283  1.1300  0.3001 -0.2022
  283THF    H10 5616   3.873   2.730   5.490 -0.9777  0.0423  0.2544
  283THF    H11 5617   3.787   2.851   5.410 -0.4907  1.2899 -0.2417
  283THF    H12 5618   3.812   2.733   5.199  1.6601  4.2701  1.9588
  283THF    H13 5619   3.936   2.649   5.274 -0.7762  0.9942 -0.3530
  284THF     O1 5620   0.618   1.372   0.845  0.0941 -0.5607 -0.1947
  284THF     C2 5621   0.653   1.441   0.721 -0.1307 -0.0109 -0.8727
  284THF     C3 5622   0.518   1.460   0.906 -0.0369 -0.6767  0.1289
  284THF     H4 5623   0.705   1.377   0.650  0.3921  3.0105  0.0542
  284THF     H5 5624   0.725   1.517   0.749 -1.3292 -0.7673  1.0902
  284THF     H6 5625   0.473   1.423   1.001 -2.6868  0.8652  1.1144
  284THF     H7 5626   0.573   1.555   0.930  0.9435 -0.4632  0.1094
  284THF     C8 5627   0.427   1.504   0.795  0.2596  0.4609  0.8903
  284THF     C9 5628   0.518   1.487   0.666 -0.0379 -1.2342 -0.7475
  284THF    H10 5629   0.397   1.602   0.806 -1.5593 -3.0643  1.8586
  284THF    H11 5630   0.335   1.448   0.787 -0.2288 -1.1776 -0.9242
  284THF    H12 5631   0.486   1.414   0.599  0.8742 -1.0175 -0.6063
  284THF    H13 5632   0.514   1.587   0.611 -0.0382 -0.4268  0.4180
  285THF     O1 5633   3.315   3.137   2.280 -0.4216 -0.3000 -0.2150
  285THF     C2 5634   3.204   3.057   2.315 -0.0578  0.0594 -0.2935
  285THF     C3 5635   3.361   3.210   2.392  0.1379 -0.0628  0.2326
  285THF     H4 5636   3.222   2.957   2.274  2.6155 -0.5543 -2.0356
  285THF     H5 5637   3.109   3.080   2.262 -0.0690  0.8903 -1.9150
  285THF     H6 5638   3.467   3.226   2.396 -2.6719  2.4457  1.6416
  285THF     H7 5639   3.323   3.314   2.391  1.0841  0.4747  1.2583
  285THF     C8 5640   3.318   3.134   2.512  0.1797  0.3544  0.2733
  285THF     C9 5641   3.186   3.065   2.470 -0.2081 -0.2803 -0.9086
  285THF    H10 5642   3.311   3.204   2.592  0.7718 -0.6484 -1.5531
  285THF    H11 5643   3.388   3.064   2.545 -0.3124 -1.1024 -1.5436
  285THF    H12 5644   3.173   2.965   2.510  0.3722 -0.5355 -1.7094
  285THF    H13 5645   3.099   3.130   2.492  0.2851  0.0307  0.2684
  286THF     O1 5646   5.014   1.368   4.423 -0.0179 -0.2746 -0.4655
  286THF     C2 5647   4.879   1.405   4.427 -0.6020 -0.5454 -0.5400
  286THF     C3 5648   5.053   1.329   4.548  0.7301  0.1680  0.3582
  286THF     H4 5649   4.813   1.316   4.437  0.8873  1.3194  0.7598
  286THF     H5 5650   4.852   1.457   4.337  0.7266  1.4290  1.0969
  286THF     H6 5651   5.017   1.227   4.566 -1.1821  0.2201  3.3538
  286THF     H7 5652   5.165   1.330   4.554 -1.7196  0.4661 -1.5664
  286THF     C8 5653   4.982   1.431   4.638  0.1997  0.1596  0.2423
  286THF     C9 5654   4.880   1.488   4.549  0.3971 -0.2991  0.0909
  286THF    H10 5655   5.050   1.487   4.705  1.3805 -0.1850 -0.8290
  286THF    H11 5656   4.933   1.381   4.718  0.3455 -1.4988 -0.1885
  286THF    H12 5657   4.782   1.505   4.594 -0.0059 -0.1945  0.2872
  286THF    H13 5658   4.915   1.587   4.533 -2.4096 -2.3745 -1.9681
  287THF     O1 5659   4.450   3.031   3.790  0.2297  0.5463 -0.2367
  287THF     C2 5660   4.412   3.152   3.727 -0.4429  0.6896 -0.1089
  287THF     C3 5661   4.589   3.028   3.811 -0.0477 -0.2348  0.0518
  287THF     H4 5662   4.399   3.226   3.800  0.8765  0.7402 -0.0880
  287THF     H5 5663   4.315   3.149   3.677 -0.3529  0.4548 -1.8648
  287THF     H6 5664   4.601   3.068   3.913  1.6274  0.6664  2.0288
  287THF     H7 5665   4.625   2.931   3.805 -0.5038 -0.2120 -0.7035
  287THF     C8 5666   4.643   3.129   3.711 -0.3020  0.4625 -0.1524
  287THF     C9 5667   4.523   3.168   3.625  0.6421 -0.4269 -0.3172
  287THF    H10 5668   4.725   3.089   3.644  1.5161  0.1650  0.1973
  287THF    H11 5669   4.676   3.222   3.762  1.8660 -1.5893  0.5330
  287THF    H12 5670   4.538   3.266   3.583 -2.6553 -0.5396 -0.4094
  287THF    H13 5671   4.521   3.089   3.550 -4.0228  0.5495 -2.0927
  288THF     O1 5672   4.167   3.742   2.586  0.1952 -0.1022 -0.6117
  288THF     C2 5673   4.266   3.638   2.566 -0.2547 -0.2068 -0.4950
  288THF     C3 5674   4.197   3.825   2.696 -0.7812 -0.0612  1.1196
  288THF     H4 5675   4.339   3.674   2.489  0.8707 -1.5810 -0.4123
  288THF     H5 5676   4.221   3.546   2.536  0.2152  0.9990  4.0974
  288THF     H6 5677   4.202   3.929   2.674  0.4932  1.7075 -2.2949
  288THF     H7 5678   4.118   3.821   2.777 -3.5685  3.0961  2.3625
  288THF     C8 5679   4.327   3.764   2.760  0.4555 -0.7802 -0.1378
  288THF     C9 5680   4.324   3.622   2.705 -0.2495 -0.0471  0.1809
  288THF    H10 5681   4.331   3.770   2.868 -0.2009 -2.3484 -1.8668
  288THF    H11 5682   4.413   3.822   2.716 -1.5962  0.8820 -1.1232
  288THF    H12 5683   4.420   3.573   2.687  1.0176 -0.9443 -1.1707
  288THF    H13 5684   4.273   3.554   2.774 -0.1318  0.6404  2.3025
  289THF     O1 5685   4.467   1.960   3.974  0.0289  0.6279 -0.0621
  289THF     C2 5686   4.421   1.910   3.846  0.2998  0.2070 -0.4400
  289THF     C3 5687   4.356   2.044   4.018 -0.9311 -0.1803  0.1460
  289THF     H4 5688   4.354   1.825   3.865  0.6352 -1.5636  2.4123
  289THF     H5 5689   4.503   1.876   3.779  0.6677 -1.4772 -1.7117
  289THF     H6 5690   4.274   1.978   4.056 -0.8059  0.5409 -0.0298
  289THF     H7 5691   4.380   2.103   4.103 -0.8261  0.8553 -0.9709
  289THF     C8 5692   4.297   2.119   3.897  0.6871  0.3004 -0.8377
  289THF     C9 5693   4.335   2.030   3.784  0.4711 -0.1461  0.2888
  289THF    H10 5694   4.350   2.219   3.889 -0.4437 -0.1162  1.0098
  289THF    H11 5695   4.181   2.139   3.907  1.8604 -1.2060  2.8141
  289THF    H12 5696   4.248   1.996   3.732  2.8642 -0.4036  0.0251
  289THF    H13 5697   4.393   2.087   3.712  1.0587 -1.2496 -0.4491
  290THF     O1 5698   0.885   0.837   3.118  0.1202  0.2956  0.1289
  290THF     C2 5699   0.755   0.788   3.105 -0.4986  0.3937 -0.0831
  290THF     C3 5700   0.963   0.734   3.047 -0.1951  0.3332 -0.0782
  290THF     H4 5701   0.713   0.817   3.009 -0.5721 -1.2615  4.0870
  290THF     H5 5702   0.694   0.826   3.182  2.0217  1.7517  0.6465
  290THF     H6 5703   0.974   0.766   2.945  0.5057  0.9815 -2.2987
  290THF     H7 5704   1.053   0.713   3.105  2.5075  1.0725  0.5982
  290THF     C8 5705   0.874   0.602   3.043 -0.4057 -0.4108 -0.0304
  290THF     C9 5706   0.760   0.641   3.128  0.6109 -0.5673  0.7277
  290THF    H10 5707   0.936   0.520   3.073 -0.8395 -1.4933 -1.1339
  290THF    H11 5708   0.842   0.586   2.936 -3.6558  0.5436 -0.4994
  290THF    H12 5709   0.674   0.589   3.086 -1.1783  0.4976 -4.3079
  290THF    H13 5710   0.770   0.620   3.232 -0.8488 -0.1132 -2.2443
  291THF     O1 5711   3.329   1.868   0.080 -0.1880 -0.1792  0.7207
  291THF     C2 5712   3.457   1.922   0.113  0.6403  0.0065 -1.0509
  291THF     C3 5713   3.318   1.743   0.151 -0.2416 -0.3739 -0.3757
  291THF     H4 5714   3.461   2.031   0.090  0.7591  0.9083 -0.4465
  291THF     H5 5715   3.525   1.879   0.044 -2.0834  1.0025  1.8669
  291THF     H6 5716   3.221   1.733   0.199 -2.8010 -0.3547 -2.7425
  291THF     H7 5717   3.324   1.653   0.090  1.8541 -0.3776  0.1233
  291THF     C8 5718   3.424   1.740   0.258  0.0653  0.3102  0.1246
  291THF     C9 5719   3.482   1.877   0.260 -0.3167 -0.6292  0.2090
  291THF    H10 5720   3.509   1.674   0.241  0.3740 -0.1306  1.6606
  291THF    H11 5721   3.383   1.698   0.354  1.0498 -2.5602  0.8088
  291THF    H12 5722   3.433   1.946   0.330  2.0064  0.3027  1.2958
  291THF    H13 5723   3.585   1.879   0.280 -2.4299 -1.0501 -1.3024
  292THF     O1 5724   5.333   2.627   1.625  0.0023  0.0533  0.1700
  292THF     C2 5725   5.372   2.685   1.753 -0.0369 -0.3941 -0.2809
  292THF     C3 5726   5.415   2.669   1.523 -0.1266 -0.8559 -0.3615
  292THF     H4 5727   5.339   2.619   1.833 -1.6706 -0.5278  0.9337
  292THF     H5 5728   5.345   2.793   1.780  0.5096  1.8768  0.7576
  292THF     H6 5729   5.411   2.613   1.434 -0.2189  1.5184 -1.1991
  292THF     H7 5730   5.390   2.776   1.497 -3.4422  1.0550  0.3199
  292THF     C8 5731   5.550   2.654   1.583  0.3593 -0.1528 -0.2675
  292THF     C9 5732   5.522   2.676   1.735 -1.1094  0.1292  0.6002
  292THF    H10 5733   5.617   2.730   1.538  0.9251 -0.5484  0.0893
  292THF    H11 5734   5.596   2.556   1.574 -1.3510  2.4356  0.7854
  292THF    H12 5735   5.562   2.587   1.785 -0.5293 -2.4683  1.5044
  292THF    H13 5736   5.567   2.766   1.775 -2.0636 -1.2308  0.4512
  293THF     O1 5737   1.690   4.781   2.540  0.7300  0.5018  0.2827
  293THF     C2 5738   1.569   4.762   2.465  0.8088  0.4144  0.0458
  293THF     C3 5739   1.760   4.898   2.503  0.0294 -0.2416  0.5382
  293THF     H4 5740   1.481   4.773   2.522  1.2380 -1.2120 -1.4933
  293THF     H5 5741   1.572   4.653   2.442  1.6736 -0.6910 -4.1384
  293THF     H6 5742   1.721   4.981   2.566 -0.5040  2.5647  2.6326
  293THF     H7 5743   1.869   4.891   2.525  2.5681 -0.6426  0.1833
  293THF     C8 5744   1.716   4.928   2.355  0.4553 -0.0108 -0.4223
  293THF     C9 5745   1.580   4.857   2.338 -0.7155  0.2190 -0.5687
  293THF    H10 5746   1.776   4.868   2.289  0.1642  0.9838  0.0735
  293THF    H11 5747   1.710   5.036   2.331  1.3056  2.5160  0.4979
  293THF    H12 5748   1.499   4.931   2.322 -0.5862 -0.9729 -0.1920
  293THF    H13 5749   1.578   4.803   2.248 -0.4147  0.7712  0.0318
  294THF     O1 5750   2.938   5.143   4.201 -0.0386  0.2602  0.7536
  294THF     C2 5751   2.829   5.228   4.209 -0.3600 -0.7169  0.8623
  294THF     C3 5752   3.044   5.220   4.155  0.2476  0.4806 -0.3636
  294THF     H4 5753   2.754   5.176   4.279  2.0644  3.0183 -0.4337
  294THF     H5 5754   2.780   5.227   4.107 -2.6946  2.1606  0.6723
  294THF     H6 5755   3.142   5.171   4.171 -2.4237 -0.9611  1.9712
  294THF     H7 5756   3.031   5.249   4.050  0.8808 -0.1008  1.4398
  294THF     C8 5757   3.038   5.343   4.242  0.2309 -0.7754 -0.4032
  294THF     C9 5758   2.889   5.364   4.256  0.5660  0.2226  0.8166
  294THF    H10 5759   3.093   5.425   4.199 -0.6390  0.0546 -0.8442
  294THF    H11 5760   3.079   5.314   4.335 -1.5346 -1.4669 -2.7233
  294THF    H12 5761   2.844   5.386   4.348  1.7120  0.4837  0.1176
  294THF    H13 5762   2.856   5.433   4.182 -0.0375  1.9012  1.4641
  295THF     O1 5763   3.157   0.112   1.521 -0.1041  0.2700  0.0239
  295THF     C2 5764   3.084   0.220   1.466 -0.4555 -0.4100 -0.7719
  295THF     C3 5765   3.104   0.062   1.638 -0.5175 -0.2434 -0.4793
  295THF     H4 5766   3.088   0.213   1.356 -3.3773 -2.8665  0.3968
  295THF     H5 5767   3.112   0.321   1.498  2.2642  0.5783 -1.8833
  295THF     H6 5768   3.140  -0.039   1.639  0.1891 -1.4605 -1.0980
  295THF     H7 5769   3.112   0.105   1.734 -0.4485 -1.5121  0.7150
  295THF     C8 5770   2.961   0.055   1.599  0.2488 -0.3518 -0.9397
  295THF     C9 5771   2.940   0.183   1.519  0.7498 -0.5147 -0.2948
  295THF    H10 5772   2.892   0.045   1.682  2.4148 -2.1986 -0.1188
  295THF    H11 5773   2.931  -0.024   1.530  0.6980  0.7673  0.6483
  295THF    H12 5774   2.873   0.160   1.435  2.0184  2.9298 -3.0362
  295THF    H13 5775   2.911   0.279   1.565 -2.2749  1.7861  0.7103
  296THF     O1 5776   0.138   1.893   1.937 -0.0074 -0.4999  0.4027
  296THF     C2 5777   0.134   1.756   1.920  0.2155 -0.1820  0.0194
  296THF     C3 5778   0.052   1.932   2.047 -1.1295  0.5702  0.6563
  296THF     H4 5779   0.233   1.721   1.940  2.3652  1.5837  0.1429
  296THF     H5 5780   0.098   1.722   1.822 -1.7586  1.5266 -0.3607
  296THF     H6 5781   0.098   2.017   2.102 -0.8388 -0.8281 -1.2863
  296THF     H7 5782  -0.035   1.973   1.996 -1.3198 -0.9182 -0.2897
  296THF     C8 5783   0.031   1.808   2.138 -0.1646  0.9609 -0.1760
  296THF     C9 5784   0.040   1.699   2.027  0.3204 -0.2310 -0.0515
  296THF    H10 5785  -0.074   1.803   2.177 -1.0048 -1.2702  0.4212
  296THF    H11 5786   0.107   1.783   2.213 -3.3103 -2.7000  1.4963
  296THF    H12 5787   0.079   1.604   2.066  0.0685 -2.0667  0.1132
  296THF    H13 5788  -0.062   1.685   2.000  1.7964 -1.5198 -0.7305
  297THF     O1 5789   3.747   0.049   1.546  0.2890 -0.2889  0.3219
  297THF     C2 5790   3.654   0.017   1.647 -0.0916 -0.8219 -0.4136
  297THF     C3 5791   3.688  -0.006   1.430 -0.4585 -0.3183 -0.1854
  297THF     H4 5792   3.679   0.073   1.738  1.0773  0.2231  0.8569
  297THF     H5 5793   3.655  -0.087   1.665  1.2726  1.0638 -1.8893
  297THF     H6 5794   3.715   0.063   1.350 -0.0622 -1.3425 -0.5318
  297THF     H7 5795   3.718  -0.107   1.401  0.0126 -0.9955 -0.4955
  297THF     C8 5796   3.535   0.002   1.445 -0.4763 -0.5717  0.0579
  297THF     C9 5797   3.518   0.061   1.583  0.1913 -0.3043 -0.0250
  297THF    H10 5798   3.485  -0.085   1.427  1.8132  1.2608 -2.9490
  297THF    H11 5799   3.492   0.063   1.370 -0.3543  0.1746 -0.2197
  297THF    H12 5800   3.517   0.175   1.590  0.1020  0.0559  0.9647
  297THF    H13 5801   3.442   0.016   1.647 -0.0903 -0.7540 -1.2947
  298THF     O1 5802   2.085   2.072   1.354  0.4233 -0.5380  0.0803
  298THF     C2 5803   2.076   2.216   1.328 -0.2974 -0.2220  0.0948
  298THF     C3 5804   2.099   2.061   1.495  0.0687  0.2520  0.3224
  298THF     H4 5805   2.054   2.227   1.223  0.2741 -0.4477  1.2181
  298THF     H5 5806   2.180   2.254   1.342  1.8226  0.8240 -0.5148
  298THF     H6 5807   2.062   1.956   1.520 -2.0260  1.7025 -0.3431
  298THF     H7 5808   2.210   2.071   1.529 -3.6913 -0.8961 -0.6477
  298THF     C8 5809   2.019   2.180   1.557  0.0915 -0.3598 -0.3551
  298THF     C9 5810   1.986   2.278   1.434  0.2552 -0.6039  0.0952
  298THF    H10 5811   2.093   2.214   1.627  0.6416 -0.2029 -2.6689
  298THF    H11 5812   1.930   2.144   1.610 -1.2685  0.4725 -2.2948
  298THF    H12 5813   1.884   2.271   1.403 -0.4566 -0.4863  1.3810
  298THF    H13 5814   1.983   2.389   1.446  1.3521  2.5766 -2.1341
  299THF     O1 5815   3.144   3.974   0.635 -0.4070  0.0837 -0.0548
  299THF     C2 5816   3.095   4.006   0.767 -0.4190  0.5994 -0.1114
  299THF     C3 5817   3.274   3.929   0.642 -0.9692  0.6003  0.0335
  299THF     H4 5818   3.094   3.915   0.826 -0.9693  1.8545  2.1802
  299THF     H5 5819   2.992   4.049   0.760 -0.9891  0.1995 -4.7369
  299THF     H6 5820   3.272   3.826   0.681 -0.4289 -1.0955 -0.4522
  299THF     H7 5821   3.338   3.924   0.551  3.3268 -2.4413  0.3444
  299THF     C8 5822   3.333   4.026   0.746  0.0903  0.4207 -0.1168
  299THF     C9 5823   3.210   4.091   0.807 -0.4231  0.6873  0.4921
  299THF    H10 5824   3.403   4.105   0.704  3.0370 -1.0040  0.2041
  299THF    H11 5825   3.379   3.966   0.826 -0.9534 -3.4920 -1.2209
  299THF    H12 5826   3.211   4.125   0.916 -1.3004 -1.9816  0.1875
  299THF    H13 5827   3.184   4.188   0.761 -1.2615 -0.9428 -1.8390
  300THF     O1 5828   2.725   1.351   1.060  0.0751  0.1506  0.3648
  300THF     C2 5829   2.763   1.296   0.936 -0.5128  0.1153 -0.6411
  300THF     C3 5830   2.838   1.400   1.130 -0.2145 -0.5827 -0.0543
  300THF     H4 5831   2.676   1.281   0.870  0.1604  0.4068  1.8121
  300THF     H5 5832   2.803   1.198   0.953 -0.8980  0.8037  1.1502
  300THF     H6 5833   2.802   1.473   1.201  0.2412 -1.5930  1.5382
  300THF     H7 5834   2.881   1.321   1.189 -0.5341 -3.2282 -0.1339
  300THF     C8 5835   2.916   1.458   1.015 -0.4390 -0.7134  0.1057
  300THF     C9 5836   2.875   1.384   0.892  0.5533 -0.1388 -0.2344
  300THF    H10 5837   3.025   1.433   1.049 -0.3659 -1.0913 -1.2639
  300THF    H11 5838   2.901   1.562   1.001 -1.2691 -1.5705  0.1403
  300THF    H12 5839   2.857   1.445   0.808  0.4024 -0.6201 -1.4489
  300THF    H13 5840   2.954   1.318   0.873 -1.1387  0.5761 -1.3062
  301THF     O1 5841   2.107   4.667   1.304 -0.1878 -0.2101 -0.1150
  301THF     C2 5842   2.044   4.717   1.186  0.8614  0.0950 -0.1428
  301THF     C3 5843   2.026   4.565   1.362 -0.7522 -0.0658  0.4515
  301THF     H4 5844   2.072   4.667   1.095  3.0767  1.4336  0.4721
  301THF     H5 5845   2.069   4.827   1.187 -0.5703  2.4726 -0.1508
  301THF     H6 5846   2.039   4.474   1.302 -0.2697 -3.1928  0.5530
  301THF     H7 5847   2.043   4.550   1.469 -1.8171  1.7320  0.6957
  301THF     C8 5848   1.888   4.624   1.348  0.2165  0.5532  0.0179
  301THF     C9 5849   1.893   4.699   1.214 -0.5718  0.2402 -0.5161
  301THF    H10 5850   1.875   4.703   1.420 -0.0048  2.0083 -1.6330
  301THF    H11 5851   1.805   4.559   1.359  1.3832 -0.2440  1.6428
  301THF    H12 5852   1.850   4.659   1.131  1.5697  0.1625  2.2365
  301THF    H13 5853   1.842   4.794   1.231  0.1386  1.5110 -0.9615
  302THF     O1 5854   0.834   2.000   0.479  0.5516 -0.3886  0.1225
  302THF     C2 5855   0.903   1.973   0.598  0.0082  0.0320 -0.5115
  302THF     C3 5856   0.802   2.142   0.475  0.2270 -0.1404 -0.1563
  302THF     H4 5857   1.005   1.943   0.579  0.7463  0.8862 -0.4295
  302THF     H5 5858   0.848   1.900   0.657  4.1345 -0.4556  0.3881
  302THF     H6 5859   0.868   2.195   0.408  1.4003 -1.7966  0.4547
  302THF     H7 5860   0.693   2.153   0.435 -0.3121  0.1660 -0.3325
  302THF     C8 5861   0.797   2.187   0.623  0.3348 -0.1604  0.1588
  302THF     C9 5862   0.919   2.109   0.671 -0.6434 -0.4893  0.3697
  302THF    H10 5863   0.701   2.161   0.674  1.0304  0.5385  0.1993
  302THF    H11 5864   0.798   2.297   0.633  1.2367  2.3488 -2.0326
  302THF    H12 5865   1.012   2.160   0.643  1.2258  1.4263  0.0384
  302THF    H13 5866   0.918   2.096   0.780  2.0102  1.8819 -1.8895
  303THF     O1 5867   3.138   2.298   4.630 -1.2049 -0.4097 -0.5768
  303THF     C2 5868   3.101   2.160   4.591  0.1382 -0.7286  0.0660
  303THF     C3 5869   3.134   2.375   4.516 -0.5304  0.1113  0.7226
  303THF     H4 5870   2.989   2.153   4.599 -0.2659 -0.7617 -1.7929
  303THF     H5 5871   3.148   2.079   4.649  0.6278 -1.8919  0.2616
  303THF     H6 5872   3.024   2.385   4.504 -1.0057 -0.3071 -1.1618
  303THF     H7 5873   3.178   2.475   4.520 -1.8438  0.7783 -1.7667
  303THF     C8 5874   3.205   2.285   4.412  0.9105 -0.4798 -0.0142
  303THF     C9 5875   3.147   2.149   4.443  0.1262 -0.1065 -0.7772
  303THF    H10 5876   3.314   2.278   4.438  1.0176 -0.1595  0.5655
  303THF    H11 5877   3.179   2.329   4.312 -0.0348 -1.0586  0.8852
  303THF    H12 5878   3.054   2.133   4.392 -2.0168 -0.8350 -0.8220
  303THF    H13 5879   3.215   2.073   4.428 -0.9701  0.6747  2.1434
  304THF     O1 5880   0.736   4.697   5.089 -0.8089 -0.7192  0.0106
  304THF     C2 5881   0.615   4.745   5.153  0.3460  0.5399 -0.4416
  304THF     C3 5882   0.703   4.674   4.954  0.3986 -0.3380  0.6278
  304THF     H4 5883   0.591   4.848   5.125  1.0041  1.3596  0.5632
  304THF     H5 5884   0.635   4.741   5.261  1.7311  0.4505  0.9614
  304THF     H6 5885   0.695   4.764   4.894  1.2319 -0.3794  0.7628
  304THF     H7 5886   0.777   4.615   4.910 -0.9669 -0.9853 -0.2653
  304THF     C8 5887   0.567   4.610   4.961 -0.3361  0.0271 -0.1487
  304THF     C9 5888   0.511   4.644   5.100 -0.2046  0.2189 -0.2231
  304THF    H10 5889   0.593   4.508   4.945 -2.8255 -0.7995  0.7823
  304THF    H11 5890   0.507   4.645   4.878  1.7325  1.4317  2.2568
  304THF    H12 5891   0.421   4.694   5.094  1.7464 -0.4830 -0.0224
  304THF    H13 5892   0.491   4.565   5.172  1.0986 -0.2895  0.3427
  305THF     O1 5893   0.314   0.627   0.110  0.4009  0.0476  0.3745
  305THF     C2 5894   0.413   0.709   0.175 -0.4378  0.3629 -0.3918
  305THF     C3 5895   0.224   0.714   0.052  0.1852 -0.2026  0.0775
  305THF     H4 5896   0.480   0.745   0.104  1.8994  1.6917  2.8980
  305THF     H5 5897   0.469   0.640   0.245  1.8039  1.1086 -0.3807
  305THF     H6 5898   0.263   0.752  -0.043  1.2863 -2.0857 -0.3817
  305THF     H7 5899   0.132   0.664   0.027 -3.4535 -1.9923 -2.7633
  305THF     C8 5900   0.212   0.834   0.144 -0.7333 -0.1760  0.0046
  305THF     C9 5901   0.329   0.817   0.239 -0.1628  1.0055 -0.6334
  305THF    H10 5902   0.113   0.834   0.185 -1.4711  0.1488  1.4728
  305THF    H11 5903   0.205   0.928   0.088 -2.8968 -0.4635 -1.6103
  305THF    H12 5904   0.390   0.912   0.230  1.4902  1.6087  1.6905
  305THF    H13 5905   0.306   0.785   0.340  2.5268 -2.7569 -0.1977
  306THF     O1 5906   0.942   1.484   1.702 -0.2263  0.1051 -0.0744
  306THF     C2 5907   0.885   1.514   1.827  0.1547  0.1724  0.7000
  306THF     C3 5908   0.860   1.401   1.624 -0.4419  0.4634  0.2768
  306THF     H4 5909   0.929   1.592   1.883  1.9444  0.8256  2.7467
  306THF     H5 5910   0.887   1.423   1.888  0.7002 -0.2119  1.0745
  306THF     H6 5911   0.875   1.414   1.515  2.0541 -1.0783 -0.5821
  306THF     H7 5912   0.878   1.288   1.637  0.0936  1.2474  1.3725
  306THF     C8 5913   0.717   1.438   1.669 -0.1369  0.3155 -0.8289
  306THF     C9 5914   0.739   1.543   1.781  0.6347  0.4414 -0.2034
  306THF    H10 5915   0.653   1.352   1.696 -2.0190 -0.4440 -2.9811
  306THF    H11 5916   0.661   1.483   1.584  0.1416 -2.8091  2.6841
  306THF    H12 5917   0.735   1.642   1.730  1.1162  0.5415 -1.7411
  306THF    H13 5918   0.669   1.549   1.862 -0.4775 -1.2938  1.5815
  307THF     O1 5919   4.171   2.095   1.373  1.0431  0.4596 -0.0889
  307THF     C2 5920   4.102   2.072   1.500  0.8306 -0.1392 -0.0944
  307THF     C3 5921   4.262   1.992   1.354 -0.5666  0.4040  0.2696
  307THF     H4 5922   4.046   1.986   1.492 -0.8741 -0.7059 -1.1861
  307THF     H5 5923   4.031   2.150   1.532  0.0203  1.5896 -1.9482
  307THF     H6 5924   4.205   1.908   1.343 -1.5226  0.5078 -0.5635
  307THF     H7 5925   4.334   1.999   1.271 -1.2840 -0.5126  0.2329
  307THF     C8 5926   4.327   1.986   1.487 -0.2843 -0.6734  0.2769
  307THF     C9 5927   4.224   2.034   1.586  0.3252 -0.1086 -0.4064
  307THF    H10 5928   4.416   2.053   1.493  0.7648 -0.9961 -0.3398
  307THF    H11 5929   4.363   1.891   1.507 -1.8415 -0.4598 -0.8341
  307THF    H12 5930   4.205   1.950   1.655  1.7291  0.2775 -1.0696
  307THF    H13 5931   4.255   2.114   1.649  2.1160 -0.0157 -0.8525
  308THF     O1 5932   0.526   4.702   1.077 -0.3115 -0.2473  0.0090
  308THF     C2 5933   0.390   4.736   1.062  0.2064 -0.6437  0.1494
  308THF     C3 5934   0.550   4.710   1.214 -0.1440  0.1371  0.4285
  308THF     H4 5935   0.322   4.657   1.095 -0.7801 -0.1931  3.7812
  308THF     H5 5936   0.366   4.761   0.953  1.1411  1.3205 -2.1686
  308THF     H6 5937   0.513   4.617   1.263  2.7705  1.0234 -0.9719
  308THF     H7 5938   0.656   4.712   1.240  2.4849  2.4461 -0.6909
  308THF     C8 5939   0.473   4.836   1.260  0.4999  0.3517  0.3011
  308THF     C9 5940   0.369   4.862   1.149  0.1263 -0.2603  0.4065
  308THF    H10 5941   0.541   4.914   1.257 -0.6547 -0.7203  0.8178
  308THF    H11 5942   0.424   4.824   1.358 -0.4475  2.0552 -0.7585
  308THF    H12 5943   0.267   4.872   1.196  1.2705 -1.3744  4.1817
  308THF    H13 5944   0.381   4.952   1.090  1.6084  2.4770 -1.2627
  309THF     O1 5945   3.238   3.643   4.174 -0.0659  0.5815 -0.0533
  309THF     C2 5946   3.249   3.551   4.282  0.9223  0.1794 -0.0455
  309THF     C3 5947   3.344   3.734   4.174 -0.8129  0.1672  0.5918
  309THF     H4 5948   3.209   3.457   4.253 -0.6029 -0.9254  0.4492
  309THF     H5 5949   3.188   3.587   4.363  2.2185 -2.7007 -2.5232
  309THF     H6 5950   3.389   3.712   4.081  2.5043 -2.6200 -1.3844
  309THF     H7 5951   3.305   3.837   4.181 -0.0084  0.2323  1.5890
  309THF     C8 5952   3.433   3.705   4.288  0.0230  0.1069 -0.5399
  309THF     C9 5953   3.398   3.557   4.316 -0.2986  0.4367  0.1874
  309THF    H10 5954   3.418   3.769   4.375 -2.9879  0.1068 -2.3412
  309THF    H11 5955   3.542   3.711   4.263 -0.0144 -0.8567 -0.6716
  309THF    H12 5956   3.464   3.489   4.264 -0.6442 -1.2933 -2.9052
  309THF    H13 5957   3.423   3.540   4.421  1.3090 -3.3572 -2.2602
  310THF     O1 5958   1.193   3.860   0.855 -0.3202 -0.7482 -0.2065
  310THF     C2 5959   1.139   3.952   0.762 -0.0807  0.0301 -0.6671
  310THF     C3 5960   1.084   3.762   0.871 -0.4915 -0.3657  0.3127
  310THF     H4 5961   1.164   3.919   0.663  2.1062 -0.0115 -0.1389
  310THF     H5 5962   1.181   4.049   0.763  0.9780 -0.6636  1.7000
  310THF     H6 5963   1.067   3.704   0.778  1.3554 -3.5960  1.1093
  310THF     H7 5964   1.116   3.693   0.947  2.0174  0.5126  1.9376
  310THF     C8 5965   0.965   3.853   0.894 -0.0431 -0.2110  0.4595
  310THF     C9 5966   0.986   3.969   0.791 -0.1416 -0.7896  0.6075
  310THF    H10 5967   0.965   3.898   0.994  1.5631 -2.1641 -2.3055
  310THF    H11 5968   0.871   3.799   0.885 -1.6373  0.5181  3.3228
  310THF    H12 5969   0.932   3.952   0.698  0.3370  2.3176 -1.8104
  310THF    H13 5970   0.967   4.068   0.839  1.6716  1.1079 -1.6093
  311THF     O1 5971   5.384   4.983   3.651 -0.1943 -0.1698 -0.7631
  311THF     C2 5972   5.417   4.852   3.695 -0.5709 -0.1253 -0.1189
  311THF     C3 5973   5.499   5.064   3.645  0.1307 -0.7011 -0.9075
  311THF     H4 5974   5.411   4.784   3.608 -0.4504 -1.2373 -0.3335
  311THF     H5 5975   5.337   4.812   3.747  1.8056 -3.2321 -3.6873
  311THF     H6 5976   5.539   5.046   3.546  2.0487 -2.5290 -1.2059
  311THF     H7 5977   5.482   5.172   3.665  2.8963 -1.8136 -3.6657
  311THF     C8 5978   5.587   5.015   3.754  0.1382  0.3178  0.0237
  311THF     C9 5979   5.557   4.863   3.759  0.1980 -0.0180 -0.4450
  311THF    H10 5980   5.559   5.064   3.841 -0.2363 -2.5065 -1.3123
  311THF    H11 5981   5.691   5.043   3.751 -1.0732  0.7863  2.5877
  311THF    H12 5982   5.646   4.824   3.696  2.7480  1.5249 -0.9185
  311THF    H13 5983   5.564   4.811   3.851 -0.1170  1.0531 -0.9625
  312THF     O1 5984   5.351   1.822   1.678 -0.0366  0.3907 -0.4570
  312THF     C2 5985   5.326   1.779   1.550  0.2161  0.4575  0.5953
  312THF     C3 5986   5.383   1.962   1.682 -0.1730 -0.0144  0.2138
  312THF     H4 5987   5.253   1.697   1.553 -2.5081 -0.5958 -1.0116
  312THF     H5 5988   5.425   1.746   1.511 -1.7935 -0.1255 -1.3467
  312THF     H6 5989   5.347   2.020   1.762  0.1727  0.4112  0.4136
  312THF     H7 5990   5.499   1.974   1.677 -1.9731  0.9603  1.4707
  312THF     C8 5991   5.329   2.018   1.550  0.3286  0.1466  0.7338
  312THF     C9 5992   5.270   1.896   1.479 -0.9954 -0.0272 -0.1275
  312THF    H10 5993   5.409   2.063   1.491 -0.0003 -1.7528  0.6747
  312THF    H11 5994   5.259   2.091   1.575  1.7622  0.8850 -1.5930
  312THF    H12 5995   5.165   1.898   1.488 -0.4587  0.5934  3.6789
  312THF    H13 5996   5.290   1.904   1.374 -1.6511 -0.5959 -2.5486
  313THF     O1 5997   4.202   2.067   4.357  0.5502  0.3386  0.1966
  313THF     C2 5998   4.182   2.210   4.388  0.7615  0.2161  0.5127
  313THF     C3 5999   4.076   2.011   4.336 -0.2896  0.0421 -0.2951
  313THF     H4 6000   4.276   2.256   4.369  2.0614  1.9998  1.0301
  313THF     H5 6001   4.140   2.216   4.489 -0.3817 -3.0649  0.9423
  313THF     H6 6002   4.076   1.930   4.270 -1.2273  1.5612  1.0428
  313THF     H7 6003   4.044   1.976   4.432 -0.0745 -1.8279  0.4380
  313THF     C8 6004   3.993   2.126   4.280  0.4810  0.7342 -0.1671
  313THF     C9 6005   4.077   2.245   4.288 -0.3896 -0.5283  0.7268
  313THF    H10 6006   3.902   2.138   4.345 -0.2687 -1.4775 -0.9458
  313THF    H11 6007   3.955   2.104   4.177 -0.1321 -1.8746 -0.3222
  313THF    H12 6008   4.123   2.271   4.191 -0.9986 -0.5839  1.3420
  313THF    H13 6009   4.029   2.340   4.296  1.3128 -0.4313 -1.6210
  314THF     O1 6010   1.821   0.293   0.290 -0.1174 -0.7242  0.1868
  314THF     C2 6011   1.794   0.320   0.158 -0.3869  0.3663  0.5096
  314THF     C3 6012   1.829   0.154   0.315  0.2672  0.3046  0.9371
  314THF     H4 6013   1.836   0.419   0.136  0.2559 -0.0551  1.2195
  314THF     H5 6014   1.693   0.308   0.120  1.1173  1.7705 -0.9123
  314THF     H6 6015   1.907   0.127   0.387  4.3509 -2.4030 -2.5974
  314THF     H7 6016   1.748   0.111   0.378  0.2756  0.2147  2.8614
  314THF     C8 6017   1.851   0.091   0.183  0.1516  0.8528  0.1137
  314THF     C9 6018   1.873   0.206   0.083 -0.0074 -0.3335 -0.5234
  314THF    H10 6019   1.757   0.036   0.155  0.3091  0.0630  1.9714
  314THF    H11 6020   1.938   0.010   0.183 -0.0210 -0.2749  0.2232
  314THF    H12 6021   1.985   0.212   0.065  1.5269  2.5003 -0.9787
  314THF    H13 6022   1.831   0.198  -0.012  0.2039 -0.3109 -1.5049
  315THF     O1 6023   2.225   1.791   0.931  0.2796 -0.0885 -0.1984
  315THF     C2 6024   2.314   1.902   0.952  0.3212  0.0647 -0.2966
  315THF     C3 6025   2.105   1.844   0.881  0.5400  0.3820  0.0950
  315THF     H4 6026   2.331   1.950   0.858 -1.4854 -2.5033  1.1096
  315THF     H5 6027   2.404   1.893   1.008 -0.9640  0.3416 -0.1080
  315THF     H6 6028   2.117   1.876   0.779 -0.1881 -0.8104  1.1204
  315THF     H7 6029   2.023   1.769   0.894  1.7157 -0.8473  0.8702
  315THF     C8 6030   2.086   1.970   0.972 -0.2784  0.7965  0.0191
  315THF     C9 6031   2.224   1.992   1.034 -0.0658 -0.0238 -0.1943
  315THF    H10 6032   2.008   1.950   1.047  0.9821  0.9674 -1.0827
  315THF    H11 6033   2.050   2.064   0.930  0.6193 -1.5100  3.7451
  315THF    H12 6034   2.252   2.102   1.026  1.8242  0.7300 -1.0061
  315THF    H13 6035   2.227   1.956   1.130 -2.2098 -0.3468 -2.5422
  316THF     O1 6036   1.369   5.013   3.430 -0.7964 -0.2502 -0.1352
  316THF     C2 6037   1.370   5.149   3.389 -0.4397  0.3461  0.2757
  316THF     C3 6038   1.249   5.001   3.506 -0.3276  0.1428 -0.2998
  316THF     H4 6039   1.427   5.150   3.299  2.7882 -0.0200 -3.1261
  316THF     H5 6040   1.422   5.208   3.462  1.5147  1.9755  1.0135
  316THF     H6 6041   1.212   4.906   3.518 -0.2948  1.4177  0.2754
  316THF     H7 6042   1.271   5.036   3.608 -1.7893  1.2967  1.4938
  316THF     C8 6043   1.143   5.087   3.438  0.0380 -0.4486 -0.2276
  316THF     C9 6044   1.226   5.196   3.378 -0.0606 -0.4715 -0.0685
  316THF    H10 6045   1.075   5.136   3.512 -1.2381  0.0798 -2.0958
  316THF    H11 6046   1.085   5.033   3.361 -2.5654 -0.7004 -1.2089
  316THF    H12 6047   1.192   5.220   3.279  0.8217 -2.8550  0.5439
  316THF    H13 6048   1.222   5.290   3.432 -0.1946  1.5014 -0.7118
  317THF     O1 6049   3.049   0.306   0.067 -0.3218  0.2230 -0.2483
  317THF     C2 6050   3.000   0.206   0.156  0.0975 -0.0200  0.0544
  317THF     C3 6051   3.123   0.410   0.133 -0.1616 -0.9189  0.5519
  317THF     H4 6052   2.980   0.112   0.104 -2.4812  0.5605  0.2240
  317THF     H5 6053   2.908   0.238   0.215  0.2998 -0.2838 -0.2451
  317THF     H6 6054   3.188   0.456   0.064  1.3577 -2.0040 -3.2211
  317THF     H7 6055   3.054   0.477   0.185  0.2517 -1.4101 -0.5357
  317THF     C8 6056   3.188   0.336   0.245 -0.0476 -0.3862  0.1118
  317THF     C9 6057   3.117   0.201   0.246  0.6097  0.0949  0.6769
  317THF    H10 6058   3.180   0.399   0.334 -2.7718 -0.1131  0.4681
  317THF    H11 6059   3.292   0.329   0.214  0.9972 -0.8662 -0.1246
  317THF    H12 6060   3.185   0.131   0.196 -1.1844  0.7722 -0.9148
  317THF    H13 6061   3.111   0.157   0.342 -1.2989  2.3467  0.9634
  318THF     O1 6062   4.847   3.989   0.817  0.4217  0.1149 -0.6521
  318THF     C2 6063   4.882   3.903   0.926  0.6575 -0.6011 -0.4543
  318THF     C3 6064   4.747   4.074   0.866  0.5568  0.2307 -0.1676
  318THF     H4 6065   4.988   3.870   0.921 -0.0435 -0.5249 -1.5168
  318THF     H5 6066   4.811   3.815   0.906 -0.3919 -1.2986 -0.9846
  318THF     H6 6067   4.726   4.149   0.789 -0.8244 -0.9406  0.4313
  318THF     H7 6068   4.646   4.024   0.872 -1.5309  2.6206  0.9826
  318THF     C8 6069   4.792   4.117   1.004  0.0477  0.3851  0.6683
  318THF     C9 6070   4.852   3.983   1.057 -0.2311  0.1188  0.5251
  318THF    H10 6071   4.701   4.137   1.059  0.1902  0.3626 -4.1101
  318THF    H11 6072   4.870   4.199   1.008 -1.2942  2.2014 -0.9560
  318THF    H12 6073   4.937   4.014   1.112  2.4436 -0.0321 -0.2885
  318THF    H13 6074   4.779   3.933   1.124  2.7277 -0.5214  1.2921
  319THF     O1 6075   1.135   2.334   4.290 -0.1868 -0.4936  0.2424
  319THF     C2 6076   1.237   2.298   4.379 -0.4221  0.1507 -0.1370
  319THF     C3 6077   1.123   2.479   4.296 -0.6488 -0.6444 -0.7198
  319THF     H4 6078   1.270   2.192   4.353  2.3053  0.0901 -0.3863
  319THF     H5 6079   1.208   2.300   4.485 -1.1033  0.3595  1.8471
  319THF     H6 6080   1.065   2.534   4.226  0.4341  0.2574 -0.3201
  319THF     H7 6081   1.086   2.506   4.395 -0.1149 -2.0739  0.2996
  319THF     C8 6082   1.276   2.505   4.280 -0.2495  0.0879 -0.1417
  319THF     C9 6083   1.346   2.393   4.359 -0.3939  0.0439 -0.3582
  319THF    H10 6084   1.299   2.603   4.325  2.5923 -0.3980 -0.9100
  319THF    H11 6085   1.309   2.514   4.178  0.1268  0.8897  1.2362
  319THF    H12 6086   1.422   2.336   4.303  2.4901 -3.7873  0.9101
  319THF    H13 6087   1.387   2.406   4.458 -1.5015  1.0143  0.2843
  320THF     O1 6088   4.394   2.879   0.358  0.5851  0.3018  0.2801
  320THF     C2 6089   4.250   2.877   0.329 -0.3067 -0.2663  0.0343
  320THF     C3 6090   4.455   2.838   0.235  0.3474 -0.4863 -0.4662
  320THF     H4 6091   4.198   2.934   0.408  3.1488 -0.6938  2.9138
  320THF     H5 6092   4.212   2.781   0.330  0.5258  0.4250 -1.0420
  320THF     H6 6093   4.559   2.856   0.229  1.3895  4.8456  2.4543
  320THF     H7 6094   4.433   2.732   0.236  1.3750  1.4134  0.5079
  320THF     C8 6095   4.367   2.899   0.121  0.3716  0.5437  0.4618
  320THF     C9 6096   4.238   2.938   0.193  0.4603  0.7376 -0.1650
  320THF    H10 6097   4.353   2.835   0.035  0.8977 -1.0138 -2.5167
  320THF    H11 6098   4.409   2.991   0.086  0.4422 -2.2225 -0.3725
  320THF    H12 6099   4.235   3.042   0.201  0.1102 -2.8985 -1.0763
  320THF    H13 6100   4.152   2.896   0.135  0.0173  0.9477 -0.8670
  321THF     O1 6101   3.974   2.904   4.499  0.4912  0.0841  0.1422
  321THF     C2 6102   3.883   3.009   4.528 -0.2209  0.2561 -0.6944
  321THF     C3 6103   4.103   2.962   4.513 -0.6012 -0.4136 -0.2543
  321THF     H4 6104   3.773   2.977   4.537 -2.2800 -1.7179  0.2167
  321THF     H5 6105   3.894   3.094   4.453 -2.6126  2.8558 -1.7594
  321THF     H6 6106   4.178   2.881   4.534 -0.5337  0.2353  0.4594
  321THF     H7 6107   4.136   3.017   4.422  0.9054  0.3010 -1.2278
  321THF     C8 6108   4.082   3.042   4.639  0.7448  0.3531  0.7567
  321THF     C9 6109   3.935   3.059   4.654 -0.3367  0.5603 -0.1406
  321THF    H10 6110   4.124   3.137   4.629 -3.2126  2.2667  0.5661
  321THF    H11 6111   4.136   2.998   4.725  2.7732 -1.6669  1.9795
  321THF    H12 6112   3.895   2.998   4.736  0.9470  2.2557  0.0343
  321THF    H13 6113   3.900   3.162   4.674  1.2359  0.2636  0.4816
  322THF     O1 6114   2.275   1.339   1.135  0.2277  0.0368  0.0576
  322THF     C2 6115   2.388   1.343   1.218 -0.7316 -0.3974  0.1885
  322THF     C3 6116   2.186   1.257   1.211 -0.1638  0.0105 -0.7098
  322THF     H4 6117   2.375   1.407   1.303  1.2932 -0.6732  1.6499
  322THF     H5 6118   2.482   1.385   1.176  1.1005 -1.0844 -0.1869
  322THF     H6 6119   2.135   1.323   1.280  1.2779 -0.7994 -1.6292
  322THF     H7 6120   2.100   1.224   1.147 -1.7822 -0.2847 -0.1046
  322THF     C8 6121   2.275   1.146   1.265  0.2009  0.1439  0.6054
  322THF     C9 6122   2.413   1.199   1.248 -0.5065 -0.2861  0.0222
  322THF    H10 6123   2.255   1.059   1.200 -1.0714  0.4504 -1.8154
  322THF    H11 6124   2.259   1.113   1.367  0.1687 -1.7501 -0.9098
  322THF    H12 6125   2.465   1.204   1.342 -1.4939  0.7874  0.2906
  322THF    H13 6126   2.471   1.154   1.176  1.8383 -0.1633  1.0885
  323THF     O1 6127   1.187   0.537   0.693 -0.0326 -0.8294  0.6127
  323THF     C2 6128   1.277   0.587   0.792  1.3249  0.5164 -0.4315
  323THF     C3 6129   1.268   0.464   0.598  0.4493  0.1579  0.1758
  323THF     H4 6130   1.292   0.512   0.862  1.8924  0.4437 -3.0279
  323THF     H5 6131   1.227   0.674   0.844 -0.3714 -2.0641 -1.3441
  323THF     H6 6132   1.250   0.357   0.622  0.7278  1.2877 -0.3394
  323THF     H7 6133   1.235   0.479   0.498  0.5841 -0.3202  0.6565
  323THF     C8 6134   1.416   0.503   0.623 -0.3787  0.4753  0.4431
  323THF     C9 6135   1.412   0.616   0.724  1.0793  0.5612 -0.5659
  323THF    H10 6136   1.453   0.534   0.529 -1.5959 -2.3891 -1.1677
  323THF    H11 6137   1.465   0.414   0.658  2.0792  2.5689  1.0038
  323THF    H12 6138   1.485   0.612   0.803 -0.7606 -2.4325  0.1772
  323THF    H13 6139   1.413   0.721   0.682 -2.1641  0.1012  0.6536
  324THF     O1 6140   1.675   2.687   3.438  0.0735  0.4037 -0.6183
  324THF     C2 6141   1.735   2.568   3.496 -0.1478  0.2771  0.1914
  324THF     C3 6142   1.726   2.802   3.498  0.1194  0.0452 -0.0529
  324THF     H4 6143   1.745   2.484   3.425  1.0131  1.6423  2.2256
  324THF     H5 6144   1.682   2.539   3.583 -0.1585  1.0309  0.2929
  324THF     H6 6145   1.713   2.881   3.426 -3.8023 -0.9657 -0.2017
  324THF     H7 6146   1.679   2.826   3.588  0.6290  2.3796  1.6024
  324THF     C8 6147   1.875   2.766   3.514  0.6688  0.1291 -0.5324
  324THF     C9 6148   1.877   2.614   3.537  0.8198 -0.3113 -0.3544
  324THF    H10 6149   1.916   2.824   3.592 -0.8633 -0.2542  0.8675
  324THF    H11 6150   1.929   2.782   3.415  0.1799 -3.0569 -0.8675
  324THF    H12 6151   1.954   2.571   3.471 -3.9180  1.1143  2.1375
  324THF    H13 6152   1.891   2.589   3.643 -1.0232 -1.7543 -0.1999
  325THF     O1 6153   2.556   1.430   1.590 -0.4222 -0.1337 -0.2520
  325THF     C2 6154   2.643   1.474   1.485  0.2008 -0.1514 -0.6271
  325THF     C3 6155   2.627   1.342   1.678  0.0514 -0.1173 -0.0167
  325THF     H4 6156   2.624   1.576   1.460  4.7623  1.6024  2.8825
  325THF     H5 6157   2.651   1.402   1.399  0.1315 -3.1725  0.1742
  325THF     H6 6158   2.601   1.348   1.784 -1.2584  0.0547  0.0084
  325THF     H7 6159   2.603   1.242   1.648 -2.3570 -0.0057  1.0743
  325THF     C8 6160   2.784   1.365   1.651  0.2603 -0.3379 -0.3361
  325THF     C9 6161   2.784   1.479   1.548 -0.3628 -0.5014  0.6075
  325THF    H10 6162   2.825   1.278   1.612 -0.8012 -0.8129 -0.7754
  325THF    H11 6163   2.834   1.391   1.743  1.2640 -0.6293 -3.0560
  325THF    H12 6164   2.810   1.577   1.590  1.6961  0.4579 -2.3544
  325THF    H13 6165   2.872   1.460   1.484  2.1535  0.1060 -1.9124
  326THF     O1 6166   1.671   4.640   4.189 -0.2500  0.0535  0.5740
  326THF     C2 6167   1.523   4.640   4.171  0.0243 -0.6218  0.2454
  326THF     C3 6168   1.709   4.774   4.187  0.6865 -0.9820 -0.2059
  326THF     H4 6169   1.494   4.545   4.205  1.4911  2.1994  1.1109
  326THF     H5 6170   1.491   4.668   4.071  0.9764 -0.3600 -0.1320
  326THF     H6 6171   1.812   4.787   4.226 -2.5799 -0.1700  1.4258
  326THF     H7 6172   1.719   4.802   4.083  0.0823 -1.9902 -0.4286
  326THF     C8 6173   1.596   4.841   4.274 -0.6746  0.3092  1.5414
  326THF     C9 6174   1.478   4.746   4.272 -0.3548  0.0080  0.5606
  326THF    H10 6175   1.583   4.940   4.229  1.2784  1.1325  0.5137
  326THF    H11 6176   1.646   4.858   4.374  1.2479  1.6164 -2.1732
  326THF    H12 6177   1.468   4.695   4.367 -2.3589  0.6252 -1.4967
  326THF    H13 6178   1.384   4.789   4.254  0.4198 -3.3148 -0.0329
  327THF     O1 6179   3.941   4.901   2.178  0.4278 -0.0433 -0.1222
  327THF     C2 6180   3.956   4.834   2.303  0.5157  0.5742 -0.7588
  327THF     C3 6181   3.815   4.849   2.124  0.2679 -0.2833  1.0478
  327THF     H4 6182   3.892   4.878   2.384  0.4761 -2.6144  2.2617
  327THF     H5 6183   4.056   4.825   2.331 -0.1627  0.4858 -1.4628
  327THF     H6 6184   3.726   4.895   2.169 -0.7985  1.0479 -2.4363
  327THF     H7 6185   3.824   4.877   2.014 -1.3666 -0.5916 -1.9600
  327THF     C8 6186   3.825   4.699   2.159  1.2048 -0.1531  0.1915
  327THF     C9 6187   3.901   4.696   2.284  0.3828 -0.7003  0.0465
  327THF    H10 6188   3.885   4.649   2.091 -3.4901  0.3363 -0.8410
  327THF    H11 6189   3.737   4.640   2.168  0.5082 -0.8839 -0.8664
  327THF    H12 6190   3.845   4.662   2.373  2.0277  0.4514  2.8042
  327THF    H13 6191   3.983   4.626   2.272  0.5259  0.6624 -0.2630
  328THF     O1 6192   2.130   3.666   5.160 -0.1376  0.3063 -0.0198
  328THF     C2 6193   2.110   3.554   5.077 -0.0582  0.1600  0.1736
  328THF     C3 6194   2.134   3.629   5.295 -0.5762 -0.0900  0.4928
  328THF     H4 6195   2.208   3.503   5.089 -0.5824 -0.9350  0.2924
  328THF     H5 6196   2.092   3.577   4.968 -1.4289  0.6546 -2.0928
  328THF     H6 6197   2.235   3.595   5.309 -0.1772 -0.5083  2.2850
  328THF     H7 6198   2.116   3.714   5.367  0.9971 -1.0243 -1.2176
  328THF     C8 6199   2.032   3.518   5.305  0.3622 -0.3464  0.6799
  328THF     C9 6200   2.009   3.475   5.158  0.5247 -0.4202  1.0389
  328THF    H10 6201   1.938   3.555   5.346 -1.7212 -0.5527 -2.1468
  328THF    H11 6202   2.071   3.445   5.382  0.1775  0.8475  0.1716
  328THF    H12 6203   2.014   3.361   5.146  2.4267 -3.8493  2.4613
  328THF    H13 6204   1.906   3.504   5.125 -0.4996 -1.0421 -0.3840
  329THF     O1 6205   2.308   1.662   5.340 -0.1071 -0.0630  0.2973
  329THF     C2 6206   2.416   1.676   5.433 -0.0070  0.2645 -0.0129
  329THF     C3 6207   2.284   1.519   5.318  0.2006 -0.1561  0.5421
  329THF     H4 6208   2.398   1.672   5.538  1.1124  0.1041  0.6382
  329THF     H5 6209   2.467   1.768   5.419  0.3921 -0.9819 -2.0776
  329THF     H6 6210   2.220   1.486   5.395 -0.8757 -1.8451 -3.4400
  329THF     H7 6211   2.242   1.482   5.219  0.3478 -1.8087 -0.0847
  329THF     C8 6212   2.417   1.451   5.325 -0.1492  0.5501 -0.0225
  329THF     C9 6213   2.506   1.554   5.393 -0.7104 -0.0180 -1.0211
  329THF    H10 6214   2.461   1.434   5.233  3.1006 -0.7421  1.9132
  329THF    H11 6215   2.413   1.358   5.375 -0.4142  2.8395  1.0998
  329THF    H12 6216   2.546   1.508   5.483  0.3177 -0.8400  2.5414
  329THF    H13 6217   2.590   1.580   5.338  0.3004 -0.2640 -0.9549
  330THF     O1 6218   3.622   2.862   1.697 -0.0972 -0.1467 -0.1418
  330THF     C2 6219   3.752   2.858   1.756  0.3009 -0.1911  0.0693
  330THF     C3 6220   3.620   2.770   1.585  0.1337  0.0713 -0.4054
  330THF     H4 6221   3.732   2.833   1.859  0.1162 -0.2305  3.0629
  330THF     H5 6222   3.810   2.948   1.744 -0.0955  0.9128  0.3460
  330THF     H6 6223   3.527   2.733   1.555  1.8890 -1.7704  2.6959
  330THF     H7 6224   3.648   2.836   1.504 -0.2698 -0.1012 -0.9804
  330THF     C8 6225   3.718   2.665   1.621  0.4337  0.3521  0.3904
  330THF     C9 6226   3.832   2.746   1.685 -0.1919  0.4100  0.0282
  330THF    H10 6227   3.740   2.595   1.544 -0.3044 -0.5169 -1.9445
  330THF    H11 6228   3.665   2.610   1.690  0.2527 -0.1663  1.3319
  330THF    H12 6229   3.888   2.675   1.742 -0.8612 -4.2395 -2.4999
  330THF    H13 6230   3.881   2.801   1.605 -1.2035 -2.6052 -0.7119
  331THF     O1 6231   3.571   0.737   1.198  0.2571  0.4673  0.8385
  331THF     C2 6232   3.516   0.841   1.124  0.2837 -0.4975  0.1559
  331THF     C3 6233   3.707   0.723   1.162  0.1906  0.1627  0.1852
  331THF     H4 6234   3.422   0.878   1.171 -1.6053 -1.8401  0.6568
  331THF     H5 6235   3.482   0.799   1.027 -3.5812 -1.2599  0.2736
  331THF     H6 6236   3.772   0.663   1.228  0.5869 -1.7155 -1.6356
  331THF     H7 6237   3.718   0.673   1.065  1.0979  1.2639  0.3461
  331THF     C8 6238   3.755   0.868   1.155  0.8109 -0.2031 -0.7062
  331THF     C9 6239   3.631   0.938   1.099 -0.0086  0.3899 -0.2784
  331THF    H10 6240   3.849   0.877   1.094  1.3205  2.4317 -1.4013
  331THF    H11 6241   3.778   0.900   1.256 -0.8920 -0.5671  2.2035
  331THF    H12 6242   3.608   1.027   1.147  0.2296  1.4000 -1.4712
  331THF    H13 6243   3.642   0.950   0.992  1.1321 -1.0288  1.7391
  332THF     O1 6244   3.020   3.552   0.346 -0.3573  0.5702  0.1859
  332THF     C2 6245   3.034   3.582   0.206  0.3577 -0.1418 -0.2300
  332THF     C3 6246   2.951   3.666   0.404  0.5830  0.8899 -0.3122
  332THF     H4 6247   2.943   3.548   0.155 -3.2471  0.0154 -0.8242
  332THF     H5 6248   3.122   3.530   0.170 -0.1190 -2.8750  1.1276
  332THF     H6 6249   2.864   3.654   0.469 -1.2174 -0.9531 -0.7804
  332THF     H7 6250   3.025   3.713   0.467 -2.1031  0.7546 -0.8436
  332THF     C8 6251   2.932   3.776   0.293  0.4789 -0.7503 -0.6194
  332THF     C9 6252   3.047   3.735   0.202  0.3945  0.6404 -0.2849
  332THF    H10 6253   2.938   3.878   0.333 -2.1912 -0.2370  0.4115
  332THF    H11 6254   2.828   3.764   0.256 -1.7077  0.5793 -0.7028
  332THF    H12 6255   3.037   3.773   0.098 -0.1024  0.7537  2.1094
  332THF    H13 6256   3.143   3.760   0.235  0.5633 -2.9044  1.4090
  333THF     O1 6257   3.034   2.535   3.993 -0.0262 -0.0518 -0.0095
  333THF     C2 6258   2.973   2.520   3.863 -0.1311  0.7147  0.3109
  333THF     C3 6259   2.957   2.630   4.069  0.1858 -0.0311 -0.3603
  333THF     H4 6260   2.965   2.410   3.835 -0.4131 -1.1804  0.1077
  333THF     H5 6261   3.027   2.568   3.787 -2.7479 -5.2808 -0.3864
  333THF     H6 6262   2.900   2.583   4.148  1.4590 -0.7042  1.9230
  333THF     H7 6263   3.023   2.708   4.106 -2.1270  0.9595 -3.3512
  333THF     C8 6264   2.861   2.699   3.978 -0.1179 -0.0326 -0.1404
  333THF     C9 6265   2.838   2.585   3.881  0.5666  0.2355  0.5690
  333THF    H10 6266   2.908   2.785   3.931 -1.5424  4.2916 -0.9270
  333THF    H11 6267   2.767   2.745   4.028 -2.2099  0.5471 -0.9373
  333THF    H12 6268   2.771   2.508   3.922 -1.5197  1.3155 -1.9746
  333THF    H13 6269   2.791   2.621   3.790  1.7951 -1.2401  0.3550
  334THF     O1 6270   4.436   5.490   3.727 -0.1527 -0.1348 -0.2436
  334THF     C2 6271   4.441   5.509   3.583 -0.3088 -0.7119  0.4474
  334THF     C3 6272   4.565   5.517   3.783 -0.0027  0.2764 -0.2561
  334THF     H4 6273   4.365   5.586   3.557  0.8698  2.1468  1.1049
  334THF     H5 6274   4.416   5.412   3.534  0.3178 -1.5246 -0.7241
  334THF     H6 6275   4.569   5.574   3.877 -1.1666 -1.3031  1.3952
  334THF     H7 6276   4.602   5.419   3.806  0.3334 -2.0116  2.5301
  334THF     C8 6277   4.640   5.606   3.682 -1.1852 -0.2758 -0.1413
  334THF     C9 6278   4.584   5.551   3.546  0.0228  0.5359 -0.6797
  334THF    H10 6279   4.748   5.585   3.705 -1.9793 -3.0607 -0.9484
  334THF    H11 6280   4.606   5.707   3.689 -0.7458  0.1693 -1.3439
  334THF    H12 6281   4.583   5.631   3.468  1.1556  3.3589  0.0383
  334THF    H13 6282   4.631   5.463   3.505 -0.5620 -1.4228  1.8248
  335THF     O1 6283   1.760   1.932   5.163  0.2848 -0.2711 -0.1804
  335THF     C2 6284   1.771   1.800   5.111 -0.2424  0.0093 -0.3364
  335THF     C3 6285   1.891   1.972   5.214  0.0112  0.0247 -0.0166
  335THF     H4 6286   1.829   1.804   5.022 -2.7381 -1.7327 -0.3830
  335THF     H5 6287   1.677   1.744   5.084  0.5167 -2.2180 -1.0034
  335THF     H6 6288   1.957   1.999   5.130  1.0028 -0.2399  1.1034
  335THF     H7 6289   1.885   2.049   5.291 -1.6004 -1.5784  1.3053
  335THF     C8 6290   1.945   1.837   5.267  0.2869  0.0778 -0.2591
  335THF     C9 6291   1.855   1.727   5.213  0.1907 -0.5656 -0.2109
  335THF    H10 6292   1.930   1.830   5.377  1.2801  1.7825  1.7122
  335THF    H11 6293   2.049   1.818   5.252 -0.0380 -1.9797 -0.8855
  335THF    H12 6294   1.895   1.628   5.183 -0.2798 -2.2007 -1.9429
  335THF    H13 6295   1.793   1.694   5.304 -0.5378  1.1546  3.1342
  336THF     O1 6296   2.660   0.811   3.189  0.5207 -0.4207 -0.1145
  336THF     C2 6297   2.741   0.820   3.071  0.2865  0.1009 -0.1979
  336THF     C3 6298   2.682   0.944   3.243  0.4292  0.3532 -0.4007
  336THF     H4 6299   2.681   0.869   2.996  2.6307 -2.3176  0.6192
  336THF     H5 6300   2.763   0.726   3.025  2.1511 -2.8106 -0.4926
  336THF     H6 6301   2.626   1.019   3.197 -0.0333  2.5044  1.7966
  336THF     H7 6302   2.654   0.953   3.350 -0.6929 -1.1882 -0.0077
  336THF     C8 6303   2.831   0.976   3.226 -0.5908  0.5251  0.4245
  336THF     C9 6304   2.865   0.903   3.099  0.1452 -0.3424  0.2769
  336THF    H10 6305   2.886   0.933   3.307 -0.4766  1.7225  2.0008
  336THF    H11 6306   2.848   1.085   3.221 -0.7820 -1.9099 -1.0347
  336THF    H12 6307   2.874   0.967   3.018 -0.7383  2.3057 -0.7368
  336THF    H13 6308   2.951   0.835   3.116 -1.7205  0.7789  3.4213
  337THF     O1 6309   1.025   3.930   3.459 -0.4168  0.3550  0.1919
  337THF     C2 6310   1.104   3.881   3.570 -0.6723 -0.2259  0.3081
  337THF     C3 6311   0.927   3.829   3.439 -0.0076  0.4607  0.1003
  337THF     H4 6312   1.148   3.968   3.614 -2.3439 -0.8030 -2.6470
  337THF     H5 6313   1.176   3.819   3.518 -2.0049  1.1846  1.2363
  337THF     H6 6314   0.848   3.862   3.361 -1.0430 -1.3955 -0.9387
  337THF     H7 6315   0.980   3.745   3.388 -0.2193 -1.0943 -1.0152
  337THF     C8 6316   0.881   3.796   3.587  0.1266 -0.9664 -0.7282
  337THF     C9 6317   1.007   3.804   3.661 -0.3175 -0.3554 -0.0366
  337THF    H10 6318   0.837   3.699   3.602  3.5032 -2.1111 -0.7827
  337THF    H11 6319   0.809   3.863   3.622  1.8417 -0.6703  0.2494
  337THF    H12 6320   1.004   3.855   3.759 -2.4188 -2.9155 -0.8048
  337THF    H13 6321   1.040   3.699   3.683  1.1672 -1.3356  3.2146
  338THF     O1 6322   3.128   2.600   1.279  0.2983  0.0026 -0.0102
  338THF     C2 6323   3.236   2.647   1.370  0.6731  0.0506 -0.1386
  338THF     C3 6324   3.057   2.499   1.345  0.7214 -0.1231  0.2941
  338THF     H4 6325   3.236   2.752   1.382  1.7791  2.2601  2.9761
  338THF     H5 6326   3.332   2.625   1.328  0.4494  0.6968 -1.4156
  338THF     H6 6327   2.981   2.552   1.402 -3.1302  0.3069 -0.5055
  338THF     H7 6328   2.992   2.442   1.276  0.7833  0.9971 -0.1277
  338THF     C8 6329   3.149   2.437   1.455  0.2477  0.3687  1.0107
  338THF     C9 6330   3.221   2.566   1.506  1.6816 -0.4469  0.5451
  338THF    H10 6331   3.227   2.375   1.410  1.9743 -0.0328 -0.1795
  338THF    H11 6332   3.091   2.398   1.542  0.8926 -0.0011  1.3905
  338THF    H12 6333   3.165   2.623   1.574 -1.0465 -1.4834 -1.9237
  338THF    H13 6334   3.317   2.532   1.549  4.3621  0.0402 -1.6491
  339THF     O1 6335   2.374   5.433   3.022 -0.1850 -0.2487  0.3252
  339THF     C2 6336   2.307   5.322   3.081  0.5061  0.6279 -0.1753
  339THF     C3 6337   2.376   5.536   3.119 -0.3141 -0.6614  0.1681
  339THF     H4 6338   2.369   5.268   3.152  1.1077  1.4318 -1.1143
  339THF     H5 6339   2.265   5.249   3.010  1.0317 -1.3263 -0.0869
  339THF     H6 6340   2.471   5.537   3.170  3.3689 -1.5012 -1.4060
  339THF     H7 6341   2.370   5.632   3.067  0.4093 -1.0792 -3.4053
  339THF     C8 6342   2.254   5.517   3.209 -0.1886  0.2410  0.2261
  339THF     C9 6343   2.185   5.391   3.151 -0.6536  0.3098  0.6647
  339THF    H10 6344   2.199   5.610   3.229  0.0170 -1.7672  0.5046
  339THF    H11 6345   2.293   5.491   3.307 -1.1834 -1.0031 -2.1372
  339THF    H12 6346   2.139   5.335   3.234  0.7307 -1.0340  2.5990
  339THF    H13 6347   2.119   5.425   3.073  0.4091  0.6524  0.6752
  340THF     O1 6348   1.626   4.385   2.377 -0.2842 -0.2013 -0.0658
  340THF     C2 6349   1.725   4.443   2.290  0.1633 -0.4016 -0.6816
  340THF     C3 6350   1.706   4.348   2.490  0.1839 -0.4905 -0.1786
  340THF     H4 6351   1.672   4.516   2.220  3.2854  0.9340 -0.9324
  340THF     H5 6352   1.780   4.372   2.226 -2.2701  2.2588  1.6444
  340THF     H6 6353   1.635   4.334   2.576 -0.3100  0.1798 -3.8329
  340THF     H7 6354   1.752   4.249   2.468 -0.9313  0.1751 -0.6089
  340THF     C8 6355   1.803   4.460   2.522 -0.7741 -0.1363 -0.0508
  340THF     C9 6356   1.825   4.511   2.379 -0.3325 -0.5526 -0.3135
  340THF    H10 6357   1.896   4.422   2.560 -4.0357  2.3816 -0.9058
  340THF    H11 6358   1.763   4.539   2.592  0.6447  2.1947  2.7978
  340THF    H12 6359   1.810   4.613   2.370  3.4130  1.4915 -0.7463
  340THF    H13 6360   1.921   4.491   2.336 -4.9574  2.8334 -2.6028
  341THF     O1 6361   0.976   0.884   5.497  0.1248 -0.3135  0.3674
  341THF     C2 6362   0.906   0.990   5.438 -0.3807 -0.1270  0.4484
  341THF     C3 6363   1.073   0.838   5.399  0.1668 -0.2021 -0.3387
  341THF     H4 6364   0.896   1.074   5.512  1.8473 -2.2507 -0.7445
  341THF     H5 6365   0.796   0.973   5.406 -1.7307  3.0419  0.6795
  341THF     H6 6366   1.153   0.803   5.464  0.1512 -1.8246 -1.6290
  341THF     H7 6367   1.029   0.778   5.325 -0.4954 -0.5488  1.7164
  341THF     C8 6368   1.118   0.969   5.322  0.9680  0.1311  0.1511
  341THF     C9 6369   0.988   1.041   5.315  0.2922  0.8551  0.2067
  341THF    H10 6370   1.132   0.952   5.218 -0.2112  2.4105 -2.5327
  341THF    H11 6371   1.193   1.020   5.381  0.2227 -0.3555 -0.0455
  341THF    H12 6372   1.002   1.154   5.318 -1.6349  2.2050  0.1420
  341THF    H13 6373   0.926   1.012   5.230 -0.5626 -2.8955 -0.2206
  342THF     O1 6374   3.614   0.132   2.538 -0.1486 -0.1804  0.1481
  342THF     C2 6375   3.707   0.191   2.629  0.2224  0.2845 -0.1266
  342THF     C3 6376   3.496   0.107   2.622  0.1809  0.6520 -0.4331
  342THF     H4 6377   3.715   0.296   2.601  0.5064 -1.5525 -1.5898
  342THF     H5 6378   3.808   0.152   2.611  1.0631 -1.1662 -1.2609
  342THF     H6 6379   3.399   0.133   2.573  2.2674  1.2674 -0.7118
  342THF     H7 6380   3.488   0.004   2.653  0.1019  0.3441  0.8140
  342THF     C8 6381   3.508   0.186   2.746  0.1460  0.2445  0.3416
  342THF     C9 6382   3.660   0.180   2.770  0.7381  0.4883  0.2251
  342THF    H10 6383   3.455   0.145   2.833  0.3284  1.1551 -1.1970
  342THF    H11 6384   3.484   0.292   2.735  1.6425 -0.4377 -0.4810
  342THF    H12 6385   3.690   0.253   2.844  0.1022 -2.4262  0.9148
  342THF    H13 6386   3.677   0.080   2.810 -1.5829 -0.3180 -1.0937
  343THF     O1 6387   4.478   5.016   0.841  0.3062 -0.0984 -0.0990
  343THF     C2 6388   4.515   5.125   0.912  0.4672  1.1756 -0.7812
  343THF     C3 6389   4.357   4.970   0.892  0.2767  0.6078  0.4490
  343THF     H4 6390   4.474   5.209   0.868 -1.1719  0.4162 -0.8380
  343THF     H5 6391   4.621   5.131   0.895  0.3016 -1.8702  0.0434
  343THF     H6 6392   4.279   5.007   0.829  1.1350  0.0950  3.2325
  343THF     H7 6393   4.357   4.856   0.888  4.4298 -1.7992  3.6064
  343THF     C8 6394   4.344   5.030   1.030 -0.3135 -0.4670  0.0285
  343THF     C9 6395   4.469   5.108   1.053  0.3343  0.3999 -0.3821
  343THF    H10 6396   4.331   4.947   1.104 -0.8392 -0.8550 -0.5017
  343THF    H11 6397   4.256   5.090   1.044 -1.0937 -0.1520 -2.5828
  343THF    H12 6398   4.455   5.209   1.101  0.4977  3.5325  1.6311
  343THF    H13 6399   4.545   5.056   1.102  0.9289 -0.2742  0.0114
  344THF     O1 6400   1.088   1.346   4.906 -0.4296  0.0857  0.8423
  344THF     C2 6401   1.023   1.253   4.827 -0.2406  1.0744  0.1757
  344THF     C3 6402   1.009   1.371   5.028  0.1481  0.6996  0.3550
  344THF     H4 6403   1.081   1.158   4.835 -1.8732  0.7874 -1.2929
  344THF     H5 6404   1.022   1.285   4.720  0.4579  2.1915  1.3490
  344THF     H6 6405   1.036   1.293   5.103  1.0928  0.3531  1.8704
  344THF     H7 6406   1.023   1.465   5.073 -0.7757 -2.1522 -0.7130
  344THF     C8 6407   0.867   1.363   4.971  0.3671  0.0030  0.4643
  344THF     C9 6408   0.885   1.234   4.891 -0.8641 -0.0201  0.8040
  344THF    H10 6409   0.846   1.446   4.900  0.1972 -0.5921 -2.1336
  344THF    H11 6410   0.800   1.352   5.051  1.7171  0.2305 -0.6282
  344THF    H12 6411   0.876   1.137   4.953  0.3283 -3.0308 -1.7483
  344THF    H13 6412   0.807   1.227   4.819 -1.0670  0.2305  2.3282
  345THF     O1 6413   2.296   3.563   4.292  0.1471  0.0671 -0.0542
  345THF     C2 6414   2.351   3.688   4.243  0.9781 -1.2472 -0.3892
  345THF     C3 6415   2.339   3.533   4.424 -0.6754  0.0765 -0.1483
  345THF     H4 6416   2.300   3.734   4.154  2.1978 -1.3936 -1.3964
  345THF     H5 6417   2.449   3.668   4.214 -1.8644  3.1762 -1.4283
  345THF     H6 6418   2.261   3.470   4.472 -1.4077  1.1417  2.4866
  345THF     H7 6419   2.444   3.502   4.416  2.7208  1.9742  1.6737
  345THF     C8 6420   2.339   3.669   4.484  0.0598  0.1912 -0.1957
  345THF     C9 6421   2.339   3.775   4.367  0.6302  0.6417 -0.2215
  345THF    H10 6422   2.433   3.668   4.550  2.0255 -0.2535  0.9340
  345THF    H11 6423   2.261   3.686   4.549  1.3490 -2.0025  3.0924
  345THF    H12 6424   2.243   3.835   4.377 -4.0475 -1.9684  0.9043
  345THF    H13 6425   2.422   3.849   4.383 -0.4244  0.4940  1.3917
  346THF     O1 6426   3.875   3.558   1.732 -0.3137  0.5295  0.1276
  346THF     C2 6427   3.969   3.449   1.725  0.2790  0.3145  0.4152
  346THF     C3 6428   3.844   3.589   1.870 -0.3157  0.6430 -0.0520
  346THF     H4 6429   4.031   3.450   1.641 -3.2131  1.0141 -0.3885
  346THF     H5 6430   3.912   3.349   1.716 -0.9596 -1.2807  1.7173
  346THF     H6 6431   3.809   3.688   1.892 -1.3471 -1.3042  0.5468
  346THF     H7 6432   3.768   3.518   1.919 -0.9917 -0.6987 -1.2509
  346THF     C8 6433   3.986   3.563   1.928 -0.3210 -0.5986  0.1185
  346THF     C9 6434   4.047   3.444   1.851  0.0432  0.1029 -0.3001
  346THF    H10 6435   3.973   3.569   2.030 -0.8913  0.2459 -2.6952
  346THF    H11 6436   4.054   3.647   1.893  1.2432 -0.6504  0.7070
  346THF    H12 6437   4.151   3.452   1.830  1.5330 -2.1113 -2.9340
  346THF    H13 6438   4.022   3.359   1.904 -0.1164 -1.0669  1.0104
  347THF     O1 6439   3.479   1.698   3.729 -0.0473  0.0602  0.1770
  347THF     C2 6440   3.491   1.818   3.651  1.1427  0.0555  0.1177
  347THF     C3 6441   3.437   1.732   3.866 -0.9466  0.6350  0.0374
  347THF     H4 6442   3.456   1.808   3.549 -0.0395  2.9479  0.0747
  347THF     H5 6443   3.599   1.841   3.649 -0.1307  2.2942  0.4964
  347THF     H6 6444   3.341   1.679   3.886 -4.7764  1.0855 -1.5990
  347THF     H7 6445   3.507   1.694   3.942 -1.3886  1.1917  1.3572
  347THF     C8 6446   3.431   1.888   3.869 -0.0190 -0.0723 -0.9770
  347THF     C9 6447   3.398   1.917   3.723 -1.2027  0.3808 -0.2537
  347THF    H10 6448   3.516   1.941   3.904  2.3328  0.3832  1.5301
  347THF    H11 6449   3.352   1.927   3.937 -2.4202  1.1709 -0.9608
  347THF    H12 6450   3.292   1.890   3.703  1.5161 -5.4331 -0.4845
  347THF    H13 6451   3.420   2.026   3.695  0.6130  1.8344  3.5348
  348THF     O1 6452   0.256   4.169   1.352 -0.2495 -0.2240 -0.5552
  348THF     C2 6453   0.374   4.170   1.263  0.0539 -0.2596 -0.8192
  348THF     C3 6454   0.164   4.070   1.305 -0.5873  0.1034  0.6632
  348THF     H4 6455   0.468   4.194   1.325  1.2328  0.2507 -0.1341
  348THF     H5 6456   0.355   4.228   1.175  2.0674 -0.2149  1.9406
  348THF     H6 6457   0.095   4.023   1.386 -3.9278 -3.5256  0.3865
  348THF     H7 6458   0.100   4.126   1.236 -0.7710  0.3247 -0.2931
  348THF     C8 6459   0.250   3.961   1.241 -0.6311 -0.0034  0.0110
  348THF     C9 6460   0.388   4.021   1.235  0.5294 -0.3101  0.3339
  348THF    H10 6461   0.211   3.939   1.149  0.6828 -1.0550  1.1548
  348THF    H11 6462   0.249   3.875   1.311 -0.6752 -0.6269  1.1763
  348THF    H12 6463   0.461   3.971   1.311  2.3373 -2.0038  0.1540
  348THF    H13 6464   0.433   3.999   1.138  0.7547 -1.7442  1.1336
  349THF     O1 6465   2.899   2.737   0.579  0.5750 -0.5516 -0.0258
  349THF     C2 6466   2.878   2.804   0.707  0.3101 -0.2151 -0.2676
  349THF     C3 6467   2.853   2.609   0.591  0.8263  0.1601 -0.5987
  349THF     H4 6468   2.890   2.917   0.693  0.5803  0.5119 -0.4741
  349THF     H5 6469   2.956   2.772   0.783  0.9642  0.4153 -1.9102
  349THF     H6 6470   2.816   2.571   0.498 -1.7559 -1.9150  0.8722
  349THF     H7 6471   2.928   2.534   0.619 -0.0971 -2.0005 -0.2388
  349THF     C8 6472   2.737   2.612   0.697 -0.2661 -0.6243 -0.3152
  349THF     C9 6473   2.738   2.759   0.737  1.0135 -0.6015 -0.1190
  349THF    H10 6474   2.761   2.553   0.781 -0.7129 -1.7487 -0.1529
  349THF    H11 6475   2.639   2.579   0.668 -1.1590  0.1127  0.3758
  349THF    H12 6476   2.665   2.822   0.680 -1.0369  0.6786 -2.2035
  349THF    H13 6477   2.712   2.778   0.845 -1.9108  0.8275  1.9714
  350THF     O1 6478   4.392   3.800   4.180  0.4864  0.1974  0.7715
  350THF     C2 6479   4.329   3.925   4.157 -0.9144 -0.6378  0.1365
  350THF     C3 6480   4.306   3.713   4.252 -0.4245 -0.7981 -0.0929
  350THF     H4 6481   4.263   3.936   4.066 -1.6223 -0.8057 -2.6070
  350THF     H5 6482   4.403   3.997   4.145 -1.3517  0.2120  0.8866
  350THF     H6 6483   4.225   3.676   4.190  0.7919  0.0684  1.5856
  350THF     H7 6484   4.359   3.634   4.297 -0.3314 -1.3644 -1.1885
  350THF     C8 6485   4.248   3.814   4.358 -0.0724 -0.9921 -0.6385
  350THF     C9 6486   4.247   3.955   4.288  0.2824  0.1327 -1.1381
  350THF    H10 6487   4.301   3.820   4.455 -0.4175  1.7938  1.2631
  350THF    H11 6488   4.151   3.783   4.397  1.6239  0.1030 -0.5706
  350THF    H12 6489   4.142   3.970   4.274  0.4971  1.2918  0.7879
  350THF    H13 6490   4.291   4.038   4.336  1.8546 -2.1234 -3.4149
  351THF     O1 6491   4.580   1.730   0.287  0.0624 -0.7847 -0.1346
  351THF     C2 6492   4.542   1.771   0.419 -0.7936 -0.2832  0.2292
  351THF     C3 6493   4.471   1.725   0.199 -0.5878  0.1508  0.0335
  351THF     H4 6494   4.538   1.880   0.406  0.1699 -2.4967 -1.6228
  351THF     H5 6495   4.617   1.739   0.492  0.2621  0.0630 -2.6113
  351THF     H6 6496   4.453   1.833   0.170  0.7213  1.5593  1.2815
  351THF     H7 6497   4.498   1.666   0.108 -2.8561  1.0010  1.0829
  351THF     C8 6498   4.351   1.679   0.285 -0.6360  0.1496  0.2135
  351THF     C9 6499   4.402   1.707   0.432  0.3925 -0.0951 -0.4289
  351THF    H10 6500   4.348   1.568   0.278  1.6432  1.0338  1.7407
  351THF    H11 6501   4.259   1.730   0.249  0.2232  0.9143 -0.0090
  351THF    H12 6502   4.334   1.782   0.480  2.0067 -0.8810 -0.4931
  351THF    H13 6503   4.423   1.620   0.494  0.8929  1.3095 -0.3249
  352THF     O1 6504   4.748   1.073   5.315 -0.4449  0.2960  0.0258
  352THF     C2 6505   4.610   1.088   5.275 -0.2241  0.0176 -0.1093
  352THF     C3 6506   4.812   1.029   5.197  0.0305 -0.0060 -0.2299
  352THF     H4 6507   4.553   1.131   5.360  1.5123 -0.4583 -0.1140
  352THF     H5 6508   4.588   0.983   5.251  1.2464  2.4001 -0.6583
  352THF     H6 6509   4.917   1.056   5.198  0.2529  1.3199 -0.3120
  352THF     H7 6510   4.790   0.923   5.185 -0.5419  1.3777  0.9617
  352THF     C8 6511   4.751   1.115   5.083 -0.5213 -0.1468 -0.1173
  352THF     C9 6512   4.619   1.170   5.143  0.1014  0.3778  0.2359
  352THF    H10 6513   4.722   1.055   5.000 -1.8187  3.1671  1.4142
  352THF    H11 6514   4.813   1.208   5.064 -1.1660  2.4430  0.8909
  352THF    H12 6515   4.607   1.275   5.157  0.2019 -1.2274 -0.8467
  352THF    H13 6516   4.536   1.142   5.081  0.5416 -1.2050  1.7084
  353THF     O1 6517   2.117   0.259   4.554 -0.0240 -0.8167  0.7268
  353THF     C2 6518   2.154   0.245   4.424  0.3093 -0.3478  0.1780
  353THF     C3 6519   2.091   0.138   4.616  0.9203 -0.3996  0.7091
  353THF     H4 6520   2.262   0.202   4.421  0.0716  1.1505 -1.8326
  353THF     H5 6521   2.168   0.331   4.359  1.6572 -1.7706 -2.2469
  353THF     H6 6522   2.182   0.080   4.631  0.0901  1.0978  0.6307
  353THF     H7 6523   2.024   0.137   4.707  0.5928 -1.8635  0.8262
  353THF     C8 6524   2.007   0.079   4.507 -0.0877  0.0059  0.0062
  353THF     C9 6525   2.047   0.150   4.377  0.2573 -0.3697 -1.1012
  353THF    H10 6526   1.894   0.074   4.537 -1.3498 -2.3181  2.0003
  353THF    H11 6527   2.032  -0.028   4.491 -1.9007  3.1079 -2.3584
  353THF    H12 6528   2.078   0.073   4.300 -3.3268  0.2030 -0.2864
  353THF    H13 6529   1.967   0.209   4.344 -2.9566 -1.3519 -1.8751
  354THF     O1 6530   1.449   1.904   2.293 -0.1050  0.5112 -0.2020
  354THF     C2 6531   1.543   1.998   2.264  0.2461  0.0409  0.2188
  354THF     C3 6532   1.363   1.946   2.395 -0.0276  0.1417 -0.1179
  354THF     H4 6533   1.556   2.002   2.152  0.8879 -2.3405 -1.2649
  354THF     H5 6534   1.635   1.975   2.314 -0.2452  2.8918 -2.1474
  354THF     H6 6535   1.265   1.980   2.358  0.0512 -2.4946  3.3889
  354THF     H7 6536   1.342   1.865   2.471  2.4016 -1.0564  0.3899
  354THF     C8 6537   1.435   2.070   2.454  0.1330 -0.3623  0.2870
  354THF     C9 6538   1.491   2.128   2.324  0.2954  0.4087  0.0972
  354THF    H10 6539   1.520   2.030   2.515  0.5002  1.4539  3.0215
  354THF    H11 6540   1.370   2.130   2.523 -2.0363 -2.4651  0.8857
  354THF    H12 6541   1.417   2.169   2.256  0.3875 -2.6702  0.3031
  354THF    H13 6542   1.570   2.204   2.344 -0.3275  1.1178 -0.7481
  355THF     O1 6543   4.042   1.464   2.877  0.3525 -0.0379  0.7579
  355THF     C2 6544   4.028   1.602   2.919  0.3013  0.1063  0.1761
  355THF     C3 6545   4.176   1.420   2.903  0.7527  0.4021 -0.8620
  355THF     H4 6546   3.962   1.623   2.997  2.3612  1.1300 -0.6399
  355THF     H5 6547   4.007   1.666   2.839 -0.5928  0.0938 -1.2067
  355THF     H6 6548   4.178   1.314   2.938  2.3916 -1.6064 -0.0996
  355THF     H7 6549   4.231   1.424   2.808 -0.1514 -0.7564 -1.3985
  355THF     C8 6550   4.234   1.513   3.005  0.3326  0.1918  0.2702
  355THF     C9 6551   4.166   1.641   2.968 -0.1082  0.6307 -0.6809
  355THF    H10 6552   4.340   1.512   2.998 -0.4276 -0.5515 -0.2855
  355THF    H11 6553   4.193   1.477   3.102 -0.6838 -1.5476  1.8181
  355THF    H12 6554   4.151   1.713   3.044 -2.2894  0.8789 -0.5052
  355THF    H13 6555   4.226   1.683   2.890 -1.5723  0.0801  0.7277
  356THF     O1 6556   2.291   2.300   5.431  0.3301 -0.1850  0.4998
  356THF     C2 6557   2.257   2.309   5.289  0.8555 -0.1771 -0.0368
  356THF     C3 6558   2.224   2.190   5.489  0.3049  0.4726  0.0423
  356THF     H4 6559   2.349   2.327   5.229  0.0295  0.1416  0.2312
  356THF     H5 6560   2.181   2.390   5.271  0.9525 -3.1667  1.2593
  356THF     H6 6561   2.281   2.162   5.572 -1.7322  2.0643 -0.2332
  356THF     H7 6562   2.126   2.215   5.532 -0.5328 -2.7398  0.0553
  356THF     C8 6563   2.212   2.092   5.375 -0.0226 -0.5225 -0.0214
  356THF     C9 6564   2.200   2.172   5.248 -1.1135  0.7821 -0.1457
  356THF    H10 6565   2.130   2.023   5.382  0.2780  0.3904 -0.6303
  356THF    H11 6566   2.303   2.031   5.365 -1.1607 -1.7661  0.7643
  356THF    H12 6567   2.254   2.119   5.162  0.0888 -0.6559 -0.6199
  356THF    H13 6568   2.100   2.176   5.214  0.7320  2.1777 -0.4080
  357THF     O1 6569   3.153   2.784   0.278 -0.5621 -0.4037  0.0946
  357THF     C2 6570   3.195   2.835   0.151 -0.0074 -0.3830  0.0328
  357THF     C3 6571   3.128   2.644   0.259 -0.0371  0.1552  0.5281
  357THF     H4 6572   3.246   2.931   0.168  0.2147  1.1107 -3.2508
  357THF     H5 6573   3.100   2.852   0.102  3.1711 -1.4887  1.9332
  357THF     H6 6574   3.159   2.595   0.354 -0.2510 -1.5379  3.4600
  357THF     H7 6575   3.026   2.612   0.247 -1.4928 -1.9199  3.0430
  357THF     C8 6576   3.235   2.595   0.156  0.4798  0.0113  0.0003
  357THF     C9 6577   3.281   2.727   0.100  0.0678 -0.5707 -0.0290
  357THF    H10 6578   3.195   2.534   0.077 -0.4948 -0.2697  0.9246
  357THF    H11 6579   3.321   2.536   0.202 -1.5897  2.5364  0.4482
  357THF    H12 6580   3.385   2.754   0.126  0.2759 -1.9599  0.0054
  357THF    H13 6581   3.269   2.713  -0.009 -2.7884  1.5161  2.1616
  358THF     O1 6582   0.322   0.737   3.184 -0.2362 -0.0720  0.0726
  358THF     C2 6583   0.348   0.874   3.218  0.1569 -0.4980 -1.0277
  358THF     C3 6584   0.373   0.711   3.054  0.1705 -0.2155  0.0034
  358THF     H4 6585   0.445   0.870   3.263 -0.7798  2.0082  2.1103
  358THF     H5 6586   0.266   0.910   3.278  0.7090  1.7442 -1.2415
  358THF     H6 6587   0.474   0.691   3.066 -2.9010  0.6529 -2.4252
  358THF     H7 6588   0.330   0.612   3.027  0.1540 -0.6684 -1.7313
  358THF     C8 6589   0.339   0.837   2.977 -0.0527  0.2873 -0.4105
  358THF     C9 6590   0.361   0.945   3.079  0.5448  0.4772  0.9870
  358THF    H10 6591   0.231   0.842   2.959  1.1127 -0.8252  2.2513
  358THF    H11 6592   0.400   0.854   2.888 -2.4971  0.6457 -0.6034
  358THF    H12 6593   0.466   0.974   3.065 -0.0977  0.3339  0.0846
  358THF    H13 6594   0.294   1.027   3.068 -0.0353 -1.2350  1.7523
  359THF     O1 6595   3.845   5.029   3.316 -0.0895 -0.2515 -0.5899
  359THF     C2 6596   3.880   4.933   3.214 -0.6774  0.2378  0.3899
  359THF     C3 6597   3.731   5.109   3.277 -0.1544  0.0610  0.0479
  359THF     H4 6598   3.899   4.833   3.254  0.2834 -3.8926 -1.8446
  359THF     H5 6599   3.957   4.973   3.161 -1.9393 -1.2631  0.4291
  359THF     H6 6600   3.645   5.085   3.338 -2.6767 -1.6503  0.7706
  359THF     H7 6601   3.757   5.214   3.288  0.8733 -0.6474  1.8241
  359THF     C8 6602   3.699   5.066   3.135 -0.4223 -0.3417 -0.0578
  359THF     C9 6603   3.754   4.927   3.130  0.1120  0.5533 -0.3694
  359THF    H10 6604   3.748   5.140   3.066  1.1047  0.2358 -1.1523
  359THF    H11 6605   3.588   5.049   3.127 -1.4843  0.0598 -1.9611
  359THF    H12 6606   3.682   4.855   3.171 -0.9523 -0.2491  1.0785
  359THF    H13 6607   3.763   4.892   3.031  2.7495 -0.0462  1.3023
  360THF     O1 6608   1.163   5.356   0.780  0.3893  0.0843 -0.2804
  360THF     C2 6609   1.186   5.475   0.858  0.3983 -0.1279 -0.1151
  360THF     C3 6610   1.190   5.248   0.865 -0.3649  0.1330 -0.0566
  360THF     H4 6611   1.105   5.491   0.939  1.2896 -1.2419  3.2342
  360THF     H5 6612   1.203   5.551   0.791  1.2787  0.0301  1.2254
  360THF     H6 6613   1.092   5.201   0.899  2.7993  0.5917 -1.2324
  360THF     H7 6614   1.251   5.177   0.807  0.4037  1.5054  7.2360
  360THF     C8 6615   1.278   5.295   0.979  0.4044 -0.2215  0.0435
  360THF     C9 6616   1.314   5.439   0.935  0.1893 -0.4620 -0.1551
  360THF    H10 6617   1.363   5.228   0.993  0.6318 -1.3781 -4.7315
  360THF    H11 6618   1.222   5.299   1.068 -0.2209  0.3707  0.6801
  360THF    H12 6619   1.327   5.500   1.025 -0.4391  0.7389 -1.8557
  360THF    H13 6620   1.402   5.428   0.864 -1.6523 -1.1915 -2.0342
  361THF     O1 6621   4.996   4.632   2.603 -0.4831  0.1388 -0.0051
  361THF     C2 6622   4.894   4.602   2.695 -0.2277  0.6495 -0.1872
  361THF     C3 6623   5.119   4.587   2.662  0.6894 -0.0617  0.1047
  361THF     H4 6624   4.787   4.612   2.660 -1.6269 -0.3555  1.6244
  361THF     H5 6625   4.896   4.669   2.787  1.2986 -0.7926  3.7659
  361THF     H6 6626   5.196   4.573   2.585 -0.7599  0.7168 -0.2672
  361THF     H7 6627   5.153   4.660   2.734 -0.3489  0.1302 -0.6542
  361THF     C8 6628   5.083   4.461   2.737  0.1233 -0.6049  0.1561
  361THF     C9 6629   4.928   4.452   2.726 -0.2880 -0.2816 -0.1904
  361THF    H10 6630   5.118   4.466   2.843 -0.1894  2.1513 -0.6539
  361THF    H11 6631   5.143   4.382   2.688  2.2063 -0.8984 -0.7198
  361THF    H12 6632   4.891   4.382   2.650 -2.1416  1.1436 -1.5611
  361THF    H13 6633   4.876   4.418   2.817 -1.5335  3.2481  2.1096
  362THF     O1 6634   4.863   4.431   0.397 -0.3009  0.1790 -0.3470
  362THF     C2 6635   4.990   4.368   0.369  0.7644  0.5273  0.8039
  362THF     C3 6636   4.787   4.337   0.470  0.5508 -0.0645 -0.1610
  362THF     H4 6637   5.071   4.423   0.335  0.4017 -3.1365 -1.1019
  362THF     H5 6638   4.972   4.293   0.288 -0.9374 -0.5580  0.4145
  362THF     H6 6639   4.714   4.390   0.540 -0.0408 -0.6561  1.3180
  362THF     H7 6640   4.726   4.284   0.398  0.5031  0.5079  2.9533
  362THF     C8 6641   4.883   4.244   0.552  0.3614 -0.1086 -0.2901
  362THF     C9 6642   5.015   4.300   0.502  0.5410  0.5204  0.2814
  362THF    H10 6643   4.873   4.138   0.518  1.8169  0.9800 -2.5996
  362THF    H11 6644   4.892   4.261   0.659 -1.5891  1.5545 -2.0679
  362THF    H12 6645   5.060   4.368   0.573  0.6896 -2.0041 -0.7194
  362THF    H13 6646   5.087   4.217   0.501  1.2646 -0.3266  2.2017
  363THF     O1 6647   4.368   0.162   5.445 -0.0971 -0.6282  0.1064
  363THF     C2 6648   4.392   0.304   5.463 -0.1509  0.5122  0.0984
  363THF     C3 6649   4.378   0.134   5.304  0.5657 -0.8506  0.8474
  363THF     H4 6650   4.439   0.322   5.559 -0.4750 -0.8880 -0.1015
  363THF     H5 6651   4.290   0.337   5.481 -2.0548  2.0949  1.4421
  363THF     H6 6652   4.402   0.027   5.285 -3.3053  0.6718  1.1756
  363THF     H7 6653   4.284   0.163   5.243 -1.7399 -2.2128  1.4911
  363THF     C8 6654   4.494   0.219   5.270 -0.2705 -0.3097  0.2548
  363THF     C9 6655   4.454   0.350   5.335 -0.0568 -0.9159  0.1119
  363THF    H10 6656   4.508   0.226   5.158  1.5087 -0.3631  1.3557
  363THF    H11 6657   4.580   0.167   5.321  3.0867 -1.1086 -1.8898
  363THF    H12 6658   4.536   0.424   5.346  0.7321 -0.6347 -1.1526
  363THF    H13 6659   4.385   0.405   5.278  1.7093 -2.3343 -0.1735
  364THF     O1 6660   2.972   1.773   3.437 -0.1079 -0.5094  0.6021
  364THF     C2 6661   2.896   1.775   3.314  0.2857  0.3872  0.0943
  364THF     C3 6662   3.110   1.803   3.412 -0.3260 -0.7831 -0.6364
  364THF     H4 6663   2.822   1.853   3.299 -0.2044  0.5590 -1.0281
  364THF     H5 6664   2.848   1.674   3.314 -0.6432 -0.5679 -0.4058
  364THF     H6 6665   3.129   1.913   3.414 -2.2153  0.3770  0.7816
  364THF     H7 6666   3.170   1.761   3.494  0.9406  1.4232 -0.0291
  364THF     C8 6667   3.126   1.742   3.277 -0.2974  0.5839 -0.7368
  364THF     C9 6668   3.004   1.797   3.200  0.6707  0.4019  0.0020
  364THF    H10 6669   3.122   1.631   3.276  0.4706  0.9551  0.1350
  364THF    H11 6670   3.224   1.761   3.228  2.7260  0.8408 -0.3083
  364THF    H12 6671   3.015   1.904   3.162 -1.5806 -2.0347 -0.8703
  364THF    H13 6672   3.006   1.735   3.117 -0.4243  0.6608  0.5949
  365THF     O1 6673   2.260   3.341   2.445  0.1229 -0.6964 -0.3083
  365THF     C2 6674   2.208   3.217   2.397 -0.1853 -0.0058 -0.4522
  365THF     C3 6675   2.221   3.450   2.368  1.2368 -0.2315 -0.3231
  365THF     H4 6676   2.121   3.197   2.458  2.5926  2.5595 -1.2424
  365THF     H5 6677   2.284   3.140   2.413  0.1591  1.6774 -2.5785
  365THF     H6 6678   2.128   3.479   2.407  1.9032  0.3196 -0.1744
  365THF     H7 6679   2.295   3.537   2.376 -0.5572  0.5656 -1.4533
  365THF     C8 6680   2.217   3.385   2.225 -0.5309 -0.3355 -0.0540
  365THF     C9 6681   2.175   3.237   2.248  0.2194  0.3566 -0.5563
  365THF    H10 6682   2.321   3.383   2.193 -1.4160  1.5605  0.1385
  365THF    H11 6683   2.156   3.444   2.159  1.6194 -1.4289  1.3325
  365THF    H12 6684   2.067   3.225   2.234 -0.4365 -0.2151 -0.9218
  365THF    H13 6685   2.222   3.164   2.183 -1.7434 -1.6232 -0.9140
  366THF     O1 6686   5.178   2.676   0.442 -0.1386 -0.0622 -0.3198
  366THF     C2 6687   5.123   2.804   0.427  0.4840 -0.5259  0.0806
  366THF     C3 6688   5.273   2.664   0.339 -0.5515 -0.3344 -0.0347
  366THF     H4 6689   5.135   2.849   0.525  1.5025  1.0293  0.0735
  366THF     H5 6690   5.016   2.815   0.407  0.1575  0.9717 -1.2775
  366THF     H6 6691   5.354   2.603   0.373  0.7041  0.9671 -1.3113
  366THF     H7 6692   5.215   2.610   0.267 -1.9675  0.0954  3.9559
  366THF     C8 6693   5.328   2.802   0.306 -0.1740 -0.0854 -0.3482
  366THF     C9 6694   5.201   2.885   0.325  0.0171 -0.0736 -0.2853
  366THF    H10 6695   5.373   2.811   0.207  2.0740  1.5481 -0.7498
  366THF    H11 6696   5.407   2.828   0.374  0.6578 -0.3028  2.8281
  366THF    H12 6697   5.219   2.985   0.374  0.6604  0.3723 -1.4787
  366THF    H13 6698   5.141   2.897   0.236  1.1039 -0.7721  2.5411
  367THF     O1 6699   2.674   3.743   5.094  0.5338  0.0083  0.6523
  367THF     C2 6700   2.594   3.631   5.047 -0.0084  0.3685 -0.2275
  367THF     C3 6701   2.648   3.840   4.997  0.5018 -0.2284 -0.2403
  367THF     H4 6702   2.573   3.558   5.116 -0.4022  2.9456 -2.3177
  367THF     H5 6703   2.637   3.602   4.951 -3.3740 -0.3085  0.2284
  367THF     H6 6704   2.669   3.936   5.041  0.8666 -1.3853 -3.0269
  367THF     H7 6705   2.712   3.822   4.912 -0.4897 -0.5863  0.8727
  367THF     C8 6706   2.505   3.837   4.957 -0.0999 -0.3925  0.0594
  367THF     C9 6707   2.461   3.709   5.017  0.5541  0.3739  0.4652
  367THF    H10 6708   2.499   3.825   4.854 -0.5096 -0.4435 -0.0584
  367THF    H11 6709   2.446   3.917   5.005 -2.9000 -0.4334  0.0314
  367THF    H12 6710   2.412   3.719   5.116 -1.7473 -0.5377  0.1332
  367THF    H13 6711   2.400   3.657   4.940  1.4676 -1.3951  0.5359
  368THF     O1 6712   1.670   4.406   3.131  0.1780  0.2876 -0.5038
  368THF     C2 6713   1.576   4.458   3.048 -0.7680  0.5713 -0.8932
  368THF     C3 6714   1.803   4.410   3.075 -0.6902  0.4434 -0.0221
  368THF     H4 6715   1.587   4.564   3.063  0.4721  0.4758  1.0411
  368THF     H5 6716   1.469   4.428   3.069 -2.4339  0.5000  0.8121
  368THF     H6 6717   1.855   4.501   3.102  1.1574  0.9380  0.9017
  368THF     H7 6718   1.851   4.319   3.125  1.0979 -0.8527 -0.5143
  368THF     C8 6719   1.774   4.397   2.930  0.0990  0.4330 -0.3959
  368THF     C9 6720   1.626   4.420   2.910  0.6103 -0.2089 -0.9284
  368THF    H10 6721   1.821   4.315   2.885 -2.3810 -0.1390  3.2782
  368THF    H11 6722   1.825   4.480   2.883  2.3132 -1.7265  3.1539
  368THF    H12 6723   1.605   4.496   2.834  1.1495  1.1468 -2.3965
  368THF    H13 6724   1.581   4.325   2.883  0.8941  1.1123  1.8379
  369THF     O1 6725   2.448   3.213   4.805 -0.5115 -0.3255  0.2954
  369THF     C2 6726   2.593   3.224   4.786  0.4140  0.2984  0.0605
  369THF     C3 6727   2.382   3.290   4.708 -0.4986  0.3691  0.2186
  369THF     H4 6728   2.646   3.149   4.844 -2.9221  0.0374  0.7340
  369THF     H5 6729   2.622   3.328   4.818  0.1592  3.0193  1.8800
  369THF     H6 6730   2.284   3.242   4.691 -2.4209 -2.0387  2.5180
  369THF     H7 6731   2.376   3.391   4.747  2.1284 -0.9120  0.1710
  369THF     C8 6732   2.482   3.287   4.589 -0.0447 -0.8311  0.0075
  369THF     C9 6733   2.603   3.207   4.640  0.7231 -0.4765 -0.1930
  369THF    H10 6734   2.523   3.387   4.571  1.7833  1.0700 -0.2155
  369THF    H11 6735   2.450   3.238   4.500  2.0834 -1.5719 -0.9514
  369THF    H12 6736   2.595   3.103   4.602 -0.2422  1.5071  2.5408
  369THF    H13 6737   2.697   3.251   4.592  0.2206 -0.0623 -0.1515
  370THF     O1 6738   2.840   1.874   1.954 -0.3618 -0.2492  0.1887
  370THF     C2 6739   2.950   1.920   2.033 -0.8061  0.0088  0.1141
  370THF     C3 6740   2.879   1.852   1.818  0.3189  0.3610  0.1276
  370THF     H4 6741   2.946   1.859   2.117  1.0079 -0.9402  0.4048
  370THF     H5 6742   2.919   2.020   2.057 -0.1242 -0.6668 -2.0876
  370THF     H6 6743   2.889   1.749   1.797  0.2993  1.8022  0.6663
  370THF     H7 6744   2.802   1.891   1.741  1.3556 -3.1566  0.2918
  370THF     C8 6745   3.017   1.903   1.800  0.1077 -0.0832 -0.1343
  370THF     C9 6746   3.065   1.875   1.944 -0.4412  0.2305  0.1310
  370THF    H10 6747   3.018   2.011   1.792  0.1859  0.0498 -2.9263
  370THF    H11 6748   3.077   1.862   1.716  0.2655 -0.1654 -0.2426
  370THF    H12 6749   3.090   1.770   1.956 -0.9465  1.1136  2.6065
  370THF    H13 6750   3.158   1.927   1.973  0.2596 -0.6630 -0.8060
  371THF     O1 6751   2.815   2.266   2.609 -0.1075  0.2295 -0.0542
  371THF     C2 6752   2.739   2.209   2.503 -0.9129 -0.1976 -0.4663
  371THF     C3 6753   2.938   2.321   2.563 -0.4234  0.4112 -0.4065
  371THF     H4 6754   2.636   2.245   2.497  0.6828 -1.4545 -0.1010
  371THF     H5 6755   2.750   2.101   2.516 -0.5507 -1.9960  0.6758
  371THF     H6 6756   2.955   2.406   2.622  2.1318 -1.9316 -0.7523
  371THF     H7 6757   3.021   2.251   2.557 -1.1134  2.0857 -2.6338
  371THF     C8 6758   2.886   2.370   2.431  0.0063 -0.1604  0.3685
  371THF     C9 6759   2.806   2.254   2.385 -0.4656 -0.2706 -0.2088
  371THF    H10 6760   2.979   2.379   2.373  1.7726  1.1297  1.3209
  371THF    H11 6761   2.834   2.464   2.427  1.2595 -2.2692  1.2513
  371THF    H12 6762   2.743   2.280   2.307 -0.4352  1.4031  0.7222
  371THF    H13 6763   2.875   2.176   2.356 -2.3088 -2.6938  1.9250
  372THF     O1 6764   1.420   2.766   2.191 -0.0382 -0.8052  0.5548
  372THF     C2 6765   1.562   2.770   2.170 -0.4390 -0.0343 -0.2322
  372THF     C3 6766   1.392   2.630   2.232  0.4314  0.8432 -0.0431
  372THF     H4 6767   1.607   2.790   2.268  0.0118 -0.6135  0.9446
  372THF     H5 6768   1.587   2.864   2.111  2.3130  1.6085  1.0958
  372THF     H6 6769   1.382   2.629   2.338  0.9326  0.0826  1.1828
  372THF     H7 6770   1.297   2.580   2.185 -1.2060  0.8051 -1.6955
  372THF     C8 6771   1.514   2.535   2.197 -0.2451  0.5693  0.3984
  372THF     C9 6772   1.592   2.635   2.114  0.2665  0.3296  1.2339
  372THF    H10 6773   1.477   2.445   2.142 -2.2953  2.8654 -0.6552
  372THF    H11 6774   1.578   2.510   2.284  1.3736 -0.4352 -1.0889
  372THF    H12 6775   1.692   2.617   2.109 -0.3668  0.4822  0.5569
  372THF    H13 6776   1.559   2.637   2.011 -1.1998 -1.2717 -1.1260
  373THF     O1 6777   1.099   4.822   1.343 -0.1552 -0.3815  0.3820
  373THF     C2 6778   1.099   4.957   1.397  0.2484  0.1377  0.2403
  373THF     C3 6779   1.071   4.827   1.204  0.1172 -0.8497  0.0345
  373THF     H4 6780   1.182   4.973   1.465  2.6812  2.4456  0.8384
  373THF     H5 6781   1.007   4.985   1.446  2.3125  2.4363 -1.0929
  373THF     H6 6782   1.112   4.745   1.144 -0.9500  1.8429  0.1739
  373THF     H7 6783   0.961   4.828   1.194 -0.2390 -1.8769 -1.3459
  373THF     C8 6784   1.131   4.965   1.161 -0.3988  0.2743 -0.1562
  373THF     C9 6785   1.098   5.055   1.279  0.0956  0.3441 -0.0710
  373THF    H10 6786   1.090   5.008   1.068 -1.2154 -0.4823 -0.5776
  373THF    H11 6787   1.239   4.947   1.144  0.0179  2.5035 -0.6205
  373THF    H12 6788   1.180   5.131   1.294 -1.7973  1.5804 -2.1528
  373THF    H13 6789   1.009   5.112   1.271  0.7355  0.2955  1.6451
  374THF     O1 6790   0.560   3.346   4.935  0.4294 -0.2247 -0.2229
  374THF     C2 6791   0.547   3.483   4.928 -0.9393  0.3343 -0.2338
  374THF     C3 6792   0.448   3.288   4.875 -0.8636 -0.0547  0.1021
  374THF     H4 6793   0.599   3.507   4.832  0.8730  3.1759 -1.8638
  374THF     H5 6794   0.617   3.532   5.001 -2.4200  0.3254 -2.8453
  374THF     H6 6795   0.487   3.253   4.775  1.9893 -0.5434  1.9377
  374THF     H7 6796   0.411   3.201   4.929  2.3181 -0.6049  3.1124
  374THF     C8 6797   0.341   3.395   4.843  1.0776  0.8069  0.6852
  374THF     C9 6798   0.394   3.511   4.923  0.5037 -0.3748  0.4370
  374THF    H10 6799   0.241   3.359   4.868  0.8309  0.3081  1.1278
  374THF    H11 6800   0.352   3.417   4.734 -2.1104 -0.8853  1.1995
  374THF    H12 6801   0.389   3.612   4.869  2.6256 -0.0595  1.0574
  374THF    H13 6802   0.355   3.522   5.024 -1.5972 -0.1782  0.8209
  375THF     O1 6803   1.141   4.738   2.076 -0.5309 -0.4307  0.7078
  375THF     C2 6804   1.230   4.697   1.978 -0.7102  0.0436 -0.0576
  375THF     C3 6805   1.074   4.624   2.130 -0.1665 -0.0285  0.0101
  375THF     H4 6806   1.329   4.706   2.023 -3.3015 -1.8524 -0.1031
  375THF     H5 6807   1.221   4.780   1.900  2.1417  1.5085 -0.7540
  375THF     H6 6808   1.136   4.587   2.214  1.1070  0.0486  0.5005
  375THF     H7 6809   0.981   4.657   2.174 -0.3500  0.8736  0.9399
  375THF     C8 6810   1.067   4.518   2.012 -0.0513 -0.2899  0.2595
  375THF     C9 6811   1.190   4.562   1.935 -0.2614  0.5137  0.2244
  375THF    H10 6812   0.973   4.534   1.948 -0.6078  0.6692 -1.0448
  375THF    H11 6813   1.077   4.414   2.042 -0.7224  0.0974  0.5020
  375THF    H12 6814   1.271   4.496   1.964  2.6328 -0.5579 -0.1201
  375THF    H13 6815   1.161   4.549   1.827  1.2710  0.2636 -1.0621
  376THF     O1 6816   2.117   2.681   5.170 -0.7628 -0.1379 -0.7074
  376THF     C2 6817   2.127   2.802   5.243  0.0124  0.2516 -0.2300
  376THF     C3 6818   2.109   2.710   5.032 -0.0041 -0.0802 -0.0408
  376THF     H4 6819   2.231   2.829   5.224  0.0032 -1.3539  0.3188
  376THF     H5 6820   2.129   2.775   5.349 -0.0176 -2.7123  0.8993
  376THF     H6 6821   2.205   2.727   4.993  0.2988  2.0665  1.3936
  376THF     H7 6822   2.062   2.623   4.992  3.5701 -0.8475  1.4386
  376THF     C8 6823   2.022   2.832   5.029  0.4118 -0.5073 -0.9634
  376THF     C9 6824   2.018   2.882   5.174 -0.2479 -0.8738 -0.2772
  376THF    H10 6825   1.924   2.815   4.989  1.8805 -1.8014 -2.9141
  376THF    H11 6826   2.072   2.909   4.968  1.2363  1.6256 -1.3418
  376THF    H12 6827   2.036   2.993   5.170 -0.0258 -0.2461  0.7507
  376THF    H13 6828   1.924   2.871   5.226  1.3461  0.2929  3.2276
  377THF     O1 6829   1.235   4.347   2.499 -0.9559  0.4087 -0.1543
  377THF     C2 6830   1.286   4.331   2.630 -0.2766 -0.5953  0.5799
  377THF     C3 6831   1.132   4.438   2.510 -0.6127  0.3099  0.3534
  377THF     H4 6832   1.387   4.288   2.639  0.7259  2.6344 -3.7603
  377THF     H5 6833   1.218   4.263   2.684 -1.7901  1.0850 -0.1502
  377THF     H6 6834   1.115   4.476   2.409 -3.9258  2.2320  0.5323
  377THF     H7 6835   1.032   4.398   2.547 -0.3008  0.8845  2.4276
  377THF     C8 6836   1.172   4.545   2.613  0.2402 -0.1577 -0.3039
  377THF     C9 6837   1.274   4.469   2.705 -0.1426  0.1673  0.2235
  377THF    H10 6838   1.087   4.579   2.675  1.2953 -1.4266  2.9210
  377THF    H11 6839   1.225   4.631   2.565  0.7256  2.1167 -1.2402
  377THF    H12 6840   1.370   4.519   2.708  0.5161  1.0867  2.0095
  377THF    H13 6841   1.249   4.469   2.812 -1.3070  0.7660 -1.2275
  378THF     O1 6842   3.573   4.800   1.180  0.1530  0.0400 -0.3225
  378THF     C2 6843   3.553   4.929   1.134 -0.5331 -0.2765 -0.0120
  378THF     C3 6844   3.583   4.801   1.322  1.1061 -0.2405  0.1376
  378THF     H4 6845   3.448   4.953   1.153 -0.9532  0.5891 -0.2469
  378THF     H5 6846   3.577   4.920   1.027 -1.0226  2.2704 -0.3809
  378THF     H6 6847   3.485   4.801   1.370  4.0326 -0.6859  1.6040
  378THF     H7 6848   3.643   4.716   1.363  0.8462  0.8103  3.1652
  378THF     C8 6849   3.652   4.934   1.347 -0.3267 -0.0289 -0.1932
  378THF     C9 6850   3.648   5.011   1.220 -0.0426 -0.1680 -0.3894
  378THF    H10 6851   3.760   4.928   1.367 -0.1405 -0.2480 -1.2599
  378THF    H11 6852   3.606   4.980   1.437  2.4083 -2.2057 -0.0341
  378THF    H12 6853   3.627   5.116   1.233  1.0710 -0.2710  0.3770
  378THF    H13 6854   3.752   5.011   1.184  0.0629 -0.8737  0.2664
  379THF     O1 6855   3.356   2.784   2.506  0.2641  0.3460 -0.0728
  379THF     C2 6856   3.368   2.661   2.572 -0.0743  0.2915 -0.0810
  379THF     C3 6857   3.448   2.774   2.393  0.2165  0.6611 -0.5727
  379THF     H4 6858   3.283   2.643   2.642 -0.5720 -2.1009  1.0117
  379THF     H5 6859   3.450   2.655   2.629 -2.1157 -1.7095 -0.1506
  379THF     H6 6860   3.438   2.844   2.314 -2.2709  0.2708 -0.8924
  379THF     H7 6861   3.555   2.774   2.422  1.7122  0.8090  1.0286
  379THF     C8 6862   3.413   2.633   2.336 -0.4333 -0.5887  0.4195
  379THF     C9 6863   3.378   2.554   2.463  0.0047 -0.0682  0.5664
  379THF    H10 6864   3.493   2.586   2.270 -1.0739  1.2397  1.1351
  379THF    H11 6865   3.321   2.644   2.273  0.0469  1.0431  1.7655
  379THF    H12 6866   3.283   2.509   2.443 -1.8461 -0.2171 -1.9265
  379THF    H13 6867   3.457   2.482   2.492 -0.3171 -1.1345  0.0999
  380THF     O1 6868   5.315   5.029   2.530 -0.0259 -0.0899  0.5137
  380THF     C2 6869   5.363   4.899   2.507 -0.2088  0.2780 -0.4402
  380THF     C3 6870   5.378   5.071   2.651  0.5024 -0.3232  0.1389
  380THF     H4 6871   5.375   4.869   2.399  0.3915  1.8799 -1.6453
  380THF     H5 6872   5.291   4.834   2.565  2.9127  0.4113 -0.5100
  380THF     H6 6873   5.422   5.168   2.638  0.6280  0.9180  0.1674
  380THF     H7 6874   5.316   5.104   2.736  0.4612  1.6037  0.5817
  380THF     C8 6875   5.482   4.976   2.699  0.1757  0.0084 -0.4296
  380THF     C9 6876   5.507   4.904   2.573 -0.1843 -0.3343 -0.7291
  380THF    H10 6877   5.440   4.907   2.775 -0.9784  0.7211 -0.5911
  380THF    H11 6878   5.568   5.035   2.747 -0.8936  1.6990 -1.5596
  380THF    H12 6879   5.570   4.973   2.513 -0.2585  1.3086  3.1300
  380THF    H13 6880   5.563   4.811   2.588  2.0798 -0.0817  1.8972
  381THF     O1 6881   2.761   2.914   2.780  0.2226  0.2301  0.9399
  381THF     C2 6882   2.836   2.802   2.808  0.1208 -0.0353 -0.2250
  381THF     C3 6883   2.807   3.022   2.866 -0.3345  0.1660  0.1073
  381THF     H4 6884   2.830   2.731   2.732 -0.9960 -0.4615  0.9949
  381THF     H5 6885   2.813   2.751   2.897  2.4933  1.4412  0.9813
  381THF     H6 6886   2.754   3.113   2.827 -0.4301 -1.7284  0.3351
  381THF     H7 6887   2.756   3.008   2.959  1.4785 -0.1211 -2.4219
  381THF     C8 6888   2.959   3.012   2.863 -0.7390 -0.4188  0.2271
  381THF     C9 6889   2.976   2.870   2.813  0.1559  0.5563 -0.4866
  381THF    H10 6890   3.014   3.027   2.960 -0.6421 -3.3643 -0.1901
  381THF    H11 6891   2.992   3.070   2.783  0.1324  0.4075 -2.2425
  381THF    H12 6892   3.025   2.870   2.717  1.5314 -0.2160  1.6447
  381THF    H13 6893   3.046   2.809   2.875  0.6988 -0.4104 -1.4011
  382THF     O1 6894   5.065   2.951   1.368 -0.1044 -0.3910  0.0733
  382THF     C2 6895   5.028   3.083   1.405  0.5672 -0.8471 -1.0092
  382THF     C3 6896   5.098   2.889   1.485  0.0263  0.0404 -0.5925
  382THF     H4 6897   4.982   3.119   1.323 -1.7288  1.9851  0.6604
  382THF     H5 6898   5.109   3.157   1.435  0.4831  2.5187  0.9905
  382THF     H6 6899   5.106   2.780   1.473  3.6171  1.0243  1.4298
  382THF     H7 6900   5.195   2.933   1.528 -0.8357 -0.9976  1.3897
  382THF     C8 6901   4.986   2.932   1.587  0.2827  0.2786  0.2837
  382THF     C9 6902   4.930   3.056   1.526 -0.7974  0.2367 -0.6492
  382THF    H10 6903   5.036   2.956   1.682  0.0696  1.9641  0.7277
  382THF    H11 6904   4.909   2.853   1.599 -2.5881  3.4781  0.5554
  382THF    H12 6905   4.830   3.027   1.499  1.0169  0.4203  1.4012
  382THF    H13 6906   4.929   3.143   1.591 -0.0251 -1.3177 -1.5161
  383THF     O1 6907   0.149   2.396   0.134  0.2902 -0.0143  0.3739
  383THF     C2 6908   0.276   2.434   0.186 -0.8576 -0.5898  0.7716
  383THF     C3 6909   0.069   2.516   0.116 -0.0633 -0.8852 -0.7114
  383THF     H4 6910   0.347   2.462   0.107  1.2977  2.1810  0.3651
  383THF     H5 6911   0.314   2.363   0.256 -1.3631 -1.2362 -3.4875
  383THF     H6 6912   0.036   2.527   0.014 -1.9778  2.4803  2.2174
  383THF     H7 6913  -0.022   2.511   0.172 -2.7513  0.1344  0.1980
  383THF     C8 6914   0.157   2.632   0.153  0.0019  0.8696  0.3630
  383THF     C9 6915   0.254   2.567   0.257  0.7442  0.5151 -0.1379
  383THF    H10 6916   0.086   2.704   0.202 -0.1456  0.0076  0.9945
  383THF    H11 6917   0.211   2.684   0.069 -0.0988 -3.9961  1.0911
  383THF    H12 6918   0.351   2.619   0.273  0.7031  2.7347  0.0479
  383THF    H13 6919   0.198   2.549   0.346  1.2038 -0.7627  1.6962
  384THF     O1 6920   2.708   3.692   2.297 -0.2687 -0.7243 -0.3586
  384THF     C2 6921   2.604   3.611   2.283  0.0851  0.6837  0.5516
  384THF     C3 6922   2.824   3.620   2.277 -0.4852 -0.0261  0.4620
  384THF     H4 6923   2.518   3.677   2.265  2.1846  2.8712 -1.7409
  384THF     H5 6924   2.604   3.544   2.365 -1.0971  2.2153 -0.3981
  384THF     H6 6925   2.898   3.685   2.231 -0.3428  0.5297  2.0656
  384THF     H7 6926   2.868   3.580   2.369  2.2898 -1.6137  1.5099
  384THF     C8 6927   2.792   3.506   2.181  0.2135 -0.4134  0.5030
  384THF     C9 6928   2.644   3.533   2.164 -0.1805  0.0161  0.6109
  384THF    H10 6929   2.805   3.408   2.229 -0.4189 -0.7163  2.7288
  384THF    H11 6930   2.854   3.508   2.089  0.3598  0.3106  0.5435
  384THF    H12 6931   2.627   3.595   2.079  1.4933 -0.4439 -0.3097
  384THF    H13 6932   2.587   3.437   2.141 -0.0728 -0.6899  0.3319
  385THF     O1 6933   3.966   1.927   4.693 -0.3907 -0.0716 -0.1701
  385THF     C2 6934   4.078   1.990   4.763 -0.1479 -0.9194 -0.3864
  385THF     C3 6935   3.871   2.026   4.662 -0.2996  0.2381  0.0231
  385THF     H4 6936   4.165   2.028   4.701  3.2866  0.4357  0.4767
  385THF     H5 6937   4.120   1.921   4.839 -0.7617 -2.3519  1.2216
  385THF     H6 6938   3.839   2.030   4.555  0.8879  1.9984 -1.4145
  385THF     H7 6939   3.780   1.988   4.711  2.7055 -0.2977  1.1017
  385THF     C8 6940   3.924   2.156   4.714 -0.1654 -0.4670  0.6363
  385THF     C9 6941   4.017   2.109   4.833  0.1826 -0.0884  0.2325
  385THF    H10 6942   3.853   2.222   4.759  0.4609  1.0129  1.2680
  385THF    H11 6943   3.976   2.215   4.629 -1.1771 -0.9240 -1.4098
  385THF    H12 6944   4.085   2.185   4.876 -0.4416 -1.1471  0.9928
  385THF    H13 6945   3.960   2.076   4.923 -0.5624 -1.5873 -1.1867
  386THF     O1 6946   0.916   2.637   5.085 -0.5748 -0.4099 -0.7113
  386THF     C2 6947   0.785   2.591   5.124  0.1863  0.6276 -0.3378
  386THF     C3 6948   0.994   2.523   5.032  0.2043  0.7940 -0.2965
  386THF     H4 6949   0.710   2.669   5.108 -2.2949  0.2799  3.3561
  386THF     H5 6950   0.789   2.558   5.232 -3.3907  2.2038  0.9436
  386THF     H6 6951   1.076   2.568   4.978 -0.5155 -0.8354  1.6561
  386THF     H7 6952   1.036   2.460   5.114 -0.4256  0.6803  1.7195
  386THF     C8 6953   0.896   2.447   4.952 -0.4795  0.0844 -0.7856
  386THF     C9 6954   0.767   2.461   5.036  0.0948 -0.0534 -0.3586
  386THF    H10 6955   0.928   2.341   4.937 -1.8950 -1.0963  0.5827
  386THF    H11 6956   0.878   2.480   4.852 -0.8773 -1.3203  2.0034
  386THF    H12 6957   0.686   2.478   4.966  0.7185  0.5847  1.5391
  386THF    H13 6958   0.737   2.387   5.105 -0.5533 -2.4893  0.4505
  387THF     O1 6959   2.679   1.926   2.854  0.2060  0.4080  0.2518
  387THF     C2 6960   2.687   1.784   2.887  0.0116 -0.4760  0.0354
  387THF     C3 6961   2.808   1.981   2.851  0.1000  0.3760 -0.0260
  387THF     H4 6962   2.601   1.723   2.858  0.5379  0.5975  0.3369
  387THF     H5 6963   2.704   1.781   2.998  0.8301  1.0016  2.1198
  387THF     H6 6964   2.812   2.065   2.780  0.2143  0.0146 -0.5936
  387THF     H7 6965   2.823   2.025   2.952  1.5736  2.8812 -1.1470
  387THF     C8 6966   2.899   1.871   2.814  0.3602 -0.2354 -0.2189
  387THF     C9 6967   2.807   1.739   2.810 -0.2056 -0.3811 -0.0394
  387THF    H10 6968   2.962   1.865   2.896  2.7334  0.0567 -0.3954
  387THF    H11 6969   2.962   1.877   2.722  0.0575 -0.7726  3.2174
  387THF    H12 6970   2.773   1.739   2.703 -2.5184 -2.4112  0.2148
  387THF    H13 6971   2.855   1.649   2.837 -2.5530 -2.6056 -0.0241
  388THF     O1 6972   2.752   3.051   0.481 -0.4394 -0.2679 -0.1233
  388THF     C2 6973   2.745   3.143   0.590 -0.7510 -0.7945 -0.0692
  388THF     C3 6974   2.623   3.034   0.432 -0.1089 -0.1989  0.4931
  388THF     H4 6975   2.848   3.169   0.624  0.8276  0.9265  1.0592
  388THF     H5 6976   2.694   3.094   0.676 -1.1050 -0.3653  1.4473
  388THF     H6 6977   2.631   3.015   0.321 -0.8519 -2.0827 -2.2266
  388THF     H7 6978   2.575   2.945   0.474 -1.0125  0.1160 -1.5587
  388THF     C8 6979   2.557   3.169   0.451  1.1217 -0.6844  0.2852
  388THF     C9 6980   2.653   3.247   0.538  0.4185 -0.1773 -0.0576
  388THF    H10 6981   2.452   3.166   0.486  2.3943 -1.1995  0.5203
  388THF    H11 6982   2.550   3.221   0.356 -1.9500  0.0064  4.1309
  388THF    H12 6983   2.713   3.322   0.476  0.1538  1.1484 -2.9182
  388THF    H13 6984   2.599   3.299   0.619 -1.8574 -0.2502 -0.9950
  389THF     O1 6985   3.416   2.191   3.957 -0.3122 -0.2037 -0.1657
  389THF     C2 6986   3.310   2.271   3.905 -0.2452 -0.2784 -0.3019
  389THF     C3 6987   3.520   2.276   3.992 -0.3714 -0.2428  0.1609
  389THF     H4 6988   3.229   2.213   3.908  2.2519 -1.2022  0.1641
  389THF     H5 6989   3.316   2.287   3.796  2.7813  2.2967 -0.7828
  389THF     H6 6990   3.595   2.238   4.057 -1.1060  0.3510 -0.9347
  389THF     H7 6991   3.578   2.303   3.909 -1.4870 -0.8710  1.4043
  389THF     C8 6992   3.451   2.397   4.056  0.9502 -0.5080  0.0656
  389THF     C9 6993   3.312   2.399   3.999  0.6613 -0.1628  0.7103
  389THF    H10 6994   3.503   2.492   4.035  0.8488  1.8529  0.3133
  389THF    H11 6995   3.454   2.383   4.164 -0.1858 -1.7925  0.8830
  389THF    H12 6996   3.229   2.380   4.071 -0.0685 -1.9184 -2.2824
  389THF    H13 6997   3.294   2.489   3.940 -0.7294  1.1837  0.4370
  390THF     O1 6998   4.457   1.719   4.395  0.7795 -0.0590 -0.1609
  390THF     C2 6999   4.490   1.600   4.472  0.0481  0.4159  0.1197
  390THF     C3 7000   4.395   1.800   4.485  0.0791 -0.4572 -0.5205
  390THF     H4 7001   4.548   1.618   4.565 -1.7881 -1.2861  2.3270
  390THF     H5 7002   4.544   1.525   4.420  1.8788 -0.3506 -0.9504
  390THF     H6 7003   4.456   1.847   4.565  0.9655  1.7308 -2.0555
  390THF     H7 7004   4.357   1.879   4.417  0.7905 -2.5235 -4.1935
  390THF     C8 7005   4.286   1.701   4.542 -0.0274 -0.2962  0.1268
  390THF     C9 7006   4.347   1.566   4.510  0.5607  0.1374 -1.1070
  390THF    H10 7007   4.183   1.726   4.505  1.4169  0.3024  0.2310
  390THF    H11 7008   4.281   1.712   4.651 -2.2509 -1.5220  1.1488
  390THF    H12 7009   4.342   1.493   4.591  0.2054 -0.0370 -0.4310
  390THF    H13 7010   4.308   1.515   4.420 -0.6348  0.0837  1.1283
  391THF     O1 7011   1.121   3.239   1.472 -0.6131 -0.2086 -0.2892
  391THF     C2 7012   1.019   3.164   1.410  0.0787 -0.3111  0.2556
  391THF     C3 7013   1.142   3.183   1.603  0.7349 -0.0390  0.3483
  391THF     H4 7014   1.053   3.063   1.372 -1.8757 -0.8452  0.4620
  391THF     H5 7015   0.963   3.220   1.331 -2.7244  1.1860  3.5209
  391THF     H6 7016   1.218   3.095   1.595  1.8445 -2.3432  0.2266
  391THF     H7 7017   1.175   3.257   1.681 -1.3033 -0.9950  4.4587
  391THF     C8 7018   1.000   3.135   1.648  0.3651 -0.3291 -0.2128
  391THF     C9 7019   0.913   3.129   1.517  0.9731 -0.3352  0.0054
  391THF    H10 7020   0.965   3.201   1.721 -2.3190 -0.8287  2.4732
  391THF    H11 7021   1.002   3.034   1.698 -0.8418  0.5785  0.7641
  391THF    H12 7022   0.868   3.028   1.496 -0.2565  0.5140  1.1272
  391THF    H13 7023   0.831   3.203   1.515 -2.6205  0.5392  1.5101
  392THF     O1 7024   1.893   4.503   4.638 -0.1065 -0.4395  0.1905
  392THF     C2 7025   1.912   4.596   4.538 -0.2366  0.1949  0.3641
  392THF     C3 7026   1.990   4.403   4.618  0.3306  0.0912  0.3916
  392THF     H4 7027   1.889   4.696   4.567 -1.9990  0.2187  1.3348
  392THF     H5 7028   1.842   4.564   4.452  1.0282 -2.2235 -3.1137
  392THF     H6 7029   2.005   4.344   4.710 -2.6193 -0.9812  1.5849
  392THF     H7 7030   1.964   4.333   4.540 -0.2361  1.0671  2.0707
  392THF     C8 7031   2.116   4.469   4.577 -0.3578  0.5148  0.1382
  392THF     C9 7032   2.060   4.582   4.500  0.2160 -0.9287 -0.9072
  392THF    H10 7033   2.182   4.411   4.510 -0.5443  0.5242  0.0713
  392THF    H11 7034   2.175   4.504   4.668  0.6624  1.4567 -1.1882
  392THF    H12 7035   2.129   4.660   4.505  0.1649 -0.7713  0.6590
  392THF    H13 7036   2.062   4.567   4.396 -0.9475  1.5674 -0.7832
  393THF     O1 7037   3.268   4.671   0.499  0.1326 -0.1049  0.3316
  393THF     C2 7038   3.127   4.686   0.505 -0.1570 -0.0357  0.9208
  393THF     C3 7039   3.316   4.759   0.394 -0.0969 -0.1640  1.1215
  393THF     H4 7040   3.090   4.654   0.599 -1.1933  0.2764  1.3292
  393THF     H5 7041   3.084   4.618   0.436 -0.8422  2.0221 -3.2644
  393THF     H6 7042   3.424   4.770   0.402 -1.6015 -2.3294  0.9452
  393THF     H7 7043   3.301   4.716   0.292  0.1044 -3.6255 -0.1770
  393THF     C8 7044   3.235   4.885   0.421 -0.2023 -0.5645 -0.1324
  393THF     C9 7045   3.102   4.830   0.463 -0.5335  0.4857  0.6840
  393THF    H10 7046   3.232   4.951   0.332  0.3757  0.6366  2.3769
  393THF    H11 7047   3.289   4.956   0.493  2.1526 -0.5114  1.1652
  393THF    H12 7048   3.067   4.898   0.543  1.9413  1.4790  2.8373
  393THF    H13 7049   3.035   4.832   0.380  1.9582  0.3110 -2.4758
  394THF     O1 7050   4.622   4.963   1.794  0.0940  0.8539 -0.3786
  394THF     C2 7051   4.756   4.911   1.788 -0.5081 -0.6498 -0.9196
  394THF     C3 7052   4.611   5.073   1.888 -0.2163  0.4098  0.7110
  394THF     H4 7053   4.769   4.877   1.685 -0.1848  1.9340 -2.4066
  394THF     H5 7054   4.768   4.834   1.857  0.7116 -1.0535 -2.5173
  394THF     H6 7055   4.563   5.156   1.836  0.3272  1.1569 -0.8785
  394THF     H7 7056   4.550   5.030   1.974 -0.0752 -0.4162  0.7824
  394THF     C8 7057   4.753   5.092   1.941 -0.9607 -0.7304 -0.4096
  394THF     C9 7058   4.838   5.029   1.826  0.4049 -0.8031  0.1760
  394THF    H10 7059   4.767   5.043   2.036 -1.7524  0.4204 -1.1000
  394THF    H11 7060   4.772   5.192   1.959  0.6801 -0.8988  1.1045
  394THF    H12 7061   4.863   5.106   1.753  2.8317  0.4651  1.1351
  394THF    H13 7062   4.932   4.994   1.873  0.6242 -0.1362  0.2811
  395THF     O1 7063   3.782   3.285   5.465  0.3628 -0.0074 -0.0507
  395THF     C2 7064   3.844   3.408   5.504  0.5472 -0.1554 -0.0357
  395THF     C3 7065   3.778   3.199   5.575 -1.1745 -0.5775  0.7449
  395THF     H4 7066   3.775   3.490   5.526  0.5028  0.8712 -0.3002
  395THF     H5 7067   3.905   3.438   5.419 -2.7457  2.0840 -0.7728
  395THF     H6 7068   3.702   3.229   5.642  0.9195  1.5012  1.0573
  395THF     H7 7069   3.780   3.104   5.529  1.6332 -0.6025 -1.1700
  395THF     C8 7070   3.904   3.230   5.644 -0.2177  0.6938  0.4496
  395THF     C9 7071   3.919   3.378   5.639  0.0029  0.1479 -0.2438
  395THF    H10 7072   3.998   3.188   5.593  1.5846  1.2357 -0.2674
  395THF    H11 7073   3.915   3.189   5.748 -0.3344  0.8478 -0.9712
  395THF    H12 7074   3.864   3.437   5.716 -0.1497  0.6695 -0.2227
  395THF    H13 7075   4.029   3.415   5.632 -0.2311  2.1933  1.6873
  396THF     O1 7076   0.359   5.053   2.777 -0.3069 -0.2179 -0.3440
  396THF     C2 7077   0.406   5.168   2.709  0.2999  0.3947 -0.1780
  396THF     C3 7078   0.358   5.083   2.914 -0.2691 -0.0841  0.2731
  396THF     H4 7079   0.385   5.162   2.599  0.5754  1.3983 -2.3626
  396THF     H5 7080   0.521   5.178   2.721 -1.4730  0.9967 -0.8352
  396THF     H6 7081   0.279   5.027   2.967 -0.9843 -0.3900 -1.1167
  396THF     H7 7082   0.452   5.047   2.947 -0.6256 -0.6699 -0.6503
  396THF     C8 7083   0.335   5.236   2.930 -0.4237  0.4180  0.3804
  396THF     C9 7084   0.326   5.278   2.787 -0.2113  0.4685  0.4252
  396THF    H10 7085   0.420   5.285   2.985 -0.5067 -2.6129  0.8019
  396THF    H11 7086   0.241   5.242   2.983 -1.3473 -2.1521 -0.9068
  396THF    H12 7087   0.222   5.282   2.763  0.8737 -1.0463  0.8623
  396THF    H13 7088   0.379   5.373   2.773 -1.4808 -1.0625 -0.4712
  397THF     O1 7089   4.094   2.871   5.263  0.2346 -0.1994  0.6003
  397THF     C2 7090   4.065   3.010   5.247  0.4271 -0.2041 -0.7022
  397THF     C3 7091   4.121   2.819   5.136  0.4546  0.2909 -0.0398
  397THF     H4 7092   4.104   3.068   5.327  0.3246 -2.2578  0.4904
  397THF     H5 7093   3.960   3.039   5.249  0.4827  0.0007 -1.0933
  397THF     H6 7094   4.182   2.729   5.153 -1.2861  0.2949 -0.3629
  397THF     H7 7095   4.024   2.811   5.074 -0.7484  0.4570 -2.3918
  397THF     C8 7096   4.216   2.921   5.077  0.2956  0.0401 -1.1154
  397THF     C9 7097   4.139   3.052   5.119  0.8500  0.4013 -0.0411
  397THF    H10 7098   4.230   2.909   4.970  1.6256  0.9605 -1.1248
  397THF    H11 7099   4.311   2.927   5.125  0.9855  2.0850  0.3680
  397THF    H12 7100   4.215   3.135   5.133  1.4260  1.5499 -2.2069
  397THF    H13 7101   4.076   3.097   5.037 -1.9663 -1.6198  0.5553
  398THF     O1 7102   0.052   5.303   4.246 -1.0094  0.0968  0.1582
  398THF     C2 7103  -0.032   5.366   4.150  0.3031 -0.6521 -0.5880
  398THF     C3 7104  -0.023   5.187   4.292 -0.8438 -0.3115  0.2221
  398THF     H4 7105   0.023   5.425   4.079  0.0050 -0.0230  1.7040
  398THF     H5 7106  -0.104   5.433   4.203 -2.1973  0.7782  0.9053
  398THF     H6 7107   0.046   5.111   4.333  0.2082 -1.4653  2.1934
  398THF     H7 7108  -0.110   5.206   4.363 -0.5735  2.7449 -0.3115
  398THF     C8 7109  -0.082   5.129   4.168 -0.1353  0.6597  0.3564
  398THF     C9 7110  -0.092   5.252   4.076  0.1003  0.2674 -0.2890
  398THF    H10 7111  -0.183   5.103   4.189 -0.2279  1.9342  2.1136
  398THF    H11 7112  -0.036   5.047   4.110 -0.3656 -1.7167 -0.4599
  398THF    H12 7113  -0.032   5.232   3.980 -3.4398  1.6178 -1.9622
  398THF    H13 7114  -0.192   5.269   4.043 -1.3626 -1.7452  3.3189
  399THF     O1 7115   4.260   2.533   4.320  0.1011 -0.5236  0.0906
  399THF     C2 7116   4.335   2.626   4.397 -0.0276  0.3953 -0.0276
  399THF     C3 7117   4.347   2.497   4.208  0.2572  0.4185 -0.0828
  399THF     H4 7118   4.299   2.638   4.497  1.2847 -0.6420 -0.3144
  399THF     H5 7119   4.326   2.715   4.344  0.6942  1.1485 -1.7872
  399THF     H6 7120   4.307   2.419   4.151 -0.7242  1.4088  0.1172
  399THF     H7 7121   4.354   2.587   4.149 -0.5983 -1.0777  3.2624
  399THF     C8 7122   4.474   2.462   4.289 -0.3981 -0.0051 -0.2560
  399THF     C9 7123   4.476   2.567   4.399 -0.9938  0.3755 -0.0888
  399THF    H10 7124   4.558   2.463   4.219 -0.6796 -0.2028 -1.6957
  399THF    H11 7125   4.473   2.366   4.335 -0.6777  3.5592  1.7556
  399THF    H12 7126   4.504   2.535   4.495  0.4428  1.6695 -0.3156
  399THF    H13 7127   4.549   2.645   4.390 -0.0066 -0.1863 -1.1929
  400THF     O1 7128   4.736   1.250   4.035 -0.0250  1.1289  0.0058
  400THF     C2 7129   4.703   1.132   3.957 -0.0594  0.8122  0.0045
  400THF     C3 7130   4.738   1.211   4.168 -0.6363  0.1647  0.2395
  400THF     H4 7131   4.796   1.103   3.902 -1.5767 -1.2701  1.9882
  400THF     H5 7132   4.622   1.152   3.888 -2.8923 -2.8164  1.5709
  400THF     H6 7133   4.845   1.182   4.185 -2.3126  0.8811  1.9237
  400THF     H7 7134   4.720   1.302   4.221 -0.1447  1.3689  0.1127
  400THF     C8 7135   4.632   1.101   4.183  0.7307  0.3678 -0.1710
  400THF     C9 7136   4.648   1.026   4.052 -0.1758 -0.2146 -0.0580
  400THF    H10 7137   4.527   1.134   4.188  0.7643  2.0218  2.0046
  400THF    H11 7138   4.648   1.041   4.273  1.2285  0.7533 -0.5481
  400THF    H12 7139   4.703   0.927   4.063  3.0114 -4.0161  0.5243
  400THF    H13 7140   4.548   0.994   4.019 -0.1978  0.6106  0.7601
  401THF     O1 7141   1.720   3.446   2.208  0.3008  0.1667 -0.3355
  401THF     C2 7142   1.841   3.514   2.249 -0.9761 -0.3421 -0.3748
  401THF     C3 7143   1.704   3.341   2.305  0.2277 -0.5428  1.0632
  401THF     H4 7144   1.858   3.611   2.199 -1.8210 -0.5092 -0.6936
  401THF     H5 7145   1.922   3.450   2.227  0.7012 -2.0803  0.9261
  401THF     H6 7146   1.595   3.325   2.300  0.9460  0.8191  1.8840
  401THF     H7 7147   1.760   3.246   2.280  1.6638 -1.0311 -1.5629
  401THF     C8 7148   1.741   3.402   2.433 -0.3690 -0.0310 -0.9283
  401THF     C9 7149   1.822   3.529   2.401  0.0350  0.2035 -0.4672
  401THF    H10 7150   1.809   3.347   2.493 -1.1633 -0.0779 -1.2298
  401THF    H11 7151   1.645   3.430   2.478 -1.2472  0.6979  0.0851
  401THF    H12 7152   1.770   3.625   2.415 -0.3020  0.2271  2.2154
  401THF    H13 7153   1.920   3.529   2.449  0.7198  0.1925  2.9395
  402THF     O1 7154   4.493   0.665   3.901 -0.3592 -0.0034 -0.3424
  402THF     C2 7155   4.607   0.597   3.935  0.3225  0.8261  0.4954
  402THF     C3 7156   4.419   0.696   4.017  0.4892  0.1662 -0.3296
  402THF     H4 7157   4.687   0.663   3.961  0.5165 -1.9702  0.1528
  402THF     H5 7158   4.635   0.534   3.849 -1.1201  0.9299 -1.1779
  402THF     H6 7159   4.431   0.796   4.055 -1.4749  0.8530 -0.0591
  402THF     H7 7160   4.314   0.674   4.006 -0.5100  3.9737  0.1096
  402THF     C8 7161   4.485   0.613   4.128 -0.2819  0.8110  0.1669
  402THF     C9 7162   4.560   0.505   4.055 -0.1452 -1.0312  0.5568
  402THF    H10 7163   4.419   0.578   4.203 -1.0949 -0.9063  0.0749
  402THF    H11 7164   4.560   0.681   4.175 -1.7041 -1.0323  0.5042
  402THF    H12 7165   4.643   0.470   4.115 -0.9557  2.6565  1.6101
  402THF    H13 7166   4.497   0.415   4.023  1.6205 -1.0182  0.6487
  403THF     O1 7167   4.896   5.467   2.815  0.2316  0.2346  0.0472
  403THF     C2 7168   4.789   5.551   2.839 -1.3924  0.1792 -0.3395
  403THF     C3 7169   5.006   5.513   2.886 -0.2430 -0.8933 -0.5656
  403THF     H4 7170   4.746   5.546   2.940  1.7522 -0.5797 -1.1084
  403THF     H5 7171   4.718   5.539   2.761  0.7234 -1.6394  0.2456
  403THF     H6 7172   4.977   5.490   2.991 -1.0748 -0.7732 -0.0158
  403THF     H7 7173   5.099   5.473   2.857 -1.1949  0.4372  1.5492
  403THF     C8 7174   4.999   5.665   2.867  0.4127  0.5099 -0.5045
  403THF     C9 7175   4.862   5.683   2.821  0.6786 -0.3197 -0.2004
  403THF    H10 7176   5.071   5.694   2.796  2.9578  1.3046  0.3514
  403THF    H11 7177   5.023   5.715   2.959  0.0889 -0.9595 -0.4292
  403THF    H12 7178   4.808   5.778   2.851 -0.6358 -0.5435  1.9801
  403THF    H13 7179   4.871   5.691   2.713 -0.3035  2.6470  2.4567
  404THF     O1 7180   0.638   0.991   0.339 -0.2890  0.8689  0.3135
  404THF     C2 7181   0.648   1.096   0.438  0.1520  0.8511 -0.7147
  404THF     C3 7182   0.667   1.053   0.212  0.4978 -0.9957 -0.8658
  404THF     H4 7183   0.748   1.101   0.488  3.5239 -3.3813 -1.2049
  404THF     H5 7184   0.574   1.067   0.516 -0.6294  0.7012  0.2655
  404THF     H6 7185   0.772   1.072   0.195 -1.1766  2.5101  0.7535
  404THF     H7 7186   0.642   0.987   0.129 -0.7716 -0.8663 -2.0335
  404THF     C8 7187   0.588   1.185   0.224 -0.1567 -0.0082 -0.2028
  404THF     C9 7188   0.623   1.227   0.362  0.7560 -0.7501  0.8606
  404THF    H10 7189   0.483   1.175   0.225  1.4988  1.5247 -0.3232
  404THF    H11 7190   0.612   1.256   0.148 -0.9404 -2.4111 -0.2464
  404THF    H12 7191   0.707   1.300   0.373  1.5485 -3.3898  1.9581
  404THF    H13 7192   0.546   1.280   0.416  0.5713  1.7708 -1.0974
  405THF     O1 7193   2.170   1.453   3.596  0.6790  0.3629  0.0498
  405THF     C2 7194   2.203   1.585   3.611 -0.2159 -0.5240  0.7775
  405THF     C3 7195   2.031   1.449   3.558  0.1645 -0.5825 -0.0631
  405THF     H4 7196   2.246   1.627   3.522 -1.3251  0.3847  2.2512
  405THF     H5 7197   2.285   1.600   3.687 -1.3282  1.0853 -2.5310
  405THF     H6 7198   2.022   1.489   3.450  3.1917 -0.7340 -0.4634
  405THF     H7 7199   1.990   1.352   3.569 -1.0205 -0.0043 -0.9125
  405THF     C8 7200   1.963   1.553   3.643 -0.1895 -0.6586  0.0240
  405THF     C9 7201   2.076   1.664   3.646  0.2715  0.0550 -0.0518
  405THF    H10 7202   1.946   1.521   3.743  3.7433 -1.5383  1.7545
  405THF    H11 7203   1.863   1.574   3.599  0.5860 -2.9137  3.3332
  405THF    H12 7204   2.051   1.732   3.567 -1.8679  2.0048  0.3192
  405THF    H13 7205   2.077   1.716   3.740  2.6123  1.1696 -1.2424
  406THF     O1 7206   4.149   1.937   0.384  0.0386 -0.2254  0.2188
  406THF     C2 7207   4.042   2.004   0.451 -0.5147 -0.1057 -0.1504
  406THF     C3 7208   4.201   2.017   0.276  0.0723 -0.2658 -0.1481
  406THF     H4 7209   4.093   2.079   0.519 -0.4536  0.7821  2.8294
  406THF     H5 7210   3.981   1.940   0.513  0.2210  1.7298 -0.1869
  406THF     H6 7211   4.270   2.097   0.302 -0.4229 -1.5028  2.4329
  406THF     H7 7212   4.252   1.954   0.209  0.5385 -0.6089 -3.1687
  406THF     C8 7213   4.066   2.077   0.219 -0.2707 -0.6057 -0.1035
  406THF     C9 7214   3.967   2.074   0.334 -0.0345 -0.0240  0.2481
  406THF    H10 7215   4.035   2.031   0.125  3.7560 -2.5089  2.8693
  406THF    H11 7216   4.080   2.182   0.200  0.4166 -2.3296  0.9462
  406THF    H12 7217   3.936   2.174   0.350 -0.5999 -1.5186 -0.0677
  406THF    H13 7218   3.878   2.023   0.311 -2.2090  2.9438  1.3872
  407THF     O1 7219   4.455   3.350   0.071  0.4634  0.1726  0.3750
  407THF     C2 7220   4.590   3.376   0.111 -0.0257 -0.3032 -0.5021
  407THF     C3 7221   4.365   3.371   0.183  0.5342  0.6656 -0.1749
  407THF     H4 7222   4.639   3.444   0.038 -0.7968  3.6660  0.2168
  407THF     H5 7223   4.652   3.287   0.117  0.0742  0.2843 -3.1568
  407THF     H6 7224   4.261   3.400   0.166 -0.5187  1.6835  1.0828
  407THF     H7 7225   4.342   3.279   0.241 -0.5256 -0.1589 -2.7467
  407THF     C8 7226   4.436   3.480   0.268  0.0516  0.1791 -0.3062
  407THF     C9 7227   4.581   3.445   0.246  0.8620  0.3032 -0.0964
  407THF    H10 7228   4.420   3.484   0.375 -1.3096  0.9190 -0.7595
  407THF    H11 7229   4.410   3.574   0.232  2.1350 -2.1985 -0.1357
  407THF    H12 7230   4.647   3.537   0.255  1.2861  1.5934  0.8839
  407THF    H13 7231   4.620   3.386   0.329  0.9522  2.9233  0.8240
  408THF     O1 7232   2.059   5.184   5.024 -0.2768  0.9918  0.5012
  408THF     C2 7233   2.189   5.217   4.968  0.0710 -0.1428 -0.2966
  408THF     C3 7234   1.969   5.201   4.918 -0.3049 -0.7876  0.4092
  408THF     H4 7235   2.237   5.128   4.930  1.7415  1.4452  1.5618
  408THF     H5 7236   2.255   5.260   5.042  1.0048  1.9338  1.4242
  408THF     H6 7237   1.983   5.122   4.847  1.6582  1.5958  0.1173
  408THF     H7 7238   1.866   5.202   4.945  2.1318 -1.2420 -0.2317
  408THF     C8 7239   2.019   5.336   4.854 -0.5590  0.0452  0.0465
  408THF     C9 7240   2.168   5.307   4.854 -0.3316  0.1122 -0.8583
  408THF    H10 7241   2.002   5.425   4.912  1.0054  1.7944  0.5118
  408THF    H11 7242   1.999   5.355   4.743 -1.4386  0.8253  0.8186
  408THF    H12 7243   2.201   5.260   4.764  0.5412 -2.0693 -3.4900
  408THF    H13 7244   2.216   5.406   4.863  2.4617  1.1461 -0.7540
  409THF     O1 7245   5.433   0.339   1.519  0.3521 -0.7251  0.0742
  409THF     C2 7246   5.573   0.361   1.516  0.7514  0.2755 -0.9527
  409THF     C3 7247   5.382   0.420   1.410  0.1100  0.4539 -0.3011
  409THF     H4 7248   5.637   0.296   1.455 -2.6448 -0.6076 -0.2107
  409THF     H5 7249   5.597   0.350   1.617 -1.3919  2.0349 -1.4230
  409THF     H6 7250   5.336   0.362   1.335  0.9377  1.8532 -1.4874
  409THF     H7 7251   5.300   0.480   1.455  0.4704 -1.6507  1.8036
  409THF     C8 7252   5.487   0.510   1.354 -0.0906 -0.2648  0.5205
  409THF     C9 7253   5.597   0.500   1.462 -0.0794 -0.1617  0.5474
  409THF    H10 7254   5.449   0.612   1.351 -2.0734 -1.2502 -2.0025
  409THF    H11 7255   5.521   0.474   1.259 -1.9434 -2.5200 -0.3286
  409THF    H12 7256   5.695   0.516   1.420  2.8034 -0.4578  0.0793
  409THF    H13 7257   5.589   0.576   1.536 -2.8370 -0.2844  0.1976
  410THF     O1 7258   2.115   2.187   4.360 -0.0534  0.3198  0.3975
  410THF     C2 7259   1.978   2.156   4.326 -0.1666 -0.5348 -0.8957
  410THF     C3 7260   2.157   2.080   4.446 -0.3928 -0.3978 -0.0495
  410THF     H4 7261   1.959   2.204   4.234  0.4103  0.1142  1.4208
  410THF     H5 7262   1.906   2.191   4.404  1.5848 -0.6570  2.4092
  410THF     H6 7263   2.252   2.047   4.404 -1.8192 -1.0423  1.4927
  410THF     H7 7264   2.185   2.110   4.551  0.2957 -0.4541  1.8066
  410THF     C8 7265   2.050   1.964   4.440 -0.1350 -0.9188  0.5581
  410THF     C9 7266   1.975   2.004   4.318 -0.6878 -0.5610 -0.3373
  410THF    H10 7267   1.977   1.982   4.523 -3.6973 -0.5134  1.6443
  410THF    H11 7268   2.086   1.863   4.446 -0.0114 -1.4897 -0.1716
  410THF    H12 7269   2.025   1.962   4.226 -1.2161 -0.9382  1.4192
  410THF    H13 7270   1.872   1.975   4.302 -0.7744  0.7960 -0.6698
  411THF     O1 7271   1.166   2.835   4.341  0.2328  0.3222 -0.3315
  411THF     C2 7272   1.213   2.967   4.332 -0.8483 -0.4742 -0.1990
  411THF     C3 7273   1.021   2.835   4.309  0.3098 -0.0511 -0.1757
  411THF     H4 7274   1.280   2.970   4.250  0.6847  1.5559 -0.5096
  411THF     H5 7275   1.274   2.971   4.420  0.5965 -1.7243  0.3706
  411THF     H6 7276   1.006   2.783   4.214 -0.6504  0.9453 -0.4117
  411THF     H7 7277   0.969   2.788   4.392  2.2546  2.8000 -0.1330
  411THF     C8 7278   0.984   2.977   4.292 -1.0813 -0.2493 -0.0013
  411THF     C9 7279   1.098   3.060   4.341  0.8291  0.6424 -0.4715
  411THF    H10 7280   0.889   2.995   4.337  0.6923  0.5890 -0.3988
  411THF    H11 7281   0.993   3.001   4.178 -1.3865  1.2241 -1.1243
  411THF    H12 7282   1.122   3.149   4.284  2.9314 -1.9248  1.8948
  411THF    H13 7283   1.083   3.089   4.444 -0.1581  0.1074  1.2286
  412THF     O1 7284   1.649   2.477   5.236 -0.0076  0.2411 -0.4164
  412THF     C2 7285   1.759   2.558   5.204  0.2297  0.2219  0.5342
  412THF     C3 7286   1.676   2.409   5.355  0.4558  0.3484 -0.2101
  412THF     H4 7287   1.761   2.651   5.259  0.9708  3.0680  0.0270
  412THF     H5 7288   1.751   2.593   5.097 -0.2827  2.8587 -0.3687
  412THF     H6 7289   1.657   2.476   5.441  1.6002  0.0588  0.4749
  412THF     H7 7290   1.628   2.319   5.364  2.3251 -0.0104 -0.4315
  412THF     C8 7291   1.829   2.387   5.349 -0.0622  0.3526 -0.0652
  412THF     C9 7292   1.873   2.477   5.234 -0.6337  0.4372 -0.1126
  412THF    H10 7293   1.859   2.281   5.333 -1.3093 -1.3282 -3.3492
  412THF    H11 7294   1.874   2.422   5.440  0.1736  0.7893  0.0977
  412THF    H12 7295   1.967   2.520   5.250 -0.4553 -1.3013 -0.6614
  412THF    H13 7296   1.889   2.405   5.155  0.8908  2.5196 -0.7791
  413THF     O1 7297   5.163   3.552   2.770  0.3599 -0.0633  0.1067
  413THF     C2 7298   5.237   3.434   2.783  0.0801  0.1747 -0.0276
  413THF     C3 7299   5.090   3.545   2.645 -0.0426  0.1193  0.5031
  413THF     H4 7300   5.183   3.345   2.822 -2.3939 -1.5885  0.9753
  413THF     H5 7301   5.330   3.447   2.844  1.7822 -1.6904 -0.9575
  413THF     H6 7302   4.984   3.532   2.670  0.2450 -0.6535  0.6174
  413THF     H7 7303   5.102   3.640   2.599  2.3174 -1.0500  2.3701
  413THF     C8 7304   5.146   3.428   2.564  0.5367  0.1284 -0.3295
  413THF     C9 7305   5.276   3.390   2.634 -0.4303 -0.3523 -0.5877
  413THF    H10 7306   5.149   3.456   2.454 -2.3352 -0.8827 -1.8054
  413THF    H11 7307   5.089   3.339   2.576  1.1865  1.9834 -0.5710
  413THF    H12 7308   5.287   3.278   2.635 -0.0226 -0.5326  1.3290
  413THF    H13 7309   5.365   3.446   2.594 -1.8729 -2.3629 -0.1929
  414THF     O1 7310   1.719   5.228   0.920 -0.1917  0.5749 -0.2105
  414THF     C2 7311   1.652   5.132   0.999 -0.1984 -0.0575  0.6335
  414THF     C3 7312   1.837   5.259   0.990 -0.3935 -0.3311  0.5235
  414THF     H4 7313   1.694   5.035   0.979 -1.0869  2.5646 -0.1841
  414THF     H5 7314   1.542   5.141   0.976  1.3322 -1.5193 -2.6767
  414THF     H6 7315   1.911   5.179   0.993  1.2359  1.8371  0.2119
  414THF     H7 7316   1.878   5.352   0.949 -0.1982  2.5414  0.7718
  414THF     C8 7317   1.780   5.278   1.129 -0.1946  0.7836  0.7262
  414THF     C9 7318   1.680   5.170   1.145 -0.6395 -0.4227 -0.7309
  414THF    H10 7319   1.734   5.377   1.128  0.3875  1.3789 -0.1746
  414THF    H11 7320   1.847   5.296   1.215 -2.7446  0.9444  0.6208
  414THF    H12 7321   1.722   5.085   1.204  0.8794 -1.2542  0.2714
  414THF    H13 7322   1.585   5.216   1.179  1.0545  2.9286  0.4843
  415THF     O1 7323   4.715   1.605   1.877 -0.0047 -0.2381 -0.7440
  415THF     C2 7324   4.769   1.481   1.855  0.1493  0.0779  0.1611
  415THF     C3 7325   4.575   1.596   1.886 -0.3092  0.1051 -0.6430
  415THF     H4 7326   4.770   1.437   1.952  0.5676  2.3920  0.3290
  415THF     H5 7327   4.867   1.481   1.818 -1.7768  2.9102 -1.9358
  415THF     H6 7328   4.548   1.562   1.986 -0.4373  1.0674 -1.5090
  415THF     H7 7329   4.521   1.690   1.873  1.7111 -0.8491 -0.6150
  415THF     C8 7330   4.544   1.489   1.772  0.2261 -0.7273 -0.0532
  415THF     C9 7331   4.672   1.416   1.757 -0.2046 -0.6942  0.0136
  415THF    H10 7332   4.527   1.542   1.678  2.6742 -1.3960 -1.2826
  415THF    H11 7333   4.450   1.432   1.785  1.4438  1.1109 -3.2188
  415THF    H12 7334   4.660   1.311   1.786 -4.1075 -1.6831  3.0153
  415THF    H13 7335   4.704   1.418   1.660  0.9586 -3.1809  1.1392
  416THF     O1 7336   4.631   3.834   0.570 -0.3448 -0.5418 -0.0268
  416THF     C2 7337   4.501   3.789   0.626  0.2259  0.2220  0.1104
  416THF     C3 7338   4.604   3.946   0.486  0.7601 -0.2188  0.2666
  416THF     H4 7339   4.518   3.729   0.715  3.5236  1.7011 -1.9562
  416THF     H5 7340   4.455   3.720   0.557 -2.0747 -1.6395  0.9459
  416THF     H6 7341   4.687   4.014   0.495  0.3861 -1.0366  1.4683
  416THF     H7 7342   4.602   3.922   0.382  1.1571  0.0323  1.8831
  416THF     C8 7343   4.465   4.001   0.520  0.6539  0.4398  0.0979
  416THF     C9 7344   4.426   3.916   0.645  0.2132 -0.0666  0.7084
  416THF    H10 7345   4.399   3.978   0.436  0.2939  0.1305  3.5871
  416THF    H11 7346   4.468   4.105   0.533  3.5424 -0.8230 -0.6305
  416THF    H12 7347   4.458   3.975   0.729 -1.6838  0.7242 -0.6082
  416THF    H13 7348   4.318   3.897   0.662 -1.9398  1.4124 -0.5798
  417THF     O1 7349   4.357   0.758   4.835  0.0255 -0.1455  0.1947
  417THF     C2 7350   4.305   0.628   4.816  0.1621  0.0087  1.1060
  417THF     C3 7351   4.435   0.749   4.961 -0.2625 -0.3084  0.0262
  417THF     H4 7352   4.308   0.601   4.710  0.5887 -0.1567 -3.3420
  417THF     H5 7353   4.199   0.622   4.861 -3.0982 -0.3741 -0.1516
  417THF     H6 7354   4.528   0.783   4.924 -1.4554  1.3084 -1.4300
  417THF     H7 7355   4.414   0.833   5.031 -0.7717  0.6769  0.4404
  417THF     C8 7356   4.417   0.607   5.005  0.2838 -0.0532  0.3082
  417THF     C9 7357   4.399   0.528   4.874 -0.6206 -0.3201 -0.7660
  417THF    H10 7358   4.327   0.596   5.062  1.1286  0.2949 -1.3563
  417THF    H11 7359   4.493   0.560   5.057  1.3068  2.9709 -0.1090
  417THF    H12 7360   4.499   0.532   4.830  0.2831 -1.9606  0.2554
  417THF    H13 7361   4.365   0.431   4.895 -2.0876  1.7333  0.8753
  418THF     O1 7362   1.626   1.842   0.510  0.2600 -0.2328  0.0530
  418THF     C2 7363   1.757   1.887   0.538 -0.4829  0.7179 -0.3254
  418THF     C3 7364   1.599   1.729   0.594  0.2994 -0.0557  0.1953
  418THF     H4 7365   1.776   1.991   0.524  2.1768 -2.2946  2.3627
  418THF     H5 7366   1.833   1.849   0.461  2.8826  1.2531 -2.4304
  418THF     H6 7367   1.501   1.706   0.600  0.8414  2.7231 -0.4611
  418THF     H7 7368   1.647   1.637   0.548 -1.6044 -1.4847  0.6552
  418THF     C8 7369   1.675   1.753   0.721 -0.2360 -0.2714 -0.5008
  418THF     C9 7370   1.794   1.846   0.678 -0.3945  0.0488 -0.0307
  418THF    H10 7371   1.696   1.662   0.764  0.8525  2.1414 -0.0015
  418THF    H11 7372   1.612   1.811   0.788  0.6266  1.2524 -0.8675
  418THF    H12 7373   1.803   1.930   0.750 -1.2088 -1.8468  3.7536
  418THF    H13 7374   1.887   1.783   0.682 -2.6710  0.4206 -2.7294
  419THF     O1 7375   4.131   1.113   0.651 -0.5429  0.7229 -0.4212
  419THF     C2 7376   4.065   1.238   0.636  0.5500  0.6121 -0.3431
  419THF     C3 7377   4.111   1.066   0.779 -0.6305 -0.0614 -0.3086
  419THF     H4 7378   3.960   1.220   0.598 -0.7387  1.1488  0.7967
  419THF     H5 7379   4.106   1.302   0.556  1.2989 -0.8972 -2.5260
  419THF     H6 7380   4.015   1.013   0.808 -0.9358  1.1867 -2.3781
  419THF     H7 7381   4.193   1.006   0.811 -1.4149  0.3290 -0.8409
  419THF     C8 7382   4.134   1.202   0.855 -0.1810  0.3177  0.1363
  419THF     C9 7383   4.062   1.301   0.771  0.6296  0.2297  0.4199
  419THF    H10 7384   4.236   1.247   0.869  1.0436  1.7776 -1.4591
  419THF    H11 7385   4.092   1.203   0.953  2.2022  0.7016 -1.0011
  419THF    H12 7386   3.958   1.321   0.806  0.7812  0.1255  4.5025
  419THF    H13 7387   4.105   1.406   0.774 -0.9885  0.5254  1.2336
  420THF     O1 7388   0.063   0.422   4.147  0.0261 -0.0608 -0.3781
  420THF     C2 7389  -0.065   0.395   4.100  0.1645  0.1741 -0.4617
  420THF     C3 7390   0.062   0.404   4.289  0.0104  0.3221 -0.2750
  420THF     H4 7391  -0.054   0.362   3.997  1.4839 -0.5204 -0.0599
  420THF     H5 7392  -0.135   0.477   4.095  0.4499  0.8604 -0.9299
  420THF     H6 7393   0.160   0.403   4.331 -0.3733  1.1037 -4.2355
  420THF     H7 7394   0.026   0.502   4.317 -0.3251 -0.6362 -0.6634
  420THF     C8 7395  -0.042   0.299   4.329 -0.8974  0.2452  0.6525
  420THF     C9 7396  -0.122   0.284   4.198 -0.1685 -0.5555  0.5421
  420THF    H10 7397  -0.110   0.342   4.402 -3.1489  0.1030 -2.2879
  420THF    H11 7398   0.006   0.213   4.351 -2.1556  1.1927 -1.2197
  420THF    H12 7399  -0.099   0.185   4.166 -0.2490  1.1539 -1.1513
  420THF    H13 7400  -0.231   0.297   4.198  0.7336  0.5693  1.6495
  421THF     O1 7401   4.097   0.327   2.219 -0.2090 -0.2663 -0.3409
  421THF     C2 7402   4.068   0.424   2.315 -0.5479 -0.5117  0.0112
  421THF     C3 7403   4.125   0.211   2.292  0.2445  0.2218  0.3826
  421THF     H4 7404   4.025   0.520   2.286 -0.6241 -0.5361  0.5773
  421THF     H5 7405   4.165   0.456   2.358 -0.8947  0.9357 -0.9384
  421THF     H6 7406   4.111   0.129   2.223  0.6337  1.3422  0.2056
  421THF     H7 7407   4.224   0.207   2.336 -0.4240  0.4341 -0.0367
  421THF     C8 7408   4.017   0.207   2.400 -0.7650  0.0140 -0.1977
  421THF     C9 7409   3.981   0.348   2.419 -0.1039 -0.1615  0.5155
  421THF    H10 7410   4.034   0.164   2.497 -0.3467 -0.2226 -0.1238
  421THF    H11 7411   3.933   0.158   2.358 -1.1718 -1.4323 -0.3229
  421THF    H12 7412   3.881   0.380   2.400  0.7567 -0.2098 -1.9295
  421THF    H13 7413   4.008   0.372   2.523 -0.2001  0.9639 -1.3223
  422THF     O1 7414   3.304   4.625   5.040 -0.7656 -0.3438  0.0909
  422THF     C2 7415   3.199   4.541   4.994  0.5155 -0.2016  0.3256
  422THF     C3 7416   3.365   4.566   5.154  0.2285 -0.1789 -0.3212
  422THF     H4 7417   3.219   4.516   4.887 -2.1209  0.6214  2.3277
  422THF     H5 7418   3.108   4.595   4.990  3.4912 -0.8117  0.3015
  422THF     H6 7419   3.447   4.497   5.129  0.2274  2.1919  2.2233
  422THF     H7 7420   3.403   4.644   5.224 -0.0820  1.8598  0.6178
  422THF     C8 7421   3.253   4.481   5.214  0.2359  0.2549  0.0587
  422THF     C9 7422   3.195   4.419   5.084  0.1826 -0.3434 -0.3589
  422THF    H10 7423   3.172   4.543   5.257  0.4627 -2.0155 -2.1127
  422THF    H11 7424   3.278   4.418   5.296 -1.5595  2.4688 -1.1553
  422THF    H12 7425   3.269   4.341   5.041 -1.1251  0.2768 -1.1929
  422THF    H13 7426   3.097   4.379   5.099 -0.2009  1.0025  3.3411
  423THF     O1 7427   2.256   2.595   0.101 -0.0442 -0.5206 -0.3345
  423THF     C2 7428   2.125   2.537   0.116  0.0168 -0.0957 -0.4061
  423THF     C3 7429   2.254   2.715   0.163 -0.9281  0.0801  0.0423
  423THF     H4 7430   2.103   2.472   0.211  1.2941  0.9268  4.1889
  423THF     H5 7431   2.096   2.479   0.026 -0.0420 -0.7432 -0.3224
  423THF     H6 7432   2.269   2.710   0.270  1.4171  0.8476  0.2486
  423THF     H7 7433   2.324   2.787   0.124 -1.5048  0.7810 -0.6001
  423THF     C8 7434   2.113   2.770   0.151 -0.5315  0.0726  0.4086
  423THF     C9 7435   2.028   2.653   0.119 -0.1043 -0.0724 -0.4096
  423THF    H10 7436   2.113   2.840   0.062  3.5420  1.8390  0.6816
  423THF    H11 7437   2.085   2.826   0.239  2.3664 -1.7985  2.0913
  423THF    H12 7438   1.942   2.638   0.187 -0.0810 -0.6384  1.1497
  423THF    H13 7439   1.994   2.657   0.015 -0.6708 -3.2339  1.9636
  424THF     O1 7440   2.085   0.069   5.308 -0.0910 -0.6511 -0.4469
  424THF     C2 7441   2.073   0.055   5.165  0.4912 -0.0084  0.0241
  424THF     C3 7442   2.205   0.125   5.351  0.6315 -0.2167  0.2921
  424THF     H4 7443   2.032   0.154   5.137  0.5339  1.3444 -0.5723
  424THF     H5 7444   2.014  -0.033   5.137 -3.0520 -1.3379  0.8947
  424THF     H6 7445   2.180   0.217   5.407 -3.2291  0.0204  1.6261
  424THF     H7 7446   2.265   0.065   5.414  1.5276 -1.4740 -1.2994
  424THF     C8 7447   2.281   0.148   5.223  0.3382 -0.7161 -0.2853
  424THF     C9 7448   2.219   0.059   5.117 -1.0518  0.2676 -0.3250
  424THF    H10 7449   2.385   0.143   5.221  1.6450 -0.9070  1.9466
  424THF    H11 7450   2.262   0.254   5.204  0.2430  1.4805 -0.8635
  424THF    H12 7451   2.227   0.089   5.010  0.1488 -0.8633 -0.3087
  424THF    H13 7452   2.268  -0.039   5.135  0.7189 -1.3798 -0.0286
  425THF     O1 7453   1.223   4.894   5.407  0.0440 -0.1814  0.0179
  425THF     C2 7454   1.179   4.954   5.278  0.0410  0.2034 -0.1124
  425THF     C3 7455   1.277   4.765   5.373  0.5339 -0.7891  0.7303
  425THF     H4 7456   1.254   4.985   5.211  1.1231  2.6806  2.1043
  425THF     H5 7457   1.117   5.034   5.297 -2.4698 -2.6563 -0.9881
  425THF     H6 7458   1.378   4.784   5.333 -1.1265  1.9320 -1.6972
  425THF     H7 7459   1.284   4.704   5.459  0.2825  1.8120 -0.5044
  425THF     C8 7460   1.184   4.720   5.264 -0.3844 -0.5065 -0.9217
  425THF     C9 7461   1.099   4.835   5.215 -0.0350  0.2912  0.3755
  425THF    H10 7462   1.113   4.661   5.308 -1.9270  0.8152 -1.1410
  425THF    H11 7463   1.233   4.657   5.193  0.3607 -0.1685  1.5501
  425THF    H12 7464   1.084   4.852   5.109 -0.1213  0.4359  0.1711
  425THF    H13 7465   1.005   4.819   5.267 -0.4742  0.8079  2.6952
  426THF     O1 7466   1.146   1.428   0.149 -0.0028 -0.6844  0.1240
  426THF     C2 7467   1.100   1.300   0.160 -0.2994  0.3787 -0.5676
  426THF     C3 7468   1.269   1.432   0.075  0.1438  0.1659 -0.3109
  426THF     H4 7469   1.004   1.299   0.120 -3.0569  0.2449 -0.6450
  426THF     H5 7470   1.085   1.280   0.264 -0.3825  1.8096  0.4294
  426THF     H6 7471   1.267   1.515   0.006  1.7118 -0.8081  1.3886
  426THF     H7 7472   1.347   1.447   0.148 -1.2183  2.5555 -0.7352
  426THF     C8 7473   1.282   1.289   0.015 -0.3947 -0.1128  0.3914
  426THF     C9 7474   1.209   1.202   0.113  0.0049  0.2641 -0.2383
  426THF    H10 7475   1.383   1.258   0.017 -2.2669  0.2437 -1.5831
  426THF    H11 7476   1.236   1.287  -0.083  0.6660 -0.2717 -1.0206
  426THF    H12 7477   1.165   1.115   0.063 -1.7883  2.7947 -0.9940
  426THF    H13 7478   1.275   1.175   0.195 -1.0027  2.2469 -2.9309
  427THF     O1 7479   5.388   3.191   0.947 -0.2853  0.7472 -0.0225
  427THF     C2 7480   5.346   3.328   0.969 -0.8112 -0.0112  0.1431
  427THF     C3 7481   5.430   3.179   0.813  0.0740 -0.1299 -0.7768
  427THF     H4 7482   5.434   3.382   0.999 -6.1661  0.5622  0.7006
  427THF     H5 7483   5.272   3.333   1.046 -0.8630 -0.0517 -0.6754
  427THF     H6 7484   5.535   3.193   0.797  0.3718  1.2725 -0.8655
  427THF     H7 7485   5.418   3.085   0.767 -1.1821  0.8183 -0.7392
  427THF     C8 7486   5.354   3.288   0.733  0.0496 -0.4134 -0.6518
  427THF     C9 7487   5.295   3.387   0.834 -0.1228 -0.0674  0.2405
  427THF    H10 7488   5.272   3.239   0.683  1.1101  1.5459  2.3321
  427THF    H11 7489   5.409   3.338   0.653  3.5923  2.2498 -0.6857
  427THF    H12 7490   5.338   3.490   0.830  2.5216  1.5772 -0.5009
  427THF    H13 7491   5.189   3.381   0.822  0.5866  0.6304  1.8145
  428THF     O1 7492   0.799   5.092   5.428  0.1571 -0.8634  0.2645
  428THF     C2 7493   0.870   5.200   5.373 -0.1056 -0.2359 -0.0829
  428THF     C3 7494   0.704   5.059   5.325  0.1040 -0.6241 -0.0409
  428THF     H4 7495   0.972   5.182   5.403  1.5507 -0.9707  0.3899
  428THF     H5 7496   0.821   5.286   5.419  0.8088 -1.2360  2.7067
  428THF     H6 7497   0.672   4.955   5.332 -0.1260 -0.0117 -0.8205
  428THF     H7 7498   0.614   5.119   5.324  1.3489  0.7745 -2.1742
  428THF     C8 7499   0.772   5.083   5.197 -0.2023 -0.1976 -0.0870
  428THF     C9 7500   0.837   5.215   5.222 -0.6941  0.1110 -0.4110
  428THF    H10 7501   0.705   5.093   5.113  1.7990 -0.8949  0.9779
  428THF    H11 7502   0.841   5.006   5.175  1.0510 -0.6837  0.8829
  428THF    H12 7503   0.920   5.249   5.154 -1.2724  0.0760 -1.4294
  428THF    H13 7504   0.765   5.301   5.205 -0.3591 -1.5135 -0.0314
  429THF     O1 7505   3.975   2.788   2.808 -0.1801 -0.0520  0.4697
  429THF     C2 7506   4.030   2.796   2.675 -0.4676  0.2010  0.2296
  429THF     C3 7507   3.874   2.691   2.810  0.5416  0.6900 -0.5619
  429THF     H4 7508   4.143   2.787   2.679  0.1863  1.0150 -0.3324
  429THF     H5 7509   4.006   2.885   2.617 -1.1601  0.3451  1.7911
  429THF     H6 7510   3.860   2.661   2.914  1.3882  3.1525 -0.7663
  429THF     H7 7511   3.777   2.733   2.786 -1.5010  1.1157  1.3348
  429THF     C8 7512   3.931   2.587   2.711  0.0223 -0.5986  0.2292
  429THF     C9 7513   3.967   2.677   2.597 -0.4869  0.2263  0.0179
  429THF    H10 7514   3.865   2.503   2.679  0.0069  0.5032  0.8342
  429THF    H11 7515   4.012   2.538   2.767  1.1846  0.3751 -1.2512
  429THF    H12 7516   4.035   2.621   2.531 -1.3935  0.2637 -0.9868
  429THF    H13 7517   3.871   2.706   2.547 -1.3208 -0.4737 -0.0568
  430THF     O1 7518   4.288   3.311   0.618 -0.7047 -0.2916 -0.2768
  430THF     C2 7519   4.172   3.377   0.645  0.2687 -0.4730 -0.0474
  430THF     C3 7520   4.265   3.199   0.522  0.1328  0.3266  0.9810
  430THF     H4 7521   4.181   3.480   0.683 -0.4233  1.5086  1.1890
  430THF     H5 7522   4.115   3.320   0.713 -0.8440 -1.1515 -1.1347
  430THF     H6 7523   4.356   3.201   0.466 -0.9389 -1.2002  1.9591
  430THF     H7 7524   4.262   3.105   0.576 -1.9055 -0.3426 -1.3199
  430THF     C8 7525   4.133   3.240   0.457  0.1699 -0.9347  0.2577
  430THF     C9 7526   4.110   3.371   0.505  0.7202  1.0255  0.0967
  430THF    H10 7527   4.059   3.180   0.507  1.4275 -1.6274  0.7817
  430THF    H11 7528   4.129   3.228   0.350 -2.6410  1.0060  2.6115
  430THF    H12 7529   4.162   3.445   0.447 -0.5069  1.5808 -1.0111
  430THF    H13 7530   4.001   3.378   0.510  2.5992  1.1493  0.6919
  431THF     O1 7531   1.489   1.620   2.544  0.3346 -0.2313  0.3616
  431THF     C2 7532   1.615   1.636   2.476  0.2371  0.4411  0.6699
  431THF     C3 7533   1.405   1.555   2.458  0.2658  0.5001 -0.1570
  431THF     H4 7534   1.696   1.628   2.540 -1.3682  2.8975 -1.2049
  431THF     H5 7535   1.614   1.728   2.420 -0.7832  1.5755  0.1789
  431THF     H6 7536   1.326   1.503   2.511  0.7900  3.7636  0.3726
  431THF     H7 7537   1.357   1.633   2.390 -1.7268 -1.7255  1.1099
  431THF     C8 7538   1.483   1.458   2.379 -0.3586  0.1865  0.5680
  431THF     C9 7539   1.620   1.515   2.380 -0.1447 -0.2680 -0.9892
  431THF    H10 7540   1.434   1.435   2.285 -0.1298  3.0691  3.4785
  431THF    H11 7541   1.485   1.355   2.431 -2.0985 -1.8506  0.4533
  431THF    H12 7542   1.691   1.444   2.422  1.5807 -0.2482 -0.9676
  431THF    H13 7543   1.655   1.547   2.281  1.5731  1.9816 -1.4352
  432THF     O1 7544   0.627   0.915   2.644 -0.1351  1.0619  0.5984
  432THF     C2 7545   0.509   0.913   2.559 -0.2206  0.1742 -0.4107
  432THF     C3 7546   0.698   1.028   2.608 -0.3115 -0.2883  0.2286
  432THF     H4 7547   0.446   0.998   2.600 -1.8615  0.9358 -0.4223
  432THF     H5 7548   0.461   0.814   2.571  0.5857  1.9761 -0.4343
  432THF     H6 7549   0.650   1.106   2.663  2.2102 -3.0714 -1.7126
  432THF     H7 7550   0.800   1.032   2.646 -1.0661  1.4692 -1.6335
  432THF     C8 7551   0.693   1.032   2.456  0.5111 -0.3952 -0.4798
  432THF     C9 7552   0.581   0.941   2.424  0.6214 -0.0820  0.5750
  432THF    H10 7553   0.789   0.994   2.420 -0.5852  1.7806 -1.7830
  432THF    H11 7554   0.685   1.130   2.417  2.3411 -0.7753 -2.2996
  432THF    H12 7555   0.515   0.991   2.352 -0.7802  0.4401  1.4822
  432THF    H13 7556   0.608   0.853   2.366  1.1688  0.7948 -0.0705
  433THF     O1 7557   0.850   0.878   4.622 -0.6327 -0.2203 -0.3748
  433THF     C2 7558   0.772   0.885   4.742  0.2218  1.3154 -0.1970
  433THF     C3 7559   0.938   0.765   4.626  0.3950  0.7323  0.5099
  433THF     H4 7560   0.671   0.912   4.706 -1.6575  0.3110 -2.6871
  433THF     H5 7561   0.820   0.936   4.822  1.3229 -0.6818 -1.1396
  433THF     H6 7562   0.951   0.717   4.532 -2.1222  3.8726  2.7691
  433THF     H7 7563   1.039   0.792   4.665 -1.5818  0.1343  0.3747
  433THF     C8 7564   0.868   0.658   4.716 -0.1517 -0.5864  0.2012
  433THF     C9 7565   0.768   0.736   4.787  0.4765  0.6775 -0.0860
  433THF    H10 7566   0.938   0.609   4.785  1.6729  0.6463 -0.7760
  433THF    H11 7567   0.826   0.583   4.649  0.5823  0.0684 -1.8221
  433THF    H12 7568   0.671   0.694   4.769  0.4769  1.7788  1.3534
  433THF    H13 7569   0.778   0.728   4.900  1.2955 -1.1962  2.5864
  434THF     O1 7570   5.455   2.769   5.449 -0.3135 -0.2328  0.2291
  434THF     C2 7571   5.451   2.909   5.451  1.0021  0.0208 -0.5701
  434THF     C3 7572   5.473   2.723   5.316 -0.4455  0.4681  0.3284
  434THF     H4 7573   5.549   2.932   5.484 -0.2689 -0.2386 -0.8958
  434THF     H5 7574   5.386   2.957   5.516  1.3621  1.0252 -2.7413
  434THF     H6 7575   5.551   2.644   5.306  2.0001  1.8265  0.5865
  434THF     H7 7576   5.383   2.670   5.275 -0.1655  1.4584 -0.5066
  434THF     C8 7577   5.510   2.844   5.229  0.0195 -0.3544  0.7486
  434THF     C9 7578   5.433   2.957   5.305 -0.4425 -0.3856  0.6151
  434THF    H10 7579   5.479   2.828   5.124 -0.2996 -0.9968 -0.7444
  434THF    H11 7580   5.613   2.861   5.219  0.0486 -0.3948  2.2102
  434THF    H12 7581   5.465   3.063   5.282 -0.8563  0.8117 -2.8696
  434THF    H13 7582   5.329   2.956   5.285  0.5101  1.3936 -0.4037
  435THF     O1 7583   3.646   4.698   4.728  0.1654 -0.0358  0.2452
  435THF     C2 7584   3.519   4.627   4.700  0.5312  0.2182 -0.6725
  435THF     C3 7585   3.657   4.809   4.637 -0.6779  0.2620 -0.3254
  435THF     H4 7586   3.441   4.680   4.754  1.4258 -1.2343 -1.4037
  435THF     H5 7587   3.520   4.527   4.757  1.3816 -1.0873  2.1615
  435THF     H6 7588   3.588   4.888   4.675  0.3071 -0.0363  0.2525
  435THF     H7 7589   3.764   4.847   4.637  1.9309  1.0347  0.0080
  435THF     C8 7590   3.615   4.737   4.505 -0.1113  0.4081 -0.3205
  435THF     C9 7591   3.526   4.618   4.552  0.4897 -0.4675 -0.3671
  435THF    H10 7592   3.701   4.710   4.446  0.1580  1.2354  0.8219
  435THF    H11 7593   3.559   4.805   4.440  0.4353 -0.4364 -1.5280
  435THF    H12 7594   3.434   4.611   4.495  2.0732 -1.2880 -1.2286
  435THF    H13 7595   3.582   4.534   4.520 -0.9425  0.3241  0.9247
  436THF     O1 7596   0.318   0.369   0.668  0.1816  0.3329  0.9311
  436THF     C2 7597   0.344   0.456   0.552 -0.0142  0.6464 -0.2652
  436THF     C3 7598   0.425   0.277   0.675 -0.0016 -0.2914 -0.3979
  436THF     H4 7599   0.422   0.524   0.583 -1.9019 -0.2493  2.7038
  436THF     H5 7600   0.254   0.508   0.517  0.3110 -0.3898 -1.9891
  436THF     H6 7601   0.511   0.328   0.721 -1.2533 -1.0195  1.3264
  436THF     H7 7602   0.401   0.189   0.726  0.5819 -2.0061 -1.1512
  436THF     C8 7603   0.460   0.240   0.531 -0.8742 -0.3006 -0.2265
  436THF     C9 7604   0.414   0.363   0.449 -0.0357  0.2703 -1.3421
  436THF    H10 7605   0.413   0.155   0.486 -1.6835 -2.9117 -0.0848
  436THF    H11 7606   0.567   0.225   0.512  0.5381 -0.7273 -2.4792
  436THF    H12 7607   0.495   0.411   0.395 -1.5541 -2.3174  1.3990
  436THF    H13 7608   0.345   0.342   0.367  2.4859 -1.3055 -2.1865
  437THF     O1 7609   1.308   3.412   3.591  0.0025  0.0356  0.3781
  437THF     C2 7610   1.320   3.442   3.446  0.2297 -0.5496  1.1863
  437THF     C3 7611   1.176   3.355   3.598 -0.6027 -0.1022 -0.5601
  437THF     H4 7612   1.331   3.347   3.390 -0.1389 -2.7995  2.2711
  437THF     H5 7613   1.406   3.514   3.425  0.0927  0.0815 -1.2329
  437THF     H6 7614   1.198   3.251   3.587  1.6785  1.7639 -0.1478
  437THF     H7 7615   1.139   3.379   3.696 -0.3207  0.3658 -1.2198
  437THF     C8 7616   1.091   3.398   3.475  0.0151  0.1029 -0.0670
  437THF     C9 7617   1.188   3.508   3.421 -0.0765  0.0497 -0.7150
  437THF    H10 7618   0.992   3.423   3.497  2.9475 -0.8377 -0.8035
  437THF    H11 7619   1.081   3.311   3.413  1.2328  2.0334 -1.9952
  437THF    H12 7620   1.164   3.541   3.321  2.1324  3.8798  0.6388
  437THF    H13 7621   1.187   3.597   3.480  1.7811 -0.2497 -0.6788
  438THF     O1 7622   1.024   2.039   2.842  0.4496  0.4196  0.1430
  438THF     C2 7623   0.950   2.142   2.775  0.4529  0.1236  0.5103
  438THF     C3 7624   1.138   2.106   2.901 -0.1060  0.3018 -0.6211
  438THF     H4 7625   0.849   2.111   2.744  0.8666  1.7024  2.5497
  438THF     H5 7626   1.007   2.188   2.689 -2.8158 -2.0209 -0.8323
  438THF     H6 7627   1.201   2.047   2.970 -2.4145 -0.8968  1.2388
  438THF     H7 7628   1.195   2.153   2.820  0.2066  1.6208  0.3719
  438THF     C8 7629   1.065   2.217   2.973  0.5467 -0.7541  0.3372
  438THF     C9 7630   0.933   2.239   2.888 -0.3377 -0.1367  0.7677
  438THF    H10 7631   1.119   2.316   2.972  2.6300 -0.1079 -0.5816
  438THF    H11 7632   1.032   2.185   3.073  3.5168  0.5280  1.4055
  438THF    H12 7633   0.844   2.213   2.940  4.0769 -1.1791 -0.0254
  438THF    H13 7634   0.918   2.338   2.835  0.1652  0.5745 -0.8196
  439THF     O1 7635   4.931   2.223   3.228  0.3607 -0.1848 -0.8593
  439THF     C2 7636   4.812   2.143   3.236 -0.3594  0.5894 -0.9709
  439THF     C3 7637   4.935   2.318   3.329  0.2584  0.0674 -0.4094
  439THF     H4 7638   4.831   2.039   3.211 -2.7277  3.1423 -1.2603
  439THF     H5 7639   4.739   2.188   3.165 -2.2986  2.0715  0.2733
  439THF     H6 7640   5.011   2.283   3.404  1.8774  2.0935 -0.5428
  439THF     H7 7641   4.956   2.415   3.289  1.9410 -2.2228  1.0696
  439THF     C8 7642   4.804   2.310   3.401 -0.0902 -0.1011  0.5146
  439THF     C9 7643   4.772   2.161   3.380  0.1210 -0.7155  0.3792
  439THF    H10 7644   4.734   2.372   3.352  0.5822  0.5986 -1.8568
  439THF    H11 7645   4.801   2.345   3.502 -1.0021 -2.6315 -0.9531
  439THF    H12 7646   4.832   2.106   3.455 -0.1128  1.2312  0.0433
  439THF    H13 7647   4.668   2.137   3.395 -0.5692 -0.0450  0.0548
  440THF     O1 7648   3.188   0.385   0.603 -0.0576  0.2939 -0.1734
  440THF     C2 7649   3.327   0.343   0.598 -0.8112  0.1744 -0.4863
  440THF     C3 7650   3.187   0.519   0.648  0.0538 -0.2709 -0.2378
  440THF     H4 7651   3.358   0.325   0.500 -0.0214 -1.7445  2.2705
  440THF     H5 7652   3.322   0.261   0.665 -1.3778 -1.6404  0.7888
  440THF     H6 7653   3.104   0.578   0.608  2.2528 -0.7158 -1.6472
  440THF     H7 7654   3.186   0.504   0.756 -0.7021  1.3271 -1.4184
  440THF     C8 7655   3.323   0.581   0.614  0.3685 -0.7752  0.8824
  440THF     C9 7656   3.413   0.462   0.648  0.4587  0.3063 -0.9305
  440THF    H10 7657   3.334   0.667   0.684  0.3231  2.0014 -2.2989
  440THF    H11 7658   3.331   0.605   0.509  2.1587 -0.1768 -0.7824
  440THF    H12 7659   3.507   0.466   0.600  2.0311  3.2063 -1.2658
  440THF    H13 7660   3.420   0.462   0.761 -0.9775  0.2280  1.8226
  441THF     O1 7661   4.245   3.835   3.818  0.5627 -0.2519  0.2798
  441THF     C2 7662   4.289   3.712   3.862 -0.2008 -0.3206 -0.1594
  441THF     C3 7663   4.130   3.820   3.736 -0.7355  0.6646  0.2675
  441THF     H4 7664   4.237   3.704   3.955  4.2342 -0.6046 -1.9997
  441THF     H5 7665   4.401   3.714   3.871  1.6320  2.0977 -0.7326
  441THF     H6 7666   4.041   3.837   3.794  0.9647 -1.1003 -0.3717
  441THF     H7 7667   4.145   3.898   3.661 -1.0161 -0.9777 -3.0493
  441THF     C8 7668   4.132   3.674   3.679 -0.0852 -0.0307 -0.0176
  441THF     C9 7669   4.237   3.605   3.762 -0.1322  0.4170 -0.9660
  441THF    H10 7670   4.179   3.698   3.585  1.0857  4.9588  1.0711
  441THF    H11 7671   4.041   3.626   3.658  0.9184  0.2121  0.1984
  441THF    H12 7672   4.208   3.515   3.816  0.5510 -1.7445  1.3718
  441THF    H13 7673   4.309   3.567   3.692 -1.2142  0.7113 -1.3369
  442THF     O1 7674   1.993   1.109   0.069  0.1393  0.4299  0.0391
  442THF     C2 7675   1.916   1.000   0.122  0.0996 -0.1131 -0.5625
  442THF     C3 7676   2.133   1.084   0.083  0.0747 -0.5080 -0.9336
  442THF     H4 7677   1.902   0.911   0.068 -3.1482 -2.1986  2.6871
  442THF     H5 7678   1.815   1.041   0.157 -0.8590 -1.3045 -0.4490
  442THF     H6 7679   2.190   1.050  -0.004  1.1278 -2.7229 -3.7391
  442THF     H7 7680   2.182   1.169   0.129  2.5214 -0.7091  0.6114
  442THF     C8 7681   2.145   0.982   0.191  0.4558 -0.7574 -0.1230
  442THF     C9 7682   1.999   0.958   0.240 -0.0449  0.7241 -0.6168
  442THF    H10 7683   2.211   1.013   0.268  2.5804 -1.9661  0.0674
  442THF    H11 7684   2.183   0.892   0.149 -0.9707 -0.7180 -0.1675
  442THF    H12 7685   1.988   0.842   0.271  2.1795 -2.7136  3.9379
  442THF    H13 7686   1.985   1.026   0.334 -2.0606  2.3614  3.4602
  443THF     O1 7687   3.348   3.727   2.546 -0.5154  1.1404  0.3926
  443THF     C2 7688   3.295   3.594   2.580  0.5725 -0.8969  0.3640
  443THF     C3 7689   3.428   3.776   2.662  0.0054  0.4101 -0.2872
  443THF     H4 7690   3.344   3.515   2.522 -0.8859  2.3061  0.5028
  443THF     H5 7691   3.194   3.604   2.537 -1.0305  1.5724  0.5962
  443THF     H6 7692   3.531   3.740   2.639  1.4147 -0.0597 -0.8409
  443THF     H7 7693   3.413   3.886   2.667  1.9964  0.2616  2.9580
  443THF     C8 7694   3.361   3.714   2.785  0.1459  0.5773 -0.8451
  443THF     C9 7695   3.299   3.580   2.734  0.2208  0.2742  0.2506
  443THF    H10 7696   3.280   3.777   2.816  1.7353 -1.2850  0.0199
  443THF    H11 7697   3.424   3.708   2.869 -0.9112  2.0097 -0.2617
  443THF    H12 7698   3.377   3.512   2.753 -0.6232  2.0073  0.2718
  443THF    H13 7699   3.218   3.534   2.794 -0.5214 -1.1741  1.9645
  444THF     O1 7700   4.881   2.971   0.914 -0.1947  0.5775  0.0200
  444THF     C2 7701   4.920   3.015   1.037 -0.2177  0.0650 -0.2955
  444THF     C3 7702   4.998   2.917   0.836 -0.1613 -0.0468 -1.2467
  444THF     H4 7703   4.930   2.930   1.106  2.3458 -1.1525  2.0698
  444THF     H5 7704   4.855   3.084   1.084  1.0218 -0.7552 -2.7169
  444THF     H6 7705   4.985   2.810   0.822 -0.6766  0.2058 -1.4556
  444THF     H7 7706   5.010   2.959   0.737  1.7455 -1.5394 -0.3383
  444THF     C8 7707   5.121   2.966   0.920 -0.3450 -0.3846 -0.7388
  444THF     C9 7708   5.061   3.076   1.010 -0.2941 -0.1245  0.7155
  444THF    H10 7709   5.200   2.985   0.850  0.0759 -0.8335 -0.2706
  444THF    H11 7710   5.156   2.877   0.975  1.2705 -0.5940 -1.5798
  444THF    H12 7711   5.116   3.089   1.103  2.2364 -1.6747 -0.5753
  444THF    H13 7712   5.045   3.174   0.957  1.0733 -1.3410 -3.1727
  445THF     O1 7713   2.237   1.148   2.192 -0.2331 -0.0659  0.4284
  445THF     C2 7714   2.380   1.156   2.180 -0.3401 -0.8631 -0.7298
  445THF     C3 7715   2.205   1.128   2.330  0.3921 -0.7425 -0.2917
  445THF     H4 7716   2.420   1.195   2.081  2.6139  3.5972  0.2010
  445THF     H5 7717   2.424   1.065   2.212 -0.5885 -0.0492  0.6862
  445THF     H6 7718   2.103   1.155   2.356 -1.6472 -0.9573  1.0098
  445THF     H7 7719   2.225   1.022   2.361  0.3250 -2.9539 -0.0278
  445THF     C8 7720   2.302   1.226   2.400 -0.2947 -0.0582 -0.4513
  445THF     C9 7721   2.409   1.252   2.295  0.1455 -0.3306 -0.0869
  445THF    H10 7722   2.348   1.197   2.485 -0.5281  0.0371 -0.0683
  445THF    H11 7723   2.250   1.321   2.424 -1.6406  0.8059 -1.4454
  445THF    H12 7724   2.396   1.363   2.261  1.7024  0.1794  2.8879
  445THF    H13 7725   2.511   1.251   2.333  0.7699 -0.3039  0.1567
  446THF     O1 7726   4.980   0.557   0.083  0.1782 -0.0300 -0.7458
  446THF     C2 7727   4.864   0.580   0.151 -0.2740  0.2455 -0.0913
  446THF     C3 7728   4.998   0.421   0.057  1.1594  0.3064 -0.3565
  446THF     H4 7729   4.826   0.682   0.121  0.7765  0.0889 -1.2526
  446THF     H5 7730   4.887   0.569   0.254  0.8337 -2.0684 -3.1282
  446THF     H6 7731   5.069   0.403  -0.023 -1.2086  1.4320  0.4921
  446THF     H7 7732   5.043   0.367   0.137  2.2732 -1.8213 -2.0443
  446THF     C8 7733   4.858   0.368   0.032 -0.7263 -0.6390  0.0900
  446THF     C9 7734   4.769   0.466   0.103  0.5211  0.6018 -0.2818
  446THF    H10 7735   4.845   0.266   0.078 -1.3197  1.9018  0.8503
  446THF    H11 7736   4.845   0.371  -0.076  0.1745 -0.9280 -0.2266
  446THF    H12 7737   4.695   0.506   0.044  0.9114  0.1619  2.0015
  446THF    H13 7738   4.715   0.424   0.194 -2.3195 -2.6755 -0.8165
  447THF     O1 7739   2.905   3.360   0.793 -0.3403 -0.1022  0.0142
  447THF     C2 7740   2.897   3.499   0.762 -0.3997 -0.4496  0.7069
  447THF     C3 7741   3.041   3.325   0.820  0.1731 -0.4746  0.4679
  447THF     H4 7742   2.858   3.561   0.845 -0.3684 -1.0294  0.5506
  447THF     H5 7743   2.837   3.522   0.677  0.1606 -2.3720 -0.0738
  447THF     H6 7744   3.060   3.338   0.930  2.7242  1.1903 -0.2704
  447THF     H7 7745   3.057   3.222   0.787  0.6726  0.3994 -0.6258
  447THF     C8 7746   3.111   3.420   0.723 -0.2346 -0.4343 -0.3569
  447THF     C9 7747   3.041   3.551   0.756 -0.2798  0.2829 -0.1496
  447THF    H10 7748   3.088   3.383   0.621  1.6619  2.7782 -1.1425
  447THF    H11 7749   3.221   3.419   0.740 -2.3377 -2.8467  1.6179
  447THF    H12 7750   3.076   3.588   0.854  0.2998 -2.3589 -1.2169
  447THF    H13 7751   3.042   3.636   0.685  1.4354  0.1733  1.5266
  448THF     O1 7752   5.151   3.705   1.705 -0.5050  0.2394  0.0995
  448THF     C2 7753   5.229   3.756   1.594  0.6944 -0.1009 -0.1642
  448THF     C3 7754   5.207   3.576   1.752  0.4280 -0.2409  0.0808
  448THF     H4 7755   5.238   3.867   1.600  1.2350 -1.9647 -0.7584
  448THF     H5 7756   5.185   3.722   1.498 -0.0456 -1.0438 -1.1914
  448THF     H6 7757   5.250   3.576   1.847 -0.3916 -2.2843 -0.3794
  448THF     H7 7758   5.132   3.499   1.769  0.4601  1.2861 -0.3024
  448THF     C8 7759   5.313   3.541   1.647 -0.0917 -0.8400 -0.2650
  448THF     C9 7760   5.364   3.681   1.610  0.9124 -0.7010  0.0708
  448THF    H10 7761   5.265   3.500   1.558  0.6848  3.7396 -1.0523
  448THF    H11 7762   5.382   3.469   1.691  0.2582 -1.8847  1.2723
  448THF    H12 7763   5.429   3.728   1.685  1.2886  0.2465  1.9911
  448THF    H13 7764   5.424   3.677   1.520 -0.0364  1.6191 -0.7996
  449THF     O1 7765   1.563   1.134   0.496 -0.1294 -0.4757 -0.0469
  449THF     C2 7766   1.635   1.200   0.599 -0.3398 -0.3359 -0.2815
  449THF     C3 7767   1.433   1.172   0.489  0.2006 -0.2018  0.0843
  449THF     H4 7768   1.727   1.249   0.558  1.1016 -1.0292  1.4051
  449THF     H5 7769   1.663   1.128   0.679  1.4021 -0.3029 -1.0988
  449THF     H6 7770   1.392   1.158   0.390  2.2476  0.0001  0.6437
  449THF     H7 7771   1.377   1.123   0.573 -0.7515 -0.8882 -1.0492
  449THF     C8 7772   1.429   1.321   0.528 -0.5030 -0.5598 -0.1591
  449THF     C9 7773   1.535   1.318   0.640  0.3470 -0.3451 -0.0441
  449THF    H10 7774   1.338   1.379   0.552 -0.4681 -0.6573 -1.7529
  449THF    H11 7775   1.476   1.382   0.451 -1.8615  2.5506 -0.9278
  449THF    H12 7776   1.593   1.409   0.646  0.4665 -2.8667 -2.3686
  449THF    H13 7777   1.479   1.296   0.734  0.5382 -0.1992  3.4044
  450THF     O1 7778   5.110   1.291   2.417  0.3516  0.4639 -0.2304
  450THF     C2 7779   5.018   1.210   2.347 -0.2113 -0.2748  0.6571
  450THF     C3 7780   5.211   1.206   2.458  0.0007  0.5261 -0.6837
  450THF     H4 7781   4.953   1.269   2.283  0.8520 -0.0808  0.4260
  450THF     H5 7782   4.964   1.154   2.422 -0.0145  1.4232 -2.4713
  450THF     H6 7783   5.295   1.252   2.508 -2.2171  1.7942 -1.0361
  450THF     H7 7784   5.165   1.140   2.532 -1.3170  0.0276 -3.0938
  450THF     C8 7785   5.241   1.127   2.337 -0.4539  0.7770  0.7655
  450THF     C9 7786   5.109   1.130   2.253  0.5918 -0.1742  0.1200
  450THF    H10 7787   5.267   1.028   2.360 -1.6459  0.2606 -1.7442
  450THF    H11 7788   5.323   1.171   2.277 -0.5792 -2.5718  1.5139
  450THF    H12 7789   5.118   1.179   2.158  1.1391 -0.3294  1.3006
  450THF    H13 7790   5.065   1.035   2.227 -0.6114 -1.1593 -0.9259
  451THF     O1 7791   0.265   3.550   2.897 -0.5747  0.1692 -0.5232
  451THF     C2 7792   0.380   3.615   2.941 -0.0037  0.2240 -0.6499
  451THF     C3 7793   0.306   3.466   2.790 -0.3387 -0.1776 -0.5708
  451THF     H4 7794   0.431   3.556   3.020  0.4321  0.3847  1.6897
  451THF     H5 7795   0.358   3.713   2.982  0.4569  1.2031  0.0330
  451THF     H6 7796   0.356   3.376   2.832  0.8595  0.8001 -0.5030
  451THF     H7 7797   0.229   3.432   2.724  0.0014  0.1884 -0.5473
  451THF     C8 7798   0.407   3.557   2.715 -0.2446  0.0189  0.2414
  451THF     C9 7799   0.471   3.642   2.820  0.1430  0.5513 -0.0641
  451THF    H10 7800   0.351   3.608   2.640 -2.1381  0.9027  0.0443
  451THF    H11 7801   0.477   3.494   2.666 -1.6924  1.6909 -3.2788
  451THF    H12 7802   0.573   3.611   2.842 -1.2623 -1.3349  0.4746
  451THF    H13 7803   0.488   3.748   2.788 -1.4722  2.4815  0.7078
  452THF     O1 7804   3.891   3.257   2.134  0.1077  0.1009  0.2422
  452THF     C2 7805   3.836   3.217   2.257  0.1369  0.2541  0.1546
  452THF     C3 7806   3.815   3.193   2.035 -0.3717  0.0947 -0.2084
  452THF     H4 7807   3.745   3.279   2.255  0.3038 -2.5830  1.5494
  452THF     H5 7808   3.895   3.250   2.337 -1.0188 -1.4126 -2.6543
  452THF     H6 7809   3.727   3.242   2.011  0.0891  0.6754 -1.0417
  452THF     H7 7810   3.872   3.175   1.938  0.9260 -0.5780 -2.2471
  452THF     C8 7811   3.784   3.055   2.093 -0.5689  0.4972 -0.7801
  452THF     C9 7812   3.803   3.067   2.245  0.2060 -0.2975  0.4728
  452THF    H10 7813   3.856   2.982   2.062 -1.0739 -2.1051 -0.2817
  452THF    H11 7814   3.690   3.023   2.062  0.0014 -0.2488  1.4306
  452THF    H12 7815   3.710   3.053   2.304  2.1796 -1.4853 -0.5526
  452THF    H13 7816   3.887   3.011   2.282 -0.0170  0.2708 -1.0387
  453THF     O1 7817   0.347   4.144   2.544 -0.1288  0.1765 -0.2345
  453THF     C2 7818   0.381   4.019   2.475  0.0489  0.4599 -0.4842
  453THF     C3 7819   0.432   4.234   2.470  0.7898  0.2258 -0.3071
  453THF     H4 7820   0.315   3.936   2.501 -1.7719  0.5282 -3.3326
  453THF     H5 7821   0.484   3.990   2.490 -1.1945  2.7457 -0.1736
  453THF     H6 7822   0.426   4.335   2.511 -0.7450 -1.4429 -2.7454
  453THF     H7 7823   0.540   4.206   2.475 -0.8159 -1.6929 -0.6184
  453THF     C8 7824   0.391   4.220   2.323 -0.2213 -0.2627 -0.0474
  453THF     C9 7825   0.365   4.068   2.329  0.0028 -0.1160  0.2092
  453THF    H10 7826   0.463   4.253   2.255 -0.0324  1.8185 -0.0120
  453THF    H11 7827   0.304   4.276   2.299  1.4149 -0.1347  3.6185
  453THF    H12 7828   0.263   4.046   2.294 -0.6910  2.2289 -0.6869
  453THF    H13 7829   0.435   4.014   2.267 -2.6088  2.0203  0.7009
  454THF     O1 7830   0.046   0.951   3.884  0.1814  0.4732  0.0229
  454THF     C2 7831   0.097   1.060   3.799  0.1834  0.5618 -0.1871
  454THF     C3 7832  -0.018   0.856   3.798  0.1696 -0.2041 -0.3533
  454THF     H4 7833   0.174   1.120   3.842 -2.3938 -3.2148 -3.0248
  454THF     H5 7834   0.014   1.127   3.783 -2.0250 -0.5535  1.7103
  454THF     H6 7835  -0.013   0.764   3.842 -0.4371 -1.7187 -1.8649
  454THF     H7 7836  -0.123   0.876   3.788  2.9215  1.4760  1.8467
  454THF     C8 7837   0.050   0.868   3.663  0.3162 -0.4598  0.2599
  454THF     C9 7838   0.138   0.991   3.669 -0.1776  0.0432  0.0838
  454THF    H10 7839  -0.025   0.864   3.581 -0.4217  2.1823  2.4830
  454THF    H11 7840   0.113   0.780   3.648  0.4219  0.9969  1.5155
  454THF    H12 7841   0.241   0.952   3.671 -1.0134 -0.3848  0.3790
  454THF    H13 7842   0.108   1.051   3.583 -1.3343  0.3111 -2.2476
  455THF     O1 7843   0.757   4.771   2.866 -0.0270  0.6376 -0.4240
  455THF     C2 7844   0.755   4.914   2.852 -0.2471 -0.0155  0.2000
  455THF     C3 7845   0.803   4.712   2.747  0.2504 -0.5804 -0.5237
  455THF     H4 7846   0.861   4.946   2.856 -1.8240 -2.6379 -3.5330
  455THF     H5 7847   0.693   4.966   2.930 -0.8470  1.2154  0.4998
  455THF     H6 7848   0.909   4.726   2.747 -1.5952  1.7863 -0.8310
  455THF     H7 7849   0.769   4.610   2.762  1.4071 -1.7571  0.2106
  455THF     C8 7850   0.724   4.795   2.641  0.3269 -0.3876 -0.1208
  455THF     C9 7851   0.689   4.925   2.712  0.5856 -0.3440 -0.4159
  455THF    H10 7852   0.631   4.744   2.614  0.5413  2.1740 -0.4863
  455THF    H11 7853   0.772   4.819   2.550 -2.5695 -1.6706 -2.0306
  455THF    H12 7854   0.723   5.011   2.654  0.5922 -0.2206  1.6029
  455THF    H13 7855   0.577   4.932   2.711 -2.1389 -1.9342 -2.5170
  456THF     O1 7856   2.258   0.848   2.773 -0.6192 -0.3142 -0.0328
  456THF     C2 7857   2.270   0.767   2.888 -0.0895 -0.0624  0.1433
  456THF     C3 7858   2.304   0.978   2.806 -0.1007 -0.0556 -0.3226
  456THF     H4 7859   2.289   0.668   2.862  1.7354  1.2183 -0.3033
  456THF     H5 7860   2.181   0.774   2.944 -0.8489 -1.3189 -0.7458
  456THF     H6 7861   2.336   1.035   2.711  0.4856  1.2926  1.6311
  456THF     H7 7862   2.222   1.031   2.850 -1.7564 -0.7406 -1.8645
  456THF     C8 7863   2.423   0.956   2.904 -0.9225  0.3835  0.3362
  456THF     C9 7864   2.389   0.819   2.971  0.4238  0.2409 -0.0849
  456THF    H10 7865   2.432   1.040   2.977  0.8591 -1.0052  1.7155
  456THF    H11 7866   2.527   0.948   2.856 -1.0735  0.1208  2.4632
  456THF    H12 7867   2.476   0.750   2.968 -1.8352 -0.8261  2.6665
  456THF    H13 7868   2.357   0.840   3.080  3.0780  0.5827  0.0421
  457THF     O1 7869   1.300   1.318   4.208  1.1832 -0.4638 -1.5065
  457THF     C2 7870   1.200   1.257   4.281  0.3602  0.2727 -0.0410
  457THF     C3 7871   1.337   1.229   4.100 -0.3782 -0.7261  0.4828
  457THF     H4 7872   1.102   1.259   4.231 -1.0641  2.1275  0.7039
  457THF     H5 7873   1.186   1.299   4.379  1.3685 -0.0076  3.9199
  457THF     H6 7874   1.282   1.249   4.014  1.0375  0.1464 -0.5459
  457THF     H7 7875   1.437   1.236   4.061 -0.2107 -1.7151  2.2311
  457THF     C8 7876   1.313   1.091   4.150  0.4022  0.4342  0.4388
  457THF     C9 7877   1.257   1.110   4.286 -0.8563  0.1436 -0.4901
  457THF    H10 7878   1.400   1.025   4.156  1.3247 -0.9071 -1.1135
  457THF    H11 7879   1.241   1.049   4.076 -0.5742  2.8971  0.8006
  457THF    H12 7880   1.179   1.042   4.314  1.1884 -0.2201 -1.6565
  457THF    H13 7881   1.339   1.097   4.358  3.1608 -0.2598  1.0727
  458THF     O1 7882   3.097   3.141   1.477 -0.0311 -0.4630 -0.7056
  458THF     C2 7883   3.123   3.075   1.599 -0.1879 -0.3729  0.5688
  458THF     C3 7884   2.953   3.164   1.468  0.2756 -0.3193  0.2627
  458THF     H4 7885   3.226   3.108   1.634  4.0329  2.1028  1.8281
  458THF     H5 7886   3.106   2.964   1.592 -1.3209 -0.1300  1.3850
  458THF     H6 7887   2.922   3.233   1.388  2.0089 -2.0021 -0.2669
  458THF     H7 7888   2.894   3.069   1.444  0.3519 -2.9322 -0.6054
  458THF     C8 7889   2.922   3.207   1.611  0.1727  0.4186  0.6878
  458THF     C9 7890   3.012   3.128   1.699  0.3068 -0.0422 -0.2372
  458THF    H10 7891   2.813   3.210   1.633 -0.8789  0.7749 -2.6727
  458THF    H11 7892   2.946   3.310   1.626 -0.6714  1.1167 -0.0108
  458THF    H12 7893   3.041   3.192   1.781 -0.6403  0.7924 -0.0442
  458THF    H13 7894   2.950   3.047   1.741 -1.9255  0.2668  0.6516
  459THF     O1 7895   0.748   4.483   4.587  0.6733 -0.6125 -0.0768
  459THF     C2 7896   0.693   4.360   4.643  0.3126 -0.6253  0.8572
  459THF     C3 7897   0.816   4.462   4.462  0.0314 -0.4304 -0.0135
  459THF     H4 7898   0.589   4.378   4.673 -3.2257  1.6667  1.0085
  459THF     H5 7899   0.742   4.332   4.739 -1.8689 -1.0585  0.5239
  459THF     H6 7900   0.809   4.534   4.382  2.1456 -0.4130  0.0621
  459THF     H7 7901   0.922   4.450   4.477 -1.9736 -1.1026 -0.9161
  459THF     C8 7902   0.750   4.332   4.417 -0.5946  0.2775  0.3152
  459THF     C9 7903   0.714   4.254   4.538 -0.4613 -0.8123  0.0113
  459THF    H10 7904   0.816   4.273   4.348  0.3496 -2.8164  0.5426
  459THF    H11 7905   0.661   4.365   4.360  0.3531  0.2445  0.7255
  459THF    H12 7906   0.632   4.180   4.540  0.7453 -3.7897 -1.3107
  459THF    H13 7907   0.800   4.197   4.565  1.2326 -0.5906  3.6840
  460THF     O1 7908   5.192   0.407   4.874  0.4870 -0.5695  0.1221
  460THF     C2 7909   5.199   0.439   4.732  0.2316 -0.2653 -0.2126
  460THF     C3 7910   5.312   0.465   4.932  0.2320 -0.3418 -0.1654
  460THF     H4 7911   5.155   0.542   4.721  1.2733  2.9309 -0.4516
  460THF     H5 7912   5.143   0.362   4.677 -0.4420  3.6351 -1.6574
  460THF     H6 7913   5.293   0.539   5.003  2.7379  1.7263 -4.9723
  460THF     H7 7914   5.364   0.388   4.984  1.7909  1.4885  1.1368
  460THF     C8 7915   5.398   0.529   4.821  0.3521  0.9327  0.0148
  460THF     C9 7916   5.349   0.447   4.702  0.6822  0.5536  0.4007
  460THF    H10 7917   5.509   0.513   4.833  0.4787 -0.6054 -0.3038
  460THF    H11 7918   5.371   0.630   4.801 -0.3428 -3.9381  0.2324
  460THF    H12 7919   5.382   0.489   4.609  2.5230 -1.6551  0.9108
  460THF    H13 7920   5.389   0.341   4.698  0.8594 -0.3233  0.1316
  461THF     O1 7921   1.137   5.388   3.649  0.2391 -0.1975 -0.0737
  461THF     C2 7922   1.147   5.525   3.609  0.8036 -0.4210  0.9442
  461THF     C3 7923   1.245   5.364   3.735 -0.8405  0.4768  0.8977
  461THF     H4 7924   1.109   5.594   3.681 -0.3102  2.3491 -4.8576
  461THF     H5 7925   1.084   5.539   3.517 -0.6199  0.6423  0.2717
  461THF     H6 7926   1.229   5.417   3.829 -2.5145 -1.4740 -0.1497
  461THF     H7 7927   1.255   5.253   3.751  0.5172 -0.2757 -2.7528
  461THF     C8 7928   1.356   5.429   3.659  0.2034 -0.4587  0.3489
  461THF     C9 7929   1.296   5.545   3.578  0.6128  0.3467 -0.9065
  461THF    H10 7930   1.409   5.365   3.595  0.4658 -1.0287  2.7013
  461THF    H11 7931   1.436   5.476   3.725 -0.9804  0.5361  0.0878
  461THF    H12 7932   1.333   5.642   3.607  0.5945  1.1920 -0.3464
  461THF    H13 7933   1.318   5.532   3.470  0.7050 -0.3839  1.3173
  462THF     O1 7934   1.433   4.057   2.866  0.0206 -0.3836 -0.0650
  462THF     C2 7935   1.300   4.020   2.852 -0.3258  0.0981  0.1713
  462THF     C3 7936   1.463   4.021   2.999  0.4317 -0.0246 -0.3126
  462THF     H4 7937   1.286   4.006   2.741  0.6388 -1.4236 -2.2930
  462THF     H5 7938   1.231   4.092   2.877  0.8479 -0.1919 -2.0294
  462THF     H6 7939   1.569   4.030   3.030 -1.3611  0.0445  2.0834
  462THF     H7 7940   1.402   4.089   3.062  1.7121 -0.9952  0.5010
  462THF     C8 7941   1.412   3.880   3.016 -0.4465  0.2997 -0.3869
  462THF     C9 7942   1.281   3.893   2.945  0.0188  0.5340  0.4731
  462THF    H10 7943   1.410   3.838   3.117  2.7305  0.7394  1.6341
  462THF    H11 7944   1.476   3.807   2.958 -0.4328 -1.1830  2.7029
  462THF    H12 7945   1.251   3.801   2.890 -1.4948  3.1143 -1.6468
  462THF    H13 7946   1.196   3.918   3.015 -0.3082  1.8980 -0.9043
  463THF     O1 7947   3.310   1.335   1.912  0.1098  0.0891  0.0899
  463THF     C2 7948   3.228   1.257   2.006  0.4504  0.3264 -0.7658
  463THF     C3 7949   3.422   1.394   1.985  0.3672  0.1330  0.0122
  463THF     H4 7950   3.276   1.161   2.030 -0.8890 -0.7654  2.0744
  463THF     H5 7951   3.125   1.252   1.966 -1.6587 -0.7571 -3.0610
  463THF     H6 7952   3.499   1.318   2.008  1.2816  2.3695 -0.2077
  463THF     H7 7953   3.469   1.473   1.924 -1.1679  0.3384  1.7156
  463THF     C8 7954   3.356   1.433   2.116 -0.5412 -0.7449 -0.0029
  463THF     C9 7955   3.231   1.353   2.124 -1.2964  0.1225  0.4053
  463THF    H10 7956   3.334   1.544   2.097 -0.2132  3.4669 -1.1323
  463THF    H11 7957   3.423   1.416   2.202  0.1227 -0.7625 -2.1306
  463THF    H12 7958   3.211   1.290   2.210 -2.2413  1.2068  2.5683
  463THF    H13 7959   3.157   1.432   2.117  0.9300  1.6042 -0.3697
  464THF     O1 7960   2.016   4.228   0.149  0.0460  0.0895  0.4197
  464THF     C2 7961   1.928   4.309   0.068 -0.3040 -0.5483 -0.3836
  464THF     C3 7962   1.972   4.094   0.135  0.3658  0.6117 -0.1174
  464THF     H4 7963   1.994   4.365  -0.002  0.9567  0.7631  0.5398
  464THF     H5 7964   1.876   4.383   0.119  0.6674 -1.1681 -0.3443
  464THF     H6 7965   2.019   4.032   0.055  0.6346 -1.5073  0.6236
  464THF     H7 7966   1.981   4.037   0.226  0.1790  1.0003 -0.6640
  464THF     C8 7967   1.831   4.108   0.094 -0.6886  0.1793 -0.0313
  464THF     C9 7968   1.830   4.223  -0.006  0.2551 -0.3974 -0.9937
  464THF    H10 7969   1.775   4.127   0.189  0.3373 -0.5206  0.3637
  464THF    H11 7970   1.791   4.014   0.050 -0.3770 -0.6106 -0.8676
  464THF    H12 7971   1.860   4.184  -0.099 -2.4280 -0.2534 -3.4090
  464THF    H13 7972   1.734   4.273  -0.023  3.1223 -0.1663 -2.8169
  465THF     O1 7973   2.891   0.527   3.662 -0.1147 -0.2041 -0.8609
  465THF     C2 7974   2.777   0.584   3.597 -0.4971  0.2313 -0.9407
  465THF     C3 7975   2.857   0.387   3.672 -0.2603  0.7437  0.5942
  465THF     H4 7976   2.758   0.549   3.493 -1.0301 -1.7199 -2.9031
  465THF     H5 7977   2.780   0.695   3.598 -0.1319 -0.2185  2.3916
  465THF     H6 7978   2.847   0.331   3.579 -1.8864  2.4053 -1.2296
  465THF     H7 7979   2.936   0.344   3.737  1.8759 -0.3442  2.0562
  465THF     C8 7980   2.716   0.386   3.743 -0.5315  0.3971  0.7714
  465THF     C9 7981   2.669   0.532   3.696  0.0533  0.9213 -0.5197
  465THF    H10 7982   2.721   0.374   3.851  2.2472  1.4398  1.1383
  465THF    H11 7983   2.644   0.317   3.688 -0.0780  0.1909 -0.9620
  465THF    H12 7984   2.571   0.534   3.653 -0.4912  2.6594  1.6910
  465THF    H13 7985   2.674   0.589   3.789  1.3033 -0.3399  0.2803
  466THF     O1 7986   2.538   1.331   3.163  0.7065  0.0069  0.4218
  466THF     C2 7987   2.657   1.344   3.099 -0.4735 -0.1733 -0.2167
  466THF     C3 7988   2.559   1.360   3.298 -0.7573  0.2672  0.1382
  466THF     H4 7989   2.637   1.360   2.998 -0.0164 -2.5437  0.9400
  466THF     H5 7990   2.711   1.253   3.115  1.4661  1.2962 -1.4839
  466THF     H6 7991   2.466   1.370   3.354  2.0867 -1.2803  3.2979
  466THF     H7 7992   2.635   1.291   3.348 -0.0282 -3.8718  0.1355
  466THF     C8 7993   2.634   1.494   3.281  0.1273  0.0362 -0.1027
  466THF     C9 7994   2.731   1.459   3.169  0.2259  0.1181  0.0211
  466THF    H10 7995   2.681   1.533   3.375 -0.8312 -0.2250  0.5338
  466THF    H11 7996   2.572   1.582   3.259  0.2547  0.9159 -1.2496
  466THF    H12 7997   2.742   1.533   3.092  0.2628 -0.6142  0.3513
  466THF    H13 7998   2.824   1.417   3.207 -2.4998 -0.4166  0.4973
  467THF     O1 7999   0.046   5.323   3.263  0.3880  0.2448 -0.4903
  467THF     C2 8000   0.107   5.443   3.218  0.1694  0.1239 -0.5584
  467THF     C3 8001  -0.096   5.334   3.245 -0.3917 -0.0888 -0.5174
  467THF     H4 8002   0.216   5.424   3.201 -2.0374 -0.2058  2.6991
  467THF     H5 8003   0.088   5.511   3.297 -0.9332 -2.6021 -0.5431
  467THF     H6 8004  -0.146   5.240   3.256  0.5437  0.6784 -0.6050
  467THF     H7 8005  -0.121   5.415   3.314  1.8772  0.9482  1.3074
  467THF     C8 8006  -0.113   5.398   3.104  0.3718  0.0342  1.1496
  467THF     C9 8007   0.036   5.454   3.084  0.0322  0.3225  0.0930
  467THF    H10 8008  -0.181   5.482   3.106 -0.7763 -0.1191  1.5457
  467THF    H11 8009  -0.138   5.327   3.027 -0.2397 -0.8552 -2.9579
  467THF    H12 8010   0.098   5.396   3.015 -0.4381 -0.2138 -1.5748
  467THF    H13 8011   0.028   5.553   3.046 -1.2906 -0.4243 -0.1115
  468THF     O1 8012   4.642   0.741   0.674 -0.6591 -0.0270  0.6011
  468THF     C2 8013   4.776   0.761   0.620  0.7748 -0.2329 -0.3298
  468THF     C3 8014   4.644   0.803   0.802 -0.4857  0.1376 -0.1197
  468THF     H4 8015   4.764   0.790   0.518 -1.0979  1.5666  0.3641
  468THF     H5 8016   4.827   0.666   0.628  0.2899  1.4276 -1.0138
  468THF     H6 8017   4.573   0.887   0.789 -3.0893  1.7252  0.0310
  468THF     H7 8018   4.614   0.745   0.897 -1.8163  1.9442 -1.4609
  468THF     C8 8019   4.790   0.845   0.833 -0.9142  0.3699  0.0878
  468THF     C9 8020   4.842   0.872   0.690  0.1178  0.6210 -1.1266
  468THF    H10 8021   4.843   0.775   0.885  0.8155  0.8581 -0.2837
  468THF    H11 8022   4.796   0.933   0.902  3.0575 -0.3828 -3.6624
  468THF    H12 8023   4.804   0.975   0.661  0.4418 -0.4635 -2.0081
  468THF    H13 8024   4.955   0.868   0.682  2.0988 -1.5905  1.5755
  469THF     O1 8025   2.037   3.724   3.461  0.1153 -0.0221 -0.3448
  469THF     C2 8026   1.939   3.816   3.399 -0.1168  1.2037  0.8065
  469THF     C3 8027   2.160   3.781   3.461 -0.0359 -0.9599 -0.6179
  469THF     H4 8028   1.870   3.853   3.479 -2.1802  0.8731 -1.2817
  469THF     H5 8029   1.904   3.756   3.314  0.1974  0.5617  0.3567
  469THF     H6 8030   2.154   3.843   3.546 -0.4941 -3.1915  1.5212
  469THF     H7 8031   2.230   3.709   3.475 -1.0905 -0.9238 -1.2822
  469THF     C8 8032   2.170   3.860   3.329  0.6319  0.2520 -0.1410
  469THF     C9 8033   2.032   3.921   3.335 -0.7748 -0.5047  0.7008
  469THF    H10 8034   2.171   3.785   3.252 -0.3811 -1.4593  0.7991
  469THF    H11 8035   2.264   3.918   3.333 -0.0632 -2.3895  1.3662
  469THF    H12 8036   2.049   4.004   3.411 -0.9700 -0.3539 -1.8681
  469THF    H13 8037   1.992   3.966   3.240  0.4434  0.6546 -2.7860
  470THF     O1 8038   1.753   3.407   0.464  0.2577 -0.4876  0.5098
  470THF     C2 8039   1.694   3.476   0.577  0.2086 -0.0816  0.3411
  470THF     C3 8040   1.656   3.315   0.411  0.2024 -0.1059  0.6103
  470THF     H4 8041   1.757   3.555   0.606  1.6220  0.5476 -0.9145
  470THF     H5 8042   1.693   3.403   0.658 -1.3066 -0.0724 -4.2658
  470THF     H6 8043   1.672   3.320   0.305  0.2751  3.0127  0.0437
  470THF     H7 8044   1.665   3.209   0.440  0.4716  0.8607  0.8943
  470THF     C8 8045   1.517   3.369   0.469 -0.3157  0.8120  0.0223
  470THF     C9 8046   1.549   3.510   0.534  0.9879  0.3724  0.1166
  470THF    H10 8047   1.487   3.302   0.563  1.0590  1.0193  2.5913
  470THF    H11 8048   1.439   3.377   0.390  1.6617  2.9475 -1.0823
  470THF    H12 8049   1.550   3.581   0.458 -0.4564 -0.2385  0.6468
  470THF    H13 8050   1.484   3.531   0.618 -1.3851 -0.9281  0.1787
  471THF     O1 8051   2.557   4.682   1.155 -0.3126 -0.2651  0.1526
  471THF     C2 8052   2.578   4.801   1.081 -0.4640  0.8863 -1.3933
  471THF     C3 8053   2.469   4.715   1.264  0.7197 -0.1174  0.9105
  471THF     H4 8054   2.504   4.814   1.009  0.7723 -0.0771 -1.2623
  471THF     H5 8055   2.677   4.811   1.031  1.0800  0.2283  1.4155
  471THF     H6 8056   2.370   4.675   1.255  1.8668  0.0835 -1.0411
  471THF     H7 8057   2.501   4.673   1.356 -2.5141 -0.7881  1.1740
  471THF     C8 8058   2.449   4.869   1.262  0.6199  0.2653 -0.8173
  471THF     C9 8059   2.565   4.914   1.184 -0.5386  0.7809 -0.2431
  471THF    H10 8060   2.449   4.910   1.362 -1.2222 -1.0977 -0.9654
  471THF    H11 8061   2.350   4.895   1.223  0.3585 -2.5637 -0.8147
  471THF    H12 8062   2.552   5.017   1.144  2.0591  1.9757 -2.8920
  471THF    H13 8063   2.649   4.921   1.254  3.4127  0.6231  0.1901
  472THF     O1 8064   2.447   1.428   0.317  0.6575 -0.0783 -0.2517
  472THF     C2 8065   2.388   1.530   0.402 -0.9597  0.3472 -1.0009
  472THF     C3 8066   2.583   1.453   0.300 -0.2075  0.1596 -0.0921
  472THF     H4 8067   2.336   1.487   0.487  0.7214 -0.8592 -0.9536
  472THF     H5 8068   2.320   1.583   0.335  1.2959  0.3451  0.3815
  472THF     H6 8069   2.635   1.361   0.306 -1.8840 -1.8542  0.9463
  472THF     H7 8070   2.592   1.492   0.200 -0.5609 -1.7122  2.9672
  472THF     C8 8071   2.627   1.552   0.405  0.0296 -0.1532 -0.4957
  472THF     C9 8072   2.497   1.629   0.436  0.1575  0.0823  0.7404
  472THF    H10 8073   2.722   1.602   0.399 -0.4970 -0.5440  0.6263
  472THF    H11 8074   2.640   1.498   0.493  1.0723 -3.0046 -0.5116
  472THF    H12 8075   2.499   1.668   0.536 -0.3695 -1.3570  0.0047
  472THF    H13 8076   2.478   1.715   0.373  2.5076  1.6835  0.0622
  473THF     O1 8077   0.826   2.934   4.671 -0.3166 -0.1192  0.3916
  473THF     C2 8078   0.877   3.022   4.779 -0.5435  0.5199  0.4321
  473THF     C3 8079   0.879   2.811   4.696  0.4213  0.1213  0.3528
  473THF     H4 8080   0.821   2.997   4.867 -1.9897 -1.9051 -4.1788
  473THF     H5 8081   0.872   3.121   4.758 -0.3722 -1.3132 -1.4948
  473THF     H6 8082   0.827   2.773   4.787 -0.8060  2.3877 -0.8842
  473THF     H7 8083   0.868   2.739   4.616 -1.0891 -1.1976  1.1672
  473THF     C8 8084   1.028   2.842   4.719 -0.6749  0.5551 -0.7228
  473THF     C9 8085   1.026   2.981   4.785 -0.5061 -0.0006 -0.1864
  473THF    H10 8086   1.079   2.850   4.625  1.3215 -1.2583 -0.3104
  473THF    H11 8087   1.076   2.766   4.780 -2.7637  1.4206 -0.7843
  473THF    H12 8088   1.065   2.979   4.885 -0.4809 -2.3225 -2.7969
  473THF    H13 8089   1.090   3.044   4.728 -0.8843  1.0167 -3.1751
  474THF     O1 8090   1.872   1.406   2.246 -0.5380 -0.1107 -0.1781
  474THF     C2 8091   1.904   1.520   2.172 -0.3738  0.4449  0.5231
  474THF     C3 8092   1.972   1.390   2.346  0.3199  0.2254 -0.2264
  474THF     H4 8093   1.820   1.557   2.123 -1.3399 -0.4912  0.5757
  474THF     H5 8094   1.986   1.502   2.104 -0.2940 -1.1832 -2.7908
  474THF     H6 8095   1.939   1.316   2.420  0.1989  3.8498 -2.4460
  474THF     H7 8096   2.058   1.351   2.305  1.1851  3.1886  0.7466
  474THF     C8 8097   1.986   1.528   2.400 -0.1117  0.2917  0.8058
  474THF     C9 8098   1.947   1.618   2.278 -0.4657 -0.5464  0.2139
  474THF    H10 8099   2.080   1.559   2.441  3.9402  0.9301 -1.3419
  474THF    H11 8100   1.919   1.548   2.482  0.0144  2.2959 -1.4679
  474THF    H12 8101   1.865   1.667   2.309  0.7958 -1.2131 -2.2974
  474THF    H13 8102   2.024   1.692   2.247 -1.0737 -1.9079 -1.5130
  475THF     O1 8103   2.705   4.809   2.374  0.1184 -0.2793  0.0159
  475THF     C2 8104   2.603   4.713   2.336 -0.9822 -0.3168  0.2882
  475THF     C3 8105   2.642   4.936   2.384  0.8425  0.3706 -0.1593
  475THF     H4 8106   2.624   4.618   2.386  0.5399  0.4623 -4.8673
  475THF     H5 8107   2.615   4.678   2.238 -2.7048  1.5615  0.6530
  475THF     H6 8108   2.693   5.010   2.453 -0.8978 -0.3978 -0.8667
  475THF     H7 8109   2.640   4.966   2.281 -0.2042  2.4682 -2.0532
  475THF     C8 8110   2.501   4.909   2.429 -0.0604 -0.5214 -0.0506
  475THF     C9 8111   2.472   4.774   2.374  0.3316 -0.0732  0.2711
  475THF    H10 8112   2.428   4.980   2.393 -0.8683 -3.2201  3.7845
  475THF    H11 8113   2.497   4.903   2.540  3.0944 -0.6136  0.2447
  475THF    H12 8114   2.426   4.704   2.446  2.2180  1.0153  0.2481
  475THF    H13 8115   2.400   4.784   2.295 -0.8480  0.0927  1.0974
  476THF     O1 8116   3.768   2.540   3.984  0.0137 -0.7155  0.0787
  476THF     C2 8117   3.875   2.463   4.032 -0.0714  0.0216  0.0278
  476THF     C3 8118   3.817   2.651   3.919  0.3851  0.1570 -0.5984
  476THF     H4 8119   3.909   2.407   3.938 -0.0565  1.8259 -0.8354
  476THF     H5 8120   3.847   2.398   4.114 -1.3226  1.5807  1.8728
  476THF     H6 8121   3.851   2.612   3.825  0.0850 -0.3689 -0.9793
  476THF     H7 8122   3.747   2.734   3.897 -2.6677 -1.2975 -1.4937
  476THF     C8 8123   3.928   2.696   4.006  0.6192  0.1282  0.5121
  476THF     C9 8124   3.971   2.572   4.083 -0.8502  0.1819 -0.6707
  476THF    H10 8125   3.892   2.770   4.073 -0.3681 -0.8743 -1.8343
  476THF    H11 8126   4.016   2.729   3.949 -0.2985 -1.7421  0.6714
  476THF    H12 8127   4.072   2.543   4.063  0.3453 -0.1367 -1.9374
  476THF    H13 8128   3.956   2.587   4.189 -0.0407  0.0702  1.8471
  477THF     O1 8129   5.186   4.826   0.414 -0.4575 -0.4984 -0.2171
  477THF     C2 8130   5.094   4.827   0.523 -0.8346 -0.6686 -0.5570
  477THF     C3 8131   5.130   4.748   0.313 -0.4250  0.1389  0.2227
  477THF     H4 8132   5.114   4.910   0.595 -0.2310 -0.8474  0.9984
  477THF     H5 8133   5.093   4.746   0.587 -2.6677  0.7960 -0.8380
  477THF     H6 8134   5.164   4.775   0.215  2.3093 -1.1922  2.1210
  477THF     H7 8135   5.159   4.643   0.332  1.4196 -0.7878  0.6050
  477THF     C8 8136   4.976   4.753   0.334  0.3289  0.0069  0.4199
  477THF     C9 8137   4.950   4.839   0.458  0.3463  0.0334 -0.6503
  477THF    H10 8138   4.939   4.650   0.334 -0.4214  0.5348 -0.6085
  477THF    H11 8139   4.936   4.795   0.242 -0.3728 -0.9234  1.8039
  477THF    H12 8140   4.935   4.945   0.434  2.1538 -0.6618  1.2837
  477THF    H13 8141   4.874   4.802   0.525 -0.6694  2.6043 -2.4737
  478THF     O1 8142   2.960   1.374   3.677  0.0813  0.1430 -0.1745
  478THF     C2 8143   3.012   1.444   3.567 -0.2135  0.0361  0.2955
  478THF     C3 8144   2.855   1.291   3.631  0.0421 -0.1614 -0.2988
  478THF     H4 8145   3.103   1.500   3.588 -1.2544 -0.4559  3.5795
  478THF     H5 8146   2.930   1.514   3.546  0.4471  0.2654  0.5920
  478THF     H6 8147   2.820   1.219   3.702 -0.3855  1.6542 -0.9548
  478THF     H7 8148   2.771   1.362   3.616  0.9319 -1.5738  0.8284
  478THF     C8 8149   2.919   1.226   3.502 -0.5370  0.1400  0.1650
  478THF     C9 8150   3.031   1.326   3.467  0.2184  0.6376 -0.2752
  478THF    H10 8151   2.850   1.202   3.420  1.8779 -1.4269 -1.9180
  478THF    H11 8152   2.967   1.133   3.540  1.2298  1.9603 -1.7928
  478THF    H12 8153   3.130   1.286   3.494 -2.4162 -0.7166 -3.3072
  478THF    H13 8154   3.045   1.360   3.364  0.2314  3.5290  0.3673
  479THF     O1 8155   0.955   5.370   0.541  0.0587 -0.0219 -0.7116
  479THF     C2 8156   0.918   5.502   0.556 -0.0195 -0.4468 -0.0750
  479THF     C3 8157   0.881   5.285   0.624 -0.0140 -1.0742 -0.4045
  479THF     H4 8158   0.935   5.555   0.464 -0.2848 -0.2940 -0.0207
  479THF     H5 8159   0.966   5.542   0.645 -2.2293 -1.2982 -0.1563
  479THF     H6 8160   0.845   5.204   0.569 -1.3412  1.4079  2.1082
  479THF     H7 8161   0.924   5.237   0.719 -0.9823  0.0895 -0.9677
  479THF     C8 8162   0.772   5.380   0.669  0.2061 -0.4902  0.2731
  479THF     C9 8163   0.770   5.499   0.580 -0.4348  1.0234 -0.8747
  479THF    H10 8164   0.804   5.418   0.768 -0.6770  3.4840 -2.5443
  479THF    H11 8165   0.674   5.325   0.681  2.1705 -0.8083 -3.2352
  479THF    H12 8166   0.723   5.467   0.493  2.2896  2.7408 -0.4847
  479THF    H13 8167   0.723   5.595   0.615  1.3016  1.2737  0.9554
  480THF     O1 8168   4.798   2.418   1.664 -0.1171 -0.1673 -0.4094
  480THF     C2 8169   4.781   2.297   1.737 -0.3249 -0.2030  0.6558
  480THF     C3 8170   4.882   2.387   1.552 -0.3796 -0.2194 -0.1889
  480THF     H4 8171   4.719   2.223   1.691  0.5635  5.8823 -0.8961
  480THF     H5 8172   4.750   2.307   1.839  0.7549  2.5207 -1.3177
  480THF     H6 8173   4.821   2.327   1.482  1.1932  1.1542  1.9975
  480THF     H7 8174   4.920   2.472   1.499 -0.9708  0.4997  0.8208
  480THF     C8 8175   4.998   2.309   1.616  0.1712 -0.2613  0.8434
  480THF     C9 8176   4.924   2.244   1.734 -0.2848 -0.7700  0.6255
  480THF    H10 8177   5.073   2.380   1.645 -2.4284  0.0135 -2.0132
  480THF    H11 8178   5.045   2.243   1.544  1.8887  2.4253  1.0003
  480THF    H12 8179   4.927   2.134   1.726 -0.0994 -0.9583 -3.4576
  480THF    H13 8180   4.974   2.273   1.827  0.8376  0.4725 -0.3359
  481THF     O1 8181   4.882   0.321   3.818 -0.1561 -0.2607 -0.1973
  481THF     C2 8182   4.950   0.448   3.803  0.8162 -0.2881 -0.5041
  481THF     C3 8183   4.922   0.258   3.931 -0.4361 -0.2325 -0.1199
  481THF     H4 8184   4.889   0.534   3.776  0.5860  0.0035 -0.4729
  481THF     H5 8185   5.030   0.440   3.729 -2.4918  0.2256  0.7063
  481THF     H6 8186   4.851   0.266   4.011  0.9844 -1.9136  0.9656
  481THF     H7 8187   4.928   0.151   3.911 -0.0735  0.5534  0.7734
  481THF     C8 8188   5.049   0.332   3.970  0.3134  0.9200 -0.3065
  481THF     C9 8189   5.030   0.471   3.932 -0.0215 -0.1203 -0.1149
  481THF    H10 8190   5.121   0.275   3.915 -2.3036 -0.8297 -3.9411
  481THF    H11 8191   5.070   0.333   4.079 -0.9768 -0.9742  1.3133
  481THF    H12 8192   4.963   0.508   4.010 -0.5848  1.6181  2.6730
  481THF    H13 8193   5.129   0.506   3.934  0.3725  0.1083  2.3815
  482THF     O1 8194   0.368   5.323   0.164  0.4193  0.3553 -0.9377
  482THF     C2 8195   0.369   5.348   0.307  0.3273  0.6071 -0.5384
  482THF     C3 8196   0.503   5.319   0.112  0.1381  0.2124 -0.1283
  482THF     H4 8197   0.346   5.257   0.353  0.6714  0.1437 -1.0178
  482THF     H5 8198   0.288   5.407   0.346  0.8665  1.1902 -0.3886
  482THF     H6 8199   0.514   5.234   0.048 -0.4378  1.3655 -1.4749
  482THF     H7 8200   0.535   5.411   0.059  1.2990  0.5091 -1.4564
  482THF     C8 8201   0.595   5.317   0.234  0.5846  1.5742 -0.6063
  482THF     C9 8202   0.513   5.403   0.328  0.4648 -0.1128  0.1101
  482THF    H10 8203   0.697   5.340   0.218  0.4992 -0.0587  0.4393
  482THF    H11 8204   0.602   5.213   0.270 -2.1197  2.5484 -2.2162
  482THF    H12 8205   0.538   5.401   0.427 -0.2851 -1.4234 -0.9763
  482THF    H13 8206   0.517   5.504   0.293  3.6131 -0.7315 -0.7242
  483THF     O1 8207   5.491   3.422   4.101 -0.2421 -0.1216  0.1882
  483THF     C2 8208   5.583   3.494   4.015  0.2791 -0.1155 -0.0087
  483THF     C3 8209   5.543   3.426   4.235 -0.5015  0.3243  0.2024
  483THF     H4 8210   5.556   3.598   4.018 -0.1711 -2.6981  1.6046
  483THF     H5 8211   5.564   3.461   3.916  0.1588  2.2019  2.9747
  483THF     H6 8212   5.495   3.501   4.294  2.1714  1.1885  1.9894
  483THF     H7 8213   5.526   3.322   4.271  2.0433 -1.2498 -1.4549
  483THF     C8 8214   5.699   3.445   4.217  0.2867 -0.9614  0.0290
  483THF     C9 8215   5.718   3.468   4.067 -0.2977 -0.4719  0.4000
  483THF    H10 8216   5.758   3.358   4.260  5.7030 -2.6018 -0.1112
  483THF    H11 8217   5.730   3.537   4.274 -1.7072  1.2373  0.0794
  483THF    H12 8218   5.783   3.557   4.053 -0.5425  0.6451  0.4949
  483THF    H13 8219   5.771   3.398   4.003  0.0988  0.7517  0.8777
  484THF     O1 8220   1.013   1.521   0.709 -0.1207 -0.0613  0.3226
  484THF     C2 8221   1.147   1.517   0.763  0.1469  0.1721  0.0865
  484THF     C3 8222   1.029   1.522   0.567  0.5616 -0.0297  0.1315
  484THF     H4 8223   1.210   1.428   0.740 -0.3635  3.6418 -1.1745
  484THF     H5 8224   1.143   1.535   0.869 -2.5259  0.1745  0.8681
  484THF     H6 8225   1.055   1.421   0.535  0.6019  0.0215  1.0388
  484THF     H7 8226   0.934   1.546   0.511  0.8230  0.4387  3.2615
  484THF     C8 8227   1.154   1.611   0.539  0.3658  0.0925 -0.6205
  484THF     C9 8228   1.210   1.628   0.681 -1.2939 -0.3584  0.8938
  484THF    H10 8229   1.125   1.713   0.505 -1.1642  1.0071 -0.6151
  484THF    H11 8230   1.229   1.565   0.476  0.4053  1.4515  1.0838
  484THF    H12 8231   1.322   1.618   0.690  2.2379 -0.9181 -0.2028
  484THF    H13 8232   1.171   1.720   0.725 -0.3280  0.6980 -1.8836
  485THF     O1 8233   1.924   0.177   1.466 -0.1359 -0.2711  0.1626
  485THF     C2 8234   2.023   0.172   1.569  0.8060 -0.5268 -0.0170
  485THF     C3 8235   1.945   0.288   1.388  0.3881  0.0364  0.0966
  485THF     H4 8236   2.097   0.099   1.548 -1.4338  2.7913 -0.7410
  485THF     H5 8237   1.989   0.141   1.671  1.2606 -0.8159  0.0203
  485THF     H6 8238   2.009   0.252   1.303 -0.6857  0.0963  0.8550
  485THF     H7 8239   1.843   0.311   1.348 -1.0072  2.6944 -2.4035
  485THF     C8 8240   1.999   0.392   1.482 -0.0572 -0.0121 -0.1114
  485THF     C9 8241   2.095   0.310   1.564 -0.3972  0.1115 -0.0162
  485THF    H10 8242   1.928   0.433   1.548  3.3656  0.8846  0.4132
  485THF    H11 8243   2.032   0.475   1.429 -5.8239  0.4286  2.6468
  485THF    H12 8244   2.198   0.297   1.517  1.8411  0.4282  1.3624
  485THF    H13 8245   2.114   0.341   1.665  1.1957 -0.2888 -2.4575
  486THF     O1 8246   2.701   2.853   1.631 -0.3124 -0.2162 -0.4373
  486THF     C2 8247   2.579   2.859   1.558  0.5008 -0.2679  0.2101
  486THF     C3 8248   2.788   2.769   1.559  0.3747 -0.5572 -0.5397
  486THF     H4 8249   2.569   2.951   1.496  0.8668 -0.3762  0.5585
  486THF     H5 8250   2.492   2.842   1.623 -0.0743 -1.0993  0.4319
  486THF     H6 8251   2.844   2.824   1.478  2.4972  2.8305 -1.1325
  486THF     H7 8252   2.856   2.736   1.637  0.4867  0.2991  1.5746
  486THF     C8 8253   2.700   2.654   1.499  0.2194  0.0500  0.1905
  486THF     C9 8254   2.574   2.738   1.459 -0.5731  0.1491 -0.6228
  486THF    H10 8255   2.680   2.575   1.568  2.7274 -0.1982 -1.2493
  486THF    H11 8256   2.740   2.610   1.405  1.4858 -0.9652 -2.5984
  486THF    H12 8257   2.599   2.776   1.363 -0.1845 -1.5254  1.5693
  486THF    H13 8258   2.482   2.684   1.464  1.4449 -2.2135  0.2576
  487THF     O1 8259   0.034   2.411   2.188  0.0256  0.1607  0.0777
  487THF     C2 8260  -0.060   2.499   2.117 -0.6078 -0.7774  0.3818
  487THF     C3 8261  -0.046   2.302   2.228 -0.4508 -0.4783  0.6247
  487THF     H4 8262  -0.001   2.587   2.067  0.4979  0.0823 -0.7668
  487THF     H5 8263  -0.141   2.539   2.174 -0.5011  2.1021 -0.7686
  487THF     H6 8264   0.005   2.210   2.251 -1.4663 -0.8234 -2.1074
  487THF     H7 8265  -0.102   2.350   2.309  1.3133  1.3976  0.7630
  487THF     C8 8266  -0.138   2.278   2.111 -0.2006 -0.1307  0.6134
  487THF     C9 8267  -0.114   2.397   2.022  0.2757 -0.1247 -0.3570
  487THF    H10 8268  -0.241   2.253   2.152  0.0057 -0.0684  0.3155
  487THF    H11 8269  -0.100   2.190   2.060  0.5018  0.8319  1.8641
  487THF    H12 8270  -0.038   2.379   1.949 -0.0725  2.0598 -1.5874
  487THF    H13 8271  -0.207   2.418   1.964 -0.4280  0.8069  2.4448
  488THF     O1 8272   2.093   1.072   3.129 -0.0218  0.8368  0.1919
  488THF     C2 8273   1.974   1.094   3.217 -0.3372 -0.5509  0.5276
  488THF     C3 8274   2.196   1.116   3.210  0.3178  0.0210  0.3733
  488THF     H4 8275   1.957   1.017   3.299  1.2227  1.0187  0.4006
  488THF     H5 8276   1.889   1.086   3.144 -1.6342  2.0381  0.6781
  488THF     H6 8277   2.234   1.051   3.291  1.7750  1.2178  1.1770
  488THF     H7 8278   2.286   1.135   3.150 -1.0703  0.3788  0.0798
  488THF     C8 8279   2.142   1.245   3.272 -0.1034 -0.5555  0.0361
  488THF     C9 8280   1.991   1.235   3.265 -0.4046 -0.2364 -0.5544
  488THF    H10 8281   2.181   1.342   3.221 -0.9061 -1.6490 -3.1519
  488THF    H11 8282   2.160   1.244   3.382 -1.2727 -0.7563 -0.9987
  488THF    H12 8283   1.939   1.268   3.357 -2.2075 -1.8002  0.0718
  488THF    H13 8284   1.965   1.295   3.185 -0.0658  1.5133  2.7236
  489THF     O1 8285   2.982   0.222   4.573 -0.2738 -0.2136 -0.1196
  489THF     C2 8286   2.900   0.213   4.463  0.1131 -0.9407 -0.4877
  489THF     C3 8287   3.086   0.306   4.540  0.3146 -0.0514 -0.1309
  489THF     H4 8288   2.849   0.306   4.453  1.2479 -0.7177 -1.2481
  489THF     H5 8289   2.829   0.129   4.479 -2.3793  0.0702  2.9411
  489THF     H6 8290   3.065   0.412   4.551 -0.1327  0.8862  0.4102
  489THF     H7 8291   3.168   0.289   4.610  1.3090 -0.6660 -1.6507
  489THF     C8 8292   3.113   0.292   4.391  0.2753 -0.1706  0.2639
  489THF     C9 8293   3.002   0.198   4.343  0.4814  0.1837  0.9473
  489THF    H10 8294   3.207   0.239   4.377 -0.9350 -3.3200  1.9515
  489THF    H11 8295   3.123   0.382   4.327  2.8843  0.1162  0.5699
  489THF    H12 8296   2.947   0.234   4.253 -2.6409  0.0518  1.8128
  489THF    H13 8297   3.035   0.097   4.327  0.3958 -0.3115 -1.5312
  490THF     O1 8298   0.332   0.520   3.470 -0.4190 -0.1384 -0.5837
  490THF     C2 8299   0.416   0.638   3.474 -0.3696  0.9563  0.4751
  490THF     C3 8300   0.284   0.501   3.603 -0.3387  0.4286 -0.8890
  490THF     H4 8301   0.360   0.723   3.453  1.6895 -1.3366  1.1869
  490THF     H5 8302   0.507   0.637   3.405 -0.0743  2.9385  2.1203
  490THF     H6 8303   0.176   0.530   3.598 -1.1267 -2.2835  1.1569
  490THF     H7 8304   0.301   0.399   3.640 -3.7874  1.4305  2.0431
  490THF     C8 8305   0.360   0.587   3.697 -0.3195 -0.1249 -0.5626
  490THF     C9 8306   0.475   0.633   3.615  0.7491  0.6133 -0.5031
  490THF    H10 8307   0.384   0.541   3.787 -1.7328  0.8432 -1.3789
  490THF    H11 8308   0.302   0.669   3.722 -1.5483 -0.1588 -0.1871
  490THF    H12 8309   0.504   0.730   3.650 -0.0377  0.2435 -0.3541
  490THF    H13 8310   0.567   0.569   3.608  1.4030 -1.2201 -0.7161
  491THF     O1 8311   2.828   2.708   4.380 -0.3816 -0.2145 -0.0248
  491THF     C2 8312   2.947   2.781   4.414 -0.8571 -0.6286 -0.4506
  491THF     C3 8313   2.796   2.622   4.485 -0.6950 -0.3952  1.3844
  491THF     H4 8314   2.921   2.887   4.413  0.1506 -1.5877 -3.7515
  491THF     H5 8315   3.022   2.769   4.333 -0.1352 -0.6755 -2.0465
  491THF     H6 8316   2.693   2.595   4.475  2.1484  0.0007 -0.6556
  491THF     H7 8317   2.856   2.532   4.463  4.3195 -0.5729 -1.4797
  491THF     C8 8318   2.839   2.692   4.611  0.3864 -0.0369 -0.2981
  491THF     C9 8319   2.971   2.740   4.565 -0.0841  0.1733  0.0181
  491THF    H10 8320   2.832   2.643   4.710  0.0233 -1.9120  0.7721
  491THF    H11 8321   2.778   2.786   4.620 -2.9493  2.5050 -1.2445
  491THF    H12 8322   3.010   2.828   4.616 -1.1987 -1.7475  0.3494
  491THF    H13 8323   3.049   2.668   4.573  1.1799  0.7704 -1.1979
  492THF     O1 8324   1.860   0.455   5.342 -0.2478  0.2306  0.4948
  492THF     C2 8325   1.751   0.548   5.341 -0.1115 -0.2790  0.0978
  492THF     C3 8326   1.950   0.502   5.237 -0.5148 -0.0392 -0.4037
  492THF     H4 8327   1.697   0.513   5.435  0.5196  1.5128 -1.4143
  492THF     H5 8328   1.679   0.548   5.259  0.1691 -2.7729  0.1471
  492THF     H6 8329   2.049   0.457   5.248 -0.6586  2.7028 -1.2620
  492THF     H7 8330   1.923   0.483   5.130  0.0287 -1.7397 -0.8234
  492THF     C8 8331   1.964   0.648   5.276 -0.2817 -0.1429  0.6995
  492THF     C9 8332   1.836   0.678   5.349  0.5495  0.0671  0.2736
  492THF    H10 8333   1.978   0.715   5.194 -0.7391  1.5394 -1.5459
  492THF    H11 8334   2.040   0.661   5.342 -2.1336 -1.3103 -0.3565
  492THF    H12 8335   1.864   0.702   5.460  1.6755 -2.6956 -1.3112
  492THF    H13 8336   1.784   0.762   5.295 -0.4865 -3.7625 -1.4136
  493THF     O1 8337   2.606   0.299   3.334  0.2589 -0.4246 -0.6565
  493THF     C2 8338   2.701   0.328   3.231  0.1827 -0.2642 -0.3485
  493THF     C3 8339   2.501   0.398   3.326  0.8657  0.5611  0.0980
  493THF     H4 8340   2.751   0.245   3.188  3.4501  0.5322 -1.0480
  493THF     H5 8341   2.781   0.380   3.276 -0.8900 -1.5998  1.0107
  493THF     H6 8342   2.407   0.356   3.370 -0.4691 -2.5963  0.3984
  493THF     H7 8343   2.517   0.500   3.375  1.5454 -0.6538  0.8266
  493THF     C8 8344   2.492   0.417   3.177 -0.4553 -0.4451 -0.2528
  493THF     C9 8345   2.634   0.430   3.139 -0.2038  0.2335  0.1313
  493THF    H10 8346   2.444   0.512   3.147  1.1581  0.9308  0.8961
  493THF    H11 8347   2.453   0.334   3.116 -0.4039 -0.8997  1.1219
  493THF    H12 8348   2.672   0.396   3.039  2.3098  0.1781  2.1216
  493THF    H13 8349   2.674   0.522   3.167 -0.2041 -2.2477 -0.5165
  494THF     O1 8350   2.913   5.362   0.054  0.2577  0.7538 -0.2797
  494THF     C2 8351   2.795   5.292   0.067  1.3750 -0.2180  0.4455
  494THF     C3 8352   3.006   5.299   0.137 -0.6935 -0.7604 -0.3934
  494THF     H4 8353   2.731   5.321  -0.019 -0.4603 -1.2338 -1.9153
  494THF     H5 8354   2.735   5.316   0.155 -0.8236 -2.2824 -0.2113
  494THF     H6 8355   3.107   5.341   0.127  1.3821  0.9901  0.1773
  494THF     H7 8356   2.968   5.330   0.233  0.7778  2.0484  1.2598
  494THF     C8 8357   2.984   5.150   0.111  0.1246  0.3666  0.3656
  494THF     C9 8358   2.841   5.151   0.056  0.1859 -0.4330  0.7231
  494THF    H10 8359   2.995   5.087   0.202  1.4173  0.2658 -0.9514
  494THF    H11 8360   3.059   5.115   0.038  3.5480 -0.0713  1.7541
  494THF    H12 8361   2.855   5.110  -0.050  3.3845 -1.7308 -1.0412
  494THF    H13 8362   2.768   5.102   0.112  1.9071  0.8870  0.1004
  495THF     O1 8363   0.917   4.620   3.376 -0.3576 -0.2368 -0.0757
  495THF     C2 8364   1.034   4.681   3.333 -0.9617 -0.8576  0.7308
  495THF     C3 8365   0.809   4.697   3.333 -0.3854 -0.2817  0.0548
  495THF     H4 8366   1.115   4.614   3.327 -0.4195 -0.5309  0.3169
  495THF     H5 8367   1.076   4.763   3.391 -1.9236 -2.0302  0.4972
  495THF     H6 8368   0.722   4.635   3.330  0.7398 -1.4456  1.4290
  495THF     H7 8369   0.800   4.783   3.401 -0.0939 -1.6650 -0.1561
  495THF     C8 8370   0.854   4.741   3.188  0.3662  0.1524 -0.3061
  495THF     C9 8371   1.006   4.728   3.188 -0.1456  0.2404 -1.1703
  495THF    H10 8372   0.823   4.840   3.156 -1.5301  0.5671 -1.2088
  495THF    H11 8373   0.807   4.674   3.116 -0.5571 -3.2434  0.1384
  495THF    H12 8374   1.054   4.647   3.130  1.9332 -0.1233  3.4327
  495THF    H13 8375   1.048   4.818   3.155  0.3117 -4.7672 -0.6061
  496THF     O1 8376   0.191   0.098   4.567 -0.1726 -0.0677  0.6747
  496THF     C2 8377   0.300   0.080   4.646 -0.1936 -0.1983 -0.1008
  496THF     C3 8378   0.187  -0.004   4.464 -0.0084 -0.1638  0.0178
  496THF     H4 8379   0.290   0.122   4.740  0.8018  0.6164 -0.2587
  496THF     H5 8380   0.392   0.116   4.609 -1.0211  0.2456 -0.8209
  496THF     H6 8381   0.097  -0.005   4.398  0.4344  0.8127  2.4950
  496THF     H7 8382   0.267   0.027   4.398  2.0939  1.9911  1.9650
  496THF     C8 8383   0.222  -0.125   4.536 -0.2660  0.0275 -0.3535
  496THF     C9 8384   0.301  -0.072   4.652  0.2550 -0.2593  0.2780
  496THF    H10 8385   0.284  -0.194   4.478  0.2064 -1.4622  1.8353
  496THF    H11 8386   0.140  -0.182   4.571  1.7863 -0.0934 -3.5909
  496THF    H12 8387   0.256  -0.101   4.752 -2.1533  0.0827  1.6737
  496THF    H13 8388   0.400  -0.115   4.651 -0.1022 -1.9625  2.0718
  497THF     O1 8389   0.532   5.196   2.089  0.1575  0.0474  0.2968
  497THF     C2 8390   0.667   5.212   2.123 -0.4541 -0.5434  0.4688
  497THF     C3 8391   0.470   5.323   2.055 -0.2742 -0.6322  0.1185
  497THF     H4 8392   0.734   5.198   2.040  1.3675 -0.3964  0.8751
  497THF     H5 8393   0.693   5.135   2.202  1.2209  0.1975  2.1880
  497THF     H6 8394   0.445   5.324   1.947 -1.4125  0.7799 -2.0308
  497THF     H7 8395   0.382   5.334   2.115  2.3364  2.1681 -0.6724
  497THF     C8 8396   0.579   5.426   2.083  0.0224 -0.5536 -0.1484
  497THF     C9 8397   0.664   5.352   2.191 -0.2078 -0.7380 -0.5691
  497THF    H10 8398   0.541   5.522   2.118 -1.2162 -1.1675  0.2386
  497THF    H11 8399   0.635   5.448   1.991  1.2070 -0.2249 -0.1949
  497THF    H12 8400   0.769   5.388   2.187 -1.1014 -0.2514 -0.4224
  497THF    H13 8401   0.616   5.361   2.290  0.2738 -2.3074 -2.8293
  498THF     O1 8402   0.355   0.231   5.401  0.2446 -0.5301  0.2324
  498THF     C2 8403   0.257   0.325   5.451 -0.3987 -0.7884  0.6436
  498THF     C3 8404   0.367   0.131   5.498 -0.1418  0.1268  0.5877
  498THF     H4 8405   0.220   0.396   5.374 -3.3650 -0.9955  0.5047
  498THF     H5 8406   0.302   0.382   5.532 -1.9253  0.9471  1.1861
  498THF     H6 8407   0.413   0.039   5.453 -1.0771 -1.1234  1.0928
  498THF     H7 8408   0.421   0.177   5.583  0.9329  0.7704  0.4880
  498THF     C8 8409   0.226   0.099   5.527  0.1260 -0.8140 -0.2956
  498THF     C9 8410   0.150   0.233   5.509 -0.1914 -0.5175  0.8495
  498THF    H10 8411   0.202   0.058   5.633  1.8139  0.9713  3.6297
  498THF    H11 8412   0.208   0.011   5.466  1.3918 -1.1446  0.3125
  498THF    H12 8413   0.048   0.228   5.467 -1.9647  0.1602  1.8435
  498THF    H13 8414   0.146   0.279   5.609  1.7517  1.1928  0.2526
  499THF     O1 8415   4.046   1.712   3.996  0.2867 -0.4439  0.1107
  499THF     C2 8416   4.147   1.680   4.091  0.1391 -0.5092 -0.1418
  499THF     C3 8417   3.993   1.595   3.936  0.2632 -0.0154  0.4341
  499THF     H4 8418   4.166   1.760   4.164  1.5435 -0.0486 -0.1862
  499THF     H5 8419   4.232   1.653   4.025 -0.2982 -1.5172  0.7988
  499THF     H6 8420   3.890   1.597   3.905 -0.0701  1.3740 -1.1438
  499THF     H7 8421   4.042   1.582   3.849 -0.3263 -0.0073 -0.2712
  499THF     C8 8422   4.025   1.482   4.027  0.0529  0.5549 -0.2481
  499THF     C9 8423   4.107   1.549   4.146 -0.1881  0.8015  0.0940
  499THF    H10 8424   4.092   1.410   3.965  2.8197 -1.3845  0.9793
  499THF    H11 8425   3.945   1.421   4.065  0.8115 -0.2503 -0.8972
  499THF    H12 8426   4.024   1.568   4.218 -1.0292 -1.0896  2.0055
  499THF    H13 8427   4.180   1.498   4.209 -0.1007 -0.6541  2.2585
  500THF     O1 8428   5.144   1.887   2.888 -0.0004  0.3836  0.0765
  500THF     C2 8429   5.063   1.906   3.003  0.2079 -0.3045  0.4029
  500THF     C3 8430   5.280   1.921   2.935  0.3678  0.0846  0.7706
  500THF     H4 8431   4.960   1.880   3.004  2.0697  1.2236  0.0782
  500THF     H5 8432   5.068   2.014   3.031 -2.1142 -1.6346  2.0319
  500THF     H6 8433   5.338   1.892   2.856 -0.9259  1.1536  2.8284
  500THF     H7 8434   5.293   2.024   2.939  0.4697  1.0601 -1.3413
  500THF     C8 8435   5.289   1.844   3.066 -0.8342  0.0533 -0.2103
  500THF     C9 8436   5.145   1.827   3.108 -0.3461  0.2393 -0.3289
  500THF    H10 8437   5.345   1.890   3.148 -1.3826 -2.4716  2.1294
  500THF    H11 8438   5.326   1.738   3.052 -2.8523 -2.3071  0.3308
  500THF    H12 8439   5.112   1.716   3.110 -0.8277  0.4728 -0.1928
  500THF    H13 8440   5.122   1.865   3.207 -0.4474  2.8858  3.2143
  501THF     O1 8441   0.726   0.602   0.439 -0.3805  0.2801 -0.4762
  501THF     C2 8442   0.855   0.646   0.476 -0.3641  0.8367  0.0846
  501THF     C3 8443   0.744   0.521   0.331  0.3978 -0.6215  0.4178
  501THF     H4 8444   0.889   0.566   0.543 -1.0199 -1.6735 -0.9637
  501THF     H5 8445   0.862   0.740   0.531  1.1649 -1.6092 -0.9749
  501THF     H6 8446   0.722   0.414   0.356 -0.5712  0.0554  0.7613
  501THF     H7 8447   0.666   0.558   0.270 -0.3423 -0.5197  0.7306
  501THF     C8 8448   0.879   0.537   0.266 -0.4417 -0.3768  0.1243
  501THF     C9 8449   0.939   0.655   0.345 -0.0074  0.2354 -0.0966
  501THF    H10 8450   0.864   0.544   0.158 -0.8104  1.4693 -0.5575
  501THF    H11 8451   0.946   0.453   0.289 -0.0071  0.1091  0.4256
  501THF    H12 8452   1.045   0.640   0.348 -0.8405  0.8726  0.4427
  501THF    H13 8453   0.906   0.752   0.303  0.6458  2.0267 -3.2733
  502THF     O1 8454   2.656   1.687   3.869  0.7887  0.6289  0.0309
  502THF     C2 8455   2.634   1.571   3.790  0.5282  0.6122  0.3811
  502THF     C3 8456   2.596   1.659   3.995 -0.4650 -0.0099 -0.4718
  502THF     H4 8457   2.690   1.584   3.696 -0.3393 -1.0008 -5.3246
  502THF     H5 8458   2.530   1.575   3.760  0.8381  0.9854  1.4116
  502THF     H6 8459   2.628   1.725   4.079 -3.1581  0.7550  2.0100
  502THF     H7 8460   2.489   1.679   3.990  0.0825 -1.7383  1.2337
  502THF     C8 8461   2.629   1.514   4.017  0.0086 -0.1089 -0.3175
  502THF     C9 8462   2.660   1.451   3.883  0.6155  0.3234 -0.1830
  502THF    H10 8463   2.543   1.467   4.067 -3.5428 -1.3121 -2.5072
  502THF    H11 8464   2.712   1.493   4.086  2.6661 -2.0727  3.1925
  502THF    H12 8465   2.767   1.430   3.885 -1.6540 -0.5917  2.1709
  502THF    H13 8466   2.609   1.364   3.858  1.4324  1.2859 -0.7434
  503THF     O1 8467   1.712   0.847   2.731 -0.3581 -0.4289 -0.6396
  503THF     C2 8468   1.748   0.880   2.865 -0.4526 -0.5208 -0.1281
  503THF     C3 8469   1.798   0.935   2.651 -0.4588  0.4740 -0.0938
  503THF     H4 8470   1.738   0.799   2.934  2.8174 -1.0516 -1.8605
  503THF     H5 8471   1.693   0.965   2.909  3.9703 -1.0858 -0.9785
  503THF     H6 8472   1.830   0.910   2.550 -3.4596 -0.7432 -1.0710
  503THF     H7 8473   1.746   1.027   2.656 -0.0105 -2.4361 -1.5736
  503THF     C8 8474   1.924   0.957   2.729 -0.1804  0.5920 -0.7545
  503THF     C9 8475   1.895   0.914   2.871 -0.6933  0.5563 -0.4073
  503THF    H10 8476   1.937   1.063   2.734  2.4505 -1.6493 -0.4715
  503THF    H11 8477   2.010   0.909   2.688 -0.1520  0.7863  1.0082
  503THF    H12 8478   1.963   0.827   2.888  0.6909  0.8225  0.1099
  503THF    H13 8479   1.923   0.988   2.944  0.7527  0.1460 -0.1554
  504THF     O1 8480   0.135   4.890   0.915 -0.0850  0.9712  0.5597
  504THF     C2 8481   0.056   4.805   0.996 -0.6538  0.5512  0.2822
  504THF     C3 8482   0.044   4.977   0.856  0.7272  0.7709 -0.0325
  504THF     H4 8483   0.039   4.855   1.088 -0.1999 -1.2705  0.8740
  504THF     H5 8484   0.104   4.712   1.027  0.3772 -0.7807  1.9595
  504THF     H6 8485   0.024   5.048   0.936  2.2192  1.2358  1.5203
  504THF     H7 8486   0.079   5.016   0.764  1.6570 -1.5069  0.0575
  504THF     C8 8487  -0.072   4.887   0.816  0.3399 -0.4044  0.0726
  504THF     C9 8488  -0.067   4.770   0.918 -0.6400  0.5210 -0.3100
  504THF    H10 8489  -0.079   4.866   0.705 -2.0006 -2.8992 -2.5267
  504THF    H11 8490  -0.159   4.943   0.847  1.7625 -1.3111  0.5859
  504THF    H12 8491  -0.153   4.769   0.986  0.6819 -0.3476  1.1761
  504THF    H13 8492  -0.048   4.680   0.863  2.0849  1.2792 -0.2537
  505THF     O1 8493   3.871   2.056   2.370 -0.2782  0.0961  0.3106
  505THF     C2 8494   3.742   2.030   2.420 -0.3319 -0.8527  0.1995
  505THF     C3 8495   3.870   2.189   2.325  0.3802 -0.1975 -0.1271
  505THF     H4 8496   3.744   1.954   2.496 -0.6965 -0.9058  0.2705
  505THF     H5 8497   3.694   1.969   2.344 -0.8361  0.1362  2.7765
  505THF     H6 8498   3.967   2.231   2.307 -0.0089 -0.0517 -0.2288
  505THF     H7 8499   3.817   2.193   2.227  0.4434 -0.5778  1.3410
  505THF     C8 8500   3.792   2.265   2.441 -0.1862 -0.0404  0.2689
  505THF     C9 8501   3.680   2.163   2.461 -0.0207  0.5207  0.2895
  505THF    H10 8502   3.762   2.361   2.412  0.3012 -1.0203  0.3855
  505THF    H11 8503   3.861   2.277   2.529 -0.4718 -0.3588  0.7098
  505THF    H12 8504   3.637   2.149   2.556 -1.2189 -0.5514 -3.3172
  505THF    H13 8505   3.591   2.204   2.405 -2.1506 -1.4822 -0.7055
  506THF     O1 8506   5.279   0.310   3.593  0.1882 -0.6011 -0.1470
  506THF     C2 8507   5.385   0.316   3.687  0.3648  0.2479 -0.5235
  506THF     C3 8508   5.296   0.412   3.497  0.2705 -0.3248 -0.0723
  506THF     H4 8509   5.480   0.287   3.645  1.8252  1.6529  0.0533
  506THF     H5 8510   5.366   0.262   3.777  0.2670 -2.4275  0.8625
  506THF     H6 8511   5.320   0.366   3.400 -1.5233 -0.1513 -2.0202
  506THF     H7 8512   5.197   0.456   3.482 -3.3479  0.9120  2.2430
  506THF     C8 8513   5.394   0.512   3.563 -0.3170  0.1771 -0.3293
  506THF     C9 8514   5.402   0.465   3.709  0.4157 -0.4741 -0.0480
  506THF    H10 8515   5.356   0.614   3.552  1.8719  1.8485 -3.4258
  506THF    H11 8516   5.486   0.498   3.506  1.5314  0.5825 -2.2862
  506THF    H12 8517   5.492   0.489   3.768  1.9940  3.1644  1.7029
  506THF    H13 8518   5.316   0.503   3.758  0.6237 -3.3349 -0.7163
  507THF     O1 8519   1.221   2.570   3.374 -0.1788 -0.1052  0.5068
  507THF     C2 8520   1.154   2.492   3.272  0.5976 -0.1934  1.3819
  507THF     C3 8521   1.111   2.617   3.450  0.2896  1.0135  0.1696
  507THF     H4 8522   1.115   2.399   3.312  0.8149 -0.2767 -2.0568
  507THF     H5 8523   1.225   2.470   3.189  1.9737  1.0455 -0.1488
  507THF     H6 8524   1.060   2.534   3.512 -2.2449 -0.5953 -0.3808
  507THF     H7 8525   1.135   2.687   3.530  1.1357  2.9015 -1.2981
  507THF     C8 8526   1.014   2.676   3.346 -0.4703  0.0197  0.5145
  507THF     C9 8527   1.031   2.579   3.224  0.2907 -0.2642 -0.3275
  507THF    H10 8528   1.048   2.777   3.316 -1.6700  0.0672 -1.0265
  507THF    H11 8529   0.912   2.687   3.388  0.5584  1.4909  0.9947
  507THF    H12 8530   0.933   2.525   3.208  0.3486 -0.6383  0.7863
  507THF    H13 8531   1.050   2.634   3.132  0.5683  3.1085  0.8238
  508THF     O1 8532   2.605   3.708   1.193  0.0014 -0.1126  0.4698
  508THF     C2 8533   2.657   3.733   1.324  0.3499  0.4877 -0.2772
  508THF     C3 8534   2.701   3.648   1.110 -0.1378  0.0148 -0.0010
  508THF     H4 8535   2.578   3.733   1.400  0.2381 -1.3661  2.4481
  508THF     H5 8536   2.714   3.827   1.331  0.3440 -0.1003 -0.0357
  508THF     H6 8537   2.664   3.587   1.028 -1.5316 -0.5213 -2.9753
  508THF     H7 8538   2.737   3.732   1.057  1.4164  0.3399  1.5229
  508THF     C8 8539   2.804   3.593   1.207 -1.0451 -0.4780  0.2287
  508THF     C9 8540   2.746   3.609   1.346 -0.4524  0.1773  0.0194
  508THF    H10 8541   2.896   3.652   1.195  0.9805 -0.7908  0.5245
  508THF    H11 8542   2.829   3.491   1.181 -0.1395 -0.9885 -2.6631
  508THF    H12 8543   2.689   3.526   1.372  2.9387 -1.8362 -1.9601
  508THF    H13 8544   2.823   3.620   1.420 -0.1457 -1.0792 -1.5284
  509THF     O1 8545   2.570   1.078   3.558  0.1512 -0.0233  0.0802
  509THF     C2 8546   2.440   1.132   3.580  0.3456  0.2475  0.4240
  509THF     C3 8547   2.603   1.008   3.674  0.0801  0.6356 -0.2708
  509THF     H4 8548   2.387   1.183   3.492 -2.7028 -2.0604  0.4131
  509THF     H5 8549   2.450   1.211   3.658  0.4401  2.5114  2.0283
  509THF     H6 8550   2.685   0.935   3.648 -0.8929  0.2245 -0.3461
  509THF     H7 8551   2.640   1.067   3.759  0.7097 -1.1083 -3.0200
  509THF     C8 8552   2.470   0.934   3.706  0.1926 -0.4796 -0.4833
  509THF     C9 8553   2.363   1.012   3.637  0.3540 -0.7648  0.4884
  509THF    H10 8554   2.445   0.928   3.812  1.1542 -1.2281  3.6386
  509THF    H11 8555   2.484   0.832   3.677  0.3094  1.7083  0.1722
  509THF    H12 8556   2.312   0.954   3.561 -0.4346 -0.2920  2.0844
  509THF    H13 8557   2.288   1.045   3.709 -0.0876  0.0071  2.7128
  510THF     O1 8558   4.406   1.445   1.252  0.3814  0.1918 -0.1444
  510THF     C2 8559   4.512   1.511   1.329  0.2306 -0.1125  0.0045
  510THF     C3 8560   4.463   1.391   1.135 -1.1924 -0.0176  0.8870
  510THF     H4 8561   4.499   1.515   1.435 -1.9080  0.8510  0.1979
  510THF     H5 8562   4.521   1.617   1.314 -1.1206  1.4336 -3.2879
  510THF     H6 8563   4.404   1.309   1.093 -1.6607  0.3003 -3.3228
  510THF     H7 8564   4.478   1.472   1.056 -0.6618  1.7293 -2.1590
  510THF     C8 8565   4.600   1.343   1.179  0.6862 -0.6044  0.6254
  510THF     C9 8566   4.639   1.443   1.279 -0.2681 -0.8626 -0.2936
  510THF    H10 8567   4.673   1.335   1.100  1.7139  0.1343  2.6485
  510THF    H11 8568   4.575   1.250   1.231  0.1240  2.0625  1.1737
  510THF    H12 8569   4.689   1.396   1.360 -0.4703  0.8571  0.9175
  510THF    H13 8570   4.700   1.509   1.224 -1.9607 -2.6541 -0.2222
  511THF     O1 8571   4.766   3.375   2.545 -0.4031 -0.0924  0.1936
  511THF     C2 8572   4.714   3.491   2.598 -0.3242 -0.1635  0.4935
  511THF     C3 8573   4.721   3.267   2.625  0.1913  0.1151 -0.1308
  511THF     H4 8574   4.619   3.517   2.553  0.6156  0.4888  0.6908
  511THF     H5 8575   4.778   3.577   2.577 -0.6559  0.3515 -0.0329
  511THF     H6 8576   4.616   3.259   2.604  1.0154  2.3887 -1.9814
  511THF     H7 8577   4.773   3.179   2.593 -0.3222 -1.3056 -0.5616
  511THF     C8 8578   4.747   3.320   2.766 -0.4188  0.8269  0.3148
  511THF     C9 8579   4.717   3.464   2.749 -0.2518  0.2232  0.1852
  511THF    H10 8580   4.855   3.301   2.786  1.0035 -0.5734 -0.1265
  511THF    H11 8581   4.687   3.268   2.843  0.5264 -0.5320 -0.8210
  511THF    H12 8582   4.629   3.489   2.798 -1.3686 -0.7041  1.6249
  511THF    H13 8583   4.793   3.522   2.806 -0.0289 -1.1975 -1.5755
  512THF     O1 8584   1.950   1.825   2.571  0.0789  0.0689  0.9933
  512THF     C2 8585   2.025   1.814   2.689  0.2394  0.2208 -0.4615
  512THF     C3 8586   1.937   1.966   2.548 -0.5384 -0.2734  0.4056
  512THF     H4 8587   2.129   1.792   2.665 -0.3921  2.2233  0.5955
  512THF     H5 8588   1.991   1.730   2.747 -2.1630 -0.5856 -2.4793
  512THF     H6 8589   2.030   1.990   2.493 -2.7315 -1.4488  2.9382
  512THF     H7 8590   1.857   1.995   2.480  2.4403  0.0513 -0.6644
  512THF     C8 8591   1.930   2.031   2.688  0.3064 -0.3241 -0.0444
  512THF     C9 8592   2.023   1.937   2.762  0.3176  0.2236  0.2851
  512THF    H10 8593   1.830   2.017   2.724  0.7747 -0.7830  0.0924
  512THF    H11 8594   1.965   2.139   2.678  2.6548  0.4056 -1.0168
  512THF    H12 8595   2.125   1.980   2.772 -0.5370  0.6936  0.2719
  512THF    H13 8596   1.992   1.916   2.864 -2.1811  0.8619  0.3854
  513THF     O1 8597   5.050   4.143   3.166  0.4162 -0.5577 -0.5673
  513THF     C2 8598   5.053   4.256   3.081  0.3371  0.1207  0.3137
  513THF     C3 8599   5.172   4.065   3.149  0.4490  0.2830 -0.6432
  513THF     H4 8600   4.985   4.335   3.105  1.3479 -0.3571  0.5646
  513THF     H5 8601   5.054   4.223   2.978 -2.7835  1.9001 -3.0211
  513THF     H6 8602   5.178   3.995   3.232 -0.6600 -1.8033  1.7995
  513THF     H7 8603   5.182   4.000   3.058 -0.2893  0.4138  0.0548
  513THF     C8 8604   5.279   4.177   3.141  0.6455  0.0575  1.0475
  513THF     C9 8605   5.203   4.307   3.099 -0.1034 -0.3000  0.8910
  513THF    H10 8606   5.374   4.170   3.083  0.4235  1.2800 -0.2065
  513THF    H11 8607   5.313   4.194   3.244 -1.6233  2.4903  1.0065
  513THF    H12 8608   5.199   4.375   3.177 -1.0447  1.4811 -0.9086
  513THF    H13 8609   5.245   4.365   3.014 -3.4094 -0.2908  0.7313
  514THF     O1 8610   2.771   2.218   1.736 -0.4746 -0.5410 -0.1602
  514THF     C2 8611   2.891   2.286   1.714 -0.2839 -0.5770  0.0752
  514THF     C3 8612   2.742   2.217   1.878  0.1429 -0.0179 -0.1650
  514THF     H4 8613   2.871   2.367   1.640 -0.7816  0.6242  0.1825
  514THF     H5 8614   2.958   2.214   1.675  2.9649 -1.7124  2.0855
  514THF     H6 8615   2.638   2.225   1.889 -0.1370  0.8259  0.0961
  514THF     H7 8616   2.771   2.121   1.918  1.3106  2.5480  1.2301
  514THF     C8 8617   2.817   2.331   1.940 -0.1959 -0.2483  0.7608
  514THF     C9 8618   2.940   2.335   1.855  0.7782  0.3572 -0.4528
  514THF    H10 8619   2.831   2.331   2.049 -0.8888 -0.9391 -1.3314
  514THF    H11 8620   2.769   2.423   1.923 -1.4199 -1.7857  2.1584
  514THF    H12 8621   2.986   2.424   1.865 -1.6406  0.0956 -2.2030
  514THF    H13 8622   3.012   2.261   1.886  1.0963  2.5475  1.0060
  515THF     O1 8623   2.387   3.763   3.745  0.4829 -0.0090  0.2729
  515THF     C2 8624   2.462   3.873   3.698 -0.3206 -0.1062 -0.6639
  515THF     C3 8625   2.307   3.792   3.856  0.0990 -1.0787  0.2360
  515THF     H4 8626   2.408   3.944   3.634  1.4548 -2.1370 -0.1631
  515THF     H5 8627   2.555   3.848   3.650  0.5929  0.2952  0.3060
  515THF     H6 8628   2.218   3.847   3.820 -1.2313  1.9633 -3.9230
  515THF     H7 8629   2.267   3.710   3.916 -1.6444 -0.6741  3.5537
  515THF     C8 8630   2.401   3.881   3.938 -0.7051  0.3497  0.1747
  515THF     C9 8631   2.491   3.949   3.828  0.3996 -0.5336 -0.0402
  515THF    H10 8632   2.455   3.809   3.996 -0.4052  3.9244 -0.9369
  515THF    H11 8633   2.351   3.954   4.003  1.0764  1.9631 -1.0410
  515THF    H12 8634   2.470   4.059   3.833  1.2062  0.2442  2.8023
  515THF    H13 8635   2.592   3.927   3.863  1.6098 -0.6436  2.3711
  516THF     O1 8636   3.798   4.323   5.029 -0.3594 -0.2153 -0.3643
  516THF     C2 8637   3.931   4.295   4.992 -0.2704 -0.8712 -0.4898
  516THF     C3 8638   3.735   4.421   4.942 -0.3606 -0.2174  0.4336
  516THF     H4 8639   3.928   4.200   4.941 -0.1050  0.4329  1.3770
  516THF     H5 8640   3.984   4.274   5.082 -0.8485 -1.0359  0.2457
  516THF     H6 8641   3.718   4.379   4.840 -1.1079 -0.2870 -1.1709
  516THF     H7 8642   3.654   4.474   4.983  2.2711  2.3995 -2.2095
  516THF     C8 8643   3.851   4.518   4.922 -0.4951  0.1744 -0.0680
  516THF     C9 8644   3.968   4.421   4.909 -0.5615  0.5586 -0.4118
  516THF    H10 8645   3.873   4.572   5.018  2.4409 -0.9281 -2.3620
  516THF    H11 8646   3.854   4.586   4.838  2.0580 -1.3238 -1.2325
  516THF    H12 8647   3.968   4.404   4.804  1.6949 -0.1170 -0.3130
  516THF    H13 8648   4.072   4.458   4.932  0.4437  3.1013  0.0808
  517THF     O1 8649   1.436   0.396   5.408  0.0478 -0.6309  0.6242
  517THF     C2 8650   1.376   0.512   5.372 -0.1328  0.2180 -0.5840
  517THF     C3 8651   1.416   0.364   5.537  0.3036  0.6090  0.5366
  517THF     H4 8652   1.375   0.512   5.262  0.1829  1.7518 -0.5737
  517THF     H5 8653   1.435   0.601   5.403 -1.9979 -1.7419 -0.5135
  517THF     H6 8654   1.447   0.261   5.563  5.2208  0.5654  0.7736
  517THF     H7 8655   1.478   0.426   5.603 -2.2401 -0.3107 -1.6881
  517THF     C8 8656   1.267   0.411   5.563 -0.4484  0.6040  0.3028
  517THF     C9 8657   1.243   0.497   5.439 -0.2199  0.7522  0.1536
  517THF    H10 8658   1.260   0.464   5.657 -0.5245 -1.9752 -0.5327
  517THF    H11 8659   1.190   0.329   5.582 -0.8916  2.3821  0.7742
  517THF    H12 8660   1.167   0.461   5.377 -1.0999 -3.5219  1.9836
  517THF    H13 8661   1.216   0.598   5.458  0.0117  0.8360 -0.1810
  518THF     O1 8662   2.777   1.617   4.602 -0.8167  0.0656 -0.6467
  518THF     C2 8663   2.857   1.663   4.492 -0.6326  0.0943  0.2234
  518THF     C3 8664   2.809   1.697   4.717 -0.5731  0.7226  0.3855
  518THF     H4 8665   2.793   1.646   4.402  0.9451  0.0345 -3.5053
  518THF     H5 8666   2.936   1.581   4.481  1.6141 -0.7776 -2.5065
  518THF     H6 8667   2.744   1.781   4.740 -1.6074 -0.0331  0.5884
  518THF     H7 8668   2.808   1.646   4.812  1.8260 -0.8427  0.8411
  518THF     C8 8669   2.931   1.769   4.678 -0.0394 -0.1151  0.0308
  518THF     C9 8670   2.903   1.797   4.530 -0.4726 -0.3703  0.0531
  518THF    H10 8671   3.030   1.724   4.696 -1.7189  1.3003  1.6419
  518THF    H11 8672   2.924   1.860   4.739 -1.2850 -0.6253 -1.4041
  518THF    H12 8673   2.831   1.871   4.529 -1.0308  0.9777  0.5957
  518THF    H13 8674   2.992   1.835   4.479 -0.7983  1.7781  1.4503
  519THF     O1 8675   4.995   1.864   4.561  0.2987 -0.0283 -0.4729
  519THF     C2 8676   4.931   1.926   4.457 -0.2442 -0.2423  0.0356
  519THF     C3 8677   4.906   1.859   4.674  0.2219  0.5028 -0.4950
  519THF     H4 8678   4.981   1.916   4.359  2.7055 -0.7935  0.8286
  519THF     H5 8679   4.914   2.029   4.470 -1.6192 -0.6857 -0.8219
  519THF     H6 8680   4.930   1.778   4.746 -0.0458  1.2786 -2.9110
  519THF     H7 8681   4.915   1.953   4.723  0.8897 -2.0684  1.8147
  519THF     C8 8682   4.767   1.849   4.613  0.3192  0.8505 -0.2595
  519THF     C9 8683   4.793   1.855   4.463  0.5054  0.1048 -0.6503
  519THF    H10 8684   4.694   1.920   4.650  0.8913 -0.2605 -1.2996
  519THF    H11 8685   4.740   1.751   4.637  1.5644  3.7638  2.8209
  519THF    H12 8686   4.797   1.755   4.420 -1.1828 -1.1042  1.7883
  519THF    H13 8687   4.720   1.900   4.396 -2.6600  0.7177 -0.1751
  520THF     O1 8688   3.651   4.785   0.664 -0.0051  0.0782  0.8346
  520THF     C2 8689   3.535   4.865   0.692 -0.4550  0.2421 -0.1641
  520THF     C3 8690   3.720   4.832   0.552 -0.5550 -0.2954 -0.1640
  520THF     H4 8691   3.506   4.854   0.796  2.5548 -0.4212  1.5966
  520THF     H5 8692   3.464   4.829   0.621 -1.4023 -0.4470  0.4323
  520THF     H6 8693   3.824   4.812   0.543 -2.7193  0.9486  0.5712
  520THF     H7 8694   3.685   4.774   0.467 -1.5233  0.7707  0.1181
  520THF     C8 8695   3.685   4.978   0.544  0.1272 -0.5827 -0.6057
  520THF     C9 8696   3.585   5.003   0.657  0.6713 -0.5474 -0.4183
  520THF    H10 8697   3.643   4.992   0.449 -1.9002  1.9477  1.2586
  520THF    H11 8698   3.770   5.043   0.540 -2.4195  1.1307  0.5395
  520THF    H12 8699   3.642   5.046   0.741  0.7416 -0.7534  1.1478
  520THF    H13 8700   3.503   5.075   0.630  1.5645  0.1178  0.5839
  521THF     O1 8701   2.719   0.529   4.478  0.0052 -0.1924  0.5186
  521THF     C2 8702   2.651   0.578   4.591 -0.0960  0.6094  0.1557
  521THF     C3 8703   2.800   0.630   4.413  0.2117 -0.1783  0.3042
  521THF     H4 8704   2.698   0.564   4.689 -1.8975  1.5807 -0.2361
  521THF     H5 8705   2.547   0.537   4.602  0.8954  0.9910  1.5599
  521THF     H6 8706   2.898   0.641   4.455 -2.5135 -1.9114  0.5040
  521THF     H7 8707   2.805   0.620   4.307  2.1959  2.1546 -0.1407
  521THF     C8 8708   2.718   0.756   4.450  1.0235 -0.1809 -0.2460
  521THF     C9 8709   2.634   0.725   4.568 -0.0694 -0.6302 -0.6130
  521THF    H10 8710   2.651   0.779   4.363 -1.5567 -2.2485  0.6509
  521THF    H11 8711   2.787   0.829   4.471  1.8814 -1.1769 -0.1857
  521THF    H12 8712   2.673   0.782   4.653 -1.7844 -0.6580  0.6814
  521THF    H13 8713   2.534   0.751   4.547  1.6898 -0.6919  1.8565
  522THF     O1 8714   1.375   2.122   0.579  0.1468 -0.3653  0.5303
  522THF     C2 8715   1.507   2.176   0.559 -0.8256  0.1401  0.6316
  522THF     C3 8716   1.388   2.041   0.688 -0.0987 -0.6473 -0.6219
  522THF     H4 8717   1.493   2.278   0.524 -0.6098  1.5239 -1.8525
  522THF     H5 8718   1.569   2.127   0.476  1.4086 -1.4678  1.9478
  522THF     H6 8719   1.297   2.012   0.727  0.8525 -2.5880  2.1480
  522THF     H7 8720   1.437   1.945   0.650  0.4190 -0.6390  1.3692
  522THF     C8 8721   1.492   2.096   0.786 -0.1670 -0.5477 -0.5741
  522THF     C9 8722   1.584   2.170   0.695 -0.4874  0.0174 -0.4672
  522THF    H10 8723   1.547   2.032   0.851  0.6233 -0.2866 -2.4385
  522THF    H11 8724   1.462   2.173   0.853  2.6904 -1.5759  2.5878
  522THF    H12 8725   1.603   2.268   0.726 -1.2090  0.8641 -0.4033
  522THF    H13 8726   1.688   2.126   0.679  0.3169  0.7483 -2.4695
  523THF     O1 8727   2.325   0.682   5.109  0.3027 -0.2454  0.2291
  523THF     C2 8728   2.394   0.556   5.132  0.6812  0.5192 -0.1472
  523THF     C3 8729   2.238   0.660   4.994 -0.1685  0.0385 -0.1118
  523THF     H4 8730   2.332   0.498   5.205 -1.7045  1.4245  2.8030
  523THF     H5 8731   2.490   0.585   5.175 -0.2202  0.6025  2.7236
  523THF     H6 8732   2.159   0.586   5.010 -1.6309 -0.0943  1.9747
  523THF     H7 8733   2.206   0.747   4.945  2.1416  0.0469  1.6028
  523THF     C8 8734   2.346   0.596   4.905  0.3796 -0.2539  0.7709
  523THF     C9 8735   2.411   0.493   4.997  0.7894 -0.1574 -0.3750
  523THF    H10 8736   2.414   0.678   4.885 -1.2918 -1.0936 -2.5993
  523THF    H11 8737   2.330   0.551   4.801  2.9547  0.9441  0.3597
  523THF    H12 8738   2.372   0.394   4.993 -0.1106  0.4464 -1.3724
  523THF    H13 8739   2.518   0.476   4.979  1.0550  2.2201  1.5282
  524THF     O1 8740   0.258   5.488   1.754  0.8371  0.3511 -0.2589
  524THF     C2 8741   0.201   5.600   1.821  0.3784 -0.2138 -0.4078
  524THF     C3 8742   0.347   5.533   1.657 -0.1456  0.1053 -0.0657
  524THF     H4 8743   0.156   5.568   1.917 -1.6853 -2.5732  0.0898
  524THF     H5 8744   0.123   5.650   1.773  2.0304 -1.6781 -1.3288
  524THF     H6 8745   0.417   5.451   1.633  0.0128 -0.9006  0.2114
  524THF     H7 8746   0.294   5.561   1.570 -1.6498  1.5647  1.2033
  524THF     C8 8747   0.406   5.664   1.714  0.4149 -0.6776 -0.1480
  524THF     C9 8748   0.322   5.692   1.839  0.5905  0.3663 -0.7092
  524THF    H10 8749   0.415   5.740   1.633  4.0284  3.3700 -0.6091
  524THF    H11 8750   0.510   5.652   1.746  0.5981  1.5282  2.2442
  524THF    H12 8751   0.375   5.675   1.934 -1.4898 -1.1242 -1.5902
  524THF    H13 8752   0.291   5.789   1.844  2.8081 -0.5334 -2.1570
  525THF     O1 8753   4.469   0.626   0.069  0.0299 -0.9840 -0.3278
  525THF     C2 8754   4.326   0.644   0.086  0.2400 -0.3555  0.0480
  525THF     C3 8755   4.522   0.755   0.036 -0.8564 -0.5472 -0.9920
  525THF     H4 8756   4.301   0.562   0.154 -0.5862 -2.9301 -0.5792
  525THF     H5 8757   4.286   0.644  -0.012 -1.0721  2.1075  0.2336
  525THF     H6 8758   4.632   0.745   0.058 -1.9419 -0.5751  0.9681
  525THF     H7 8759   4.515   0.787  -0.065 -0.7698 -0.7265  1.5868
  525THF     C8 8760   4.448   0.848   0.135 -0.2764 -0.0331 -0.5422
  525THF     C9 8761   4.322   0.774   0.164 -0.8959  0.8649 -0.1700
  525THF    H10 8762   4.429   0.948   0.082 -2.2971  1.0236 -0.4598
  525THF    H11 8763   4.499   0.868   0.228 -2.2048  0.8030  2.0424
  525THF    H12 8764   4.321   0.761   0.273 -1.3052  1.8482 -2.5960
  525THF    H13 8765   4.241   0.836   0.136  1.4660 -1.5685  0.0925
  526THF     O1 8766   1.690   1.418   0.337  0.1358  0.0076  0.2626
  526THF     C2 8767   1.692   1.544   0.265  0.7260 -0.3466  0.2072
  526THF     C3 8768   1.671   1.325   0.238  0.5952  0.6452  0.3769
  526THF     H4 8769   1.737   1.627   0.311 -0.4693  0.2491 -1.1697
  526THF     H5 8770   1.587   1.570   0.248 -1.5874 -4.1374  1.0170
  526THF     H6 8771   1.702   1.224   0.270  0.0438  0.7454 -1.2678
  526THF     H7 8772   1.568   1.313   0.212  1.8327  0.2259 -2.3164
  526THF     C8 8773   1.756   1.362   0.115  0.2639 -0.0463 -0.1512
  526THF     C9 8774   1.767   1.515   0.130  0.8838 -0.4632  0.2880
  526THF    H10 8775   1.719   1.327   0.016  0.3839  2.1027 -2.2387
  526THF    H11 8776   1.854   1.323   0.130 -2.4180 -0.1352 -1.4559
  526THF    H12 8777   1.868   1.554   0.141  0.8697  1.3651  2.2323
  526THF    H13 8778   1.711   1.562   0.043  0.0061  0.0482 -2.2084
  527THF     O1 8779   3.670   5.430   2.080  0.3290 -0.2739  0.1536
  527THF     C2 8780   3.655   5.350   2.193 -0.1281 -1.2232 -0.4656
  527THF     C3 8781   3.536   5.487   2.060  0.3897 -0.2255 -1.4945
  527THF     H4 8782   3.751   5.323   2.239 -0.8697  0.0457 -0.6522
  527THF     H5 8783   3.611   5.264   2.156  0.2741  2.1800 -1.6812
  527THF     H6 8784   3.547   5.571   1.995  2.1390  1.0425  2.8685
  527THF     H7 8785   3.473   5.414   2.016  3.1686 -0.6233 -1.1682
  527THF     C8 8786   3.489   5.521   2.207 -0.5000  0.6181  0.5339
  527THF     C9 8787   3.576   5.431   2.289 -0.2528 -0.1713  0.2700
  527THF    H10 8788   3.380   5.501   2.213  0.4427 -1.8297 -0.2983
  527THF    H11 8789   3.502   5.625   2.231  3.2003 -1.6306 -0.3506
  527THF    H12 8790   3.643   5.500   2.343 -2.7665  1.0328 -2.5131
  527THF    H13 8791   3.524   5.385   2.374  1.1257  0.0370 -0.5021
  528THF     O1 8792   4.254   2.604   0.122  0.1250 -0.3665  0.5783
  528THF     C2 8793   4.122   2.575   0.160  0.7010  0.4668 -0.7360
  528THF     C3 8794   4.301   2.519   0.017  0.1026  0.6105 -0.4514
  528THF     H4 8795   4.056   2.660   0.169 -0.2025  1.1199 -1.7620
  528THF     H5 8796   4.113   2.520   0.255  0.9531  1.6646 -1.4158
  528THF     H6 8797   4.379   2.561  -0.045  0.2556  1.1217  1.2679
  528THF     H7 8798   4.335   2.425   0.052 -3.4782  1.2114  2.3065
  528THF     C8 8799   4.175   2.492  -0.056 -0.1214  0.5391 -0.1478
  528THF     C9 8800   4.071   2.480   0.052 -0.5125  0.5162  0.5724
  528THF    H10 8801   4.182   2.407  -0.122 -1.5680  2.1360  0.4331
  528THF    H11 8802   4.161   2.584  -0.121 -1.4828  1.4602  1.9561
  528THF    H12 8803   3.972   2.499   0.017 -0.6198  2.7852 -1.1598
  528THF    H13 8804   4.085   2.383   0.097  1.6597  0.9956  0.2713
  529THF     O1 8805   3.882   0.209   0.785 -0.1893 -0.5103 -0.0605
  529THF     C2 8806   3.972   0.226   0.896  0.4018  0.3240  0.2706
  529THF     C3 8807   3.780   0.303   0.801  0.1685 -0.0693 -0.0814
  529THF     H4 8808   4.067   0.178   0.877 -0.4687  0.8488  0.2878
  529THF     H5 8809   3.934   0.160   0.974  0.5347 -0.2568 -0.3721
  529THF     H6 8810   3.748   0.339   0.700  0.2743 -2.0500  1.8186
  529THF     H7 8811   3.698   0.254   0.859  1.4364  0.8580 -0.3128
  529THF     C8 8812   3.835   0.416   0.888 -0.1735  0.8007  0.7783
  529THF     C9 8813   3.972   0.372   0.929 -0.4934 -0.1306  0.0233
  529THF    H10 8814   3.759   0.418   0.969 -0.8633  2.2456 -1.0962
  529THF    H11 8815   3.839   0.505   0.835  0.9293 -3.0996  3.1259
  529THF    H12 8816   4.055   0.434   0.890 -0.1056  1.8046  3.7869
  529THF    H13 8817   3.969   0.394   1.034  4.0475  1.0914  0.7235
  530THF     O1 8818   1.042   4.720   3.891  0.1824  0.0323 -0.5607
  530THF     C2 8819   1.150   4.663   3.960  0.3186  0.4411 -0.4102
  530THF     C3 8820   1.087   4.762   3.761  0.0681 -0.1133 -0.4407
  530THF     H4 8821   1.113   4.602   4.041  0.7514 -1.6228  1.1778
  530THF     H5 8822   1.218   4.734   4.007  1.0863  2.1909  2.5868
  530THF     H6 8823   0.997   4.787   3.706 -1.6542 -0.9451 -0.2578
  530THF     H7 8824   1.145   4.846   3.776  1.7096 -3.1959  0.7046
  530THF     C8 8825   1.174   4.644   3.714 -0.1491 -0.9263 -0.1143
  530THF     C9 8826   1.216   4.582   3.848  0.1305 -0.2701 -0.9225
  530THF    H10 8827   1.258   4.679   3.654  1.3536 -0.2587  1.3165
  530THF    H11 8828   1.105   4.581   3.662  1.1611 -1.8053  0.4403
  530THF    H12 8829   1.183   4.485   3.851 -1.2591  2.2740  0.6771
  530THF    H13 8830   1.323   4.591   3.858  1.1448  1.1212  1.1569
  531THF     O1 8831   2.339   3.364   2.963 -0.0596  0.1353 -0.3576
  531THF     C2 8832   2.221   3.397   2.893 -0.0512 -0.1481 -0.0962
  531THF     C3 8833   2.442   3.334   2.873 -0.4999 -0.6875 -0.5803
  531THF     H4 8834   2.181   3.487   2.940 -0.7157  1.9529  1.5894
  531THF     H5 8835   2.152   3.317   2.903 -0.7269 -2.6488 -0.4932
  531THF     H6 8836   2.508   3.424   2.884 -1.3386 -2.2704 -0.8494
  531THF     H7 8837   2.501   3.243   2.903  0.1424 -1.8529  0.6026
  531THF     C8 8838   2.375   3.333   2.737 -0.6001 -0.3745  0.2368
  531THF     C9 8839   2.260   3.423   2.749 -0.3588 -0.2153 -0.3126
  531THF    H10 8840   2.347   3.234   2.708  2.6128 -0.0892  1.9780
  531THF    H11 8841   2.449   3.367   2.669  0.4580  1.4439 -2.3479
  531THF    H12 8842   2.291   3.525   2.746 -0.7666 -0.4856 -3.2281
  531THF    H13 8843   2.188   3.399   2.675  0.9870 -2.0285 -0.6469
  532THF     O1 8844   3.379   2.584   0.788  0.0083 -0.1952 -0.4115
  532THF     C2 8845   3.440   2.543   0.661 -0.1246 -0.3338  0.0335
  532THF     C3 8846   3.293   2.692   0.757 -0.4142 -0.1326 -0.1326
  532THF     H4 8847   3.374   2.490   0.594  0.2720 -0.3165  0.1505
  532THF     H5 8848   3.529   2.483   0.685 -2.9273 -0.3964  0.3063
  532THF     H6 8849   3.191   2.653   0.735 -1.7341  0.9530  1.5473
  532THF     H7 8850   3.288   2.762   0.839 -0.4434  3.9740 -1.1174
  532THF     C8 8851   3.347   2.754   0.628  0.8045 -0.2570  0.7009
  532THF     C9 8852   3.475   2.678   0.604 -0.0496 -0.3196  0.5249
  532THF    H10 8853   3.352   2.866   0.634  2.7995 -0.5200 -1.0758
  532THF    H11 8854   3.274   2.726   0.544 -1.5535 -0.0295  0.2640
  532THF    H12 8855   3.517   2.676   0.496  0.1166 -0.7286 -0.6802
  532THF    H13 8856   3.553   2.728   0.664  0.4526 -1.1231  0.0193
  533THF     O1 8857   3.383   1.454   1.056 -0.0793 -0.0490 -0.1378
  533THF     C2 8858   3.335   1.583   1.012 -0.0287  0.4603 -0.2998
  533THF     C3 8859   3.331   1.354   0.969  0.0141 -0.2315 -0.2416
  533THF     H4 8860   3.397   1.655   1.060 -1.0649 -0.7711 -0.2233
  533THF     H5 8861   3.236   1.605   1.045  1.2764  0.0354 -0.4346
  533THF     H6 8862   3.385   1.262   0.965 -0.6063  1.5954  0.2233
  533THF     H7 8863   3.223   1.345   0.995  2.0625  0.4788 -1.5836
  533THF     C8 8864   3.364   1.424   0.836  0.5883 -0.1740  0.3518
  533THF     C9 8865   3.348   1.571   0.861  0.6202  0.2135  0.5237
  533THF    H10 8866   3.296   1.385   0.762 -0.6146 -0.6875  1.7277
  533THF    H11 8867   3.465   1.409   0.803  0.2498  0.1812  0.8580
  533THF    H12 8868   3.439   1.619   0.825  1.4126 -1.9512  0.5105
  533THF    H13 8869   3.257   1.614   0.824 -0.0555 -2.4817  0.8515
  534THF     O1 8870   5.358   1.775   0.509 -0.0298 -0.1550  0.5582
  534THF     C2 8871   5.354   1.648   0.566 -0.4637 -0.3384 -0.0069
  534THF     C3 8872   5.452   1.790   0.407  0.1612 -0.0562  0.4513
  534THF     H4 8873   5.248   1.618   0.568  0.2593 -0.8036 -0.6527
  534THF     H5 8874   5.409   1.647   0.661  2.0483 -1.7209 -0.2904
  534THF     H6 8875   5.407   1.799   0.310  1.3909 -2.9384  1.2023
  534THF     H7 8876   5.520   1.869   0.440 -0.1400 -1.0320 -0.1012
  534THF     C8 8877   5.530   1.660   0.410 -0.0867 -0.1364 -0.9947
  534THF     C9 8878   5.428   1.566   0.465  0.3029  0.6430 -0.1534
  534THF    H10 8879   5.619   1.668   0.480  1.4568  1.5976  0.8119
  534THF    H11 8880   5.581   1.624   0.314  0.8579 -0.4729 -2.5534
  534THF    H12 8881   5.354   1.535   0.390  0.5371  1.7236 -0.6296
  534THF    H13 8882   5.483   1.485   0.513 -1.5223  0.1188 -1.5109
  535THF     O1 8883   3.430   0.188   4.036  0.4159 -0.1233 -0.2653
  535THF     C2 8884   3.314   0.216   4.107 -0.0058  0.9283 -0.5662
  535THF     C3 8885   3.416   0.055   3.987  0.4171 -0.1782 -0.0890
  535THF     H4 8886   3.311   0.320   4.142  1.7477  1.8016 -1.4717
  535THF     H5 8887   3.307   0.147   4.190  0.0281  0.2728 -1.9250
  535THF     H6 8888   3.493   0.035   3.912 -1.6928  3.3016  1.3132
  535THF     H7 8889   3.438  -0.007   4.069  1.6519  2.8746 -2.0233
  535THF     C8 8890   3.266   0.048   3.946 -0.1735 -0.4873  0.1968
  535THF     C9 8891   3.198   0.174   4.006 -0.6020  0.3417  0.4154
  535THF    H10 8892   3.208  -0.032   3.989 -0.7547  2.8646  0.3129
  535THF    H11 8893   3.243   0.054   3.844 -1.1962  0.5733  2.6940
  535THF    H12 8894   3.179   0.250   3.930 -1.5246  2.0578  0.8159
  535THF    H13 8895   3.101   0.156   4.044 -0.3009  0.9782  1.1604
  536THF     O1 8896   5.125   4.105   3.617 -0.4072  0.2885  0.2434
  536THF     C2 8897   5.019   4.152   3.537 -0.1671 -0.6503  0.1152
  536THF     C3 8898   5.176   3.986   3.553 -0.1928  0.1221  0.0203
  536THF     H4 8899   5.052   4.192   3.445  0.1996 -1.2611  2.1597
  536THF     H5 8900   4.962   4.233   3.582 -3.1870  0.1279 -0.1469
  536THF     H6 8901   5.227   4.018   3.461 -1.8084 -0.4412  2.7089
  536THF     H7 8902   5.238   3.916   3.609 -1.0858  1.0220  1.0693
  536THF     C8 8903   5.043   3.915   3.524  0.0078 -0.4577 -0.1333
  536THF     C9 8904   4.940   4.024   3.516 -0.7347  0.1940 -0.4488
  536THF    H10 8905   5.025   3.846   3.608 -2.5147 -0.2547 -1.4563
  536THF    H11 8906   5.050   3.861   3.430  0.7665 -1.0247 -2.2255
  536THF    H12 8907   4.890   4.017   3.419 -0.6648  2.1836  0.7417
  536THF    H13 8908   4.865   4.014   3.597  0.0058 -0.1719  1.1599
  537THF     O1 8909   3.616   2.477   2.870  0.2748 -0.8786  0.4860
  537THF     C2 8910   3.492   2.417   2.843  0.2265 -0.0345  0.3094
  537THF     C3 8911   3.707   2.380   2.922  0.0475  0.4361 -0.0722
  537THF     H4 8912   3.433   2.489   2.782  1.5075  0.5448 -1.1591
  537THF     H5 8913   3.455   2.403   2.941  0.6268 -0.2520  1.5188
  537THF     H6 8914   3.811   2.413   2.911  0.7522  0.5190  0.4907
  537THF     H7 8915   3.690   2.364   3.030 -0.5190 -2.3039  0.8778
  537THF     C8 8916   3.679   2.257   2.836  0.3867 -0.2227  0.2547
  537THF     C9 8917   3.542   2.293   2.766 -0.3501 -0.6383 -0.1986
  537THF    H10 8918   3.674   2.172   2.899 -0.1153  0.0981 -0.4220
  537THF    H11 8919   3.760   2.246   2.755 -0.6653  0.4977 -2.0012
  537THF    H12 8920   3.549   2.313   2.659 -0.0064 -1.2929 -3.4351
  537THF    H13 8921   3.461   2.216   2.771 -0.2173 -0.3926 -0.9634
  538THF     O1 8922   5.375   0.813   3.115  0.2685  0.5010 -0.0633
  538THF     C2 8923   5.433   0.931   3.167 -0.2140  0.5788  0.1824
  538THF     C3 8924   5.450   0.705   3.169 -0.7582  0.1435  0.3377
  538THF     H4 8925   5.393   1.024   3.133  0.0085  3.2075  0.9760
  538THF     H5 8926   5.535   0.944   3.133 -0.3332 -0.8241 -1.5563
  538THF     H6 8927   5.402   0.606   3.168 -1.7116 -2.5679  0.1329
  538THF     H7 8928   5.557   0.690   3.129  2.2635  0.7737 -1.5330
  538THF     C8 8929   5.455   0.749   3.319  0.0837 -0.2156  1.2306
  538THF     C9 8930   5.446   0.902   3.315 -0.0458 -0.5885 -0.0583
  538THF    H10 8931   5.534   0.700   3.384  1.6289 -0.6593  0.0429
  538THF    H11 8932   5.361   0.716   3.356  0.0217  1.8436  0.9369
  538THF    H12 8933   5.363   0.942   3.370  3.3299  0.6660 -3.7430
  538THF    H13 8934   5.537   0.949   3.348 -0.5245 -0.4608 -1.0565
  539THF     O1 8935   1.698   0.170   4.904  0.2031  0.2575 -0.2082
  539THF     C2 8936   1.644   0.193   5.032 -0.3781  0.3579  0.2420
  539THF     C3 8937   1.683   0.031   4.879 -0.3967  0.4397 -0.0207
  539THF     H4 8938   1.542   0.208   5.022 -0.4849  1.1168 -1.2106
  539THF     H5 8939   1.687   0.279   5.084  0.7482 -0.8692 -1.9640
  539THF     H6 8940   1.594   0.005   4.815 -3.7421 -0.2033  1.4201
  539THF     H7 8941   1.771   0.012   4.819  1.4858 -0.1905  2.2121
  539THF     C8 8942   1.694  -0.042   5.014  0.3487 -0.2528 -0.1513
  539THF     C9 8943   1.671   0.065   5.118 -0.1016 -1.0890 -0.1748
  539THF    H10 8944   1.803  -0.079   5.032  0.4959 -0.3836  1.2438
  539THF    H11 8945   1.621  -0.125   5.012 -0.1806 -1.6532 -1.0635
  539THF    H12 8946   1.577   0.031   5.166 -2.0240  0.5878  0.9891
  539THF    H13 8947   1.750   0.072   5.191 -1.4989 -0.6008 -1.7333
  540THF     O1 8948   2.291   4.205   4.553 -0.0574 -0.6602  0.0805
  540THF     C2 8949   2.206   4.093   4.572 -0.5857  0.1062 -0.5934
  540THF     C3 8950   2.364   4.225   4.672  0.0249  0.9227  1.0824
  540THF     H4 8951   2.194   4.033   4.479 -1.3039 -0.1324 -1.7856
  540THF     H5 8952   2.107   4.139   4.596  0.9681  3.9726  0.3920
  540THF     H6 8953   2.467   4.189   4.660 -0.0899 -2.9607 -0.7448
  540THF     H7 8954   2.367   4.325   4.710  0.8331  1.4470  0.0796
  540THF     C8 8955   2.293   4.135   4.773  0.4144 -0.0779 -1.1396
  540THF     C9 8956   2.257   4.014   4.693 -0.5428 -1.2092 -0.1333
  540THF    H10 8957   2.195   4.166   4.812  0.0272  0.8175  1.2589
  540THF    H11 8958   2.359   4.112   4.856  0.6996  2.8239 -3.0696
  540THF    H12 8959   2.348   3.958   4.678  0.0809 -0.5789 -0.2823
  540THF    H13 8960   2.174   3.950   4.725 -1.1436 -0.4957 -2.4638
  541THF     O1 8961   0.522   1.339   3.351 -0.4828 -0.0516 -0.3259
  541THF     C2 8962   0.588   1.225   3.394 -0.8388  0.8494 -0.4568
  541THF     C3 8963   0.386   1.326   3.388  0.2731  0.1103 -0.1639
  541THF     H4 8964   0.603   1.232   3.493 -2.3732 -1.5044 -0.0831
  541THF     H5 8965   0.685   1.221   3.346 -0.8741  0.7434  1.2315
  541THF     H6 8966   0.379   1.368   3.485  0.1780  1.4452  0.0831
  541THF     H7 8967   0.306   1.383   3.330 -3.8358  0.0704 -3.6828
  541THF     C8 8968   0.356   1.174   3.372  0.6181  0.0507  0.6496
  541THF     C9 8969   0.498   1.114   3.351 -0.8824  0.0291  0.1220
  541THF    H10 8970   0.301   1.155   3.282  4.0083 -0.9683 -0.8424
  541THF    H11 8971   0.295   1.127   3.450 -2.4726 -1.6239  0.0543
  541THF    H12 8972   0.501   1.020   3.408 -1.7261  0.6929 -1.1288
  541THF    H13 8973   0.505   1.105   3.242  0.5011  0.7299 -0.3191
  542THF     O1 8974   2.342   4.194   2.983 -0.0170  0.2764 -0.0406
  542THF     C2 8975   2.282   4.168   2.863  0.0334  0.1954  1.0560
  542THF     C3 8976   2.237   4.208   3.077  0.2428  0.6023 -0.9488
  542THF     H4 8977   2.358   4.132   2.795 -1.2375 -1.1451 -0.9449
  542THF     H5 8978   2.243   4.261   2.821  1.9046 -1.6026 -1.2916
  542THF     H6 8979   2.266   4.203   3.177 -0.5145 -2.1789 -1.1371
  542THF     H7 8980   2.190   4.306   3.064  1.0378 -0.5852  1.1073
  542THF     C8 8981   2.135   4.106   3.036  0.1844  0.4220  0.7353
  542THF     C9 8982   2.183   4.063   2.894 -0.0903 -0.3062  0.4218
  542THF    H10 8983   2.035   4.146   3.035  2.0263  0.0985 -1.4971
  542THF    H11 8984   2.141   4.014   3.100  1.2220 -2.2176 -0.5333
  542THF    H12 8985   2.216   3.962   2.893  0.2962 -2.8963 -0.1777
  542THF    H13 8986   2.100   4.078   2.826 -0.1573 -1.4587  0.4815
  543THF     O1 8987   4.802   3.184   3.362 -0.5763 -0.6243  0.8319
  543THF     C2 8988   4.843   3.281   3.265 -0.0634  0.7616  1.4232
  543THF     C3 8989   4.710   3.099   3.293 -0.0909  0.2342  0.0511
  543THF     H4 8990   4.913   3.232   3.184 -0.3700  0.9716 -3.4939
  543THF     H5 8991   4.901   3.360   3.306  0.0388  1.2229  3.0773
  543THF     H6 8992   4.756   3.029   3.221 -3.8145  0.6202  1.4171
  543THF     H7 8993   4.660   3.043   3.369 -0.2056 -1.4466  2.1747
  543THF     C8 8994   4.626   3.207   3.232  0.5773  0.0109 -0.1533
  543THF     C9 8995   4.707   3.334   3.205 -0.6310  0.1395  0.6455
  543THF    H10 8996   4.537   3.223   3.296 -0.2774  0.9321  0.9322
  543THF    H11 8997   4.599   3.164   3.137  0.3150  1.6828  0.0590
  543THF    H12 8998   4.704   3.362   3.101 -0.8668  0.0407 -0.1132
  543THF    H13 8999   4.660   3.412   3.263 -0.6856 -0.4885  2.9602
  544THF     O1 9000   2.650   2.751   5.088 -0.3338 -0.1461  0.3678
  544THF     C2 9001   2.558   2.695   4.995 -0.0051  0.1552  0.2364
  544THF     C3 9002   2.567   2.835   5.165  0.2249  0.1636  0.2066
  544THF     H4 9003   2.490   2.625   5.036 -1.1756 -1.8191 -0.4254
  544THF     H5 9004   2.610   2.643   4.921 -0.8303 -0.1886  1.5193
  544THF     H6 9005   2.506   2.761   5.217 -1.1068 -2.3983  0.2798
  544THF     H7 9006   2.608   2.907   5.239 -0.6049  2.2123 -0.8717
  544THF     C8 9007   2.506   2.916   5.058 -0.4644 -0.2062 -0.1171
  544THF     C9 9008   2.483   2.815   4.946 -0.5489 -0.6058  0.2140
  544THF    H10 9009   2.563   2.994   5.019 -3.1529  0.3881  1.6200
  544THF    H11 9010   2.417   2.972   5.078  1.6441  0.7756  0.7584
  544THF    H12 9011   2.384   2.780   4.924  0.8026  0.4089  0.7684
  544THF    H13 9012   2.515   2.851   4.849  0.8921 -0.5955 -1.4516
  545THF     O1 9013   5.278   2.300   2.947 -0.3146  0.0138 -0.3045
  545THF     C2 9014   5.259   2.385   2.833  0.4538  0.4500 -0.2131
  545THF     C3 9015   5.227   2.375   3.053 -0.0619 -0.6940  0.4409
  545THF     H4 9016   5.262   2.336   2.731  1.9032  0.7249 -0.5765
  545THF     H5 9017   5.341   2.465   2.836 -3.6184 -0.1938 -1.0443
  545THF     H6 9018   5.225   2.314   3.142 -1.3646  2.4188 -0.0724
  545THF     H7 9019   5.293   2.461   3.068 -0.5662  1.1863 -2.7184
  545THF     C8 9020   5.089   2.407   2.998 -0.4947  0.1057  0.7029
  545THF     C9 9021   5.116   2.438   2.851 -0.1359 -0.5056  0.2688
  545THF    H10 9022   5.037   2.490   3.050 -0.0767  0.5278  2.0870
  545THF    H11 9023   5.026   2.323   2.998  1.6713  1.6091  1.9629
  545THF    H12 9024   5.047   2.375   2.795 -2.3694  0.0943  0.4516
  545THF    H13 9025   5.109   2.544   2.829 -0.5459 -0.6640  0.4885
  546THF     O1 9026   3.226   1.087   5.140 -0.9741  0.3238  0.1091
  546THF     C2 9027   3.270   1.012   5.026  0.3662 -0.6395  0.3237
  546THF     C3 9028   3.172   1.209   5.094  0.6503 -0.1387  0.0417
  546THF     H4 9029   3.187   0.953   4.984 -2.0812 -0.4097 -0.9588
  546THF     H5 9030   3.343   0.937   5.076 -1.1587  0.8417  2.4819
  546THF     H6 9031   3.063   1.210   5.093  2.6301 -0.9460  3.0900
  546THF     H7 9032   3.184   1.287   5.163  2.7031 -0.9813 -0.6688
  546THF     C8 9033   3.238   1.246   4.960 -0.6659  0.4880  0.5970
  546THF     C9 9034   3.323   1.123   4.928 -0.5208  0.4873 -0.1092
  546THF    H10 9035   3.305   1.329   4.971  1.5425  1.1193  0.2647
  546THF    H11 9036   3.156   1.278   4.899  2.8499 -3.2790  1.1665
  546THF    H12 9037   3.318   1.086   4.822 -0.9461  0.9482 -0.9390
  546THF    H13 9038   3.432   1.144   4.935  2.7523  1.2313  1.7971
  547THF     O1 9039   0.321   0.971   0.754  0.0366 -0.1244 -0.2660
  547THF     C2 9040   0.307   0.905   0.627 -0.0777 -0.0085 -0.3005
  547THF     C3 9041   0.301   1.113   0.726  0.3669  0.4225 -0.4511
  547THF     H4 9042   0.305   0.794   0.633  0.0660 -1.1663  2.4812
  547THF     H5 9043   0.388   0.928   0.562 -0.4281 -1.0709  1.2733
  547THF     H6 9044   0.276   1.180   0.813  0.4687 -1.0900 -1.6403
  547THF     H7 9045   0.390   1.148   0.666  1.4995 -0.5018 -2.3035
  547THF     C8 9046   0.173   1.108   0.638  0.2829 -0.2562 -0.0321
  547THF     C9 9047   0.185   0.974   0.576 -0.4396  0.5459 -0.0385
  547THF    H10 9048   0.182   1.189   0.573  0.2064 -0.1582  2.4465
  547THF    H11 9049   0.074   1.118   0.693 -0.7248 -0.0173  1.4333
  547THF    H12 9050   0.095   0.919   0.612 -2.6110 -3.7725 -0.6599
  547THF    H13 9051   0.161   0.978   0.467  2.3227  0.1721  0.7228
  548THF     O1 9052   2.034   4.989   1.688  0.3478  0.4262  0.0771
  548THF     C2 9053   2.139   5.084   1.671 -0.2343  0.2518 -0.0348
  548THF     C3 9054   2.046   4.888   1.594 -0.3174 -0.4391 -0.4621
  548THF     H4 9055   2.211   5.078   1.760  0.0402  1.2047 -1.6917
  548THF     H5 9056   2.093   5.182   1.657 -0.1572  2.3894 -1.1417
  548THF     H6 9057   2.114   4.819   1.637  1.9468  1.1063 -0.8355
  548THF     H7 9058   1.948   4.837   1.588 -1.3007  0.4925 -0.7270
  548THF     C8 9059   2.109   4.952   1.476 -1.1877  0.1343  0.4149
  548THF     C9 9060   2.207   5.047   1.537  0.3190 -0.1062 -0.2389
  548THF    H10 9061   2.026   4.999   1.420 -0.7803  0.8737  0.9799
  548THF    H11 9062   2.164   4.888   1.413 -1.2727  0.1632  2.7843
  548THF    H12 9063   2.301   5.000   1.555  1.5334 -0.2961  2.1736
  548THF    H13 9064   2.232   5.129   1.473 -0.9755  0.4531  0.0474
  549THF     O1 9065   3.211   2.914   1.911  0.2103 -0.0429 -0.1441
  549THF     C2 9066   3.319   2.995   1.943  0.7864  0.3831  0.3436
  549THF     C3 9067   3.255   2.793   1.847  0.1066 -0.2413 -0.8393
  549THF     H4 9068   3.288   3.075   2.014 -0.8071  0.9978 -0.9651
  549THF     H5 9069   3.356   3.045   1.845  2.2811 -1.8161  0.9910
  549THF     H6 9070   3.178   2.722   1.837 -0.5201 -0.8922 -0.3187
  549THF     H7 9071   3.292   2.823   1.746 -2.9499  0.2420  0.7793
  549THF     C8 9072   3.367   2.757   1.945  0.6895 -0.3626  0.0931
  549THF     C9 9073   3.420   2.893   2.001  0.2795  0.2195  0.1926
  549THF    H10 9074   3.449   2.705   1.884  0.8087 -0.2991  1.1844
  549THF    H11 9075   3.327   2.684   2.013 -1.7486  1.8818 -0.5736
  549THF    H12 9076   3.414   2.900   2.110  1.2325 -0.3237 -1.9234
  549THF    H13 9077   3.517   2.928   1.966  0.8748  2.2842  0.7290
  550THF     O1 9078   5.428   4.396   0.518  0.0062  0.1395 -0.1025
  550THF     C2 9079   5.533   4.455   0.596  0.3512  0.2387 -0.3784
  550THF     C3 9080   5.330   4.492   0.488 -0.2575 -0.4440  0.9534
  550THF     H4 9081   5.623   4.386   0.594  0.1436 -2.1286 -1.7575
  550THF     H5 9082   5.508   4.466   0.704  0.6570 -1.1317 -1.9492
  550THF     H6 9083   5.307   4.473   0.377  0.8956 -3.2310 -1.4280
  550THF     H7 9084   5.245   4.487   0.553  2.0897  1.4975 -2.2172
  550THF     C8 9085   5.401   4.628   0.489 -0.5049  0.0102  0.3815
  550THF     C9 9086   5.542   4.595   0.549  0.2786 -0.7676 -0.0566
  550THF    H10 9087   5.350   4.694   0.558 -0.1978 -0.3672 -0.9132
  550THF    H11 9088   5.408   4.677   0.393  3.4902 -0.2963  3.1802
  550THF    H12 9089   5.615   4.604   0.470  1.1430  1.3064  1.3159
  550THF    H13 9090   5.581   4.668   0.624  0.8141  2.9236 -0.2572
  551THF     O1 9091   2.691   0.435   1.543 -0.7506 -0.0987 -0.3228
  551THF     C2 9092   2.608   0.525   1.611  0.0874 -0.2546 -0.7164
  551THF     C3 9093   2.621   0.312   1.522 -0.3054 -0.6186 -0.3256
  551THF     H4 9094   2.606   0.613   1.547  0.5293 -2.1421  2.1769
  551THF     H5 9095   2.652   0.553   1.702 -1.4771 -0.9067  3.1287
  551THF     H6 9096   2.648   0.279   1.428  0.2660  1.3020 -1.6020
  551THF     H7 9097   2.648   0.239   1.602 -0.0787 -1.4976 -3.4188
  551THF     C8 9098   2.475   0.345   1.528  0.0617 -0.3717 -0.0982
  551THF     C9 9099   2.470   0.465   1.626  0.0868  0.1465 -0.0837
  551THF    H10 9100   2.412   0.266   1.556 -0.4579 -0.1569 -0.6674
  551THF    H11 9101   2.445   0.375   1.426 -3.1392 -0.1765 -0.7681
  551THF    H12 9102   2.391   0.542   1.608 -1.3512  0.5131  0.4574
  551THF    H13 9103   2.457   0.429   1.732 -0.2385 -2.1350 -1.8377
  552THF     O1 9104   2.943   2.837   3.513  0.0448  0.1594  0.3205
  552THF     C2 9105   2.965   2.708   3.450  0.0686  0.3601  0.5334
  552THF     C3 9106   2.928   2.929   3.406 -0.1852 -0.2272  0.4271
  552THF     H4 9107   2.905   2.641   3.515  1.0406 -4.5326  1.1420
  552THF     H5 9108   3.061   2.672   3.465 -0.5104  0.8230 -1.2862
  552THF     H6 9109   2.876   3.019   3.429  1.9184 -0.3615  0.7431
  552THF     H7 9110   3.023   2.956   3.366 -0.3103 -0.7083 -0.2460
  552THF     C8 9111   2.836   2.851   3.307  1.1178 -0.6675 -0.7076
  552THF     C9 9112   2.914   2.724   3.306 -0.5897  0.3029 -0.0300
  552THF    H10 9113   2.830   2.904   3.213 -1.4700 -1.7576  0.9672
  552THF    H11 9114   2.737   2.852   3.352  0.7593 -3.5107  0.7360
  552THF    H12 9115   2.862   2.630   3.274  2.8141  0.0801 -0.3857
  552THF    H13 9116   2.996   2.716   3.228  2.6430  0.9683 -0.7828
  553THF     O1 9117   1.436   3.553   3.015  0.0122  0.1711 -0.3280
  553THF     C2 9118   1.416   3.511   2.880 -0.3532  0.4347 -0.3627
  553THF     C3 9119   1.404   3.448   3.099 -0.3016 -0.0429 -0.9147
  553THF     H4 9120   1.495   3.453   2.843 -0.9450  1.2357 -3.1653
  553THF     H5 9121   1.405   3.596   2.810 -2.3467  1.4561 -0.5152
  553THF     H6 9122   1.499   3.391   3.109  4.7254 -0.6773  0.8545
  553THF     H7 9123   1.371   3.479   3.197 -2.2460 -0.0880 -0.7484
  553THF     C8 9124   1.303   3.364   3.023  0.8025  0.3318 -0.5368
  553THF     C9 9125   1.291   3.429   2.889  0.6103 -0.6221  0.7113
  553THF    H10 9126   1.203   3.360   3.062 -0.4435 -0.9817  3.1487
  553THF    H11 9127   1.337   3.259   3.017 -1.2289 -0.8862 -2.7520
  553THF    H12 9128   1.289   3.375   2.798  1.1120 -2.0450  0.4512
  553THF    H13 9129   1.205   3.492   2.888  1.6886 -1.1778  0.7227
  554THF     O1 9130   1.583   5.230   4.816 -0.3318 -0.0579  0.2041
  554THF     C2 9131   1.482   5.140   4.833 -0.1243  0.2975  0.1950
  554THF     C3 9132   1.653   5.214   4.691  0.2815 -0.8273 -0.2586
  554THF     H4 9133   1.414   5.186   4.911 -0.3206  0.6556  2.3562
  554THF     H5 9134   1.508   5.040   4.866  1.4833  1.8939 -1.5656
  554THF     H6 9135   1.710   5.304   4.678  0.5545 -3.0338 -1.7714
  554THF     H7 9136   1.712   5.121   4.695 -1.2113 -1.3855  0.5908
  554THF     C8 9137   1.535   5.192   4.598 -0.4684 -0.1680  0.1149
  554THF     C9 9138   1.424   5.131   4.685  0.0461 -0.2159 -0.1666
  554THF    H10 9139   1.569   5.133   4.513  3.3054  1.0377 -1.6699
  554THF    H11 9140   1.505   5.296   4.566 -0.9885  0.5575 -1.0123
  554THF    H12 9141   1.335   5.198   4.671 -3.1746 -1.1076  0.8423
  554THF    H13 9142   1.388   5.034   4.668  0.4256 -1.5600 -0.0112
  555THF     O1 9143   2.402   1.917   2.393  0.7907  0.6779 -0.0829
  555THF     C2 9144   2.489   1.893   2.501 -0.5095  0.3345 -0.4521
  555THF     C3 9145   2.460   1.835   2.286 -0.3879 -0.0048  0.3570
  555THF     H4 9146   2.437   1.918   2.591 -0.3736  1.0744  1.6089
  555THF     H5 9147   2.583   1.941   2.487  0.8361  2.0464 -6.7555
  555THF     H6 9148   2.399   1.825   2.197 -0.1017 -0.1773  2.5821
  555THF     H7 9149   2.551   1.891   2.242  1.8567  0.2000 -1.8990
  555THF     C8 9150   2.503   1.704   2.360  0.3478  0.8448 -0.3927
  555THF     C9 9151   2.516   1.746   2.500  0.0552 -0.5577  0.7381
  555THF    H10 9152   2.598   1.674   2.313  0.5143 -0.0086  1.3153
  555THF    H11 9153   2.428   1.624   2.349 -0.8958  0.6247  1.4465
  555THF    H12 9154   2.446   1.696   2.558  0.3576  0.3973 -1.6111
  555THF    H13 9155   2.606   1.722   2.541 -0.5655  2.5875 -1.9459
  556THF     O1 9156   3.729   3.954   5.304  0.5398  0.3569  0.7026
  556THF     C2 9157   3.850   3.964   5.232  0.3497  0.1448  0.8756
  556THF     C3 9158   3.742   3.950   5.443 -0.3986 -0.7910 -0.2527
  556THF     H4 9159   3.857   4.058   5.180  0.8460  1.3754  2.5747
  556THF     H5 9160   3.864   3.882   5.164  0.3068  1.4435  0.9668
  556THF     H6 9161   3.722   4.051   5.487  2.1596  2.4079  0.0129
  556THF     H7 9162   3.662   3.880   5.475  2.4632 -0.2096  1.1472
  556THF     C8 9163   3.880   3.885   5.456 -0.5103 -0.2693  0.3271
  556THF     C9 9164   3.952   3.959   5.336 -0.3662  0.9160 -0.5885
  556THF    H10 9165   3.883   3.781   5.434  0.3339 -2.0729  1.5838
  556THF    H11 9166   3.924   3.915   5.546 -1.4424 -3.5932 -3.0715
  556THF    H12 9167   3.974   4.062   5.352 -0.7735  1.5818 -1.0208
  556THF    H13 9168   4.045   3.912   5.311 -2.8579  1.0355  1.2109
  557THF     O1 9169   1.829   1.053   1.521 -0.5963  0.1118 -0.8871
  557THF     C2 9170   1.714   1.117   1.571  1.2279  0.5789  0.2193
  557THF     C3 9171   1.871   1.097   1.396 -0.4582 -0.2634  0.3083
  557THF     H4 9172   1.736   1.202   1.644 -1.8741  0.1322 -1.3367
  557THF     H5 9173   1.653   1.047   1.621  3.3971  1.0491  2.6497
  557THF     H6 9174   1.937   1.184   1.404  1.0440  1.4491  1.4324
  557THF     H7 9175   1.923   1.025   1.335 -2.2639  0.5135 -1.3131
  557THF     C8 9176   1.736   1.127   1.327 -0.8274 -0.0553 -0.3626
  557THF     C9 9177   1.652   1.178   1.444 -0.0518 -0.1508 -0.0271
  557THF    H10 9178   1.707   1.026   1.288  2.8126  1.4628  1.4337
  557THF    H11 9179   1.733   1.203   1.244  0.2062  0.1915 -1.5298
  557THF    H12 9180   1.657   1.286   1.449  0.9803 -1.6824 -0.2781
  557THF    H13 9181   1.551   1.144   1.428  1.3644  0.4631  1.6671
  558THF     O1 9182   1.324   4.094   5.420  0.3483  0.1815 -0.4621
  558THF     C2 9183   1.295   4.068   5.556 -0.5439 -0.1128 -0.1120
  558THF     C3 9184   1.449   4.164   5.423 -0.2195 -0.3464  0.1364
  558THF     H4 9185   1.362   4.002   5.610 -1.2762  1.2192 -2.2100
  558THF     H5 9186   1.193   4.041   5.559 -1.4085 -0.6753  0.0013
  558THF     H6 9187   1.533   4.099   5.452  2.6000 -2.8925 -1.0446
  558THF     H7 9188   1.468   4.201   5.325 -2.7225 -0.6072  1.2651
  558THF     C8 9189   1.420   4.273   5.531 -0.3960  0.4776 -0.0208
  558THF     C9 9190   1.319   4.207   5.623  0.7977  0.2610 -1.1413
  558THF    H10 9191   1.382   4.368   5.490 -0.5702  2.9513 -0.6446
  558THF    H11 9192   1.515   4.297   5.582 -1.8825 -0.9763 -1.1673
  558THF    H12 9193   1.356   4.193   5.731  0.8969  1.4124  2.8116
  558THF    H13 9194   1.222   4.250   5.640  0.2683  2.9069  0.2754
  559THF     O1 9195   3.288   5.296   3.690 -0.6420 -0.1613 -0.4690
  559THF     C2 9196   3.222   5.190   3.627  0.0613 -0.6633  0.0067
  559THF     C3 9197   3.389   5.340   3.598  0.1592 -0.2820  0.5616
  559THF     H4 9198   3.189   5.225   3.530 -0.1312 -1.7374  0.6187
  559THF     H5 9199   3.142   5.147   3.689  0.5645 -2.1896 -0.2423
  559THF     H6 9200   3.341   5.392   3.508 -0.6621  0.0244 -1.8064
  559THF     H7 9201   3.461   5.419   3.637  1.6657  0.2476  1.4131
  559THF     C8 9202   3.451   5.203   3.553  0.8754 -0.0083  0.8181
  559THF     C9 9203   3.346   5.108   3.598 -0.3796  0.4846 -0.1628
  559THF    H10 9204   3.546   5.184   3.603 -1.9480  0.9183  0.2734
  559THF    H11 9205   3.460   5.191   3.442 -1.2109 -1.6652 -1.2255
  559THF    H12 9206   3.325   5.028   3.526  1.5164 -0.0315  1.2122
  559THF    H13 9207   3.364   5.048   3.688 -4.1105  1.1599 -0.1922
  560THF     O1 9208   1.308   2.063   5.264 -0.2690  0.3739 -0.3958
  560THF     C2 9209   1.292   2.034   5.126  0.2949 -0.5683  0.1896
  560THF     C3 9210   1.391   2.183   5.264  0.2389 -0.5563  0.0561
  560THF     H4 9211   1.236   2.113   5.082 -1.8295  2.0079  3.1593
  560THF     H5 9212   1.245   1.931   5.113  2.5943 -0.0718  0.9925
  560THF     H6 9213   1.337   2.271   5.241 -0.4164 -2.0915  0.6941
  560THF     H7 9214   1.449   2.190   5.357  0.0569  1.6835  1.4093
  560THF     C8 9215   1.492   2.165   5.152 -0.1855  0.1731  0.3041
  560THF     C9 9216   1.444   2.040   5.090  0.1104 -0.7329  0.8828
  560THF    H10 9217   1.590   2.148   5.192 -2.8007 -0.8827  0.6302
  560THF    H11 9218   1.510   2.246   5.086 -3.1284  0.0815 -2.7523
  560THF    H12 9219   1.456   2.026   4.981 -0.8102  1.7519 -0.4834
  560THF    H13 9220   1.497   1.949   5.136 -0.8839 -2.4817 -2.8208
  561THF     O1 9221   5.084   2.405   4.520 -0.0197  0.0600 -0.4552
  561THF     C2 9222   4.977   2.456   4.434 -0.9556  0.1302  0.1902
  561THF     C3 9223   5.025   2.363   4.646 -0.1882 -0.3839  0.4168
  561THF     H4 9224   4.987   2.441   4.324 -1.5998  3.7013  0.4086
  561THF     H5 9225   4.954   2.565   4.437 -0.3757  3.1159  1.3332
  561THF     H6 9226   5.043   2.260   4.657  0.3320  2.5757  1.2100
  561THF     H7 9227   5.069   2.419   4.730  1.6882  0.7352 -0.4069
  561THF     C8 9228   4.872   2.389   4.644 -0.5411  0.2437  0.6508
  561THF     C9 9229   4.853   2.385   4.493 -0.2432  0.1455 -0.0576
  561THF    H10 9230   4.864   2.485   4.690 -1.4811 -2.4072 -0.0966
  561THF    H11 9231   4.815   2.315   4.698 -0.2822 -1.7068 -1.0272
  561THF    H12 9232   4.843   2.287   4.450  0.0964 -0.6211  0.0328
  561THF    H13 9233   4.768   2.447   4.461 -1.7245  0.4697 -1.5311
  562THF     O1 9234   0.948   0.151   4.189  0.0526  0.3887  0.2874
  562THF     C2 9235   0.917   0.115   4.058 -0.0819  0.0319  0.2201
  562THF     C3 9236   1.080   0.103   4.224  0.0306  0.5023  0.2343
  562THF     H4 9237   0.880   0.193   3.988 -2.2189 -1.1559  0.2284
  562THF     H5 9238   0.823   0.055   4.070  1.2948 -4.4787 -0.1721
  562THF     H6 9239   1.164   0.180   4.221 -0.5191  0.9432  2.6441
  562THF     H7 9240   1.075   0.065   4.322 -0.0546  1.8171 -1.3754
  562THF     C8 9241   1.101  -0.022   4.135 -0.0359 -0.0524 -0.1067
  562THF     C9 9242   1.040   0.032   4.005  0.7322 -0.6001  0.6669
  562THF    H10 9243   1.044  -0.106   4.172 -3.1831 -1.6124 -0.9241
  562THF    H11 9244   1.203  -0.065   4.118 -2.0616  0.1851 -1.0034
  562THF    H12 9245   1.115   0.099   3.952  0.6613 -1.1678  0.9848
  562THF    H13 9246   1.015  -0.046   3.939  1.0797 -1.2644 -1.2616
  563THF     O1 9247   4.856   4.998   3.700 -0.0351  0.2650  0.3397
  563THF     C2 9248   4.914   5.095   3.609  0.6293 -0.1352  0.2162
  563THF     C3 9249   4.722   5.018   3.723  0.1929 -0.3051 -0.9345
  563THF     H4 9250   4.895   5.051   3.506  1.9315 -3.4758  0.3522
  563THF     H5 9251   5.020   5.096   3.615  0.4163  2.2158  2.3008
  563THF     H6 9252   4.661   4.968   3.645 -0.6492  2.4110 -0.8277
  563THF     H7 9253   4.702   4.980   3.823  0.6670  1.4398  2.8278
  563THF     C8 9254   4.712   5.168   3.719 -0.5846 -0.4769  0.2501
  563THF     C9 9255   4.834   5.218   3.648 -0.2319  0.2156 -0.3102
  563THF    H10 9256   4.722   5.209   3.817  0.2754  1.6748 -0.4931
  563THF    H11 9257   4.610   5.193   3.674 -0.0432  3.2515  1.2216
  563THF    H12 9258   4.813   5.280   3.562  0.4008  0.6861 -0.1243
  563THF    H13 9259   4.900   5.270   3.715  0.3858 -0.0084 -2.1132
  564THF     O1 9260   3.209   1.164   4.491 -0.2031 -0.0721  0.6641
  564THF     C2 9261   3.230   1.106   4.363  0.5536 -0.8028  0.1817
  564THF     C3 9262   3.071   1.144   4.526 -0.2706 -0.6642  0.8134
  564THF     H4 9263   3.323   1.046   4.352  0.2620 -0.5843  1.6173
  564THF     H5 9264   3.233   1.192   4.297  1.6517 -0.7619 -1.8508
  564THF     H6 9265   3.067   1.150   4.628  2.9347 -1.3465 -2.2585
  564THF     H7 9266   3.011   1.221   4.484  0.6479  0.8082  0.7472
  564THF     C8 9267   3.044   1.014   4.463  0.2992 -0.2992 -0.2737
  564THF     C9 9268   3.102   1.030   4.325 -0.1056 -0.7872 -0.3126
  564THF    H10 9269   2.943   0.982   4.452  1.4338 -1.3984  2.1933
  564THF    H11 9270   3.093   0.937   4.513  0.5711 -0.0360 -0.8590
  564THF    H12 9271   3.115   0.945   4.253  0.2289  1.1192 -3.9871
  564THF    H13 9272   3.048   1.107   4.266  0.2099  1.1025 -3.4035
  565THF     O1 9273   0.456   4.964   3.428  0.2412  0.0855  0.4382
  565THF     C2 9274   0.345   5.051   3.398 -0.0664  0.0997 -0.1424
  565THF     C3 9275   0.577   5.015   3.374  0.3603 -0.2028 -0.4899
  565THF     H4 9276   0.318   5.115   3.479  0.4884  1.2403 -2.5117
  565THF     H5 9277   0.252   4.994   3.373 -0.7739  0.5152  0.2473
  565THF     H6 9278   0.658   5.019   3.452  0.2572  0.5575  2.8098
  565THF     H7 9279   0.602   4.943   3.289  0.1188 -1.6319 -0.1233
  565THF     C8 9280   0.535   5.158   3.336 -0.4624 -0.0241 -0.5097
  565THF     C9 9281   0.395   5.139   3.292  0.2063 -0.3304  0.5268
  565THF    H10 9282   0.600   5.185   3.252  1.0191 -1.6585  0.1570
  565THF    H11 9283   0.547   5.236   3.418  1.9866 -0.8455  2.5023
  565THF    H12 9284   0.346   5.232   3.286 -0.5627 -0.5927  1.3734
  565THF    H13 9285   0.391   5.102   3.190  0.3567 -2.1614 -1.2179
  566THF     O1 9286   3.552   2.058   3.304 -0.0171  0.4540 -0.4848
  566THF     C2 9287   3.578   2.109   3.175 -0.3820  0.3749  0.9702
  566THF     C3 9288   3.422   2.013   3.312 -0.4848  0.3360 -0.2262
  566THF     H4 9289   3.622   2.043   3.102 -1.1707 -2.1649 -1.0153
  566THF     H5 9290   3.641   2.193   3.199  1.5054 -0.6224 -1.1318
  566THF     H6 9291   3.414   1.908   3.276  2.1543  1.6279 -1.0905
  566THF     H7 9292   3.380   2.006   3.412  0.3965  2.0060  1.4959
  566THF     C8 9293   3.350   2.120   3.230 -0.2424  0.6468 -0.4595
  566THF     C9 9294   3.447   2.171   3.128  0.0970 -0.7620 -0.5417
  566THF    H10 9295   3.328   2.194   3.305  0.1999 -2.4501 -0.1628
  566THF    H11 9296   3.263   2.088   3.184  0.0061  3.4739  0.5679
  566THF    H12 9297   3.422   2.132   3.033  2.3414  1.1377 -1.0421
  566THF    H13 9298   3.448   2.276   3.117  0.5097 -0.3203  0.0000
  567THF     O1 9299   0.725   4.081   1.915 -0.2963 -0.4766 -0.0445
  567THF     C2 9300   0.669   3.945   1.896 -0.8378 -0.6078  0.5318
  567THF     C3 9301   0.722   4.110   2.055 -0.2183  0.1821  0.1462
  567THF     H4 9302   0.745   3.871   1.894 -0.3298 -0.4258  0.4907
  567THF     H5 9303   0.605   3.941   1.810  1.2505  1.4999  0.6681
  567THF     H6 9304   0.814   4.145   2.099  1.1482  1.8902 -0.1315
  567THF     H7 9305   0.649   4.183   2.078  0.4596 -2.3269  0.8179
  567THF     C8 9306   0.677   3.978   2.120  0.6334  0.0066 -0.1791
  567THF     C9 9307   0.589   3.916   2.024 -0.2907  0.2799 -0.1344
  567THF    H10 9308   0.637   3.991   2.214 -1.2612 -1.5276  0.0168
  567THF    H11 9309   0.772   3.915   2.134  1.4591 -0.7717  1.8379
  567THF    H12 9310   0.576   3.809   2.051 -1.0896 -0.6377 -1.5128
  567THF    H13 9311   0.491   3.964   2.016  0.5330  2.0835  1.2674
  568THF     O1 9312   4.626   1.230   4.610 -0.6040  0.7573  0.1337
  568THF     C2 9313   4.530   1.232   4.716  0.0869 -0.8192 -0.3001
  568THF     C3 9314   4.693   1.104   4.602 -0.2497 -0.2095 -0.1813
  568THF     H4 9315   4.444   1.294   4.697  1.2047  1.8292 -1.3408
  568THF     H5 9316   4.579   1.270   4.807 -0.0228 -1.1020  1.3028
  568THF     H6 9317   4.665   1.055   4.512  1.3002  0.4886  0.1014
  568THF     H7 9318   4.796   1.119   4.622 -3.4613  1.7251 -0.0531
  568THF     C8 9319   4.634   1.027   4.714 -0.8484 -0.1078 -0.1914
  568THF     C9 9320   4.496   1.092   4.738 -0.1932 -0.0453 -0.7238
  568THF    H10 9321   4.706   1.028   4.796  2.0031  1.7122 -0.7767
  568THF    H11 9322   4.605   0.924   4.691  0.4320 -0.3073 -2.8732
  568THF    H12 9323   4.428   1.045   4.660  0.7062  2.8691  0.2151
  568THF    H13 9324   4.452   1.069   4.836  0.6759 -1.7668  0.2517
  569THF     O1 9325   3.165   1.144   4.055 -1.0382  0.1584 -0.3214
  569THF     C2 9326   3.217   1.048   3.966 -0.3939  0.6367 -0.8173
  569THF     C3 9327   3.123   1.265   3.990  0.4446  0.2163 -0.1244
  569THF     H4 9328   3.140   0.982   3.935  3.2056  0.4955  2.0416
  569THF     H5 9329   3.298   1.005   4.018  1.6906 -2.4085 -0.5523
  569THF     H6 9330   3.016   1.267   4.002  1.9721  1.9207  1.2888
  569THF     H7 9331   3.177   1.347   4.048  2.6004  1.4215  2.7126
  569THF     C8 9332   3.168   1.244   3.842 -0.0982  0.2356  0.1760
  569THF     C9 9333   3.270   1.127   3.855 -0.4581 -0.0065 -0.0428
  569THF    H10 9334   3.210   1.330   3.790  0.0454  0.4353 -0.9728
  569THF    H11 9335   3.081   1.197   3.791 -0.2327 -0.5909  1.6781
  569THF    H12 9336   3.299   1.074   3.762  0.8838 -0.1663  2.6064
  569THF    H13 9337   3.359   1.175   3.897 -0.4448 -1.4300 -0.6461
  570THF     O1 9338   1.945   1.646   4.293 -0.2078 -0.0014  0.2137
  570THF     C2 9339   1.890   1.582   4.407  0.3970  0.4573  0.2063
  570THF     C3 9340   2.071   1.593   4.274 -0.3857 -0.2079 -0.7235
  570THF     H4 9341   1.821   1.501   4.382 -0.4529  1.7147 -0.6907
  570THF     H5 9342   1.825   1.654   4.456  2.3076  0.3111  2.9107
  570THF     H6 9343   2.068   1.509   4.210 -1.0827  3.2452  0.1834
  570THF     H7 9344   2.129   1.664   4.216  0.0723 -0.9681  0.0741
  570THF     C8 9345   2.119   1.545   4.406  0.3735 -0.3717 -0.8330
  570THF     C9 9346   2.000   1.526   4.496 -0.1088  0.1081  0.6025
  570THF    H10 9347   2.202   1.618   4.434  2.2648  2.3579 -1.2866
  570THF    H11 9348   2.167   1.447   4.396  0.9927 -0.2098  0.4200
  570THF    H12 9349   1.982   1.422   4.502  0.1757  0.2219 -0.0127
  570THF    H13 9350   2.013   1.573   4.589  0.4934  1.0983  0.0137
  571THF     O1 9351   0.236   3.174   3.029  0.3117  0.4883 -0.0219
  571THF     C2 9352   0.167   3.274   3.096  0.1664 -0.5679  0.6611
  571THF     C3 9353   0.184   3.126   2.906  0.2555 -0.2910 -0.7129
  571THF     H4 9354   0.223   3.366   3.081 -1.1303 -0.3346 -2.4477
  571THF     H5 9355   0.159   3.253   3.201  0.4784  0.8517  1.5758
  571THF     H6 9356   0.232   3.198   2.835  0.9613  0.0361  0.3299
  571THF     H7 9357   0.217   3.026   2.879 -1.1123  1.0817 -1.4314
  571THF     C8 9358   0.033   3.142   2.931 -0.4150  0.4009 -0.1879
  571THF     C9 9359   0.040   3.280   3.005 -0.2857  0.1392 -0.2722
  571THF    H10 9360   0.003   3.065   2.996 -2.8842 -0.6426 -0.2148
  571THF    H11 9361  -0.041   3.146   2.853 -0.5691 -1.4493  0.2884
  571THF    H12 9362   0.043   3.368   2.935 -1.3869 -2.5489 -1.5947
  571THF    H13 9363  -0.043   3.283   3.072  2.4259 -0.7342  2.9171
  572THF     O1 9364   2.283   2.689   2.946  0.6579 -0.6650 -0.2511
  572THF     C2 9365   2.371   2.759   3.036  0.6375  0.3554  0.8777
  572THF     C3 9366   2.350   2.583   2.896  0.3000 -0.1153 -0.1658
  572THF     H4 9367   2.345   2.730   3.142 -1.9159  2.8286  3.6172
  572THF     H5 9368   2.362   2.863   3.037  0.2038  0.5511  0.8663
  572THF     H6 9369   2.331   2.495   2.957  0.4558  0.6713  3.2586
  572THF     H7 9370   2.311   2.559   2.794 -0.3430  0.0646 -1.9608
  572THF     C8 9371   2.498   2.614   2.895 -1.0249  0.0349  0.5149
  572THF     C9 9372   2.516   2.719   3.000  0.7995 -0.6574 -1.1630
  572THF    H10 9373   2.517   2.651   2.792  1.3459 -2.2528 -1.3416
  572THF    H11 9374   2.572   2.530   2.902 -1.3925 -2.1493 -0.2683
  572THF    H12 9375   2.564   2.686   3.094 -1.4930 -0.3001  1.9527
  572THF    H13 9376   2.584   2.803   2.961 -0.6267  0.4804 -0.4091
  573THF     O1 9377   2.423   4.874   4.877 -0.0561 -1.1427  0.2186
  573THF     C2 9378   2.371   4.798   4.759 -0.2747  0.1980  0.2206
  573THF     C3 9379   2.410   4.788   4.986 -0.1172  0.6615 -0.1566
  573THF     H4 9380   2.425   4.836   4.670 -1.3604 -0.1264 -1.6692
  573THF     H5 9381   2.268   4.813   4.734  0.3597  0.8140  0.4112
  573THF     H6 9382   2.465   4.824   5.072  0.3951 -0.0626 -0.1328
  573THF     H7 9383   2.303   4.773   5.013 -0.4254 -0.3102 -1.6437
  573THF     C8 9384   2.459   4.652   4.941 -0.0004 -0.4299 -0.7262
  573THF     C9 9385   2.418   4.654   4.801  0.8792 -0.3339  1.0589
  573THF    H10 9386   2.422   4.565   5.000 -1.5122 -1.8882  0.4414
  573THF    H11 9387   2.564   4.654   4.964 -0.3198  1.0257  1.3299
  573THF    H12 9388   2.502   4.626   4.741 -0.2448 -0.4033 -1.5705
  573THF    H13 9389   2.346   4.575   4.784  1.3026 -4.1652 -0.6569
  574THF     O1 9390   4.309   1.692   0.997 -0.0586  0.0161  0.5636
  574THF     C2 9391   4.410   1.772   1.059 -0.1051 -0.4248  0.1719
  574THF     C3 9392   4.334   1.694   0.854 -0.3754  0.8736  0.0847
  574THF     H4 9393   4.414   1.763   1.162 -0.7002  0.1254 -2.2131
  574THF     H5 9394   4.375   1.875   1.049  1.9041  0.5727  1.0277
  574THF     H6 9395   4.295   1.613   0.801 -0.2881 -0.5795  1.4600
  574THF     H7 9396   4.275   1.788   0.818 -3.1210  1.3313 -2.1139
  574THF     C8 9397   4.483   1.701   0.839  0.2921  0.3196 -0.0791
  574THF     C9 9398   4.536   1.746   0.976 -0.5811 -0.1353  0.5554
  574THF    H10 9399   4.510   1.771   0.764  1.6550  1.0587 -0.2184
  574THF    H11 9400   4.526   1.611   0.800 -1.7363 -0.1130 -1.5788
  574THF    H12 9401   4.597   1.664   1.018 -1.6051 -2.2071 -0.8586
  574THF    H13 9402   4.599   1.824   0.968 -3.4363 -3.0248 -2.6324
  575THF     O1 9403   3.673   4.076   1.113  0.2982 -0.0043  0.0242
  575THF     C2 9404   3.711   4.076   0.975  0.4042  0.3194 -0.5544
  575THF     C3 9405   3.741   3.969   1.173  0.6942 -0.0803 -0.2820
  575THF     H4 9406   3.673   4.165   0.924  1.3021 -0.0137  2.7484
  575THF     H5 9407   3.665   3.990   0.926  0.3054 -1.6457 -0.7523
  575THF     H6 9408   3.763   3.987   1.282  1.7460  3.0574  1.3456
  575THF     H7 9409   3.676   3.881   1.158  0.2470 -0.3405  0.2410
  575THF     C8 9410   3.875   3.952   1.092  0.4053  0.3451 -0.9559
  575THF     C9 9411   3.862   4.060   0.979  0.1445  0.3152  0.0164
  575THF    H10 9412   3.872   3.854   1.048  1.6341 -1.2784  0.7903
  575THF    H11 9413   3.967   3.966   1.161  0.3199  2.9871 -0.9983
  575THF    H12 9414   3.913   4.149   1.008 -1.9139 -3.6055 -1.1027
  575THF    H13 9415   3.907   4.029   0.884  2.6043  0.6472 -0.4991
  576THF     O1 9416   0.601   1.105   5.059 -0.1459  0.8403 -0.2008
  576THF     C2 9417   0.547   1.125   4.934 -0.2712 -0.2280  0.1672
  576THF     C3 9418   0.595   0.963   5.082  0.1631 -0.6004  0.1560
  576THF     H4 9419   0.620   1.103   4.856 -0.4076  0.0659 -2.1432
  576THF     H5 9420   0.519   1.229   4.914 -1.8083  0.9360 -1.5910
  576THF     H6 9421   0.668   0.911   5.027  0.5213 -3.2517 -1.0675
  576THF     H7 9422   0.609   0.934   5.190  1.9771 -0.6864 -1.9069
  576THF     C8 9423   0.452   0.931   5.036 -0.3113  0.3271 -0.4215
  576THF     C9 9424   0.422   1.042   4.933 -0.3064  0.8046 -1.0719
  576THF    H10 9425   0.386   0.939   5.121 -0.5031  2.3230  1.3249
  576THF    H11 9426   0.441   0.830   4.998 -2.2665  0.0174 -1.6673
  576THF    H12 9427   0.410   1.012   4.825 -0.4023  1.7781  2.8503
  576THF    H13 9428   0.331   1.096   4.956 -1.4346  0.8243  0.1432
  577THF     O1 9429   4.831   3.343   0.828 -0.4683 -0.0377  0.3586
  577THF     C2 9430   4.697   3.323   0.860 -0.5938  0.3850  0.1595
  577THF     C3 9431   4.844   3.467   0.765 -0.5147  0.0898 -0.0179
  577THF     H4 9432   4.671   3.358   0.963 -0.8017  1.9797  3.1217
  577THF     H5 9433   4.689   3.216   0.842  1.0470  0.0171 -0.7099
  577THF     H6 9434   4.872   3.540   0.843  2.2122  1.8337 -1.0323
  577THF     H7 9435   4.927   3.471   0.695 -2.0192 -0.1580  1.6626
  577THF     C8 9436   4.712   3.488   0.695  0.3249 -0.7142 -0.6727
  577THF     C9 9437   4.613   3.406   0.771  0.5531 -0.3755  0.1849
  577THF    H10 9438   4.729   3.446   0.598  1.7878  1.2637  1.8515
  577THF    H11 9439   4.682   3.590   0.674 -0.9345 -0.5293  0.1302
  577THF    H12 9440   4.551   3.483   0.829  2.4835  2.4578  0.0690
  577THF    H13 9441   4.551   3.339   0.711 -0.5472 -2.3784 -0.7764
  578THF     O1 9442   3.524   3.841   3.874 -0.0985  0.4668 -0.3715
  578THF     C2 9443   3.607   3.942   3.822 -0.3513 -0.1294  0.0965
  578THF     C3 9444   3.607   3.750   3.948 -0.3438 -0.4791  0.2565
  578THF     H4 9445   3.652   4.004   3.902  0.5378 -0.9882  1.7632
  578THF     H5 9446   3.553   4.005   3.735 -3.5448  1.9060 -3.4442
  578THF     H6 9447   3.634   3.787   4.043 -0.1407 -0.3922  2.0091
  578THF     H7 9448   3.555   3.656   3.952 -1.2976  1.9531  0.1503
  578THF     C8 9449   3.737   3.744   3.861  0.5816 -0.0469  0.1130
  578THF     C9 9450   3.720   3.857   3.762 -0.3625  0.3577  0.0964
  578THF    H10 9451   3.734   3.652   3.809  0.3996  0.0189  1.7304
  578THF    H11 9452   3.829   3.752   3.919  0.9088 -0.9016 -0.8617
  578THF    H12 9453   3.814   3.914   3.752 -0.3066  0.6419  1.3334
  578THF    H13 9454   3.707   3.824   3.658  0.7435  0.6167 -0.9879
  579THF     O1 9455   5.415   1.374   2.887  0.3956  0.3012  0.1361
  579THF     C2 9456   5.415   1.281   2.782 -1.5124 -0.0818 -0.4607
  579THF     C3 9457   5.536   1.373   2.955 -0.2794  0.1773 -0.9215
  579THF     H4 9458   5.478   1.310   2.696  1.1673 -1.2774  0.6172
  579THF     H5 9459   5.308   1.257   2.753 -0.5947  1.1100  0.6831
  579THF     H6 9460   5.609   1.435   2.910 -1.2856 -0.9151 -0.8337
  579THF     H7 9461   5.516   1.411   3.056 -1.4912 -0.7091 -1.5165
  579THF     C8 9462   5.591   1.228   2.950  0.0308  0.0342 -0.1940
  579THF     C9 9463   5.482   1.168   2.858 -0.2318  0.0959 -0.1147
  579THF    H10 9464   5.622   1.170   3.037  2.4100 -2.0884  2.5633
  579THF    H11 9465   5.686   1.236   2.891 -2.4081 -1.1432 -0.0820
  579THF    H12 9466   5.519   1.084   2.799  0.7115  0.9105  0.9219
  579THF    H13 9467   5.415   1.110   2.917  0.8569  0.4658 -1.0781
  580THF     O1 9468   1.598   2.970   5.459  0.0160 -0.0197  0.2553
  580THF     C2 9469   1.546   2.933   5.585 -0.1286 -0.1238 -0.5227
  580THF     C3 9470   1.727   2.916   5.449  0.0359  1.0948  0.4916
  580THF     H4 9471   1.508   2.833   5.584  2.4869 -1.0146  0.5228
  580THF     H5 9472   1.469   3.000   5.612 -0.6779  0.8125 -2.4916
  580THF     H6 9473   1.725   2.807   5.444  1.9287 -1.5953  0.0550
  580THF     H7 9474   1.782   2.965   5.371  0.9468  2.5778 -0.7845
  580THF     C8 9475   1.785   2.961   5.587  0.8173 -0.0299  0.0880
  580THF     C9 9476   1.665   2.933   5.684  0.3917 -0.0012 -0.0952
  580THF    H10 9477   1.804   3.065   5.586 -0.9449  0.1578 -1.3234
  580THF    H11 9478   1.875   2.910   5.612  0.3448  1.4047 -2.9097
  580THF    H12 9479   1.675   2.846   5.739 -0.3054  0.4656 -0.6066
  580THF    H13 9480   1.650   3.017   5.756  0.2752  0.6409  0.7805
  581THF     O1 9481   1.857   3.888   4.653 -0.6012  0.1388 -0.7252
  581THF     C2 9482   1.810   3.828   4.770  0.0436 -0.8571 -0.5687
  581THF     C3 9483   1.944   3.792   4.588  0.4632  0.2145  0.5208
  581THF     H4 9484   1.703   3.844   4.779  1.7080 -0.5009 -2.6539
  581THF     H5 9485   1.869   3.887   4.835  1.0340  1.1824  0.0653
  581THF     H6 9486   1.881   3.736   4.518  0.2673 -0.8610  1.6705
  581THF     H7 9487   2.019   3.846   4.529 -0.8194  1.0500 -1.4074
  581THF     C8 9488   1.999   3.697   4.699  0.4032  0.0808  0.3261
  581THF     C9 9489   1.871   3.686   4.780  0.3453  0.5010  0.0512
  581THF    H10 9490   2.076   3.750   4.759  1.3578  1.1146  1.7428
  581THF    H11 9491   2.037   3.603   4.663 -0.9173 -2.6733  3.1252
  581THF    H12 9492   1.801   3.607   4.739 -0.7317 -1.5460 -0.8198
  581THF    H13 9493   1.888   3.652   4.884 -2.1911  0.7635  1.8462
  582THF     O1 9494   2.364   1.901   1.785 -0.2990  0.2582 -0.2868
  582THF     C2 9495   2.364   1.777   1.716  0.0881  0.3011 -0.7908
  582THF     C3 9496   2.470   1.899   1.878  0.1214 -0.5486  0.2388
  582THF     H4 9497   2.451   1.769   1.641  1.3006 -1.8920 -1.8570
  582THF     H5 9498   2.270   1.769   1.674 -0.1771  1.6989  0.3528
  582THF     H6 9499   2.562   1.941   1.837  1.2536  3.3441  1.6705
  582THF     H7 9500   2.433   1.947   1.964 -1.5354 -0.9422 -2.7440
  582THF     C8 9501   2.497   1.756   1.908  0.5105  0.1265 -0.5592
  582THF     C9 9502   2.392   1.680   1.822  0.1565  0.6749 -0.2377
  582THF    H10 9503   2.486   1.726   2.011  1.5783  1.5421  1.4190
  582THF    H11 9504   2.590   1.724   1.871 -0.7532 -3.0750  1.1360
  582THF    H12 9505   2.436   1.584   1.789 -2.7612 -0.9252 -0.7455
  582THF    H13 9506   2.299   1.651   1.885 -0.5689  0.0811 -0.3545
  583THF     O1 9507   4.051   4.445   5.280  0.2348  0.3520 -0.0546
  583THF     C2 9508   3.992   4.533   5.373  0.0816  0.0447  0.1347
  583THF     C3 9509   4.061   4.319   5.343 -0.4857 -0.2151  0.1933
  583THF     H4 9510   3.885   4.508   5.384  0.1420  0.3025  0.7562
  583THF     H5 9511   4.021   4.636   5.362  2.5677  0.1430 -1.6774
  583THF     H6 9512   3.965   4.263   5.336 -1.8652  0.0516  1.8281
  583THF     H7 9513   4.137   4.267   5.281  0.5014 -1.3561 -1.6304
  583THF     C8 9514   4.101   4.344   5.486 -0.3508 -0.5371 -0.0151
  583THF     C9 9515   4.053   4.489   5.507  0.4243  0.4010  0.3046
  583THF    H10 9516   4.201   4.330   5.528 -0.5717  3.6476 -0.5489
  583THF    H11 9517   4.042   4.271   5.540  1.6729 -2.0899  0.3313
  583THF    H12 9518   3.982   4.496   5.587 -1.7977 -1.9178 -0.4340
  583THF    H13 9519   4.131   4.554   5.541 -1.0984 -0.6217 -2.0481
  584THF     O1 9520   4.809   0.593   1.597 -0.2694 -0.0332  0.4645
  584THF     C2 9521   4.825   0.487   1.691 -0.3930 -0.0962  0.3646
  584THF     C3 9522   4.928   0.608   1.521  0.3197  1.0768 -0.4836
  584THF     H4 9523   4.806   0.401   1.625 -3.8643  1.4935  1.8007
  584THF     H5 9524   4.757   0.492   1.775  0.8493 -0.0727  0.2554
  584THF     H6 9525   4.933   0.519   1.459  1.7343  0.0140  0.8747
  584THF     H7 9526   4.920   0.699   1.456  0.6821  1.2395  1.5251
  584THF     C8 9527   5.034   0.599   1.633  0.0923 -0.0883  0.3187
  584THF     C9 9528   4.964   0.519   1.745  0.3107  0.3061  1.6974
  584THF    H10 9529   5.075   0.694   1.671 -0.3513  1.1518 -1.4258
  584THF    H11 9530   5.118   0.547   1.586 -3.5085 -2.5673  0.2583
  584THF    H12 9531   5.022   0.432   1.765  2.1678  1.1808 -0.1131
  584THF    H13 9532   4.956   0.577   1.843  3.8121 -0.0591 -1.4938
  585THF     O1 9533   1.961   3.168   3.061  0.1185 -0.0461 -0.2189
  585THF     C2 9534   1.864   3.200   2.961  0.4559 -0.7675  0.7042
  585THF     C3 9535   1.906   3.190   3.192 -0.2879  0.5363 -0.6394
  585THF     H4 9536   1.888   3.140   2.878  1.0165  1.0011 -3.0234
  585THF     H5 9537   1.880   3.309   2.940 -1.2148 -0.0597 -0.4637
  585THF     H6 9538   1.948   3.123   3.264 -0.6022  0.7760  0.4417
  585THF     H7 9539   1.929   3.298   3.217 -0.2359  0.8829 -0.7413
  585THF     C8 9540   1.754   3.159   3.172 -0.1243  0.1180  0.1098
  585THF     C9 9541   1.729   3.172   3.023  0.1226  0.0980 -0.2733
  585THF    H10 9542   1.694   3.225   3.233  0.1569 -2.7927 -1.1671
  585THF    H11 9543   1.723   3.059   3.204  1.4899  0.5960  2.8197
  585THF    H12 9544   1.686   3.081   2.983 -0.2819  2.6538  0.5286
  585THF    H13 9545   1.658   3.258   3.022  2.3633  1.1673 -1.1168
  586THF     O1 9546   1.099   3.752   0.271  0.3377 -0.1074  0.3241
  586THF     C2 9547   1.179   3.720   0.163 -0.2153  0.3974 -0.5992
  586THF     C3 9548   1.171   3.844   0.349 -0.3930  0.8900 -0.2920
  586THF     H4 9549   1.192   3.808   0.100  0.6216 -0.9045 -0.1177
  586THF     H5 9550   1.143   3.636   0.109 -0.3635 -1.5571 -0.7408
  586THF     H6 9551   1.167   3.940   0.298 -1.8516  0.2127  4.1217
  586THF     H7 9552   1.130   3.861   0.444  3.7130 -1.6335 -0.2824
  586THF     C8 9553   1.319   3.786   0.348 -0.3476 -0.0576 -0.7568
  586THF     C9 9554   1.316   3.698   0.223 -0.3540 -0.5880 -0.0844
  586THF    H10 9555   1.334   3.727   0.438 -1.0419 -2.5694  0.2922
  586THF    H11 9556   1.398   3.861   0.352  2.3060 -1.5756  1.6240
  586THF    H12 9557   1.385   3.749   0.159 -0.9367  0.3866  1.3414
  586THF    H13 9558   1.339   3.592   0.247  0.2468  0.3596 -1.5320
  587THF     O1 9559   3.308   1.298   0.050  0.3060 -0.2573 -0.0797
  587THF     C2 9560   3.431   1.358   0.008 -0.0061  0.1109  0.3291
  587THF     C3 9561   3.272   1.182  -0.019  0.3651  0.6138  0.1081
  587THF     H4 9562   3.500   1.388   0.087  1.7984  1.4179 -0.4726
  587THF     H5 9563   3.397   1.456  -0.036 -0.9052  1.5787  0.4287
  587THF     H6 9564   3.226   1.112   0.056  2.5663  1.3310  0.0611
  587THF     H7 9565   3.206   1.202  -0.103 -2.7196 -0.2082  0.3467
  587THF     C8 9566   3.398   1.133  -0.076  0.7077 -0.4991 -0.3894
  587THF     C9 9567   3.474   1.260  -0.111  0.1311  0.5456 -0.7108
  587THF    H10 9568   3.370   1.063  -0.151 -1.4890  1.3995  1.2173
  587THF    H11 9569   3.444   1.073   0.000  1.2395 -1.4988  0.1907
  587THF    H12 9570   3.583   1.245  -0.127  0.0876 -0.8253 -0.1463
  587THF    H13 9571   3.430   1.296  -0.209  0.2455  0.2158  0.3021
  588THF     O1 9572   1.885   2.772   0.441  0.5511 -0.6628 -0.3041
  588THF     C2 9573   1.802   2.839   0.534  0.4919  0.7799  0.3308
  588THF     C3 9574   1.893   2.637   0.496 -0.3026 -0.0237 -0.7244
  588THF     H4 9575   1.758   2.923   0.492  1.8086  2.5669 -0.9510
  588THF     H5 9576   1.868   2.856   0.616 -2.4911 -1.2052 -1.7807
  588THF     H6 9577   1.922   2.557   0.430  0.8345 -0.9996  0.2733
  588THF     H7 9578   1.953   2.631   0.589 -1.7107  1.5844  2.9771
  588THF     C8 9579   1.748   2.602   0.522 -0.1846  0.3347  0.0836
  588THF     C9 9580   1.690   2.737   0.561  0.1649  0.4995 -0.2943
  588THF    H10 9581   1.741   2.532   0.602  3.4452 -0.0778 -1.1807
  588THF    H11 9582   1.697   2.564   0.437  1.7340  0.2807 -2.3060
  588THF    H12 9583   1.608   2.760   0.488 -0.3897  0.6000 -3.9896
  588THF    H13 9584   1.639   2.740   0.660  0.7796 -0.1681 -0.5773
  589THF     O1 9585   3.790   0.386   4.213 -0.0879  0.0540  0.3205
  589THF     C2 9586   3.756   0.314   4.331  0.9667 -0.2848 -0.3532
  589THF     C3 9587   3.700   0.494   4.203  0.3170  0.0779  1.0148
  589THF     H4 9588   3.843   0.261   4.361  0.0301 -0.6448  0.1883
  589THF     H5 9589   3.671   0.238   4.319 -0.6957  0.7814  1.4438
  589THF     H6 9590   3.731   0.549   4.116 -0.5474  0.9677 -0.9712
  589THF     H7 9591   3.596   0.468   4.179 -1.8275 -0.0621 -1.4018
  589THF     C8 9592   3.716   0.547   4.343  0.8471 -0.1107  0.5675
  589THF     C9 9593   3.728   0.424   4.430  0.2904  0.0306 -0.0010
  589THF    H10 9594   3.639   0.613   4.386  0.2604  3.8133  1.2860
  589THF    H11 9595   3.812   0.588   4.346 -0.4717 -2.5079  2.5137
  589THF    H12 9596   3.814   0.426   4.502  0.6016  0.5644  0.4377
  589THF    H13 9597   3.644   0.398   4.494  1.7373 -0.0857  1.3474
  590THF     O1 9598   4.985   5.339   0.515  0.9655  0.7124  0.1046
  590THF     C2 9599   5.052   5.421   0.613 -0.2294 -0.2994  0.2759
  590THF     C3 9600   4.996   5.207   0.561 -0.3220 -0.2487 -0.2860
  590THF     H4 9601   5.001   5.518   0.638  0.8568 -0.0787  2.8518
  590THF     H5 9602   5.140   5.446   0.558 -0.0295  0.7792 -0.5848
  590THF     H6 9603   4.909   5.156   0.528  1.0766  1.0796 -0.4455
  590THF     H7 9604   5.077   5.157   0.513 -0.4294  0.3519  1.4322
  590THF     C8 9605   5.007   5.214   0.711  0.1996  0.7050  0.2072
  590THF     C9 9606   5.092   5.333   0.731 -0.0296 -0.1849 -0.5223
  590THF    H10 9607   5.041   5.124   0.759  0.6839  0.5994 -0.0286
  590THF    H11 9608   4.908   5.211   0.757  1.0403  1.4280  0.1125
  590THF    H12 9609   5.067   5.383   0.826  0.6861  0.7039 -0.8876
  590THF    H13 9610   5.195   5.312   0.728 -1.9015  0.7974  2.2931
  591THF     O1 9611   5.153   0.822   3.681 -0.0058  0.3841  0.0772
  591THF     C2 9612   5.125   0.786   3.548 -0.3209  0.1055  0.7417
  591THF     C3 9613   5.086   0.950   3.686 -0.1072  0.4110  0.3633
  591THF     H4 9614   5.133   0.677   3.541  0.8779 -1.3717  2.1728
  591THF     H5 9615   5.205   0.840   3.486 -2.1579 -1.1998  1.0476
  591THF     H6 9616   5.064   0.995   3.787 -0.2909 -1.2200  0.8566
  591THF     H7 9617   5.138   1.017   3.614  1.4490  2.2715  0.9194
  591THF     C8 9618   4.944   0.917   3.629 -0.6202 -0.0301  0.5594
  591THF     C9 9619   4.978   0.819   3.517 -0.9346 -0.4155  0.4864
  591THF    H10 9620   4.893   1.009   3.597  1.8168 -0.7980 -0.0122
  591THF    H11 9621   4.880   0.863   3.703 -0.1735  0.1181 -1.2386
  591THF    H12 9622   4.915   0.732   3.515  1.9287 -1.0068  2.7920
  591THF    H13 9623   4.961   0.878   3.432 -0.7490 -0.5824  2.1148
  592THF     O1 9624   0.549   3.718   3.772 -0.1629  0.0172 -0.3769
  592THF     C2 9625   0.444   3.673   3.860 -0.5316 -0.2893 -0.3717
  592THF     C3 9626   0.489   3.755   3.651 -0.2867 -0.2647 -0.1010
  592THF     H4 9627   0.446   3.720   3.954 -0.2984  1.5338 -2.3479
  592THF     H5 9628   0.461   3.567   3.866  3.8519 -1.0769  1.3326
  592THF     H6 9629   0.488   3.867   3.648  2.1062  0.2621  1.4097
  592THF     H7 9630   0.550   3.717   3.568 -1.1298 -0.1148  0.3539
  592THF     C8 9631   0.354   3.693   3.641 -0.2370 -0.0730  0.2545
  592THF     C9 9632   0.317   3.707   3.788 -0.5677 -0.2356 -0.4995
  592THF    H10 9633   0.347   3.582   3.620 -0.8096 -1.9431 -1.9035
  592THF    H11 9634   0.284   3.749   3.578 -0.8169  0.8932  0.2179
  592THF    H12 9635   0.284   3.807   3.807 -1.5687  0.4045  1.9967
  592THF    H13 9636   0.236   3.642   3.809 -2.0352 -0.3819  0.4460
  593THF     O1 9637   3.173   1.929   5.106  0.2875 -0.2701 -0.4551
  593THF     C2 9638   3.161   1.888   4.970 -1.1171  0.2209  0.3408
  593THF     C3 9639   3.265   1.837   5.162 -0.2040  0.0027  0.1948
  593THF     H4 9640   3.199   1.968   4.908 -0.5806 -1.0170  0.7119
  593THF     H5 9641   3.054   1.881   4.965 -1.8546 -1.8713 -1.0716
  593THF     H6 9642   3.365   1.889   5.149  2.6355 -2.0783 -0.0788
  593THF     H7 9643   3.246   1.827   5.271 -2.3133 -1.3325 -1.1958
  593THF     C8 9644   3.251   1.705   5.087  1.2506 -0.1893 -0.5375
  593THF     C9 9645   3.227   1.747   4.945  0.3881  0.1437  0.0578
  593THF    H10 9646   3.160   1.658   5.120  3.6273  1.2981 -1.9312
  593THF    H11 9647   3.327   1.627   5.101  1.7691  0.7616 -2.4840
  593THF    H12 9648   3.328   1.754   4.897 -0.3268 -1.2886 -0.2660
  593THF    H13 9649   3.156   1.685   4.888 -0.0844  4.3397 -1.2391
  594THF     O1 9650   4.645   3.577   4.771 -0.5077 -0.0746 -1.2662
  594THF     C2 9651   4.661   3.558   4.633 -0.1423 -0.1376  0.3596
  594THF     C3 9652   4.538   3.671   4.804  0.3960 -0.3855  0.4403
  594THF     H4 9653   4.593   3.472   4.611 -3.6207 -1.3311 -0.0612
  594THF     H5 9654   4.764   3.540   4.595  0.8990  1.7693 -2.1761
  594THF     H6 9655   4.443   3.623   4.799  1.1989  0.7719 -4.2036
  594THF     H7 9656   4.546   3.713   4.907 -0.3811 -1.2366 -1.4143
  594THF     C8 9657   4.542   3.771   4.690  0.8580 -0.8596  0.1897
  594THF     C9 9658   4.599   3.684   4.572 -0.4101 -0.2330 -0.4078
  594THF    H10 9659   4.608   3.856   4.705  0.4419  0.4531 -0.8559
  594THF    H11 9660   4.434   3.812   4.678 -3.5726 -2.7765  1.0892
  594THF    H12 9661   4.514   3.648   4.504 -0.5014 -0.5750 -1.7963
  594THF    H13 9662   4.670   3.744   4.514  1.3878 -0.9283 -0.6784
  595THF     O1 9663   2.881   0.229   2.021  0.5247  0.0460  0.2880
  595THF     C2 9664   2.833   0.235   1.887  0.7579  0.0906 -0.0229
  595THF     C3 9665   2.769   0.262   2.099 -0.9376  0.3308 -0.0764
  595THF     H4 9666   2.790   0.137   1.855 -0.6974  1.5322  2.3557
  595THF     H5 9667   2.923   0.254   1.827  2.4127 -2.3592 -0.3221
  595THF     H6 9668   2.682   0.198   2.118 -1.1251  3.5655 -0.3314
  595THF     H7 9669   2.804   0.294   2.198  1.9319 -1.5411 -1.5374
  595THF     C8 9670   2.714   0.380   2.026 -0.0841  0.5632 -0.1011
  595THF     C9 9671   2.732   0.348   1.880  0.0323  0.5793 -0.4097
  595THF    H10 9672   2.774   0.471   2.052 -0.3605  1.6813 -0.5821
  595THF    H11 9673   2.614   0.400   2.042 -0.3867 -1.0556 -0.8818
  595THF    H12 9674   2.642   0.331   1.830  0.8860 -3.1398 -0.4997
  595THF    H13 9675   2.778   0.442   1.837 -0.7897  1.0673  0.1668
  596THF     O1 9676   3.440   0.483   2.967 -0.5755 -0.6637  0.4651
  596THF     C2 9677   3.440   0.397   3.079  0.7331 -0.3449 -0.3941
  596THF     C3 9678   3.551   0.576   2.991 -0.5659 -0.0856 -0.9546
  596THF     H4 9679   3.505   0.314   3.065  0.8490 -1.2102 -0.6546
  596THF     H5 9680   3.346   0.353   3.098  2.1244 -1.8727 -0.1657
  596THF     H6 9681   3.636   0.549   2.934  0.8803  1.2179  1.9946
  596THF     H7 9682   3.519   0.674   2.950 -0.4325 -0.3335  0.0648
  596THF     C8 9683   3.592   0.571   3.141 -0.3087 -0.2822  0.5419
  596THF     C9 9684   3.487   0.480   3.201  0.9131  0.4566 -0.3621
  596THF    H10 9685   3.569   0.664   3.180 -1.3776  0.4735  1.3327
  596THF    H11 9686   3.695   0.539   3.156  2.1437 -0.3067  0.5913
  596THF    H12 9687   3.528   0.421   3.281 -2.1392  0.4170 -0.8567
  596THF    H13 9688   3.401   0.535   3.239 -1.7175 -0.3639 -2.6495
  597THF     O1 9689   0.456   1.971   3.791 -0.3756  0.0862 -0.1236
  597THF     C2 9690   0.462   1.928   3.652  0.3319  0.0230  0.0254
  597THF     C3 9691   0.548   1.900   3.871  0.0544 -0.2707 -0.0809
  597THF     H4 9692   0.518   1.992   3.591 -1.0339  1.8936 -1.3432
  597THF     H5 9693   0.364   1.908   3.611  0.0349 -0.8220 -1.2452
  597THF     H6 9694   0.610   1.970   3.932  1.0955  0.3373 -1.1758
  597THF     H7 9695   0.502   1.823   3.939 -0.7122 -2.9914  0.9808
  597THF     C8 9696   0.634   1.828   3.768 -0.1757 -0.0321  0.2188
  597THF     C9 9697   0.531   1.796   3.657 -0.3811 -0.6246  0.4250
  597THF    H10 9698   0.684   1.736   3.812  0.4656  1.6355  0.4645
  597THF    H11 9699   0.714   1.895   3.733 -0.9672  0.9767 -1.5865
  597THF    H12 9700   0.587   1.767   3.568  2.1276  0.4926 -1.7527
  597THF    H13 9701   0.456   1.720   3.700 -0.0780  4.9487  2.1342
  598THF     O1 9702   0.394   5.040   5.151  0.1488 -0.0936  0.4029
  598THF     C2 9703   0.285   4.960   5.102  0.4542 -0.1716  0.4840
  598THF     C3 9704   0.399   5.152   5.064  0.0293 -0.3430 -0.1497
  598THF     H4 9705   0.189   5.008   5.127  0.8016 -0.0034 -1.0066
  598THF     H5 9706   0.287   4.864   5.149  1.0424  1.0298 -0.0787
  598THF     H6 9707   0.352   5.238   5.102 -0.1260 -0.2299 -1.5626
  598THF     H7 9708   0.499   5.187   5.049  0.1996 -0.7594  1.2054
  598THF     C8 9709   0.355   5.104   4.923 -0.3044 -0.5021 -0.0017
  598THF     C9 9710   0.312   4.953   4.949  0.3845 -0.1181 -0.1888
  598THF    H10 9711   0.424   5.105   4.836  0.5961  1.1701  0.5658
  598THF    H11 9712   0.267   5.157   4.886 -0.7862  0.1997 -0.3810
  598THF    H12 9713   0.227   4.924   4.899  1.9957  2.9069 -0.4957
  598THF    H13 9714   0.396   4.880   4.930 -0.1791  0.2348  0.7997
  599THF     O1 9715   3.856   5.445   1.136 -0.2544 -0.1496 -0.3228
  599THF     C2 9716   3.909   5.315   1.142  0.1383  0.1922  0.1995
  599THF     C3 9717   3.731   5.431   1.074  0.5629 -0.5107 -1.1939
  599THF     H4 9718   3.868   5.259   1.225 -1.1564 -0.0422 -0.4079
  599THF     H5 9719   4.014   5.315   1.153  0.1799  2.4637 -1.0313
  599THF     H6 9720   3.658   5.371   1.139 -0.4573 -2.2507  0.2881
  599THF     H7 9721   3.684   5.525   1.048  0.0616  2.1183 -6.1069
  599THF     C8 9722   3.770   5.358   0.951  0.0147  0.3652 -0.3526
  599THF     C9 9723   3.850   5.249   1.012  0.3479 -0.2905 -0.1129
  599THF    H10 9724   3.836   5.425   0.894  1.5596 -1.5203 -1.7158
  599THF    H11 9725   3.679   5.326   0.899 -0.7873  0.2693 -0.1656
  599THF    H12 9726   3.792   5.158   1.031 -0.5216  0.1125  2.5628
  599THF    H13 9727   3.918   5.207   0.941  2.8089  0.6643 -1.3927
  600THF     O1 9728   4.598   4.205   4.883  0.2176 -0.3649 -0.3605
  600THF     C2 9729   4.743   4.188   4.895 -0.1023 -0.2357  0.1405
  600THF     C3 9730   4.568   4.341   4.925 -0.0680 -0.6091  0.3684
  600THF     H4 9731   4.776   4.251   4.807 -0.1130  2.2314  2.1072
  600THF     H5 9732   4.777   4.085   4.887 -0.1363  1.0443 -2.9652
  600THF     H6 9733   4.530   4.402   4.841 -2.3026 -1.2610 -2.0729
  600THF     H7 9734   4.499   4.319   5.001 -0.1544 -5.9848  0.9129
  600THF     C8 9735   4.690   4.388   4.995 -0.4358  0.2677 -0.4568
  600THF     C9 9736   4.767   4.265   5.023  0.5897  0.2622 -0.0195
  600THF    H10 9737   4.667   4.449   5.086 -0.4650  1.0955  0.3741
  600THF    H11 9738   4.751   4.451   4.928 -0.2881  3.1594  1.3923
  600THF    H12 9739   4.873   4.280   5.034  3.9350  0.1020 -0.6156
  600THF    H13 9740   4.724   4.211   5.109 -1.0253 -1.2687  1.7202
  601THF     O1 9741   0.980   0.291   3.298  0.6639 -0.0812 -0.0517
  601THF     C2 9742   0.999   0.399   3.386  0.7453 -0.0167 -0.4235
  601THF     C3 9743   1.106   0.259   3.245 -0.0684 -0.3880 -0.1574
  601THF     H4 9744   1.019   0.360   3.483 -0.5162 -0.2039 -2.8795
  601THF     H5 9745   0.903   0.448   3.393  1.1442  1.0418 -0.1358
  601THF     H6 9746   1.159   0.198   3.323  0.1540 -0.5101 -0.8210
  601THF     H7 9747   1.098   0.206   3.150 -3.3698 -0.6496 -0.4344
  601THF     C8 9748   1.177   0.391   3.220 -0.0063 -0.2661 -0.6811
  601THF     C9 9749   1.114   0.481   3.327  0.5698  0.1869  0.1384
  601THF    H10 9750   1.146   0.430   3.125 -0.0320 -2.7336 -2.5410
  601THF    H11 9751   1.281   0.376   3.225 -1.7007  2.0440  0.2419
  601THF    H12 9752   1.185   0.513   3.399 -0.3902  1.6303 -1.6194
  601THF    H13 9753   1.074   0.567   3.274  1.4976  1.5498 -1.1698
  602THF     O1 9754   4.309   4.812   1.491  0.6961 -0.5452 -0.2370
  602THF     C2 9755   4.296   4.731   1.372  0.6182  0.3910  0.6811
  602THF     C3 9756   4.196   4.897   1.512  0.7507 -0.1369 -0.4589
  602THF     H4 9757   4.343   4.639   1.392 -0.4846 -0.6974 -2.0500
  602THF     H5 9758   4.343   4.785   1.295 -1.8341 -0.3407 -0.4280
  602THF     H6 9759   4.178   4.925   1.616  0.2701  0.4088 -1.2951
  602THF     H7 9760   4.201   4.986   1.456  2.0531 -0.0030 -0.2426
  602THF     C8 9761   4.085   4.814   1.452 -0.4046 -0.0899 -0.5824
  602THF     C9 9762   4.151   4.730   1.344 -0.2277  0.4706 -0.0533
  602THF    H10 9763   3.997   4.865   1.415 -0.7067  1.8937 -1.7908
  602THF    H11 9764   4.074   4.734   1.527  1.7858  1.2025  0.2135
  602THF    H12 9765   4.116   4.629   1.339  0.3809 -0.0017  0.1377
  602THF    H13 9766   4.138   4.769   1.241 -0.0616 -0.6350 -1.0031
  603THF     O1 9767   5.320   4.523   3.621 -0.1640  0.1962 -0.7048
  603THF     C2 9768   5.338   4.485   3.756  0.8210  0.1237 -0.3507
  603THF     C3 9769   5.295   4.410   3.551  0.6522  0.1435  0.3037
  603THF     H4 9770   5.245   4.477   3.821 -0.0662  0.8592 -1.4327
  603THF     H5 9771   5.407   4.564   3.797 -0.9707  2.0932 -1.7659
  603THF     H6 9772   5.189   4.381   3.551 -0.5345  1.0570  1.2254
  603THF     H7 9773   5.327   4.429   3.449 -0.2462 -1.3862 -0.9618
  603THF     C8 9774   5.400   4.314   3.605  0.2201 -0.2605  0.1969
  603THF     C9 9775   5.404   4.340   3.754 -0.4857  0.5820 -0.5342
  603THF    H10 9776   5.495   4.340   3.551 -2.2118 -1.2330 -0.6773
  603THF    H11 9777   5.398   4.203   3.579 -0.6989 -1.8010 -1.8901
  603THF    H12 9778   5.330   4.278   3.799  0.6780 -0.0080  1.7045
  603THF    H13 9779   5.499   4.326   3.811  3.6210 -2.9945 -1.1986
  604THF     O1 9780   1.871   4.851   3.020  0.1635  0.3388 -0.5352
  604THF     C2 9781   1.900   4.823   3.157 -0.3167 -0.0762  0.1788
  604THF     C3 9782   1.827   4.992   3.027 -0.5195 -0.0648 -0.4452
  604THF     H4 9783   1.969   4.899   3.198  0.8109 -0.9670  4.8099
  604THF     H5 9784   1.937   4.729   3.195  0.8995  1.2183  3.8870
  604THF     H6 9785   1.907   5.063   3.032  0.2533 -0.0285 -0.0186
  604THF     H7 9786   1.773   5.020   2.940 -1.6018 -1.8447 -1.3482
  604THF     C8 9787   1.745   4.998   3.161 -0.2600 -0.0542 -0.6745
  604THF     C9 9788   1.765   4.861   3.226 -0.4516  0.0507 -0.7641
  604THF    H10 9789   1.641   5.006   3.140 -2.1522 -0.0579  1.1741
  604THF    H11 9790   1.773   5.082   3.225  0.4280 -1.3026  0.0083
  604THF    H12 9791   1.755   4.868   3.338  1.3382  2.7608  0.1347
  604THF    H13 9792   1.693   4.791   3.187  1.0264 -2.0754  0.3094
  605THF     O1 9793   3.342   5.182   0.148  0.3035  0.3525  0.0425
  605THF     C2 9794   3.411   5.153   0.039  0.5865  0.1932 -0.2554
  605THF     C3 9795   3.429   5.255   0.237  0.4978 -0.7865 -0.5108
  605THF     H4 9796   3.377   5.222  -0.038  3.1189 -0.4127 -2.7904
  605THF     H5 9797   3.376   5.051   0.012 -0.3400 -1.0235 -1.1893
  605THF     H6 9798   3.434   5.358   0.201  1.1590 -1.0374 -0.5706
  605THF     H7 9799   3.407   5.242   0.341 -0.5272  1.1627 -0.6366
  605THF     C8 9800   3.562   5.192   0.206 -0.3252  0.3785  0.1111
  605THF     C9 9801   3.564   5.172   0.059 -0.2246  0.6602  0.0353
  605THF    H10 9802   3.571   5.091   0.251  0.2819 -2.7434  0.0758
  605THF    H11 9803   3.645   5.251   0.240 -1.1747  1.7370  0.2548
  605THF    H12 9804   3.583   5.265  -0.001  0.6998 -3.2472  0.0874
  605THF    H13 9805   3.619   5.088   0.015 -0.3371  0.8307  2.6128
  606THF     O1 9806   2.379   0.907   1.434 -0.1537 -0.1232  0.5518
  606THF     C2 9807   2.289   0.794   1.441  0.4599  0.2877 -0.0360
  606THF     C3 9808   2.423   0.953   1.560 -0.5204 -0.1257 -0.2176
  606THF     H4 9809   2.350   0.704   1.431 -0.5618 -3.0788  0.0614
  606THF     H5 9810   2.210   0.781   1.367 -0.2979  0.1906 -0.9708
  606THF     H6 9811   2.530   0.926   1.577 -0.2448 -3.2093 -0.2144
  606THF     H7 9812   2.402   1.057   1.573 -0.2321  0.7654  3.8345
  606THF     C8 9813   2.345   0.883   1.668 -0.2440  0.1657  0.1234
  606THF     C9 9814   2.237   0.798   1.589 -0.4445  0.0384 -0.3721
  606THF    H10 9815   2.293   0.955   1.737  0.3700  1.2808  1.0405
  606THF    H11 9816   2.414   0.829   1.730  0.0156 -2.1391  1.3391
  606THF    H12 9817   2.219   0.700   1.646 -1.5209 -0.5047  1.8803
  606THF    H13 9818   2.142   0.843   1.598  1.4717 -0.0576 -1.1007
  607THF     O1 9819   1.274   0.975   3.552  0.5527  0.3765 -0.7322
  607THF     C2 9820   1.179   0.993   3.660 -0.4108 -0.2614  0.5262
  607THF     C3 9821   1.345   0.855   3.585  0.1985  0.1673 -0.2197
  607THF     H4 9822   1.100   0.923   3.647  1.7787  0.0194  1.5069
  607THF     H5 9823   1.142   1.090   3.646 -1.1080 -2.7251 -0.4734
  607THF     H6 9824   1.312   0.773   3.514 -1.4697 -4.2280  0.3786
  607THF     H7 9825   1.450   0.864   3.564 -1.0909  1.1825  4.6885
  607THF     C8 9826   1.328   0.829   3.734 -0.6579  0.2890  0.4017
  607THF     C9 9827   1.257   0.951   3.786 -0.1430  0.1632 -0.1647
  607THF    H10 9828   1.418   0.815   3.787 -0.9077 -1.1097  0.3478
  607THF    H11 9829   1.285   0.731   3.754  0.9289 -0.7189 -0.1029
  607THF    H12 9830   1.205   0.935   3.882 -2.4068 -0.8934  0.0697
  607THF    H13 9831   1.334   1.026   3.818 -0.1465  1.1094  3.0133
  608THF     O1 9832   1.565   5.358   4.082  0.2150 -0.6038  0.4413
  608THF     C2 9833   1.657   5.437   4.006 -0.2831 -0.0140 -0.3531
  608THF     C3 9834   1.632   5.269   4.171 -0.5574  0.0874  0.1732
  608THF     H4 9835   1.601   5.530   3.992 -1.2892 -1.9447  0.6044
  608THF     H5 9836   1.681   5.388   3.913 -0.9788  1.2991 -0.0955
  608THF     H6 9837   1.564   5.246   4.248 -2.6990 -0.5376 -0.1716
  608THF     H7 9838   1.678   5.176   4.136  0.4196 -0.3997  1.8412
  608THF     C8 9839   1.743   5.361   4.218  0.0571 -0.6275 -1.3017
  608THF     C9 9840   1.778   5.448   4.095 -0.3966 -0.2283  0.4525
  608THF    H10 9841   1.831   5.306   4.242 -1.7307  0.6000  1.5028
  608THF    H11 9842   1.721   5.427   4.307  1.1638 -0.3261  0.2787
  608THF    H12 9843   1.800   5.548   4.121 -2.1397  1.6167 -0.1434
  608THF    H13 9844   1.872   5.411   4.050  2.2640  1.9166  0.1716
  609THF     O1 9845   4.304   4.634   4.039  0.0025 -0.0940 -0.4106
  609THF     C2 9846   4.386   4.521   4.006  0.6013  0.4471  0.0799
  609THF     C3 9847   4.229   4.601   4.156  0.3973  0.6966 -0.0246
  609THF     H4 9848   4.479   4.530   4.069 -0.1321  1.8985  3.0082
  609THF     H5 9849   4.416   4.533   3.894 -0.8067 -0.8063 -1.4966
  609THF     H6 9850   4.292   4.608   4.242 -0.8871  1.8664  2.7062
  609THF     H7 9851   4.147   4.661   4.183 -0.9482 -0.5051  0.8979
  609THF     C8 9852   4.188   4.453   4.129  0.4676 -0.4267 -0.3530
  609THF     C9 9853   4.308   4.391   4.044 -0.6389 -0.0794  0.6364
  609THF    H10 9854   4.090   4.442   4.085  0.9435 -0.5339 -1.3012
  609THF    H11 9855   4.188   4.407   4.233  1.7684  3.5823  0.5185
  609THF    H12 9856   4.366   4.326   4.115 -1.7898  1.7940  0.3640
  609THF    H13 9857   4.267   4.330   3.960 -2.6248 -0.4623 -0.3266
  610THF     O1 9858   4.077   4.691   3.337 -0.1790  0.0139  0.0566
  610THF     C2 9859   4.157   4.662   3.220  0.1173  0.0113 -0.0268
  610THF     C3 9860   4.096   4.605   3.445 -0.4902  0.4941 -0.2649
  610THF     H4 9861   4.251   4.726   3.221 -0.6320  0.0253  2.1773
  610THF     H5 9862   4.103   4.672   3.126  1.5719  1.5244  0.0349
  610THF     H6 9863   4.193   4.613   3.495  0.6792  0.3535 -0.3090
  610THF     H7 9864   4.011   4.610   3.512  0.6823  0.1312  0.0420
  610THF     C8 9865   4.113   4.470   3.370 -0.2264 -0.4136  1.1942
  610THF     C9 9866   4.209   4.521   3.260  0.2926  0.1388 -0.0664
  610THF    H10 9867   4.019   4.435   3.324  2.1816 -1.0870 -1.5735
  610THF    H11 9868   4.172   4.396   3.441 -1.1564 -2.5829 -2.2827
  610THF    H12 9869   4.312   4.521   3.300 -0.5765 -0.3095  1.9944
  610THF    H13 9870   4.198   4.455   3.176 -0.4464  0.9405  0.9340
  611THF     O1 9871   2.428   4.690   1.889  0.4825  0.3760  0.0990
  611THF     C2 9872   2.471   4.670   1.756  0.7303 -0.6500  0.8868
  611THF     C3 9873   2.510   4.803   1.924 -0.0347 -0.3018 -0.9339
  611THF     H4 9874   2.407   4.594   1.715 -2.4436  2.2509  2.0554
  611THF     H5 9875   2.566   4.619   1.760 -1.5924 -2.8846 -0.3948
  611THF     H6 9876   2.476   4.846   2.019  0.4961  1.0010  0.5277
  611THF     H7 9877   2.616   4.781   1.932 -0.4050 -2.0339 -1.5158
  611THF     C8 9878   2.502   4.893   1.804 -0.2299 -0.6392 -0.4896
  611THF     C9 9879   2.479   4.802   1.686  0.0112  0.3925 -0.2875
  611THF    H10 9880   2.590   4.958   1.785 -1.4060  0.3680  1.0056
  611THF    H11 9881   2.419   4.961   1.815  1.1478  2.1100 -0.5453
  611THF    H12 9882   2.386   4.832   1.636  1.9183 -1.5146  0.7410
  611THF    H13 9883   2.555   4.819   1.608 -0.8781 -0.3212  0.8918
  612THF     O1 9884   0.205   5.058   1.401  0.1400 -0.5599  0.1212
  612THF     C2 9885   0.246   5.164   1.318  0.0877  0.0894 -0.0011
  612THF     C3 9886   0.076   5.089   1.443 -0.1578 -0.6105  0.6052
  612THF     H4 9887   0.334   5.151   1.255  3.8056 -1.1398 -0.8437
  612THF     H5 9888   0.281   5.251   1.374  0.3342 -0.0646  1.9698
  612THF     H6 9889   0.019   5.002   1.481 -0.6224  1.2237 -0.2347
  612THF     H7 9890   0.080   5.170   1.522 -1.0173  1.8423  1.2316
  612THF     C8 9891   0.007   5.159   1.324 -0.5183 -0.6982  0.7557
  612THF     C9 9892   0.125   5.197   1.232  0.2452 -0.0332  0.1354
  612THF    H10 9893  -0.058   5.250   1.355 -0.8714  3.7561  1.0394
  612THF    H11 9894  -0.064   5.082   1.287  2.0453  2.4486 -0.4227
  612THF    H12 9895   0.128   5.136   1.142 -0.9297  0.6260  1.5682
  612THF    H13 9896   0.122   5.303   1.208  0.7058 -1.1552 -0.4906
  613THF     O1 9897   0.092   1.286   2.262  0.1731  0.3979  0.0016
  613THF     C2 9898   0.042   1.369   2.371 -0.2079 -0.4631 -0.4566
  613THF     C3 9899   0.179   1.190   2.326 -1.1722  0.4565 -0.6454
  613THF     H4 9900  -0.021   1.314   2.441  2.3178 -0.4449  0.4236
  613THF     H5 9901  -0.010   1.463   2.332  0.4943 -1.1138 -2.0635
  613THF     H6 9902   0.119   1.098   2.354 -4.0113 -0.1852  1.8021
  613THF     H7 9903   0.259   1.153   2.257 -0.4140  0.8658 -0.4232
  613THF     C8 9904   0.235   1.262   2.445  0.0178  0.4920 -0.4718
  613THF     C9 9905   0.164   1.393   2.455 -0.3063  0.0995  0.5016
  613THF    H10 9906   0.339   1.278   2.433 -3.7502 -1.5519  1.5281
  613THF    H11 9907   0.215   1.192   2.521  3.0739  2.3105 -0.4693
  613THF    H12 9908   0.140   1.435   2.556  2.8295  2.0007  2.1298
  613THF    H13 9909   0.242   1.469   2.419  2.3491  1.7791  0.1193
  614THF     O1 9910   4.503   2.714   4.680 -0.8836 -0.1641 -0.2563
  614THF     C2 9911   4.543   2.625   4.790  0.5879  0.7323 -0.1700
  614THF     C3 9912   4.526   2.850   4.738 -0.4699  0.2516 -0.2529
  614THF     H4 9913   4.546   2.518   4.759 -1.7545  0.8965 -2.5909
  614THF     H5 9914   4.462   2.626   4.865 -0.6314 -0.4031  3.2533
  614THF     H6 9915   4.532   2.938   4.671 -0.8883 -3.5300 -0.9495
  614THF     H7 9916   4.439   2.874   4.800  0.2337 -0.0748 -0.9949
  614THF     C8 9917   4.649   2.835   4.820  0.3828  0.2079  0.8504
  614THF     C9 9918   4.672   2.689   4.841 -0.3374 -0.1090  0.0656
  614THF    H10 9919   4.641   2.885   4.917 -1.3309 -0.5232  1.4910
  614THF    H11 9920   4.729   2.876   4.761 -0.6208 -1.8219 -1.6038
  614THF    H12 9921   4.756   2.671   4.768  0.3590 -1.1679 -1.7517
  614THF    H13 9922   4.698   2.667   4.949 -1.3171 -1.1146  1.3943
  615THF     O1 9923   1.869   3.680   3.018  0.0504  0.0197  0.2606
  615THF     C2 9924   1.983   3.747   2.963  0.1379  0.1594  0.4903
  615THF     C3 9925   1.749   3.741   2.971 -0.0884  0.0697 -0.5570
  615THF     H4 9926   2.059   3.673   2.945  1.3126 -0.3174 -0.3175
  615THF     H5 9927   2.029   3.818   3.030  0.6446 -0.4682 -2.5807
  615THF     H6 9928   1.675   3.662   2.968 -1.6503  1.2813  0.7756
  615THF     H7 9929   1.724   3.829   3.039 -0.0667  1.7833  2.3756
  615THF     C8 9930   1.785   3.778   2.823 -1.3234  0.7010  0.3723
  615THF     C9 9931   1.936   3.810   2.833 -0.4026 -0.5842 -0.3520
  615THF    H10 9932   1.721   3.853   2.783  2.1872 -1.1958 -1.2459
  615THF    H11 9933   1.768   3.689   2.760  1.7059 -0.2651 -2.2290
  615THF    H12 9934   1.996   3.775   2.745  1.6305 -0.6722  0.3307
  615THF    H13 9935   1.939   3.924   2.842  0.8401  1.6861 -0.0492
  616THF     O1 9936   0.696   3.929   0.047  0.2963 -0.3904  0.2880
  616THF     C2 9937   0.775   4.026   0.116 -0.3069  0.6661  0.1824
  616THF     C3 9938   0.767   3.895  -0.073  0.3995 -0.2633 -0.5419
  616THF     H4 9939   0.761   4.030   0.224  0.8468 -0.6995  0.0541
  616THF     H5 9940   0.733   4.119   0.087  3.1214  0.8283  0.5923
  616THF     H6 9941   0.733   3.802  -0.104  0.4656  2.5235 -4.6848
  616THF     H7 9942   0.738   3.976  -0.139 -0.6378 -0.1877  0.0751
  616THF     C8 9943   0.916   3.908  -0.040 -0.3119 -0.3456 -1.2381
  616THF     C9 9944   0.919   4.021   0.063  0.0913 -0.5842  0.9315
  616THF    H10 9945   0.991   3.922  -0.121  2.0832 -0.3703 -0.2037
  616THF    H11 9946   0.938   3.815   0.012  1.4420 -0.3875  0.1967
  616THF    H12 9947   0.992   4.011   0.145 -0.1141 -1.7873 -0.2966
  616THF    H13 9948   0.948   4.117   0.013  2.8223  2.9313 -0.8732
  617THF     O1 9949   3.986   2.030   3.647  0.3835  0.8793 -0.6160
  617THF     C2 9950   3.948   1.943   3.756 -0.0224  0.0659  0.3367
  617THF     C3 9951   3.868   2.074   3.583 -0.2101 -0.1457  0.3489
  617THF     H4 9952   4.023   1.935   3.827  0.5228 -1.3906 -0.9863
  617THF     H5 9953   3.937   1.848   3.703  0.9287  0.8991 -3.4417
  617THF     H6 9954   3.909   2.155   3.518 -2.3831  2.2606 -2.0590
  617THF     H7 9955   3.827   1.988   3.530  2.2748 -1.1924  1.7351
  617THF     C8 9956   3.794   2.124   3.706 -0.4934 -0.2496 -0.2716
  617THF     C9 9957   3.818   2.007   3.805 -0.6672  0.2110 -1.2652
  617THF    H10 9958   3.690   2.145   3.700  3.2708 -2.8944  2.1174
  617THF    H11 9959   3.839   2.207   3.757 -1.4173  1.9019 -2.1656
  617THF    H12 9960   3.823   2.034   3.909 -1.0299  0.6966 -0.2956
  617THF    H13 9961   3.740   1.935   3.801  0.0380  1.0018 -2.5540
  618THF     O1 9962   3.120   1.654   3.986 -0.1014  0.0285  0.0063
  618THF     C2 9963   3.040   1.609   3.875  0.0030  0.4844 -0.2564
  618THF     C3 9964   3.059   1.780   4.024 -1.0250 -1.1894  0.1885
  618THF     H4 9965   2.937   1.581   3.904 -0.3864 -0.2707 -1.0213
  618THF     H5 9966   3.086   1.519   3.827 -1.0630 -0.5253  0.0956
  618THF     H6 9967   2.991   1.767   4.104  0.9643 -0.3753  1.1979
  618THF     H7 9968   3.143   1.837   4.066  1.4072 -1.4280 -1.1171
  618THF     C8 9969   3.000   1.842   3.889  0.1163  0.2469 -0.0438
  618THF     C9 9970   3.025   1.733   3.788 -0.0920  0.5044 -0.0870
  618THF    H10 9971   3.042   1.934   3.850 -0.5998 -0.5688  1.6348
  618THF    H11 9972   2.896   1.861   3.899 -0.8153  2.6697 -3.0045
  618THF    H12 9973   2.938   1.720   3.724 -1.5811 -1.8866  3.0585
  618THF    H13 9974   3.116   1.743   3.729  1.0749 -0.3450 -3.0510
  619THF     O1 9975   0.114   4.611   3.265 -0.2858 -0.1025 -0.6126
  619THF     C2 9976   0.060   4.618   3.134  0.7737 -0.2698 -0.4667
  619THF     C3 9977   0.081   4.730   3.332  0.8482 -0.6663 -0.9878
  619THF     H4 9978  -0.009   4.532   3.119  1.5014 -1.3666 -1.4721
  619THF     H5 9979   0.135   4.626   3.056  1.4883 -0.5760 -0.3535
  619THF     H6 9980  -0.014   4.720   3.389  2.6589  3.0046 -1.0022
  619THF     H7 9981   0.167   4.768   3.404  0.7035 -1.8236  1.9273
  619THF     C8 9982   0.052   4.834   3.223  0.3973  0.1608  0.0563
  619THF     C9 9983  -0.031   4.744   3.129  0.1309 -0.4420  0.2232
  619THF    H10 9984   0.142   4.867   3.175 -0.2365 -2.0173  0.3130
  619THF    H11 9985  -0.008   4.914   3.256 -1.2970  0.7449  1.0975
  619THF    H12 9986  -0.129   4.730   3.161  1.5467 -0.0743  0.2558
  619THF    H13 9987  -0.031   4.797   3.031  2.2133  1.1251  0.5550
  620THF     O1 9988   3.779   2.977   0.453 -0.1662  0.0432  0.3795
  620THF     C2 9989   3.808   2.858   0.527 -0.5369 -0.4286 -0.4963
  620THF     C3 9990   3.665   2.946   0.365  0.2575  0.1081 -0.1484
  620THF     H4 9991   3.733   2.840   0.602  0.1069 -1.5873 -1.3545
  620THF     H5 9992   3.911   2.852   0.561  1.1752 -1.6708 -0.8463
  620THF     H6 9993   3.576   2.939   0.428 -0.5152  0.1253 -0.7682
  620THF     H7 9994   3.646   3.023   0.300  0.5961  0.1081 -0.0997
  620THF     C8 9995   3.698   2.806   0.313 -0.7266  0.1839  0.3382
  620THF     C9 9996   3.792   2.750   0.421 -0.2453  0.3771  0.1875
  620THF    H10 9997   3.754   2.821   0.216 -0.0907 -2.3678  0.3725
  620THF    H11 9998   3.601   2.756   0.293 -4.3531 -2.3264 -0.6105
  620THF    H12 9999   3.758   2.650   0.462 -0.0751 -0.9976  0.1818
  620THF    H1310000   3.890   2.733   0.380 -0.7384  0.3898 -0.3912
  621THF     O110001   4.768   5.002   4.287  0.4076 -0.0121  0.0183
  621THF     C210002   4.737   5.125   4.228 -1.1222  0.3459 -0.7320
  621THF     C310003   4.892   4.969   4.219  0.0315 -0.0071  0.3153
  621THF     H410004   4.788   5.216   4.267  2.0043  0.5201 -0.4084
  621THF     H510005   4.635   5.147   4.240  0.5328 -0.0333 -0.7886
  621THF     H610006   4.976   5.026   4.261  0.6023 -0.3313 -3.6700
  621THF     H710007   4.919   4.867   4.234  0.2149  1.4020  3.0918
  621THF     C810008   4.878   5.009   4.076  0.1899  0.1028  0.0959
  621THF     C910009   4.781   5.125   4.079 -0.4363  0.0181  0.4650
  621THF    H1010010   4.832   4.928   4.019 -2.1086  0.0399 -1.1690
  621THF    H1110011   4.968   5.047   4.039  0.1739  2.4536  0.9793
  621THF    H1210012   4.823   5.228   4.051  1.8082  2.1693  1.7369
  621THF    H1310013   4.690   5.101   4.019 -0.8093 -2.9538  2.1415
  622THF     O110014   0.666   3.636   0.169 -0.9725  0.4547  0.5331
  622THF     C210015   0.792   3.578   0.162 -0.0177 -0.1347  0.0461
  622THF     C310016   0.563   3.568   0.091 -0.7739  0.6627 -0.2990
  622THF     H410017   0.799   3.512   0.243 -1.5204  1.3639 -2.7085
  622THF     H510018   0.880   3.648   0.159  0.2852 -0.8158 -0.1848
  622THF     H610019   0.485   3.534   0.158  0.7638 -0.8755  0.5744
  622THF     H710020   0.523   3.645   0.019 -3.5211  0.5000  0.4159
  622THF     C810021   0.647   3.459   0.020  0.6692 -0.2046 -0.1143
  622THF     C910022   0.789   3.508   0.026  0.4354 -0.7707  0.0285
  622THF    H1010023   0.610   3.452  -0.088  0.2599  2.7105  1.3352
  622THF    H1110024   0.637   3.363   0.066 -1.2127 -0.5528  0.5621
  622THF    H1210025   0.862   3.427   0.012  0.1236 -1.2981 -1.4401
  622THF    H1310026   0.791   3.587  -0.050 -1.7817 -1.1701  2.2861
  623THF     O110027   0.535   2.911   5.196 -0.4557 -0.1908  0.3965
  623THF     C210028   0.414   2.932   5.267 -0.5202 -0.2323 -0.4677
  623THF     C310029   0.646   2.904   5.280  0.3765 -0.2394 -0.0488
  623THF     H410030   0.337   2.885   5.212  1.2456  2.3396 -2.0794
  623THF     H510031   0.400   3.038   5.275  1.6107 -0.7029  0.8325
  623THF     H610032   0.733   2.850   5.246  1.0179 -2.3029  1.7258
  623THF     H710033   0.678   2.992   5.325  0.7970  0.1187 -0.2569
  623THF     C810034   0.584   2.822   5.398  0.2068 -0.3141  0.8333
  623THF     C910035   0.431   2.848   5.395 -0.3748 -0.7749 -0.4417
  623THF    H1010036   0.641   2.846   5.491 -2.5168  1.3083  2.2930
  623THF    H1110037   0.601   2.709   5.392 -1.9835 -0.5551 -0.8521
  623THF    H1210038   0.370   2.762   5.373 -0.7174 -1.9854  0.5756
  623THF    H1310039   0.400   2.893   5.490  0.3341 -0.2014 -0.5778
  624THF     O110040   1.775   3.520   4.427 -0.7362 -0.1968  0.2925
  624THF     C210041   1.645   3.473   4.466  0.0210 -0.3773 -0.4912
  624THF     C310042   1.776   3.572   4.293  0.0942  0.5831 -0.4203
  624THF     H410043   1.635   3.500   4.566  1.5938  0.1444  0.5264
  624THF     H510044   1.629   3.370   4.454  0.6096  1.2275 -0.5280
  624THF     H610045   1.815   3.671   4.310 -0.6256  0.7702 -0.8144
  624THF     H710046   1.842   3.511   4.231  2.9759 -0.4042  0.7244
  624THF     C810047   1.626   3.573   4.254 -0.6301 -0.5188 -0.1494
  624THF     C910048   1.556   3.560   4.380 -0.1694 -0.0730  0.4888
  624THF    H1010049   1.610   3.490   4.190  1.6458  0.3400 -0.3592
  624THF    H1110050   1.596   3.664   4.199  0.2277 -0.3959  0.8186
  624THF    H1210051   1.555   3.660   4.416  0.6627  0.6263 -3.1663
  624THF    H1310052   1.462   3.513   4.369  0.0802 -0.3155  0.2392
  625THF     O110053   4.152   4.149   3.246 -0.5232 -0.0213 -0.2654
  625THF     C210054   4.240   4.171   3.136  0.2758  1.2991 -0.8356
  625THF     C310055   4.089   4.025   3.227 -0.2265  0.0697  0.4021
  625THF     H410056   4.343   4.197   3.171  0.2696  0.5219  2.4425
  625THF     H510057   4.201   4.254   3.077  0.0331 -0.3053  1.2721
  625THF     H610058   4.083   3.962   3.318 -1.0192 -4.9131  0.6784
  625THF     H710059   3.987   4.050   3.200  0.0130 -1.2443 -0.5328
  625THF     C810060   4.168   3.951   3.123 -0.1087 -0.3612 -0.6630
  625THF     C910061   4.229   4.056   3.035  0.4218 -0.7265  0.2574
  625THF    H1010062   4.098   3.896   3.065 -0.0988 -1.7823  1.3224
  625THF    H1110063   4.246   3.885   3.176 -0.1729 -3.6571  1.5631
  625THF    H1210064   4.317   4.023   2.990 -0.0354  0.9674 -1.4411
  625THF    H1310065   4.163   4.103   2.960  0.1365  1.3402  2.8712
  626THF     O110066   4.944   3.688   3.276 -0.4175  0.2749  0.4321
  626THF     C210067   4.997   3.646   3.148  0.2408 -0.4349  0.3496
  626THF     C310068   4.814   3.742   3.259  0.0629 -0.0185  0.0973
  626THF     H410069   4.981   3.542   3.165 -1.4357  0.8925  0.3433
  626THF     H510070   5.100   3.674   3.134  3.3899  1.4737 -2.4554
  626THF     H610071   4.743   3.681   3.310  0.3658 -0.6625  0.9892
  626THF     H710072   4.815   3.846   3.293  3.6130 -0.6136  2.4983
  626THF     C810073   4.775   3.716   3.111  0.1668  0.5658  0.7130
  626THF     C910074   4.907   3.710   3.039  0.4664  0.3059  0.1846
  626THF    H1010075   4.708   3.784   3.066  2.0606  1.5045 -1.6062
  626THF    H1110076   4.721   3.621   3.107 -0.4638  0.6864  0.6438
  626THF    H1210077   4.906   3.651   2.956  1.4036  1.3066  0.3112
  626THF    H1310078   4.928   3.816   3.014 -0.7313 -0.7879 -0.6962
  627THF     O110079   0.396   2.927   3.974  0.2013  0.4059  0.3819
  627THF     C210080   0.307   2.910   3.859  1.0939  0.4696  0.2606
  627THF     C310081   0.364   3.050   4.028  0.0055 -0.0216 -0.2724
  627THF     H410082   0.298   2.800   3.839 -0.6519 -1.6265  0.5660
  627THF     H510083   0.337   2.964   3.771 -1.4071  0.5348  2.1692
  627THF     H610084   0.381   3.049   4.137  1.4268  0.3151  1.2543
  627THF     H710085   0.416   3.128   3.971 -2.2673 -2.3439 -0.3987
  627THF     C810086   0.217   3.064   4.006  0.3205 -0.1590  0.1536
  627THF     C910087   0.176   2.944   3.921 -0.4038 -0.6763  0.2834
  627THF    H1010088   0.186   3.161   3.957  0.9159  0.6501 -1.5023
  627THF    H1110089   0.166   3.067   4.099 -0.1159 -0.9230  0.1140
  627THF    H1210090   0.150   2.863   3.991  0.4991 -0.9510 -0.2724
  627THF    H1310091   0.090   2.960   3.851  0.3526 -0.4596 -0.5842
  628THF     O110092   2.584   1.768   5.147  0.3496  0.4964 -1.0910
  628THF     C210093   2.494   1.877   5.117 -0.4057 -0.2010  0.4754
  628THF     C310094   2.716   1.808   5.186 -0.5008  0.4023 -0.5252
  628THF     H410095   2.411   1.878   5.188 -0.6330 -0.0847 -1.9923
  628THF     H510096   2.453   1.863   5.015  0.5788  0.1653 -0.5092
  628THF     H610097   2.763   1.757   5.261  2.9753  0.3806  1.3569
  628THF     H710098   2.776   1.816   5.096 -1.5918 -1.2464 -1.9129
  628THF     C810099   2.688   1.954   5.217  0.2340 -0.0811 -0.5664
  628THF     C910100   2.575   1.998   5.132  0.2899  0.3003 -0.3612
  628THF    H1010101   2.779   2.014   5.205  1.4667 -0.8720  0.8728
  628THF    H1110102   2.664   1.967   5.326  1.0199  2.2665 -0.9113
  628THF    H1210103   2.506   2.075   5.179  0.1626 -0.3477 -2.3486
  628THF    H1310104   2.611   2.038   5.040  0.7520 -0.9045  2.1723
  629THF     O110105   5.308   0.394   2.865 -0.7894 -0.1373  0.1574
  629THF     C210106   5.428   0.413   2.783 -0.0836  0.2136  0.5668
  629THF     C310107   5.354   0.309   2.971 -0.0357  0.5033  0.2444
  629THF     H410108   5.412   0.492   2.702  2.3783 -0.5353 -2.0290
  629THF     H510109   5.451   0.314   2.738  1.3946 -0.7085 -0.8871
  629THF     H610110   5.271   0.304   3.049 -0.1853  3.6794 -0.8528
  629THF     H710111   5.364   0.210   2.941  2.9628  1.1781  0.5442
  629THF     C810112   5.492   0.365   3.004 -0.1768  0.4329 -0.3940
  629THF     C910113   5.543   0.444   2.877 -0.1960  0.6056  0.2874
  629THF    H1010114   5.565   0.279   3.019  1.5143  1.7115 -1.2991
  629THF    H1110115   5.497   0.421   3.092 -3.1589  0.2817  1.3245
  629THF    H1210116   5.539   0.549   2.902  0.1910  1.6176  2.3188
  629THF    H1310117   5.639   0.413   2.832  1.1948 -0.2061 -0.4346
  630THF     O110118   2.435   0.922   4.730 -0.2878  0.6581 -0.7125
  630THF     C210119   2.315   0.936   4.660  0.5979 -0.2109  0.0476
  630THF     C310120   2.425   0.988   4.856 -0.0351 -0.7254 -0.1578
  630THF     H410121   2.257   0.848   4.656 -1.4165  1.3838 -0.8996
  630THF     H510122   2.347   0.953   4.558  3.1505 -3.2248 -2.1676
  630THF     H610123   2.370   0.920   4.927  1.0961  1.6222 -0.2283
  630THF     H710124   2.523   1.013   4.896 -2.4381  2.9686  2.5387
  630THF     C810125   2.347   1.114   4.833 -0.2489  0.2020  0.6297
  630THF     C910126   2.243   1.056   4.728  1.0397 -0.1029  0.7805
  630THF    H1010127   2.403   1.188   4.783  1.1122 -3.2351  1.4974
  630THF    H1110128   2.297   1.157   4.930 -2.0240 -0.3085 -0.1537
  630THF    H1210129   2.148   1.025   4.771  2.1367  1.4081 -0.8806
  630THF    H1310130   2.210   1.133   4.657  1.1292 -0.8730  0.4395
  631THF     O110131   4.567   4.279   4.369  0.4489 -0.1314  0.1490
  631THF     C210132   4.444   4.325   4.436 -0.4319  0.2212 -0.6427
  631THF     C310133   4.611   4.153   4.428 -0.3824  0.7661  0.1771
  631THF     H410134   4.363   4.298   4.372  1.4128  0.2496 -1.8096
  631THF     H510135   4.439   4.436   4.434 -0.2384  2.9435  2.9013
  631THF     H610136   4.620   4.073   4.359  1.4850 -1.5418  1.3047
  631THF     H710137   4.716   4.176   4.460  0.1303 -0.4186  1.5467
  631THF     C810138   4.517   4.121   4.543 -0.4658 -0.1287 -0.9712
  631THF     C910139   4.448   4.257   4.576 -0.0396  1.1336 -0.9745
  631THF    H1010140   4.570   4.077   4.628  1.7986 -2.2016 -1.9306
  631THF    H1110141   4.443   4.057   4.505 -0.8839  2.1046  3.1146
  631THF    H1210142   4.352   4.242   4.630  0.0236 -1.0700  0.0491
  631THF    H1310143   4.520   4.320   4.632  2.0061 -1.0475  0.9988
  632THF     O110144   3.206   1.745   2.386 -0.3256 -0.0760  0.2665
  632THF     C210145   3.187   1.844   2.481 -0.6554 -0.2040 -0.3219
  632THF     C310146   3.331   1.769   2.328  0.5884  0.1397  0.6268
  632THF     H410147   3.240   1.808   2.565  0.0322  1.9606  2.2683
  632THF     H510148   3.084   1.866   2.510  1.9699  1.3707 -0.3291
  632THF     H610149   3.403   1.712   2.389 -0.2070  1.6106  0.6180
  632THF     H710150   3.342   1.719   2.237  0.0706  1.6519  0.1985
  632THF     C810151   3.348   1.916   2.327  0.3789 -0.2951  0.3882
  632THF     C910152   3.250   1.967   2.432 -0.0689  0.5348 -0.5158
  632THF    H1010153   3.323   1.959   2.228 -2.6809  0.4269 -0.7735
  632THF    H1110154   3.454   1.942   2.341  0.3347  1.6128  1.2225
  632THF    H1210155   3.313   2.012   2.510  0.2756 -0.3995  0.0976
  632THF    H1310156   3.186   2.040   2.385  2.8350 -1.8350 -0.3913
  633THF     O110157   3.244   4.803   0.985 -0.0761 -0.2200 -0.4709
  633THF     C210158   3.229   4.749   0.863  0.2240  0.5234 -0.5803
  633THF     C310159   3.225   4.696   1.083 -0.0538 -0.0529  0.2210
  633THF     H410160   3.318   4.694   0.831  3.0863 -0.3231  0.6464
  633THF     H510161   3.208   4.830   0.795 -0.8490  0.8470  1.6348
  633THF     H610162   3.316   4.636   1.088 -0.3678 -1.0167 -0.8175
  633THF     H710163   3.211   4.740   1.185  2.6598  0.1031  2.1819
  633THF     C810164   3.110   4.613   1.036 -0.3316  0.1952  0.4423
  633THF     C910165   3.113   4.646   0.886  0.0633 -0.2126 -0.7677
  633THF    H1010166   3.024   4.658   1.083  0.3986 -0.0235  0.7368
  633THF    H1110167   3.117   4.506   1.061  4.2101 -0.9793 -1.5129
  633THF    H1210168   3.127   4.569   0.815 -0.5588  1.1145 -0.8767
  633THF    H1310169   3.019   4.697   0.863 -3.6399  1.6494  0.0340
  634THF     O110170   1.454   1.798   2.917  0.0703  0.2196  0.1005
  634THF     C210171   1.548   1.860   3.001  0.2527 -0.6723 -0.0677
  634THF     C310172   1.443   1.877   2.799 -0.9089 -0.0808 -0.2591
  634THF     H410173   1.581   1.784   3.069 -3.1719  0.1548 -0.7572
  634THF     H510174   1.513   1.943   3.062 -0.5237 -0.6933  1.7507
  634THF     H610175   1.411   1.814   2.712  0.5006 -1.4212 -1.7968
  634THF     H710176   1.371   1.949   2.812 -1.1073  0.2172  1.6387
  634THF     C810177   1.572   1.944   2.771 -0.1858  0.6363  0.5460
  634THF     C910178   1.650   1.914   2.902  0.3044  0.3889  0.5057
  634THF    H1010179   1.551   2.049   2.748 -1.2136  1.7017  0.2789
  634THF    H1110180   1.612   1.887   2.683  0.4307  0.1176  2.4408
  634THF    H1210181   1.729   1.844   2.884  0.4446 -2.3597 -0.6124
  634THF    H1310182   1.696   2.003   2.936 -0.2327  0.6291 -0.3986
  635THF     O110183   2.194   2.459   1.611 -0.6058  0.2058 -0.8750
  635THF     C210184   2.327   2.436   1.645  0.0838  0.3885  0.0381
  635THF     C310185   2.128   2.500   1.727 -0.1248  0.4368 -0.1805
  635THF     H410186   2.395   2.493   1.583  1.7921  1.8183  2.7814
  635THF     H510187   2.344   2.330   1.623 -1.7743 -0.0962  0.5533
  635THF     H610188   2.129   2.605   1.737  1.2339  2.4620 -0.2453
  635THF     H710189   2.028   2.463   1.733 -0.4804  1.7647 -1.1436
  635THF     C810190   2.206   2.445   1.841 -0.2220  0.0130 -0.3902
  635THF     C910191   2.348   2.477   1.790 -0.2605 -1.1291  0.1041
  635THF    H1010192   2.195   2.342   1.868  1.2929 -2.9435 -1.5927
  635THF    H1110193   2.192   2.507   1.927 -0.5021  0.4560  0.4110
  635THF    H1210194   2.372   2.580   1.792 -0.0515  1.2165 -1.8333
  635THF    H1310195   2.424   2.421   1.844  1.2501 -3.0483 -0.5119
  636THF     O110196   5.452   3.615   2.253  0.0344 -0.6756 -0.5679
  636THF     C210197   5.554   3.587   2.161 -0.5969  1.4244  0.2698
  636THF     C310198   5.519   3.705   2.344 -0.1868  0.1624  0.0591
  636THF     H410199   5.560   3.677   2.099 -2.2683 -1.1368  0.1953
  636THF     H510200   5.519   3.498   2.113 -0.0089 -1.9581 -0.5653
  636THF     H610201   5.509   3.811   2.325  0.2538  0.2709  1.3403
  636THF     H710202   5.470   3.695   2.441  1.3652  0.5484 -0.1419
  636THF     C810203   5.664   3.656   2.360 -0.1918  0.8127 -0.1419
  636THF     C910204   5.681   3.567   2.239  0.9212  0.2030  0.3500
  636THF    H1010205   5.674   3.601   2.451 -0.1878  0.0261 -1.4780
  636THF    H1110206   5.727   3.745   2.370 -1.1107 -1.7167 -1.1403
  636THF    H1210207   5.771   3.593   2.185 -0.6933  0.8850 -2.2927
  636THF    H1310208   5.697   3.459   2.261  0.8852 -0.1912 -2.5902
  637THF     O110209   0.419   4.713   0.091 -0.2033  0.1636  0.5680
  637THF     C210210   0.527   4.778   0.025 -0.5969  0.0461  0.9767
  637THF     C310211   0.340   4.807   0.165 -1.4063 -0.4609  0.3018
  637THF     H410212   0.499   4.805  -0.078  0.0493  0.4924  0.4639
  637THF     H510213   0.624   4.731   0.018  1.3515  3.2969  0.3560
  637THF     H610214   0.239   4.810   0.127  2.5483 -0.1178  0.6412
  637THF     H710215   0.346   4.769   0.263  0.7907  1.4840 -1.6975
  637THF     C810216   0.411   4.945   0.152  0.2491 -0.0721  0.0047
  637THF     C910217   0.549   4.898   0.112 -0.2031  0.2730 -0.3042
  637THF    H1010218   0.418   4.995   0.246  0.0645 -1.3325 -1.0495
  637THF    H1110219   0.370   5.014   0.074  0.1315 -0.9275 -4.1665
  637THF    H1210220   0.607   4.978   0.060  1.4102 -2.7846  2.1986
  637THF    H1310221   0.603   4.857   0.192 -0.3296  2.5431 -2.0593
  638THF     O110222   2.531   2.153   1.155 -0.6655 -0.2456  0.2797
  638THF     C210223   2.448   2.184   1.266  0.5426 -0.4972 -0.2266
  638THF     C310224   2.666   2.153   1.184  0.4974 -0.1308  0.9910
  638THF     H410225   2.354   2.123   1.263  1.1497 -0.7397 -0.3433
  638THF     H510226   2.419   2.290   1.260 -0.9113 -4.3635 -0.9545
  638THF     H610227   2.717   2.053   1.171  1.0600 -2.1218  0.3842
  638THF     H710228   2.715   2.218   1.118 -3.8919 -2.8389  1.1645
  638THF     C810229   2.680   2.206   1.328  0.0456  0.8423  0.3146
  638THF     C910230   2.544   2.160   1.383 -0.0675 -0.7342 -0.4382
  638THF    H1010231   2.676   2.309   1.331 -1.1926 -2.8920 -1.0862
  638THF    H1110232   2.767   2.162   1.375 -2.9261  1.7588  0.9109
  638THF    H1210233   2.540   2.056   1.421 -2.6089 -3.0477 -0.8012
  638THF    H1310234   2.507   2.215   1.476  0.4708  1.3746  1.0984
  639THF     O110235   1.115   3.532   1.651  0.2100 -0.3415 -0.0897
  639THF     C210236   1.019   3.612   1.580  0.0078 -0.2353 -0.2961
  639THF     C310237   1.247   3.547   1.596  0.1614 -0.3822  0.6039
  639THF     H410238   0.939   3.646   1.647  2.0837  2.3026  2.6975
  639THF     H510239   0.973   3.555   1.502  1.7377  1.1386  0.6494
  639THF     H610240   1.324   3.592   1.665  0.7367 -0.8648 -0.0939
  639THF     H710241   1.280   3.458   1.553 -1.4964 -0.8706 -1.4531
  639THF     C810242   1.236   3.649   1.483 -0.1859  1.0604 -0.0318
  639THF     C910243   1.101   3.719   1.517 -0.6324 -0.7558 -0.3242
  639THF    H1010244   1.252   3.599   1.392  1.5484  3.4405 -0.8756
  639THF    H1110245   1.309   3.734   1.487  1.1054  1.5071  0.8924
  639THF    H1210246   1.099   3.805   1.581 -1.0380 -0.4290  1.8237
  639THF    H1310247   1.042   3.741   1.430  3.8668 -1.0431 -1.1364
  640THF     O110248   5.480   4.101   2.299  0.3959  0.5918 -0.9270
  640THF     C210249   5.485   4.145   2.442 -0.1296 -0.0656 -0.1520
  640THF     C310250   5.347   4.059   2.270  0.1246  0.6209  0.3176
  640THF     H410251   5.468   4.248   2.442 -1.8996 -2.8038 -2.8810
  640THF     H510252   5.582   4.132   2.494  0.9378 -0.7167  0.1787
  640THF     H610253   5.319   4.114   2.182 -0.0590  1.7369 -1.9212
  640THF     H710254   5.340   3.958   2.231  0.4135 -3.2082 -0.6466
  640THF     C810255   5.261   4.088   2.397 -0.4665  0.1597 -0.0473
  640THF     C910256   5.367   4.078   2.509  0.2629  0.3910  0.3756
  640THF    H1010257   5.182   4.018   2.403 -1.0353 -0.9184  0.1494
  640THF    H1110258   5.223   4.182   2.398  2.3938 -0.7130 -0.8076
  640THF    H1210259   5.328   4.125   2.604 -0.2417 -0.6751 -1.1985
  640THF    H1310260   5.382   3.972   2.537 -2.3140 -0.7802  2.0616
  641THF     O110261   5.043   0.107   4.210 -0.2642 -0.1387  0.2781
  641THF     C210262   5.083  -0.016   4.164 -0.3182  0.6945  0.3131
  641THF     C310263   5.068   0.117   4.343  0.2885 -0.1465 -0.3408
  641THF     H410264   5.190  -0.031   4.162  0.8647  1.2377  0.8093
  641THF     H510265   5.037  -0.041   4.068 -2.7867 -1.3594  0.2369
  641THF     H610266   5.173   0.137   4.364  0.9902 -0.7589 -0.2903
  641THF     H710267   5.008   0.192   4.384  0.0007 -0.1624  0.2773
  641THF     C810268   5.018  -0.014   4.398 -0.8246  0.7118  0.1448
  641THF     C910269   5.019  -0.103   4.276  0.0382 -0.0150  0.5999
  641THF    H1010270   4.916  -0.007   4.435 -1.4606  3.3031 -2.2674
  641THF    H1110271   5.071  -0.061   4.483  0.1491  0.0185 -2.7271
  641THF    H1210272   5.079  -0.192   4.280 -0.8788 -0.1014  0.1819
  641THF    H1310273   4.915  -0.132   4.241 -1.3219  0.1859  2.7856
  642THF     O110274   5.416   2.773   2.744  0.2488 -0.2219  0.1276
  642THF     C210275   5.399   2.702   2.621  0.1937 -0.3971 -0.2887
  642THF     C310276   5.547   2.745   2.796 -0.1504 -0.4770 -0.8758
  642THF     H410277   5.327   2.765   2.561 -1.1950 -1.4647  1.5269
  642THF     H510278   5.363   2.598   2.634 -0.1302 -1.4920  0.3396
  642THF     H610279   5.576   2.843   2.835 -2.0524  2.5990 -0.1779
  642THF     H710280   5.552   2.681   2.889 -0.3432 -2.7496 -0.1546
  642THF     C810281   5.630   2.691   2.676 -0.1872 -0.1343  0.0182
  642THF     C910282   5.535   2.698   2.556  0.2215 -0.6345 -0.1762
  642THF    H1010283   5.662   2.591   2.687  0.5179  0.9656  0.9960
  642THF    H1110284   5.729   2.749   2.676 -2.7464  1.4939 -1.0279
  642THF    H1210285   5.538   2.795   2.505 -0.0549 -1.2666  0.1891
  642THF    H1310286   5.544   2.614   2.488 -2.2586 -0.6354 -1.7277
  643THF     O110287   5.317   0.876   4.512  0.6487  0.6011 -0.6327
  643THF     C210288   5.304   1.000   4.445 -0.1849  0.6206  0.0476
  643THF     C310289   5.433   0.873   4.596 -0.7378  0.1039  0.2519
  643THF     H410290   5.246   1.074   4.494  1.8453 -1.2714 -3.5998
  643THF     H510291   5.259   0.999   4.337 -1.8148  0.9691 -0.0134
  643THF     H610292   5.407   0.935   4.675 -2.8431 -0.3431 -2.1159
  643THF     H710293   5.463   0.770   4.633  0.6182  2.1200  1.3804
  643THF     C810294   5.535   0.939   4.507 -0.5905  0.0875 -0.0395
  643THF     C910295   5.457   1.054   4.452 -0.6049  0.0579  0.1338
  643THF    H1010296   5.571   0.875   4.432  0.4957  3.7018  1.1520
  643THF    H1110297   5.621   0.977   4.564 -0.3359  0.5624 -0.4058
  643THF    H1210298   5.480   1.144   4.514  1.2108  1.2030  1.7821
  643THF    H1310299   5.501   1.072   4.357  1.0036 -0.0976  2.0593
  644THF     O110300   4.226   5.112   4.113  0.4981  0.4433 -0.7051
  644THF     C210301   4.213   5.201   4.007 -0.4790 -0.5379 -0.3266
  644THF     C310302   4.311   5.000   4.075  0.5702 -0.1930 -0.0534
  644THF     H410303   4.230   5.311   4.032  0.7536  0.2789 -1.6170
  644THF     H510304   4.110   5.194   3.972  2.1141  0.9688 -1.3242
  644THF     H610305   4.348   4.950   4.157 -0.7109  0.1676 -1.6568
  644THF     H710306   4.243   4.932   4.030  1.5455 -0.9363  0.0779
  644THF     C810307   4.401   5.056   3.971 -0.2653  0.3362  0.1625
  644THF     C910308   4.311   5.157   3.897  0.2604  0.0323 -0.6839
  644THF    H1010309   4.456   4.985   3.900  1.0561 -0.5024  1.4902
  644THF    H1110310   4.475   5.117   4.019  0.1404  3.2166  0.3590
  644THF    H1210311   4.361   5.239   3.858  1.1690 -0.0324  1.4986
  644THF    H1310312   4.269   5.122   3.804  0.7742  0.6119  0.2805
  645THF     O110313   0.650   4.270   1.108  0.0078 -0.1334 -0.5224
  645THF     C210314   0.751   4.216   1.024 -0.5216  0.8145 -0.4169
  645THF     C310315   0.689   4.397   1.149 -0.0711 -0.6629 -0.6943
  645THF     H410316   0.711   4.164   0.937 -0.9490  3.1597 -1.2488
  645THF     H510317   0.801   4.143   1.084 -0.4844  3.3934  2.0161
  645THF     H610318   0.638   4.471   1.083  1.7038  2.1167 -2.0183
  645THF     H710319   0.660   4.416   1.248  0.9509  1.0190  0.1994
  645THF     C810320   0.840   4.405   1.125  0.3712 -0.1956 -0.1244
  645THF     C910321   0.852   4.327   0.998  0.3942  0.4367  0.5894
  645THF    H1010322   0.900   4.360   1.212  1.0880  0.9710  3.0925
  645THF    H1110323   0.872   4.509   1.125 -1.4839 -2.3307 -0.0140
  645THF    H1210324   0.816   4.383   0.911  1.7464 -0.4370  0.5840
  645THF    H1310325   0.946   4.292   0.963  0.4514  4.3051 -0.7958
  646THF     O110326   4.265   3.797   0.338  0.4469  0.0993 -0.8322
  646THF     C210327   4.285   3.848   0.211 -0.4739  0.0272 -0.2475
  646THF     C310328   4.126   3.766   0.349  0.2764  0.2509  0.1896
  646THF     H410329   4.391   3.825   0.180  2.6645 -0.1160  0.3682
  646THF     H510330   4.271   3.954   0.223  3.0266  0.0788  0.7955
  646THF     H610331   4.101   3.699   0.431  2.3271  0.5468 -0.6006
  646THF     H710332   4.063   3.858   0.368 -0.5664  1.7421  1.5617
  646THF     C810333   4.082   3.712   0.214  0.5707  0.6702 -0.3261
  646THF     C910334   4.179   3.778   0.118 -1.2564 -0.5143 -0.0812
  646THF    H1010335   3.977   3.734   0.191 -3.6381  0.4805  2.1026
  646THF    H1110336   4.104   3.602   0.230  0.5227 -2.1594  3.2262
  646THF    H1210337   4.236   3.704   0.058  0.9742 -0.0135 -1.5746
  646THF    H1310338   4.122   3.836   0.043  0.3811 -1.5149  0.2643
  647THF     O110339   0.822   2.367   2.322 -0.0932  0.0985 -0.0246
  647THF     C210340   0.899   2.340   2.439 -0.8357 -0.2127  0.1336
  647THF     C310341   0.822   2.515   2.302  0.0248 -0.0662 -0.0406
  647THF     H410342   0.933   2.242   2.450 -0.8520 -0.1355 -1.6433
  647THF     H510343   0.818   2.355   2.517  2.9802 -1.2095 -0.2626
  647THF     H610344   0.834   2.560   2.205  1.5386  1.1684  1.5788
  647THF     H710345   0.718   2.543   2.336 -1.0847  1.0383 -0.0351
  647THF     C810346   0.938   2.573   2.385  0.4091 -0.2491 -0.9658
  647THF     C910347   0.998   2.456   2.455  0.5139 -0.3175 -0.0187
  647THF    H1010348   0.903   2.650   2.446  2.0530  0.2576 -4.5185
  647THF    H1110349   1.015   2.617   2.318 -0.7254 -1.5132 -0.1832
  647THF    H1210350   1.091   2.420   2.407 -0.1342 -1.3949 -1.2975
  647THF    H1310351   1.020   2.473   2.555 -0.3248 -0.3358  0.0191
  648THF     O110352   3.407   5.154   1.358 -0.5855  0.3880  0.2811
  648THF     C210353   3.382   5.147   1.505 -0.2274  0.8393 -0.1310
  648THF     C310354   3.284   5.192   1.296  0.2457 -0.0771 -0.9225
  648THF     H410355   3.385   5.252   1.542 -0.4145  1.5236 -2.8046
  648THF     H510356   3.439   5.079   1.570 -0.3209  0.3136  1.0916
  648THF     H610357   3.260   5.290   1.330 -0.3599 -0.1457  0.5144
  648THF     H710358   3.285   5.190   1.186 -0.5739  1.1628  1.1264
  648THF     C810359   3.191   5.087   1.363  0.2105 -0.2107 -0.0335
  648THF     C910360   3.240   5.088   1.508  0.3571 -0.2512  0.3164
  648THF    H1010361   3.220   4.993   1.322  4.6043 -3.0671 -0.1261
  648THF    H1110362   3.080   5.103   1.338 -0.2773  1.7113 -2.0002
  648THF    H1210363   3.170   5.149   1.568 -0.3985  1.2499  2.2602
  648THF    H1310364   3.232   4.988   1.555 -2.6848 -0.0308  0.2110
  649THF     O110365   4.993   4.641   3.463 -0.2021  0.3822  0.3208
  649THF     C210366   5.029   4.769   3.507  0.0433  0.1977  0.3808
  649THF     C310367   5.040   4.628   3.331  0.4413 -0.4577  0.2606
  649THF     H410368   5.085   4.759   3.603 -1.0196 -2.7169  0.9563
  649THF     H510369   4.937   4.824   3.523 -1.9203  0.3591  1.7517
  649THF     H610370   5.135   4.576   3.333 -2.1338  1.4008 -1.1870
  649THF     H710371   4.970   4.561   3.276  1.3793  0.6926  2.8595
  649THF     C810372   5.050   4.768   3.270  0.5717  0.6248  0.3558
  649THF     C910373   5.108   4.831   3.390  0.1002  0.0852 -0.6416
  649THF    H1010374   4.948   4.804   3.252 -3.7571  0.1362  1.0090
  649THF    H1110375   5.109   4.775   3.178 -0.4365  1.4475 -3.4691
  649THF    H1210376   5.207   4.799   3.411 -0.2885  1.0489 -0.0963
  649THF    H1310377   5.105   4.930   3.392  1.3821 -1.7019 -1.6293
  650THF     O110378   1.578   1.035   0.990 -0.0462 -0.4548  0.0070
  650THF     C210379   1.516   0.918   0.939  0.1108  0.0583  0.9134
  650THF     C310380   1.476   1.101   1.063  0.1386 -0.4189 -0.0293
  650THF     H410381   1.507   0.845   1.017 -0.1667 -1.5837 -1.3217
  650THF     H510382   1.576   0.868   0.867  0.4127 -1.0189  1.2128
  650THF     H610383   1.461   1.050   1.157 -0.4223  0.6030  1.3945
  650THF     H710384   1.498   1.207   1.082 -0.8729 -2.7708  2.1776
  650THF     C810385   1.351   1.090   0.979  0.1258 -0.2620  0.1487
  650THF     C910386   1.375   0.965   0.896  0.0793  0.5493  0.8202
  650THF    H1010387   1.335   1.180   0.924  2.6680  1.3685  2.8450
  650THF    H1110388   1.265   1.076   1.042  1.9561 -0.7045 -2.4462
  650THF    H1210389   1.289   0.901   0.908 -0.2519  0.7565  1.2031
  650THF    H1310390   1.372   1.004   0.796 -0.4248  1.9031  1.3944
  651THF     O110391   5.230   4.641   4.741 -0.1963 -0.7599  0.3269
  651THF     C210392   5.139   4.620   4.844  0.4413 -1.2350  0.0712
  651THF     C310393   5.188   4.554   4.636  0.2874 -0.6326  0.4399
  651THF     H410394   5.058   4.689   4.839  1.1167  0.5310  1.7693
  651THF     H510395   5.193   4.645   4.942  0.9275 -2.9005 -0.4621
  651THF     H610396   5.108   4.599   4.577  1.8521 -2.9099  0.3821
  651THF     H710397   5.264   4.534   4.562 -2.2502 -2.9588  0.8380
  651THF     C810398   5.157   4.429   4.710 -0.7956 -0.4880  0.2243
  651THF     C910399   5.092   4.480   4.836  0.6373  0.3973  0.1632
  651THF    H1010400   5.246   4.367   4.727 -0.0529  0.9711  0.7945
  651THF    H1110401   5.094   4.356   4.659 -0.5924  0.5952  0.9023
  651THF    H1210402   4.980   4.478   4.835 -1.1006 -0.3691 -0.8646
  651THF    H1310403   5.111   4.412   4.921 -0.5188 -1.6184 -0.7824
  652THF     O110404   0.039   3.808   3.207  0.2098 -0.0514  0.5717
  652THF     C210405   0.131   3.706   3.217 -0.4707  0.5949  0.1478
  652THF     C310406  -0.050   3.792   3.315 -0.4512 -0.0512 -0.2930
  652THF     H410407   0.209   3.717   3.289  1.1142 -2.6260 -0.3844
  652THF     H510408   0.171   3.692   3.116  0.9125 -0.0441 -1.3442
  652THF     H610409  -0.005   3.817   3.410 -3.2482 -1.4974 -1.1464
  652THF     H710410  -0.146   3.847   3.306 -0.0427  1.0400  1.0103
  652THF     C810411  -0.075   3.642   3.310  0.6035 -0.5856  0.1872
  652THF     C910412   0.053   3.590   3.261 -0.2547 -0.7655 -0.1730
  652THF    H1010413  -0.151   3.621   3.234  4.1904  0.7952  3.1652
  652THF    H1110414  -0.115   3.618   3.410  0.0097  0.1610  0.7634
  652THF    H1210415   0.103   3.531   3.337  1.4968  0.7107  0.6137
  652THF    H1310416   0.038   3.527   3.172 -0.7993  1.4329  0.6833
  653THF     O110417   5.140   4.313   4.338  0.1163  0.0697  0.1336
  653THF     C210418   5.053   4.299   4.229 -0.2725 -0.5016  0.7641
  653THF     C310419   5.188   4.184   4.362  0.2583  0.5534  0.3333
  653THF     H410420   5.109   4.279   4.138  0.8679 -2.6387  0.5795
  653THF     H510421   4.992   4.383   4.195  2.0100 -1.1455  0.0224
  653THF     H610422   5.261   4.156   4.290 -2.4156  0.0973  0.7013
  653THF     H710423   5.231   4.177   4.460 -1.7967  0.7972 -1.4979
  653THF     C810424   5.061   4.098   4.342  0.4263  0.1986 -1.0536
  653THF     C910425   4.963   4.176   4.257 -0.3793  0.5091  0.5573
  653THF    H1010426   5.019   4.078   4.444 -1.6892 -0.0375 -1.8250
  653THF    H1110427   5.084   3.999   4.295  0.3258 -1.0848 -0.2669
  653THF    H1210428   4.939   4.130   4.159  1.5091 -0.1614  0.2110
  653THF    H1310429   4.871   4.196   4.314 -3.9191  1.7527  0.1624
  654THF     O110430   0.434   1.421   5.310  0.1746  0.0857  0.0121
  654THF     C210431   0.296   1.462   5.311  0.0002  0.4053  0.6315
  654THF     C310432   0.425   1.281   5.283  0.4422  0.0499  0.7144
  654THF     H410433   0.274   1.558   5.262 -1.5250 -1.1043 -0.5279
  654THF     H510434   0.271   1.495   5.409 -1.1703  0.0566 -2.4566
  654THF     H610435   0.429   1.250   5.176  1.2708  0.4782 -0.0260
  654THF     H710436   0.502   1.242   5.343  2.7287 -2.2536  1.9968
  654THF     C810437   0.285   1.229   5.326 -0.4761  0.4529  0.9078
  654THF     C910438   0.209   1.341   5.270  0.1067  0.2148  0.2638
  654THF    H1010439   0.264   1.224   5.435 -0.0306 -0.8675  2.4055
  654THF    H1110440   0.251   1.135   5.287  0.3512  1.1389  0.0504
  654THF    H1210441   0.200   1.320   5.161  3.7208 -2.0527 -1.1897
  654THF    H1310442   0.111   1.340   5.324  0.9248  0.3596  0.4459
  655THF     O110443   3.884   2.039   2.988  0.5051 -0.3628  0.8602
  655THF     C210444   4.017   2.078   2.952  0.4456 -0.6843 -0.5666
  655THF     C310445   3.840   1.931   2.906  0.4789  0.2869  0.0224
  655THF     H410446   4.084   2.046   3.029  0.9868  0.7113 -0.0936
  655THF     H510447   4.022   2.184   2.949  1.8579 -4.3121  0.1416
  655THF     H610448   3.876   1.844   2.945 -1.3742  0.0009  0.5473
  655THF     H710449   3.729   1.923   2.912 -0.8466 -1.4443  1.2450
  655THF     C810450   3.909   1.951   2.774 -0.0075 -0.1530  0.3926
  655THF     C910451   4.045   2.013   2.817 -0.0273  0.0276  0.0948
  655THF    H1010452   3.844   2.026   2.725  1.0572  2.8413 -2.0882
  655THF    H1110453   3.919   1.856   2.709  0.9446 -0.0626  0.3525
  655THF    H1210454   4.111   1.923   2.841  0.0024 -0.9338 -1.0264
  655THF    H1310455   4.088   2.076   2.741 -0.4146  1.2352 -1.7437
  656THF     O110456   2.709   5.126   1.562 -0.4733 -0.1879  0.3662
  656THF     C210457   2.732   5.222   1.660  0.1585 -0.0879 -0.0560
  656THF     C310458   2.575   5.138   1.501 -0.1985  0.0339 -0.0688
  656THF     H410459   2.795   5.293   1.610 -3.2089 -1.7299  2.5338
  656THF     H510460   2.783   5.177   1.742  0.6574  1.3258  0.4598
  656THF     H610461   2.579   5.137   1.391  0.4202 -0.4883  0.5590
  656THF     H710462   2.496   5.068   1.529 -1.2799 -0.0401 -0.6667
  656THF     C810463   2.520   5.276   1.554 -0.0444 -0.2671 -0.2144
  656THF     C910464   2.590   5.279   1.684  1.1257 -0.5392  0.0485
  656THF    H1010465   2.414   5.276   1.550 -0.8759 -0.3635  1.4157
  656THF    H1110466   2.543   5.365   1.499 -0.7944 -1.0898  0.2231
  656THF    H1210467   2.596   5.381   1.718  0.9224  0.9049 -0.2501
  656THF    H1310468   2.538   5.212   1.756 -0.7809  0.1114 -1.7292
  657THF     O110469   0.812   5.358   4.366 -0.0637  0.1057 -0.3062
  657THF     C210470   0.735   5.318   4.474 -0.1716  0.9269 -0.5583
  657THF     C310471   0.765   5.280   4.256  0.1273 -0.1647  1.2042
  657THF     H410472   0.739   5.395   4.553 -0.6699 -1.1001  2.3435
  657THF     H510473   0.773   5.233   4.527 -1.5599  0.4146 -1.9567
  657THF     H610474   0.797   5.330   4.162 -0.6617  1.0847  0.1073
  657THF     H710475   0.815   5.182   4.256 -1.1610  1.7368 -0.9159
  657THF     C810476   0.618   5.270   4.279 -0.0906 -0.5543  0.0602
  657THF     C910477   0.592   5.300   4.423 -0.3618  0.1214  0.3409
  657THF    H1010478   0.580   5.167   4.257 -0.5441  1.2231  1.6561
  657THF    H1110479   0.556   5.331   4.218 -0.9544  0.8419  0.6285
  657THF    H1210480   0.531   5.394   4.424  0.0908 -1.6876  3.9421
  657THF    H1310481   0.535   5.224   4.479 -0.4196 -0.5360 -0.6331
  658THF     O110482   4.279   3.344   2.301 -0.1454  0.8091  0.4565
  658THF     C210483   4.373   3.247   2.342  0.0593 -0.0272 -0.6105
  658THF     C310484   4.228   3.319   2.174 -0.7271 -0.2932 -0.0876
  658THF     H410485   4.326   3.162   2.400 -1.2258 -2.5033  2.5704
  658THF     H510486   4.457   3.285   2.400  0.0317 -0.6144 -2.0906
  658THF     H610487   4.158   3.225   2.183  0.5277 -0.7296 -0.3406
  658THF     H710488   4.169   3.408   2.133 -2.0519  2.4476  0.1120
  658THF     C810489   4.362   3.287   2.110 -0.1125 -0.1285 -0.0530
  658THF     C910490   4.425   3.200   2.206 -0.6811 -0.0541 -0.0478
  658THF    H1010491   4.408   3.382   2.093  0.3773  2.4728 -1.4442
  658THF    H1110492   4.342   3.241   2.015 -2.0854  0.0333 -2.3791
  658THF    H1210493   4.399   3.095   2.192  2.8018 -0.5918  0.0720
  658THF    H1310494   4.532   3.203   2.205  0.5660  1.5875 -1.7106
  659THF     O110495   4.190   3.587   5.253  0.9022  0.0399 -0.4534
  659THF     C210496   4.258   3.571   5.126 -0.5020  0.0924  0.0889
  659THF     C310497   4.252   3.487   5.340 -0.0270  0.0958 -0.3665
  659THF     H410498   4.250   3.666   5.076  1.1023 -1.0318  1.3575
  659THF     H510499   4.222   3.489   5.068 -2.2742 -0.3216 -1.1619
  659THF     H610500   4.226   3.499   5.448  0.3699 -2.2659  2.7799
  659THF     H710501   4.220   3.384   5.304  1.2836  0.1181 -2.1416
  659THF     C810502   4.398   3.501   5.308  0.0764  0.4355  0.6462
  659THF     C910503   4.403   3.542   5.161 -0.5489 -0.2465 -0.6910
  659THF    H1010504   4.444   3.400   5.335  3.6249  1.0435 -0.8185
  659THF    H1110505   4.443   3.574   5.368 -2.9750  1.1717  0.8364
  659THF    H1210506   4.461   3.631   5.149 -0.4024 -2.7941  1.2563
  659THF    H1310507   4.440   3.468   5.094 -2.3968  1.1537  0.6189
  660THF     O110508   1.942   3.865   2.121  0.0655  0.3281 -0.4652
  660THF     C210509   1.882   3.885   2.256 -0.0781  0.1693 -0.4794
  660THF     C310510   1.960   3.996   2.066 -0.2400  0.3299  0.8195
  660THF     H410511   1.895   3.800   2.321 -0.6734 -0.4865  3.7547
  660THF     H510512   1.776   3.897   2.230 -1.0863 -0.6392  0.4807
  660THF     H610513   2.025   3.990   1.984  0.6924  3.0848  0.6915
  660THF     H710514   1.859   4.028   2.035 -1.5715  1.4215 -0.0957
  660THF     C810515   2.009   4.077   2.183  0.0198 -0.5131  0.0281
  660THF     C910516   1.943   4.010   2.304  0.1962 -0.3477  0.2843
  660THF    H1010517   1.973   4.181   2.181  0.6495  0.7410  1.7682
  660THF    H1110518   2.118   4.060   2.194 -1.6381 -2.1984 -0.0069
  660THF    H1210519   2.010   3.981   2.382 -2.9323  0.4892 -0.7979
  660THF    H1310520   1.867   4.079   2.342  0.7695  2.7662 -1.5606
  661THF     O110521   5.022   3.388   3.828  0.2774  0.7618  0.4902
  661THF     C210522   4.941   3.272   3.809  0.5456  0.2150 -0.1296
  661THF     C310523   5.138   3.363   3.759 -0.4328  0.7805 -0.2436
  661THF     H410524   4.905   3.269   3.706  1.0008  0.7551  0.6235
  661THF     H510525   4.848   3.268   3.872 -0.3728 -0.8914  0.0895
  661THF     H610526   5.133   3.382   3.658 -0.6766 -0.3442 -0.3497
  661THF     H710527   5.215   3.433   3.803 -0.7613  1.4922  0.6569
  661THF     C810528   5.171   3.212   3.770  0.5568  0.1766 -0.3214
  661THF     C910529   5.037   3.163   3.830 -0.2725  0.4290 -0.1791
  661THF    H1010530   5.255   3.189   3.838 -3.9775 -0.0811 -0.2562
  661THF    H1110531   5.181   3.156   3.678 -1.4560 -0.4035  0.4699
  661THF    H1210532   4.996   3.070   3.804 -3.5456  1.2785  0.2492
  661THF    H1310533   5.050   3.164   3.939  2.4557  0.8551  0.9759
  662THF     O110534   2.487   1.116   0.625 -0.0176 -0.0274 -0.7755
  662THF     C210535   2.572   1.002   0.653  0.2405 -0.0368  1.0234
  662THF     C310536   2.474   1.135   0.490  0.3230 -0.5928  0.2873
  662THF     H410537   2.508   0.925   0.686  1.2720  0.8664  0.9213
  662THF     H510538   2.642   1.027   0.728 -0.9069 -0.6074  0.4028
  662THF     H610539   2.391   1.083   0.457  0.8375 -0.4229  0.8865
  662THF     H710540   2.462   1.245   0.468 -1.2172  3.1784  0.3836
  662THF     C810541   2.603   1.084   0.427  0.8401  0.0370  0.2438
  662THF     C910542   2.633   0.963   0.515  0.4745 -1.0249 -0.2018
  662THF    H1010543   2.681   1.149   0.436 -2.8610  0.2818  0.4684
  662THF    H1110544   2.591   1.070   0.320 -1.8306 -2.1812 -0.5058
  662THF    H1210545   2.578   0.878   0.490  2.4248  2.7778  0.8566
  662THF    H1310546   2.741   0.944   0.522  0.0160  0.5728  1.8094
  663THF     O110547   2.899   3.344   2.629 -0.8986  0.2688 -0.0609
  663THF     C210548   2.778   3.416   2.647 -0.1942  0.7406  0.8495
  663THF     C310549   2.975   3.383   2.743 -1.4318  0.4853  0.1412
  663THF     H410550   2.723   3.364   2.732 -0.7860 -1.7295 -2.0092
  663THF     H510551   2.717   3.415   2.561 -0.1456  1.0067  2.1966
  663THF     H610552   2.939   3.319   2.828  1.3236  0.8578  0.8273
  663THF     H710553   3.084   3.361   2.738  1.3089  0.1524  0.2515
  663THF     C810554   2.957   3.531   2.763 -0.9677  0.2180 -0.9531
  663THF     C910555   2.827   3.555   2.694  0.2214  0.0452 -0.1791
  663THF    H1010556   3.034   3.583   2.705  0.4253 -3.8581  0.5395
  663THF    H1110557   2.955   3.567   2.865  1.2416 -1.3833 -1.2197
  663THF    H1210558   2.748   3.604   2.753 -1.0518  0.0964 -1.6091
  663THF    H1310559   2.832   3.610   2.601 -0.1025  0.4447 -1.0438
  664THF     O110560   5.194   4.513   2.075 -0.3444  0.0729 -0.2970
  664THF     C210561   5.110   4.608   2.149 -0.1171  0.3697 -0.2179
  664THF     C310562   5.320   4.510   2.146 -0.7158 -0.5728  0.2815
  664THF     H410563   5.006   4.590   2.140  1.0628  1.8909 -0.8867
  664THF     H510564   5.139   4.707   2.108  0.7823 -2.4106 -0.3772
  664THF     H610565   5.383   4.433   2.115 -2.6910 -2.2637  0.5419
  664THF     H710566   5.363   4.612   2.141 -3.2007  1.5055  1.2228
  664THF     C810567   5.269   4.515   2.291 -0.0510  0.7268  0.3317
  664THF     C910568   5.158   4.605   2.292 -0.4887 -1.1614  0.3859
  664THF    H1010569   5.348   4.540   2.363  2.5726 -1.2311  1.4380
  664THF    H1110570   5.229   4.414   2.315 -0.9090  1.3715  1.7935
  664THF    H1210571   5.078   4.572   2.365  0.2603 -3.4491  1.0843
  664THF    H1310572   5.190   4.707   2.315  0.2890  0.2045 -1.2916
  665THF     O110573   4.659   0.966   1.412 -0.6603  0.3104 -0.4746
  665THF     C210574   4.788   0.991   1.348 -0.2567 -0.6100 -0.2852
  665THF     C310575   4.593   0.863   1.338 -0.1306 -0.3477  0.4241
  665THF     H410576   4.862   0.922   1.381  2.5033 -1.6367 -2.7533
  665THF     H510577   4.843   1.083   1.370  2.0236  0.0361  1.0695
  665THF     H610578   4.638   0.775   1.382  0.6203  1.8350 -0.6240
  665THF     H710579   4.481   0.862   1.346 -0.8268  1.5760  0.2795
  665THF     C810580   4.631   0.886   1.194 -0.2326  0.5606  0.3479
  665THF     C910581   4.759   0.974   1.199  0.4561  0.0742 -0.1157
  665THF    H1010582   4.549   0.944   1.151  1.2831  1.5414 -1.0697
  665THF    H1110583   4.648   0.793   1.139 -0.8299  0.9138 -1.4018
  665THF    H1210584   4.844   0.932   1.156 -0.2447 -1.5682  0.2335
  665THF    H1310585   4.746   1.067   1.148  0.7120 -0.0454 -1.2512
  666THF     O110586   3.337   0.408   1.250 -0.2815  0.4670 -0.3480
  666THF     C210587   3.411   0.402   1.378 -0.1921  0.2491 -0.3470
  666THF     C310588   3.403   0.326   1.156  0.6725 -0.2856  0.5056
  666THF     H410589   3.382   0.319   1.439  1.3746  0.8035  0.6920
  666THF     H510590   3.409   0.498   1.431  2.6684  0.6642 -0.2630
  666THF     H610591   3.357   0.228   1.163  1.7354  1.5329 -1.9200
  666THF     H710592   3.385   0.358   1.055  0.1885  0.7695 -0.6291
  666THF     C810593   3.548   0.325   1.197  0.6022 -0.0933  0.6239
  666THF     C910594   3.560   0.397   1.334  0.0628  0.8399 -0.0796
  666THF    H1010595   3.613   0.375   1.127  1.4148 -1.4488  0.8903
  666THF    H1110596   3.579   0.224   1.195 -0.5594 -0.3030 -2.0484
  666THF    H1210597   3.628   0.333   1.397  2.8259 -0.9118  0.1785
  666THF    H1310598   3.600   0.493   1.320 -1.6320 -0.2721  0.3223
  667THF     O110599   1.115   4.782   4.667  0.6427  0.1496 -0.1535
  667THF     C210600   1.087   4.641   4.630  0.4873 -0.6290  0.5134
  667THF     C310601   1.048   4.790   4.786 -0.5864 -0.4947  0.3914
  667THF     H410602   1.147   4.622   4.540  2.8141 -1.1432 -0.2434
  667THF     H510603   0.980   4.646   4.598 -1.0359 -0.7721  0.6796
  667THF     H610604   1.081   4.879   4.839  1.2762 -1.3666  1.4025
  667THF     H710605   0.942   4.792   4.775  3.0597 -1.5711 -0.3796
  667THF     C810606   1.096   4.669   4.869  0.2386 -0.4266 -0.1480
  667THF     C910607   1.103   4.555   4.761  0.4278  1.1690  0.3106
  667THF    H1010608   1.036   4.643   4.956 -1.1830  3.1514 -0.7133
  667THF    H1110609   1.202   4.677   4.907  2.1491  0.9526  0.6116
  667THF    H1210610   1.211   4.516   4.768 -0.2680  0.2071  0.9820
  667THF    H1310611   1.020   4.480   4.763 -2.8195 -0.0190  0.4419
  668THF     O110612   2.766   1.496   2.348  0.1231 -0.1051 -0.5793
  668THF     C210613   2.734   1.428   2.231  0.3594  0.1725  0.8479
  668THF     C310614   2.880   1.578   2.336  0.1774  0.8414 -0.1740
  668THF     H410615   2.632   1.463   2.198  0.9133 -0.1044  3.0265
  668THF     H510616   2.712   1.318   2.244  2.5721 -1.2540  2.2139
  668THF     H610617   2.866   1.670   2.388  0.3192  0.2657  1.3944
  668THF     H710618   2.976   1.537   2.381  3.2900 -0.1855  0.2788
  668THF     C810619   2.884   1.602   2.184  0.3536 -0.0679  0.2972
  668THF     C910620   2.845   1.469   2.132 -0.3390  0.5114  0.4284
  668THF    H1010621   2.982   1.630   2.140  3.9655  0.3979 -0.4945
  668THF    H1110622   2.807   1.678   2.152  2.4537  1.9406  1.5421
  668THF    H1210623   2.819   1.468   2.026 -1.3716 -0.2874 -1.9081
  668THF    H1310624   2.922   1.388   2.140 -0.1118 -0.4747 -0.9887
  669THF     O110625   5.162   0.588   0.530  0.0294 -0.1714 -0.0329
  669THF     C210626   5.218   0.645   0.652  0.0649 -0.1111  0.1697
  669THF     C310627   5.191   0.692   0.429  0.2055  0.2925 -0.4898
  669THF     H410628   5.216   0.574   0.730 -1.9878 -0.2564 -1.1070
  669THF     H510629   5.158   0.716   0.692 -0.3683  1.3388 -1.4208
  669THF     H610630   5.181   0.664   0.325 -0.9709  0.1754  2.4288
  669THF     H710631   5.117   0.769   0.445 -0.4119 -0.3982  0.3293
  669THF     C810632   5.332   0.753   0.466 -1.2010 -0.5859 -0.1579
  669THF     C910633   5.355   0.694   0.604 -0.0116  0.1420  0.1650
  669THF    H1010634   5.323   0.863   0.468  2.4782 -0.4488 -0.7660
  669THF    H1110635   5.405   0.716   0.397  2.7899  1.1884 -1.3588
  669THF    H1210636   5.421   0.618   0.596 -1.1188  0.8318  1.2885
  669THF    H1310637   5.412   0.761   0.671  1.2769  0.6092  1.2821
  670THF     O110638   2.944   3.931   5.405  0.2471  0.0157 -0.2610
  670THF     C210639   2.978   4.054   5.459 -0.1761 -0.1388  0.1099
  670THF     C310640   2.841   3.953   5.309 -0.1029 -0.2686  0.3267
  670THF     H410641   3.081   4.090   5.429 -0.0150  0.3415 -3.4162
  670THF     H510642   2.961   4.050   5.561  0.7038  2.5319 -2.0041
  670THF     H610643   2.896   3.978   5.214 -0.3002 -0.6333 -1.1358
  670THF     H710644   2.773   3.873   5.297  2.3834  0.3966 -0.3699
  670THF     C810645   2.765   4.077   5.340 -0.3441  0.6519 -0.0941
  670THF     C910646   2.877   4.158   5.399  0.1447  0.2000  0.6046
  670THF    H1010647   2.687   4.059   5.414 -2.6688 -0.6505 -1.3649
  670THF    H1110648   2.711   4.119   5.260  2.7907 -0.6647 -1.4800
  670THF    H1210649   2.924   4.223   5.323 -2.5568 -0.6727 -3.6753
  670THF    H1310650   2.836   4.218   5.482  2.2800  1.0953  2.9232
  671THF     O110651   4.011   1.233   4.470 -0.4578  0.3252  0.6165
  671THF     C210652   4.149   1.256   4.485 -0.2286  0.4076 -1.1375
  671THF     C310653   3.970   1.255   4.337  0.8898 -0.0033  0.4316
  671THF     H410654   4.185   1.190   4.564 -1.6524  0.6097  0.2940
  671THF     H510655   4.171   1.361   4.522 -1.5020  3.2425  1.6537
  671THF     H610656   3.867   1.210   4.305 -2.5650 -1.3585 -0.8936
  671THF     H710657   3.958   1.358   4.312 -0.1593  0.4737  3.0567
  671THF     C810658   4.077   1.189   4.261  0.3366  0.5055  0.1143
  671THF     C910659   4.200   1.225   4.347 -0.0810 -0.2775  1.2842
  671THF    H1010660   4.088   1.232   4.165  2.1451 -0.4725  1.3337
  671THF    H1110661   4.060   1.084   4.249 -0.6153  0.8821  1.1527
  671THF    H1210662   4.274   1.148   4.347 -0.0418  1.5084 -2.2002
  671THF    H1310663   4.248   1.309   4.300  1.1232 -1.1298  2.1656
  672THF     O110664   0.967   1.436   5.327 -0.0469  0.0973 -0.4745
  672THF     C210665   0.976   1.568   5.384 -0.7259 -0.3958 -0.3343
  672THF     C310666   0.832   1.399   5.338 -0.6400  0.0152  0.0202
  672THF     H410667   1.075   1.609   5.371 -0.7622  1.9095  0.1867
  672THF     H510668   0.975   1.557   5.496  2.0298 -3.7533 -0.4641
  672THF     H610669   0.811   1.308   5.284  0.1017 -0.5941  1.5500
  672THF     H710670   0.816   1.379   5.446  2.7291 -1.3968  3.0994
  672THF     C810671   0.755   1.529   5.304  0.5970  0.5011 -0.6397
  672THF     C910672   0.857   1.643   5.323  0.3229  0.0057  0.5255
  672THF    H1010673   0.676   1.548   5.373  2.1498  0.1742 -1.3832
  672THF    H1110674   0.715   1.529   5.200 -1.1704 -0.4810  1.8709
  672THF    H1210675   0.881   1.693   5.230 -3.1963 -0.2127 -0.2968
  672THF    H1310676   0.824   1.720   5.397  0.1964  1.7919  0.6606
  673THF     O110677   2.103   5.185   3.566 -0.1441  0.6649  0.4537
  673THF     C210678   1.981   5.245   3.550  0.0037  0.4360  0.1680
  673THF     C310679   2.095   5.096   3.679 -0.3525 -0.2537  0.3557
  673THF     H410680   1.897   5.177   3.526 -2.2637  1.0405 -1.8580
  673THF     H510681   1.970   5.312   3.464 -2.1421 -2.9962 -2.0543
  673THF     H610682   2.036   5.010   3.645 -1.9946  1.8010 -0.4343
  673THF     H710683   2.191   5.058   3.721 -0.6445 -4.8581  2.1729
  673THF     C810684   2.027   5.180   3.782 -0.2327  0.4640  0.6136
  673THF     C910685   1.960   5.296   3.696 -0.0059 -0.1549  0.2815
  673THF    H1010686   2.097   5.211   3.861 -0.9806  1.9427  2.0176
  673THF    H1110687   1.957   5.114   3.830  1.6343 -1.5545  0.5964
  673THF    H1210688   1.851   5.303   3.722  1.1895 -0.8424  0.6693
  673THF    H1310689   2.016   5.391   3.710 -1.1927  1.3792  1.0503
  674THF     O110690   4.574   4.030   0.116  0.2587 -0.1201  0.4143
  674THF     C210691   4.566   4.164   0.150  0.6491  0.7241  0.1448
  674THF     C310692   4.721   4.000   0.099 -0.3974 -0.2420 -0.0947
  674THF     H410693   4.593   4.175   0.254 -1.3817 -0.8416 -0.1543
  674THF     H510694   4.458   4.189   0.144  0.4810  0.6905 -2.2746
  674THF     H610695   4.760   3.961   0.188  1.5858  3.6229  0.7870
  674THF     H710696   4.738   3.926   0.023  1.9622  0.2990 -0.8528
  674THF     C810697   4.781   4.133   0.064  0.8073  0.8706 -0.0549
  674THF     C910698   4.667   4.235   0.066 -0.0112  0.0484  0.1041
  674THF    H1010699   4.819   4.131  -0.038  1.7116 -1.1678  0.2517
  674THF    H1110700   4.853   4.160   0.136  1.2191  1.8924  0.9459
  674THF    H1210701   4.697   4.326   0.123 -0.5696 -0.7127  1.5687
  674THF    H1310702   4.639   4.281  -0.030  1.1956  1.9611  1.6499
  675THF     O110703   3.483   4.045   4.799 -0.1020  0.3828  0.1159
  675THF     C210704   3.427   4.157   4.732 -0.3003 -0.3872  0.4871
  675THF     C310705   3.587   3.993   4.722 -0.3966 -0.2137 -0.4676
  675THF     H410706   3.460   4.249   4.780 -0.4747 -1.3406  2.6758
  675THF     H510707   3.317   4.159   4.736  0.9318  1.5041 -1.6481
  675THF     H610708   3.680   4.046   4.727  1.2121 -0.3252 -0.1464
  675THF     H710709   3.603   3.887   4.747  0.6916 -2.7808 -0.1470
  675THF     C810710   3.543   4.007   4.577  0.2345 -0.2236  0.0701
  675THF     C910711   3.478   4.144   4.590  0.2293  0.8997 -0.4444
  675THF    H1010712   3.470   3.923   4.560 -0.1167 -0.5843  2.1037
  675THF    H1110713   3.625   4.006   4.509 -0.3835  1.2965 -0.9762
  675THF    H1210714   3.548   4.222   4.574  0.2950  0.2430  1.6576
  675THF    H1310715   3.403   4.158   4.510 -1.9169 -1.3056 -2.2581
  676THF     O110716   3.360   3.489   0.066 -0.6343 -0.0536 -0.7823
  676THF     C210717   3.356   3.599  -0.021 -0.7181 -0.5812  0.6616
  676THF     C310718   3.440   3.538   0.177 -0.1134  0.2464 -0.1917
  676THF     H410719   3.281   3.670   0.013  0.6107  1.5118 -2.0795
  676THF     H510720   3.327   3.558  -0.117  1.5123  0.6297 -0.3864
  676THF     H610721   3.393   3.565   0.266 -2.1475  1.7740 -1.9307
  676THF     H710722   3.498   3.449   0.184 -2.3979 -0.1378 -1.3433
  676THF     C810723   3.540   3.639   0.132  0.3319  0.2556  0.1340
  676THF     C910724   3.493   3.660  -0.014 -0.1400 -0.5869 -0.2091
  676THF    H1010725   3.640   3.611   0.148 -2.4700 -3.9014  2.8754
  676THF    H1110726   3.525   3.740   0.188  1.5138  1.7241  2.6508
  676THF    H1210727   3.499   3.765  -0.034  0.9714  1.7454 -0.3415
  676THF    H1310728   3.565   3.605  -0.082  1.5132  2.7763 -2.4675
  677THF     O110729   3.061   3.091   0.395  0.4219 -0.3448  0.2750
  677THF     C210730   3.036   3.224   0.371  0.1644  0.2737 -0.3055
  677THF     C310731   3.192   3.074   0.445 -0.9071  0.7889  0.9643
  677THF     H410732   2.989   3.281   0.454  0.8987 -0.3838  0.8862
  677THF     H510733   2.974   3.234   0.279  2.3949 -1.1689 -0.2553
  677THF     H610734   3.186   3.096   0.549  0.0771 -1.2826  1.8010
  677THF     H710735   3.217   2.967   0.435 -3.9783  0.1261 -3.4956
  677THF     C810736   3.279   3.171   0.374 -1.0397  0.3905  0.2535
  677THF     C910737   3.178   3.284   0.348 -0.0252 -0.0361  0.5180
  677THF    H1010738   3.285   3.126   0.276  3.0468  1.6457 -1.5909
  677THF    H1110739   3.368   3.196   0.430 -0.7796 -0.7662  0.1611
  677THF    H1210740   3.197   3.372   0.415 -1.7233  0.6354 -0.2668
  677THF    H1310741   3.188   3.317   0.242 -0.1562 -0.9532 -1.8793
  678THF     O110742   2.702   4.596   0.165 -0.0360 -0.3490  0.6227
  678THF     C210743   2.830   4.588   0.097  0.5522  0.4158 -0.3570
  678THF     C310744   2.664   4.728   0.168  0.5801 -0.2612  0.5094
  678THF     H410745   2.826   4.594  -0.014 -2.0795 -0.6522  0.6103
  678THF     H510746   2.875   4.489   0.110  1.8090 -2.2328  0.3441
  678THF     H610747   2.608   4.752   0.077 -4.2799  0.0219 -1.2264
  678THF     H710748   2.598   4.730   0.257  1.1712  1.5734  0.1142
  678THF     C810749   2.794   4.813   0.172 -0.3783 -1.2689 -0.5342
  678THF     C910750   2.904   4.708   0.163  0.2738  0.5550  0.0321
  678THF    H1010751   2.797   4.888   0.254 -0.6725 -0.1632  0.9650
  678THF    H1110752   2.778   4.883   0.083  0.3830  2.1102 -1.1183
  678THF    H1210753   2.987   4.725   0.101 -2.0567  0.1505 -0.8120
  678THF    H1310754   2.937   4.681   0.259  0.4914  0.0279 -2.9661
  679THF     O110755   2.594   3.206   1.068 -0.4822  0.2435  0.0857
  679THF     C210756   2.554   3.317   1.149 -0.1581  0.7165 -0.4839
  679THF     C310757   2.484   3.123   1.040  0.4077 -0.4082 -0.0490
  679THF     H410758   2.515   3.391   1.085  1.2869 -0.8284  0.7677
  679THF     H510759   2.630   3.362   1.207  1.0522 -1.4665 -2.0702
  679THF     H610760   2.456   3.105   0.933 -1.2833  0.1232  1.2491
  679THF     H710761   2.499   3.028   1.081  1.2760  0.8652 -0.0793
  679THF     C810762   2.360   3.189   1.113  0.7249  0.0585 -0.7476
  679THF     C910763   2.427   3.271   1.223  0.2386  0.7524  0.0991
  679THF    H1010764   2.290   3.115   1.155 -0.5874 -0.3561  1.7854
  679THF    H1110765   2.295   3.253   1.054  2.9843 -0.8688  0.1253
  679THF    H1210766   2.366   3.355   1.250  1.1478 -0.2042 -1.4025
  679THF    H1310767   2.442   3.201   1.308 -1.5871 -1.2905  0.2753
  680THF     O110768   1.482   0.799   0.026 -0.2506  0.0975 -0.3784
  680THF     C210769   1.444   0.936   0.029 -0.2548  0.5817  0.0210
  680THF     C310770   1.515   0.755   0.160  0.3779  0.4005  0.5239
  680THF     H410771   1.337   0.940   0.062  1.5015 -0.0168 -0.3914
  680THF     H510772   1.456   0.992  -0.068  0.3233  2.6686  0.7287
  680THF     H610773   1.434   0.743   0.230  2.0996  0.2809  0.2751
  680THF     H710774   1.571   0.668   0.164 -2.8395  2.0647  1.1646
  680THF     C810775   1.601   0.866   0.214 -0.2360  0.0607 -0.3160
  680THF     C910776   1.539   0.991   0.143  0.2217 -0.1289 -0.1490
  680THF    H1010777   1.705   0.862   0.185  1.0471 -0.6250 -0.6510
  680THF    H1110778   1.597   0.882   0.319 -0.5488  3.3293  1.0750
  680THF    H1210779   1.507   1.064   0.211 -0.3084 -1.5291  0.2845
  680THF    H1310780   1.615   1.051   0.096  0.9765 -2.9260  2.9494
  681THF     O110781   0.105   1.564   4.055 -0.1637  0.1382 -1.0790
  681THF     C210782   0.209   1.644   4.004 -0.1751 -0.2107 -0.0154
  681THF     C310783   0.023   1.512   3.955  0.2145  0.1941  0.0525
  681THF     H410784   0.289   1.580   3.959  1.1539 -1.5266  0.7867
  681THF     H510785   0.252   1.702   4.082 -0.1672  0.6075  0.7480
  681THF     H610786   0.082   1.425   3.914 -0.9620  1.0361  2.7618
  681THF     H710787  -0.066   1.475   4.002  0.6491 -1.8907 -0.9625
  681THF     C810788   0.010   1.635   3.866 -0.0950  0.4290  0.1133
  681THF     C910789   0.131   1.721   3.902  0.5531  0.2800 -0.0308
  681THF    H1010790  -0.086   1.683   3.886 -1.7660 -1.0627 -1.8841
  681THF    H1110791   0.016   1.600   3.763  0.6442  2.0476  2.6035
  681THF    H1210792   0.193   1.736   3.817  1.6103 -0.9744 -3.2249
  681THF    H1310793   0.103   1.819   3.937 -0.2815  0.8389 -0.8630
  682THF     O110794   1.296   4.140   1.208  0.6949 -0.1834 -0.3294
  682THF     C210795   1.388   4.113   1.315  0.3345  0.5229 -0.2819
  682THF     C310796   1.254   4.010   1.145  0.3644 -0.2333 -0.0586
  682THF     H410797   1.330   4.115   1.410 -2.1032 -0.2525  2.0488
  682THF     H510798   1.476   4.175   1.322 -4.3965  0.0458 -0.6375
  682THF     H610799   1.149   4.007   1.140 -1.2624  1.0561  0.0420
  682THF     H710800   1.288   4.000   1.043 -0.4810  0.1963  1.0270
  682THF     C810801   1.314   3.900   1.231  0.1511 -0.0887 -0.2730
  682THF     C910802   1.438   3.966   1.289 -0.0726 -0.4555 -1.0278
  682THF    H1010803   1.345   3.824   1.164  1.3128  1.1871 -2.5054
  682THF    H1110804   1.244   3.866   1.311  3.9637  1.4068  1.9478
  682THF    H1210805   1.479   3.907   1.375  0.0538 -0.3982  0.2211
  682THF    H1310806   1.529   3.980   1.225 -1.6225 -1.6207 -0.7952
  683THF     O110807   2.329   4.818   2.841 -0.5684  0.3500 -0.8065
  683THF     C210808   2.218   4.781   2.769  0.5294  0.2103 -0.1973
  683THF     C310809   2.305   4.812   2.985  0.9096 -0.0476  0.1435
  683THF     H410810   2.238   4.739   2.672  2.0415 -0.7645 -0.1120
  683THF     H510811   2.149   4.865   2.753  1.0983  2.4004  2.6644
  683THF     H610812   2.409   4.802   3.029 -1.4801  3.1041  0.5781
  683THF     H710813   2.244   4.896   3.019  0.8464  1.2985 -2.0504
  683THF     C810814   2.218   4.683   2.999 -0.3552 -0.0320  0.9012
  683THF     C910815   2.147   4.686   2.867  0.4977  0.3769 -0.5621
  683THF    H1010816   2.159   4.668   3.087  1.4756 -1.5659 -3.0365
  683THF    H1110817   2.277   4.593   3.012  0.7392 -0.7380 -2.0095
  683THF    H1210818   2.154   4.580   2.822  1.2654 -2.2379 -3.3374
  683THF    H1310819   2.039   4.704   2.870  1.4944 -0.9726  1.2760
  684THF     O110820   2.709   4.655   0.777  0.0634 -0.1821  0.2008
  684THF     C210821   2.753   4.574   0.661  0.4346 -0.1454 -0.3663
  684THF     C310822   2.646   4.771   0.725  0.5234  0.1780 -0.4501
  684THF     H410823   2.730   4.468   0.674 -1.0793 -0.5656  0.7806
  684THF     H510824   2.854   4.583   0.633  0.4546  0.6914  0.2168
  684THF     H610825   2.538   4.768   0.758  2.6408  1.8551  0.7652
  684THF     H710826   2.673   4.860   0.778 -1.6780  1.1398 -2.9788
  684THF     C810827   2.659   4.771   0.579  0.0098 -0.3370  0.5444
  684THF     C910828   2.676   4.632   0.540 -1.1942 -0.0261  0.5695
  684THF    H1010829   2.749   4.833   0.574 -1.4855  1.7228 -0.5342
  684THF    H1110830   2.567   4.810   0.532 -0.1162 -0.4596  0.9303
  684THF    H1210831   2.575   4.604   0.533  1.1628  2.5883 -0.2204
  684THF    H1310832   2.732   4.613   0.447 -2.6232 -0.6397 -1.3091
  685THF     O110833   1.107   2.202   2.026  0.4233  0.2167 -0.3495
  685THF     C210834   1.140   2.250   1.894 -0.0658  0.1497 -0.5327
  685THF     C310835   1.093   2.309   2.111  0.1179 -0.1414 -0.5867
  685THF     H410836   1.149   2.164   1.819 -1.0163  1.5255  1.1015
  685THF     H510837   1.240   2.288   1.901 -4.4915 -1.8350  0.7607
  685THF     H610838   1.032   2.278   2.198 -1.4362  0.4351  0.4851
  685THF     H710839   1.188   2.329   2.158 -0.3616 -0.9138 -0.2906
  685THF     C810840   1.029   2.422   2.028 -0.9214  0.0555  0.6760
  685THF     C910841   1.049   2.370   1.880 -0.2036  0.5823  0.2777
  685THF    H1010842   1.083   2.519   2.051  0.8177 -0.4724  2.1169
  685THF    H1110843   0.916   2.431   2.040  2.8429 -1.4950 -0.4511
  685THF    H1210844   0.958   2.348   1.819  0.6096  1.2700 -0.0977
  685THF    H1310845   1.107   2.441   1.817  0.7128 -0.7675 -2.1137
  686THF     O110846   2.282   4.310   0.875 -0.3347 -0.2195 -0.0207
  686THF     C210847   2.230   4.419   0.952  0.4968 -0.5008 -0.3026
  686THF     C310848   2.412   4.358   0.828  0.3422  0.1721 -0.9923
  686THF     H410849   2.268   4.419   1.053  0.1289 -0.7497 -1.8155
  686THF     H510850   2.126   4.405   0.957  0.3656  1.0483  1.6763
  686THF     H610851   2.481   4.330   0.914  1.1917 -0.5646  1.1160
  686THF     H710852   2.444   4.317   0.733  2.6703  0.6117 -0.5129
  686THF     C810853   2.394   4.508   0.805 -0.2000  0.2170 -0.1629
  686THF     C910854   2.272   4.546   0.878  0.2472 -0.6052  0.0559
  686THF    H1010855   2.372   4.527   0.702 -0.4736 -1.1676  0.5546
  686THF    H1110856   2.480   4.573   0.835 -1.2184  1.6202  1.0907
  686THF    H1210857   2.300   4.634   0.939 -0.5859  0.5881  0.6087
  686THF    H1310858   2.188   4.572   0.815  0.5963 -0.3912  0.5011
  687THF     O110859   4.517   3.486   1.450  0.5641 -0.0747  0.2390
  687THF     C210860   4.558   3.391   1.550 -0.4433  0.0309  0.8612
  687THF     C310861   4.487   3.415   1.326  0.0505  0.7630 -0.1343
  687THF     H410862   4.551   3.410   1.660 -1.5913 -2.9379  0.3775
  687THF     H510863   4.667   3.376   1.529 -0.7309  3.7393 -1.1965
  687THF     H610864   4.389   3.438   1.284 -1.3713 -1.0271  0.9832
  687THF     H710865   4.568   3.436   1.257 -0.6210  0.8116 -1.0645
  687THF     C810866   4.484   3.266   1.365  0.1272  0.0074 -0.1037
  687THF     C910867   4.490   3.259   1.518  0.3603  0.0331  0.5010
  687THF    H1010868   4.569   3.209   1.321 -0.6857  0.4862  1.0303
  687THF    H1110869   4.396   3.229   1.326  0.0556  0.8268 -1.6673
  687THF    H1210870   4.395   3.250   1.567  2.9801 -2.0685 -0.5648
  687THF    H1310871   4.549   3.178   1.562  0.6574  0.2570  1.1038
  688THF     O110872   3.629   1.974   0.581 -0.0506 -0.0188 -0.4195
  688THF     C210873   3.661   1.879   0.677 -0.5745  0.1970  0.3952
  688THF     C310874   3.525   2.052   0.640  0.7593 -0.1586  0.1057
  688THF     H410875   3.759   1.850   0.656 -0.3272  2.1619  0.6385
  688THF     H510876   3.603   1.788   0.662 -0.1566 -1.0873 -0.0493
  688THF     H610877   3.519   2.143   0.586  0.9848  0.1718  0.0084
  688THF     H710878   3.428   2.000   0.645  3.9082 -2.0616  1.4984
  688THF     C810879   3.575   2.071   0.784  0.0650 -0.3130 -0.0835
  688THF     C910880   3.637   1.932   0.821  0.2306 -0.2588  0.0209
  688THF    H1010881   3.506   2.099   0.863 -0.6118 -3.0953 -1.7485
  688THF    H1110882   3.647   2.148   0.777  0.5256  1.6322  0.9591
  688THF    H1210883   3.728   1.928   0.875 -1.8511  2.2411 -2.7287
  688THF    H1310884   3.565   1.879   0.869 -0.2805  0.2747 -0.3415
  689THF     O110885   3.032   4.193   4.394  0.4366 -0.0875 -1.1064
  689THF     C210886   2.971   4.257   4.507  0.4904  0.5892  0.0462
  689THF     C310887   3.121   4.277   4.335 -0.0064 -0.3414  1.2328
  689THF     H410888   2.913   4.186   4.576  0.3542 -1.5361  1.0257
  689THF     H510889   2.901   4.332   4.470  1.3861 -0.8407  1.4548
  689THF     H610890   3.208   4.219   4.312 -3.1340 -1.1899  0.4424
  689THF     H710891   3.070   4.307   4.248 -0.3457  2.5485 -1.5946
  689THF     C810892   3.151   4.384   4.434  0.2531  0.1132 -0.0837
  689THF     C910893   3.091   4.327   4.563 -0.3105  0.9934  0.5686
  689THF    H1010894   3.095   4.476   4.410 -0.5204 -0.7838  0.3756
  689THF    H1110895   3.252   4.414   4.435 -1.8224 -1.2679  0.0531
  689THF    H1210896   3.159   4.256   4.612 -0.7848 -4.5992  1.3674
  689THF    H1310897   3.076   4.407   4.636 -3.2413  0.4397  0.7818
  690THF     O110898   0.533   0.225   1.109 -0.2090 -0.3592 -0.0284
  690THF     C210899   0.565   0.244   1.244 -0.0932  0.0903  0.0720
  690THF     C310900   0.413   0.153   1.100 -0.3708 -0.6255 -1.2107
  690THF     H410901   0.622   0.337   1.258  0.7703 -1.4329 -0.6788
  690THF     H510902   0.635   0.167   1.257 -0.0063 -0.1411 -3.8767
  690THF     H610903   0.346   0.171   1.021  2.4194 -1.5310  1.5522
  690THF     H710904   0.427   0.047   1.086 -2.6414  1.9033  1.4424
  690THF     C810905   0.341   0.174   1.229 -0.0116 -0.0485 -0.7685
  690THF     C910906   0.436   0.231   1.328 -0.3435  0.3431 -0.0913
  690THF    H1010907   0.294   0.076   1.260  3.1044 -0.9828  0.8764
  690THF    H1110908   0.262   0.250   1.218 -3.2863  1.3453 -1.3567
  690THF    H1210909   0.406   0.339   1.348  0.2226  0.2771  1.7523
  690THF    H1310910   0.458   0.174   1.423  0.2291 -0.2306  0.0587
  691THF     O110911   5.134   5.489   5.314  0.1107 -0.5022 -0.4735
  691THF     C210912   5.206   5.538   5.423  0.2331  0.2675 -0.2642
  691THF     C310913   5.224   5.414   5.231  0.1140 -0.0224  0.7599
  691THF     H410914   5.154   5.548   5.514  0.6784  2.0125  2.2952
  691THF     H510915   5.238   5.645   5.401 -2.0738  2.5518  1.4749
  691THF     H610916   5.178   5.326   5.180 -0.5331 -0.7866  2.0143
  691THF     H710917   5.274   5.486   5.157  2.9065  0.2740 -1.0801
  691THF     C810918   5.319   5.346   5.331 -0.2052 -0.3734  0.2406
  691THF     C910919   5.334   5.453   5.436  0.3342 -0.7108 -0.1136
  691THF    H1010920   5.414   5.325   5.292  0.9434 -1.2275  3.5118
  691THF    H1110921   5.274   5.258   5.370  2.0568  0.4905  0.2430
  691THF    H1210922   5.359   5.393   5.525  0.3926 -0.3335  0.5420
  691THF    H1310923   5.417   5.520   5.398 -0.9295 -1.2815  0.4826
  692THF     O110924   4.157   2.025   5.115  0.2722  0.2948  0.0815
  692THF     C210925   4.223   1.905   5.134  0.1172  0.4880  0.1775
  692THF     C310926   4.091   2.062   5.234 -0.4195  0.4709 -0.6064
  692THF     H410927   4.301   1.922   5.203  0.7405 -1.3747  0.0294
  692THF     H510928   4.253   1.876   5.036 -2.4083 -0.8304  0.9395
  692THF     H610929   4.153   2.123   5.302  2.2154  2.1910 -1.5726
  692THF     H710930   3.997   2.111   5.213 -0.6987  0.0759  1.9281
  692THF     C810931   4.060   1.935   5.309 -0.6100  0.1079 -0.0137
  692THF     C910932   4.120   1.828   5.205 -0.5512  0.3932  0.3125
  692THF    H1010933   3.956   1.920   5.329  0.3848 -0.7394  0.4250
  692THF    H1110934   4.109   1.932   5.399  1.9431  0.8912 -1.2375
  692THF    H1210935   4.167   1.735   5.247 -1.8134 -2.2900  0.4844
  692THF    H1310936   4.050   1.785   5.125  0.9973 -0.3059 -1.5528
  693THF     O110937   2.187   5.314   1.090 -0.1552 -0.5116 -0.7161
  693THF     C210938   2.163   5.452   1.108 -0.0947  0.0133 -0.0857
  693THF     C310939   2.180   5.252   1.217  0.2324 -0.3278  0.2302
  693THF     H410940   2.058   5.472   1.116  1.1236  0.6773 -0.4812
  693THF     H510941   2.197   5.511   1.023  0.5976  0.3131  0.0265
  693THF     H610942   2.076   5.232   1.226 -0.5365  0.8038  1.8438
  693THF     H710943   2.237   5.158   1.209 -2.9696  1.0415 -0.9946
  693THF     C810944   2.236   5.350   1.317 -0.3574 -0.4998 -0.1118
  693THF     C910945   2.219   5.485   1.246 -0.4247 -0.3512  0.0035
  693THF    H1010946   2.343   5.331   1.346 -1.1160 -2.2462  2.0638
  693THF    H1110947   2.184   5.354   1.415 -0.4830 -0.6570  0.9831
  693THF    H1210948   2.165   5.554   1.306  0.5505  0.8280  0.4673
  693THF    H1310949   2.327   5.521   1.227 -0.7954  1.6754  0.8733
  694THF     O110950   0.200   4.460   4.439 -0.3943 -0.3705 -0.7264
  694THF     C210951   0.331   4.419   4.435  0.5842 -0.1692  0.6852
  694THF     C310952   0.115   4.344   4.435 -1.0314  0.4916 -0.3144
  694THF     H410953   0.404   4.483   4.473 -0.9486 -0.7792  3.5214
  694THF     H510954   0.364   4.416   4.332 -1.8030  2.7553 -1.5296
  694THF     H610955   0.018   4.375   4.483 -1.4987  1.2566  2.3906
  694THF     H710956   0.104   4.315   4.328 -1.3926 -1.0078 -1.3520
  694THF     C810957   0.192   4.241   4.517  0.1042  1.1481 -0.2147
  694THF     C910958   0.338   4.268   4.482 -0.4878 -0.7030  0.0840
  694THF    H1010959   0.170   4.134   4.489 -1.7323 -0.7562 -0.7252
  694THF    H1110960   0.184   4.251   4.627  0.6936  0.4450  0.5734
  694THF    H1210961   0.392   4.248   4.572 -0.2932  0.5126 -1.1278
  694THF    H1310962   0.370   4.220   4.387 -1.5044  2.2781  0.0376
  695THF     O110963   1.227   5.449   5.323 -0.7888 -0.2815 -0.3787
  695THF     C210964   1.188   5.444   5.189  0.1604  0.3351 -0.2460
  695THF     C310965   1.294   5.571   5.340  0.2436 -0.7569  0.4683
  695THF     H410966   1.132   5.356   5.154  0.1798 -0.3393  1.7555
  695THF     H510967   1.283   5.437   5.133  2.2380 -1.6824  0.8119
  695THF     H610968   1.290   5.591   5.444 -0.1593  0.9432 -2.5509
  695THF     H710969   1.394   5.570   5.304  1.4502  0.0606  0.8146
  695THF     C810970   1.212   5.670   5.259 -0.3120  0.1094  0.8418
  695THF     C910971   1.125   5.583   5.170 -0.0020 -0.5308  0.4670
  695THF    H1010972   1.271   5.735   5.197 -0.6096 -0.0009 -1.1786
  695THF    H1110973   1.152   5.730   5.329 -0.0456  0.6696 -2.4832
  695THF    H1210974   1.019   5.593   5.208 -2.3393 -0.2859  0.2654
  695THF    H1310975   1.126   5.613   5.068 -3.2606 -0.8361 -1.0055
  696THF     O110976   5.368   2.716   0.920  0.2481  0.6756 -0.0438
  696THF     C210977   5.412   2.667   0.795  0.5690 -0.2807  0.3687
  696THF     C310978   5.266   2.618   0.958 -0.0274  0.1302  0.5074
  696THF     H410979   5.472   2.587   0.822 -1.3777  0.5972  0.9522
  696THF     H510980   5.463   2.749   0.749 -1.6302  0.5104  1.1773
  696THF     H610981   5.316   2.539   1.011 -1.3346  0.8377 -0.3725
  696THF     H710982   5.190   2.652   1.039  0.7748  0.3669  1.1703
  696THF     C810983   5.195   2.570   0.832  0.1033 -0.0915  1.2912
  696THF     C910984   5.286   2.623   0.724  0.2443 -0.0043 -0.8559
  696THF    H1010985   5.090   2.601   0.821  0.1776 -0.2883  2.8720
  696THF    H1110986   5.183   2.461   0.840 -0.4614 -0.4680  1.5163
  696THF    H1210987   5.294   2.549   0.647 -0.2321  0.6382  1.5876
  696THF    H1310988   5.252   2.713   0.675 -5.1125 -1.2674 -0.4523
  697THF     O110989   1.863   2.227   2.314  0.6924 -0.2554 -0.5198
  697THF     C210990   1.997   2.269   2.334  0.4071 -0.3101  0.0802
  697THF     C310991   1.803   2.329   2.236 -0.4986 -0.0190  0.3237
  697THF     H410992   2.051   2.178   2.331 -2.0675  0.6650 -0.0483
  697THF     H510993   2.013   2.315   2.428  0.8649  0.1539  0.3781
  697THF     H610994   1.716   2.294   2.186  1.0315 -0.3241 -2.9326
  697THF     H710995   1.768   2.411   2.300 -1.2640 -1.4901 -2.6095
  697THF     C810996   1.914   2.376   2.142  0.6839 -0.1429  0.0960
  697THF     C910997   2.040   2.358   2.220 -0.4679  0.1032  0.4537
  697THF    H1010998   1.888   2.478   2.110 -1.1469  0.2138 -0.1140
  697THF    H1110999   1.922   2.308   2.059  0.8706  1.9997 -1.5679
  697THF    H1211000   2.111   2.322   2.143  1.3349 -2.3943  1.7885
  697THF    H1311001   2.067   2.463   2.247 -0.3012  1.7583 -0.8794
  698THF     O111002   0.840   2.350   3.753  0.1135 -0.1530  0.1107
  698THF     C211003   0.841   2.316   3.891  0.1483  0.2960  0.3110
  698THF     C311004   0.924   2.252   3.688 -0.3496 -0.7316 -0.5997
  698THF     H411005   0.764   2.367   3.943  2.3392  1.0044  0.6604
  698THF     H511006   0.930   2.367   3.936  0.6419  0.2530  1.7112
  698THF     H611007   0.913   2.257   3.579 -0.2680 -0.7238 -2.6064
  698THF     H711008   1.031   2.269   3.712  1.2241  0.0731  2.7085
  698THF     C811009   0.876   2.124   3.749  0.1942  0.0434  0.4044
  698THF     C911010   0.833   2.165   3.885  0.3210  0.7376 -0.0445
  698THF    H1011011   0.946   2.041   3.752 -1.8260  0.0114  0.1257
  698THF    H1111012   0.794   2.084   3.693  0.4408  3.4849 -0.2659
  698THF    H1211013   0.724   2.148   3.902 -0.6524 -0.0128  1.5261
  698THF    H1311014   0.882   2.101   3.962  2.0244  1.0603 -1.3289
  699THF     O111015   2.463   5.198   4.257 -0.2441 -0.5780 -0.2163
  699THF     C211016   2.387   5.125   4.162  0.6096 -0.1778  0.0524
  699THF     C311017   2.386   5.314   4.287  0.2779  0.0640  0.2937
  699THF     H411018   2.317   5.062   4.215 -1.7823 -1.2874 -1.5411
  699THF     H511019   2.440   5.059   4.093 -0.1722  0.8276 -1.8328
  699THF     H611020   2.314   5.304   4.367  0.0027  0.3958 -1.4089
  699THF     H711021   2.455   5.397   4.316  1.2675 -1.2926  0.9704
  699THF     C811022   2.301   5.351   4.162 -0.1691 -0.0704  0.0120
  699THF     C911023   2.324   5.230   4.079  0.3118  0.3948  1.0595
  699THF    H1011024   2.339   5.433   4.107  0.5741 -1.4767  0.5116
  699THF    H1111025   2.191   5.367   4.178  0.0474 -0.8035  1.4533
  699THF    H1211026   2.242   5.190   4.019  0.6709 -0.0588  0.3092
  699THF    H1311027   2.389   5.247   3.991  0.4134 -0.9254  1.3130
  700THF     O111028   3.734   3.217   2.527  0.0600  0.1704  0.1912
  700THF     C211029   3.681   3.318   2.604 -0.4239 -0.0104  0.0569
  700THF     C311030   3.809   3.139   2.616  0.0099  0.2294 -0.3358
  700THF     H411031   3.606   3.363   2.539 -1.0852  0.8360 -3.4979
  700THF     H511032   3.739   3.401   2.634  0.9851 -0.0104 -0.1004
  700THF     H611033   3.828   3.042   2.554 -3.1541  2.1072 -3.1704
  700THF     H711034   3.903   3.197   2.632 -1.0425  0.9177  0.7785
  700THF     C811035   3.704   3.123   2.732 -0.5566  0.1404 -0.2281
  700THF     C911036   3.618   3.238   2.721  0.0282  0.4123 -0.4814
  700THF    H1011037   3.751   3.113   2.833 -0.2976  0.8650  1.7384
  700THF    H1111038   3.645   3.033   2.719 -2.6698 -1.2827 -0.4416
  700THF    H1211039   3.516   3.207   2.702 -1.6611  0.5449  2.0440
  700THF    H1311040   3.618   3.302   2.809  2.0558  2.3247  3.0148
  701THF     O111041   1.131   2.863   3.939  0.8414 -0.5955 -0.1441
  701THF     C211042   1.198   2.941   3.837  0.5434 -0.3152  0.5002
  701THF     C311043   1.206   2.741   3.960 -0.1944 -0.4161 -0.1269
  701THF     H411044   1.174   3.044   3.849 -1.2928  1.4088  4.3229
  701THF     H511045   1.163   2.907   3.741 -0.8609 -0.5856 -0.4131
  701THF     H611046   1.183   2.677   4.045 -0.3732 -2.4462 -1.3196
  701THF     H711047   1.191   2.675   3.881  0.0720 -0.3157 -2.4323
  701THF     C811048   1.349   2.800   3.970  0.2691  0.2878  0.3740
  701THF     C911049   1.347   2.904   3.855  0.2243  0.0099  0.3657
  701THF    H1011050   1.424   2.727   3.940 -0.5642  0.1072 -2.4456
  701THF    H1111051   1.375   2.849   4.063 -0.6728  1.1394  1.3944
  701THF    H1211052   1.400   2.980   3.903  0.8455 -1.8497  0.0420
  701THF    H1311053   1.387   2.869   3.754  0.9641 -0.2706 -0.4831
  702THF     O111054   5.493   4.507   1.481 -0.5166  0.5486 -0.6305
  702THF     C211055   5.611   4.437   1.448 -0.0478  0.3551 -0.5315
  702THF     C311056   5.474   4.626   1.401  0.3688 -0.5032 -0.1425
  702THF     H411057   5.588   4.376   1.357 -0.7458  0.4866 -2.3287
  702THF     H511058   5.651   4.376   1.522  2.0363  0.0904  0.0504
  702THF     H611059   5.416   4.600   1.318 -2.9053 -1.4430  0.6420
  702THF     H711060   5.422   4.702   1.459  1.5070 -0.9196  2.1107
  702THF     C811061   5.614   4.664   1.363 -0.1534 -0.2731 -0.1898
  702THF     C911062   5.701   4.547   1.406 -0.6385  0.4135  0.2600
  702THF    H1011063   5.637   4.757   1.415 -2.4774  0.4985  3.2960
  702THF    H1111064   5.625   4.687   1.255 -1.2845 -0.2754 -0.7528
  702THF    H1211065   5.774   4.513   1.326  1.3192  0.7768  1.5064
  702THF    H1311066   5.758   4.591   1.490  0.3947  0.5256  2.8197
  703THF     O111067   1.745   0.487   1.999  0.3261  0.0698  0.2507
  703THF     C211068   1.667   0.463   1.882  0.0309  0.4263  0.0874
  703THF     C311069   1.860   0.394   1.984 -0.0994  0.6089  0.3712
  703THF     H411070   1.687   0.543   1.817  0.0184 -2.2991 -1.2801
  703THF     H511071   1.563   0.472   1.910  2.6337 -3.1001 -0.5739
  703THF     H611072   1.941   0.445   1.938  0.1811 -1.9399  0.7346
  703THF     H711073   1.894   0.361   2.083  0.1286  1.1490  2.1083
  703THF     C811074   1.811   0.274   1.907 -0.9083  0.0640  0.2680
  703THF     C911075   1.712   0.336   1.811 -0.2724  0.0268  0.1300
  703THF    H1011076   1.764   0.204   1.965  1.5945 -0.6245  1.2921
  703THF    H1111077   1.898   0.235   1.861 -1.5946 -0.5918  1.3718
  703THF    H1211078   1.750   0.348   1.711 -3.9156  0.5017  0.4284
  703THF    H1311079   1.633   0.263   1.798 -3.4126 -1.4802  0.8092
  704THF     O111080   4.950   4.949   2.946 -0.0677  0.1063  0.1640
  704THF     C211081   5.069   5.021   2.972  0.5595 -0.1586 -0.3431
  704THF     C311082   4.918   4.979   2.811  0.8547  0.0141 -0.1439
  704THF     H411083   5.160   4.968   2.940 -0.4560  2.4476  0.1398
  704THF     H511084   5.087   5.035   3.076  0.8214 -0.9423  2.2401
  704THF     H611085   4.966   4.898   2.751 -0.2704  1.9264  1.7744
  704THF     H711086   4.809   4.973   2.812  1.0770  1.6330 -2.5460
  704THF     C811087   4.979   5.113   2.779  0.6001 -0.0913 -0.3034
  704THF     C911088   5.046   5.157   2.904 -0.1553  1.2306  0.6670
  704THF    H1011089   4.905   5.180   2.738 -0.1012 -0.9374  1.1975
  704THF    H1111090   5.049   5.094   2.699 -0.8963 -0.3736  3.1108
  704THF    H1211091   5.137   5.215   2.885  0.9009  2.7500 -2.1523
  704THF    H1311092   4.995   5.213   2.975 -0.5281  0.7910  2.3896
  705THF     O111093   1.888   4.521   1.933 -0.0097 -0.2912  0.2694
  705THF     C211094   1.899   4.384   1.936 -0.3083 -0.1598  0.0391
  705THF     C311095   2.022   4.573   1.923 -0.2875  0.3391 -0.4086
  705THF     H411096   1.806   4.332   1.916 -1.6964 -0.9059 -0.4201
  705THF     H511097   1.941   4.365   2.038 -2.9904  1.5063 -0.7747
  705THF     H611098   2.023   4.678   1.893 -0.4200 -3.0219  2.8247
  705THF     H711099   2.059   4.567   2.023  0.4904 -0.0445 -1.9717
  705THF     C811100   2.090   4.484   1.818  0.2623 -0.3953  0.0929
  705THF     C911101   2.005   4.353   1.829  0.1000 -0.4017 -0.0650
  705THF    H1011102   2.197   4.459   1.852 -1.0606 -0.1605  1.6757
  705THF    H1111103   2.075   4.529   1.719 -4.0104 -0.5674  1.6486
  705THF    H1211104   1.970   4.314   1.734  2.7900  0.4791 -2.6008
  705THF    H1311105   2.067   4.269   1.856  1.7712 -0.9735 -1.2531
  706THF     O111106   3.354   2.840   3.149 -0.7140  0.1150  0.2882
  706THF     C211107   3.488   2.805   3.120 -0.0399 -0.1632  0.2841
  706THF     C311108   3.299   2.841   3.016 -0.0909  0.4838  0.2158
  706THF     H411109   3.500   2.699   3.107  1.3540  0.7668  0.3330
  706THF     H511110   3.541   2.828   3.218  0.0453 -0.7143 -0.7482
  706THF     H611111   3.292   2.744   2.972  0.2605  2.9373 -0.6504
  706THF     H711112   3.200   2.883   3.015  2.2348  0.6308 -0.8674
  706THF     C811113   3.400   2.929   2.946  0.0409  0.1831 -0.3068
  706THF     C911114   3.529   2.879   2.995 -0.6099  0.1160  0.1369
  706THF    H1011115   3.389   3.033   2.985  2.5413  1.0054  0.5391
  706THF    H1111116   3.405   2.926   2.839  0.5614  1.7877 -1.8502
  706THF    H1211117   3.581   2.820   2.922 -0.9484  1.9335 -0.0998
  706THF    H1311118   3.600   2.954   3.025  0.1084  0.2253 -0.5438
  707THF     O111119   5.073   0.373   2.375  0.5501 -0.1851  0.0524
  707THF     C211120   5.063   0.256   2.458  0.6195 -0.2584  0.3449
  707THF     C311121   5.193   0.441   2.416  0.0224 -0.1045 -0.5429
  707THF     H411122   4.996   0.183   2.408 -2.0624 -0.6783 -1.3574
  707THF     H511123   5.010   0.282   2.554 -2.3092  1.8294  0.2840
  707THF     H611124   5.216   0.520   2.346  1.5310  1.4289 -0.5152
  707THF     H711125   5.177   0.490   2.510 -1.0855  2.3265  0.7990
  707THF     C811126   5.290   0.321   2.424  0.7427  0.1400  0.1954
  707THF     C911127   5.205   0.211   2.491  0.1078 -0.6234 -0.3798
  707THF    H1011128   5.390   0.342   2.480 -0.6284  1.0964 -1.2439
  707THF    H1111129   5.313   0.284   2.325 -2.0660 -1.0760  0.8507
  707THF    H1211130   5.212   0.112   2.453 -0.1066  0.4929 -0.6588
  707THF    H1311131   5.230   0.214   2.593  1.1555  0.9078 -3.8043
  708THF     O111132   3.677   4.994   5.072  0.5706  0.8905 -0.0953
  708THF     C211133   3.594   4.877   5.068  0.6042  0.0935  0.4217
  708THF     C311134   3.757   4.989   5.199  0.1630 -0.1525 -0.2498
  708THF     H411135   3.579   4.857   4.961 -0.4615 -1.2741  0.5742
  708THF     H511136   3.497   4.895   5.111 -0.9412 -1.3755 -1.1163
  708THF     H611137   3.859   5.036   5.191 -1.2549  0.1057  0.3451
  708THF     H711138   3.702   5.049   5.272 -1.5802 -0.3182 -2.4178
  708THF     C811139   3.763   4.839   5.243  0.2001 -0.1923 -0.0655
  708THF     C911140   3.676   4.772   5.142 -0.1416 -0.1171  0.6461
  708THF    H1011141   3.715   4.829   5.337  1.4651  3.2268 -1.4414
  708THF    H1111142   3.864   4.796   5.240 -2.4523  2.7899 -1.0830
  708THF    H1211143   3.744   4.723   5.077  1.8272  0.8657  1.5370
  708THF    H1311144   3.612   4.685   5.182 -0.1958 -1.0831  0.5539
  709THF     O111145   3.186   2.392   3.014  0.0158 -0.3525  0.4657
  709THF     C211146   3.158   2.278   2.938  0.2501 -0.0618  0.3563
  709THF     C311147   3.095   2.494   2.999 -0.6231  0.5624 -0.2440
  709THF     H411148   3.212   2.191   2.965  0.0902  2.2531  0.6510
  709THF     H511149   3.183   2.293   2.832 -2.9835  0.1426  1.7141
  709THF     H611150   3.079   2.557   3.086  0.7328  1.1313  2.5830
  709THF     H711151   3.139   2.565   2.924 -0.2099  0.1157  0.8651
  709THF     C811152   2.971   2.422   2.952 -0.7221  0.1669  0.4171
  709THF     C911153   3.005   2.274   2.939  0.3832 -0.1497 -0.0434
  709THF    H1011154   2.959   2.455   2.852  1.7244 -0.9008 -1.5742
  709THF    H1111155   2.879   2.453   3.009  1.0106  0.1425  2.2998
  709THF    H1211156   2.962   2.215   3.025 -4.0090 -0.1186 -0.5450
  709THF    H1311157   2.958   2.232   2.853  0.4357  0.7001  0.2652
  710THF     O111158   3.715   1.239   0.420 -0.0242  0.0495 -0.0733
  710THF     C211159   3.607   1.255   0.327 -0.1554 -0.0721  0.5702
  710THF     C311160   3.658   1.211   0.548 -0.3089 -0.7876 -0.1752
  710THF     H411161   3.578   1.155   0.304 -1.9787  1.8297 -0.3626
  710THF     H511162   3.643   1.321   0.253 -0.0852  0.9278  1.5239
  710THF     H611163   3.615   1.110   0.557  0.9013  1.0514  2.0850
  710THF     H711164   3.731   1.224   0.630  0.5404 -0.2431  1.1231
  710THF     C811165   3.538   1.315   0.553  0.1501 -0.7342 -0.6583
  710THF     C911166   3.499   1.342   0.407 -0.8886  0.1654  0.5561
  710THF    H1011167   3.567   1.407   0.615 -1.5053  1.0601  1.4443
  710THF    H1111168   3.454   1.274   0.610  1.6445 -1.6441  0.6301
  710THF    H1211169   3.399   1.308   0.400 -1.1174  1.5422  2.8910
  710THF    H1311170   3.511   1.448   0.388  1.5330  0.1162 -0.8013
  711THF     O111171   4.730   4.744   4.460  0.1244  0.0086 -0.0227
  711THF     C211172   4.792   4.630   4.521 -0.1957 -0.2596 -0.4074
  711THF     C311173   4.647   4.692   4.359 -0.1495 -0.4984 -0.5312
  711THF     H411174   4.731   4.591   4.598 -0.8769  0.2919 -0.2895
  711THF     H511175   4.885   4.646   4.582 -1.7722  2.1496 -0.5668
  711THF     H611176   4.553   4.667   4.410  0.9571 -0.4927  3.2309
  711THF     H711177   4.628   4.766   4.285  0.0368 -1.1018 -4.8013
  711THF     C811178   4.717   4.579   4.301 -0.9554  0.0564 -0.0474
  711THF     C911179   4.826   4.541   4.404  0.2861  0.1619  0.0038
  711THF    H1011180   4.772   4.595   4.210 -0.7874 -1.5286  0.4119
  711THF    H1111181   4.654   4.487   4.275 -1.8352  1.8936  1.6082
  711THF    H1211182   4.822   4.440   4.442 -1.7551  2.0716  0.1414
  711THF    H1311183   4.929   4.545   4.365  0.7480  0.8374 -1.4999
  712THF     O111184   1.475   3.151   1.798 -0.2963  0.5398 -0.3705
  712THF     C211185   1.454   3.278   1.860  0.0495  0.1545 -0.3686
  712THF     C311186   1.504   3.052   1.894 -0.0564 -0.1576  0.1300
  712THF     H411187   1.365   3.264   1.913  1.4773 -1.0637 -1.3058
  712THF     H511188   1.461   3.374   1.814  1.8891 -0.5362  2.0862
  712THF     H611189   1.404   3.008   1.924  0.3048 -0.8120  1.4628
  712THF     H711190   1.567   2.973   1.850  3.9863 -1.6970  0.0504
  712THF     C811191   1.575   3.134   2.006  0.6455  0.5171 -0.4096
  712THF     C911192   1.562   3.280   1.974 -0.8711 -0.3655  0.1218
  712THF    H1011193   1.679   3.112   2.008  1.7819 -0.7275 -1.2460
  712THF    H1111194   1.530   3.093   2.099 -0.2196 -0.3579 -0.9948
  712THF    H1211195   1.537   3.343   2.060  1.8721 -0.1239 -0.7612
  712THF    H1311196   1.644   3.327   1.936 -0.2617 -4.2326  0.6036
  713THF     O111197   0.674   0.240   5.366  0.2838 -0.5110 -0.0531
  713THF     C211198   0.688   0.315   5.483  0.5456  0.0477  0.4549
  713THF     C311199   0.796   0.173   5.356 -0.6516  0.2567  0.4673
  713THF     H411200   0.588   0.360   5.505 -0.5286  3.0719  0.8814
  713THF     H511201   0.761   0.393   5.472  2.5635  1.8262 -2.6570
  713THF     H611202   0.784   0.095   5.279 -2.2201 -0.7364 -1.0678
  713THF     H711203   0.871   0.235   5.306 -0.2105  1.0602 -1.1634
  713THF     C811204   0.832   0.132   5.497 -0.9180 -0.2883 -0.2936
  713THF     C911205   0.731   0.208   5.575  0.5148 -0.0191  0.1414
  713THF    H1011206   0.924   0.172   5.531 -0.4256 -1.2333 -0.3198
  713THF    H1111207   0.844   0.023   5.505  0.1268  0.7499 -1.4075
  713THF    H1211208   0.652   0.127   5.596  0.8876 -0.0819  0.0695
  713THF    H1311209   0.768   0.241   5.674  0.0749  0.3528 -0.7664
  714THF     O111210   0.805   2.650   0.102 -0.0476  0.8731 -0.0230
  714THF     C211211   0.846   2.518   0.073 -0.2071  0.0114 -0.1621
  714THF     C311212   0.727   2.646   0.218  0.2652 -0.4083  0.0576
  714THF     H411213   0.956   2.504   0.086  1.1957 -1.0802  1.0288
  714THF     H511214   0.824   2.500  -0.033 -1.4092 -1.1806 -0.4200
  714THF     H611215   0.797   2.652   0.301 -1.8055  1.0289  2.4827
  714THF     H711216   0.664   2.728   0.239  0.1261  0.3727  1.0453
  714THF     C811217   0.646   2.517   0.217 -0.6932  0.1258  0.0422
  714THF     C911218   0.764   2.428   0.172 -0.2131 -0.0291  0.1688
  714THF    H1011219   0.574   2.513   0.131 -1.9228 -0.9492  2.7128
  714THF    H1111220   0.606   2.497   0.313 -0.2219  0.9772 -0.9978
  714THF    H1211221   0.831   2.399   0.257  3.3400  3.2260  2.0651
  714THF    H1311222   0.729   2.330   0.146 -1.7026  0.4511  1.3890
  715THF     O111223   0.558   5.295   1.089 -0.1100  0.5009  0.0154
  715THF     C211224   0.613   5.353   1.205  0.1616  0.0888 -0.1790
  715THF     C311225   0.640   5.186   1.039  0.1945  0.9137  0.1658
  715THF     H411226   0.538   5.419   1.260 -0.5319 -0.2198  0.2847
  715THF     H511227   0.704   5.418   1.179 -0.6853 -0.3717 -1.0602
  715THF     H611228   0.571   5.108   1.012 -2.1336  1.9913 -0.4911
  715THF     H711229   0.691   5.204   0.945 -0.9534  2.8022  0.9253
  715THF     C811230   0.726   5.150   1.159 -0.0436 -0.3151  0.6604
  715THF     C911231   0.671   5.232   1.276 -0.4850 -0.0415  0.4032
  715THF    H1011232   0.817   5.193   1.128 -2.2454  2.3678  2.0930
  715THF    H1111233   0.729   5.045   1.176 -1.5460 -2.1250 -0.2643
  715THF    H1211234   0.594   5.188   1.326 -1.8035 -0.1940 -0.5620
  715THF    H1311235   0.750   5.264   1.340 -0.6367  0.7266 -0.4069
  716THF     O111236   5.332   1.993   3.368  0.1625 -0.1908 -0.0061
  716THF     C211237   5.400   1.899   3.458  0.3069  0.0712  0.1154
  716THF     C311238   5.237   2.065   3.441  0.3614  0.6670  0.2775
  716THF     H411239   5.481   1.945   3.514 -1.1193  0.8124  1.4810
  716THF     H511240   5.433   1.804   3.421 -0.6446 -2.1674  3.8896
  716THF     H611241   5.248   2.170   3.444  1.7329 -3.7559 -2.3350
  716THF     H711242   5.132   2.045   3.407 -3.3127  0.9473  0.0064
  716THF     C811243   5.231   2.000   3.584  0.5546 -0.9695  0.5422
  716THF     C911244   5.290   1.867   3.560 -0.1998 -0.3891 -0.1706
  716THF    H1011245   5.138   2.018   3.641 -3.8101  1.5652  2.2126
  716THF    H1111246   5.293   2.060   3.650  0.2929  0.5882  1.9328
  716THF    H1211247   5.325   1.820   3.657 -2.7463  0.6898 -0.2929
  716THF    H1311248   5.210   1.806   3.523  0.5504  0.0082  2.0656
  717THF     O111249   0.682   2.654   3.774  0.0011  0.1814  0.2496
  717THF     C211250   0.611   2.716   3.877  0.2696  0.0520  0.0570
  717THF     C311251   0.819   2.686   3.805  0.2655  0.6674 -0.3188
  717THF     H411252   0.517   2.661   3.876  2.0139 -0.1618  0.2045
  717THF     H511253   0.599   2.821   3.853 -0.9717  0.2636  0.0784
  717THF     H611254   0.887   2.603   3.779  0.1010  0.0557 -1.9380
  717THF     H711255   0.852   2.774   3.755 -1.5996  0.2881  1.0661
  717THF     C811256   0.836   2.718   3.952  0.0410 -0.2204  0.2954
  717THF     C911257   0.696   2.688   4.001 -0.2284  0.3439 -0.2214
  717THF    H1011258   0.866   2.821   3.981 -0.5738 -1.4547  1.6915
  717THF    H1111259   0.910   2.659   3.994  1.1543 -0.8129 -0.5232
  717THF    H1211260   0.687   2.587   4.044 -0.9550  0.1408 -2.9964
  717THF    H1311261   0.665   2.762   4.081  2.0130  1.5436  2.2671
  718THF     O111262   5.427   4.484   2.764 -0.3656  0.0522  0.1610
  718THF     C211263   5.508   4.542   2.669 -0.2064  0.2702  0.2239
  718THF     C311264   5.494   4.385   2.838  0.5102  0.8568 -0.6535
  718THF     H411265   5.542   4.642   2.701  1.6500  0.3231  0.8999
  718THF     H511266   5.457   4.552   2.573  0.3930  2.0442  1.3623
  718THF     H611267   5.486   4.404   2.946  2.7607 -2.3079  0.0950
  718THF     H711268   5.440   4.289   2.817 -1.4483  0.8370  1.6682
  718THF     C811269   5.631   4.378   2.783  0.0301 -0.1760  0.5465
  718THF     C911270   5.632   4.456   2.654 -0.6957  0.1168 -0.2836
  718THF    H1011271   5.649   4.276   2.761  2.6960 -0.8016  0.1902
  718THF    H1111272   5.690   4.410   2.866 -2.6697 -1.2175 -1.8057
  718THF    H1211273   5.720   4.519   2.641 -3.4068 -0.5448 -2.7473
  718THF    H1311274   5.625   4.394   2.567  1.3526 -1.0567 -0.3227
  719THF     O111275   2.877   4.629   4.298  0.3130  0.1823  0.2471
  719THF     C211276   2.870   4.768   4.298  0.1851 -0.0763  0.0747
  719THF     C311277   2.931   4.585   4.181  0.0708  0.6312 -0.2123
  719THF     H411278   2.966   4.800   4.338  0.6715  0.7447  2.5097
  719THF     H511279   2.794   4.814   4.358 -1.9653  2.7167  0.8380
  719THF     H611280   3.042   4.594   4.203  0.7453 -3.8627 -0.4167
  719THF     H711281   2.893   4.480   4.158 -0.1623 -1.3137 -1.0148
  719THF     C811282   2.892   4.691   4.081  0.1933  0.2321 -0.2409
  719THF     C911283   2.875   4.824   4.161 -0.2937  0.3850  0.4137
  719THF    H1011284   2.794   4.663   4.027 -1.7670 -0.5920 -0.3134
  719THF    H1111285   2.965   4.704   4.003 -2.1398  2.1003 -0.2952
  719THF    H1211286   2.963   4.890   4.139  1.7422 -1.2465 -1.8755
  719THF    H1311287   2.785   4.874   4.136  2.5165  0.7180  0.0612
  720THF     O111288   5.176   1.215   0.532 -0.5560  0.4380  0.2847
  720THF     C211289   5.257   1.183   0.643  0.0328 -0.3617 -0.1468
  720THF     C311290   5.070   1.289   0.586  0.2179 -0.5400  0.1294
  720THF     H411291   5.300   1.266   0.694 -0.6769 -0.4972  3.6920
  720THF     H511292   5.338   1.110   0.621 -0.2996 -4.4466 -2.0742
  720THF     H611293   5.107   1.386   0.617  1.4761 -1.5623  0.5491
  720THF     H711294   5.000   1.298   0.500  1.8935  0.3492  0.4348
  720THF     C811295   5.033   1.204   0.706 -0.1731  0.5128  0.2510
  720THF     C911296   5.154   1.119   0.733  0.0889 -0.4315 -0.1105
  720THF    H1011297   4.942   1.148   0.704  0.3353 -1.3030  1.9116
  720THF    H1111298   5.012   1.268   0.790 -1.5629 -1.2175  1.2519
  720THF    H1211299   5.183   1.120   0.836 -0.7067 -2.3341 -3.2444
  720THF    H1311300   5.139   1.013   0.709  0.3847 -2.8397 -2.4537
  721THF     O111301   4.090   5.244   4.639 -0.4456  0.2041  0.2113
  721THF     C211302   4.083   5.208   4.780 -0.4546  1.0543 -0.1224
  721THF     C311303   3.969   5.192   4.574 -0.8060  0.5436  0.4180
  721THF     H411304   4.061   5.292   4.836 -1.9761 -0.0271 -0.2800
  721THF     H511305   4.179   5.163   4.798 -3.5385  1.4131  0.0047
  721THF     H611306   3.926   5.267   4.516  0.7619  0.2398 -0.6838
  721THF     H711307   3.993   5.125   4.494 -0.3051  4.1660  2.2739
  721THF     C811308   3.874   5.144   4.686 -0.3797  0.5999 -0.3041
  721THF     C911309   3.973   5.109   4.788  0.6684 -0.1223 -0.5187
  721THF    H1011310   3.811   5.065   4.644  0.9093 -1.3460  0.9288
  721THF    H1111311   3.810   5.222   4.721  0.0510  0.1018 -0.2072
  721THF    H1211312   3.947   5.093   4.895 -1.7240  0.6890 -0.1903
  721THF    H1311313   4.025   5.019   4.764  1.5105  2.6843 -0.8036
  722THF     O111314   4.187   5.260   2.370 -0.1767 -0.4844 -0.5545
  722THF     C211315   4.096   5.276   2.265 -0.1913 -0.4623 -0.1628
  722THF     C311316   4.255   5.142   2.357  0.4584  0.6564  0.7852
  722THF     H411317   4.084   5.381   2.244  0.8363  2.0105 -1.0931
  722THF     H511318   3.996   5.241   2.284  1.1680 -0.9346 -1.2194
  722THF     H611319   4.346   5.121   2.413 -1.1189  0.2712 -0.0827
  722THF     H711320   4.178   5.075   2.388 -0.6944 -2.0628 -1.0225
  722THF     C811321   4.278   5.121   2.203 -0.3725  0.7003 -0.0140
  722THF     C911322   4.166   5.206   2.142  0.8333 -0.2789 -0.1886
  722THF    H1011323   4.262   5.019   2.163 -0.3048 -0.8038  0.1754
  722THF    H1111324   4.375   5.151   2.173 -0.0302 -1.8517  0.7426
  722THF    H1211325   4.210   5.281   2.078 -2.1607 -1.9017 -1.6771
  722THF    H1311326   4.101   5.145   2.077 -3.4165  1.7598 -0.7790
  723THF     O111327   2.334   2.568   3.457  0.0454 -0.1211 -0.1263
  723THF     C211328   2.463   2.543   3.510  0.0997 -0.4309  0.1176
  723THF     C311329   2.238   2.511   3.539  0.3393 -0.8269  0.1558
  723THF     H411330   2.498   2.604   3.592 -1.9982 -0.7548  1.6376
  723THF     H511331   2.544   2.538   3.433  1.2465 -0.7503 -1.4223
  723THF     H611332   2.199   2.592   3.597  0.8798 -0.2847  1.8937
  723THF     H711333   2.163   2.468   3.474 -0.1076 -0.7266 -0.1861
  723THF     C811334   2.309   2.409   3.631 -0.0377 -0.5106 -0.4431
  723THF     C911335   2.451   2.410   3.580 -0.4450  0.2030 -0.3810
  723THF    H1011336   2.259   2.312   3.617 -1.3234  0.6249  1.5144
  723THF    H1111337   2.300   2.437   3.740  0.8531  1.5976 -1.1068
  723THF    H1211338   2.518   2.381   3.661  0.2488 -1.3978  0.2998
  723THF    H1311339   2.460   2.327   3.507 -0.3568 -1.2574  1.2465
  724THF     O111340   2.242   3.985   0.529  0.2248 -0.0433 -0.1009
  724THF     C211341   2.211   4.021   0.394  0.0334  0.2561  0.5686
  724THF     C311342   2.289   4.097   0.594  0.3455 -0.0139  0.4711
  724THF     H411343   2.126   4.085   0.399  0.6562  0.7843  0.2833
  724THF     H511344   2.186   3.942   0.330 -0.2197  1.8876 -1.3384
  724THF     H611345   2.205   4.160   0.616 -0.8675 -2.8977 -1.1893
  724THF     H711346   2.335   4.079   0.693 -1.2911  0.4357  0.2862
  724THF     C811347   2.364   4.178   0.486  0.1546  0.2812  0.3149
  724THF     C911348   2.325   4.119   0.351  0.7869  0.8129 -0.3659
  724THF    H1011349   2.469   4.173   0.508  2.0422 -0.0060  0.8401
  724THF    H1111350   2.327   4.275   0.497  2.2691 -0.9289 -2.3309
  724THF    H1211351   2.286   4.189   0.277  0.8000 -0.6072 -3.4186
  724THF    H1311352   2.403   4.055   0.306  1.9370  0.7604  2.2725
  725THF     O111353   4.244   5.116   2.865  0.3030 -0.4650  0.5573
  725THF     C211354   4.305   5.015   2.782  0.7632 -0.2622 -0.0161
  725THF     C311355   4.149   5.058   2.953  0.3488 -0.3510 -0.1953
  725THF     H411356   4.390   4.966   2.838  2.9602  2.1027  4.4895
  725THF     H511357   4.341   5.070   2.691 -0.6659  1.7000 -0.2257
  725THF     H611358   4.192   5.050   3.053 -1.3230  0.6084 -0.3669
  725THF     H711359   4.071   5.120   2.981  2.7674 -0.8221 -0.9071
  725THF     C811360   4.119   4.918   2.894  0.0637 -0.0234 -0.4038
  725THF     C911361   4.186   4.926   2.758  0.1991 -0.1837 -0.1740
  725THF    H1011362   4.015   4.892   2.889 -0.6883  3.1519 -1.0623
  725THF    H1111363   4.164   4.840   2.952  2.0679 -0.3300  0.1554
  725THF    H1211364   4.221   4.830   2.717 -1.9340  0.6903 -1.7394
  725THF    H1311365   4.121   4.969   2.688  0.5683  2.4084  1.1125
  726THF     O111366   3.550   3.357   0.658 -0.1624 -0.0126 -0.4838
  726THF     C211367   3.575   3.477   0.589  0.1197 -0.2354  0.0751
  726THF     C311368   3.645   3.262   0.625 -0.1546 -0.3944 -0.3683
  726THF     H411369   3.590   3.560   0.662  1.0686 -1.2913 -0.3029
  726THF     H511370   3.494   3.495   0.515  0.4002  0.4777 -2.3403
  726THF     H611371   3.725   3.249   0.696  0.9438  1.0177  0.7106
  726THF     H711372   3.593   3.164   0.634  0.0318 -0.7091  1.0579
  726THF     C811373   3.700   3.307   0.491  0.3878  0.2937  0.0036
  726THF     C911374   3.698   3.453   0.506 -0.2166  0.3788  0.6584
  726THF    H1011375   3.644   3.274   0.407  0.0687 -1.8439  0.0293
  726THF    H1111376   3.806   3.273   0.468 -0.5069  1.3887 -0.0114
  726THF    H1211377   3.778   3.493   0.562 -1.4493 -1.1297 -0.5393
  726THF    H1311378   3.687   3.514   0.420 -1.0558 -1.5152 -0.3630
  727THF     O111379   3.676   4.235   3.540 -0.5511 -0.0748  0.0239
  727THF     C211380   3.746   4.139   3.458  0.1842 -0.2532 -0.5893
  727THF     C311381   3.758   4.264   3.648 -0.4698  1.2899 -0.1189
  727THF     H411382   3.723   4.135   3.350  1.2615  1.2665 -0.0646
  727THF     H511383   3.745   4.036   3.492 -0.7391 -2.6225  1.5844
  727THF     H611384   3.731   4.355   3.701 -0.7964  2.0930  0.1849
  727THF     H711385   3.776   4.178   3.709 -0.2634  1.3715  0.1231
  727THF     C811386   3.891   4.292   3.580 -0.0704 -0.0554 -0.2645
  727THF     C911387   3.893   4.190   3.463  0.3972  0.6059  0.0136
  727THF    H1011388   3.981   4.272   3.639  0.3052 -0.7605  0.2886
  727THF    H1111389   3.898   4.400   3.550 -0.1979  1.3784 -0.0215
  727THF    H1211390   3.922   4.222   3.363  3.7987 -3.9189 -2.1461
  727THF    H1311391   3.960   4.114   3.482 -0.5392  1.7126 -0.5044
  728THF     O111392   3.919   1.984   1.084  0.2803  0.2086 -0.2090
  728THF     C211393   4.054   2.015   1.043  0.2043  0.2839 -0.0399
  728THF     C311394   3.847   2.105   1.093 -0.9551 -0.3067 -0.1365
  728THF     H411395   4.107   1.934   0.995  0.9086 -1.3528  0.2042
  728THF     H511396   4.113   2.055   1.122  0.1853 -0.6762  0.6459
  728THF     H611397   3.744   2.105   1.076  1.5482  0.7906 -0.6795
  728THF     H711398   3.869   2.132   1.199  1.6897  0.5926  0.2604
  728THF     C811399   3.913   2.200   0.987  0.4054  0.4717  0.0353
  728THF     C911400   4.038   2.129   0.943  0.8219 -0.4338  0.5873
  728THF    H1011401   3.941   2.297   1.021  3.3041 -1.7972 -1.8847
  728THF    H1111402   3.849   2.209   0.900 -1.7633  0.8375  1.9007
  728THF    H1211403   4.029   2.088   0.844 -0.2582 -0.8834  2.5355
  728THF    H1311404   4.121   2.209   0.939  1.5792 -0.4944 -0.8123
  729THF     O111405   1.475   3.235   5.351  0.2823  0.8021  0.0523
  729THF     C211406   1.529   3.299   5.465  0.7378  0.0268 -0.2986
  729THF     C311407   1.543   3.296   5.242  0.2644  0.2114 -0.1122
  729THF     H411408   1.508   3.240   5.551  2.0703  3.2215 -0.7429
  729THF     H511409   1.503   3.406   5.473 -0.6444  2.7362 -0.7482
  729THF     H611410   1.555   3.216   5.158 -0.0571 -0.6583 -1.5867
  729THF     H711411   1.475   3.369   5.200  1.0847 -2.0732  0.1382
  729THF     C811412   1.685   3.336   5.288  0.8482 -0.2391 -0.8830
  729THF     C911413   1.685   3.310   5.436  0.5317 -0.3461  0.2340
  729THF    H1011414   1.690   3.442   5.280  0.2972 -0.5741  0.4876
  729THF    H1111415   1.765   3.277   5.238  1.4987  0.6165 -0.5095
  729THF    H1211416   1.728   3.214   5.460  1.8656  1.6368 -1.7963
  729THF    H1311417   1.732   3.388   5.494  2.8750  1.1377 -2.6514
  730THF     O111418   2.228   1.186   3.913  0.1334 -0.1824 -0.7578
  730THF     C211419   2.101   1.237   3.893 -0.0841  0.0606 -0.3881
  730THF     C311420   2.308   1.293   3.961  0.5240 -0.2885 -0.0433
  730THF     H411421   2.022   1.160   3.875  0.0155 -0.1939 -0.5265
  730THF     H511422   2.111   1.300   3.808  0.6888  1.5491  1.6699
  730THF     H611423   2.404   1.270   4.001  0.8335 -0.7069 -1.0835
  730THF     H711424   2.337   1.357   3.879  1.2997 -0.0802 -0.4049
  730THF     C811425   2.219   1.369   4.056  0.0587 -0.0619  0.2649
  730THF     C911426   2.072   1.327   4.016 -0.2542  0.0500  0.3137
  730THF    H1011427   2.234   1.473   4.051 -0.1853 -1.6782  0.8708
  730THF    H1111428   2.226   1.338   4.156  0.2548  1.8824 -0.2369
  730THF    H1211429   2.028   1.260   4.092  0.8526 -0.6864  1.6186
  730THF    H1311430   2.002   1.412   3.990 -1.4460 -0.3349  1.0020
  731THF     O111431   2.302   2.547   4.492 -0.2745  0.1066  0.4034
  731THF     C211432   2.184   2.484   4.556 -0.2483 -0.3323 -0.4686
  731THF     C311433   2.406   2.539   4.594 -0.3607  0.2765 -0.0231
  731THF     H411434   2.193   2.372   4.562  2.8511  1.3401 -1.4550
  731THF     H511435   2.093   2.487   4.500  0.5318 -0.7591 -1.1615
  731THF     H611436   2.437   2.428   4.604 -1.4057 -1.8519  3.7164
  731THF     H711437   2.478   2.616   4.567 -0.2332 -0.3633  0.7345
  731THF     C811438   2.330   2.588   4.720 -0.3017 -0.3366 -0.9069
  731THF     C911439   2.185   2.548   4.699  0.2600  0.2789 -0.2794
  731THF    H1011440   2.340   2.696   4.738  1.7633  0.5402  0.6717
  731THF    H1111441   2.365   2.537   4.815 -1.1617 -0.1114  4.8584
  731THF    H1211442   2.148   2.474   4.775 -0.0520 -3.4232  2.4274
  731THF    H1311443   2.118   2.642   4.694  2.0190 -0.2785  0.6331
  732THF     O111444   3.921   3.680   3.044 -0.4045  0.6053 -0.2285
  732THF     C211445   4.044   3.614   3.049  0.2055  0.4224  0.8327
  732THF     C311446   3.870   3.671   2.910 -0.4268 -0.5489 -0.4705
  732THF     H411447   4.052   3.605   3.154 -1.4480  2.1033  1.8862
  732THF     H511448   4.131   3.663   3.013 -0.8940 -0.4546  1.7336
  732THF     H611449   3.766   3.674   2.922  0.1332  1.7447  0.4525
  732THF     H711450   3.877   3.755   2.840 -2.2750  0.8389 -1.0340
  732THF     C811451   3.935   3.542   2.853  0.1960 -0.7019  0.2547
  732THF     C911452   4.019   3.491   2.969 -0.0977  0.3311  0.1071
  732THF    H1011453   3.995   3.573   2.770 -1.2530  0.2205 -0.2532
  732THF    H1111454   3.851   3.474   2.821  1.8209 -3.1126 -0.1017
  732THF    H1211455   3.968   3.419   3.031  2.6970 -1.9267 -0.9513
  732THF    H1311456   4.094   3.433   2.921 -1.4485  0.6813  0.3966
  733THF     O111457   0.571   0.028   3.624 -0.6302  0.1985  0.0519
  733THF     C211458   0.570   0.073   3.756  0.4676  0.4882 -0.0665
  733THF     C311459   0.696   0.081   3.570  0.1688 -0.1686 -1.5015
  733THF     H411460   0.640   0.015   3.810 -0.2396 -0.9870 -0.8931
  733THF     H511461   0.475   0.066   3.804 -2.4018 -0.2766  0.3205
  733THF     H611462   0.783   0.026   3.618 -0.5660  0.6664  3.3987
  733THF     H711463   0.726   0.060   3.472 -0.6735  0.3992 -0.6369
  733THF     C811464   0.682   0.225   3.613  0.1069  0.4376  0.0776
  733THF     C911465   0.615   0.220   3.750  0.0432 -0.3119  0.0500
  733THF    H1011466   0.613   0.269   3.536 -0.5590 -1.0783 -0.2362
  733THF    H1111467   0.781   0.278   3.609 -0.5393  0.2491  0.7655
  733THF    H1211468   0.680   0.253   3.837 -0.2105  2.6730  1.5589
  733THF    H1311469   0.523   0.285   3.741  0.8660  1.3314  0.6051
  734THF     O111470   2.619   0.213   2.779 -0.4564 -0.0016  0.8044
  734THF     C211471   2.740   0.182   2.842 -0.1104  0.4517  1.0189
  734THF     C311472   2.629   0.166   2.647  0.0759  0.0126  0.1710
  734THF     H411473   2.724   0.174   2.950 -0.2212  2.1470  0.0947
  734THF     H511474   2.813   0.258   2.822  1.7559  0.3147  1.0308
  734THF     H611475   2.529   0.163   2.605 -1.4283  0.8242  2.0429
  734THF     H711476   2.687   0.240   2.583 -0.0601 -2.9514 -0.7572
  734THF     C811477   2.683   0.029   2.665  0.3781  0.3295  1.1735
  734THF     C911478   2.767   0.041   2.791 -0.2098 -0.4895  0.9949
  734THF    H1011479   2.735   0.000   2.572  2.7924 -0.9636 -1.9706
  734THF    H1111480   2.601  -0.044   2.681  0.8415 -1.6614 -1.4303
  734THF    H1211481   2.746  -0.027   2.873 -1.0248 -3.7694 -2.0598
  734THF    H1311482   2.875   0.028   2.781 -1.0747 -0.9306 -0.8785
  735THF     O111483   3.505   4.507   3.090  0.2257 -0.0317  0.5996
  735THF     C211484   3.510   4.486   3.226  0.0350 -0.1629 -0.4880
  735THF     C311485   3.620   4.450   3.035  0.2620  0.2778 -0.0125
  735THF     H411486   3.410   4.455   3.259 -0.2628  1.8434 -0.0671
  735THF     H511487   3.536   4.578   3.275  2.1047 -2.9485 -3.0437
  735THF     H611488   3.589   4.358   2.986 -2.5995 -0.2048 -0.3718
  735THF     H711489   3.659   4.519   2.964 -4.9271 -2.7393  2.3553
  735THF     C811490   3.721   4.418   3.145 -0.1886  0.8955  0.8913
  735THF     C911491   3.621   4.385   3.247 -0.2431  0.4897  0.2737
  735THF    H1011492   3.776   4.507   3.179  1.3618 -1.6015  2.6526
  735THF    H1111493   3.800   4.349   3.134  3.8891 -0.7455  1.6550
  735THF    H1211494   3.580   4.292   3.233  1.6744 -1.4124 -0.9869
  735THF    H1311495   3.652   4.375   3.353  2.2525 -1.5692 -2.3046
  736THF     O111496   0.331   2.778   2.378 -0.7310 -0.1935 -0.6181
  736THF     C211497   0.249   2.798   2.263 -0.1501 -1.2018  0.0575
  736THF     C311498   0.359   2.638   2.394  0.2734  0.0160 -0.1060
  736THF     H411499   0.245   2.905   2.227  1.8901  0.6468 -1.2157
  736THF     H511500   0.147   2.776   2.294 -1.9356 -1.1791 -0.2084
  736THF     H611501   0.425   2.611   2.473 -1.6971 -1.4019  0.1056
  736THF     H711502   0.261   2.584   2.424  1.5361 -2.5098 -0.1322
  736THF     C811503   0.402   2.608   2.252 -0.0149  0.2547 -0.5529
  736THF     C911504   0.307   2.697   2.167  0.1517 -0.0275 -0.4480
  736THF    H1011505   0.375   2.500   2.230  1.8148 -0.5382  1.3960
  736THF    H1111506   0.502   2.649   2.239  0.1386 -0.3009  2.9557
  736THF    H1211507   0.380   2.750   2.111 -1.2833 -2.6912  1.0867
  736THF    H1311508   0.238   2.642   2.098 -0.6020 -2.5865  2.2199
  737THF     O111509   1.689   4.053   3.519 -0.2238  0.7362 -0.4591
  737THF     C211510   1.586   4.046   3.619  0.3318  0.4360 -0.0818
  737THF     C311511   1.620   4.019   3.392  0.3139 -0.7116  0.2081
  737THF     H411512   1.531   4.139   3.599  0.9883  2.6011 -0.2566
  737THF     H511513   1.624   4.033   3.722 -0.5932  1.0737  1.0473
  737THF     H611514   1.559   4.097   3.350 -1.0315  0.4373 -0.6859
  737THF     H711515   1.696   3.988   3.317  0.8581 -2.4511 -1.6077
  737THF     C811516   1.540   3.897   3.436  0.5601 -0.0883  0.7676
  737THF     C911517   1.504   3.927   3.578 -0.3355  0.4602 -0.4186
  737THF    H1011518   1.593   3.803   3.419  3.5032  1.4636 -0.7571
  737THF    H1111519   1.449   3.882   3.367 -0.4663  2.4947 -0.0339
  737THF    H1211520   1.399   3.953   3.581 -1.4769  0.5021 -0.6955
  737THF    H1311521   1.517   3.845   3.645 -0.9642  3.7688 -1.0276
  738THF     O111522   3.635   5.391   4.707  0.7774 -0.3025  0.4147
  738THF     C211523   3.657   5.515   4.641 -0.4480 -0.3834  0.3664
  738THF     C311524   3.501   5.391   4.767 -0.0194  0.2434 -0.0828
  738THF     H411525   3.696   5.481   4.545 -0.3766  0.6212 -0.9903
  738THF     H511526   3.740   5.559   4.705  2.7274  2.4218 -1.0103
  738THF     H611527   3.437   5.333   4.697 -2.1630 -1.7256 -0.8629
  738THF     H711528   3.504   5.348   4.871  0.4219  0.1029  2.2109
  738THF     C811529   3.449   5.533   4.758  0.8299  0.1921  0.3818
  738THF     C911530   3.520   5.593   4.643  0.1228 -0.8866 -0.0201
  738THF    H1011531   3.459   5.588   4.854 -0.7685  0.4593  1.8262
  738THF    H1111532   3.345   5.549   4.734  2.6356  0.1067 -0.2840
  738THF    H1211533   3.449   5.572   4.559  1.7099 -1.3887  1.8326
  738THF    H1311534   3.540   5.697   4.662 -1.5140  0.1834 -1.4177
  739THF     O111535   1.939   1.672   4.852 -0.5377 -0.6353 -0.4456
  739THF     C211536   1.968   1.785   4.769  0.4727  0.6220 -0.3322
  739THF     C311537   1.827   1.604   4.798 -0.0777 -0.5341  0.0279
  739THF     H411538   2.027   1.751   4.685 -2.1607  0.1534  2.8299
  739THF     H511539   2.022   1.857   4.831 -2.1228  2.4654 -0.1852
  739THF     H611540   1.866   1.547   4.715 -1.2330  0.1139 -0.9246
  739THF     H711541   1.770   1.540   4.863  0.0842  0.5847 -1.4768
  739THF     C811542   1.734   1.724   4.759 -0.3976 -0.0424 -0.0223
  739THF     C911543   1.827   1.835   4.722  0.4382  0.5067 -0.8661
  739THF    H1011544   1.669   1.758   4.839 -0.7948  0.9391  0.3901
  739THF    H1111545   1.669   1.697   4.681  0.4112 -1.4399 -0.0323
  739THF    H1211546   1.825   1.831   4.614 -0.0163 -0.6833  1.7442
  739THF    H1311547   1.804   1.934   4.769  3.3686  3.9383 -0.5627
  740THF     O111548   1.832   2.492   2.630  0.1042 -0.3292  0.0411
  740THF     C211549   1.686   2.480   2.614 -0.1035  0.2660 -0.0855
  740THF     C311550   1.870   2.624   2.585 -0.0865 -0.4273 -0.4569
  740THF     H411551   1.654   2.397   2.674  0.8560 -2.0847 -0.9420
  740THF     H511552   1.656   2.463   2.507 -0.9348 -0.3134  0.6619
  740THF     H611553   1.951   2.663   2.650  4.8478 -4.1326 -0.5509
  740THF     H711554   1.898   2.628   2.479  0.3135 -0.7584 -1.7346
  740THF     C811555   1.738   2.707   2.599 -0.0628 -0.5107  0.1096
  740THF     C911556   1.633   2.614   2.650 -0.0604 -0.1739 -0.0014
  740THF    H1011557   1.709   2.742   2.503 -0.2590 -0.5325  1.0634
  740THF    H1111558   1.753   2.788   2.670  1.1667 -0.7541  0.1984
  740THF    H1211559   1.621   2.629   2.755  0.7688 -1.7779  0.4106
  740THF    H1311560   1.530   2.623   2.607 -1.4658 -3.1228 -0.3216
  741THF     O111561   0.283   2.272   5.398 -0.5242  0.0952  0.2504
  741THF     C211562   0.290   2.401   5.330  0.6151  0.0345  0.1745
  741THF     C311563   0.374   2.186   5.327  0.0719  0.2463 -0.0565
  741THF     H411564   0.281   2.489   5.394 -1.5038 -2.0365 -2.8851
  741THF     H511565   0.209   2.416   5.254  0.5413  1.8314  1.5242
  741THF     H611566   0.387   2.104   5.390 -3.0528  0.9050  3.3180
  741THF     H711567   0.324   2.138   5.244  1.1609  0.1228  2.6600
  741THF     C811568   0.497   2.271   5.303  0.0590 -0.6329  0.0728
  741THF     C911569   0.430   2.400   5.259 -0.6094 -0.4908  0.0955
  741THF    H1011570   0.570   2.238   5.220  2.1509 -0.7918 -1.1715
  741THF    H1111571   0.547   2.279   5.399  2.0560  3.6285  0.5420
  741THF    H1211572   0.484   2.484   5.302  0.9300  0.2656  3.5376
  741THF    H1311573   0.422   2.402   5.148  0.4070 -0.6746 -0.0201
  742THF     O111574   3.620   2.782   1.101  0.3672 -0.2757  0.5916
  742THF     C211575   3.600   2.799   0.966 -0.0229 -0.0573 -0.1963
  742THF     C311576   3.709   2.882   1.154 -0.2270 -0.4585 -0.1077
  742THF     H411577   3.512   2.750   0.935  1.8827  0.5192 -1.4515
  742THF     H511578   3.682   2.749   0.911  0.3060  1.4890 -0.3977
  742THF     H611579   3.672   2.925   1.252  1.9270 -0.4234 -0.3501
  742THF     H711580   3.805   2.842   1.172  0.7692 -0.7212  1.8220
  742THF     C811581   3.736   2.985   1.040  0.2097 -0.2674  1.1926
  742THF     C911582   3.618   2.947   0.949 -0.1431  0.0079 -0.4284
  742THF    H1011583   3.830   2.971   0.992  0.9072  0.2932  1.5676
  742THF    H1111584   3.727   3.083   1.073 -2.7742 -0.5043 -1.2271
  742THF    H1211585   3.532   2.997   0.987  4.3641 -0.5864 -0.4969
  742THF    H1311586   3.642   2.984   0.851 -1.2220 -0.2920  0.3632
  743THF     O111587   0.528   0.156   3.040 -0.1391  0.3771  0.7501
  743THF     C211588   0.530   0.299   3.075  0.8933 -0.0517 -0.3070
  743THF     C311589   0.486   0.094   3.158 -0.4733 -0.6007  0.8436
  743THF     H411590   0.437   0.344   3.037 -0.9871  1.1574  0.0931
  743THF     H511591   0.609   0.360   3.023 -1.0595  0.4407 -0.3475
  743THF     H611592   0.376   0.105   3.155 -1.4736  0.6958  1.1131
  743THF     H711593   0.507  -0.016   3.157 -0.0032 -1.6566 -1.7194
  743THF     C811594   0.551   0.163   3.274  0.0601  0.5756 -0.3644
  743THF     C911595   0.548   0.303   3.230 -0.3029 -0.0112  0.5164
  743THF    H1011596   0.662   0.135   3.284  1.3783 -1.3174 -0.6345
  743THF    H1111597   0.498   0.148   3.368  1.0190 -1.0389 -0.8154
  743THF    H1211598   0.486   0.382   3.279 -1.0313 -0.0916  1.1823
  743THF    H1311599   0.647   0.345   3.255  2.3885 -0.7067 -2.0057
  744THF     O111600   3.210   2.321   5.433 -0.3714 -0.3354  0.1083
  744THF     C211601   3.169   2.275   5.301 -0.2068  0.1462 -0.2046
  744THF     C311602   3.356   2.324   5.446  0.1771  0.6763 -0.2669
  744THF     H411603   3.133   2.356   5.239  1.3334 -1.5111 -0.9878
  744THF     H511604   3.105   2.182   5.292  0.4367  0.4163 -0.2671
  744THF     H611605   3.405   2.413   5.412  3.8638  2.6215 -1.1725
  744THF     H711606   3.387   2.294   5.552 -0.1231 -0.4775 -2.6778
  744THF     C811607   3.397   2.215   5.347 -0.6545 -0.6250  0.9280
  744THF     C911608   3.304   2.231   5.231 -0.2390 -0.6283  0.2095
  744THF    H1011609   3.390   2.116   5.383 -2.4339  2.8409  2.4793
  744THF    H1111610   3.494   2.208   5.320  2.7863  0.0551 -0.0556
  744THF    H1211611   3.339   2.320   5.169 -0.4483  3.2264 -2.0127
  744THF    H1311612   3.303   2.141   5.166 -0.0210 -0.9828 -0.9470
  745THF     O111613   0.867   2.715   0.719 -0.6471  0.0966  0.1034
  745THF     C211614   0.776   2.792   0.639 -0.2732  0.7701  0.1919
  745THF     C311615   0.900   2.592   0.648 -0.1056  0.4219 -0.1523
  745THF     H411616   0.836   2.853   0.569  0.9854  0.2371  0.9055
  745THF     H511617   0.710   2.857   0.695 -2.3281 -1.7779  1.6493
  745THF     H611618   0.972   2.600   0.566  1.9998  0.1582  0.7099
  745THF     H711619   0.945   2.526   0.715  0.3724 -0.2775  1.7188
  745THF     C811620   0.767   2.552   0.591 -0.1436 -0.3450 -0.1240
  745THF     C911621   0.695   2.684   0.576  0.1860 -0.2797  0.9644
  745THF    H1011622   0.711   2.492   0.663  2.0990  0.1049  1.7566
  745THF    H1111623   0.780   2.496   0.501  0.6494 -0.0670  0.9947
  745THF    H1211624   0.677   2.724   0.474  0.0868 -0.0848  0.0394
  745THF    H1311625   0.591   2.682   0.620  3.1895 -0.3422  0.1282
  746THF     O111626   4.633   2.647   3.583 -0.3073 -0.1747  0.7105
  746THF     C211627   4.636   2.775   3.512 -0.7117 -0.0754 -0.2863
  746THF     C311628   4.727   2.660   3.686 -0.3842  0.1148 -0.1817
  746THF     H411629   4.594   2.859   3.568 -2.1150 -2.5215 -1.2148
  746THF     H511630   4.589   2.773   3.413  0.4908  1.6274 -1.2447
  746THF     H611631   4.695   2.729   3.758  0.6688 -1.6433 -0.8234
  746THF     H711632   4.756   2.568   3.735 -4.8111  0.9056 -1.0420
  746THF     C811633   4.846   2.732   3.629  0.2739 -0.0646  0.3563
  746THF     C911634   4.787   2.803   3.504 -0.3088 -0.1901 -0.7504
  746THF    H1011635   4.939   2.668   3.610  2.4585  0.6450  2.4644
  746THF    H1111636   4.869   2.812   3.704 -0.8595  2.0087 -2.9808
  746THF    H1211637   4.808   2.910   3.525  0.9327 -1.6769  1.7439
  746THF    H1311638   4.832   2.771   3.412 -0.9125  1.7741 -0.0126
  747THF     O111639   2.214   2.976   4.379  0.4488 -0.3571  0.2990
  747THF     C211640   2.236   2.857   4.301 -0.4665  0.1975 -0.5037
  747THF     C311641   2.099   2.944   4.461 -0.2729 -0.2287 -0.7334
  747THF     H411642   2.284   2.784   4.367 -0.2108  1.0674  0.5256
  747THF     H511643   2.301   2.872   4.217 -0.5126 -0.0496  0.3517
  747THF     H611644   2.136   2.918   4.565 -1.1961 -0.3425  2.1769
  747THF     H711645   2.022   3.022   4.468 -1.8768  0.0743 -0.6208
  747THF     C811646   2.027   2.829   4.395  0.2136 -0.4337 -0.1497
  747THF     C911647   2.103   2.812   4.263 -0.0340 -0.3798  0.3847
  747THF    H1011648   1.919   2.849   4.390  0.4193  2.6135 -0.8610
  747THF    H1111649   2.038   2.734   4.444  1.2457  0.7637 -0.4959
  747THF    H1211650   2.091   2.710   4.235 -0.5285 -0.1228  0.2932
  747THF    H1311651   2.057   2.872   4.184 -1.4594 -0.6150 -0.4736
  748THF     O111652   3.500   3.250   3.297 -0.1136  0.3678 -0.0821
  748THF     C211653   3.624   3.210   3.255  0.0944 -0.5382  0.3294
  748THF     C311654   3.424   3.300   3.198 -0.8231 -0.5691  0.5063
  748THF     H411655   3.618   3.102   3.225  1.8383 -0.8613 -2.2862
  748THF     H511656   3.702   3.219   3.331 -0.7020  1.2101 -1.0151
  748THF     H611657   3.383   3.228   3.131 -3.2158 -0.6808  1.4561
  748THF     H711658   3.341   3.355   3.244  2.4081  1.9766 -2.1851
  748THF     C811659   3.522   3.386   3.120  0.1438  0.5506 -0.0042
  748THF     C911660   3.648   3.292   3.130  0.3111  0.1069  0.2201
  748THF    H1011661   3.537   3.481   3.169 -0.9643 -1.7621 -1.9095
  748THF    H1111662   3.488   3.415   3.024  1.2076 -0.5069  3.5703
  748THF    H1211663   3.647   3.234   3.039  0.1593  1.5816  3.0475
  748THF    H1311664   3.743   3.331   3.140 -0.0536  1.2584  0.6648
  749THF     O111665   1.678   4.889   3.696 -0.1808  0.5402  0.5589
  749THF     C211666   1.557   4.830   3.737  0.3145  0.2528 -0.8647
  749THF     C311667   1.641   5.029   3.677  0.6436 -0.1231  0.3097
  749THF     H411668   1.584   4.731   3.780 -4.3716 -0.6154  0.4895
  749THF     H511669   1.491   4.826   3.654 -0.5839  1.7001 -0.4420
  749THF     H611670   1.727   5.095   3.660  1.2161 -0.3142  0.4539
  749THF     H711671   1.577   5.052   3.591  0.6685  0.1905  3.4869
  749THF     C811672   1.568   5.062   3.807 -0.8979 -0.3336  0.1166
  749THF     C911673   1.510   4.928   3.847  0.2854 -0.7758  1.3788
  749THF    H1011674   1.501   5.143   3.793  0.6696  0.4520  0.0302
  749THF    H1111675   1.646   5.088   3.877  0.7061 -1.4128 -1.8911
  749THF    H1211676   1.566   4.884   3.931  0.4362 -2.6979 -0.1992
  749THF    H1311677   1.405   4.915   3.862  1.1477  0.3042 -0.6372
  750THF     O111678   1.953   3.909   3.977  0.7214 -0.1837  0.2276
  750THF     C211679   1.836   3.870   4.057 -0.3385 -0.6030 -0.0292
  750THF     C311680   1.908   3.923   3.845  0.0098 -0.3250 -0.2088
  750THF     H411681   1.782   3.964   4.060 -1.8379  1.1688  0.3440
  750THF     H511682   1.854   3.840   4.162  3.1893 -2.1450  1.4886
  750THF     H611683   1.846   4.011   3.849 -1.7381  1.6259  2.4099
  750THF     H711684   1.978   3.915   3.763  0.7474 -0.4333 -2.5827
  750THF     C811685   1.831   3.791   3.831  0.1875 -0.1001 -0.0041
  750THF     C911686   1.785   3.754   3.974  0.3939 -0.6261  0.5264
  750THF    H1011687   1.890   3.710   3.786  1.1953 -2.1478 -0.7962
  750THF    H1111688   1.742   3.820   3.770  1.9329 -1.6741  1.2140
  750THF    H1211689   1.678   3.742   3.995 -1.0913  0.4008 -0.2374
  750THF    H1311690   1.827   3.649   4.000 -1.0679 -1.5814  1.0855
  751THF     O111691   4.943   3.705   5.318 -0.6812  0.3539  0.2632
  751THF     C211692   4.814   3.719   5.268 -0.3207 -0.1859 -0.0135
  751THF     C311693   4.983   3.569   5.310 -0.7415 -0.4825 -0.0211
  751THF     H411694   4.822   3.812   5.219  0.4649 -1.8853 -0.4092
  751THF     H511695   4.744   3.727   5.356 -0.5125 -0.7739  0.0864
  751THF     H611696   5.092   3.565   5.295 -0.9057  0.5236  1.3551
  751THF     H711697   4.958   3.513   5.401 -0.6591 -0.5117 -0.3809
  751THF     C811698   4.898   3.510   5.194 -0.4133 -0.3591 -0.2623
  751THF     C911699   4.785   3.603   5.172 -0.3831  0.1022  0.5128
  751THF    H1011700   4.866   3.412   5.214 -1.1806  1.6086 -0.5906
  751THF    H1111701   4.955   3.502   5.103 -0.0071 -0.2745 -0.5185
  751THF    H1211702   4.777   3.628   5.068 -0.9691  1.2399  2.5010
  751THF    H1311703   4.701   3.557   5.215 -0.4378 -0.6896  2.9090
  752THF     O111704   0.878   4.778   0.193 -0.2866  0.0717 -0.4678
  752THF     C211705   0.890   4.667   0.280 -0.2666  0.3404 -0.5801
  752THF     C311706   0.984   4.780   0.104 -0.1992 -0.2460 -0.0999
  752THF     H411707   0.858   4.570   0.234  0.7208 -0.9736  0.1978
  752THF     H511708   0.819   4.674   0.356  0.3507 -0.9584 -2.6114
  752THF     H611709   0.967   4.729   0.009  0.5988  1.1684 -1.0756
  752THF     H711710   1.014   4.888   0.092 -1.1379 -0.1752  0.4044
  752THF     C811711   1.102   4.714   0.189  0.5303  0.2583 -1.3907
  752THF     C911712   1.031   4.670   0.321  0.3346  0.0370  0.1615
  752THF    H1011713   1.184   4.780   0.221 -0.2485 -0.2291  0.7432
  752THF    H1111714   1.140   4.635   0.132 -0.3513  1.3611 -0.6882
  752THF    H1211715   1.060   4.569   0.359  0.3677  0.6588  0.2978
  752THF    H1311716   1.057   4.748   0.398 -0.0472 -1.7599  0.0137
  753THF     O111717   3.603   3.783   1.792  0.4171  0.1895 -0.4229
  753THF     C211718   3.647   3.783   1.657  0.3124 -0.6400  0.9437
  753THF     C311719   3.464   3.834   1.777  0.9432  0.8166 -1.1958
  753THF     H411720   3.603   3.703   1.602  1.6395  1.4035 -2.5182
  753THF     H511721   3.756   3.779   1.657  0.1500  0.5494  0.4083
  753THF     H611722   3.408   3.752   1.726  0.6924  0.4069  0.0743
  753THF     H711723   3.407   3.864   1.871 -2.5058  0.1513  2.5786
  753THF     C811724   3.476   3.952   1.687 -0.5812 -0.4342 -0.0561
  753THF     C911725   3.586   3.909   1.590 -1.0801 -0.5431 -0.6007
  753THF    H1011726   3.508   4.045   1.749  0.5979  4.1185  0.9645
  753THF    H1111727   3.378   3.970   1.642 -1.6628 -0.1790 -1.3127
  753THF    H1211728   3.541   3.891   1.497 -1.5550  1.7353 -1.2245
  753THF    H1311729   3.653   3.994   1.571  1.1105 -2.1297 -1.1224
  754THF     O111730   0.766   3.433   2.374  0.3422  0.3512 -0.0417
  754THF     C211731   0.637   3.385   2.392  0.3905 -0.3975  0.0617
  754THF     C311732   0.780   3.558   2.439  0.6178  0.4309  0.0746
  754THF     H411733   0.629   3.346   2.494 -1.1091  2.8999  0.2616
  754THF     H511734   0.621   3.306   2.308  0.0627  0.6905  0.2259
  754THF     H611735   0.799   3.545   2.550  1.9542 -1.6560  2.5497
  754THF     H711736   0.864   3.608   2.402  0.7385 -0.7640  0.1376
  754THF     C811737   0.633   3.618   2.418 -0.0684  0.6251  0.4401
  754THF     C911738   0.535   3.503   2.374 -0.1419 -0.0512  0.5539
  754THF    H1011739   0.651   3.687   2.329  1.0436  1.2261 -0.0375
  754THF    H1111740   0.599   3.674   2.502 -0.8569  2.7526 -0.0599
  754THF    H1211741   0.454   3.501   2.447 -1.4517  1.2455 -3.2179
  754THF    H1311742   0.492   3.512   2.276 -0.8023 -0.2901  0.9395
  755THF     O111743   2.273   3.146   0.010  0.1554  0.0214  0.3371
  755THF     C211744   2.224   3.073  -0.100 -0.4356 -0.4196  0.7753
  755THF     C311745   2.312   3.278  -0.027  0.3317 -0.4216  0.0866
  755THF     H411746   2.120   3.039  -0.098  2.1008 -1.2234  1.8928
  755THF     H511747   2.296   2.985  -0.113  5.6809 -0.1396 -1.5768
  755THF     H611748   2.230   3.346  -0.001 -1.5433  3.6368  1.2246
  755THF     H711749   2.399   3.320   0.023 -0.0579 -2.1243 -1.0136
  755THF     C811750   2.336   3.271  -0.176  0.1051  0.4958 -0.1129
  755THF     C911751   2.234   3.169  -0.213  0.5142 -0.1251  0.1502
  755THF    H1011752   2.426   3.224  -0.205 -0.6068  1.4204 -1.1365
  755THF    H1111753   2.323   3.359  -0.227 -3.8559 -2.4192  1.5100
  755THF    H1211754   2.141   3.211  -0.222 -1.2043 -0.6173  2.3057
  755THF    H1311755   2.245   3.126  -0.309 -0.3739  1.2572  0.3506
  756THF     O111756   3.954   1.575   0.623 -0.0305 -0.1515 -0.2351
  756THF     C211757   3.835   1.532   0.563  0.0372 -0.3991 -0.1018
  756THF     C311758   4.047   1.608   0.518 -0.1007 -0.0679 -0.0677
  756THF     H411759   3.740   1.566   0.623  0.6915 -0.6002 -0.0601
  756THF     H511760   3.837   1.426   0.549 -0.4991  1.8308  2.1702
  756THF     H611761   4.108   1.700   0.538 -0.8151 -0.3135 -0.7653
  756THF     H711762   4.124   1.534   0.504 -1.0479 -0.0570 -0.9016
  756THF     C811763   3.971   1.618   0.382 -0.2091 -0.2919 -0.6545
  756THF     C911764   3.827   1.595   0.417 -0.1481 -0.2966 -0.3773
  756THF    H1011765   4.000   1.547   0.308  0.6091 -0.6009 -2.3832
  756THF    H1111766   3.989   1.713   0.332  1.6753  2.0586  2.7696
  756THF    H1211767   3.767   1.688   0.424 -0.0403 -1.6382  1.8987
  756THF    H1311768   3.767   1.531   0.361 -1.1976  0.1402  1.6294
  757THF     O111769   4.669   5.483   4.107 -0.0341  0.5403  0.8492
  757THF     C211770   4.719   5.568   4.208  0.5686  0.6233  0.8808
  757THF     C311771   4.537   5.457   4.158 -0.2276 -0.6337 -0.1521
  757THF     H411772   4.808   5.622   4.186 -0.1265 -1.3920  0.8121
  757THF     H511773   4.738   5.521   4.302 -2.9009 -0.1266 -2.1672
  757THF     H611774   4.483   5.414   4.072  1.0494 -2.6305 -2.5174
  757THF     H711775   4.534   5.374   4.235 -0.9241 -3.1955  0.0700
  757THF     C811776   4.478   5.603   4.194 -0.4555  0.8113  0.0386
  757THF     C911777   4.608   5.676   4.212  0.1558 -0.5616  1.3607
  757THF    H1011778   4.413   5.618   4.277  0.3777 -0.7637  2.7758
  757THF    H1111779   4.430   5.641   4.103 -0.9950 -1.5511 -1.6192
  757THF    H1211780   4.627   5.727   4.114 -0.1981 -0.8394 -2.1920
  757THF    H1311781   4.593   5.741   4.297  3.0771 -1.7401  0.7689
  758THF     O111782   0.641   1.836   0.921 -0.3218 -0.3230  0.0799
  758THF     C211783   0.647   1.913   1.050 -0.7444 -0.5247  0.0760
  758THF     C311784   0.563   1.916   0.829 -0.3056 -0.5227 -0.2014
  758THF     H411785   0.740   1.970   1.052  0.4659 -0.3327  1.2988
  758THF     H511786   0.643   1.841   1.131  0.4515  1.7933  0.9774
  758THF     H611787   0.625   1.927   0.746  1.7600 -0.5933  1.2349
  758THF     H711788   0.484   1.850   0.790 -3.6488  0.5555 -1.5569
  758THF     C811789   0.512   2.039   0.904  0.3267 -0.0536  0.5312
  758THF     C911790   0.524   2.001   1.049 -0.8004 -0.0530 -0.3751
  758THF    H1011791   0.413   2.069   0.879 -1.0557 -2.0717 -1.2683
  758THF    H1111792   0.576   2.120   0.881 -0.9464 -3.1965 -1.4559
  758THF    H1211793   0.550   2.092   1.107  0.0122  3.6149  2.7727
  758THF    H1311794   0.435   1.951   1.083 -1.5518  0.2825  2.3342
  759THF     O111795   0.142   0.027   3.619  0.0431  0.1638 -0.5920
  759THF     C211796   0.187   0.052   3.752 -0.2882  0.1718  0.1797
  759THF     C311797   0.250  -0.041   3.565  0.3939 -0.5447  0.2643
  759THF     H411798   0.109   0.098   3.816 -0.7882 -4.0194  1.7970
  759THF     H511799   0.262   0.127   3.750  1.0013 -0.5169  0.2227
  759THF     H611800   0.215  -0.088   3.469  1.9646  0.8010 -0.8457
  759THF     H711801   0.336   0.019   3.548  0.0604 -2.5489 -1.9157
  759THF     C811802   0.286  -0.146   3.673  0.4788  0.0756 -0.4497
  759THF     C911803   0.237  -0.080   3.802  0.6716  0.1447  0.8198
  759THF    H1011804   0.393  -0.156   3.667  2.5438 -4.2128 -2.6070
  759THF    H1111805   0.237  -0.242   3.653  2.0976  0.3943 -3.6971
  759THF    H1211806   0.156  -0.148   3.833  0.3995 -0.0678  0.2072
  759THF    H1311807   0.312  -0.084   3.885 -1.8524 -1.9002  1.0053
  760THF     O111808   0.334   1.438   4.401 -0.3347 -0.3762 -0.1517
  760THF     C211809   0.333   1.385   4.271  0.2766 -0.2039 -0.0570
  760THF     C311810   0.205   1.504   4.414 -0.3271 -0.1911  0.0917
  760THF     H411811   0.405   1.313   4.254 -0.6758  2.5185  0.0226
  760THF     H511812   0.355   1.453   4.185 -0.5498  1.3007 -1.5955
  760THF     H611813   0.191   1.535   4.514  0.6006 -0.2637 -0.6574
  760THF     H711814   0.210   1.591   4.348  1.8556 -1.1738 -1.1901
  760THF     C811815   0.109   1.402   4.371 -0.3402 -0.0942  0.0498
  760THF     C911816   0.182   1.322   4.269 -0.0447  0.5218 -0.0216
  760THF    H1011817   0.023   1.444   4.326  0.1580 -0.6808 -2.1815
  760THF    H1111818   0.069   1.341   4.453 -3.0407  0.0785 -0.5470
  760THF    H1211819   0.182   1.216   4.304 -0.6023 -0.0660  0.3637
  760THF    H1311820   0.136   1.327   4.169  0.6905  3.0029  0.3449
  761THF     O111821   1.589   3.793   5.152 -0.1441  0.2592  0.4860
  761THF     C211822   1.598   3.923   5.199 -0.1202  0.4353 -0.5879
  761THF     C311823   1.712   3.731   5.177  0.2191  0.1871  0.2812
  761THF     H411824   1.572   3.926   5.306  3.2127 -0.1463  0.0415
  761THF     H511825   1.516   3.973   5.143 -0.6560 -1.4351  0.3212
  761THF     H611826   1.721   3.681   5.277  0.7722 -1.0807  1.3466
  761THF     H711827   1.720   3.649   5.109  0.8341 -2.6510  2.8809
  761THF     C811828   1.824   3.834   5.163 -0.5650 -0.7633 -0.3903
  761THF     C911829   1.734   3.959   5.148  0.5999 -0.5525 -1.1922
  761THF    H1011830   1.896   3.805   5.078 -1.9321  2.6133 -2.0092
  761THF    H1111831   1.881   3.848   5.250 -1.1331  2.5751 -0.1698
  761THF    H1211832   1.763   4.050   5.209  1.7346 -2.6501 -1.6023
  761THF    H1311833   1.731   3.988   5.044 -1.1461 -0.4507  2.2915
  762THF     O111834   5.087   5.428   3.606 -0.1663  0.4039  0.1484
  762THF     C211835   5.232   5.414   3.587 -0.0843  0.0898  0.0425
  762THF     C311836   5.073   5.529   3.717  0.0621 -0.3669  0.6064
  762THF     H411837   5.272   5.495   3.528 -1.7651  0.4995 -0.3039
  762THF     H511838   5.258   5.328   3.533 -0.4017 -0.7507  4.7175
  762THF     H611839   5.102   5.632   3.694 -0.9023  1.0803 -2.2313
  762THF     H711840   4.967   5.528   3.736  0.5124 -2.0218  1.7993
  762THF     C811841   5.170   5.478   3.820 -0.3396  0.0599 -0.3779
  762THF     C911842   5.281   5.410   3.732 -0.0931  0.0441 -0.7289
  762THF    H1011843   5.128   5.399   3.885  0.1763  0.5504 -0.0835
  762THF    H1111844   5.201   5.550   3.892 -1.6696 -2.7427 -0.9204
  762THF    H1211845   5.385   5.444   3.749 -1.5151 -2.3134 -0.5630
  762THF    H1311846   5.282   5.301   3.763  1.9536  0.4944  1.1866
  763THF     O111847   0.677   4.282   3.510 -0.0709  0.2230 -0.1449
  763THF     C211848   0.802   4.242   3.448  0.0404 -0.2656  0.2272
  763THF     C311849   0.579   4.197   3.450 -0.8804  0.3588 -0.3654
  763THF     H411850   0.857   4.187   3.515  1.4904  1.8320  0.0974
  763THF     H511851   0.862   4.332   3.420  1.8433 -0.9594  0.1438
  763THF     H611852   0.569   4.101   3.498 -2.2984  0.9836 -0.0264
  763THF     H711853   0.485   4.248   3.458 -2.7839  1.4215  1.6804
  763THF     C811854   0.619   4.184   3.301 -0.5227 -0.6622 -0.1568
  763THF     C911855   0.761   4.164   3.320 -0.3783 -0.1437 -0.2084
  763THF    H1011856   0.591   4.282   3.255 -0.9860  0.4819  0.6531
  763THF    H1111857   0.578   4.100   3.248  1.4158 -1.1996  0.6329
  763THF    H1211858   0.780   4.059   3.323 -1.0657  2.1355  0.6045
  763THF    H1311859   0.817   4.188   3.229 -0.7593 -0.3680 -1.1291
  764THF     O111860   3.920   3.974   4.862 -0.1204 -0.3517 -0.4999
  764THF     C211861   3.983   4.028   4.749  0.3975  0.2555 -0.6573
  764THF     C311862   3.989   3.852   4.892  0.0434 -0.2342  1.4150
  764THF     H411863   3.955   4.135   4.743 -2.1652  2.7579  1.4711
  764THF     H511864   3.934   3.988   4.664  0.6710 -0.4108  1.7695
  764THF     H611865   3.978   3.813   4.993 -2.1707  1.3584  1.1476
  764THF     H711866   3.952   3.762   4.842 -2.3680 -0.8492  2.6041
  764THF     C811867   4.139   3.880   4.859  0.8613  0.3644  0.3732
  764THF     C911868   4.133   3.987   4.750 -0.8715 -0.2092  0.5438
  764THF    H1011869   4.207   3.801   4.834  1.9149 -0.5083  3.0255
  764THF    H1111870   4.163   3.918   4.955  0.4828 -0.2166 -0.5154
  764THF    H1211871   4.208   4.061   4.779  2.4592 -0.9853  4.3568
  764THF    H1311872   4.167   3.940   4.662 -1.5410 -0.9860  2.4302
  765THF     O111873   3.544   0.756   1.685 -0.3985 -0.0092  0.4966
  765THF     C211874   3.651   0.701   1.770 -0.6266  0.7161  0.2375
  765THF     C311875   3.615   0.797   1.562 -0.6963  0.3230 -0.3088
  765THF     H411876   3.672   0.599   1.735 -0.6978  1.7413  0.8479
  765THF     H511877   3.620   0.698   1.878  0.5336 -0.8627 -0.5802
  765THF     H611878   3.625   0.715   1.491  0.7496 -2.1662  0.3524
  765THF     H711879   3.560   0.876   1.518  1.2654 -2.2654  0.0026
  765THF     C811880   3.752   0.850   1.604  0.0528  0.5073  0.3248
  765THF     C911881   3.770   0.802   1.748 -0.0786  0.0811  0.2103
  765THF    H1011882   3.762   0.954   1.584  1.4354 -0.0446  1.9911
  765THF    H1111883   3.829   0.798   1.546 -0.1710 -3.8973  0.2036
  765THF    H1211884   3.866   0.759   1.771  1.2229 -1.0899  1.7417
  765THF    H1311885   3.756   0.881   1.820  1.8337 -2.8188  0.7947
  766THF     O111886   4.909   2.034   4.099 -0.3677 -0.6532 -0.3567
  766THF     C211887   4.977   2.150   4.136 -0.2311  0.5095  0.8356
  766THF     C311888   4.775   2.054   4.077 -0.2371  0.4602 -0.0644
  766THF     H411889   5.083   2.152   4.138 -2.1607  0.8746  0.4249
  766THF     H511890   4.952   2.170   4.241 -3.1815  2.3904  0.3181
  766THF     H611891   4.736   1.977   4.016 -2.7539  1.5646 -1.1986
  766THF     H711892   4.721   2.068   4.174 -1.4058  1.2700 -3.3065
  766THF     C811893   4.779   2.191   4.007 -0.5896 -0.2728  0.5309
  766THF     C911894   4.904   2.252   4.045  0.3460  0.1757  0.0771
  766THF    H1011895   4.689   2.251   4.017 -2.2005 -0.5104 -1.9553
  766THF    H1111896   4.783   2.181   3.895  0.6234 -0.5060  2.6131
  766THF    H1211897   4.973   2.264   3.963 -1.4294  0.7837  1.0268
  766THF    H1311898   4.887   2.351   4.091 -1.8081 -1.0049 -2.0552
  767THF     O111899   1.382   0.985   2.857  0.2928  0.0751  0.4989
  767THF     C211900   1.241   0.987   2.838 -0.4278  0.4866  0.2400
  767THF     C311901   1.434   1.050   2.742  0.0658 -0.1711  0.5756
  767THF     H411902   1.203   0.965   2.939  0.2073 -2.3265  1.4746
  767THF     H511903   1.200   0.903   2.781 -0.3324 -0.0636  0.8354
  767THF     H611904   1.495   1.118   2.788 -0.4050 -0.4525 -0.9811
  767THF     H711905   1.501   0.986   2.679  1.2022 -0.1950  0.1990
  767THF     C811906   1.324   1.108   2.668  0.2555 -0.8173 -0.1465
  767THF     C911907   1.206   1.113   2.766 -0.2979  0.2020 -0.5380
  767THF    H1011908   1.297   1.048   2.581  1.7454 -2.8320  0.2535
  767THF    H1111909   1.340   1.212   2.633 -1.6531 -0.4663  0.2900
  767THF    H1211910   1.203   1.197   2.837 -2.8521  0.6508  2.1557
  767THF    H1311911   1.116   1.115   2.709  0.4132  1.2827  0.5164
  768THF     O111912   3.071   5.482   3.011  0.0727 -0.3036 -0.5820
  768THF     C211913   3.173   5.482   2.906  0.8249  0.4357 -0.9884
  768THF     C311914   3.107   5.381   3.111  0.1493 -0.9756  0.4554
  768THF     H411915   3.264   5.539   2.936  1.8565  2.3290  0.5116
  768THF     H511916   3.139   5.527   2.815 -1.6110  1.2515  0.1023
  768THF     H611917   3.195   5.419   3.170  1.7031  1.7282  1.1959
  768THF     H711918   3.026   5.354   3.174  2.7274 -2.2475 -2.4837
  768THF     C811919   3.173   5.268   3.025 -0.3821 -0.3917  0.1127
  768THF     C911920   3.195   5.335   2.885  0.2165  0.3713  0.6163
  768THF    H1011921   3.104   5.187   3.027  1.7499  3.1009 -0.3568
  768THF    H1111922   3.265   5.227   3.056 -1.5534 -0.0075 -1.2209
  768THF    H1211923   3.296   5.324   2.842  0.3137  1.9302  1.0983
  768THF    H1311924   3.127   5.289   2.817  0.7206 -2.3575 -1.2127
  769THF     O111925   4.285   4.036   5.300  0.8213  0.8821 -0.2545
  769THF     C211926   4.385   4.129   5.281 -0.6230 -0.1400 -0.4031
  769THF     C311927   4.347   3.910   5.309 -0.1818  0.4107  0.2110
  769THF     H411928   4.413   4.156   5.381  2.6394  1.0639  2.1712
  769THF     H511929   4.344   4.210   5.218 -0.3353  0.0371  0.1475
  769THF     H611930   4.394   3.896   5.410  0.2974  0.4738 -2.3613
  769THF     H711931   4.271   3.841   5.294 -2.5670  1.3211 -0.0788
  769THF     C811932   4.453   3.916   5.192 -0.1983 -0.1840 -0.0101
  769THF     C911933   4.498   4.056   5.204 -0.1948  0.1237  0.0163
  769THF    H1011934   4.396   3.890   5.100 -0.5296 -0.5221  0.0176
  769THF    H1111935   4.534   3.843   5.204 -2.5437  0.1737 -0.8568
  769THF    H1211936   4.598   4.061   5.249  0.4442  1.5475 -1.9232
  769THF    H1311937   4.508   4.094   5.108 -0.3833  0.8812  1.8972
  770THF     O111938   2.852   3.392   5.410 -0.2269  0.1185  0.1950
  770THF     C211939   2.783   3.506   5.362  0.4732  0.6565 -0.5544
  770THF     C311940   2.773   3.315   5.497 -0.3798  0.0494  0.7113
  770THF     H411941   2.729   3.483   5.269 -0.5004 -0.7966 -0.1650
  770THF     H511942   2.863   3.580   5.360 -0.8065 -2.8523 -0.2646
  770THF     H611943   2.708   3.241   5.443 -3.1880  2.0961  0.2928
  770THF     H711944   2.842   3.264   5.564  2.3807 -2.4663 -2.4144
  770THF     C811945   2.690   3.422   5.570 -0.1121  0.5422  0.2626
  770THF     C911946   2.682   3.541   5.474  0.6238  0.3531 -0.0816
  770THF    H1011947   2.735   3.450   5.668  2.0100 -1.9500  1.3357
  770THF    H1111948   2.595   3.383   5.592  0.6416 -0.5370 -0.3928
  770THF    H1211949   2.578   3.544   5.435 -0.9130  0.1126 -0.6993
  770THF    H1311950   2.704   3.632   5.532  2.6502  0.5606  1.6998
  771THF     O111951   1.585   5.182   0.043 -0.0872  0.1205 -0.5953
  771THF     C211952   1.535   5.268   0.141 -0.0796  0.1491 -0.3818
  771THF     C311953   1.486   5.086   0.014 -0.0347 -0.6410 -0.5573
  771THF     H411954   1.475   5.335   0.090  0.3802  0.3627  0.5491
  771THF     H511955   1.610   5.326   0.204  0.7977  2.0490 -1.2068
  771THF     H611956   1.443   5.111  -0.082 -0.7225 -1.7389  0.5601
  771THF     H711957   1.529   4.985  -0.002  2.8038  0.1861  0.0526
  771THF     C811958   1.378   5.092   0.117  0.1773 -0.1269 -0.4181
  771THF     C911959   1.448   5.180   0.222  0.7912 -0.4343 -0.0533
  771THF    H1011960   1.376   4.994   0.165 -2.8449 -0.1646  0.2179
  771THF    H1111961   1.279   5.120   0.078  0.2014  0.5498  0.7943
  771THF    H1211962   1.384   5.248   0.278  0.8241  0.0387 -1.1488
  771THF    H1311963   1.504   5.115   0.286  1.0495 -1.0710 -0.6252
  772THF     O111964   1.992   4.436   4.965  0.4300 -0.2103  0.0261
  772THF     C211965   2.083   4.537   4.958  0.0240  0.4039  0.2805
  772THF     C311966   2.035   4.346   5.066 -0.5791  0.4048  0.0079
  772THF     H411967   2.064   4.623   4.892 -0.3007  0.0966 -0.1050
  772THF     H511968   2.170   4.496   4.912 -1.5806  0.6853  0.2214
  772THF     H611969   1.972   4.263   5.110 -1.1885 -4.7121  0.8664
  772THF     H711970   2.129   4.297   5.036  1.1371  1.6201  0.5173
  772THF     C811971   2.078   4.440   5.180 -0.1066  0.2243  0.2429
  772THF     C911972   2.103   4.575   5.101  0.3682 -0.1553 -0.0745
  772THF    H1011973   2.167   4.400   5.222  0.3906  0.9858  2.9968
  772THF    H1111974   1.991   4.456   5.247  0.4941 -0.2874 -2.1819
  772THF    H1211975   2.032   4.648   5.130  0.5830  0.5130  0.8456
  772THF    H1311976   2.202   4.608   5.133  0.5442  0.7638  0.4016
  773THF     O111977   2.374   2.880   0.571 -0.3153 -0.0898 -0.0134
  773THF     C211978   2.375   2.969   0.678 -0.1666  0.1730 -0.4972
  773THF     C311979   2.237   2.838   0.559 -0.3116  0.5157  1.0721
  773THF     H411980   2.327   3.061   0.645 -1.0939  0.1698  0.3744
  773THF     H511981   2.479   2.999   0.702  0.7261  1.0057  0.5287
  773THF     H611982   2.184   2.912   0.501  1.0174  2.8550  0.2803
  773THF     H711983   2.228   2.744   0.509 -1.8097  0.1671  0.2795
  773THF     C811984   2.196   2.816   0.705  0.1810 -0.5076 -0.0940
  773THF     C911985   2.296   2.899   0.793  0.3684  0.3768  0.3265
  773THF    H1011986   2.183   2.711   0.725  3.6281  0.7778  0.8494
  773THF    H1111987   2.096   2.862   0.720  1.7521 -1.1599 -1.7133
  773THF    H1211988   2.253   2.969   0.864 -2.4640  1.4422  0.6228
  773THF    H1311989   2.348   2.814   0.840 -0.4318  2.0692 -2.1618
  774THF     O111990   2.387   2.709   1.177 -0.0837  0.1558  0.3487
  774THF     C211991   2.275   2.787   1.207 -0.3641 -0.6114  0.8095
  774THF     C311992   2.343   2.571   1.165  0.0279  1.0513 -0.6763
  774THF     H411993   2.222   2.796   1.112  0.1332 -0.4739  1.1345
  774THF     H511994   2.309   2.892   1.236  0.0599 -0.5251 -0.2833
  774THF     H611995   2.290   2.549   1.072 -1.1401 -0.3927  3.6687
  774THF     H711996   2.421   2.501   1.187  0.4275  2.1520  0.7921
  774THF     C811997   2.245   2.563   1.284 -0.0310  0.1287 -0.6092
  774THF     C911998   2.186   2.702   1.297 -0.3141 -0.1448 -0.1960
  774THF    H1011999   2.305   2.545   1.377  0.4775  1.2457  2.3189
  774THF    H1112000   2.183   2.481   1.256  2.0212  0.3451 -0.5063
  774THF    H1212001   2.084   2.718   1.273  1.8664 -0.8314  0.1882
  774THF    H1312002   2.183   2.721   1.400 -0.5030  1.2516 -0.3061
  775THF     O112003   4.888   0.647   5.105  0.3799 -0.2521 -0.4293
  775THF     C212004   4.948   0.580   5.001  0.2213 -0.8507  1.2091
  775THF     C312005   4.848   0.550   5.204 -0.1701  0.5504  0.4706
  775THF     H412006   5.054   0.552   5.014  0.7960  1.9104 -1.7597
  775THF     H512007   4.960   0.656   4.921  1.1769 -1.6884  0.5076
  775THF     H612008   4.943   0.522   5.247 -1.7678 -1.3999 -0.5042
  775THF     H712009   4.776   0.592   5.281  0.3199  0.6700  0.5145
  775THF     C812010   4.799   0.439   5.120  0.0376  1.2546 -0.5978
  775THF     C912011   4.857   0.463   4.982 -0.6046  0.8236  0.3901
  775THF    H1012012   4.688   0.443   5.103  2.9249 -1.5174  1.7040
  775THF    H1112013   4.817   0.335   5.157 -2.6705 -0.9572  2.2867
  775THF    H1212014   4.918   0.375   4.956 -0.0766 -0.8297  1.1996
  775THF    H1312015   4.792   0.482   4.901  0.8091 -0.0035 -1.0701
  776THF     O112016   2.158   0.799   4.364  0.3926  0.0979 -0.2657
  776THF     C212017   2.202   0.859   4.250 -0.4021  0.4637  0.3089
  776THF     C312018   2.187   0.661   4.352  0.2055  0.3812 -0.4525
  776THF     H412019   2.202   0.967   4.258  0.4870 -0.1966 -0.8238
  776THF     H512020   2.139   0.832   4.162  4.3561 -0.9823 -0.1149
  776THF     H612021   2.195   0.610   4.451 -2.1605 -0.9093  1.9450
  776THF     H712022   2.105   0.609   4.303 -0.3396  0.4817  1.0929
  776THF     C812023   2.311   0.659   4.271 -0.2609 -0.2084 -0.0549
  776THF     C912024   2.342   0.802   4.223 -0.0005 -0.1606 -0.6614
  776THF    H1012025   2.290   0.588   4.190  0.5693 -1.0841  0.4705
  776THF    H1112026   2.385   0.622   4.338 -0.4869  0.3805 -2.9186
  776THF    H1212027   2.417   0.838   4.288 -3.7478  0.0509 -0.3960
  776THF    H1312028   2.366   0.806   4.115  2.1813 -1.7348 -3.3203
  777THF     O112029   5.418   4.822   5.270  0.1962 -0.4925  0.1007
  777THF     C212030   5.402   4.947   5.340  0.5172  0.0022 -0.5056
  777THF     C312031   5.302   4.741   5.296  0.1427  1.0083  0.2061
  777THF     H412032   5.325   5.007   5.285 -0.1133  1.5244  0.3152
  777THF     H512033   5.490   5.008   5.361 -4.0901 -0.5242 -0.0203
  777THF     H612034   5.232   4.765   5.226  2.7243 -2.2933 -1.2581
  777THF     H712035   5.334   4.643   5.283  0.6107 -0.7179  2.1848
  777THF     C812036   5.259   4.771   5.440  0.1503  0.1064 -0.1057
  777THF     C912037   5.350   4.893   5.475 -0.4948 -0.5841 -0.5415
  777THF    H1012038   5.282   4.689   5.507 -0.5622  0.0747  0.0897
  777THF    H1112039   5.151   4.795   5.442 -0.2508 -1.7982 -1.4601
  777THF    H1212040   5.294   4.969   5.511 -0.7673  0.3291  0.9741
  777THF    H1312041   5.430   4.870   5.541 -2.1115  3.3210  1.4276
  778THF     O112042   0.589   3.105   3.656 -0.2826  0.1158  0.0851
  778THF     C212043   0.686   3.127   3.548  0.1244 -0.9765 -0.4517
  778THF     C312044   0.658   3.143   3.777  0.3840 -0.1128  0.7184
  778THF     H412045   0.698   3.234   3.531 -2.0185  1.0613  1.7742
  778THF     H512046   0.648   3.070   3.461  0.8039 -1.2321  0.8065
  778THF     H612047   0.645   3.250   3.792 -1.0232 -1.6518 -1.0984
  778THF     H712048   0.616   3.081   3.856 -2.4750 -0.7068 -1.6930
  778THF     C812049   0.809   3.104   3.745  0.2292  0.8388 -0.4152
  778THF     C912050   0.814   3.061   3.602  0.2680  0.6088  0.1497
  778THF    H1012051   0.833   3.020   3.809 -2.8066  0.6276  0.2689
  778THF    H1112052   0.876   3.189   3.763  0.7102  0.6056  1.9736
  778THF    H1212053   0.909   3.092   3.556 -1.7987  0.2095 -4.7403
  778THF    H1312054   0.821   2.957   3.586  2.9135  0.2059 -3.0061
  779THF     O112055   3.038   0.497   1.789 -0.4940  0.4487  0.1400
  779THF     C212056   3.038   0.608   1.876 -0.5831  0.0345 -0.0202
  779THF     C312057   3.174   0.452   1.775  0.1737 -0.1124  0.7740
  779THF     H412058   2.929   0.622   1.909 -1.3559  0.4889  2.7189
  779THF     H512059   3.061   0.705   1.822  0.4802  0.5011 -1.8449
  779THF     H612060   3.187   0.350   1.740  1.7975  0.9464 -2.3251
  779THF     H712061   3.219   0.523   1.707  1.2173  0.4201 -0.4988
  779THF     C812062   3.230   0.468   1.920  0.3662  0.0754 -0.3320
  779THF     C912063   3.138   0.566   1.982 -0.2442 -0.8096  0.0347
  779THF    H1012064   3.342   0.491   1.940  0.7326  0.5743  0.6470
  779THF    H1112065   3.206   0.375   1.963  0.5697  1.0397  0.7143
  779THF    H1212066   3.097   0.526   2.076 -4.9159  2.0908  1.0384
  779THF    H1312067   3.195   0.652   2.023  0.9025  1.3996  0.9393
  780THF     O112068   1.417   2.897   2.769 -0.0883  0.3610  0.3054
  780THF     C212069   1.419   2.901   2.629 -0.0491 -0.1252  0.2283
  780THF     C312070   1.465   3.032   2.812  0.3206  0.7017  0.5681
  780THF     H412071   1.313   2.919   2.594 -0.8295  4.1971 -0.2937
  780THF     H512072   1.462   2.812   2.582  1.3257  0.1318 -2.1339
  780THF     H612073   1.392   3.113   2.799 -0.7913  0.5750  0.7397
  780THF     H712074   1.492   3.023   2.917  0.3434 -0.5264  1.8334
  780THF     C812075   1.577   3.055   2.711 -1.3333  0.0425  0.0357
  780THF     C912076   1.502   3.020   2.589 -0.6679 -0.2408  0.3648
  780THF    H1012077   1.653   2.973   2.738  0.0581 -1.5469 -0.1526
  780THF    H1112078   1.598   3.160   2.723 -2.1462 -0.5697  0.1593
  780THF    H1212079   1.437   3.104   2.554 -1.0563 -0.1040  0.4736
  780THF    H1312080   1.580   2.983   2.517  0.1679  0.8831 -1.1694
  781THF     O112081   0.280   3.344   2.033  0.3480  0.2601  0.0282
  781THF     C212082   0.210   3.322   1.908 -0.0500  1.1468 -0.1220
  781THF     C312083   0.381   3.245   2.038  0.2938  0.4371  0.6377
  781THF     H412084   0.272   3.367   1.828 -1.1166 -2.0861 -0.0660
  781THF     H512085   0.120   3.379   1.907 -0.8474 -2.8036  1.0140
  781THF     H612086   0.454   3.258   1.963 -1.6771 -1.7680 -0.5275
  781THF     H712087   0.425   3.238   2.138  1.9581  2.3005 -1.9529
  781THF     C812088   0.297   3.121   2.003 -0.0821 -0.2858  0.5947
  781THF     C912089   0.191   3.171   1.906  0.0831 -0.3375 -0.3112
  781THF    H1012090   0.244   3.092   2.094  1.9542  0.7959 -0.4236
  781THF    H1112091   0.361   3.051   1.959  0.8411 -0.3350 -0.5322
  781THF    H1212092   0.206   3.111   1.816  0.0069 -0.3676  2.0988
  781THF    H1312093   0.088   3.171   1.947 -2.0608 -0.7941 -0.9622
  782THF     O112094   0.344   5.409   0.698 -0.2086  0.1999 -0.1916
  782THF     C212095   0.390   5.403   0.832  0.0548  0.1616 -0.4358
  782THF     C312096   0.205   5.450   0.704  0.0320 -0.7437  0.1758
  782THF     H412097   0.392   5.503   0.868 -2.8185 -2.7026 -0.1054
  782THF     H512098   0.491   5.365   0.836 -1.3685  0.2170  1.5167
  782THF     H612099   0.191   5.553   0.694  0.6464 -0.6982 -1.2558
  782THF     H712100   0.157   5.399   0.618 -1.5275  0.9744  3.3767
  782THF     C812101   0.160   5.401   0.842  0.1985  0.5952 -0.0111
  782THF     C912102   0.278   5.330   0.907  0.8381 -0.5196  0.2790
  782THF    H1012103   0.075   5.337   0.838  0.5024  2.2354  0.2498
  782THF    H1112104   0.142   5.487   0.897  2.3973 -1.1702  3.0341
  782THF    H1212105   0.276   5.343   1.017  0.3646  2.1649  0.2659
  782THF    H1312106   0.278   5.228   0.872 -0.0548  0.7180 -0.7315
  783THF     O112107   4.679   2.538   3.130  0.3178  0.0986 -0.3533
  783THF     C212108   4.669   2.476   3.006  0.3881 -0.2358 -0.5988
  783THF     C312109   4.754   2.659   3.123  0.1391 -0.3834 -0.4716
  783THF     H412110   4.592   2.400   3.014  0.1114  0.2872  0.5702
  783THF     H512111   4.760   2.422   2.979 -1.2521 -0.1831 -1.1651
  783THF     H612112   4.726   2.730   3.200 -3.7143 -0.0103  0.8844
  783THF     H712113   4.859   2.641   3.148 -0.4598 -3.4490  1.1974
  783THF     C812114   4.729   2.706   2.983 -0.5380 -1.1080 -0.2482
  783THF     C912115   4.646   2.598   2.918  0.5510  0.6166 -0.0921
  783THF    H1012116   4.831   2.703   2.935 -1.4869 -4.4821 -0.7719
  783THF    H1112117   4.682   2.804   2.981  0.7678 -2.7735 -0.6990
  783THF    H1212118   4.545   2.623   2.919  0.5376  1.9114  0.7472
  783THF    H1312119   4.683   2.589   2.812  0.7667  0.7128 -1.0484
  784THF     O112120   0.851   2.504   0.999 -0.2031 -0.1183 -0.3987
  784THF     C212121   0.874   2.367   0.985  1.0262  0.0615  0.5371
  784THF     C312122   0.715   2.529   1.036  0.2052 -0.1031  0.2435
  784THF     H412123   0.979   2.329   0.990  2.1923 -1.6168  0.7590
  784THF     H512124   0.825   2.339   0.885  1.0892  0.5875 -1.5481
  784THF     H612125   0.702   2.623   1.085  0.0877  0.7480 -0.8807
  784THF     H712126   0.657   2.522   0.943  1.1724  1.8965  1.4138
  784THF     C812127   0.681   2.408   1.123  1.0963 -0.3048 -0.2735
  784THF     C912128   0.791   2.302   1.097 -0.7327 -0.0409 -0.3390
  784THF    H1012129   0.579   2.377   1.121  0.8748  0.8968 -0.3995
  784THF    H1112130   0.689   2.442   1.231 -0.1064 -1.0208 -2.0828
  784THF    H1212131   0.864   2.282   1.175 -0.4706  2.3650  0.4365
  784THF    H1312132   0.750   2.202   1.056  2.1399 -0.4644 -1.0760
  785THF     O112133   2.942   0.920   4.743  0.0019 -0.1205  0.0559
  785THF     C212134   2.928   1.005   4.855  0.5237 -0.0768 -1.0186
  785THF     C312135   3.015   0.803   4.786  0.0292  0.3916  0.3795
  785THF     H412136   2.849   1.077   4.841  2.8759 -0.3701 -1.2036
  785THF     H512137   3.020   1.052   4.883 -3.5949  1.1000 -0.9802
  785THF     H612138   3.017   0.722   4.713 -0.3908  1.0389 -0.6852
  785THF     H712139   3.122   0.835   4.800 -0.1287 -1.3430  0.5347
  785THF     C812140   2.951   0.772   4.929  0.6186 -0.1750  0.8078
  785THF     C912141   2.879   0.905   4.958 -0.0517 -0.2563  0.0596
  785THF    H1012142   3.022   0.748   5.013 -3.1060 -1.4401 -2.1915
  785THF    H1112143   2.884   0.691   4.925  0.5949  2.7703  1.5523
  785THF    H1212144   2.770   0.888   4.931 -0.3502 -3.2337 -1.5197
  785THF    H1312145   2.881   0.942   5.059  1.3767  2.3958 -1.1007
  786THF     O112146   1.403   1.858   1.767  0.2063 -0.2962 -0.5850
  786THF     C212147   1.275   1.835   1.713 -0.3377 -0.9006  0.9896
  786THF     C312148   1.379   1.930   1.889  0.2595  0.3640 -0.4117
  786THF     H412149   1.283   1.750   1.643  0.5265  0.2597  0.3717
  786THF     H512150   1.237   1.922   1.660 -0.5756  0.3481 -1.3417
  786THF     H612151   1.473   1.929   1.942  0.9274 -0.2791 -1.9281
  786THF     H712152   1.359   2.035   1.878 -2.1047 -0.7835  0.7697
  786THF     C812153   1.268   1.838   1.949 -0.3395 -0.2102 -0.3257
  786THF     C912154   1.182   1.815   1.828  0.1606 -0.5317  0.0950
  786THF    H1012155   1.203   1.883   2.026 -1.4703  2.1051 -1.4391
  786THF    H1112156   1.313   1.749   1.994  0.0259  0.6824 -0.6957
  786THF    H1212157   1.132   1.716   1.809 -0.7140  2.5532 -1.5458
  786THF    H1312158   1.102   1.891   1.825  1.2511  1.8016  1.4808
  787THF     O112159   1.429   4.538   1.571 -0.0852 -0.0421  0.2266
  787THF     C212160   1.454   4.572   1.703 -0.3640  0.1706 -0.0876
  787THF     C312161   1.507   4.419   1.540  0.9145  0.3884 -0.0302
  787THF     H412162   1.394   4.507   1.767  1.6747 -0.1125  2.4051
  787THF     H512163   1.435   4.673   1.724  0.8855 -1.5387  0.6230
  787THF     H612164   1.445   4.334   1.556  2.0084  0.3948 -0.2124
  787THF     H712165   1.549   4.415   1.431 -0.4752  1.6906 -1.7703
  787THF     C812166   1.611   4.412   1.648 -0.0934  0.3612 -0.4382
  787THF     C912167   1.605   4.548   1.716  0.2713  0.0889 -0.4905
  787THF    H1012168   1.713   4.383   1.624 -0.9919  0.9626  3.5484
  787THF    H1112169   1.591   4.333   1.718  0.2260  0.6020  0.8915
  787THF    H1212170   1.655   4.562   1.817  2.1174 -1.4239  0.0503
  787THF    H1312171   1.659   4.626   1.648  1.5421  0.2480 -0.7581
  788THF     O112172   2.612   0.932   4.001  0.0905 -0.9342 -0.1367
  788THF     C212173   2.635   1.046   4.072 -0.7929 -0.8385  0.0713
  788THF     C312174   2.714   0.838   4.008 -0.3676  0.4838  0.2350
  788THF     H412175   2.615   1.036   4.179  0.7773  2.8217  0.5785
  788THF     H512176   2.574   1.136   4.044 -0.5051 -0.5113  1.4207
  788THF     H612177   2.674   0.777   4.091  2.7895 -2.2402  0.4747
  788THF     H712178   2.729   0.783   3.920 -1.1995 -0.0260 -4.8530
  788THF     C812179   2.837   0.921   4.051 -0.4639  0.0601  0.3003
  788THF     C912180   2.782   1.066   4.043 -0.2362  0.3904  0.6215
  788THF    H1012181   2.924   0.895   3.995 -0.4914  1.1891  0.8547
  788THF    H1112182   2.857   0.905   4.152 -1.1924 -1.1473 -0.9936
  788THF    H1212183   2.824   1.130   4.121 -2.0263 -0.2673  1.2567
  788THF    H1312184   2.798   1.091   3.939 -0.2814  1.4088 -1.1079
  789THF     O112185   4.124   4.612   4.496  0.0138  0.0514 -0.2143
  789THF     C212186   4.007   4.670   4.545  0.7672  0.3849  0.3882
  789THF     C312187   4.210   4.572   4.608  0.0341  0.6539 -0.2940
  789THF     H412188   3.931   4.602   4.560  3.7850  2.7354  2.7691
  789THF     H512189   3.974   4.737   4.470 -1.8821  1.1059 -0.3301
  789THF     H612190   4.156   4.485   4.659  0.7819 -0.8734 -1.0699
  789THF     H712191   4.312   4.528   4.595 -0.6579 -1.9301 -0.9497
  789THF     C812192   4.199   4.689   4.695 -0.7187 -0.1437 -0.5488
  789THF     C912193   4.063   4.741   4.668 -0.6329  0.5659  0.2999
  789THF    H1012194   4.274   4.766   4.670 -0.3197 -1.1219 -0.3774
  789THF    H1112195   4.213   4.658   4.799 -2.0599 -1.1766  1.3244
  789THF    H1212196   3.999   4.755   4.761  1.9072 -3.0371  3.4019
  789THF    H1312197   4.080   4.846   4.648  0.9610 -0.2527 -1.9722
  790THF     O112198   3.681   0.536   2.310 -0.1383 -0.4498 -0.5674
  790THF     C212199   3.635   0.407   2.285 -0.7555 -0.5379 -0.2745
  790THF     C312200   3.724   0.579   2.184  0.3413 -0.0119  0.0680
  790THF     H412201   3.580   0.355   2.367  1.8963 -3.7199  2.8704
  790THF     H512202   3.724   0.345   2.259  3.4980  0.6221  1.6771
  790THF     H612203   3.736   0.688   2.170 -2.4964  0.4941  0.6419
  790THF     H712204   3.820   0.531   2.161  2.5437 -0.2506  0.4482
  790THF     C812205   3.612   0.537   2.089 -0.1187  0.6046  0.3087
  790THF     C912206   3.544   0.420   2.162  0.0760 -0.1722 -0.6968
  790THF    H1012207   3.655   0.515   1.989  1.1395 -0.6453  1.0087
  790THF    H1112208   3.535   0.614   2.075 -1.5608  0.4819  0.4119
  790THF    H1212209   3.439   0.436   2.189 -1.4212 -1.2005 -2.5046
  790THF    H1312210   3.537   0.337   2.096  1.4492  0.1615 -0.9278
  791THF     O112211   5.171   0.125   0.965 -0.7891 -0.3201  0.0112
  791THF     C212212   5.256   0.234   1.007  0.1462  0.5495 -0.0833
  791THF     C312213   5.206   0.010   1.045  0.2235  0.1571 -0.2080
  791THF     H412214   5.207   0.288   1.084 -1.5591 -3.0846  1.0374
  791THF     H512215   5.270   0.300   0.927  0.4467  2.5236  1.4153
  791THF     H612216   5.152   0.016   1.142  0.0070 -3.2738  1.9600
  791THF     H712217   5.171  -0.079   0.994 -2.1464  1.6177 -0.3016
  791THF     C812218   5.357   0.024   1.062 -0.1670 -0.0057 -0.6260
  791THF     C912219   5.384   0.173   1.039 -0.1990  0.3328 -0.2629
  791THF    H1012220   5.394  -0.039   0.979 -2.1637  0.8257  0.3624
  791THF    H1112221   5.402  -0.016   1.152  0.2234  0.3067  0.4243
  791THF    H1212222   5.434   0.212   1.124 -0.0760 -1.1730 -0.8401
  791THF    H1312223   5.455   0.175   0.960  0.5623 -1.9077 -1.1907
  792THF     O112224   3.411   1.527   4.615  0.0516  0.3045  0.8034
  792THF     C212225   3.311   1.465   4.695 -0.3167  0.3943 -0.7850
  792THF     C312226   3.359   1.533   4.484  0.0723  0.6870  0.0002
  792THF     H412227   3.296   1.509   4.789 -0.4634 -2.2669  0.7953
  792THF     H512228   3.334   1.362   4.702  1.3470  3.2030 -0.6509
  792THF     H612229   3.407   1.601   4.415  2.4050  0.9433  1.2025
  792THF     H712230   3.360   1.435   4.438  2.5458 -1.1520  2.5997
  792THF     C812231   3.215   1.565   4.509 -0.2608  0.3969  0.2737
  792THF     C912232   3.173   1.488   4.629 -0.0910 -0.0849 -0.0552
  792THF    H1012233   3.153   1.553   4.418  0.3351 -1.5432  1.7031
  792THF    H1112234   3.201   1.663   4.535  1.8880 -1.6896  0.7571
  792THF    H1212235   3.111   1.534   4.699 -0.1069 -2.7554 -0.8651
  792THF    H1312236   3.128   1.396   4.605 -0.1719 -1.2736 -1.5495
  793THF     O112237   2.312   1.495   4.704  0.5615  0.2878 -0.2259
  793THF     C212238   2.303   1.525   4.841  0.0569 -0.0900  0.3124
  793THF     C312239   2.410   1.580   4.646  0.4686 -0.2924 -0.2558
  793THF     H412240   2.370   1.473   4.903  1.0158  0.7436  1.1333
  793THF     H512241   2.203   1.510   4.869  0.6075 -1.0334  1.4736
  793THF     H612242   2.511   1.552   4.667 -0.1882 -3.2054  0.1823
  793THF     H712243   2.410   1.605   4.540  1.4825 -1.4212  0.3367
  793THF     C812244   2.376   1.718   4.719 -0.3161  0.4828  0.5195
  793THF     C912245   2.338   1.674   4.856 -0.2505 -0.0684  0.1649
  793THF    H1012246   2.289   1.763   4.671 -2.3408  0.0342 -0.3469
  793THF    H1112247   2.465   1.779   4.707 -2.0230  0.1020  3.5753
  793THF    H1212248   2.417   1.678   4.934  0.6999 -3.6089  0.6218
  793THF    H1312249   2.242   1.716   4.890  0.2999  3.9744 -0.1201
  794THF     O112250   0.754   0.762   4.201 -0.6986  0.0216  0.1009
  794THF     C212251   0.771   0.796   4.060 -0.3191  0.4777 -0.2665
  794THF     C312252   0.868   0.811   4.267  0.0426  0.1348  0.6104
  794THF     H412253   0.671   0.802   4.014 -0.3107 -0.9079  1.6883
  794THF     H512254   0.834   0.726   4.011 -1.3878  0.2449  1.0254
  794THF     H612255   0.816   0.877   4.341 -3.5905  0.8122 -0.4566
  794THF     H712256   0.933   0.740   4.313  0.0425  2.1310  1.6064
  794THF     C812257   0.948   0.903   4.179 -0.3324  0.6126  0.2940
  794THF     C912258   0.843   0.932   4.069 -0.2393  0.5149 -0.1066
  794THF    H1012259   1.036   0.841   4.150  1.0050 -0.2420  0.8850
  794THF    H1112260   0.980   0.992   4.229  0.9903  0.6907 -0.7330
  794THF    H1212261   0.768   1.007   4.103 -2.3224  0.3487 -0.5226
  794THF    H1312262   0.884   0.957   3.979  1.6639 -0.9529  0.5256
  795THF     O112263   2.421   3.764   3.184  0.3150  0.6372 -0.0220
  795THF     C212264   2.545   3.704   3.242  0.5453  0.5048  0.6000
  795THF     C312265   2.424   3.777   3.046 -0.3846  0.2769  0.5912
  795THF     H412266   2.532   3.601   3.267  0.8580  0.0295 -1.6580
  795THF     H512267   2.574   3.761   3.327 -0.4572  0.6618  0.1279
  795THF     H612268   2.345   3.704   3.011 -2.3330 -1.2063  0.2189
  795THF     H712269   2.396   3.880   3.013 -0.0242 -1.5278  1.3614
  795THF     C812270   2.561   3.730   3.000  0.9407  0.5044 -0.2067
  795THF     C912271   2.642   3.723   3.125  1.2072 -0.2841  0.3022
  795THF    H1012272   2.597   3.794   2.923 -2.5988 -0.9738  2.3635
  795THF    H1112273   2.555   3.634   2.947 -0.5471 -1.8134 -0.2127
  795THF    H1212274   2.719   3.648   3.115  2.8620 -2.5379  0.4567
  795THF    H1312275   2.696   3.817   3.121  0.5298 -2.5503  1.9759
  796THF     O112276   2.978   3.049   4.026  1.1172 -0.2005  0.4182
  796THF     C212277   3.018   3.144   4.126  0.2472  0.2038  0.2414
  796THF     C312278   2.962   3.124   3.905  0.0746 -0.1228 -0.2384
  796THF     H412279   3.075   3.087   4.193 -1.8674  1.0585 -0.8942
  796THF     H512280   2.935   3.190   4.178 -0.6321 -2.0737  0.4500
  796THF     H612281   2.955   3.055   3.819 -0.3009 -0.2384 -1.0083
  796THF     H712282   2.869   3.183   3.897  2.5791 -0.6532  1.0001
  796THF     C812283   3.086   3.209   3.903  0.1634 -0.2788  0.2720
  796THF     C912284   3.108   3.243   4.053 -0.1030  0.4573  1.1408
  796THF    H1012285   3.082   3.300   3.842  1.7190 -2.7196 -1.4525
  796THF    H1112286   3.166   3.154   3.864  0.3368 -1.6705 -0.1541
  796THF    H1212287   3.212   3.243   4.093 -0.5949 -0.2618  0.8914
  796THF    H1312288   3.075   3.344   4.076 -2.8953 -1.2959 -0.1275
  797THF     O112289   2.988   0.736   5.263  0.6901  0.0253 -0.0963
  797THF     C212290   3.022   0.638   5.354 -0.0020 -0.1130 -0.1584
  797THF     C312291   3.062   0.851   5.309 -0.5782  0.1095 -0.0972
  797THF     H412292   2.990   0.547   5.316  0.9274 -0.1609 -1.5616
  797THF     H512293   2.979   0.654   5.453 -2.9629  0.1715 -0.9121
  797THF     H612294   3.044   0.928   5.231 -2.0031  0.4643 -1.9961
  797THF     H712295   3.023   0.878   5.410  1.1735 -2.1410 -1.1598
  797THF     C812296   3.195   0.795   5.325 -0.2524  0.2208  0.2709
  797THF     C912297   3.174   0.648   5.347 -0.3802  0.7844 -0.3275
  797THF    H1012298   3.246   0.836   5.415  2.5817  0.6504  0.5756
  797THF    H1112299   3.260   0.811   5.241 -1.5037 -0.5492  1.6108
  797THF    H1212300   3.211   0.589   5.265  1.7760  0.3403 -0.0084
  797THF    H1312301   3.220   0.611   5.436 -2.4110  1.8611 -2.2371
  798THF     O112302   2.515   5.193   5.403  0.3364  0.3264  0.2707
  798THF     C212303   2.495   5.062   5.452 -0.0490  0.0297 -0.0929
  798THF     C312304   2.389   5.231   5.355  0.1004  1.1704 -0.5539
  798THF     H412305   2.454   5.057   5.552 -1.0445 -0.5935  0.0922
  798THF     H512306   2.586   4.999   5.450  0.8602 -1.8633  1.2417
  798THF     H612307   2.330   5.293   5.424  1.4408  0.7253  0.5448
  798THF     H712308   2.422   5.296   5.274 -0.3409  0.3469  2.3519
  798THF     C812309   2.313   5.098   5.312  0.0280 -0.2577  0.6144
  798THF     C912310   2.405   4.995   5.353  1.2431 -0.0051  0.0677
  798THF    H1012311   2.298   5.097   5.207  0.8325 -1.4187  1.2494
  798THF    H1112312   2.216   5.079   5.357 -1.1792 -0.8501 -1.7878
  798THF    H1212313   2.347   4.905   5.386 -0.9849 -0.4461  1.0097
  798THF    H1312314   2.462   4.953   5.270 -1.5365  0.6085 -1.7764
  799THF     O112315   1.518   0.558   1.519  0.2811 -0.1643  0.1801
  799THF     C212316   1.650   0.530   1.473 -0.0548  0.7429 -0.8660
  799THF     C312317   1.476   0.678   1.459  0.3119 -0.2563  0.0891
  799THF     H412318   1.666   0.420   1.476 -0.7766 -0.1678 -0.6946
  799THF     H512319   1.725   0.601   1.516  1.1103  0.6930  0.1200
  799THF     H612320   1.369   0.699   1.467 -0.0571  0.9520  0.4473
  799THF     H712321   1.525   0.760   1.506  1.0525  0.9603 -0.3901
  799THF     C812322   1.527   0.664   1.316  0.3933 -0.6984 -0.4394
  799THF     C912323   1.639   0.564   1.330 -0.0258  0.3546  0.3754
  799THF    H1012324   1.556   0.751   1.261 -1.2051 -0.2145  1.1619
  799THF    H1112325   1.441   0.627   1.256 -2.2569  1.4796  0.2065
  799THF    H1212326   1.609   0.470   1.281  2.0054 -2.2472 -0.3781
  799THF    H1312327   1.730   0.601   1.284 -2.7081  2.0295 -0.0697
  800THF     O112328   1.501   1.380   3.431  0.4282  0.3767  0.4360
  800THF     C212329   1.614   1.357   3.350  0.2778 -0.4634  0.2040
  800THF     C312330   1.437   1.494   3.365  0.4380  0.0643  0.1166
  800THF     H412331   1.591   1.294   3.262  0.0782 -2.2134 -0.2743
  800THF     H512332   1.681   1.305   3.419 -0.7990 -0.4773  1.3316
  800THF     H612333   1.412   1.458   3.263  1.6581  0.8882  0.7458
  800THF     H712334   1.350   1.544   3.407  0.2123  0.0485 -2.2123
  800THF     C812335   1.558   1.584   3.339 -0.5462 -0.1428  0.3560
  800THF     C912336   1.675   1.487   3.307 -0.6617 -0.1678 -0.5907
  800THF    H1012337   1.579   1.650   3.411  1.6365 -1.8323 -0.4322
  800THF    H1112338   1.542   1.654   3.257 -2.3368  0.2826 -0.6901
  800THF    H1212339   1.706   1.501   3.204  3.1939 -0.6311 -0.0730
  800THF    H1312340   1.759   1.512   3.370 -0.4986 -2.4169  2.0277
  801THF     O112341   0.571   1.081   1.488  0.1966  0.1286 -0.3591
  801THF     C212342   0.671   1.119   1.401 -0.1214 -0.2769 -0.5979
  801THF     C312343   0.620   1.003   1.602 -0.4940 -0.4854  0.3344
  801THF     H412344   0.721   1.205   1.446  1.0748 -1.1725  0.9252
  801THF     H512345   0.627   1.163   1.313 -1.4691  0.8427 -2.7999
  801THF     H612346   0.648   1.073   1.683 -0.7168 -3.2156 -2.5145
  801THF     H712347   0.547   0.928   1.642  0.2619 -2.1598  1.7566
  801THF     C812348   0.743   0.930   1.539  0.1500 -0.4155 -0.2451
  801THF     C912349   0.760   0.999   1.397  0.1128  0.6706 -0.9626
  801THF    H1012350   0.722   0.827   1.521  2.8070 -0.5444  0.3682
  801THF    H1112351   0.839   0.941   1.594  1.4473  1.7024  0.4553
  801THF    H1212352   0.859   1.040   1.384 -2.9295 -0.9669 -0.5447
  801THF    H1312353   0.751   0.932   1.319  1.9642 -1.0247  1.0183
  802THF     O112354   1.402   1.096   1.638 -0.4848  0.1657  1.0719
  802THF     C212355   1.308   1.022   1.560  0.5047 -0.0447 -0.5296
  802THF     C312356   1.339   1.208   1.707  0.9591 -0.2187 -0.0517
  802THF     H412357   1.295   0.926   1.607 -1.4990  1.8624  4.0047
  802THF     H512358   1.328   1.003   1.453  0.9984 -1.1660 -0.1994
  802THF     H612359   1.377   1.214   1.809 -0.3682 -0.7021  0.2117
  802THF     H712360   1.371   1.301   1.658 -1.7212 -1.6016  0.0586
  802THF     C812361   1.188   1.183   1.686  0.2402 -0.4960 -0.1041
  802THF     C912362   1.171   1.091   1.572  0.4609  0.8167 -0.2512
  802THF    H1012363   1.137   1.277   1.660  0.3676  0.5025 -1.8179
  802THF    H1112364   1.140   1.132   1.769 -2.2777  0.0085 -1.3977
  802THF    H1212365   1.083   1.026   1.589  1.0482  0.0933  0.5929
  802THF    H1312366   1.155   1.139   1.478  0.3296  0.1534  2.5191
  803THF     O112367   5.173   1.067   1.737  0.3687  0.8178  0.0038
  803THF     C212368   5.072   1.020   1.829 -0.6285  0.6756 -0.2209
  803THF     C312369   5.130   1.194   1.690  0.6510  0.3056  0.5498
  803THF     H412370   5.061   1.069   1.926  1.4340  0.3120 -1.8942
  803THF     H512371   5.097   0.919   1.861  2.2211  0.6494 -2.4460
  803THF     H612372   5.125   1.272   1.771  1.5358 -0.3338  1.4395
  803THF     H712373   5.198   1.216   1.609  1.6973  2.2434  0.6824
  803THF     C812374   4.992   1.159   1.644 -0.4630 -0.0577  0.7865
  803THF     C912375   4.949   1.050   1.737 -0.4049  0.5948 -0.0152
  803THF    H1012376   5.001   1.117   1.541 -0.3267  0.9743  0.7101
  803THF    H1112377   4.927   1.245   1.648  0.7897 -1.2849  1.1578
  803THF    H1212378   4.869   1.094   1.805  0.5576  1.1428 -0.4861
  803THF    H1312379   4.918   0.964   1.679  0.5169 -1.7220  2.0580
  804THF     O112380   0.170   0.526   4.641 -0.0602 -0.4459  0.2874
  804THF     C212381   0.225   0.632   4.567 -0.6539  0.3227 -0.7342
  804THF     C312382   0.252   0.420   4.628 -0.2923 -0.5892  0.0259
  804THF     H412383   0.228   0.721   4.625 -0.4856  0.9089 -1.1871
  804THF     H512384   0.159   0.649   4.484 -1.3029 -0.6635  1.5063
  804THF     H612385   0.240   0.347   4.709  0.2822  2.3218  1.1435
  804THF     H712386   0.226   0.373   4.531  0.5209  1.4822 -1.5404
  804THF     C812387   0.395   0.473   4.601  0.2817  0.4680 -0.2354
  804THF     C912388   0.356   0.583   4.514  0.5256  0.1181  0.1641
  804THF    H1012389   0.468   0.398   4.573  0.5617 -2.8328 -1.4499
  804THF    H1112390   0.439   0.511   4.697  1.7686 -1.3519 -0.0164
  804THF    H1212391   0.427   0.672   4.519  0.6493  1.8466  1.6874
  804THF    H1312392   0.342   0.541   4.414  0.6284 -0.0951  1.0200
  805THF     O112393   3.550   2.625   3.610 -0.0747 -0.1826 -0.0827
  805THF     C212394   3.646   2.544   3.551  0.2311 -0.3110  0.3005
  805THF     C312395   3.452   2.536   3.659 -0.4083 -0.0656  0.5209
  805THF     H412396   3.705   2.485   3.620  1.9135  0.4923  0.9811
  805THF     H512397   3.717   2.612   3.503  0.3709 -2.2331  0.6746
  805THF     H612398   3.494   2.469   3.737  0.0116  0.9191 -1.0020
  805THF     H712399   3.357   2.580   3.697 -1.1617  0.8221  3.4426
  805THF     C812400   3.421   2.438   3.545 -0.0777 -0.1797  0.3713
  805THF     C912401   3.551   2.453   3.461 -0.0203 -0.1741  0.0144
  805THF    H1012402   3.336   2.466   3.489 -0.8176 -1.7529  1.9372
  805THF    H1112403   3.404   2.337   3.587 -0.5185 -2.6467  2.9479
  805THF    H1212404   3.600   2.359   3.432  0.1133  1.2598 -2.1394
  805THF    H1312405   3.529   2.515   3.370 -1.9898 -1.4271  0.4957
  806THF     O112406   1.972   2.871   1.478  0.2359  0.6585 -0.1719
  806THF     C212407   1.850   2.845   1.414 -0.2303 -0.3488  0.0717
  806THF     C312408   1.969   2.801   1.606  0.3327  0.0042  0.8471
  806THF     H412409   1.848   2.856   1.304 -0.7906 -0.8010 -0.8978
  806THF     H512410   1.781   2.925   1.448  0.3538 -2.4264 -0.8431
  806THF     H612411   2.065   2.790   1.650  0.1337 -1.0420 -0.7209
  806THF     H712412   1.901   2.855   1.669  0.3711  2.4194 -1.1753
  806THF     C812413   1.912   2.665   1.561 -0.1555  0.1404 -0.2866
  806THF     C912414   1.808   2.707   1.458 -0.0007  0.0601 -0.4415
  806THF    H1012415   1.862   2.612   1.642  0.3300  2.9161 -0.0526
  806THF    H1112416   1.992   2.609   1.516  2.3164 -0.6328  1.7381
  806THF    H1212417   1.803   2.640   1.369 -1.0537 -0.2166  0.0278
  806THF    H1312418   1.705   2.710   1.498 -0.9344  1.6124 -2.6931
  807THF     O112419   2.172   1.470   1.710 -0.6884 -0.0327  0.4726
  807THF     C212420   2.056   1.445   1.797  0.0031 -0.5878  0.6262
  807THF     C312421   2.224   1.342   1.681  0.1980 -0.6116  0.6074
  807THF     H412422   1.962   1.404   1.758 -0.1557  1.5604  0.1568
  807THF     H512423   2.030   1.538   1.836  0.5596 -2.0862 -0.8887
  807THF     H612424   2.172   1.293   1.599  2.4353 -2.1394  0.4048
  807THF     H712425   2.328   1.350   1.657  1.4218  0.8785  0.0156
  807THF     C812426   2.209   1.269   1.818  0.1502 -0.1985 -0.2601
  807THF     C912427   2.101   1.338   1.892  0.6505  0.7903  0.1355
  807THF    H1012428   2.305   1.276   1.863  0.6735  0.1813  4.4497
  807THF    H1112429   2.194   1.164   1.799  2.2038  1.2438 -2.9256
  807THF    H1212430   2.019   1.273   1.931  0.2657 -0.5511  0.4830
  807THF    H1312431   2.142   1.382   1.981  1.0429 -0.2958 -1.7308
  808THF     O112432   3.115   5.015   5.055  0.5038 -0.2413  0.7572
  808THF     C212433   3.215   5.110   5.096  0.1194 -0.2342 -0.3827
  808THF     C312434   3.158   4.886   5.095 -0.0890  0.7330 -0.6139
  808THF     H412435   3.183   5.212   5.080  1.3765  0.4459 -1.2785
  808THF     H512436   3.300   5.102   5.024  0.1112 -0.4161 -2.4936
  808THF     H612437   3.092   4.796   5.080 -0.8989 -1.2039  2.3741
  808THF     H712438   3.247   4.871   5.036  0.0172  2.0359  0.6933
  808THF     C812439   3.209   4.907   5.237 -0.9529 -0.0870 -0.1311
  808THF     C912440   3.238   5.059   5.243 -0.0012  0.6374 -0.1273
  808THF    H1012441   3.304   4.854   5.242  0.4190 -0.2229 -0.0842
  808THF    H1112442   3.149   4.868   5.316  0.1055 -2.5339 -1.8753
  808THF    H1212443   3.184   5.101   5.320 -0.1501 -4.2513 -0.0100
  808THF    H1312444   3.339   5.073   5.273  0.3443 -0.9501  0.7970
  809THF     O112445   1.553   3.268   4.050 -0.7399  0.1175 -0.6588
  809THF     C212446   1.481   3.186   4.140  0.4074 -0.0506  0.7073
  809THF     C312447   1.464   3.341   3.966 -0.3535  0.2073 -0.6210
  809THF     H412448   1.530   3.158   4.230  0.2668  1.9315 -1.4665
  809THF     H512449   1.475   3.089   4.084  3.1439  0.7598  3.0927
  809THF     H612450   1.503   3.430   3.909 -0.0614  3.8848 -2.9854
  809THF     H712451   1.411   3.269   3.897 -1.1925  1.3301 -1.7940
  809THF     C812452   1.366   3.392   4.076 -0.1992 -0.0538 -0.3021
  809THF     C912453   1.354   3.273   4.170  0.0976 -0.3966 -0.2642
  809THF    H1012454   1.268   3.414   4.041 -0.0895  0.7606  2.9424
  809THF    H1112455   1.418   3.468   4.131 -2.8690 -2.8113  1.6263
  809THF    H1212456   1.355   3.301   4.276  0.4862  2.5182 -1.1902
  809THF    H1312457   1.270   3.214   4.140  0.2506  2.9168 -0.6477
  810THF     O112458   4.138   4.219   1.333  0.0035  0.4839  0.2959
  810THF     C212459   4.136   4.275   1.462  0.0600  0.0191  0.5858
  810THF     C312460   4.061   4.305   1.253  0.1538 -0.8508  0.6789
  810THF     H412461   4.201   4.364   1.461 -1.7302 -0.7491 -0.5284
  810THF     H512462   4.175   4.215   1.542  0.4178 -0.0059  1.3543
  810THF     H612463   4.114   4.396   1.229 -2.1003 -1.8092 -0.8169
  810THF     H712464   4.043   4.270   1.152  1.2593  0.3471 -0.5333
  810THF     C812465   3.938   4.338   1.336  0.2064 -0.4788 -0.1246
  810THF     C912466   3.986   4.319   1.481  0.3035 -0.4587  0.5003
  810THF    H1012467   3.852   4.270   1.324  1.3309  0.6806  3.6259
  810THF    H1112468   3.909   4.445   1.324 -4.2997 -0.0372 -0.6279
  810THF    H1212469   3.976   4.401   1.555 -3.2311 -1.2931  0.2611
  810THF    H1312470   3.929   4.239   1.528 -0.6001  0.4594  2.3394
  811THF     O112471   0.950   1.252   3.004 -0.0088  0.2479 -0.5351
  811THF     C212472   0.892   1.125   3.027  0.5794 -0.6449 -0.3636
  811THF     C312473   0.903   1.305   2.879 -0.3346 -1.0777 -0.0374
  811THF     H412474   0.877   1.117   3.133  3.4872  0.5006  1.1324
  811THF     H512475   0.946   1.042   2.994 -0.9707 -0.3896  1.2146
  811THF     H612476   0.910   1.421   2.877  0.2321 -0.8152 -0.7705
  811THF     H712477   0.945   1.253   2.793  0.7821  3.0190 -1.3916
  811THF     C812478   0.758   1.268   2.885 -0.4610 -0.0178  0.0536
  811THF     C912479   0.757   1.126   2.954  0.0189  0.2900  0.2788
  811THF    H1012480   0.720   1.254   2.788 -0.0838 -0.7653  0.3195
  811THF    H1112481   0.694   1.344   2.931  0.7237 -0.8574 -0.5900
  811THF    H1212482   0.684   1.126   3.030  1.8726  0.8427 -0.5067
  811THF    H1312483   0.740   1.041   2.887 -0.6461  2.9700 -2.2489
  812THF     O112484   3.216   4.944   2.977 -0.5064 -0.0928  0.2724
  812THF     C212485   3.256   4.931   3.117 -0.8331 -0.4340  0.1045
  812THF     C312486   3.331   4.924   2.900  1.0369 -0.5235  0.5860
  812THF     H412487   3.168   4.899   3.173 -0.8971  1.9989  0.4264
  812THF     H512488   3.290   5.024   3.163 -0.3673 -1.7306 -2.0554
  812THF     H612489   3.305   4.894   2.796  0.1353 -0.0897  2.6309
  812THF     H712490   3.389   5.019   2.891  0.3903  0.2708  0.8651
  812THF     C812491   3.408   4.815   2.972  0.5834  0.1780 -0.0253
  812THF     C912492   3.365   4.826   3.117 -0.5301  0.0498  0.0408
  812THF    H1012493   3.518   4.827   2.962 -0.9596  1.3073  0.5690
  812THF    H1112494   3.384   4.719   2.929 -1.2844  1.2156  0.1393
  812THF    H1212495   3.325   4.725   3.131  1.6323  0.4436 -2.7541
  812THF    H1312496   3.450   4.852   3.174  1.0010 -0.2069 -0.2928
  813THF     O112497   0.779   5.221   3.868  0.9965  0.0041 -0.8366
  813THF     C212498   0.770   5.162   3.743  0.3873  0.0031  0.0049
  813THF     C312499   0.842   5.124   3.953  0.6430 -0.1950  0.3886
  813THF     H412500   0.817   5.229   3.674 -3.3294  0.0479 -0.9446
  813THF     H512501   0.665   5.152   3.704  0.4026  0.2789 -1.4371
  813THF     H612502   0.887   5.161   4.042  0.2288 -0.5702  3.1347
  813THF     H712503   0.761   5.071   3.996 -3.0049  0.1289 -0.9195
  813THF     C812504   0.926   5.038   3.864  0.1084 -0.0206 -0.3141
  813THF     C912505   0.833   5.022   3.747  0.5471  0.2189  0.3027
  813THF    H1012506   0.946   4.939   3.912  0.9349 -2.1870  0.2934
  813THF    H1112507   1.018   5.095   3.835  0.1787 -2.3549 -0.9581
  813THF    H1212508   0.870   4.984   3.653 -2.8995  2.8465 -0.3120
  813THF    H1312509   0.751   4.956   3.779 -0.6729  2.6683 -1.8883
  814THF     O112510   3.446   4.981   3.922  0.3038 -0.3168  0.0971
  814THF     C212511   3.320   5.043   3.968  0.7805  0.4037  0.6691
  814THF     C312512   3.434   4.834   3.922  0.5069 -0.8450  0.0537
  814THF     H412513   3.281   5.118   3.900  1.4081  0.4057  1.6548
  814THF     H512514   3.341   5.085   4.066 -1.7312  0.2898  0.3948
  814THF     H612515   3.429   4.790   3.819  0.9516 -2.6012 -1.7346
  814THF     H712516   3.518   4.794   3.965  1.1208 -0.8517 -0.2339
  814THF     C812517   3.306   4.805   4.004 -0.1545  0.4003 -0.6815
  814THF     C912518   3.220   4.936   3.976 -0.2252  0.6325 -0.8109
  814THF    H1012519   3.326   4.800   4.115 -2.1650 -1.9272  1.0364
  814THF    H1112520   3.252   4.708   3.976 -1.0506  1.2119  4.1166
  814THF    H1212521   3.147   4.925   3.892 -1.2799  1.9193  2.7630
  814THF    H1312522   3.160   4.941   4.069 -0.7207 -3.4362 -0.9803
  815THF     O112523   2.047   1.110   5.028  0.8009  0.1676 -0.1190
  815THF     C212524   1.909   1.094   5.017 -0.1475  0.7571  0.2760
  815THF     C312525   2.080   1.120   5.163  0.2239  0.4543  0.0909
  815THF     H412526   1.882   1.045   4.925 -2.3632 -1.6148  1.8892
  815THF     H512527   1.851   1.185   5.038 -0.8991  2.1234  1.0313
  815THF     H612528   2.184   1.097   5.173 -0.7800  3.6070 -1.4404
  815THF     H712529   2.058   1.218   5.202  0.9449  0.0747  0.3868
  815THF     C812530   2.000   1.010   5.226 -0.6732  0.0812 -0.1206
  815THF     C912531   1.884   0.998   5.135  0.3680 -0.9263  0.3107
  815THF    H1012532   1.972   1.037   5.327  0.3505 -1.3074 -0.9371
  815THF    H1112533   2.057   0.915   5.236  2.2763  0.8156 -2.3595
  815THF    H1212534   1.893   0.894   5.097  2.7648  1.5242  1.6113
  815THF    H1312535   1.788   0.997   5.174  2.8086  0.8339 -0.9230
  816THF     O112536   0.431   1.176   3.858  0.2163  0.2412  0.3720
  816THF     C212537   0.380   1.303   3.882  0.0387  0.0559  0.3513
  816THF     C312538   0.541   1.163   3.946  0.8592  0.4084 -0.2019
  816THF     H412539   0.316   1.303   3.970  1.2235 -2.1096  4.4915
  816THF     H512540   0.325   1.331   3.791 -2.6074  1.8215 -2.2040
  816THF     H612541   0.521   1.162   4.052  0.5653  1.3101  1.1309
  816THF     H712542   0.583   1.066   3.917  0.2062 -1.7633  2.1423
  816THF     C812543   0.616   1.291   3.905 -0.4821  0.0111 -0.1492
  816THF     C912544   0.506   1.392   3.886  0.2069 -0.1193 -0.0539
  816THF    H1012545   0.674   1.280   3.813  0.2649 -1.2094 -0.5544
  816THF    H1112546   0.691   1.317   3.981 -1.8406 -0.8879  1.0326
  816THF    H1212547   0.506   1.471   3.959 -2.7852  0.4667  1.8394
  816THF    H1312548   0.522   1.438   3.790 -1.6893 -0.9029 -0.7094
  817THF     O112549   2.097   4.594   0.309 -0.2459 -0.3773 -0.1839
  817THF     C212550   2.200   4.501   0.283  0.3600 -0.8319  0.1165
  817THF     C312551   2.132   4.685   0.414 -0.3301  0.1969  0.9809
  817THF     H412552   2.203   4.492   0.174 -2.7939 -3.4598  0.4803
  817THF     H512553   2.177   4.409   0.333 -2.2936 -1.0708 -3.1650
  817THF     H612554   2.077   4.774   0.408 -0.7388 -1.0255 -1.1059
  817THF     H712555   2.116   4.637   0.509 -0.5865  1.1312 -0.0270
  817THF     C812556   2.278   4.705   0.390  0.1388  0.1291 -0.2873
  817THF     C912557   2.322   4.566   0.341  0.7557  0.5071 -0.5755
  817THF    H1012558   2.331   4.726   0.478 -0.1194  1.9118 -0.9509
  817THF    H1112559   2.299   4.782   0.313 -2.9896  0.6325 -0.0727
  817THF    H1212560   2.405   4.574   0.270 -0.4927  0.2388  1.0869
  817THF    H1312561   2.355   4.512   0.423  0.7369  2.2072  0.5635
  818THF     O112562   3.023   4.447   2.508 -0.6656 -0.0209 -0.3412
  818THF     C212563   3.020   4.301   2.527 -0.2259 -0.6280 -0.2178
  818THF     C312564   3.065   4.475   2.373  0.2140  0.0833  0.6020
  818THF     H412565   2.939   4.258   2.474 -2.2272  1.1137 -1.0008
  818THF     H512566   3.024   4.260   2.631  1.7521 -2.4396 -2.2595
  818THF     H612567   2.987   4.500   2.307  2.9544  1.3392  1.3079
  818THF     H712568   3.128   4.564   2.375 -2.3339 -0.2091 -0.0611
  818THF     C812569   3.128   4.348   2.313 -0.0913 -1.0328  0.8927
  818THF     C912570   3.141   4.256   2.438 -0.1087  0.1370 -0.0382
  818THF    H1012571   3.228   4.381   2.260 -1.0819 -1.6770 -0.8349
  818THF    H1112572   3.068   4.304   2.234  0.3503  0.0893 -1.6226
  818THF    H1212573   3.145   4.144   2.409  3.1192  1.4710 -0.1085
  818THF    H1312574   3.232   4.279   2.484  1.8552 -0.2234 -0.2346
  819THF     O112575   3.423   0.574   3.704  0.7519  0.5022 -0.0036
  819THF     C212576   3.462   0.682   3.622  0.9844  0.5273 -0.2273
  819THF     C312577   3.497   0.574   3.829  0.5483  0.0668 -0.4223
  819THF     H412578   3.427   0.773   3.667  2.4119 -1.5321 -0.8784
  819THF     H512579   3.433   0.679   3.523  1.2235  2.1175  2.6962
  819THF     H612580   3.461   0.650   3.906 -1.0404  1.3313  2.4434
  819THF     H712581   3.477   0.470   3.861  1.3717 -2.2407  2.4872
  819THF     C812582   3.637   0.616   3.779 -0.3548  0.0954  0.0618
  819THF     C912583   3.614   0.678   3.639 -0.1512  0.1835  0.7464
  819THF    H1012584   3.706   0.535   3.776  1.8170 -1.0615  0.1594
  819THF    H1112585   3.677   0.699   3.843  1.7847  0.7354  3.2459
  819THF    H1212586   3.668   0.774   3.644  1.5457  0.2671  2.8103
  819THF    H1312587   3.678   0.619   3.572  0.3694  2.9575 -1.2162
  820THF     O112588   1.293   2.866   1.703  0.2126 -0.2362  0.3286
  820THF     C212589   1.352   2.851   1.571 -0.1209 -0.0652 -0.5631
  820THF     C312590   1.325   2.751   1.780 -0.0110  0.3548  0.3505
  820THF     H412591   1.451   2.891   1.591 -1.3579  0.8498  2.0065
  820THF     H512592   1.292   2.908   1.506 -2.0844 -2.4928  0.6626
  820THF     H612593   1.405   2.782   1.852 -0.6588 -0.6087  0.1215
  820THF     H712594   1.242   2.723   1.845 -0.2038  1.2184  1.0316
  820THF     C812595   1.363   2.642   1.688 -0.0103  0.0450 -0.3178
  820THF     C912596   1.356   2.700   1.550 -1.2328  0.1457 -0.0313
  820THF    H1012597   1.280   2.560   1.698  1.9896  2.4803 -0.7713
  820THF    H1112598   1.463   2.604   1.705  0.2671  2.3733 -3.7823
  820THF    H1212599   1.427   2.658   1.474 -0.1559 -1.3060 -1.0464
  820THF    H1312600   1.253   2.691   1.514  0.8942  1.6524 -0.0443
  821THF     O112601   1.048   0.212   2.801 -0.0747  0.2396  0.2489
  821THF     C212602   0.975   0.320   2.852  0.2071 -0.3231  0.3624
  821THF     C312603   1.002   0.174   2.673 -0.5002  0.2648  0.1944
  821THF     H412604   1.023   0.414   2.829  5.3766  0.3150  1.6097
  821THF     H512605   0.950   0.311   2.957 -0.3002 -1.1674  0.5270
  821THF     H612606   1.031   0.228   2.585  0.1293 -2.6763 -2.8702
  821THF     H712607   1.032   0.068   2.653  3.2212 -0.8376 -0.4882
  821THF     C812608   0.852   0.183   2.698 -0.1738 -0.5379 -0.0266
  821THF     C912609   0.845   0.303   2.781  0.0753 -0.0390  0.4349
  821THF    H1012610   0.801   0.103   2.744  1.1661 -0.5718  0.3659
  821THF    H1112611   0.791   0.203   2.611 -4.5378  1.3517 -0.9082
  821THF    H1212612   0.847   0.393   2.713 -0.4295  0.8616  1.9133
  821THF    H1312613   0.754   0.300   2.842 -0.1002 -2.1148 -1.3751
  822THF     O112614   0.053   5.181   0.327  0.6370  0.3657 -0.0544
  822THF     C212615  -0.025   5.170   0.446 -0.4520 -0.0240 -0.0759
  822THF     C312616  -0.008   5.098   0.229  0.0883  0.4007  0.3456
  822THF     H412617  -0.101   5.250   0.440 -2.3855  1.3555 -2.1196
  822THF     H512618   0.025   5.194   0.536 -0.0256 -1.1531  0.5273
  822THF     H612619  -0.102   5.151   0.197 -2.7392  0.1598  0.8976
  822THF     H712620   0.055   5.090   0.142  1.9219  1.2921  1.8893
  822THF     C812621  -0.046   4.971   0.303  0.4452  0.3347 -0.4271
  822THF     C912622  -0.071   5.017   0.447 -0.7239 -0.0768  0.0955
  822THF    H1012623   0.040   4.910   0.297 -0.5970  1.1607 -3.3782
  822THF    H1112624  -0.133   4.920   0.270  1.9946  1.4695 -1.5428
  822THF    H1212625  -0.171   5.001   0.481 -0.6129  0.8644 -0.7443
  822THF    H1312626   0.002   4.964   0.515  1.2523  0.6031  3.4939
  823THF     O112627   3.737   1.493   5.444  0.5164  0.4583  0.0627
  823THF     C212628   3.727   1.567   5.566  0.4980  0.5852 -0.4644
  823THF     C312629   3.879   1.480   5.427  0.2334 -0.0462 -0.5943
  823THF     H412630   3.743   1.501   5.654 -0.0144 -1.0829  1.0579
  823THF     H512631   3.621   1.608   5.576 -1.7171 -3.6195  1.3502
  823THF     H612632   3.921   1.410   5.500 -0.5760 -0.5301  2.4062
  823THF     H712633   3.903   1.456   5.327  0.2441  1.5491  3.3012
  823THF     C812634   3.931   1.619   5.459 -0.3513 -0.0516 -0.4249
  823THF     C912635   3.823   1.681   5.546 -0.1292  0.1479  0.3015
  823THF    H1012636   3.936   1.672   5.364  0.9226 -1.6095  2.0047
  823THF    H1112637   4.028   1.621   5.513 -0.8073  0.3591  2.8089
  823THF    H1212638   3.860   1.718   5.636  0.0739  2.9712  1.3463
  823THF    H1312639   3.777   1.762   5.493 -0.4880  2.5381 -0.1002
  824THF     O112640   1.161   2.492   0.372 -0.0209 -0.1603 -0.4253
  824THF     C212641   1.295   2.521   0.325 -0.6827 -0.1836 -0.5185
  824THF     C312642   1.153   2.347   0.351 -0.2943 -0.4057  0.1887
  824THF     H412643   1.376   2.495   0.397 -0.2506  0.0839  1.5700
  824THF     H512644   1.320   2.624   0.323  0.9420 -1.9734 -1.3079
  824THF     H612645   1.222   2.290   0.418 -3.6168 -3.3895  1.7882
  824THF     H712646   1.047   2.316   0.366 -1.5005 -0.3417 -0.7316
  824THF     C812647   1.205   2.330   0.209 -0.1694  0.4615  0.6220
  824THF     C912648   1.311   2.441   0.195 -0.1905  0.3852  0.8441
  824THF    H1012649   1.125   2.352   0.144 -2.1278  0.8665  0.1468
  824THF    H1112650   1.246   2.233   0.185 -1.1077 -2.7424  0.1170
  824THF    H1212651   1.409   2.405   0.183 -1.1059  2.6144  0.1477
  824THF    H1312652   1.295   2.515   0.115 -0.7645  0.1535  1.2641
  825THF     O112653   0.904   1.779   2.340 -0.2662  0.9621 -0.0063
  825THF     C212654   0.995   1.802   2.233  0.0920  0.0181  0.4170
  825THF     C312655   0.788   1.713   2.290  0.2242 -0.0907 -0.5497
  825THF     H412656   1.089   1.833   2.272 -2.3696 -0.2260  0.5351
  825THF     H512657   0.951   1.880   2.172 -0.7569  0.2115  1.0747
  825THF     H612658   0.749   1.654   2.369  0.4592  0.6570  0.4562
  825THF     H712659   0.709   1.781   2.255 -0.3658  0.2507  0.4180
  825THF     C812660   0.842   1.628   2.172  0.3332 -0.6088  0.2604
  825THF     C912661   0.995   1.664   2.171  0.2166  0.0666 -0.0641
  825THF    H1012662   0.788   1.653   2.076 -0.9068  1.9978 -0.1778
  825THF    H1112663   0.831   1.526   2.201  0.5824  1.8937  1.8428
  825THF    H1212664   1.054   1.599   2.241  0.2308 -1.9553  5.8216
  825THF    H1312665   1.038   1.662   2.072  0.8032 -2.1930  0.9088
  826THF     O112666   2.124   4.251   3.438 -0.3261  0.2261  0.3488
  826THF     C212667   1.998   4.300   3.391  0.3038  0.2264 -0.1755
  826THF     C312668   2.124   4.224   3.583  0.1680  0.2395  0.9449
  826THF     H412669   1.950   4.229   3.327  1.7102  3.4536  0.6267
  826THF     H512670   2.019   4.389   3.324  1.5148 -2.1291 -2.0997
  826THF     H612671   2.140   4.117   3.598  0.1725 -0.3286 -0.8146
  826THF     H712672   2.204   4.295   3.624  0.8413 -0.1161 -3.4907
  826THF     C812673   1.992   4.266   3.627 -0.4927 -0.0969 -0.3128
  826THF     C912674   1.920   4.335   3.519  0.6443  0.4357 -0.6802
  826THF    H1012675   2.002   4.319   3.720  0.0015  0.3632 -0.4264
  826THF    H1112676   1.932   4.178   3.664  0.9513 -2.8514 -0.5158
  826THF    H1212677   1.813   4.306   3.518 -1.4947  0.9743  0.9607
  826THF    H1312678   1.938   4.440   3.530  2.4288 -3.3251 -1.0234
  827THF     O112679   0.438   0.526   2.790  0.2232 -0.4815  0.8610
  827THF     C212680   0.571   0.569   2.770  0.2465 -0.3526 -0.2228
  827THF     C312681   0.360   0.538   2.674  0.4799 -0.2753  0.1031
  827THF     H412682   0.634   0.543   2.853 -2.1372 -0.8101 -1.6763
  827THF     H512683   0.576   0.673   2.748 -0.6423 -1.0703 -2.2051
  827THF     H612684   0.270   0.483   2.670  2.2619  1.9259 -1.0073
  827THF     H712685   0.341   0.642   2.652  2.0244  1.6640 -1.5183
  827THF     C812686   0.464   0.507   2.567 -0.1427 -0.2919  1.1377
  827THF     C912687   0.595   0.490   2.638 -0.0125  0.0431 -0.7021
  827THF    H1012688   0.469   0.600   2.504  0.3124  2.3491  2.0843
  827THF    H1112689   0.432   0.431   2.491  2.3755 -0.2457  1.7632
  827THF    H1212690   0.616   0.384   2.663  2.6022 -3.3662 -0.2999
  827THF    H1312691   0.686   0.530   2.583  0.9170 -1.8722  0.0539
  828THF     O112692   3.905   3.967   4.119  0.5390  0.0376 -0.4136
  828THF     C212693   3.945   4.098   4.066  0.0689 -0.1934 -0.5715
  828THF     C312694   3.799   3.986   4.206 -0.2763 -0.3870  0.9205
  828THF     H412695   3.875   4.134   3.990  2.9299 -0.8129 -2.4611
  828THF     H512696   4.046   4.094   4.021 -0.4913  0.6660 -0.5954
  828THF     H612697   3.708   4.010   4.157  1.8021  0.8524  3.2338
  828THF     H712698   3.786   3.898   4.270 -0.2582 -0.8975 -1.4114
  828THF     C812699   3.856   4.101   4.290  0.2085 -0.0724  0.5823
  828THF     C912700   3.930   4.194   4.192  0.2264  0.3303  0.1280
  828THF    H1012701   3.924   4.062   4.363 -0.9501  1.4092 -1.4966
  828THF    H1112702   3.772   4.144   4.345  0.9065 -0.1555 -1.0046
  828THF    H1212703   3.863   4.281   4.169 -0.6545  2.0104 -0.3135
  828THF    H1312704   4.024   4.219   4.230 -1.9621 -0.4432 -0.3257
  829THF     O112705   1.375   2.959   0.524  0.2798 -0.1927  0.1559
  829THF     C212706   1.247   2.910   0.550 -0.9366 -0.5597 -0.3533
  829THF     C312707   1.440   2.999   0.648  1.1395  1.1321 -0.0359
  829THF     H412708   1.219   2.836   0.470  2.1424  2.3929  0.0306
  829THF     H512709   1.182   3.002   0.543 -0.7619  3.2548 -4.3706
  829THF     H612710   1.551   2.981   0.644  0.2159 -0.4675  0.8555
  829THF     H712711   1.436   3.107   0.648  0.8937 -0.5858 -0.7187
  829THF     C812712   1.372   2.921   0.764 -0.3048  0.4600  0.4528
  829THF     C912713   1.262   2.843   0.689  0.3704 -0.4759  0.3032
  829THF    H1012714   1.327   3.000   0.824 -1.3027 -1.0973 -0.0584
  829THF    H1112715   1.445   2.864   0.827  2.2570  0.0323 -0.5927
  829THF    H1212716   1.307   2.744   0.672  1.3931 -2.0332 -0.5382
  829THF    H1312717   1.176   2.839   0.752  1.2803  0.4988  1.5677
  830THF     O112718   4.923   2.001   4.988 -0.3099  0.2888 -0.2160
  830THF     C212719   4.974   1.987   5.114  0.5831  0.1939 -0.4796
  830THF     C312720   4.943   2.133   4.955 -0.3887  0.5443  0.3548
  830THF     H412721   4.994   1.878   5.129 -1.4325 -0.5810  0.0100
  830THF     H512722   4.887   1.996   5.181 -0.6678  0.5470 -1.5722
  830THF     H612723   4.997   2.145   4.864  0.1756  0.7484  2.6629
  830THF     H712724   4.848   2.190   4.956 -1.0274 -1.4541  0.9056
  830THF     C812725   5.032   2.203   5.055  0.4715  0.4968 -0.7643
  830THF     C912726   5.089   2.085   5.135  0.2462 -0.3669  0.4483
  830THF    H1012727   4.981   2.272   5.125 -1.3430  0.9347 -1.3349
  830THF    H1112728   5.108   2.260   5.006 -2.2359 -1.6290  1.5596
  830THF    H1212729   5.167   2.040   5.083 -0.8782  1.5727  1.2561
  830THF    H1312730   5.118   2.103   5.238  1.0272 -1.8282 -1.6025
  831THF     O112731   1.578   5.443   3.351  0.1051 -0.0083  0.2005
  831THF     C212732   1.702   5.373   3.374  0.1826 -0.3680 -0.0335
  831THF     C312733   1.559   5.481   3.216  0.1788 -0.0542  0.4729
  831THF     H412734   1.687   5.279   3.404 -0.3837  2.5813  0.3150
  831THF     H512735   1.761   5.427   3.449 -0.5168 -0.3677 -0.5343
  831THF     H612736   1.515   5.400   3.163  0.6628  2.8324 -0.0186
  831THF     H712737   1.494   5.573   3.205  1.2172  0.5529 -0.4712
  831THF     C812738   1.711   5.499   3.174 -0.5259  0.0065  0.4588
  831THF     C912739   1.782   5.384   3.242 -0.3378 -0.1580 -0.4545
  831THF    H1012740   1.751   5.596   3.210 -0.7447  1.0363 -1.3490
  831THF    H1112741   1.726   5.495   3.068 -0.4906  1.2015 -2.0959
  831THF    H1212742   1.764   5.294   3.187  0.3294  0.9780 -0.4837
  831THF    H1312743   1.887   5.404   3.257  1.9087  0.3253 -0.8757
  832THF     O112744   0.396   0.694   4.184 -0.2033 -0.4288  0.2593
  832THF     C212745   0.365   0.830   4.222 -0.0766 -0.6294  0.0927
  832THF     C312746   0.306   0.657   4.078 -0.3775  0.3984  0.2275
  832THF     H412747   0.436   0.867   4.291 -2.9034 -1.7528  2.1216
  832THF     H512748   0.287   0.812   4.299 -0.9335 -0.2409 -2.6374
  832THF     H612749   0.329   0.558   4.036 -2.5578 -1.8779 -0.8524
  832THF     H712750   0.205   0.639   4.115  0.1413 -0.9639  3.8377
  832THF     C812751   0.312   0.780   3.993 -0.1186  0.1252  0.5922
  832THF     C912752   0.328   0.894   4.097  0.3155 -0.7231 -0.0758
  832THF    H1012753   0.221   0.793   3.940  1.5673  0.9195 -2.4642
  832THF    H1112754   0.391   0.787   3.915 -0.0163  1.2687  0.0925
  832THF    H1212755   0.412   0.953   4.067 -0.4266 -2.7725 -0.3790
  832THF    H1312756   0.243   0.965   4.108 -1.0761  2.8323 -1.7078
  833THF     O112757   2.508   0.181   4.275  0.0946  0.0699  0.1645
  833THF     C212758   2.532   0.309   4.335 -0.1016  0.3692  0.0556
  833THF     C312759   2.605   0.159   4.174  0.4710 -0.3317 -0.3261
  833THF     H412760   2.615   0.298   4.409 -0.1973  1.0827 -1.5683
  833THF     H512761   2.452   0.356   4.392 -3.9606 -1.0343 -0.1919
  833THF     H612762   2.697   0.130   4.214 -0.7220 -1.7371 -2.4178
  833THF     H712763   2.569   0.089   4.102  0.2097 -0.2183 -0.3694
  833THF     C812764   2.607   0.292   4.108  0.3919 -0.2680 -0.3869
  833THF     C912765   2.578   0.397   4.215 -0.0420 -0.3327 -0.3523
  833THF    H1012766   2.515   0.293   4.043 -0.3566  1.4621  0.3282
  833THF    H1112767   2.694   0.310   4.053 -3.0168 -1.4657 -1.8988
  833THF    H1212768   2.662   0.464   4.239 -2.5309  0.0644 -0.2006
  833THF    H1312769   2.499   0.462   4.175 -0.7843  1.6648 -1.4639
  834THF     O112770   3.618   4.748   3.619  0.1023 -0.3149  0.7082
  834THF     C212771   3.564   4.800   3.491  0.4616  0.4316  0.0944
  834THF     C312772   3.574   4.609   3.635  0.9909 -0.5779  0.5635
  834THF     H412773   3.622   4.758   3.403  1.4212  0.0548  0.7666
  834THF     H512774   3.568   4.907   3.476 -1.5007 -2.9490 -1.3147
  834THF     H612775   3.620   4.547   3.557 -1.5166  0.0941  2.1592
  834THF     H712776   3.581   4.553   3.728  3.7298 -1.9488 -1.6266
  834THF     C812777   3.425   4.618   3.588 -0.9063  0.3594 -0.9295
  834THF     C912778   3.420   4.746   3.496  0.2198  0.8548 -0.3244
  834THF    H1012779   3.360   4.627   3.678 -0.9027  2.0091 -1.0992
  834THF    H1112780   3.389   4.528   3.539 -0.4305  2.1380  3.2700
  834THF    H1212781   3.387   4.741   3.392 -0.3754 -0.3357 -2.4071
  834THF    H1312782   3.360   4.817   3.550 -1.2630  0.2321  0.2148
  835THF     O112783   2.000   3.906   0.976  0.0309  0.0417 -0.1150
  835THF     C212784   2.136   3.877   0.959  0.6910  0.5592 -0.2111
  835THF     C312785   1.972   3.903   1.112 -0.0819 -0.4154 -0.0477
  835THF     H412786   2.182   3.916   0.864  0.1250  1.9795 -1.7915
  835THF     H512787   2.163   3.778   0.959 -0.0993  1.3047 -2.4421
  835THF     H612788   1.870   3.930   1.139 -1.2451 -1.5361  1.6429
  835THF     H712789   1.970   3.804   1.163 -0.3046  0.6290 -1.7498
  835THF     C812790   2.087   3.999   1.155  0.6207 -0.3311 -0.4291
  835THF     C912791   2.207   3.940   1.084 -0.0336  0.0788  0.3767
  835THF    H1012792   2.102   4.010   1.260  0.3551 -0.4026 -0.6074
  835THF    H1112793   2.068   4.099   1.114  0.0496  0.5551 -0.4001
  835THF    H1212794   2.264   4.033   1.054 -2.4643  1.2019 -0.3182
  835THF    H1312795   2.261   3.872   1.154  0.1641  2.6650 -0.6829
  836THF     O112796   0.369   4.275   0.738 -0.3131 -0.1063  0.4065
  836THF     C212797   0.494   4.354   0.742  0.4832 -0.2721 -0.3226
  836THF     C312798   0.305   4.301   0.857 -0.5741  0.1637  0.2554
  836THF     H412799   0.537   4.359   0.646  1.0351 -1.4236 -0.1787
  836THF     H512800   0.562   4.295   0.806  1.3645  1.7937  0.4453
  836THF     H612801   0.200   4.277   0.848  1.7329 -1.5819  0.4041
  836THF     H712802   0.349   4.235   0.935 -0.6409  0.9548 -0.2766
  836THF     C812803   0.327   4.451   0.881 -0.3086  0.0757 -0.8528
  836THF     C912804   0.442   4.491   0.797  0.3754 -0.1266 -0.3424
  836THF    H1012805   0.346   4.451   0.988  0.6463  0.2791 -0.9101
  836THF    H1112806   0.236   4.501   0.852  0.9309 -1.5242 -0.2413
  836THF    H1212807   0.415   4.560   0.720  1.6636  0.3933 -0.2303
  836THF    H1312808   0.528   4.534   0.851 -0.6998  1.3993 -1.0066
  837THF     O112809   2.269   4.093   5.411 -1.0672 -0.3016  0.4982
  837THF     C212810   2.367   3.992   5.438  0.4201 -0.5734  0.1731
  837THF     C312811   2.186   4.036   5.315  0.6027 -0.2947  0.1740
  837THF     H412812   2.340   3.920   5.519  0.2730  1.3801  1.4321
  837THF     H512813   2.468   4.036   5.463  1.2966  1.4456 -0.1658
  837THF     H612814   2.134   3.951   5.366 -0.3516 -2.0453  2.4743
  837THF     H712815   2.112   4.106   5.269 -0.2990 -0.1324 -0.6921
  837THF     C812816   2.285   3.989   5.213  0.4838 -0.0133  0.4204
  837THF     C912817   2.380   3.916   5.303  0.1618 -0.0010 -0.1634
  837THF    H1012818   2.337   4.068   5.162  0.6722 -1.8802 -0.9440
  837THF    H1112819   2.235   3.926   5.138 -1.3651 -0.9256 -0.3319
  837THF    H1212820   2.329   3.811   5.320  0.4485 -0.8535  4.6473
  837THF    H1312821   2.483   3.907   5.255  2.0393  1.0921 -0.6849
  838THF     O112822   0.277   4.873   0.513  0.2117 -0.1587 -0.4721
  838THF     C212823   0.287   5.014   0.509  0.1367 -0.3902  0.4407
  838THF     C312824   0.359   4.831   0.628  0.0758  0.3147  0.5568
  838THF     H412825   0.198   5.051   0.562 -1.7762  0.5211 -0.5351
  838THF     H512826   0.267   5.052   0.407 -0.8620  1.1804 -2.4665
  838THF     H612827   0.287   4.836   0.717 -2.9644 -0.2283  2.1839
  838THF     H712828   0.396   4.730   0.604  3.4443  0.0458 -1.0524
  838THF     C812829   0.474   4.936   0.641 -0.3341 -0.3597 -0.0837
  838THF     C912830   0.418   5.062   0.570 -0.1395  0.8094  0.1696
  838THF    H1012831   0.566   4.901   0.604 -0.0674  3.0866 -0.3330
  838THF    H1112832   0.495   4.950   0.746 -0.2285  0.6948  0.8531
  838THF    H1212833   0.400   5.143   0.641 -0.5273  2.0259  2.1764
  838THF    H1312834   0.473   5.101   0.485 -1.0976 -0.1173 -1.6067
  839THF     O112835   0.952   5.037   2.421 -0.1192 -0.1279  0.3645
  839THF     C212836   1.013   4.929   2.355  0.0365  0.2011 -0.0122
  839THF     C312837   1.031   5.069   2.527 -0.7770  0.6200  0.1433
  839THF     H412838   0.992   4.925   2.246 -1.8291 -0.0397 -1.6853
  839THF     H512839   0.969   4.846   2.393 -0.5367  0.4470  1.9210
  839THF     H612840   1.007   5.167   2.564  2.2603 -0.6598 -1.2411
  839THF     H712841   1.005   4.991   2.602  0.5630  1.4957  1.9518
  839THF     C812842   1.168   5.051   2.484 -0.2158 -0.4732  0.3731
  839THF     C912843   1.155   4.920   2.400 -0.5768  0.6139 -0.5139
  839THF    H1012844   1.241   5.031   2.558  1.9155  0.1289 -2.6548
  839THF    H1112845   1.196   5.130   2.423 -1.6344 -2.6292  0.0186
  839THF    H1212846   1.229   4.923   2.322 -0.1165  1.7171  2.0236
  839THF    H1312847   1.170   4.833   2.467 -0.6440  0.3844  3.3363
  840THF     O112848   5.219   0.271   1.867  0.0896 -0.3919 -0.5767
  840THF     C212849   5.236   0.319   2.002  0.5089  0.5378 -0.5416
  840THF     C312850   5.294   0.354   1.777 -0.0415  0.2468  0.4276
  840THF     H412851   5.316   0.275   2.066 -0.9271 -0.1025 -1.3528
  840THF     H512852   5.139   0.309   2.052 -1.1719  3.4228 -1.7996
  840THF     H612853   5.390   0.296   1.760  4.3571  1.0712  1.6188
  840THF     H712854   5.246   0.365   1.681  1.4295 -0.7671 -0.7496
  840THF     C812855   5.334   0.478   1.849 -0.4981 -0.3479 -0.1162
  840THF     C912856   5.258   0.466   1.985 -0.0498 -0.4911  0.5938
  840THF    H1012857   5.316   0.565   1.792  1.1334  0.2198  1.2112
  840THF    H1112858   5.441   0.462   1.880  0.3959  0.5717  1.5484
  840THF    H1212859   5.322   0.510   2.064  1.3504  0.6193 -0.0537
  840THF    H1312860   5.170   0.527   1.980 -0.8078 -2.7159 -0.1887
  841THF     O112861   4.213   3.879   1.454  0.3370  0.0701 -0.1117
  841THF     C212862   4.084   3.901   1.523  0.2162 -0.1012  0.0744
  841THF     C312863   4.260   3.760   1.506  0.0231 -0.2944 -0.7819
  841THF     H412864   4.004   3.832   1.486  1.9858 -2.1329 -0.5373
  841THF     H512865   4.050   4.003   1.511 -2.2601  1.6064  1.7373
  841THF     H612866   4.195   3.677   1.474 -0.1314 -1.6678 -1.1625
  841THF     H712867   4.362   3.734   1.481 -0.5148  1.0133  1.3121
  841THF     C812868   4.254   3.783   1.657  0.5268 -0.1062 -0.0677
  841THF     C912869   4.119   3.861   1.670 -0.8972  0.0594 -0.1390
  841THF    H1012870   4.343   3.842   1.681  2.4556  1.1726 -1.7866
  841THF    H1112871   4.257   3.693   1.720  1.4315  0.2352 -0.6897
  841THF    H1212872   4.039   3.803   1.712 -0.7932 -2.2482  1.3007
  841THF    H1312873   4.130   3.949   1.740 -2.5827 -0.4411  2.4441
  842THF     O112874   1.682   3.452   1.263  0.5796 -1.1426 -0.2689
  842THF     C212875   1.777   3.412   1.365  1.1430 -0.2856  0.3429
  842THF     C312876   1.610   3.560   1.317 -0.5828  0.2913 -0.0032
  842THF     H412877   1.865   3.481   1.370  0.6139 -2.3729  1.7426
  842THF     H512878   1.829   3.312   1.367  1.0678  0.2967  1.6931
  842THF     H612879   1.665   3.652   1.304 -1.8626 -0.3193  0.7832
  842THF     H712880   1.520   3.587   1.259 -3.8998  1.0973 -0.3774
  842THF     C812881   1.592   3.519   1.464  0.4614  0.2718  0.1032
  842THF     C912882   1.703   3.424   1.500 -0.3747 -0.0131  0.4671
  842THF    H1012883   1.495   3.471   1.481  0.1711  0.8144 -0.7722
  842THF    H1112884   1.599   3.602   1.528 -2.3200 -2.3432 -1.4263
  842THF    H1212885   1.765   3.467   1.577  0.5558  0.7150 -0.2075
  842THF    H1312886   1.669   3.326   1.538  2.0743  2.0014  2.5159
  843THF     O112887   2.311   1.897   0.337 -0.3895  0.1674 -0.0776
  843THF     C212888   2.260   1.928   0.469 -0.0349 -0.1712  0.3475
  843THF     C312889   2.206   1.895   0.245 -0.4307 -0.2058  0.0307
  843THF     H412890   2.294   2.028   0.493 -1.7369 -0.9427  0.8850
  843THF     H512891   2.304   1.863   0.547 -0.6568  0.4795  0.4238
  843THF     H612892   2.231   1.922   0.148  2.4733 -3.3354  2.5699
  843THF     H712893   2.173   1.788   0.233  1.8401 -0.2401  1.5429
  843THF     C812894   2.096   1.966   0.307 -0.0921  0.2975  0.9363
  843THF     C912895   2.104   1.934   0.455  0.2272 -0.3043  0.2324
  843THF    H1012896   2.006   1.929   0.253  2.1166 -0.8372  3.4757
  843THF    H1112897   2.104   2.074   0.279  1.1579  1.7984 -1.4635
  843THF    H1212898   2.053   2.004   0.526 -1.3209  0.6506  1.8352
  843THF    H1312899   2.062   1.827   0.472 -0.7250 -3.2294  2.4432
  844THF     O112900   1.103   1.714   4.718 -0.3420 -0.4020 -0.1430
  844THF     C212901   1.122   1.774   4.843 -0.1133  0.6416 -0.4984
  844THF     C312902   1.028   1.813   4.639  0.4272  0.0382  0.5032
  844THF     H412903   1.201   1.856   4.841  2.2059  1.0409  0.1348
  844THF     H512904   1.146   1.689   4.915  2.0183 -2.7265  3.0600
  844THF     H612905   1.094   1.884   4.594  0.1160  2.3316  0.0723
  844THF     H712906   0.975   1.767   4.549 -0.2547 -1.3007 -1.6626
  844THF     C812907   0.933   1.876   4.739  0.1922  0.1844 -0.4923
  844THF     C912908   0.986   1.843   4.876 -0.1793 -0.2838  0.2422
  844THF    H1012909   0.834   1.833   4.733 -0.0850  0.5255  0.7625
  844THF    H1112910   0.921   1.982   4.722 -0.1446  1.0634 -1.2456
  844THF    H1212911   1.005   1.933   4.936  0.4107  1.6504 -3.8175
  844THF    H1312912   0.912   1.783   4.925  0.0258  1.1722 -2.1945
  845THF     O112913   2.346   0.751   1.958  0.5382 -0.2086  0.1053
  845THF     C212914   2.376   0.779   2.091 -0.5839  0.0851  0.0746
  845THF     C312915   2.321   0.610   1.956  0.3531 -0.1453 -0.6117
  845THF     H412916   2.351   0.878   2.121  0.8852  3.3311 -3.8267
  845THF     H512917   2.487   0.770   2.093  2.0924 -1.6522  1.5810
  845THF     H612918   2.256   0.576   1.876  1.0935  1.7537 -0.5247
  845THF     H712919   2.408   0.555   1.935 -2.5873  0.1167 -1.8325
  845THF     C812920   2.267   0.571   2.091 -0.5865 -0.4141 -0.5707
  845THF     C912921   2.327   0.675   2.186  0.1616  0.4153 -0.3349
  845THF    H1012922   2.288   0.469   2.126  3.1502  1.8386  2.2931
  845THF    H1112923   2.160   0.595   2.092 -3.0193  0.5990 -0.7299
  845THF    H1212924   2.267   0.718   2.264  1.9259  1.3860 -0.9365
  845THF    H1312925   2.415   0.636   2.233 -0.7393 -1.3600 -2.2329
  846THF     O112926   2.629   2.255   4.179  0.1988 -0.2860  0.7052
  846THF     C212927   2.763   2.272   4.215  0.2263 -0.4658 -0.2900
  846THF     C312928   2.624   2.253   4.036 -0.3015  0.4594 -0.7707
  846THF     H412929   2.766   2.227   4.318  4.4610  2.5286  1.1126
  846THF     H512930   2.792   2.373   4.232  0.9365 -1.7630  1.2368
  846THF     H612931   2.524   2.215   4.005  2.2687 -1.4718  0.3293
  846THF     H712932   2.646   2.355   4.009  1.1246  0.0877  0.1062
  846THF     C812933   2.741   2.166   4.004 -0.7776 -0.3467 -0.4369
  846THF     C912934   2.843   2.199   4.109 -0.1665 -0.0773 -0.1100
  846THF    H1012935   2.772   2.170   3.904  0.4291  1.8419 -2.3088
  846THF    H1112936   2.711   2.061   4.022  1.6819 -1.8346 -2.1607
  846THF    H1212937   2.901   2.114   4.152 -1.8735 -3.4078 -1.0043
  846THF    H1312938   2.917   2.272   4.072  0.5253  0.0360 -0.4296
  847THF     O112939   0.944   0.218   0.940  0.6348 -0.1451 -0.1306
  847THF     C212940   0.801   0.256   0.940  0.2646  0.0498 -0.3259
  847THF     C312941   1.020   0.331   0.914 -0.1692  0.0156  0.3558
  847THF     H412942   0.741   0.277   1.030 -0.8857  2.6228  1.5354
  847THF     H512943   0.736   0.176   0.894  0.0226  3.4424  0.0035
  847THF     H612944   1.015   0.399   0.989  1.3594 -4.2401 -0.2872
  847THF     H712945   1.117   0.309   0.882 -3.1913  1.4431 -4.2222
  847THF     C812946   0.945   0.401   0.801  0.8862  0.2333 -0.1354
  847THF     C912947   0.802   0.366   0.838  0.7673 -0.5085 -0.2957
  847THF    H1012948   0.967   0.372   0.702  1.2667  0.3275 -0.4763
  847THF    H1112949   0.957   0.513   0.792  0.5596  2.7215 -1.6142
  847THF    H1212950   0.754   0.458   0.876 -2.0525  2.5750  0.1176
  847THF    H1312951   0.741   0.335   0.751  1.2004  1.6858 -1.6743
  848THF     O112952   2.822   4.390   0.381  0.9044  0.3489  0.8284
  848THF     C212953   2.719   4.292   0.380  0.0587  0.1248 -0.0010
  848THF     C312954   2.945   4.331   0.394 -0.8727  0.4571 -0.0198
  848THF     H412955   2.625   4.336   0.345  1.7627 -2.9404 -0.3659
  848THF     H512956   2.710   4.252   0.483  1.2962 -1.9028  0.5908
  848THF     H612957   3.032   4.398   0.354 -1.5833  0.4531 -1.3661
  848THF     H712958   2.979   4.315   0.497 -0.2848  0.0236  0.2291
  848THF     C812959   2.931   4.195   0.318 -0.1906 -0.5593  0.1683
  848THF     C912960   2.781   4.185   0.289 -0.1715 -0.3803  0.2472
  848THF    H1012961   2.956   4.116   0.384 -2.9766  1.1757 -1.8358
  848THF    H1112962   2.981   4.202   0.222 -0.1212  3.7596 -3.1131
  848THF    H1212963   2.760   4.207   0.179 -2.1758 -0.3213  0.5195
  848THF    H1312964   2.733   4.087   0.314 -1.1228  0.0230  0.2297
  849THF     O112965   3.916   0.537   5.380  0.3008  0.0194  0.3912
  849THF     C212966   3.806   0.454   5.412 -0.5229 -0.3081 -0.3704
  849THF     C312967   4.036   0.464   5.405 -0.1497 -0.1011  0.0021
  849THF     H412968   3.716   0.487   5.359  1.5393  1.2637 -0.2953
  849THF     H512969   3.806   0.457   5.522 -0.1921  0.6839 -0.3979
  849THF     H612970   4.126   0.481   5.344 -0.3220 -0.5548  1.0450
  849THF     H712971   4.070   0.462   5.514  3.4010  2.2257  0.5288
  849THF     C812972   3.998   0.316   5.376 -1.1862  0.4579 -0.6041
  849THF     C912973   3.847   0.319   5.360 -0.3617 -0.1515  0.5058
  849THF    H1012974   4.036   0.247   5.456  2.7805 -2.8886 -1.7591
  849THF    H1112975   4.045   0.275   5.288  1.3407  1.0450 -1.4337
  849THF    H1212976   3.835   0.315   5.255 -0.5032  0.9286 -1.3187
  849THF    H1312977   3.786   0.246   5.420 -1.6530 -1.0969 -1.5559
  850THF     O112978   2.118   5.478   2.630  0.6250  0.1137  0.4083
  850THF     C212979   2.064   5.350   2.592 -0.2891  0.3524 -0.0399
  850THF     C312980   2.253   5.458   2.674  0.2934  0.0562  0.4767
  850THF     H412981   1.987   5.353   2.513 -0.6643  1.5893 -0.6319
  850THF     H512982   2.002   5.313   2.672 -0.1322 -1.6416  0.6131
  850THF     H612983   2.315   5.536   2.633 -2.7162 -2.1630 -0.4080
  850THF     H712984   2.255   5.457   2.781  3.6741 -1.7982  0.9675
  850THF     C812985   2.307   5.320   2.625  0.3080  0.9502  0.4279
  850THF     C912986   2.189   5.259   2.558  0.3293 -0.4726 -0.1270
  850THF    H1012987   2.337   5.248   2.704  2.4667 -1.7068 -1.0384
  850THF    H1112988   2.381   5.316   2.549  0.0587 -0.4711  3.7704
  850THF    H1212989   2.189   5.264   2.449 -0.5248 -3.4814 -1.7525
  850THF    H1312990   2.174   5.153   2.578  4.1795  0.3723 -0.8252
  851THF     O112991   3.082   0.949   0.183  0.1326  0.1603 -0.2110
  851THF     C212992   3.193   0.930   0.263 -0.0312  0.3130 -0.1890
  851THF     C312993   2.962   0.915   0.252  0.1501  0.4056  0.2382
  851THF     H412994   3.227   1.019   0.310  1.6539 -3.7413 -1.2991
  851THF     H512995   3.268   0.890   0.203 -2.1844 -1.5391  2.1744
  851THF     H612996   2.896   0.999   0.257  0.9932  1.9791 -2.0119
  851THF     H712997   2.917   0.832   0.191  0.4986  1.4805 -1.3602
  851THF     C812998   3.009   0.860   0.387 -0.4403  0.7376  0.3773
  851THF     C912999   3.155   0.826   0.363  0.5734  0.3327 -0.6293
  851THF    H1013000   2.943   0.775   0.422 -2.2279 -2.5917 -0.6450
  851THF    H1113001   2.993   0.942   0.462 -0.5703  1.0857  0.1293
  851THF    H1213002   3.210   0.838   0.461 -1.8016  1.1004  0.6586
  851THF    H1313003   3.166   0.717   0.331 -0.2138  1.0195 -0.7777
  852THF     O113004   4.936   4.172   1.417 -0.0351  0.1089  0.1726
  852THF     C213005   5.065   4.120   1.387 -0.4732 -0.0617  0.0034
  852THF     C313006   4.922   4.300   1.349  0.0362  0.0639 -0.8973
  852THF     H413007   5.079   4.074   1.287 -4.7657  2.4032  1.2093
  852THF     H513008   5.097   4.033   1.449  0.3157 -1.5266 -0.8794
  852THF     H613009   4.903   4.278   1.245  1.6303 -0.1876  3.2037
  852THF     H713010   4.834   4.365   1.371 -1.5010 -1.7604  0.8999
  852THF     C813011   5.061   4.357   1.379  0.1960 -0.4252  0.1743
  852THF     C913012   5.151   4.244   1.418 -0.2186 -0.5363  0.1737
  852THF    H1013013   5.058   4.429   1.458 -2.4241  1.2826  0.3950
  852THF    H1113014   5.098   4.414   1.290  1.5282  1.4812 -1.2732
  852THF    H1213015   5.242   4.235   1.353  1.3855 -0.3157  1.5853
  852THF    H1313016   5.187   4.254   1.520  0.8145 -0.3747  4.6330
  853THF     O113017   4.337   4.781   1.828  0.0974 -0.4239  0.4992
  853THF     C213018   4.227   4.702   1.808 -0.6759  0.3393 -0.3801
  853THF     C313019   4.307   4.881   1.929  0.3919  0.0958 -0.6738
  853THF     H413020   4.249   4.598   1.837 -1.7260 -2.4452  0.6363
  853THF     H513021   4.210   4.705   1.699  0.6842  3.2039 -1.8766
  853THF     H613022   4.319   4.841   2.033 -2.3646  0.0878  2.3726
  853THF     H713023   4.357   4.979   1.907  0.9964 -0.9136  0.3646
  853THF     C813024   4.158   4.900   1.904  0.5485 -0.2432  0.5968
  853THF     C913025   4.109   4.760   1.888 -0.4594 -0.2237 -0.0187
  853THF    H1013026   4.144   4.954   1.809  2.7568 -1.5990  0.9439
  853THF    H1113027   4.111   4.954   1.979 -1.2077 -0.6806 -1.7931
  853THF    H1213028   4.090   4.716   1.989 -0.2009  0.4516 -1.0685
  853THF    H1313029   4.020   4.769   1.828  1.1730  1.3510 -0.6755
  854THF     O113030   0.716   2.189   4.246  0.3002  0.4444 -0.1857
  854THF     C213031   0.646   2.070   4.262  0.6323  0.4136 -0.0863
  854THF     C313032   0.850   2.159   4.270 -0.2399  0.1249  0.2235
  854THF     H413033   0.660   1.999   4.176  2.5782 -0.5445 -0.0151
  854THF     H513034   0.536   2.091   4.267 -2.5650 -1.4463  2.6975
  854THF     H613035   0.902   2.113   4.190  0.0037  1.6387 -0.1449
  854THF     H713036   0.903   2.252   4.291  0.0003  1.8636 -1.0119
  854THF     C813037   0.842   2.064   4.387 -0.4397 -0.0416 -0.2499
  854THF     C913038   0.698   2.019   4.392 -0.1173  0.6524  0.5561
  854THF    H1013039   0.865   2.106   4.480  0.6632 -0.0503  0.0746
  854THF    H1113040   0.917   1.981   4.378 -0.3736  1.0710 -0.7034
  854THF    H1213041   0.690   1.909   4.403 -1.9103  2.1125 -0.9144
  854THF    H1313042   0.646   2.062   4.470  2.8144 -2.5602  1.1281
  855THF     O113043   2.004   1.961   2.109  0.4857 -0.2283 -0.1563
  855THF     C213044   1.872   1.956   2.067  0.0584  0.0135 -0.1690
  855THF     C313045   2.093   1.943   2.009 -0.9055  0.4816  1.0146
  855THF     H413046   1.826   2.058   2.077  1.4797  1.7943 -0.2545
  855THF     H513047   1.818   1.891   2.139 -0.7463 -3.2894 -0.4730
  855THF     H613048   2.180   2.015   2.013  0.0791 -1.1410  1.4018
  855THF     H713049   2.139   1.842   2.009 -0.3826 -0.3449 -1.2983
  855THF     C813050   2.000   1.959   1.884 -0.1049 -0.3749  0.5006
  855THF     C913051   1.871   1.904   1.926  0.4855  0.7218 -0.1246
  855THF    H1013052   2.042   1.904   1.805 -0.3330  1.2714  0.7727
  855THF    H1113053   2.000   2.067   1.870  0.7297  0.5724 -1.2095
  855THF    H1213054   1.774   1.936   1.878 -2.2425 -1.1012  2.9504
  855THF    H1313055   1.882   1.796   1.918  0.9790  0.1550  1.1551
  856THF     O113056   5.126   1.226   3.944 -0.1468  0.5236 -0.2930
  856THF     C213057   5.096   1.281   4.071  0.5302  0.0843 -0.3347
  856THF     C313058   5.263   1.207   3.922  0.3471  0.7751 -0.0104
  856THF     H413059   5.059   1.200   4.133 -0.3724 -0.6642 -3.5212
  856THF     H513060   5.031   1.369   4.079  1.4558 -1.6706  4.0418
  856THF     H613061   5.283   1.106   3.874  1.4244  1.2219 -2.1557
  856THF     H713062   5.296   1.290   3.857  1.2823 -0.0898  0.7432
  856THF     C813063   5.317   1.217   4.068  0.1100 -0.2355  0.3206
  856THF     C913064   5.224   1.314   4.137  0.0453 -0.6628  0.2588
  856THF    H1013065   5.418   1.262   4.069  2.9220  0.3081 -0.2171
  856THF    H1113066   5.314   1.117   4.113 -0.7117  1.2173 -1.1791
  856THF    H1213067   5.239   1.299   4.241  0.1642  1.7843 -2.3518
  856THF    H1313068   5.254   1.418   4.113 -1.9598 -0.1369  0.4294
  857THF     O113069   0.722   0.827   3.718 -0.3829  0.2182 -0.1624
  857THF     C213070   0.815   0.715   3.731 -0.5608  0.2769  0.5869
  857THF     C313071   0.771   0.912   3.611  0.2564 -0.0174  0.0059
  857THF     H413072   0.774   0.632   3.783  0.0035  0.8447  1.1491
  857THF     H513073   0.905   0.757   3.778 -1.9086  2.2454  1.2446
  857THF     H613074   0.680   0.958   3.564 -0.4219 -0.6452  3.2582
  857THF     H713075   0.834   0.991   3.635  0.1407 -0.4777 -0.4385
  857THF     C813076   0.848   0.816   3.517  0.9123  0.5146  0.1559
  857THF     C913077   0.855   0.682   3.581  0.6990 -0.4165  0.0039
  857THF    H1013078   0.945   0.871   3.503  0.1121  1.3418  2.5489
  857THF    H1113079   0.791   0.806   3.418  3.3409  0.4970 -1.2128
  857THF    H1213080   0.775   0.616   3.548 -0.5141  4.8143 -0.0016
  857THF    H1313081   0.949   0.630   3.571 -1.0730  1.2660 -1.2896
  858THF     O113082   2.952   4.300   1.146  0.1850  0.1386  0.4656
  858THF     C213083   2.841   4.341   1.216  0.7331 -0.0572  0.2559
  858THF     C313084   2.913   4.324   1.008 -0.3575 -0.4918  1.1702
  858THF     H413085   2.831   4.447   1.220  2.4308  1.1480  1.2963
  858THF     H513086   2.849   4.309   1.323  1.9208  3.4025 -1.7126
  858THF     H613087   2.929   4.428   0.979 -6.7873  0.4008 -1.8278
  858THF     H713088   2.974   4.257   0.946 -0.2988  0.9671  0.1080
  858THF     C813089   2.769   4.272   1.006  1.1505 -0.8599  0.3726
  858THF     C913090   2.732   4.264   1.149  0.8857  0.7575 -0.3017
  858THF    H1013091   2.766   4.175   0.962 -1.9293 -0.7277  2.7235
  858THF    H1113092   2.711   4.330   0.951 -1.2744 -0.9035 -1.4185
  858THF    H1213093   2.633   4.305   1.187 -0.3377  2.1590  1.2813
  858THF    H1313094   2.731   4.164   1.195 -2.9474 -1.2402 -0.0777
  859THF     O113095   2.534   1.263   4.352  0.3281 -0.4362 -0.1745
  859THF     C213096   2.536   1.153   4.429 -0.8071 -0.3144 -0.8456
  859THF     C313097   2.615   1.361   4.410  0.3204 -0.5923 -0.3653
  859THF     H413098   2.485   1.072   4.369 -1.4135 -0.7870 -0.0674
  859THF     H513099   2.470   1.180   4.514 -0.2445 -0.6645  1.0022
  859THF     H613100   2.665   1.429   4.336  1.5207  1.2020  2.7864
  859THF     H713101   2.555   1.417   4.482  0.1645 -0.2067 -2.3338
  859THF     C813102   2.726   1.287   4.478 -0.1263  0.0640 -0.1992
  859THF     C913103   2.685   1.138   4.466 -0.4790  0.3099 -0.0523
  859THF    H1013104   2.723   1.328   4.582 -1.1882  2.9623  2.7885
  859THF    H1113105   2.817   1.314   4.433 -0.8630 -1.1016 -0.3620
  859THF    H1213106   2.731   1.079   4.382 -1.3104 -2.4333 -1.3711
  859THF    H1313107   2.709   1.083   4.552 -1.5597 -2.1420 -0.6544
  860THF     O113108   4.495   3.608   3.443  0.3926 -0.0891  0.0319
  860THF     C213109   4.459   3.741   3.473 -0.2974 -0.7004  0.5084
  860THF     C313110   4.392   3.538   3.378  0.1378 -0.5411 -0.0646
  860THF     H413111   4.550   3.800   3.479 -0.6051 -1.9055  1.8717
  860THF     H513112   4.412   3.743   3.569 -1.4163  3.3639  0.1792
  860THF     H613113   4.424   3.458   3.313  1.5070  0.5308 -0.8695
  860THF     H713114   4.351   3.488   3.464  0.6488 -0.1259 -0.0630
  860THF     C813115   4.303   3.642   3.320  0.4094 -0.0442  0.1407
  860THF     C913116   4.371   3.771   3.356 -0.2043 -0.2893 -0.2180
  860THF    H1013117   4.200   3.655   3.357 -0.7082  0.4060 -3.0400
  860THF    H1113118   4.294   3.641   3.212 -0.5602 -0.9871 -1.7799
  860THF    H1213119   4.442   3.805   3.277  0.4326 -1.8213  1.6342
  860THF    H1313120   4.297   3.849   3.378 -3.0503  2.4530 -1.7219
  861THF     O113121   1.455   0.779   5.057 -0.5643 -0.4840 -0.6393
  861THF     C213122   1.438   0.918   5.022  0.6951  0.7282  0.6190
  861THF     C313123   1.563   0.728   4.991  0.1027  0.1891 -0.4992
  861THF     H413124   1.509   0.981   5.070 -1.9470  1.6687  4.5035
  861THF     H513125   1.338   0.953   5.048  1.0565 -1.2273 -1.6026
  861THF     H613126   1.647   0.783   5.032  0.3199 -0.3462  0.0173
  861THF     H713127   1.573   0.619   5.013  0.8143 -0.2270  4.8396
  861THF     C813128   1.522   0.777   4.854 -0.4374 -0.1767  0.3318
  861THF     C913129   1.468   0.916   4.873  0.0009  0.4252 -0.4671
  861THF    H1013130   1.441   0.714   4.813 -0.7918 -2.2800  1.2168
  861THF    H1113131   1.599   0.784   4.783 -1.0978  1.1492  1.0051
  861THF    H1213132   1.528   0.996   4.840 -0.8036  0.9087 -0.7217
  861THF    H1313133   1.377   0.943   4.826  2.9299  1.5362 -1.1055
  862THF     O113134   3.869   4.987   1.792 -0.5207  0.3112 -0.6195
  862THF     C213135   3.848   5.026   1.659 -0.0917 -0.1116  0.2066
  862THF     C313136   3.876   5.104   1.875  0.7294  0.2993  0.2058
  862THF     H413137   3.748   5.058   1.641  2.2019  1.1988 -1.9742
  862THF     H513138   3.882   4.950   1.590  0.9061 -0.1430  2.4165
  862THF     H613139   3.771   5.141   1.895 -0.2422 -1.5501  1.6991
  862THF     H713140   3.920   5.076   1.970 -0.3295 -4.1047 -0.3366
  862THF     C813141   3.949   5.206   1.790  0.3778 -0.2763  0.5239
  862THF     C913142   3.930   5.153   1.645 -0.2858 -0.1618  0.4417
  862THF    H1013143   4.049   5.185   1.819  2.2796 -1.0475  0.5379
  862THF    H1113144   3.927   5.307   1.822  1.4737  1.4689  2.8466
  862THF    H1213145   3.881   5.229   1.579  2.6222 -0.4509 -1.3129
  862THF    H1313146   4.030   5.148   1.600 -1.3287 -1.7254  0.6053
  863THF     O113147   2.491   4.244   1.388  0.0575  0.1577  0.2407
  863THF     C213148   2.478   4.374   1.439  0.2685 -0.2710  0.6781
  863THF     C313149   2.361   4.193   1.340 -1.0691  0.0802  0.6226
  863THF     H413150   2.515   4.441   1.361 -1.8703 -0.3282  0.0315
  863THF     H513151   2.550   4.401   1.522  1.3045 -0.5687  1.4864
  863THF     H613152   2.366   4.164   1.234  1.3983 -2.3725  0.9459
  863THF     H713153   2.339   4.106   1.401  0.1677 -0.1719  0.2730
  863THF     C813154   2.267   4.314   1.366 -0.2583  0.3058  0.3028
  863THF     C913155   2.339   4.382   1.482 -0.7600 -0.0839  0.2141
  863THF    H1013156   2.161   4.296   1.385 -0.3265  3.5747  1.4175
  863THF    H1113157   2.265   4.380   1.280  0.6227  2.9838 -0.5771
  863THF    H1213158   2.309   4.479   1.515  2.5084 -2.4312  1.2768
  863THF    H1313159   2.324   4.326   1.569  0.3491 -1.1929 -0.7088
  864THF     O113160   4.483   1.767   4.882 -0.3092 -0.0841  0.1902
  864THF     C213161   4.461   1.628   4.909 -0.8585  0.2956 -0.0356
  864THF     C313162   4.605   1.816   4.946 -0.4069 -0.7364 -0.5085
  864THF     H413163   4.503   1.585   4.820 -0.8108  0.8964 -0.5211
  864THF     H513164   4.357   1.597   4.912  1.3047  2.7928  0.7364
  864THF     H613165   4.689   1.806   4.887 -3.4288 -3.0300 -4.4249
  864THF     H713166   4.607   1.924   4.958 -0.5293 -0.1726  4.3386
  864THF     C813167   4.610   1.735   5.077  0.5255  0.2893  0.4930
  864THF     C913168   4.533   1.604   5.046 -0.8518 -0.5161  0.1707
  864THF    H1013169   4.561   1.796   5.154 -0.4901 -1.2190  2.0200
  864THF    H1113170   4.715   1.719   5.106  1.7931  0.6424 -1.3148
  864THF    H1213171   4.593   1.517   5.049 -3.2719  1.0609 -1.6944
  864THF    H1313172   4.458   1.586   5.116  0.8889  1.8027  0.1550
  865THF     O113173   4.043   2.789   2.162 -0.0431  0.3491 -0.1245
  865THF     C213174   4.059   2.698   2.059  0.4283 -0.9941 -0.4064
  865THF     C313175   4.171   2.822   2.216 -0.0844 -0.2902  0.6307
  865THF     H413176   3.976   2.732   1.997 -3.3929  2.4136  0.6832
  865THF     H513177   4.045   2.595   2.099 -1.1002  1.3102  1.3929
  865THF     H613178   4.169   2.931   2.239 -1.4948 -0.0352  3.3255
  865THF     H713179   4.171   2.757   2.307 -1.0436 -3.6462 -1.4912
  865THF     C813180   4.272   2.787   2.112 -0.1790  0.7660 -0.2084
  865THF     C913181   4.189   2.729   1.992 -0.3627  0.3500 -0.2855
  865THF    H1013182   4.337   2.703   2.151 -1.5697 -0.1168 -1.4652
  865THF    H1113183   4.338   2.870   2.083  1.6945  0.2013  1.0204
  865THF    H1213184   4.172   2.800   1.912 -2.1652  2.7481 -2.6799
  865THF    H1313185   4.223   2.634   1.945 -0.7746 -1.4864 -1.2421
  866THF     O113186   1.620   0.303   1.091  0.4285  0.1278 -0.2006
  866THF     C213187   1.730   0.216   1.067 -0.1435  0.4120 -0.1933
  866THF     C313188   1.525   0.289   0.982 -0.3510  0.5150  0.0353
  866THF     H413189   1.699   0.115   1.098 -2.3207  0.6915 -0.1776
  866THF     H513190   1.816   0.252   1.128 -0.6230  0.0690 -1.3487
  866THF     H613191   1.459   0.208   0.996  0.1901 -2.0350 -1.6517
  866THF     H713192   1.450   0.368   0.966 -3.7144 -0.4879 -1.2053
  866THF     C813193   1.613   0.279   0.860  0.3913  0.3776 -0.0320
  866THF     C913194   1.749   0.225   0.919  0.3829  0.0675 -0.1043
  866THF    H1013195   1.613   0.375   0.809 -1.3069  0.3211 -1.4621
  866THF    H1113196   1.565   0.209   0.787 -0.5236 -0.3880 -1.8349
  866THF    H1213197   1.759   0.125   0.872 -0.8789 -1.9046  0.9179
  866THF    H1313198   1.836   0.279   0.892 -0.2741 -6.1284 -0.3296
  867THF     O113199   4.892   0.611   4.652 -0.6259 -0.0287  0.4075
  867THF     C213200   4.931   0.679   4.529  0.7072  0.0472  0.6653
  867THF     C313201   4.752   0.624   4.667 -0.3256 -0.1182 -0.7625
  867THF     H413202   4.953   0.610   4.447 -0.2285 -0.2255 -0.0384
  867THF     H513203   5.015   0.750   4.550  1.1347  0.6260 -0.9729
  867THF     H613204   4.712   0.528   4.699 -0.4191  0.1073  1.1158
  867THF     H713205   4.741   0.691   4.750 -3.7357  2.0942 -1.0579
  867THF     C813206   4.696   0.663   4.528  0.7612 -0.5170  0.2605
  867THF     C913207   4.809   0.749   4.478 -1.0003 -0.7944  0.0723
  867THF    H1013208   4.614   0.726   4.539  2.4509 -0.5973  0.1084
  867THF    H1113209   4.680   0.590   4.451  4.2239 -0.6409  0.4717
  867THF    H1213210   4.825   0.768   4.371  0.7246 -1.3917  1.7033
  867THF    H1313211   4.799   0.849   4.526  0.8803  0.7541  0.2318
  868THF     O113212   4.969   2.511   1.186 -0.5271  0.4504  0.4483
  868THF     C213213   4.895   2.631   1.187  0.7370 -0.1091 -1.2412
  868THF     C313214   4.876   2.415   1.184 -0.4912  0.4506  0.4572
  868THF     H413215   4.964   2.719   1.190 -0.3083 -0.4162  0.4120
  868THF     H513216   4.846   2.628   1.279 -1.5042 -0.6357 -1.8270
  868THF     H613217   4.912   2.315   1.163  0.5999  0.1192 -1.6914
  868THF     H713218   4.816   2.415   1.280 -4.2804  1.6118  1.3045
  868THF     C813219   4.780   2.460   1.076 -0.1477  0.3749  0.1194
  868THF     C913220   4.796   2.612   1.070  0.5140 -0.1686  0.1305
  868THF    H1013221   4.673   2.435   1.081  0.1854 -1.5980  1.4481
  868THF    H1113222   4.818   2.418   0.982 -2.8931  0.1648 -0.3997
  868THF    H1213223   4.824   2.635   0.969 -2.8754 -0.8277 -1.4839
  868THF    H1313224   4.699   2.642   1.096  4.9630 -1.1680 -0.0709
  869THF     O113225   3.915   2.582   4.977  0.4894 -0.6845  0.0444
  869THF     C213226   4.038   2.532   4.935  0.0025 -0.5475  0.3883
  869THF     C313227   3.842   2.647   4.867  0.1198 -0.0548  0.0867
  869THF     H413228   4.050   2.427   4.926 -1.6923  0.1387 -0.5941
  869THF     H513229   4.109   2.567   5.008 -3.0006  0.4158 -0.2761
  869THF     H613230   3.773   2.571   4.820 -1.2503  0.4634  3.4923
  869THF     H713231   3.791   2.731   4.906  3.4625  0.1654  1.7177
  869THF     C813232   3.958   2.705   4.786 -0.4599  0.0906 -0.4965
  869THF     C913233   4.062   2.589   4.796  0.3878  0.6425 -0.5451
  869THF    H1013234   4.014   2.785   4.838  0.6665 -6.2730 -0.1681
  869THF    H1113235   3.930   2.742   4.685  2.3039  0.6641 -1.0665
  869THF    H1213236   4.041   2.505   4.725  2.7291 -1.3603 -1.1042
  869THF    H1313237   4.164   2.609   4.787 -0.3119  0.0666 -2.5032
  870THF     O113238   0.704   2.567   4.563 -0.3847  0.0538 -0.3527
  870THF     C213239   0.716   2.483   4.451  1.1748  0.7056 -0.8013
  870THF     C313240   0.593   2.657   4.534 -0.1298 -0.1640 -0.2039
  870THF     H413241   0.664   2.390   4.471  1.6781  3.4007  0.2133
  870THF     H513242   0.818   2.453   4.439  1.3327  0.0209  2.6872
  870THF     H613243   0.503   2.600   4.538  1.2505  0.8883  0.9362
  870THF     H713244   0.584   2.748   4.608  1.3195 -0.8934  0.7294
  870THF     C813245   0.618   2.701   4.392 -0.0937  0.0892 -0.4958
  870THF     C913246   0.659   2.565   4.337  0.1032  0.3431  0.5823
  870THF    H1013247   0.709   2.760   4.383 -0.5782 -1.6913 -0.5786
  870THF    H1113248   0.531   2.730   4.336 -1.2443 -2.0225 -1.9755
  870THF    H1213249   0.567   2.525   4.306  3.1937  0.6763 -2.4287
  870THF    H1313250   0.719   2.554   4.244  1.5237 -1.0267  0.3269
  871THF     O113251   4.531   4.086   2.515  0.3301 -0.0377 -0.0782
  871THF     C213252   4.515   4.126   2.651  0.4866  0.4910  0.0789
  871THF     C313253   4.396   4.084   2.464 -0.3951  0.0725  0.2744
  871THF     H413254   4.599   4.179   2.693  1.5000  2.5932 -0.8917
  871THF     H513255   4.510   4.033   2.708  1.7919 -0.5751  0.2755
  871THF     H613256   4.405   4.106   2.357  2.2293 -0.7192  0.4170
  871THF     H713257   4.352   3.983   2.455 -0.0276  1.1415  1.5324
  871THF     C813258   4.310   4.175   2.550 -0.2680 -0.4828 -0.2357
  871THF     C913259   4.404   4.224   2.650  0.5321  0.1890 -0.0869
  871THF    H1013260   4.229   4.130   2.611  1.0323 -0.0530 -0.4285
  871THF    H1113261   4.260   4.257   2.489 -2.8545 -2.0069 -0.7220
  871THF    H1213262   4.422   4.323   2.617 -0.2780 -1.3093  2.8137
  871THF    H1313263   4.357   4.226   2.752  1.0264  0.7236  0.8000
  872THF     O113264   0.464   1.692   4.442  0.2254  0.6596 -0.1820
  872THF     C213265   0.460   1.771   4.554 -1.1180 -0.0586 -0.4205
  872THF     C313266   0.408   1.773   4.336 -0.1908 -0.1984 -0.2086
  872THF     H413267   0.534   1.853   4.557 -0.0751  1.5278  2.5425
  872THF     H513268   0.497   1.712   4.642  2.0853 -2.1338  0.8045
  872THF     H613269   0.482   1.844   4.298  0.9569 -2.9773 -0.9882
  872THF     H713270   0.374   1.715   4.250  1.0476  0.0105 -0.5957
  872THF     C813271   0.307   1.860   4.405  0.3386  0.0307 -0.3515
  872THF     C913272   0.319   1.815   4.555  0.0225  0.6888  0.4322
  872THF    H1013273   0.209   1.839   4.370 -0.3228  1.6246 -0.5990
  872THF    H1113274   0.322   1.961   4.394 -1.5482 -2.7164 -0.9964
  872THF    H1213275   0.310   1.904   4.617 -0.8223 -2.7976 -1.3121
  872THF    H1313276   0.248   1.741   4.582 -0.1738  2.4486 -3.7652
  873THF     O113277   5.261   4.414   0.778 -0.2517 -0.0454  0.5058
  873THF     C213278   5.267   4.270   0.785  0.2984  0.3594 -0.3501
  873THF     C313279   5.201   4.462   0.897 -0.4010 -0.2243  0.5775
  873THF     H413280   5.365   4.253   0.834 -2.3600  2.9718  0.1532
  873THF     H513281   5.258   4.224   0.689 -1.1344  0.8990 -3.5507
  873THF     H613282   5.273   4.462   0.979 -0.4554 -2.9655  2.3018
  873THF     H713283   5.173   4.567   0.886  1.3958  0.2498  1.6967
  873THF     C813284   5.086   4.372   0.932  0.0609  0.2493 -1.0129
  873THF     C913285   5.141   4.240   0.869 -0.0718  0.0139 -0.4028
  873THF    H1013286   5.001   4.421   0.882  2.9990 -0.8076  3.0885
  873THF    H1113287   5.057   4.359   1.043 -1.5087 -0.8644  0.3619
  873THF    H1213288   5.167   4.165   0.943 -0.7013  0.2104 -0.6082
  873THF    H1313289   5.067   4.192   0.805  0.0654 -1.6500  2.6321
  874THF     O113290   3.643   3.306   4.566  0.1256  0.3021  0.3015
  874THF     C213291   3.662   3.280   4.426 -0.2927  0.3899 -0.2413
  874THF     C313292   3.518   3.258   4.606  0.6688  0.0100 -0.1379
  874THF     H413293   3.767   3.255   4.409  0.6998  1.3679 -0.7828
  874THF     H513294   3.629   3.371   4.363 -1.7788  1.4087 -0.4347
  874THF     H613295   3.510   3.260   4.713 -3.1494  0.7301 -2.2832
  874THF     H713296   3.431   3.319   4.574  2.1005 -0.4213  0.9834
  874THF     C813297   3.519   3.122   4.543  0.4253  0.1823 -0.5427
  874THF     C913298   3.564   3.162   4.403 -0.0687  0.2139 -0.5415
  874THF    H1013299   3.424   3.072   4.542  0.9376 -1.5525 -0.1728
  874THF    H1113300   3.588   3.058   4.594  0.5894 -0.8484  0.5149
  874THF    H1213301   3.619   3.075   4.358  1.4750 -0.6618  0.7832
  874THF    H1313302   3.480   3.191   4.336  0.7471  0.9975 -2.4004
  875THF     O113303   0.972   4.078   1.492  0.6735  0.4884 -0.6003
  875THF     C213304   0.936   4.015   1.372 -0.4426 -0.3357  0.4630
  875THF     C313305   0.873   4.054   1.590  0.4434 -0.6291  0.0652
  875THF     H413306   1.018   3.946   1.335  1.7449 -0.8591  1.7796
  875THF     H513307   0.935   4.094   1.300 -0.9579  2.2296  1.3335
  875THF     H613308   0.889   3.975   1.656 -2.1958  2.3255  0.9892
  875THF     H713309   0.860   4.135   1.664 -0.4860  1.3721 -2.0165
  875THF     C813310   0.749   4.043   1.507 -0.9108  0.1088 -0.7198
  875THF     C913311   0.800   3.952   1.400 -0.5151  0.0992 -0.7380
  875THF    H1013312   0.730   4.136   1.462 -1.2498 -0.3273 -1.2291
  875THF    H1113313   0.659   4.013   1.559  1.8303 -0.9723 -1.9033
  875THF    H1213314   0.824   3.858   1.441 -0.1592 -0.5123 -0.5634
  875THF    H1313315   0.737   3.945   1.316 -2.5916  2.6576 -1.0420
  876THF     O113316   2.883   3.172   3.230  0.0012  0.8478 -0.3121
  876THF     C213317   2.930   3.279   3.154 -0.2184  0.5075 -0.2264
  876THF     C313318   2.754   3.202   3.285 -0.3233  0.2756 -0.3840
  876THF     H413319   2.988   3.253   3.068  1.0372 -1.5428 -1.0476
  876THF     H513320   2.994   3.344   3.210  0.6588 -1.1671  1.3804
  876THF     H613321   2.690   3.117   3.300 -1.1225  0.7352 -0.9878
  876THF     H713322   2.761   3.247   3.385 -1.3869 -0.0316  0.9095
  876THF     C813323   2.690   3.284   3.174  0.1999 -0.1735  0.9061
  876THF     C913324   2.806   3.358   3.109 -0.1006 -0.2026 -0.5408
  876THF    H1013325   2.605   3.345   3.210 -1.5589  0.6389 -0.6786
  876THF    H1113326   2.647   3.212   3.103 -0.5746 -0.0162  1.0489
  876THF    H1213327   2.797   3.349   3.000 -0.1608 -1.8925 -1.2867
  876THF    H1313328   2.817   3.469   3.131  1.0585 -0.8274 -2.4595
  877THF     O113329   0.889   1.913   1.556  0.1692  0.7109  0.1881
  877THF     C213330   0.935   1.774   1.571 -0.1453  0.5501  0.1448
  877THF     C313331   0.991   1.992   1.534 -0.4157  0.0299 -0.1796
  877THF     H413332   0.857   1.690   1.565 -2.9146  1.0140  0.2324
  877THF     H513333   0.995   1.770   1.661  1.6101  0.4267 -0.8014
  877THF     H613334   0.954   2.087   1.488  0.5041  0.9074  1.0430
  877THF     H713335   1.045   2.014   1.626  1.5385 -1.8313  1.9445
  877THF     C813336   1.068   1.908   1.431 -0.8700  0.0790 -0.4229
  877THF     C913337   1.027   1.758   1.449 -0.5772  0.5234  0.2805
  877THF    H1013338   1.177   1.925   1.425 -1.7664  2.0590 -2.0923
  877THF    H1113339   1.030   1.937   1.331 -1.1191 -0.7199 -2.3022
  877THF    H1213340   0.963   1.736   1.365  0.9404 -0.2505  0.1754
  877THF    H1313341   1.109   1.687   1.466  0.4379  1.4195  0.3333
  878THF     O113342   3.963   0.429   2.752  0.3601  0.6945  0.5864
  878THF     C213343   3.995   0.549   2.813  0.0597  0.1646 -0.1500
  878THF     C313344   3.951   0.338   2.863  0.0324 -0.1288  0.6952
  878THF     H413345   3.896   0.585   2.856  1.2989 -0.1371  0.8419
  878THF     H513346   4.040   0.617   2.741  0.0866  2.3232  2.2803
  878THF     H613347   3.869   0.366   2.935 -0.7782  2.2552 -0.4849
  878THF     H713348   3.947   0.238   2.820  0.9535 -2.4557 -0.1528
  878THF     C813349   4.086   0.361   2.922 -0.5666  0.2384  0.2515
  878THF     C913350   4.103   0.514   2.921 -0.4990  0.7194  0.5157
  878THF    H1013351   4.157   0.306   2.859 -3.8606  0.5130  0.9182
  878THF    H1113352   4.094   0.319   3.019  0.4316 -0.8122 -0.5110
  878THF    H1213353   4.080   0.559   3.021  1.9134  0.8103  1.1697
  878THF    H1313354   4.210   0.541   2.895 -1.8522 -1.2073 -1.4982
  879THF     O113355   2.480   4.582   5.337  0.5033  0.7951  0.0204
  879THF     C213356   2.411   4.534   5.448  0.0461 -0.1698 -0.5574
  879THF     C313357   2.571   4.483   5.297  0.2611  0.5269 -0.1545
  879THF     H413358   2.316   4.581   5.453  1.2422  0.4049 -2.5070
  879THF     H513359   2.461   4.561   5.544 -0.2982  0.5326  1.2568
  879THF     H613360   2.624   4.506   5.200  3.0441  3.5870  2.3691
  879THF     H713361   2.655   4.476   5.367 -1.1134  0.1087 -1.2636
  879THF     C813362   2.495   4.355   5.305  0.6333 -0.0976 -0.4529
  879THF     C913363   2.405   4.376   5.420 -0.0962  0.4779  0.6202
  879THF    H1013364   2.555   4.266   5.306  0.6981 -0.6092 -1.6524
  879THF    H1113365   2.435   4.352   5.212 -2.1455  2.7536 -1.6999
  879THF    H1213366   2.306   4.339   5.401 -1.7253  0.8871 -1.1881
  879THF    H1313367   2.449   4.318   5.504  1.3741  0.4125  0.1472
  880THF     O113368   4.642   4.076   3.039  0.7425  0.0524 -0.2349
  880THF     C213369   4.707   4.083   3.162 -0.3197  0.1607  0.6818
  880THF     C313370   4.603   4.209   3.001 -0.0937  0.2701  0.2392
  880THF     H413371   4.815   4.088   3.151 -0.2833 -2.0379 -0.2101
  880THF     H513372   4.677   3.989   3.210  1.6847 -0.7160 -1.9681
  880THF     H613373   4.648   4.240   2.906  0.2351  2.1002  1.0159
  880THF     H713374   4.497   4.215   2.977  1.9611 -1.7505 -0.1706
  880THF     C813375   4.659   4.304   3.101 -0.7604 -0.3337  0.5941
  880THF     C913376   4.660   4.217   3.229 -1.0997 -0.5763  0.3095
  880THF    H1013377   4.598   4.401   3.108  1.0937  0.8656 -0.4187
  880THF    H1113378   4.762   4.335   3.064 -0.9194  0.1076 -1.9971
  880THF    H1213379   4.738   4.253   3.301  0.2639  0.0181 -2.0217
  880THF    H1313380   4.567   4.211   3.282 -0.8779  0.1694  2.6147
  881THF     O113381   0.051   3.919   2.768  0.3278  0.1719 -0.4001
  881THF     C213382  -0.045   3.922   2.872 -0.5304  0.0615  0.7500
  881THF     C313383   0.104   3.789   2.756  0.4907  0.2081 -0.1588
  881THF     H413384  -0.109   4.003   2.858 -0.8936 -1.3594 -0.3088
  881THF     H513385   0.014   3.938   2.964  0.6767 -1.8576  1.3144
  881THF     H613386   0.152   3.766   2.659 -3.4567 -0.8465 -0.5158
  881THF     H713387   0.183   3.770   2.825 -1.0873 -0.1801  1.1531
  881THF     C813388  -0.017   3.697   2.784  0.5630 -0.3684 -0.8742
  881THF     C913389  -0.112   3.789   2.864  0.8040  0.0003 -0.0169
  881THF    H1013390   0.033   3.608   2.829  2.3689 -1.2731 -0.2537
  881THF    H1113391  -0.062   3.670   2.688 -0.0042 -0.1793 -0.2683
  881THF    H1213392  -0.203   3.770   2.817  1.6167 -1.0133  3.6985
  881THF    H1313393  -0.132   3.753   2.962 -3.8132  2.6225  0.2670
  882THF     O113394   2.091   0.087   0.611  0.3060  0.1161  0.8741
  882THF     C213395   2.214   0.059   0.684  0.1249 -0.3051 -0.1576
  882THF     C313396   2.014  -0.034   0.626 -0.0079  0.7159 -0.0631
  882THF     H413397   2.208   0.097   0.786 -1.8682  0.1956  0.4066
  882THF     H513398   2.298   0.105   0.632 -1.3322 -1.1402 -1.8050
  882THF     H613399   1.957  -0.044   0.717 -0.8238 -0.0512 -1.5913
  882THF     H713400   1.931  -0.041   0.555 -0.5893  3.4985  0.3290
  882THF     C813401   2.119  -0.144   0.599  0.7306  0.4425  0.7527
  882THF     C913402   2.233  -0.094   0.679 -0.8702 -0.6514  0.6019
  882THF    H1013403   2.143  -0.145   0.493 -0.2075  2.5155  0.0496
  882THF    H1113404   2.087  -0.241   0.627 -1.0953 -1.2981 -1.6184
  882THF    H1213405   2.224  -0.119   0.784 -0.6268  0.2939  1.1176
  882THF    H1313406   2.330  -0.123   0.641 -0.0779  1.1389  1.3395
  883THF     O113407   5.274   5.384   4.688 -0.4095 -0.2898  0.4152
  883THF     C213408   5.321   5.514   4.675 -0.4198 -0.9327 -0.0222
  883THF     C313409   5.363   5.322   4.782  0.6131  0.7664 -0.6568
  883THF     H413410   5.257   5.593   4.638  1.6611 -1.8097 -0.1850
  883THF     H513411   5.410   5.506   4.613 -2.2858 -0.2360  0.7586
  883THF     H613412   5.324   5.219   4.809  1.4238 -1.1603 -1.6966
  883THF     H713413   5.461   5.310   4.740 -1.8342  1.1419 -1.2486
  883THF     C813414   5.372   5.422   4.901  0.0522 -0.9290  0.2349
  883THF     C913415   5.358   5.553   4.824  0.1595  0.2776  0.2492
  883THF    H1013416   5.462   5.416   4.960  0.1218 -1.5447  1.5802
  883THF    H1113417   5.289   5.402   4.968 -1.5122  1.4281 -0.9333
  883THF    H1213418   5.272   5.603   4.874 -1.2505 -3.1151  2.1132
  883THF    H1313419   5.446   5.621   4.822 -0.4276 -0.5283 -2.2741
  884THF     O113420   1.566   1.419   4.729  0.1849 -0.1310 -0.2504
  884THF     C213421   1.470   1.526   4.704 -0.2979  0.0616  0.4234
  884THF     C313422   1.518   1.301   4.668 -0.4338 -0.3754  0.7913
  884THF     H413423   1.494   1.583   4.619  1.1633  1.6135  1.1680
  884THF     H513424   1.471   1.598   4.784 -2.5512  0.1837  4.5245
  884THF     H613425   1.530   1.308   4.559  1.2169 -1.2446 -0.8580
  884THF     H713426   1.576   1.216   4.688  0.0229  0.9125  0.2692
  884THF     C813427   1.377   1.304   4.721  0.4232 -0.1008  0.2257
  884THF     C913428   1.339   1.452   4.699  0.2981  0.6228 -0.2901
  884THF    H1013429   1.374   1.289   4.828  1.1575 -0.4560 -0.0758
  884THF    H1113430   1.313   1.227   4.682  0.2827 -0.3122  0.1892
  884THF    H1213431   1.303   1.459   4.594 -0.2390  0.9605 -0.4524
  884THF    H1313432   1.273   1.481   4.779 -1.2604 -0.4234 -0.4290
  885THF     O113433   3.022   2.957   1.035 -0.1252 -0.0075  0.1560
  885THF     C213434   3.019   2.848   1.118 -0.0407 -0.4088  0.4595
  885THF     C313435   2.889   3.022   1.046 -0.9522 -0.2392 -0.3429
  885THF     H413436   3.042   2.888   1.221 -0.3358  0.4841 -0.7526
  885THF     H513437   3.079   2.759   1.081 -2.4860 -0.2924 -0.0789
  885THF     H613438   2.893   3.130   1.072 -0.1747 -0.1847 -0.4005
  885THF     H713439   2.833   3.021   0.954  0.9644  0.6621 -0.8831
  885THF     C813440   2.807   2.938   1.150 -0.8811  0.4318  0.6341
  885THF     C913441   2.874   2.807   1.129  0.0450  0.4499 -0.1313
  885THF    H1013442   2.701   2.935   1.114 -1.9033  1.1034 -1.7000
  885THF    H1113443   2.808   2.973   1.254  2.5204  1.4669  0.4748
  885THF    H1213444   2.856   2.727   1.207  0.8460 -1.9029 -0.3432
  885THF    H1313445   2.848   2.753   1.034 -2.2557  0.2960  0.4351
  886THF     O113446   2.307   3.758   2.591 -0.1604 -0.1341  0.1542
  886THF     C213447   2.269   3.842   2.484 -0.6540 -0.7792 -0.3604
  886THF     C313448   2.419   3.820   2.652 -0.5624 -1.0674  0.0893
  886THF     H413449   2.180   3.901   2.507 -2.7445 -2.2579 -3.4549
  886THF     H513450   2.245   3.780   2.398 -0.3141 -1.6347  1.7294
  886THF     H613451   2.393   3.908   2.713 -0.9638 -2.4313  1.3610
  886THF     H713452   2.467   3.748   2.723 -0.4042 -0.3676  0.8199
  886THF     C813453   2.504   3.865   2.535 -0.0475  0.4506  0.5501
  886THF     C913454   2.390   3.920   2.436 -0.2391  0.8712  0.1931
  886THF    H1013455   2.549   3.774   2.487  0.6293 -0.8640 -0.0971
  886THF    H1113456   2.595   3.925   2.555  4.0030 -0.5246 -0.5560
  886THF    H1213457   2.370   4.030   2.455  1.6530  0.4004  1.6700
  886THF    H1313458   2.417   3.905   2.336  2.4285 -0.8555 -1.4762
  887THF     O113459   0.269   3.297   1.280  0.3981 -0.3095 -0.2919
  887THF     C213460   0.231   3.361   1.160  0.9408 -0.2757  0.2291
  887THF     C313461   0.319   3.399   1.362  0.4513 -0.2043  0.2874
  887THF     H413462   0.172   3.297   1.099  0.5735 -0.4636  0.0975
  887THF     H513463   0.316   3.401   1.103 -2.2362 -0.9022 -0.2208
  887THF     H613464   0.325   3.366   1.464  0.3423  1.5515  1.4128
  887THF     H713465   0.413   3.443   1.329 -3.3076 -0.0582  0.2805
  887THF     C813466   0.212   3.508   1.353 -0.1731  0.1106 -0.0699
  887THF     C913467   0.152   3.482   1.215  0.0608  0.0989  0.5223
  887THF    H1013468   0.250   3.608   1.367  0.0717 -2.9465  2.2248
  887THF    H1113469   0.138   3.499   1.434  0.5905 -3.4700 -1.7533
  887THF    H1213470   0.044   3.466   1.231 -0.7226  1.0658 -0.2175
  887THF    H1313471   0.162   3.566   1.141  0.5748  0.8799 -2.1444
  888THF     O113472   3.264   0.155   5.242 -0.1156 -0.7172  0.1800
  888THF     C213473   3.328   0.161   5.374 -0.4786  0.0324  0.5978
  888THF     C313474   3.312   0.035   5.178 -0.5025  0.1982  0.2485
  888THF     H413475   3.299   0.239   5.439  1.1260 -0.6601 -1.7150
  888THF     H513476   3.438   0.163   5.361 -1.0340 -1.9977 -5.8485
  888THF     H613477   3.248   0.008   5.088 -0.7406 -1.7485 -0.1697
  888THF     H713478   3.416   0.055   5.160 -1.5944 -1.2455  0.9334
  888THF     C813479   3.313  -0.060   5.293 -0.2822  0.1627  0.5008
  888THF     C913480   3.296   0.019   5.424  0.3263  0.3442  0.2068
  888THF    H1013481   3.398  -0.120   5.292  0.0818  1.8237 -0.6665
  888THF    H1113482   3.224  -0.117   5.286  0.9226 -0.2522  1.0547
  888THF    H1213483   3.201   0.014   5.473 -1.5819 -0.6311 -1.3154
  888THF    H1313484   3.370  -0.017   5.496  0.6312  0.7431 -1.1350
  889THF     O113485   2.614   3.992   0.696  0.5839  0.4357 -0.5652
  889THF     C213486   2.576   3.917   0.817 -0.7750 -0.4589  1.0443
  889THF     C313487   2.655   3.887   0.615  0.5618 -0.6474 -0.1647
  889THF     H413488   2.507   3.978   0.868 -1.2412 -2.0276 -1.3733
  889THF     H513489   2.665   3.898   0.874  0.2333  2.7894 -0.3343
  889THF     H613490   2.661   3.928   0.512 -2.1610  0.9838 -0.4358
  889THF     H713491   2.755   3.859   0.650  2.6351 -0.7038 -2.1236
  889THF     C813492   2.557   3.775   0.623 -0.4397  0.3452 -0.4270
  889THF     C913493   2.514   3.784   0.765  0.0231  0.4935 -0.8188
  889THF    H1013494   2.588   3.673   0.588  0.6882 -1.2423 -0.4383
  889THF    H1113495   2.472   3.806   0.571 -0.1951 -1.3202  1.5026
  889THF    H1213496   2.407   3.790   0.782 -0.8307 -1.1342 -2.0273
  889THF    H1313497   2.560   3.706   0.831 -1.3775 -0.3883 -0.2273
  890THF     O113498   2.894   1.393   0.501 -0.3233  0.2604  0.5251
  890THF     C213499   2.919   1.396   0.357  0.0775 -0.3413 -0.1479
  890THF     C313500   2.982   1.296   0.559  0.1220 -0.2602  0.3252
  890THF     H413501   2.891   1.492   0.315  0.0114 -1.6383 -0.0337
  890THF     H513502   2.878   1.316   0.306 -0.3923  1.6977  0.1381
  890THF     H613503   3.045   1.335   0.648  1.3897  2.0549  0.0254
  890THF     H713504   2.924   1.220   0.616 -0.6386 -1.6821  2.0899
  890THF     C813505   3.075   1.250   0.446  0.3135 -0.5187  0.5659
  890THF     C913506   3.068   1.362   0.347  0.9185  0.1461  0.5743
  890THF    H1013507   3.035   1.150   0.414  1.9492  0.4219 -0.4227
  890THF    H1113508   3.177   1.223   0.465  0.3106  1.2560 -0.9047
  890THF    H1213509   3.136   1.441   0.380  1.9793 -0.0753 -1.1306
  890THF    H1313510   3.100   1.334   0.246  0.4728  0.9006  0.6247
  891THF     O113511   4.094   3.409   0.949 -0.2887  0.5880  0.1146
  891THF     C213512   4.211   3.471   1.002 -0.0602  0.3405  0.9992
  891THF     C313513   4.101   3.277   1.001  0.2842 -0.4890 -0.4729
  891THF     H413514   4.202   3.482   1.119  0.1667  0.0966  1.5309
  891THF     H513515   4.230   3.563   0.948 -1.3237  1.6813  1.0699
  891THF     H613516   4.068   3.292   1.110 -1.2552 -1.5175 -0.4681
  891THF     H713517   4.027   3.219   0.953  1.6999 -0.5197  1.0710
  891THF     C813518   4.247   3.231   1.001 -0.1903 -0.4914 -0.1233
  891THF     C913519   4.319   3.364   0.969 -0.9333  0.5408 -0.8941
  891THF    H1013520   4.256   3.156   0.925 -2.3670 -2.9979  1.4462
  891THF    H1113521   4.283   3.200   1.099 -2.0450  0.6536 -1.5160
  891THF    H1213522   4.410   3.383   1.024 -2.9384 -0.1651  0.3575
  891THF    H1313523   4.343   3.359   0.860  0.2542 -1.0941  0.4414
  892THF     O113524   1.603   0.324   3.114 -0.1164  0.5974 -0.4523
  892THF     C213525   1.661   0.379   3.237 -0.2553 -0.0312 -0.2262
  892THF     C313526   1.531   0.428   3.048 -0.8131  0.6376  0.1630
  892THF     H413527   1.760   0.426   3.230  2.3985 -2.7293 -3.6326
  892THF     H513528   1.676   0.308   3.320  2.3764  0.0658  3.5127
  892THF     H613529   1.589   0.470   2.958  0.5823 -0.3729 -1.9977
  892THF     H713530   1.442   0.380   3.003 -0.0383 -1.2669  0.8689
  892THF     C813531   1.511   0.537   3.144  0.1422 -0.0629  0.1485
  892THF     C913532   1.552   0.478   3.279  0.2135 -0.2432 -0.1172
  892THF    H1013533   1.404   0.565   3.148 -1.9563  1.8893  1.2723
  892THF    H1113534   1.569   0.624   3.118 -0.7713  1.7112 -2.8073
  892THF    H1213535   1.580   0.556   3.352 -1.8147 -1.4136  0.2872
  892THF    H1313536   1.470   0.424   3.321  2.1204 -0.3842  1.2956
  893THF     O113537   1.036   0.534   5.045 -0.5317  0.2169  0.2120
  893THF     C213538   1.040   0.395   5.015 -0.4311  0.2147 -0.2540
  893THF     C313539   1.167   0.593   5.032 -0.5035  0.7411 -0.3977
  893THF     H413540   0.942   0.358   4.990 -2.0767  0.3013 -2.7104
  893THF     H513541   1.088   0.353   5.103 -2.0386 -3.1051 -0.5672
  893THF     H613542   1.142   0.695   4.988  0.8244 -1.8467 -0.9639
  893THF     H713543   1.216   0.601   5.125 -2.9611 -2.5398 -2.6549
  893THF     C813544   1.242   0.495   4.940  0.0606 -0.2886 -0.3545
  893THF     C913545   1.134   0.400   4.896  0.0333 -0.1781  0.1634
  893THF    H1013546   1.324   0.454   4.999  0.1480  0.2055 -2.1595
  893THF    H1113547   1.291   0.551   4.867  1.1867  1.0825 -0.6026
  893THF    H1213548   1.081   0.435   4.806  1.4955  2.0491 -0.0778
  893THF    H1313549   1.167   0.307   4.864 -2.5085  0.0468  0.4288
  894THF     O113550   0.374   4.538   2.970  0.7232 -0.0370 -0.6375
  894THF     C213551   0.406   4.622   2.863  0.2202  0.2130 -0.0185
  894THF     C313552   0.451   4.574   3.081 -0.0931 -0.2713  0.5028
  894THF     H413553   0.330   4.638   2.780  1.6702 -2.9753 -0.6503
  894THF     H513554   0.505   4.610   2.813  0.6922  1.4811 -2.9069
  894THF     H613555   0.402   4.542   3.171 -2.0032 -4.1160  1.9125
  894THF     H713556   0.543   4.518   3.070 -2.0064  2.8557 -0.3226
  894THF     C813557   0.465   4.722   3.075  0.3464  0.3805 -0.3987
  894THF     C913558   0.412   4.757   2.942  0.1692 -0.5951  0.4007
  894THF    H1013559   0.563   4.747   3.080 -0.5772 -0.0757 -2.0653
  894THF    H1113560   0.411   4.773   3.158 -3.3522  0.4210  0.0855
  894THF    H1213561   0.314   4.793   2.957  4.2274 -2.9999 -2.5642
  894THF    H1313562   0.481   4.822   2.887 -2.8509  0.2895  1.5588
  895THF     O113563   2.536   4.230   3.435 -0.4529  0.1460  0.0519
  895THF     C213564   2.522   4.105   3.370  0.0728  0.1813 -0.3101
  895THF     C313565   2.502   4.332   3.340  0.0721 -0.1546  0.6636
  895THF     H413566   2.413   4.079   3.371  0.7152 -1.3020 -1.5673
  895THF     H513567   2.574   4.027   3.419  2.2339  0.8059 -1.3654
  895THF     H613568   2.399   4.335   3.316 -0.2607  0.8610  1.2396
  895THF     H713569   2.537   4.423   3.369 -0.2964 -1.6522 -1.4265
  895THF     C813570   2.588   4.279   3.228  0.1771  0.6125  0.5248
  895THF     C913571   2.578   4.126   3.227  0.2256  0.3572 -0.8667
  895THF    H1013572   2.690   4.295   3.273  1.7500 -0.4103  3.6489
  895THF    H1113573   2.586   4.329   3.139 -0.1821  0.6830  0.0576
  895THF    H1213574   2.498   4.096   3.160 -2.4554  0.2285  0.2173
  895THF    H1313575   2.670   4.067   3.205 -0.8478  1.1665  0.9353
  896THF     O113576   3.507   1.587   4.211  0.1273 -0.5784  0.2458
  896THF     C213577   3.439   1.478   4.148 -0.0700 -0.5983 -0.0934
  896THF     C313578   3.641   1.564   4.206  0.6637 -0.3516  0.2793
  896THF     H413579   3.422   1.493   4.043  0.4579  0.8101  1.4385
  896THF     H513580   3.338   1.472   4.191 -1.8331 -0.3857  0.7333
  896THF     H613581   3.678   1.588   4.104  0.2335  2.2520 -1.3994
  896THF     H713582   3.680   1.624   4.290 -1.3147 -2.6756  0.8775
  896THF     C813583   3.655   1.411   4.215 -1.5372 -0.3475 -0.9451
  896THF     C913584   3.526   1.357   4.170  0.4065 -0.3046 -0.6251
  896THF    H1013585   3.667   1.373   4.317  0.8517  0.1794 -1.6540
  896THF    H1113586   3.742   1.380   4.158 -0.8707 -0.3545 -0.0039
  896THF    H1213587   3.540   1.281   4.092 -0.4438  0.0956  3.4837
  896THF    H1313588   3.482   1.307   4.260 -0.5901 -2.0735  1.5652
  897THF     O113589   4.763   2.939   0.414  0.4254  0.0080  0.3117
  897THF     C213590   4.818   2.992   0.537 -0.3971 -0.7218  0.3892
  897THF     C313591   4.792   3.026   0.308  0.4259 -0.9359 -0.1921
  897THF     H413592   4.891   2.916   0.558 -0.9912 -2.4068 -1.3526
  897THF     H513593   4.744   2.999   0.621 -2.1663 -2.3731  0.8669
  897THF     H613594   4.815   2.968   0.217 -2.1786 -0.3120 -1.2074
  897THF     H713595   4.692   3.077   0.295 -0.0079 -0.4352  0.6427
  897THF     C813596   4.905   3.116   0.353 -0.6800  0.5170  0.7240
  897THF     C913597   4.886   3.121   0.501 -0.0942  1.1584  0.0706
  897THF    H1013598   4.903   3.209   0.296  1.0958 -0.2835  1.8761
  897THF    H1113599   5.007   3.084   0.336 -3.1854  0.5395 -3.8098
  897THF    H1213600   4.973   3.139   0.564 -0.8797 -4.4136  0.0088
  897THF    H1313601   4.823   3.205   0.512 -1.0881  1.7936 -0.7252
  898THF     O113602   4.099   2.485   1.246 -0.0342  0.2803  0.3184
  898THF     C213603   4.037   2.375   1.308 -0.0129 -0.3209  0.6458
  898THF     C313604   4.006   2.576   1.189  0.0532 -0.3829 -0.4228
  898THF     H413605   4.099   2.340   1.395  1.9217  0.2895  1.9524
  898THF     H513606   4.031   2.292   1.239  0.7568 -2.0948  1.7476
  898THF     H613607   4.038   2.676   1.217 -1.1032 -1.5000 -1.0190
  898THF     H713608   3.990   2.567   1.079 -3.0328  0.4844 -1.7481
  898THF     C813609   3.869   2.541   1.245 -0.1323  0.2318 -0.1574
  898THF     C913610   3.898   2.431   1.345 -0.3032 -0.2627 -0.2443
  898THF    H1013611   3.806   2.508   1.161 -2.6302  0.3986  0.0516
  898THF    H1113612   3.822   2.634   1.292  0.8136 -1.2420  2.1325
  898THF    H1213613   3.915   2.476   1.442  3.8089  2.5560  1.1127
  898THF    H1313614   3.827   2.342   1.352 -1.0093  3.1844 -0.8495
  899THF     O113615   0.341   2.975   4.793 -0.4510  0.5635 -0.0748
  899THF     C213616   0.429   2.924   4.888 -0.0044  0.1981 -0.3032
  899THF     C313617   0.255   2.870   4.742  0.3722 -0.2464 -0.6716
  899THF     H413618   0.409   2.963   4.986  0.6783  0.3520 -1.1409
  899THF     H513619   0.529   2.953   4.864 -4.7980  2.5290 -0.1165
  899THF     H613620   0.160   2.922   4.723 -0.8427  0.3218 -1.7719
  899THF     H713621   0.288   2.831   4.652 -2.5613  1.9484  0.5458
  899THF     C813622   0.259   2.766   4.848 -0.1363 -0.0334  0.2819
  899THF     C913623   0.411   2.774   4.876 -0.4464 -0.3930  0.6586
  899THF    H1013624   0.229   2.665   4.820 -0.6339 -0.7928 -1.4892
  899THF    H1113625   0.185   2.795   4.928  0.6317 -2.0248  1.4435
  899THF    H1213626   0.430   2.728   4.970 -0.1224  2.1945  1.1123
  899THF    H1313627   0.472   2.732   4.796 -1.2697  2.3471  2.1046
  900THF     O113628   4.775   0.693   2.066 -0.4384  0.0247 -0.2828
  900THF     C213629   4.884   0.787   2.066  0.2513  0.1009 -0.2274
  900THF     C313630   4.827   0.589   2.154  0.7045  0.9286  1.0819
  900THF     H413631   4.853   0.891   2.044  1.1237 -2.2405  0.8653
  900THF     H513632   4.963   0.766   1.995 -0.1601 -1.4664 -0.3040
  900THF     H613633   4.753   0.511   2.171 -2.0828  0.2734  1.8321
  900THF     H713634   4.916   0.547   2.095  1.3125 -0.4326 -1.0624
  900THF     C813635   4.883   0.655   2.274  0.3357 -0.0226  0.6105
  900THF     C913636   4.941   0.780   2.208 -0.0503 -0.8091  0.1994
  900THF    H1013637   4.964   0.605   2.321  3.2063  1.7576  0.9802
  900THF    H1113638   4.813   0.673   2.355  2.7635  0.5793  2.1773
  900THF    H1213639   4.901   0.855   2.275 -0.6566 -2.4341 -1.8831
  900THF    H1313640   5.051   0.791   2.219 -0.2307  3.5557  1.9367
  901THF     O113641   3.969   3.183   3.929  0.4568 -0.0690 -0.1558
  901THF     C213642   4.102   3.237   3.934  0.6807 -0.5221 -0.2092
  901THF     C313643   3.983   3.038   3.949 -0.0321 -0.3960  0.0495
  901THF     H413644   4.099   3.347   3.958 -2.2275  0.0516 -1.5401
  901THF     H513645   4.159   3.231   3.837  0.2350  2.3332 -2.3675
  901THF     H613646   3.901   3.010   4.017 -0.4153  1.1775  2.1134
  901THF     H713647   3.967   2.974   3.858  0.7157 -0.6644 -1.5064
  901THF     C813648   4.114   3.018   4.021 -0.1954 -0.5384  0.1107
  901THF     C913649   4.156   3.160   4.047  0.2136 -0.2019 -0.5653
  901THF    H1013650   4.172   2.968   3.945  0.8883 -1.3726  0.3564
  901THF    H1113651   4.097   2.953   4.112 -1.4866 -0.9668  0.0059
  901THF    H1213652   4.119   3.197   4.143  0.3288 -2.5210 -1.0756
  901THF    H1313653   4.259   3.160   4.059 -0.8152  0.6326 -3.1378
  902THF     O113654   1.095   5.212   4.575 -0.2362 -0.2047 -0.0747
  902THF     C213655   1.115   5.354   4.584  0.1751 -0.1666  0.2213
  902THF     C313656   1.023   5.175   4.690  0.0691 -0.0956  0.1919
  902THF     H413657   1.026   5.402   4.533 -1.8056 -4.4696 -0.6413
  902THF     H513658   1.202   5.402   4.535  2.0433  1.3822  3.4344
  902THF     H613659   0.920   5.135   4.681  1.7845  0.1734  0.6631
  902THF     H713660   1.086   5.100   4.736 -1.3129  1.0975 -0.2858
  902THF     C813661   1.006   5.300   4.779  0.8723  0.2515  0.1983
  902THF     C913662   1.111   5.389   4.734 -0.1148 -0.0526 -0.2857
  902THF    H1013663   1.005   5.278   4.885 -0.5501  1.1756 -0.1693
  902THF    H1113664   0.903   5.347   4.777  0.9600  2.0202 -2.9159
  902THF    H1213665   1.093   5.498   4.748 -0.7334  1.0330  0.9779
  902THF    H1313666   1.204   5.364   4.782 -0.9038 -0.4809  3.2090
  903THF     O113667   1.947   1.246   0.607  0.0443  0.6162  0.0816
  903THF     C213668   2.037   1.310   0.512 -0.2561  0.2214  0.8349
  903THF     C313669   1.946   1.327   0.722 -0.5255 -0.5720  0.1863
  903THF     H413670   2.000   1.273   0.419 -0.0882 -0.1500 -0.0903
  903THF     H513671   2.138   1.282   0.536  0.1104  0.3236  1.7302
  903THF     H613672   1.880   1.289   0.805 -2.5334  1.2025 -0.6725
  903THF     H713673   2.047   1.314   0.765 -1.3264 -0.9411  1.2030
  903THF     C813674   1.923   1.467   0.662  0.3989 -0.0908  0.0546
  903THF     C913675   1.999   1.463   0.528 -0.2973 -0.0056  0.0882
  903THF    H1013676   1.953   1.548   0.731  0.0025  0.1352  2.5763
  903THF    H1113677   1.817   1.488   0.658 -0.1106 -0.0414  2.6258
  903THF    H1213678   1.936   1.495   0.449 -1.7428 -1.0730  1.0278
  903THF    H1313679   2.102   1.506   0.524 -0.6557  0.5939  2.0512
  904THF     O113680   0.229   3.121   5.476  0.3300  0.1857  0.1478
  904THF     C213681   0.272   3.152   5.609 -0.6392  0.3110  0.1990
  904THF     C313682   0.201   3.251   5.413  0.0963 -0.6738  0.4060
  904THF     H413683   0.327   3.070   5.654 -0.6065  0.3039  0.6031
  904THF     H513684   0.181   3.161   5.672 -1.4033  0.0224  0.4975
  904THF     H613685   0.205   3.244   5.300  1.0337 -0.0697  1.8547
  904THF     H713686   0.107   3.287   5.451  1.6763  1.6189  2.9138
  904THF     C813687   0.315   3.338   5.460  0.0306  0.1418  0.1267
  904THF     C913688   0.351   3.279   5.603  1.3262  0.5009  0.8224
  904THF    H1013689   0.305   3.451   5.456  0.6818  0.1120  2.9039
  904THF    H1113690   0.409   3.319   5.402  1.3531  0.1852  0.7670
  904THF    H1213691   0.460   3.266   5.606  0.9305 -1.1504 -1.5560
  904THF    H1313692   0.309   3.343   5.683 -1.9184 -0.7058  0.7315
  905THF     O113693   0.009   4.963   4.515 -0.2484  0.5993  0.0405
  905THF     C213694  -0.066   4.849   4.505  0.3682  0.0810  0.3126
  905THF     C313695   0.116   4.931   4.599 -0.1348  0.1208  0.3443
  905THF     H413696  -0.121   4.850   4.415 -0.8608  0.4797  0.8731
  905THF     H513697  -0.123   4.849   4.597 -0.3112  1.7407 -1.2611
  905THF     H613698   0.197   5.002   4.599 -0.7061 -0.4458  1.5816
  905THF     H713699   0.066   4.913   4.698  1.5202  0.9540  0.7174
  905THF     C813700   0.158   4.795   4.545  0.1573  0.2958  0.0335
  905THF     C913701   0.027   4.728   4.505 -0.0330 -0.6910  0.1686
  905THF    H1013702   0.211   4.744   4.620  0.3450  0.0549 -3.9885
  905THF    H1113703   0.218   4.814   4.458  0.1186  3.2138  2.4952
  905THF    H1213704   0.039   4.679   4.413 -0.1917  1.5555 -0.8175
  905THF    H1313705  -0.015   4.662   4.580  0.3684  2.8857  2.0380
  906THF     O113706   3.033   2.372   5.023 -0.2567  0.0764 -0.6034
  906THF     C213707   2.991   2.452   4.912  0.1920  0.3690  0.0056
  906THF     C313708   3.019   2.240   4.981  0.0100  0.3200 -0.1813
  906THF     H413709   3.061   2.449   4.826  1.8494  2.3013  0.4570
  906THF     H513710   2.970   2.554   4.945 -0.8025  1.3588  0.3341
  906THF     H613711   3.102   2.206   4.922  0.1457 -0.0484  2.0856
  906THF     H713712   3.002   2.185   5.071 -0.1072  1.1930 -2.3578
  906THF     C813713   2.880   2.243   4.904 -0.4593  0.0706 -0.1945
  906THF     C913714   2.856   2.392   4.882 -0.0341  0.7835 -0.6238
  906THF    H1013715   2.799   2.187   4.956  0.0517 -2.5863  0.9348
  906THF    H1113716   2.893   2.201   4.806  0.4318 -1.1536  0.4833
  906THF    H1213717   2.830   2.414   4.774  0.9680 -2.1571 -1.0753
  906THF    H1313718   2.777   2.426   4.949 -0.9102 -0.9914 -1.2152
  907THF     O113719   2.566   1.267   2.670  0.3513 -0.2655 -0.5938
  907THF     C213720   2.653   1.377   2.653 -0.4139 -0.1509  0.1473
  907THF     C313721   2.622   1.144   2.637  0.3003 -0.5715  0.0373
  907THF     H413722   2.651   1.449   2.738 -0.8459 -1.9972 -2.1045
  907THF     H513723   2.632   1.431   2.559  3.0166  0.9816 -1.7143
  907THF     H613724   2.646   1.099   2.731  0.3660 -0.5115 -3.5139
  907THF     H713725   2.551   1.082   2.580 -2.4212 -0.3559 -1.3960
  907THF     C813726   2.752   1.179   2.577 -0.5383  0.1123 -0.2745
  907THF     C913727   2.792   1.314   2.649 -0.6705 -0.0259  0.2117
  907THF    H1013728   2.731   1.189   2.477 -1.1706  0.1216 -1.9360
  907THF    H1113729   2.822   1.095   2.591 -0.5644  0.0597 -1.6358
  907THF    H1213730   2.834   1.304   2.755  1.8162  0.4799 -0.7998
  907THF    H1313731   2.866   1.375   2.595 -0.7155 -0.8258  0.5332
  908THF     O113732   3.467   4.420   5.492  0.0905 -0.0240  0.0662
  908THF     C213733   3.567   4.338   5.445 -0.2641  0.8954  0.4260
  908THF     C313734   3.521   4.524   5.576 -1.3792 -0.5581 -0.9173
  908THF     H413735   3.604   4.381   5.357 -1.3983 -1.0242 -0.0811
  908THF     H513736   3.530   4.234   5.409 -2.2665  0.5868 -0.4041
  908THF     H613737   3.510   4.626   5.532  0.4815  1.1606  1.6713
  908THF     H713738   3.474   4.522   5.671  0.6278  0.7926 -1.9896
  908THF     C813739   3.669   4.490   5.597  0.1151 -0.8285  0.2587
  908THF     C913740   3.671   4.339   5.559 -0.2872 -1.0128  1.0748
  908THF    H1013741   3.701   4.506   5.697  0.8239  0.2237  1.3985
  908THF    H1113742   3.724   4.560   5.530  2.7805  0.4782 -0.1539
  908THF    H1213743   3.765   4.302   5.521  1.1893 -0.7076 -0.3451
  908THF    H1313744   3.625   4.274   5.632  1.3556  3.1264 -1.6839
  909THF     O113745   4.547   5.454   2.204 -0.3239  0.0347  0.1655
  909THF     C213746   4.530   5.565   2.296  0.0272  0.4771 -0.3017
  909THF     C313747   4.477   5.492   2.085  0.5739 -0.0769 -0.1748
  909THF     H413748   4.615   5.580   2.362  1.2450 -0.8060 -1.4155
  909THF     H513749   4.441   5.543   2.356  0.9225 -1.6579 -0.2069
  909THF     H613750   4.528   5.448   1.997 -1.2760 -0.2402 -1.9010
  909THF     H713751   4.373   5.451   2.098 -0.0571  0.5297 -2.6660
  909THF     C813752   4.457   5.638   2.082  0.3376 -0.2342  0.7059
  909THF     C913753   4.514   5.693   2.208 -0.2479 -0.3674  0.7039
  909THF    H1013754   4.350   5.663   2.071  0.2438  0.1298  0.1839
  909THF    H1113755   4.513   5.673   1.987  0.6952  0.5634 -1.9169
  909THF    H1213756   4.612   5.745   2.193  1.1019  0.7450  1.8276
  909THF    H1313757   4.444   5.770   2.244  0.7602  0.0247 -0.7317
  910THF     O113758   4.515   0.935   3.319  0.3826 -0.3716 -0.1812
  910THF     C213759   4.506   0.809   3.377 -0.6839  0.5527 -0.0875
  910THF     C313760   4.596   1.014   3.409  1.0370 -0.2330  0.3237
  910THF     H413761   4.584   0.734   3.350  0.8635  1.6500  2.2518
  910THF     H513762   4.411   0.762   3.350 -0.2440 -0.3450  0.5992
  910THF     H613763   4.700   0.986   3.398  0.6458  0.5033 -1.0962
  910THF     H713764   4.591   1.118   3.379  0.3749 -1.7269 -1.9685
  910THF     C813765   4.544   0.976   3.546  0.8277 -0.1969  0.0976
  910THF     C913766   4.500   0.829   3.531  0.1578  0.1237  0.2198
  910THF    H1013767   4.466   1.035   3.582 -0.1752 -1.9278  0.5881
  910THF    H1113768   4.611   0.991   3.624 -0.9220  0.3809  0.6602
  910THF    H1213769   4.562   0.760   3.584 -2.4798  0.9393 -1.0091
  910THF    H1313770   4.399   0.819   3.571  1.6530 -1.8898  0.6399
  911THF     O113771   2.908   1.386   4.934  0.6096  0.3164 -0.5341
  911THF     C213772   2.769   1.360   4.914 -0.5341  0.2829  0.6320
  911THF     C313773   2.914   1.463   5.046 -0.0740 -0.2191 -0.5208
  911THF     H413774   2.748   1.282   4.834 -4.0213 -3.1469 -1.1882
  911THF     H513775   2.722   1.452   4.883 -1.3240  0.4030 -3.8808
  911THF     H613776   3.015   1.462   5.093  0.3482 -0.3577  1.6502
  911THF     H713777   2.889   1.568   5.019 -3.4045 -0.4436  2.0299
  911THF     C813778   2.816   1.400   5.142  0.0046  0.0135  0.1316
  911THF     C913779   2.725   1.320   5.053 -0.2967 -0.8116 -0.2695
  911THF    H1013780   2.763   1.478   5.207 -0.9012 -0.4222  3.0631
  911THF    H1113781   2.867   1.327   5.200  1.3999  0.8064 -1.0255
  911THF    H1213782   2.744   1.218   5.056 -3.0510  1.2464 -1.4386
  911THF    H1313783   2.618   1.336   5.068 -0.7935 -1.4679  0.3488
  912THF     O113784   0.807   5.218   2.878 -0.3129  0.0284  0.0362
  912THF     C213785   0.746   5.342   2.918 -0.0255  0.0120 -0.2802
  912THF     C313786   0.948   5.226   2.914  0.1133  0.1536 -0.4378
  912THF     H413787   0.636   5.334   2.924 -0.5613 -2.9436  1.7798
  912THF     H513788   0.764   5.420   2.853 -0.3726  1.1746  0.4397
  912THF     H613789   0.986   5.129   2.911  1.4769  0.3322 -0.0435
  912THF     H713790   1.005   5.289   2.839  2.3924  3.1833 -1.7581
  912THF     C813791   0.931   5.275   3.059 -0.1872  0.0009 -0.1272
  912THF     C913792   0.806   5.365   3.060  0.1219  0.2827  0.0668
  912THF    H1013793   1.019   5.340   3.083  1.2424  0.4491  1.3990
  912THF    H1113794   0.936   5.192   3.132  0.9068 -1.5453  0.4468
  912THF    H1213795   0.738   5.333   3.134 -2.1469 -2.3012 -2.4460
  912THF    H1313796   0.829   5.471   3.069  1.5936  2.5871  0.4349
  913THF     O113797   5.008   4.298   2.264 -0.2634 -0.0352 -0.6081
  913THF     C213798   4.930   4.296   2.381 -0.7289  0.3066 -0.1411
  913THF     C313799   4.920   4.287   2.147 -0.4922  0.1313 -0.5154
  913THF     H413800   4.936   4.399   2.421 -0.3924 -1.8698  1.0143
  913THF     H513801   4.957   4.208   2.448 -2.3525 -0.3877  0.3133
  913THF     H613802   4.958   4.351   2.070 -1.5648 -3.7338  0.2693
  913THF     H713803   4.933   4.194   2.098  0.3071  2.1503 -0.7708
  913THF     C813804   4.779   4.324   2.196  0.1388 -0.9897 -0.2445
  913THF     C913805   4.794   4.251   2.326  0.3790  0.3016  0.2254
  913THF    H1013806   4.699   4.300   2.128 -0.5104 -1.1372  0.6717
  913THF    H1113807   4.770   4.434   2.214  0.3638 -3.2441 -1.7506
  913THF    H1213808   4.705   4.287   2.382 -2.2982 -0.1292 -0.9630
  913THF    H1313809   4.796   4.138   2.302 -0.4650 -1.3525  0.9034
  914THF     O113810   2.060   4.374   3.984 -0.2464  0.0292 -0.1006
  914THF     C213811   2.102   4.420   4.114  0.2215  0.6940 -0.1408
  914THF     C313812   2.095   4.238   3.968  0.7480  0.4130 -0.4857
  914THF     H413813   2.032   4.504   4.149 -1.0036  1.1485  0.0907
  914THF     H513814   2.197   4.470   4.112 -3.2366  3.9355  1.8757
  914THF     H613815   2.045   4.189   3.885 -0.2052 -0.9537 -2.1198
  914THF     H713816   2.200   4.224   3.958 -3.0041 -0.5325 -1.7367
  914THF     C813817   2.061   4.177   4.111 -0.1270 -0.7250 -0.4198
  914THF     C913818   2.086   4.300   4.206  0.3029 -0.6620  0.2795
  914THF    H1013819   2.112   4.091   4.144 -2.6478  0.4422 -1.8513
  914THF    H1113820   1.955   4.148   4.114  0.3160 -0.0186 -0.3298
  914THF    H1213821   2.002   4.308   4.271  1.2956  0.1167 -0.2836
  914THF    H1313822   2.177   4.297   4.259  0.3541 -1.7664  2.6563
  915THF     O113823   5.231   0.715   4.051  1.0810  0.3098  0.1980
  915THF     C213824   5.215   0.682   4.186 -0.0583 -0.0151  0.1095
  915THF     C313825   5.195   0.851   4.031 -0.0734  0.5874  0.0570
  915THF     H413826   5.309   0.698   4.246 -0.5012  1.6080  1.8520
  915THF     H513827   5.199   0.575   4.203 -1.8408 -3.3688  0.2692
  915THF     H613828   5.271   0.912   4.070  1.7864 -0.0881 -2.6161
  915THF     H713829   5.187   0.870   3.929 -1.3509 -0.3691 -1.4053
  915THF     C813830   5.065   0.862   4.120 -0.0020  0.2605  0.8041
  915THF     C913831   5.098   0.768   4.234  0.0637  0.7325  0.3428
  915THF    H1013832   4.985   0.820   4.064 -2.3247 -1.1778 -0.1038
  915THF    H1113833   5.055   0.962   4.155  2.2119 -2.5116 -1.6528
  915THF    H1213834   5.114   0.827   4.325  2.6439 -2.8427  0.3364
  915THF    H1313835   5.010   0.705   4.244  0.1370  1.5827 -1.2971
  916THF     O113836   0.170   4.612   4.974 -0.5956 -0.2969 -0.2611
  916THF     C213837   0.203   4.492   4.913  0.9231 -0.0988 -0.8858
  916THF     C313838   0.033   4.624   5.008 -0.0919  0.8640 -0.0287
  916THF     H413839   0.296   4.458   4.953 -0.3464 -0.3627 -1.0761
  916THF     H513840   0.214   4.519   4.808 -2.2300  0.6728  1.3134
  916THF     H613841   0.021   4.682   5.099  2.5578 -0.4229  2.6543
  916THF     H713842  -0.020   4.667   4.927  0.3275  1.1890  0.0312
  916THF     C813843  -0.011   4.477   5.035 -0.5308  0.0460  0.1722
  916THF     C913844   0.080   4.404   4.935  0.5326  0.1796 -0.1515
  916THF    H1013845  -0.113   4.448   5.025  2.8852 -0.0377 -1.6557
  916THF    H1113846   0.030   4.447   5.135 -1.3844  0.4008  1.2905
  916THF    H1213847   0.122   4.318   4.979  0.2998 -0.6241 -0.8694
  916THF    H1313848   0.030   4.394   4.838  2.0054 -0.1165  4.9883
  917THF     O113849   1.672   1.445   2.971  0.2951  0.4717  0.1804
  917THF     C213850   1.713   1.308   2.955 -0.7892 -0.2484 -0.2165
  917THF     C313851   1.696   1.510   2.845 -0.1860  0.6344 -0.1345
  917THF     H413852   1.644   1.258   2.888  3.1657 -1.8171  1.6354
  917THF     H513853   1.709   1.257   3.049  1.2384 -1.2926 -0.1956
  917THF     H613854   1.619   1.477   2.779  0.0795  1.2777 -0.5587
  917THF     H713855   1.679   1.621   2.842 -2.9909  2.3366  1.4991
  917THF     C813856   1.834   1.456   2.800 -0.2610  0.3979 -0.0798
  917THF     C913857   1.847   1.328   2.887  0.3350 -0.3873  0.3101
  917THF    H1013858   1.919   1.519   2.818  0.6497  1.1047  0.3505
  917THF    H1113859   1.824   1.433   2.696 -1.1901  1.4341  0.7341
  917THF    H1213860   1.865   1.239   2.826 -0.2659 -2.1167 -0.7491
  917THF    H1313861   1.926   1.349   2.966  1.1035  1.8995  0.6932
  918THF     O113862   1.354   4.753   2.766  0.0300 -0.0873 -0.4118
  918THF     C213863   1.243   4.809   2.829  0.1426  0.0761 -0.2564
  918THF     C313864   1.468   4.772   2.851 -0.4628 -0.1214  0.0464
  918THF     H413865   1.211   4.736   2.897 -4.2561  0.7296  0.4632
  918THF     H513866   1.158   4.826   2.769  0.3596 -1.3432  2.4188
  918THF     H613867   1.472   4.691   2.924  1.9776 -1.9304 -1.4753
  918THF     H713868   1.563   4.772   2.791  1.5256 -3.4048 -0.3423
  918THF     C813869   1.445   4.910   2.907 -0.9675 -0.1846 -0.1450
  918THF     C913870   1.286   4.934   2.911 -0.3665 -0.3150 -0.2898
  918THF    H1013871   1.482   4.988   2.840  2.0785 -1.2641  1.2801
  918THF    H1113872   1.497   4.921   3.005  0.2191 -2.4891  0.5391
  918THF    H1213873   1.247   4.942   3.013 -0.6222  0.9123  1.1081
  918THF    H1313874   1.260   5.026   2.863  1.8207  0.2935  1.9602
  919THF     O113875   3.086   0.099   2.343  0.3885 -0.3729 -0.2477
  919THF     C213876   3.048   0.181   2.452 -0.1413  0.6287  0.1088
  919THF     C313877   3.119   0.183   2.236  0.2721 -0.4356  0.1860
  919THF     H413878   3.068   0.116   2.532 -2.2661 -3.5623 -1.3038
  919THF     H513879   2.940   0.209   2.458  1.0872 -0.4698  1.0140
  919THF     H613880   3.169   0.120   2.162 -1.3287  1.7221 -1.1769
  919THF     H713881   3.037   0.220   2.195  0.0338 -0.9666 -0.3493
  919THF     C813882   3.203   0.290   2.298  0.5882 -0.2344  0.5539
  919THF     C913883   3.140   0.304   2.435 -0.1234 -0.2866  0.5797
  919THF    H1013884   3.198   0.379   2.246 -1.2737 -2.8074 -2.7375
  919THF    H1113885   3.307   0.262   2.308  0.5136 -2.8124  0.3541
  919THF    H1213886   3.218   0.297   2.509 -2.4162 -0.6430  2.5677
  919THF    H1313887   3.095   0.401   2.444  0.8970  1.8671  0.3107
  920THF     O113888   2.438   1.988   3.642  0.3793  0.0436  0.0521
  920THF     C213889   2.571   2.010   3.678  0.7973  0.1330 -0.6236
  920THF     C313890   2.430   1.852   3.595  0.5477  0.5457 -0.2834
  920THF     H413891   2.576   1.969   3.780  1.8018 -0.6149  1.5715
  920THF     H513892   2.592   2.119   3.677  1.0845  1.0782  2.3488
  920THF     H613893   2.427   1.775   3.677 -0.5893  3.1948 -1.7553
  920THF     H713894   2.349   1.838   3.527 -0.4330  1.8165  1.3585
  920THF     C813895   2.559   1.837   3.509  0.9086 -0.3270  1.6586
  920THF     C913896   2.660   1.929   3.578  0.2980 -1.2800 -0.1543
  920THF    H1013897   2.552   1.857   3.404  1.4823 -1.8276  3.3963
  920THF    H1113898   2.590   1.731   3.495  1.4128 -4.1936  2.0162
  920THF    H1213899   2.737   1.875   3.621 -3.8617  1.1498 -2.3503
  920THF    H1313900   2.708   2.000   3.514  2.9997 -0.0499  1.2076
  921THF     O113901   5.175   1.551   1.321 -0.1932 -0.2524  0.1248
  921THF     C213902   5.046   1.583   1.356 -0.4109  0.1783  0.1848
  921THF     C313903   5.170   1.432   1.248 -0.1466 -0.3105  0.3763
  921THF     H413904   4.983   1.604   1.271  1.9608  0.8897  0.1095
  921THF     H513905   5.037   1.670   1.414 -0.7108 -0.6890 -1.5511
  921THF     H613906   5.135   1.450   1.137 -0.7176  0.5987 -2.8476
  921THF     H713907   5.262   1.363   1.248 -0.6291 -1.1377 -1.9056
  921THF     C813908   5.050   1.359   1.313 -0.2412  0.6689 -0.1932
  921THF     C913909   4.993   1.452   1.421  0.1531  0.4718  0.1241
  921THF    H1013910   5.087   1.268   1.356  2.2426  0.6182 -1.1930
  921THF    H1113911   4.973   1.329   1.241 -0.2340 -2.5310  1.5825
  921THF    H1213912   4.888   1.450   1.443  0.7583  1.3163 -0.7406
  921THF    H1313913   5.036   1.422   1.511 -1.6453  2.6891 -2.0144
  922THF     O113914   3.578   2.717   4.548 -0.0651  0.2152 -0.0318
  922THF     C213915   3.509   2.595   4.551 -0.5120  0.0304  0.2517
  922THF     C313916   3.698   2.697   4.472  0.8820  0.8672  0.4535
  922THF     H413917   3.397   2.594   4.562  1.2862  0.0959 -0.2140
  922THF     H513918   3.559   2.545   4.630  0.7741  0.7795  3.4603
  922THF     H613919   3.718   2.787   4.412  1.8082  1.6634 -0.7419
  922THF     H713920   3.782   2.692   4.539  1.6325  0.2188  0.0590
  922THF     C813921   3.679   2.572   4.390  0.0811  0.0480 -0.3156
  922THF     C913922   3.534   2.527   4.417  0.1104  0.4343  0.4545
  922THF    H1013923   3.746   2.494   4.428 -0.4892 -0.6140 -2.8462
  922THF    H1113924   3.696   2.597   4.283  0.0980 -1.0928  2.7531
  922THF    H1213925   3.461   2.558   4.349  2.3286  0.3343  2.9492
  922THF    H1313926   3.530   2.411   4.427  0.2473  0.0199  1.7242
  923THF     O113927   4.667   0.291   1.397 -0.2957 -0.0516 -0.2684
  923THF     C213928   4.709   0.373   1.292 -0.7539 -0.0348  1.1361
  923THF     C313929   4.551   0.360   1.461 -0.2739 -0.0971 -0.0900
  923THF     H413930   4.765   0.311   1.218  0.3926  0.8027  2.3310
  923THF     H513931   4.772   0.457   1.326 -0.4709 -2.0956  2.7996
  923THF     H613932   4.460   0.304   1.460  0.3716  0.5969 -2.4820
  923THF     H713933   4.560   0.379   1.570  0.4012 -1.4676  0.6504
  923THF     C813934   4.520   0.479   1.372  0.2869 -0.3635  0.2740
  923THF     C913935   4.582   0.445   1.248 -0.0981  0.1490  0.4236
  923THF    H1013936   4.561   0.571   1.412 -0.7190 -1.7557  0.2023
  923THF    H1113937   4.414   0.486   1.362  2.3622 -1.6069  1.1027
  923THF    H1213938   4.513   0.381   1.199 -3.5083  1.6213 -1.0731
  923THF    H1313939   4.618   0.532   1.190  1.2191  0.0771 -1.1407
  924THF     O113940   0.993   4.832   0.868 -0.3408  0.7023  0.2832
  924THF     C213941   0.874   4.892   0.904 -0.4383 -0.0572 -0.0587
  924THF     C313942   0.974   4.708   0.800  0.1472 -1.3835  0.5754
  924THF     H413943   0.907   4.996   0.917  0.3667 -1.6543 -1.3935
  924THF     H513944   0.837   4.849   0.994  1.4351  0.5251 -0.5414
  924THF     H613945   1.049   4.681   0.728 -3.1622  1.5339 -1.7218
  924THF     H713946   0.985   4.638   0.880  1.0473  1.5955  2.3512
  924THF     C813947   0.829   4.726   0.745 -0.3499 -0.5196 -0.2585
  924THF     C913948   0.772   4.854   0.799 -0.4102  0.6773 -0.5018
  924THF    H1013949   0.773   4.635   0.767  1.1504 -2.6190  0.6451
  924THF    H1113950   0.834   4.726   0.633 -0.0618  0.4903 -2.1850
  924THF    H1213951   0.773   4.930   0.722  1.2469 -1.8361  2.2707
  924THF    H1313952   0.671   4.848   0.847 -0.7814  1.1372 -2.5521
  925THF     O113953   0.336   4.940   3.936  0.0437 -0.0677 -0.4944
  925THF     C213954   0.275   4.981   4.065  0.2561  0.4551  0.2927
  925THF     C313955   0.464   5.000   3.931 -1.3019  0.2495  0.5178
  925THF     H413956   0.301   4.900   4.135 -1.7525 -0.4865 -0.2772
  925THF     H513957   0.168   4.960   4.062 -2.6508  0.9280 -0.7082
  925THF     H613958   0.541   4.940   3.985 -1.1141 -0.7112  0.3496
  925THF     H713959   0.489   5.016   3.819 -0.7503  1.4926 -0.4097
  925THF     C813960   0.446   5.136   3.999  0.0293  0.3544  0.3305
  925THF     C913961   0.333   5.121   4.109  0.4038  0.4294 -0.6710
  925THF    H1013962   0.418   5.209   3.922  0.0521  1.9299 -0.3622
  925THF    H1113963   0.541   5.178   4.035 -0.2268 -1.9895 -0.7528
  925THF    H1213964   0.377   5.127   4.217  1.5560 -0.4641 -1.3568
  925THF    H1313965   0.264   5.203   4.102 -1.2976  1.3356  1.8877
  926THF     O113966   1.897   1.227   4.305  0.0480 -0.1009 -0.5761
  926THF     C213967   1.924   1.107   4.371  0.0495 -0.1123 -0.0336
  926THF     C313968   1.760   1.232   4.284  0.4373 -0.3249  0.1467
  926THF     H413969   1.940   1.129   4.479 -0.2963  1.4831  0.8484
  926THF     H513970   2.015   1.071   4.326 -1.3684  0.0421 -1.6055
  926THF     H613971   1.711   1.256   4.384 -2.3826  1.8678  0.2421
  926THF     H713972   1.725   1.310   4.216 -0.5803 -1.9831 -1.1786
  926THF     C813973   1.726   1.092   4.244  0.1015 -0.4073  0.4153
  926THF     C913974   1.814   1.013   4.329  0.2193  0.2538 -0.2490
  926THF    H1013975   1.754   1.070   4.140  1.6087  1.6558  1.7187
  926THF    H1113976   1.622   1.068   4.258  0.1078  0.3388  0.7374
  926THF    H1213977   1.757   0.980   4.417  2.2416 -1.3309  2.6938
  926THF    H1313978   1.850   0.924   4.271 -2.6898 -1.8718  1.6657
  927THF     O113979   4.031   1.372   2.417 -0.4066 -0.1915 -0.6685
  927THF     C213980   4.028   1.396   2.559  0.0914  0.9060  1.2426
  927THF     C313981   3.937   1.272   2.394  0.4819 -0.1275 -0.1521
  927THF     H413982   3.951   1.461   2.590 -0.7609 -0.0140 -1.2459
  927THF     H513983   4.120   1.439   2.591 -0.7608 -0.5687 -2.9829
  927THF     H613984   3.836   1.315   2.412 -1.0638 -3.1622  1.4197
  927THF     H713985   3.944   1.227   2.296 -0.8695 -1.5786 -0.1312
  927THF     C813986   3.960   1.177   2.507 -1.3071 -0.1919  0.6300
  927THF     C913987   4.013   1.263   2.624  0.0238  0.4846  0.5781
  927THF    H1013988   4.039   1.103   2.476  1.5540 -2.1601  0.6714
  927THF    H1113989   3.875   1.113   2.529 -0.4370 -0.1783 -0.3220
  927THF    H1213990   3.945   1.266   2.711 -1.6271 -1.3637  0.2950
  927THF    H1313991   4.109   1.223   2.661  0.2463 -2.2171  2.0376
  928THF     O113992   0.250   3.103   4.356  0.1384  0.3167  0.0491
  928THF     C213993   0.163   3.141   4.462 -0.0098  0.1336 -0.5313
  928THF     C313994   0.380   3.076   4.414  0.3521  0.5998  0.2945
  928THF     H413995   0.141   3.064   4.539  0.7739  0.7319 -0.3975
  928THF     H513996   0.067   3.170   4.424 -1.3335  1.2293  0.9326
  928THF     H613997   0.370   2.974   4.453 -2.1089  0.3302  0.3641
  928THF     H713998   0.456   3.085   4.340 -2.2502 -0.2951  1.4297
  928THF     C813999   0.384   3.183   4.524 -0.0394 -0.4715 -0.1603
  928THF     C914000   0.246   3.252   4.530 -0.2917  0.3435 -0.2279
  928THF    H1014001   0.463   3.249   4.497 -2.0660 -0.8208 -0.5781
  928THF    H1114002   0.408   3.126   4.613 -1.8594 -0.9093 -3.3516
  928THF    H1214003   0.210   3.277   4.632  0.1125 -0.6497  2.6790
  928THF    H1314004   0.248   3.342   4.477 -4.3151 -0.5729  3.3920
  929THF     O114005   1.907   2.674   3.176 -0.0606  0.5613  0.3596
  929THF     C214006   1.961   2.801   3.132  0.0210  0.3441 -0.3487
  929THF     C314007   1.976   2.579   3.093 -0.5954 -0.4431 -0.2229
  929THF     H414008   2.063   2.825   3.170  1.2044 -2.4877  0.7583
  929THF     H514009   1.894   2.871   3.168  2.7607 -2.2075  0.3388
  929THF     H614010   2.080   2.561   3.111 -0.0412 -0.0526  0.2379
  929THF     H714011   1.934   2.479   3.092  2.5029 -1.9563  1.3057
  929THF     C814012   1.952   2.642   2.960 -0.0666  0.4419 -0.1317
  929THF     C914013   1.956   2.797   2.977  1.1189  0.8103  0.6994
  929THF    H1014014   1.861   2.600   2.910  0.5545 -0.0878  1.2923
  929THF    H1114015   2.031   2.618   2.898  0.2580 -1.6618 -0.1054
  929THF    H1214016   2.042   2.841   2.927  0.0342  0.0193  1.5870
  929THF    H1314017   1.866   2.846   2.944 -1.0564  2.0858  1.0622
  930THF     O114018   5.348   5.103   5.014  0.7267  0.3668  0.0553
  930THF     C214019   5.206   5.083   5.009 -0.0998 -0.6096  0.7857
  930THF     C314020   5.408   4.988   4.974 -0.3712  0.3829  0.1184
  930THF     H414021   5.157   5.163   4.957 -2.5626 -2.0681 -1.5415
  930THF     H514022   5.172   5.081   5.108  0.6894 -1.1983  0.8115
  930THF     H614023   5.506   5.012   4.939  0.4585 -1.9262 -2.5243
  930THF     H714024   5.430   4.923   5.059  1.3515  0.3289  0.7962
  930THF     C814025   5.317   4.927   4.868  0.4153 -0.3873  0.8159
  930THF     C914026   5.180   4.956   4.926  0.4157 -0.1297 -0.8230
  930THF    H1014027   5.345   4.818   4.845  0.3466 -2.9458 -3.1045
  930THF    H1114028   5.329   4.988   4.776 -1.1422 -0.6938 -2.0557
  930THF    H1214029   5.110   4.981   4.848  0.7764  1.9390 -1.4496
  930THF    H1314030   5.140   4.873   4.988  2.4308  0.2522  0.1768
  931THF     O114031   4.585   0.125   4.512  0.2079 -0.8778  0.2238
  931THF     C214032   4.462   0.095   4.587 -0.1381  0.0659 -0.4300
  931THF     C314033   4.679   0.201   4.594 -0.7070  0.1665  0.2624
  931THF     H414034   4.423  -0.004   4.580  0.5858  0.5332  1.0649
  931THF     H514035   4.386   0.162   4.545 -1.8865  0.6041 -0.5558
  931THF     H614036   4.765   0.133   4.607 -0.1527 -0.6719 -0.8185
  931THF     H714037   4.713   0.286   4.542  0.8154  0.6695 -0.2860
  931THF     C814038   4.596   0.255   4.715 -0.1492 -0.6057 -0.1336
  931THF     C914039   4.499   0.145   4.730  0.0780 -0.4662 -0.3563
  931THF    H1014040   4.549   0.351   4.694 -1.0473  0.2324 -0.2178
  931THF    H1114041   4.644   0.273   4.805 -1.4631 -2.8999 -1.0315
  931THF    H1214042   4.549   0.074   4.794  2.1853  0.7525  0.1558
  931THF    H1314043   4.410   0.188   4.788  2.2227  2.6718  0.0046
  932THF     O114044   0.159   4.189   3.363  0.2437  0.0084 -0.6630
  932THF     C214045   0.237   4.072   3.334 -0.2601 -0.0857  0.0052
  932THF     C314046   0.208   4.287   3.282  0.2820  0.2682 -0.0778
  932THF     H414047   0.205   3.973   3.372  2.7268  3.4039 -0.2341
  932THF     H514048   0.325   4.084   3.399  2.6463  0.0456  1.4616
  932THF     H614049   0.126   4.361   3.265 -2.8805 -0.1823  0.7078
  932THF     H714050   0.294   4.335   3.316 -1.3932  0.3234 -1.8549
  932THF     C814051   0.251   4.222   3.146  0.0220  0.0730 -0.2282
  932THF     C914052   0.268   4.078   3.187  0.3781 -0.6563 -0.0169
  932THF    H1014053   0.345   4.265   3.104 -1.0950 -0.3224 -1.9153
  932THF    H1114054   0.169   4.237   3.084  1.1583 -1.4918  0.4716
  932THF    H1214055   0.196   4.018   3.124 -3.1009  0.8553 -1.1662
  932THF    H1314056   0.369   4.043   3.163 -1.0266 -1.6998  0.1162
  933THF     O114057   2.478   2.875   2.451  0.1605 -0.0761  0.3156
  933THF     C214058   2.366   2.803   2.412 -0.8902 -0.3535  0.2872
  933THF     C314059   2.481   2.861   2.589 -0.2232  0.0346 -0.1188
  933THF     H414060   2.377   2.695   2.412 -2.1270 -0.9002 -1.3722
  933THF     H514061   2.351   2.832   2.308 -0.0434  0.6769  1.1481
  933THF     H614062   2.518   2.758   2.598  0.1828 -1.5060  0.4995
  933THF     H714063   2.538   2.944   2.638 -1.3257 -2.0754  0.9184
  933THF     C814064   2.340   2.880   2.638 -0.1621 -0.2899 -0.5241
  933THF     C914065   2.260   2.848   2.516  0.1205 -0.0777 -0.5899
  933THF    H1014066   2.339   2.984   2.678  0.3989  1.5457  1.8070
  933THF    H1114067   2.319   2.813   2.724 -0.8817  2.0442 -0.4401
  933THF    H1214068   2.192   2.770   2.549  3.5388  0.4752  0.1126
  933THF    H1314069   2.207   2.942   2.479  1.9927  0.6816  1.0186
  934THF     O114070   2.934   2.196   0.321  0.1941  0.0920  0.3517
  934THF     C214071   3.040   2.264   0.255  0.1566  0.2000 -0.4013
  934THF     C314072   2.980   2.095   0.406  0.3373  0.4510 -0.5789
  934THF     H414073   3.039   2.370   0.271 -1.9747  1.3663  0.6166
  934THF     H514074   3.024   2.236   0.154 -0.2729 -1.4263  0.0756
  934THF     H614075   2.963   2.115   0.516 -0.7129 -0.1838  1.3356
  934THF     H714076   2.906   2.012   0.384 -0.7442 -1.9432 -1.2802
  934THF     C814077   3.126   2.066   0.376  0.1864 -0.2465  0.2622
  934THF     C914078   3.161   2.198   0.316 -1.5194 -0.0066 -0.1284
  934THF    H1014079   3.140   1.990   0.302 -0.5213 -1.3621 -0.0436
  934THF    H1114080   3.196   2.056   0.464  1.2737  0.1809 -0.6848
  934THF    H1214081   3.195   2.261   0.397 -1.4382  1.0720  1.1258
  934THF    H1314082   3.242   2.186   0.240  3.0772  1.8428 -1.0513
  935THF     O114083   3.760   4.916   4.022 -0.2074  0.2075  0.0621
  935THF     C214084   3.715   4.865   4.145  0.7240 -0.2481  0.1277
  935THF     C314085   3.850   5.017   4.056 -0.0592 -0.1418  0.3302
  935THF     H414086   3.691   4.764   4.122  2.3806 -0.6891  0.2779
  935THF     H514087   3.611   4.901   4.168 -2.8356  2.8355  0.2650
  935THF     H614088   3.917   5.043   3.972  0.1756 -3.1218 -2.1650
  935THF     H714089   3.784   5.102   4.080 -0.8267  1.0223  2.3640
  935THF     C814090   3.922   4.954   4.172  0.4202 -0.9068 -0.1468
  935THF     C914091   3.819   4.885   4.248  0.3518  0.5488 -0.4134
  935THF    H1014092   3.981   5.025   4.226  3.4626  0.9053  1.7105
  935THF    H1114093   4.001   4.877   4.144  1.9129 -0.5512  1.3419
  935THF    H1214094   3.850   4.788   4.288 -2.3785  0.1035  0.2653
  935THF    H1314095   3.782   4.947   4.329 -1.8198 -0.7591  0.2230
  936THF     O114096   2.971   4.736   2.008 -0.3502  0.1135  0.3408
  936THF     C214097   3.095   4.681   2.019  0.4978 -0.4643 -0.0472
  936THF     C314098   2.945   4.795   2.135 -0.3196 -0.1507 -0.1776
  936THF     H414099   3.132   4.672   1.923 -2.4813  2.0721 -0.6653
  936THF     H514100   3.096   4.596   2.084 -0.3688 -0.5512  2.2104
  936THF     H614101   2.858   4.865   2.132 -1.1355 -1.5239 -1.6327
  936THF     H714102   2.918   4.723   2.223  0.5053 -1.0055 -2.2773
  936THF     C814103   3.080   4.867   2.164  0.4814  0.0416  0.1312
  936THF     C914104   3.180   4.789   2.085 -0.0387  0.0088  0.9093
  936THF    H1014105   3.100   4.858   2.268  0.5392 -2.2149 -2.3566
  936THF    H1114106   3.079   4.973   2.130  0.2672  1.5279 -0.7248
  936THF    H1214107   3.233   4.847   2.003  4.8156  1.2433 -0.9526
  936THF    H1314108   3.263   4.748   2.149 -2.0369 -0.1189 -1.0818
  937THF     O114109   4.385   2.128   2.479 -0.0402  0.0817  0.0441
  937THF     C214110   4.349   2.255   2.426  0.6648 -0.1321  0.0464
  937THF     C314111   4.478   2.152   2.587 -0.5721  0.2234 -0.2118
  937THF     H414112   4.261   2.246   2.359  2.7965 -0.3891 -0.3193
  937THF     H514113   4.424   2.303   2.376 -1.8098 -0.5570  1.7477
  937THF     H614114   4.452   2.068   2.649  0.2098 -0.8182  3.3609
  937THF     H714115   4.586   2.160   2.574 -0.2148  1.0543 -2.5373
  937THF     C814116   4.434   2.288   2.648  0.2983 -0.2892  0.1132
  937THF     C914117   4.320   2.331   2.559  0.2369 -0.9071 -0.5371
  937THF    H1014118   4.502   2.372   2.666 -0.9805  0.9088  0.7482
  937THF    H1114119   4.394   2.271   2.750 -1.4771 -1.7353 -0.5041
  937THF    H1214120   4.217   2.316   2.596  2.6544  1.7476 -1.5560
  937THF    H1314121   4.323   2.438   2.539 -0.6223 -0.8700 -0.1969
  938THF     O114122   3.583   2.326   0.167  0.1209 -0.2426 -0.3099
  938THF     C214123   3.572   2.290   0.302  0.2309  0.0421 -0.5778
  938THF     C314124   3.720   2.344   0.146  0.4061 -0.0071 -0.0760
  938THF     H414125   3.587   2.181   0.316 -1.4175 -2.6094  0.7512
  938THF     H514126   3.470   2.303   0.344 -0.0202  0.6527  1.3777
  938THF     H614127   3.775   2.251   0.153  0.3788  0.5336 -1.8265
  938THF     H714128   3.747   2.386   0.053  0.9217  0.1218  1.4146
  938THF     C814129   3.759   2.425   0.267 -1.2851 -0.0896 -0.9678
  938THF     C914130   3.672   2.370   0.376 -0.1073  0.2850  0.3415
  938THF    H1014131   3.729   2.526   0.245  1.4210  0.1359  0.7885
  938THF    H1114132   3.861   2.422   0.297 -1.8233  0.0721 -3.8864
  938THF    H1214133   3.735   2.315   0.445  0.0101 -1.7491  0.6571
  938THF    H1314134   3.628   2.455   0.431 -1.3181  4.2097 -0.7600
  939THF     O114135   4.830   5.345   2.336  0.0991 -0.0748 -0.7484
  939THF     C214136   4.763   5.245   2.268  0.1284 -0.2576 -0.1575
  939THF     C314137   4.825   5.323   2.473  0.8477 -0.7697  0.1889
  939THF     H414138   4.819   5.151   2.254 -1.7230  1.4571  0.1772
  939THF     H514139   4.719   5.284   2.172 -1.7425  1.5518 -0.8377
  939THF     H614140   4.932   5.298   2.500 -0.5338  0.2172  1.2069
  939THF     H714141   4.811   5.414   2.531 -1.7569 -0.7204  0.7171
  939THF     C814142   4.730   5.209   2.503 -0.2490  0.0970 -0.6506
  939THF     C914143   4.650   5.205   2.369 -0.3551  0.8562  0.2936
  939THF    H1014144   4.666   5.237   2.590  2.2892  2.9840 -1.2883
  939THF    H1114145   4.789   5.117   2.519 -1.5424  2.0198  0.2182
  939THF    H1214146   4.598   5.111   2.347 -3.3703  0.5059  1.5738
  939THF    H1314147   4.569   5.277   2.380 -1.2083  0.3131  3.7805
  940THF     O114148   2.952   0.479   2.985 -0.2869 -0.1263  0.4021
  940THF     C214149   2.962   0.538   2.856  0.4938  0.5316 -0.3875
  940THF     C314150   3.071   0.402   2.998  0.3168 -0.5921 -0.3988
  940THF     H414151   3.026   0.617   2.868  0.2566 -0.9982  1.5948
  940THF     H514152   2.872   0.575   2.817 -0.6460 -1.8763  0.8920
  940THF     H614153   3.151   0.462   3.042 -1.5324 -2.0759 -1.5696
  940THF     H714154   3.063   0.327   3.080 -0.4006 -1.8528  1.4880
  940THF     C814155   3.091   0.343   2.854 -0.2344  0.0647  0.4037
  940THF     C914156   3.024   0.440   2.764 -0.1113 -0.2084  1.1417
  940THF    H1014157   3.049   0.248   2.855  1.4476  1.8317  0.5712
  940THF    H1114158   3.194   0.328   2.831  0.6670 -1.8460 -0.6373
  940THF    H1214159   3.099   0.494   2.699  0.8980  0.7885 -0.4811
  940THF    H1314160   2.953   0.404   2.687 -2.9583 -1.2021  2.8703
  941THF     O114161   4.202   1.644   3.488 -0.5455 -0.5247 -0.5264
  941THF     C214162   4.225   1.765   3.546  0.3659 -0.4410 -0.2600
  941THF     C314163   4.205   1.666   3.348 -0.0689 -0.7656  0.8295
  941THF     H414164   4.330   1.780   3.552 -0.2471  2.2870  1.0791
  941THF     H514165   4.193   1.760   3.647 -0.9736  1.7704 -0.4311
  941THF     H614166   4.308   1.631   3.312  0.7732 -1.8895 -1.5984
  941THF     H714167   4.134   1.614   3.294  1.6144  1.0143  0.0829
  941THF     C814168   4.189   1.815   3.321  0.4889 -0.6393  0.6844
  941THF     C914169   4.165   1.877   3.460 -0.3305  0.1548  0.0724
  941THF    H1014170   4.105   1.841   3.254  2.9930 -0.5364 -2.7843
  941THF    H1114171   4.286   1.844   3.274  1.2265 -0.7687  1.2991
  941THF    H1214172   4.208   1.981   3.469  0.5448 -0.1143 -0.5880
  941THF    H1314173   4.058   1.885   3.476 -0.6708 -2.9995  0.0326
  942THF     O114174   1.410   3.893   2.362 -0.0368  0.4198 -0.2962
  942THF     C214175   1.481   4.006   2.419  0.1762  0.7694  0.2205
  942THF     C314176   1.408   3.787   2.455 -0.4981  0.0077  0.1678
  942THF     H414177   1.420   4.074   2.486 -1.0835 -0.7794 -0.3643
  942THF     H514178   1.530   4.061   2.340  1.1793  0.0296  2.0844
  942THF     H614179   1.321   3.809   2.512  2.5685 -0.5901  0.2671
  942THF     H714180   1.381   3.687   2.413 -3.7098 -1.6265  1.0082
  942THF     C814181   1.516   3.809   2.559 -0.3947  0.3812  0.1423
  942THF     C914182   1.585   3.936   2.516 -0.1122 -0.1594  0.4441
  942THF    H1014183   1.583   3.723   2.566 -2.3081 -1.1015 -0.2839
  942THF    H1114184   1.467   3.819   2.657  1.9828 -1.2769  2.3422
  942THF    H1214185   1.601   4.003   2.596  0.2903  0.5449  1.1886
  942THF    H1314186   1.678   3.916   2.467 -0.1392  0.3143 -1.6355
  943THF     O114187   1.611   1.992   4.515  0.4356  0.4153 -0.2329
  943THF     C214188   1.634   2.115   4.584 -0.6745  0.5685  0.2790
  943THF     C314189   1.474   1.957   4.528 -0.0631 -0.6203 -0.5418
  943THF     H414190   1.598   2.193   4.512 -1.0129 -0.3734  1.3179
  943THF     H514191   1.744   2.122   4.600 -1.0991  1.3080  1.2260
  943THF     H614192   1.417   2.016   4.448 -0.3396  4.0745  1.0066
  943THF     H714193   1.475   1.849   4.523  0.7042 -0.3170 -0.3702
  943THF     C814194   1.434   2.018   4.670 -0.4575  0.2979 -0.4441
  943THF     C914195   1.551   2.101   4.713  0.0368 -0.2102 -0.6192
  943THF    H1014196   1.432   1.939   4.749  0.2452  1.3878 -0.5610
  943THF    H1114197   1.341   2.082   4.663 -0.4259  0.3654  0.6606
  943THF    H1214198   1.523   2.209   4.748  0.9313 -0.6876  1.3152
  943THF    H1314199   1.598   2.052   4.799  0.5712 -0.9465 -0.0922
  944THF     O114200   1.925   0.560   4.802 -0.3542 -0.2620 -0.3310
  944THF     C214201   1.912   0.423   4.813  0.4295 -0.1452 -0.8846
  944THF     C314202   1.940   0.597   4.669 -0.4581 -0.2904 -0.5035
  944THF     H414203   1.866   0.401   4.910 -1.8920  0.2759 -0.6319
  944THF     H514204   2.008   0.378   4.810  0.7668  0.2031 -0.2484
  944THF     H614205   1.909   0.697   4.652 -1.4126  0.1668 -2.0827
  944THF     H714206   2.046   0.595   4.631  0.1545 -1.7057  0.0771
  944THF     C814207   1.863   0.498   4.587  1.1053 -0.1281  0.1989
  944THF     C914208   1.827   0.395   4.686  0.0604  0.1541  0.3746
  944THF    H1014209   1.914   0.453   4.497  0.3081 -3.1137  0.7678
  944THF    H1114210   1.771   0.549   4.548  0.9794  3.1324 -2.7490
  944THF    H1214211   1.722   0.405   4.704  3.8308 -0.9557  0.0387
  944THF    H1314212   1.853   0.300   4.654  0.2641  2.3618  2.6902
  945THF     O114213   3.005   3.963   1.358 -0.2011 -0.0570 -0.4539
  945THF     C214214   3.075   4.033   1.465 -0.1431 -0.0767 -0.1892
  945THF     C314215   3.068   3.992   1.235  0.9751  0.1201  0.1791
  945THF     H414216   3.161   3.988   1.515 -1.6990 -1.5262 -2.7830
  945THF     H514217   3.002   4.062   1.539  0.2961  0.3819 -1.7002
  945THF     H614218   3.096   3.904   1.180 -2.1975 -0.5369  1.4512
  945THF     H714219   3.001   4.046   1.176  0.2601  2.6288  0.0721
  945THF     C814220   3.181   4.093   1.268 -0.1849  0.2639 -0.2958
  945THF     C914221   3.132   4.149   1.400 -0.4678  0.0996 -0.0613
  945THF    H1014222   3.189   4.171   1.186  1.9581 -3.5232 -0.9439
  945THF    H1114223   3.272   4.029   1.267 -1.0247 -0.4020  0.4000
  945THF    H1214224   3.213   4.189   1.460 -1.5031  0.0326  1.0541
  945THF    H1314225   3.053   4.225   1.378 -0.1242 -1.0771 -0.2765
  946THF     O114226   0.621   4.468   1.611 -0.4091  0.3475 -0.6219
  946THF     C214227   0.494   4.423   1.556  1.2235 -0.0603 -0.0033
  946THF     C314228   0.642   4.413   1.744 -0.3739  0.3115  0.4467
  946THF     H414229   0.513   4.325   1.510 -2.0255  0.4085  3.1308
  946THF     H514230   0.437   4.485   1.484 -0.8508  2.2413 -1.1343
  946THF     H614231   0.730   4.347   1.738 -0.0183 -1.1663  0.1426
  946THF     H714232   0.674   4.490   1.816  3.1094 -0.6473 -1.2341
  946THF     C814233   0.525   4.334   1.770 -0.0452  0.5187 -0.0637
  946THF     C914234   0.418   4.378   1.679 -0.6990  0.2731  0.3726
  946THF    H1014235   0.489   4.339   1.875 -2.3640  2.5995  1.0266
  946THF    H1114236   0.550   4.232   1.738  1.0419  0.3098  2.1385
  946THF    H1214237   0.344   4.301   1.659  0.7551 -1.0762 -0.3525
  946THF    H1314238   0.366   4.467   1.719 -2.1838  0.6607 -2.7466
  947THF     O114239   3.369   5.250   2.538 -0.4329 -0.0998 -0.1695
  947THF     C214240   3.298   5.126   2.568 -0.1732  0.1668  0.0549
  947THF     C314241   3.267   5.337   2.484 -0.6512  0.4953 -0.2301
  947THF     H414242   3.239   5.137   2.653 -0.0973 -2.2485 -2.4273
  947THF     H514243   3.377   5.053   2.589  0.4585 -1.4245  2.0823
  947THF     H614244   3.200   5.374   2.564 -0.0271 -1.7287 -0.2895
  947THF     H714245   3.303   5.423   2.424  1.2800 -2.2574 -1.2666
  947THF     C814246   3.208   5.246   2.377  0.3284 -0.3327 -0.4932
  947THF     C914247   3.212   5.106   2.447 -0.3654 -0.3789 -1.0692
  947THF    H1014248   3.272   5.233   2.287 -1.0013 -2.2219  1.0937
  947THF    H1114249   3.112   5.277   2.336  1.0924  2.2999 -0.2641
  947THF    H1214250   3.110   5.081   2.474  0.5306  1.3201  0.3851
  947THF    H1314251   3.259   5.027   2.390 -0.9357 -0.7589  0.9306
  948THF     O114252   5.024   4.484   3.896  0.4420 -0.1929 -0.0528
  948THF     C214253   4.964   4.423   3.786  0.4717 -0.0010 -0.3804
  948THF     C314254   4.996   4.619   3.888 -0.0258 -1.0793  0.0431
  948THF     H414255   4.945   4.316   3.803  2.4251 -2.5229  1.1537
  948THF     H514256   5.025   4.441   3.696  3.2269  1.0541 -1.0447
  948THF     H614257   5.010   4.658   3.988  0.9056 -1.9670 -0.8882
  948THF     H714258   5.061   4.664   3.811  1.4404 -0.8080 -0.8843
  948THF     C814259   4.845   4.625   3.850  0.0190 -0.4585  0.3098
  948THF     C914260   4.826   4.496   3.774  0.0965 -0.2004 -0.2108
  948THF    H1014261   4.827   4.716   3.792  0.8417  1.3276  0.7624
  948THF    H1114262   4.777   4.628   3.929 -1.7015 -0.1967 -1.7885
  948THF    H1214263   4.754   4.431   3.823 -2.0173 -2.1348 -0.1067
  948THF    H1314264   4.797   4.510   3.676  2.6169  1.0456  0.7508
  949THF     O114265   2.981   3.967   2.456  0.0443 -0.3983  0.3299
  949THF     C214266   2.851   3.964   2.517  0.1708  0.1184  0.0271
  949THF     C314267   3.052   3.868   2.529  0.1314 -0.1163  0.3865
  949THF     H414268   2.800   3.874   2.476  1.4368 -0.6722  1.5663
  949THF     H514269   2.793   4.056   2.500 -1.9490  3.5815 -0.3978
  949THF     H614270   3.019   3.765   2.506 -0.3909 -0.8580  0.1891
  949THF     H714271   3.161   3.869   2.499 -0.2716 -0.1741  1.2328
  949THF     C814272   3.026   3.906   2.674  0.2212  0.5611  0.2999
  949THF     C914273   2.883   3.944   2.663 -0.6899 -0.8519  0.1400
  949THF    H1014274   3.088   3.993   2.685  1.1655 -0.9508 -0.9924
  949THF    H1114275   3.039   3.818   2.749  1.2929 -0.3718 -0.2642
  949THF    H1214276   2.809   3.881   2.711 -2.0258 -0.1259 -0.4489
  949THF    H1314277   2.862   4.023   2.730  1.3492  1.9256  2.0804
  950THF     O114278   4.740   4.018   4.039  0.1487  0.1809  0.3578
  950THF     C214279   4.682   3.907   3.985  0.8876 -0.3263  0.1222
  950THF     C314280   4.666   4.135   4.014  0.3397 -1.0093  0.4442
  950THF     H414281   4.597   3.881   4.052  1.8754  2.0799  0.9130
  950THF     H514282   4.746   3.824   3.963 -0.9600 -0.7649 -1.8185
  950THF     H614283   4.595   4.145   4.091 -1.4637 -1.2221  0.8646
  950THF     H714284   4.716   4.221   4.000 -2.2723 -2.8180 -0.7021
  950THF     C814285   4.594   4.099   3.878  1.2005 -0.5400 -0.5144
  950THF     C914286   4.649   3.966   3.846 -0.0391  0.0130  0.3657
  950THF    H1014287   4.617   4.172   3.799 -2.1677  1.4068  1.2900
  950THF    H1114288   4.485   4.093   3.885  2.4265  1.0357  0.0647
  950THF    H1214289   4.580   3.899   3.792 -0.2086 -0.2239  0.6984
  950THF    H1314290   4.736   3.973   3.788 -3.4675 -0.1604 -0.4935
  951THF     O114291   4.016   5.398   0.624  0.3359 -0.3699  0.0674
  951THF     C214292   3.983   5.262   0.614  0.1265  0.3173 -0.2643
  951THF     C314293   4.116   5.413   0.735 -0.0488  0.8159  0.8664
  951THF     H414294   3.938   5.233   0.522  1.1895  0.3768  1.1775
  951THF     H514295   3.893   5.242   0.686  0.7627  2.0154 -0.4155
  951THF     H614296   4.184   5.499   0.730  0.9193  2.3941 -2.3912
  951THF     H714297   4.052   5.422   0.823  0.5707 -0.1619  0.8662
  951THF     C814298   4.192   5.276   0.732 -0.2018  0.0774  1.2615
  951THF     C914299   4.120   5.189   0.630  0.7107  0.1034  0.4837
  951THF    H1014300   4.196   5.231   0.836 -3.8611 -1.6013  1.0484
  951THF    H1114301   4.293   5.285   0.696  0.6930 -1.2698  2.0453
  951THF    H1214302   4.177   5.181   0.528 -0.4283  0.9027 -2.0817
  951THF    H1314303   4.091   5.094   0.670 -0.4895 -0.5511 -1.9099
  952THF     O114304   4.400   2.294   4.840 -0.5333  0.2069 -0.3395
  952THF     C214305   4.458   2.169   4.865  0.3756  0.0022 -0.7439
  952THF     C314306   4.362   2.302   4.703  0.1379  0.6332  0.2163
  952THF     H414307   4.401   2.095   4.918 -0.2981 -0.0371 -0.5632
  952THF     H514308   4.542   2.189   4.930 -0.8925 -1.9836 -0.9987
  952THF     H614309   4.262   2.250   4.693 -1.9515 -0.7392  0.1555
  952THF     H714310   4.346   2.403   4.677  0.4481  0.2643  0.5037
  952THF     C814311   4.474   2.217   4.631 -0.1072  0.8343 -0.1876
  952THF     C914312   4.511   2.104   4.735 -0.9964  0.8784  0.2150
  952THF    H1014313   4.557   2.276   4.611 -0.0283  1.5804  1.1156
  952THF    H1114314   4.442   2.171   4.539  0.4772  1.3023  2.5700
  952THF    H1214315   4.457   2.012   4.714  1.6780  1.4507 -2.1002
  952THF    H1314316   4.623   2.099   4.731 -0.1435  1.0282  3.0524
  953THF     O114317   5.241   2.747   3.343  0.1708  0.0105  0.1358
  953THF     C214318   5.347   2.843   3.366 -0.3002  0.1387 -0.0830
  953THF     C314319   5.132   2.782   3.429 -0.7343 -0.1270 -0.5658
  953THF     H414320   5.421   2.847   3.289 -1.4176 -2.6507 -0.4053
  953THF     H514321   5.394   2.840   3.468  1.5153  0.4844 -1.2176
  953THF     H614322   5.036   2.736   3.403 -0.1187 -0.8197  0.6626
  953THF     H714323   5.157   2.758   3.528 -4.7586 -0.9043  0.6109
  953THF     C814324   5.125   2.936   3.409  0.1609 -0.4747  0.4264
  953THF     C914325   5.269   2.971   3.382 -0.1340 -0.7509 -0.2826
  953THF    H1014326   5.091   2.995   3.492 -0.6491 -1.9883  0.4008
  953THF    H1114327   5.063   2.948   3.320 -0.2659 -0.7332  1.7022
  953THF    H1214328   5.271   3.039   3.300 -1.1030 -1.2276  2.6523
  953THF    H1314329   5.306   3.039   3.458 -1.4862 -0.2419 -1.1793
  954THF     O114330   0.108   2.886   0.610 -0.5133  0.1263 -0.1783
  954THF     C214331   0.182   2.770   0.566  0.4272  0.5247 -0.2572
  954THF     C314332   0.135   2.995   0.524 -0.1672  0.2350  0.3739
  954THF     H414333   0.125   2.723   0.483 -1.4356  0.5093  1.1121
  954THF     H514334   0.192   2.709   0.660 -0.5413 -0.2424 -0.0151
  954THF     H614335   0.069   2.986   0.439  0.1610 -0.4686 -1.0063
  954THF     H714336   0.118   3.100   0.556 -1.4411 -1.5095  0.2576
  954THF     C814337   0.271   2.966   0.458  0.1527 -0.6094  0.4664
  954THF     C914338   0.310   2.832   0.509  1.1417  0.4255 -0.6731
  954THF    H1014339   0.333   3.039   0.502 -2.7440  0.5442  0.7195
  954THF    H1114340   0.276   2.979   0.352 -0.1885 -2.5141 -2.5639
  954THF    H1214341   0.356   2.786   0.425 -1.4136  1.2999  1.9668
  954THF    H1314342   0.379   2.840   0.595 -0.2465  0.5889  0.0557
  955THF     O114343   3.875   4.188   1.829  0.2344  0.1745  0.0489
  955THF     C214344   3.758   4.241   1.762  0.1418  0.2958  0.3464
  955THF     C314345   3.946   4.298   1.882  0.6053 -0.0559  0.4329
  955THF     H414346   3.681   4.196   1.825  0.1930  0.0128  1.7584
  955THF     H514347   3.753   4.200   1.659  0.5125  0.0582  2.1728
  955THF     H614348   3.994   4.269   1.974 -0.0242  0.5016 -2.0455
  955THF     H714349   4.023   4.328   1.812  0.4488 -0.3506  1.5197
  955THF     C814350   3.853   4.417   1.891 -0.3777 -0.2560  0.0017
  955THF     C914351   3.752   4.391   1.779  0.3282 -0.5004  0.1865
  955THF    H1014352   3.900   4.512   1.880 -1.5746  2.2839 -1.5814
  955THF    H1114353   3.807   4.415   1.987  0.1514 -2.0445  0.4166
  955THF    H1214354   3.653   4.431   1.801 -2.0309 -1.5929  2.9752
  955THF    H1314355   3.789   4.444   1.684 -1.0996 -1.0196 -2.5167
  956THF     O114356   0.967   3.352   0.432 -0.2046  0.2276  0.5399
  956THF     C214357   1.038   3.473   0.419  0.3894  0.5161 -0.5925
  956THF     C314358   1.040   3.264   0.514 -0.2718 -0.0640  0.0131
  956THF     H414359   0.981   3.552   0.376  4.2483 -0.7451 -0.9820
  956THF     H514360   1.124   3.464   0.347 -1.6230  3.4217 -1.4657
  956THF     H614361   0.963   3.191   0.538  0.3030  0.9877 -2.8398
  956THF     H714362   1.110   3.227   0.444 -0.5305  0.1387  2.1231
  956THF     C814363   1.111   3.352   0.617 -0.4590 -0.2399 -0.0505
  956THF     C914364   1.089   3.495   0.567 -0.5094 -0.3438 -0.4349
  956THF    H1014365   1.218   3.324   0.616  0.6687 -1.2553  0.3110
  956THF    H1114366   1.080   3.349   0.719  0.9986  0.2161  3.5322
  956THF    H1214367   1.015   3.545   0.629 -1.8784 -2.3395 -2.4958
  956THF    H1314368   1.184   3.556   0.573  0.4347 -0.2396  2.9525
  957THF     O114369   1.708   2.006   3.772  0.7260  0.7957 -0.2993
  957THF     C214370   1.827   1.955   3.832 -0.5585  0.1699 -0.2763
  957THF     C314371   1.738   2.123   3.701  0.0432 -0.3721  0.0253
  957THF     H414372   1.813   1.848   3.850 -0.9278  0.7345  1.1611
  957THF     H514373   1.850   2.004   3.925  0.7261 -2.4376 -0.5093
  957THF     H614374   1.692   2.115   3.603 -2.8078 -1.6580  2.5005
  957THF     H714375   1.694   2.210   3.749  0.0649  1.5462  1.6393
  957THF     C814376   1.897   2.118   3.683 -0.2248  0.4751  0.0733
  957THF     C914377   1.936   1.977   3.720  0.8949 -0.8861 -0.3586
  957THF    H1014378   1.937   2.187   3.753 -1.4383 -0.1621 -1.1401
  957THF    H1114379   1.938   2.144   3.586 -1.6784 -0.5833  0.1043
  957THF    H1214380   1.910   1.915   3.638  0.6221  0.6909  0.6892
  957THF    H1314381   2.039   1.961   3.753  0.4716 -0.0288  2.3623
  958THF     O114382   2.544   0.115   0.209  0.6038  0.1466 -0.3018
  958THF     C214383   2.484  -0.010   0.168 -0.0576  0.0023 -0.2111
  958THF     C314384   2.458   0.220   0.198 -0.0630 -0.4224  0.3051
  958THF     H414385   2.539  -0.094   0.204  0.9882  1.2217 -1.2442
  958THF     H514386   2.475  -0.017   0.063  0.8927  0.6870  0.7312
  958THF     H614387   2.470   0.309   0.261 -1.6475  2.5836  0.8233
  958THF     H714388   2.469   0.248   0.094  0.8288 -0.8014  1.8943
  958THF     C814389   2.321   0.156   0.232  0.4490  0.5483  0.2754
  958THF     C914390   2.346   0.005   0.238 -0.3207 -0.2134 -0.1091
  958THF    H1014391   2.237   0.173   0.160 -1.5669  1.0551 -0.1832
  958THF    H1114392   2.275   0.193   0.321  0.5320  0.7848  1.2402
  958THF    H1214393   2.376  -0.029   0.342  0.2721  0.1482 -1.7195
  958THF    H1314394   2.272  -0.065   0.193 -1.9202  0.6954 -2.0198
  959THF     O114395   0.581   3.139   0.380  0.1158  0.5126 -0.2672
  959THF     C214396   0.683   3.230   0.337 -0.0719  0.2575 -0.3885
  959THF     C314397   0.619   3.009   0.363 -0.4143  0.2334 -0.2993
  959THF     H414398   0.741   3.257   0.430  1.8189  0.7601 -0.4556
  959THF     H514399   0.640   3.322   0.282 -1.1301  1.4824 -2.3961
  959THF     H614400   0.686   2.977   0.441 -2.7727 -0.0498 -0.8385
  959THF     H714401   0.543   2.935   0.352  3.5695 -2.0991 -2.9697
  959THF     C814402   0.700   3.014   0.241 -0.4894  0.7460  0.2201
  959THF     C914403   0.777   3.140   0.251 -0.8105  0.2375  0.3666
  959THF    H1014404   0.634   3.024   0.158  0.1142 -0.2253 -0.6943
  959THF    H1114405   0.763   2.923   0.217  0.6032  0.4840 -0.5207
  959THF    H1214406   0.878   3.139   0.288 -0.5252  1.8080  0.5015
  959THF    H1314407   0.792   3.180   0.151  3.1695 -1.2180  1.5353
  960THF     O114408   2.040   0.782   3.145  0.1416  0.2154  0.1427
  960THF     C214409   1.917   0.715   3.158  0.4527 -0.0133  0.1226
  960THF     C314410   2.130   0.725   3.238  0.5595 -0.3080 -0.5916
  960THF     H414411   1.927   0.608   3.122  0.0295  0.7983 -0.5595
  960THF     H514412   1.832   0.773   3.111  1.9528 -1.9831  1.3218
  960THF     H614413   2.192   0.635   3.212  0.7539  0.2805 -0.6560
  960THF     H714414   2.197   0.804   3.268 -4.0115 -1.4088  2.2509
  960THF     C814415   2.046   0.698   3.360  0.2442 -0.0265  0.3937
  960THF     C914416   1.904   0.712   3.310  0.0368 -0.4424 -0.4458
  960THF    H1014417   2.066   0.764   3.441 -0.3798  0.2721 -0.4223
  960THF    H1114418   2.064   0.597   3.396 -1.3885  0.2332  0.3703
  960THF    H1214419   1.834   0.634   3.336 -1.1894  1.3753 -1.9473
  960THF    H1314420   1.852   0.796   3.346  0.0559 -0.4210  1.2188
  961THF     O114421   5.420   1.649   5.123 -0.1713  0.3572  0.3395
  961THF     C214422   5.429   1.560   5.019  0.4482 -0.3900 -0.3599
  961THF     C314423   5.309   1.728   5.116  0.0243 -0.5650 -0.3196
  961THF     H414424   5.478   1.470   5.053  2.8718  1.3377  3.4132
  961THF     H514425   5.500   1.584   4.942 -2.4845 -0.8048  1.6806
  961THF     H614426   5.292   1.752   5.214  0.9649 -0.1219 -0.9601
  961THF     H714427   5.338   1.811   5.057  0.7245 -0.2750  0.6583
  961THF     C814428   5.206   1.646   5.043 -0.3224 -0.6427 -0.0991
  961THF     C914429   5.286   1.542   4.965 -0.3491  0.0802 -0.0006
  961THF    H1014430   5.141   1.701   4.982 -3.9679 -1.6175  3.7786
  961THF    H1114431   5.133   1.596   5.110 -1.5386  1.7171  1.0344
  961THF    H1214432   5.249   1.440   4.991 -0.9455  1.2001  2.4281
  961THF    H1314433   5.280   1.549   4.858 -2.4914 -0.2378  2.0359
  962THF     O114434   4.546   3.000   1.804  0.4317  0.2630 -0.4653
  962THF     C214435   4.455   2.901   1.754 -0.1246  0.1393 -0.3222
  962THF     C314436   4.582   2.973   1.942  0.6144 -0.4763  0.2910
  962THF     H414437   4.470   2.892   1.650  3.1411  2.5523 -0.8730
  962THF     H514438   4.357   2.918   1.798 -0.8627  1.2417 -0.0615
  962THF     H614439   4.663   3.039   1.963 -1.0839 -2.5704  0.6084
  962THF     H714440   4.486   2.995   2.001 -1.1514  2.4344 -1.1643
  962THF     C814441   4.610   2.827   1.934 -0.5757 -0.1529 -0.0335
  962THF     C914442   4.511   2.778   1.832 -0.1543 -1.1242 -0.0163
  962THF    H1014443   4.610   2.786   2.032  1.2747 -2.2768  1.6198
  962THF    H1114444   4.712   2.803   1.904 -1.5339  1.0221  0.3762
  962THF    H1214445   4.543   2.699   1.765  0.7674  0.2433  0.8785
  962THF    H1314446   4.426   2.743   1.891 -0.0187  0.6303  0.4771
  963THF     O114447   1.478   5.492   2.887  0.5882  0.0512 -0.3046
  963THF     C214448   1.459   5.352   2.873  0.5236  0.6638  0.5461
  963THF     C314449   1.360   5.567   2.850  0.5182 -0.1298 -0.4695
  963THF     H414450   1.516   5.295   2.946 -1.8226 -0.3304  1.2123
  963THF     H514451   1.492   5.325   2.779 -2.1368 -1.9299  5.1907
  963THF     H614452   1.329   5.625   2.940  0.1078 -3.1043  1.1085
  963THF     H714453   1.401   5.627   2.761  0.7793  0.2063  0.4225
  963THF     C814454   1.254   5.460   2.810 -0.2711  0.0446 -0.5433
  963THF     C914455   1.302   5.339   2.883 -0.2215  1.0309 -0.5763
  963THF    H1014456   1.262   5.438   2.702 -2.2307 -0.9098 -0.5262
  963THF    H1114457   1.160   5.496   2.844  1.0486  0.8587 -0.6266
  963THF    H1214458   1.277   5.357   2.988 -1.1021 -0.6377 -0.7642
  963THF    H1314459   1.267   5.241   2.850 -1.8292 -0.2181  0.4231
  964THF     O114460   3.591   1.651   5.052 -0.0308 -0.1783  0.0536
  964THF     C214461   3.597   1.764   4.969 -0.0092  0.3247  0.2117
  964THF     C314462   3.623   1.692   5.182  0.2676 -0.0061 -0.1668
  964THF     H414463   3.516   1.833   4.994  1.5164 -0.5738  0.3670
  964THF     H514464   3.599   1.742   4.863  0.1511 -1.6411 -1.4049
  964THF     H614465   3.541   1.729   5.239  0.1100  0.0804  1.0633
  964THF     H714466   3.663   1.604   5.234  2.2733 -3.7152  0.8459
  964THF     C814467   3.738   1.785   5.157  0.5884  0.0422 -0.1910
  964THF     C914468   3.717   1.833   5.017 -0.5928  0.3245 -0.2616
  964THF    H1014469   3.831   1.730   5.149 -0.1833 -1.4497  1.7325
  964THF    H1114470   3.741   1.853   5.236 -0.0780  0.5324 -0.1799
  964THF    H1214471   3.722   1.942   5.022  0.3828  4.1401  0.2147
  964THF    H1314472   3.802   1.812   4.955 -1.4694 -0.2292  0.3443
  965THF     O114473   2.194   3.487   0.323  0.3231 -0.1429  0.0199
  965THF     C214474   2.312   3.405   0.358 -0.0385 -0.4963 -0.4104
  965THF     C314475   2.234   3.603   0.258 -0.6801 -0.4085 -0.1474
  965THF     H414476   2.331   3.351   0.266 -0.4264 -0.1562 -0.8785
  965THF     H514477   2.301   3.336   0.441  1.8763  0.9377 -2.1119
  965THF     H614478   2.253   3.569   0.160  0.6633  2.1360  0.0818
  965THF     H714479   2.171   3.695   0.254 -0.8776  1.4220 -2.3835
  965THF     C814480   2.362   3.643   0.335 -0.0193  0.1952  0.2619
  965THF     C914481   2.425   3.512   0.386  0.6729  0.3153  0.0401
  965THF    H1014482   2.330   3.714   0.412  1.8059 -2.3611  0.0848
  965THF    H1114483   2.434   3.707   0.275  0.0136 -2.7276  4.0693
  965THF    H1214484   2.509   3.476   0.333  0.0621 -0.2187  2.1952
  965THF    H1314485   2.444   3.520   0.491  0.2572 -0.5762 -0.2800
  966THF     O114486   3.632   4.059   2.973 -0.4354  0.0425  0.1901
  966THF     C214487   3.501   4.012   3.022  0.1189 -0.1261 -0.1900
  966THF     C314488   3.730   3.992   3.048 -0.9073  0.8231 -0.0180
  966THF     H414489   3.474   3.941   2.946 -1.2027  0.9205  0.3021
  966THF     H514490   3.425   4.096   3.031 -1.0570 -1.4328 -0.7749
  966THF     H614491   3.790   3.936   2.976  0.7899  4.6749 -0.7469
  966THF     H714492   3.783   4.063   3.100  1.7618  1.3574 -0.8880
  966THF     C814493   3.657   3.891   3.150 -0.4699 -0.5025  0.3265
  966THF     C914494   3.516   3.952   3.160 -0.6905  0.0392  0.0829
  966THF    H1014495   3.699   3.891   3.251  1.1909 -0.8515 -0.3403
  966THF    H1114496   3.657   3.788   3.114  0.4138  0.0680 -0.0437
  966THF    H1214497   3.444   3.875   3.202 -1.2866 -2.8206  1.5820
  966THF    H1314498   3.513   4.037   3.225  2.5893  1.1303 -0.7430
  967THF     O114499   1.832   2.004   3.167  0.0936  0.7251  0.6721
  967THF     C214500   1.895   2.073   3.276 -0.5077  0.2094  0.1514
  967THF     C314501   1.882   1.871   3.147  0.2826 -0.2622 -0.4259
  967THF     H414502   1.858   2.067   3.382 -0.0036 -2.3119  1.1622
  967THF     H514503   1.903   2.172   3.240 -1.1439 -0.6339 -2.5219
  967THF     H614504   1.814   1.817   3.203  1.5228 -0.9932 -1.3873
  967THF     H714505   1.875   1.839   3.045  0.1343  4.9564  2.2421
  967THF     C814506   2.012   1.879   3.225 -0.5207  0.1475 -0.2310
  967THF     C914507   2.036   2.027   3.264  0.2598  0.0460  0.3070
  967THF    H1014508   2.092   1.834   3.179 -1.6231  2.3453  0.6898
  967THF    H1114509   2.006   1.815   3.318 -4.5925 -0.4238  1.3180
  967THF    H1214510   2.095   2.044   3.344 -1.7629 -2.4641  1.4495
  967THF    H1314511   2.082   2.065   3.171  3.6419  1.2286  1.2322
  968THF     O114512   4.870   3.681   1.244 -0.0670  0.1560 -0.2278
  968THF     C214513   4.921   3.579   1.156  0.3996 -0.4430  0.1919
  968THF     C314514   4.854   3.636   1.380  0.6296  0.1628  0.0689
  968THF     H414515   5.019   3.613   1.129 -0.4846  1.0606 -1.6122
  968THF     H514516   4.855   3.565   1.069 -0.7302  1.5391  0.3768
  968THF     H614517   4.897   3.703   1.458  1.4502  0.1332  0.5847
  968THF     H714518   4.746   3.618   1.394  1.1599  0.6083 -1.2786
  968THF     C814519   4.922   3.495   1.382  0.2956 -0.1054 -0.2839
  968THF     C914520   4.915   3.451   1.246 -0.1408  0.5723  0.5213
  968THF    H1014521   4.898   3.421   1.459  2.4951 -0.1530 -0.7539
  968THF    H1114522   5.027   3.506   1.410  0.1708  2.3515  0.2026
  968THF    H1214523   4.988   3.369   1.218  1.0705 -1.8206  0.0460
  968THF    H1314524   4.817   3.402   1.243 -1.5291  2.0067 -1.9743
  969THF     O114525   1.477   0.909   4.463  0.1429 -0.1413 -0.0647
  969THF     C214526   1.373   0.876   4.552  0.5590 -0.3626  0.7545
  969THF     C314527   1.504   0.792   4.383  0.5711  0.8144 -0.3897
  969THF     H414528   1.336   0.962   4.598  2.2421 -2.5218  0.1653
  969THF     H514529   1.404   0.819   4.639 -2.9370 -0.1448 -1.6799
  969THF     H614530   1.550   0.809   4.286 -2.1396  0.9012 -1.2258
  969THF     H714531   1.578   0.731   4.431 -0.4658 -1.3669 -1.8605
  969THF     C814532   1.365   0.722   4.382  0.1659  0.3471  0.0143
  969THF     C914533   1.278   0.792   4.480  0.1785  0.0487 -0.0167
  969THF    H1014534   1.375   0.620   4.413 -1.1808 -2.4114  0.2593
  969THF    H1114535   1.322   0.723   4.283 -0.3118  0.1627 -0.6517
  969THF    H1214536   1.203   0.848   4.434 -0.6437 -1.7078 -1.9711
  969THF    H1314537   1.233   0.724   4.559 -0.4021  2.4567  0.9090
  970THF     O114538   0.630   4.926   4.233 -0.2220 -0.0134 -0.6271
  970THF     C214539   0.769   4.902   4.261 -0.6847 -0.0156 -0.4979
  970THF     C314540   0.552   4.836   4.313 -0.6875  0.7323  0.5709
  970THF     H414541   0.833   4.970   4.205 -1.2588  1.9752 -0.7666
  970THF     H514542   0.800   4.805   4.224  3.0696  3.3866 -1.4825
  970THF     H614543   0.464   4.888   4.337  3.8806  1.9129 -0.7887
  970THF     H714544   0.529   4.736   4.281  0.8487  3.0622  0.6933
  970THF     C814545   0.629   4.831   4.448 -0.5068 -0.5969 -0.1639
  970THF     C914546   0.766   4.900   4.416 -0.2325  0.4817  0.0185
  970THF    H1014547   0.643   4.726   4.484  1.0540 -0.2883 -0.2074
  970THF    H1114548   0.579   4.881   4.526  0.1755 -2.2777 -1.1841
  970THF    H1214549   0.768   5.005   4.457  0.4330  0.5177  1.3044
  970THF    H1314550   0.841   4.848   4.477 -1.9087  1.7306 -1.0541
  971PF6-    P114551   0.531   2.632   1.782  0.3336  0.0367 -0.2821
  971PF6-    F214552   0.491   2.514   1.679 -0.0395  0.0610  0.4020
  971PF6-    F314553   0.565   2.745   1.886  0.3034  0.4718  0.6788
  971PF6-    F414554   0.668   2.548   1.825  0.4118 -0.3701  0.4187
  971PF6-    F514555   0.392   2.702   1.749  0.3683  0.4792 -0.4840
  971PF6-    F614556   0.451   2.542   1.890 -0.4750 -0.5750 -0.0148
  971PF6-    F714557   0.608   2.716   1.666 -0.7263 -0.2117  0.4707
  972PF6-    P114558   1.313   0.198   2.293 -0.0086  0.0266  0.0058
  972PF6-    F214559   1.177   0.268   2.248  0.5476 -0.0135 -0.2307
  972PF6-    F314560   1.452   0.133   2.346  0.3971 -0.0979 -0.2929
  972PF6-    F414561   1.383   0.232   2.156  0.7029  0.3140  0.5426
  972PF6-    F514562   1.255   0.171   2.438 -0.4881  1.5084  0.2708
  972PF6-    F614563   1.264   0.058   2.238 -0.1041  0.5331 -0.0359
  972PF6-    F714564   1.374   0.337   2.345  0.5235  0.0213  0.2159
  973PF6-    P114565   3.078   5.392   4.797  0.5237 -0.0023 -0.2672
  973PF6-    F214566   2.937   5.420   4.729  0.2284 -0.0629 -0.4355
  973PF6-    F314567   3.219   5.360   4.860  0.1790  0.1128  0.2805
  973PF6-    F414568   3.144   5.373   4.656  0.5956  0.0710 -0.3098
  973PF6-    F514569   3.009   5.406   4.940  0.0307 -0.3316  0.1027
  973PF6-    F614570   3.044   5.239   4.793  0.3833 -0.0658 -0.3502
  973PF6-    F714571   3.109   5.547   4.810  0.5221 -0.4224 -0.0921
  974PF6-    P114572   4.762   1.942   1.277  0.1257 -0.0945 -0.3299
  974PF6-    F214573   4.906   1.917   1.336  0.5396  0.0156 -0.1352
  974PF6-    F314574   4.622   1.973   1.214  0.2683 -0.2729  0.0903
  974PF6-    F414575   4.784   1.809   1.186  0.4041  0.2730 -0.2517
  974PF6-    F514576   4.749   2.074   1.364 -0.3872 -0.0275 -0.5710
  974PF6-    F614577   4.832   2.023   1.162 -0.5733 -0.0073 -0.0947
  974PF6-    F714578   4.684   1.858   1.393  0.0116 -0.0280 -0.3926
  975PF6-    P114579   4.064   0.377   0.350  0.3744 -0.2694  0.2111
  975PF6-    F214580   4.148   0.318   0.227  0.2172 -0.7229 -0.5008
  975PF6-    F314581   3.976   0.438   0.471 -0.2721  0.6130  0.3063
  975PF6-    F414582   3.933   0.296   0.306 -0.0408 -0.3772 -0.5043
  975PF6-    F514583   4.184   0.467   0.410 -0.1701 -0.1738 -0.2294
  975PF6-    F614584   4.024   0.501   0.252  0.2209 -0.3313  0.1924
  975PF6-    F714585   4.104   0.256   0.438 -0.1488 -0.9147  0.2637
  976PF6-    P114586   3.096   0.954   0.883  0.0109  0.0088 -0.3256
  976PF6-    F214587   3.124   0.806   0.822  0.7400  0.5013  0.5786
  976PF6-    F314588   3.069   1.104   0.941  0.8149 -0.6208  0.3228
  976PF6-    F414589   3.038   0.884   1.012  0.0963  0.2528  0.2336
  976PF6-    F514590   3.144   1.015   0.740 -0.0411  0.4196  0.0673
  976PF6-    F614591   2.944   0.948   0.828  0.0220 -0.6844 -0.4485
  976PF6-    F714592   3.245   0.950   0.941  0.2037 -0.3432 -0.4589
  977PF6-    P114593   0.685   0.101   4.959 -0.0581  0.0297  0.0094
  977PF6-    F214594   0.831   0.119   5.016  0.2408 -0.2454  0.1923
  977PF6-    F314595   0.536   0.079   4.892  0.2096 -0.1061  0.0399
  977PF6-    F414596   0.632   0.090   5.102 -0.0935 -0.7858 -0.2219
  977PF6-    F514597   0.746   0.112   4.814 -0.0662 -0.3216  0.5629
  977PF6-    F614598   0.708  -0.062   4.947 -0.6489  0.1547  0.2611
  977PF6-    F714599   0.661   0.255   4.966  0.1320  0.0936  0.0262
  978PF6-    P114600   3.720   3.876   0.482  0.0058 -0.3251 -0.6626
  978PF6-    F214601   3.601   3.916   0.371 -0.1469 -0.1522 -0.1535
  978PF6-    F314602   3.836   3.823   0.582  0.6104 -0.4126  0.0653
  978PF6-    F414603   3.615   3.793   0.569  0.2129  0.5820  0.0430
  978PF6-    F514604   3.824   3.961   0.395  0.2666  0.7190 -0.6789
  978PF6-    F614605   3.694   4.004   0.576  0.6182  0.0644  0.7269
  978PF6-    F714606   3.748   3.751   0.390  0.4099  0.0367  0.5428
  979PF6-    P114607   0.502   0.585   1.724  0.0478  0.1177  0.1925
  979PF6-    F214608   0.462   0.714   1.806 -0.7772  0.9423  0.6640
  979PF6-    F314609   0.540   0.457   1.635 -0.0971  0.4753  0.1499
  979PF6-    F414610   0.449   0.659   1.588  0.5604 -0.1077  0.3923
  979PF6-    F514611   0.557   0.514   1.860 -0.0086 -0.1390 -0.2903
  979PF6-    F614612   0.356   0.522   1.742 -0.2622 -0.7737 -0.0808
  979PF6-    F714613   0.650   0.638   1.711  0.3053 -0.2231 -0.2434
  980PF6-    P114614   1.636   4.753   0.752  0.2851 -0.2613 -0.3720
  980PF6-    F214615   1.733   4.732   0.878 -0.2674  0.7358  0.3019
  980PF6-    F314616   1.539   4.770   0.627 -0.4089 -0.0224 -0.0637
  980PF6-    F414617   1.591   4.601   0.773 -0.0122 -0.1381  0.1032
  980PF6-    F514618   1.698   4.897   0.735  0.7745 -0.3605  0.5694
  980PF6-    F614619   1.754   4.702   0.658 -0.4639  0.3788 -0.1169
  980PF6-    F714620   1.518   4.809   0.841 -0.1957  0.0802  1.1689
  981PF6-    P114621   1.969   0.269   3.509 -0.0949 -0.2686 -0.2603
  981PF6-    F214622   1.979   0.218   3.360  0.5018 -0.0825  0.1308
  981PF6-    F314623   1.971   0.344   3.656 -0.0068  0.2817 -1.1820
  981PF6-    F414624   1.880   0.395   3.451 -0.2187  0.0519  0.2560
  981PF6-    F514625   2.046   0.141   3.564 -0.2513 -0.2893  0.3829
  981PF6-    F614626   2.105   0.351   3.483 -0.1337  0.6876  0.1366
  981PF6-    F714627   1.827   0.191   3.536 -0.2093 -0.3719  0.2709
  982PF6-    P114628   2.520   5.115   0.400 -0.1084 -0.2674  0.0363
  982PF6-    F214629   2.503   5.058   0.551 -0.4460  1.1327  0.0379
  982PF6-    F314630   2.534   5.166   0.251  0.0316  0.4105 -0.3927
  982PF6-    F414631   2.474   4.972   0.348  0.5242  0.2424 -0.7863
  982PF6-    F514632   2.575   5.256   0.458  0.3562  0.4203 -0.1064
  982PF6-    F614633   2.675   5.066   0.389  0.0226  0.7235 -0.2763
  982PF6-    F714634   2.366   5.160   0.399  0.0093 -0.0161 -0.4019
  983PF6-    P114635   5.332   3.822   1.161 -0.1514 -0.3102 -0.1030
  983PF6-    F214636   5.464   3.792   1.244 -0.3429  0.2490 -0.0942
  983PF6-    F314637   5.195   3.854   1.080 -0.3011 -0.8524  0.4052
  983PF6-    F414638   5.307   3.671   1.134 -0.1416  0.0303 -0.4091
  983PF6-    F514639   5.358   3.979   1.192  0.3020 -0.2929 -0.1204
  983PF6-    F614640   5.415   3.826   1.025  0.0609 -0.6026  0.4449
  983PF6-    F714641   5.250   3.807   1.295  0.1845 -0.0801  0.1464
  984PF6-    P114642   2.737   4.267   4.947 -0.1090 -0.1597 -0.6690
  984PF6-    F214643   2.875   4.311   4.880  0.3791  0.3308  0.0928
  984PF6-    F314644   2.603   4.231   5.024  0.3479 -0.7861 -0.5530
  984PF6-    F414645   2.654   4.385   4.869  0.3535  0.5308 -0.0533
  984PF6-    F514646   2.824   4.149   5.020  0.2333  0.1068  0.0149
  984PF6-    F614647   2.774   4.370   5.061  0.5473 -0.0056  0.3897
  984PF6-    F714648   2.699   4.168   4.828 -0.1743 -0.1886  0.0042
  985PF6-    P114649   5.247   4.832   1.714  0.7091  0.6256 -0.3750
  985PF6-    F214650   5.307   4.947   1.806 -0.4592 -0.2157 -0.5751
  985PF6-    F314651   5.197   4.714   1.621 -0.1103  0.2826  0.0022
  985PF6-    F414652   5.375   4.751   1.744  0.6576 -0.1980 -0.2045
  985PF6-    F514653   5.110   4.912   1.675 -0.1926  0.4708 -0.0186
  985PF6-    F614654   5.312   4.898   1.579 -0.0426 -0.1968  0.1379
  985PF6-    F714655   5.171   4.764   1.838  0.0845 -0.4371  0.0384
  986PF6-    P114656   1.128   0.809   1.217 -0.0376 -0.0290 -0.5001
  986PF6-    F214657   1.125   0.814   1.377 -0.3376  0.2405 -0.0165
  986PF6-    F314658   1.122   0.787   1.061 -0.2253  0.6251 -0.1313
  986PF6-    F414659   1.175   0.656   1.228  0.0301  0.2370  0.1176
  986PF6-    F514660   1.088   0.964   1.211  0.4501 -0.3144  0.2659
  986PF6-    F614661   1.287   0.844   1.211  0.0617 -0.1979 -0.1413
  986PF6-    F714662   0.971   0.773   1.224  0.0255 -0.0906 -0.2390
  987PF6-    P114663   1.341   2.967   3.374  0.0471 -0.1301  0.1164
  987PF6-    F214664   1.348   2.848   3.487 -0.1031  0.1758 -0.0393
  987PF6-    F314665   1.336   3.084   3.261  0.4603  0.2966  0.6011
  987PF6-    F414666   1.296   2.862   3.265 -0.1949  0.1982  0.0922
  987PF6-    F514667   1.373   3.075   3.487  0.5023 -0.1021  0.2504
  987PF6-    F614668   1.496   2.946   3.342  0.3272 -0.0582  0.2181
  987PF6-    F714669   1.182   2.986   3.406 -0.3056 -0.6463 -0.2290
  988PF6-    P114670   3.037   1.848   1.311  0.1159  0.1070 -0.0410
  988PF6-    F214671   3.179   1.865   1.395  0.5963  0.2830  0.1337
  988PF6-    F314672   2.902   1.824   1.233 -0.2324  0.2836  0.2247
  988PF6-    F414673   2.950   1.854   1.453 -0.3590  0.0679 -0.3509
  988PF6-    F514674   3.113   1.850   1.172 -0.9152  0.0677  0.3644
  988PF6-    F614675   3.054   1.688   1.323  0.2809  0.0355 -0.0974
  988PF6-    F714676   3.011   2.009   1.301 -0.2896 -0.2382  0.1918
  989PF6-    P114677   1.160   1.999   3.315 -0.2229  0.4152  0.0114
  989PF6-    F214678   1.258   2.091   3.220 -0.5836  0.2477 -0.1455
  989PF6-    F314679   1.068   1.915   3.416  0.4188  0.2099 -0.1018
  989PF6-    F414680   1.226   2.066   3.445  0.1179 -0.1497 -0.3740
  989PF6-    F514681   1.096   1.924   3.189 -0.0326  0.3719  0.1192
  989PF6-    F614682   1.279   1.887   3.323 -0.4327  0.7298 -0.1860
  989PF6-    F714683   1.050   2.117   3.306 -0.2298  0.2214  0.5369
  990PF6-    P114684   0.962   3.097   0.907  0.1977 -0.0200  0.2312
  990PF6-    F214685   0.833   3.014   0.931 -0.1992  0.2285  0.2001
  990PF6-    F314686   1.098   3.172   0.883 -0.1026 -0.3833  0.3879
  990PF6-    F414687   0.875   3.213   0.837  0.0089  0.2866  0.0179
  990PF6-    F514688   1.053   2.973   0.968 -0.1885  0.1272 -0.1171
  990PF6-    F614689   0.981   3.028   0.766 -0.1289  0.0879 -0.0468
  990PF6-    F714690   0.951   3.171   1.054  0.2533  0.3145 -0.3492
  991PF6-    P114691   0.446   3.999   4.889 -0.0945 -0.3402  0.0218
  991PF6-    F214692   0.523   3.929   5.007  0.4588 -0.0350  0.3711
  991PF6-    F314693   0.358   4.079   4.782 -0.4186  0.0877  0.1194
  991PF6-    F414694   0.575   4.099   4.855  0.0254  0.0462 -0.0828
  991PF6-    F514695   0.313   3.908   4.925  0.0644 -0.1325  0.1645
  991PF6-    F614696   0.398   4.106   4.999  0.2880  0.2217  0.0738
  991PF6-    F714697   0.492   3.893   4.783 -0.2884 -0.1667 -0.1821
  992PF6-    P114698   2.178   0.384   1.066  0.2224 -0.6418  0.2667
  992PF6-    F214699   2.056   0.451   1.147 -0.1920  0.0444  0.1187
  992PF6-    F314700   2.297   0.309   0.990  0.2697 -0.4923  0.1469
  992PF6-    F414701   2.117   0.447   0.928 -0.4331  0.3121 -0.2149
  992PF6-    F514702   2.241   0.330   1.203  0.5650  0.1867 -0.4519
  992PF6-    F614703   2.093   0.251   1.047  0.4079 -0.1150 -0.3340
  992PF6-    F714704   2.271   0.510   1.084 -0.0510 -0.1602 -0.1142
  993PF6-    P114705   5.456   1.380   3.480 -0.0838 -0.0986  0.1909
  993PF6-    F214706   5.311   1.314   3.479 -0.0763  0.1537  0.0709
  993PF6-    F314707   5.604   1.441   3.477 -0.3072 -0.1083  0.4117
  993PF6-    F414708   5.488   1.296   3.611  0.3998 -0.4635 -0.0356
  993PF6-    F514709   5.425   1.468   3.350 -0.2855  0.3710 -0.1538
  993PF6-    F614710   5.402   1.504   3.577  0.0750 -0.1129  0.0470
  993PF6-    F714711   5.505   1.259   3.389  0.5906  0.0006  0.5265
  994PF6-    P114712   0.032   1.412   1.000 -0.0529 -0.1923  0.0624
  994PF6-    F214713  -0.078   1.291   1.003  0.3788  0.2317  0.2960
  994PF6-    F314714   0.145   1.525   0.993  0.2588 -0.7092 -0.0378
  994PF6-    F414715   0.111   1.345   1.122 -0.4567 -0.0691 -0.0321
  994PF6-    F514716  -0.048   1.483   0.876 -0.5272  0.1769 -0.3228
  994PF6-    F614717  -0.058   1.501   1.099 -0.4998 -0.1505 -0.8127
  994PF6-    F714718   0.122   1.324   0.899  0.2273  0.3242 -0.6206
  995PF6-    P114719   1.774   4.058   1.522 -0.4783 -0.1946 -0.2437
  995PF6-    F214720   1.685   4.174   1.467 -0.2767  0.2043  0.4572
  995PF6-    F314721   1.864   3.942   1.583 -0.5265  0.4147  0.7299
  995PF6-    F414722   1.903   4.153   1.500 -0.2796  0.2043 -0.1547
  995PF6-    F514723   1.642   3.973   1.548  0.3097  0.3865 -0.0237
  995PF6-    F614724   1.790   3.999   1.371 -0.0188  0.1153  1.1956
  995PF6-    F714725   1.761   4.117   1.668 -0.3046 -0.3229 -0.3811
  996PF6-    P114726   5.091   4.306   5.323 -0.1156 -0.7066  0.6577
  996PF6-    F214727   5.222   4.386   5.366 -0.2893  0.3821 -0.2584
  996PF6-    F314728   4.961   4.228   5.279 -0.1789  0.1190 -0.2767
  996PF6-    F414729   5.001   4.436   5.314  0.5603 -0.3082  0.2427
  996PF6-    F514730   5.167   4.167   5.330 -0.9307  0.2430 -0.2856
  996PF6-    F614731   5.044   4.287   5.475 -0.2508 -0.6468 -0.0295
  996PF6-    F714732   5.137   4.320   5.170 -0.3461  0.1743  0.1193
  997PF6-    P114733   3.586   5.496   3.191  0.2557 -0.3277  0.0859
  997PF6-    F214734   3.507   5.397   3.289  0.0583 -0.3090 -0.3323
  997PF6-    F314735   3.667   5.591   3.095  0.1337  0.4063  0.0453
  997PF6-    F414736   3.452   5.507   3.109 -0.2353  0.2995  0.2557
  997PF6-    F514737   3.718   5.484   3.285 -0.0970  0.2933 -0.7440
  997PF6-    F614738   3.618   5.372   3.104  0.2844  0.1297  0.1842
  997PF6-    F714739   3.549   5.625   3.282  0.1946  0.3865 -0.2177
  998PF6-    P114740   1.186   4.267   4.280  0.3253  0.1299  0.5132
  998PF6-    F214741   1.105   4.233   4.414 -0.3146  0.4020  0.2799
  998PF6-    F314742   1.275   4.311   4.148 -0.7226  0.0693  0.1371
  998PF6-    F414743   1.231   4.118   4.250 -0.0330 -0.0280 -0.1193
  998PF6-    F514744   1.137   4.422   4.295 -0.2954  0.0653 -0.2482
  998PF6-    F614745   1.313   4.294   4.373  0.1359 -0.2095 -0.5508
  998PF6-    F714746   1.064   4.237   4.181 -0.3980 -0.4289 -0.2143
  999PF6-    P114747   0.300   2.397   0.738  0.2193 -0.0347 -0.2564
  999PF6-    F214748   0.222   2.314   0.846 -0.5135 -0.1055 -0.6056
  999PF6-    F314749   0.375   2.491   0.628 -0.0167 -0.0534 -0.0999
  999PF6-    F414750   0.160   2.442   0.673 -0.1630  0.1622  0.2007
  999PF6-    F514751   0.437   2.346   0.800 -0.0111 -0.3531 -0.4517
  999PF6-    F614752   0.295   2.267   0.637  0.1367  0.7706 -0.0703
  999PF6-    F714753   0.299   2.520   0.839  0.2212  0.1417 -0.0774
 1000PF6-    P114754   3.853   0.591   4.837  0.2638 -0.0456 -0.4603
 1000PF6-    F214755   3.966   0.651   4.745  0.2665 -0.0607  0.6221
 1000PF6-    F314756   3.733   0.536   4.925  0.1616 -0.0720 -0.2354
 1000PF6-    F414757   3.859   0.723   4.923 -0.4478 -0.3498 -0.3790
 1000PF6-    F514758   3.847   0.459   4.750  0.4281 -0.2749  0.3366
 1000PF6-    F614759   3.960   0.513   4.931 -0.5006 -0.0417  0.3892
 1000PF6-    F714760   3.749   0.652   4.742 -0.5397  0.1799 -0.3842
 1001PF6-    P114761   3.609   1.005   2.193 -0.2104  0.2560 -0.3007
 1001PF6-    F214762   3.558   0.869   2.120 -0.1094 -0.9180 -0.0194
 1001PF6-    F314763   3.660   1.139   2.257  0.0956  0.1741  0.4225
 1001PF6-    F414764   3.567   1.086   2.061 -0.4693 -0.1988 -0.1317
 1001PF6-    F514765   3.644   0.920   2.326  0.1503 -0.1989  0.1237
 1001PF6-    F614766   3.757   0.979   2.137  0.5236 -0.6540  0.2864
 1001PF6-    F714767   3.456   1.028   2.249  0.1540  0.3944  0.1744
 1002PF6-    P114768   4.109   1.575   1.581  0.1671 -0.2654 -0.0542
 1002PF6-    F214769   3.987   1.509   1.509  0.3523 -0.5706 -0.1651
 1002PF6-    F314770   4.231   1.646   1.663  0.4255  0.2004  0.0058
 1002PF6-    F414771   4.127   1.442   1.663  0.1054 -0.2266  0.3308
 1002PF6-    F514772   4.092   1.707   1.498 -0.3153  0.0844  0.3928
 1002PF6-    F614773   4.006   1.636   1.692 -0.3030 -0.4062 -0.2513
 1002PF6-    F714774   4.210   1.518   1.468  0.4959 -0.3286  0.2582
 1003PF6-    P114775   4.471   4.390   1.165 -0.2432  0.1129 -0.2528
 1003PF6-    F214776   4.371   4.414   1.291  0.0942 -0.1835 -0.4130
 1003PF6-    F314777   4.558   4.361   1.030  0.0383 -0.2417  0.2649
 1003PF6-    F414778   4.504   4.546   1.156 -0.4694 -0.4673  0.3595
 1003PF6-    F514779   4.431   4.232   1.180 -0.5944  0.0549  0.4765
 1003PF6-    F614780   4.340   4.413   1.079 -0.1261 -0.6040 -0.3173
 1003PF6-    F714781   4.591   4.368   1.270  0.1570 -0.3831  0.1327
 1004PF6-    P114782   1.336   3.783   3.966 -0.4164 -0.0570 -0.7148
 1004PF6-    F214783   1.397   3.786   4.114  0.2401  0.2553  0.3583
 1004PF6-    F314784   1.280   3.789   3.814  0.2186  0.0105 -0.1203
 1004PF6-    F414785   1.221   3.681   4.014 -0.0609  0.1976 -0.3696
 1004PF6-    F514786   1.447   3.893   3.926  0.2974 -0.2570 -0.6407
 1004PF6-    F614787   1.433   3.671   3.926 -0.5350  0.1611  0.4868
 1004PF6-    F714788   1.237   3.900   4.008 -0.3254 -0.6092  0.0254
 1005PF6-    P114789   1.245   2.289   1.421  0.1313 -0.2340 -0.1666
 1005PF6-    F214790   1.112   2.256   1.337  0.1151 -0.4857  0.1492
 1005PF6-    F314791   1.385   2.330   1.499 -0.1678 -0.1426 -0.4193
 1005PF6-    F414792   1.159   2.336   1.549 -0.0623 -0.6544 -0.3147
 1005PF6-    F514793   1.321   2.248   1.290  0.0735  0.6171 -0.3843
 1005PF6-    F614794   1.236   2.440   1.366 -0.1389  0.2165 -0.1945
 1005PF6-    F714795   1.253   2.141   1.477 -0.1527 -0.0058 -0.8147
 1006PF6-    P114796   0.918   4.265   0.480 -0.0651  0.0832  0.0838
 1006PF6-    F214797   0.895   4.251   0.321  0.0548 -0.1674  0.2861
 1006PF6-    F314798   0.933   4.278   0.640 -0.1802 -0.6735  0.2086
 1006PF6-    F414799   0.880   4.422   0.468 -0.1409 -0.5282  0.0317
 1006PF6-    F514800   0.962   4.109   0.489  0.1604 -0.5941  0.3283
 1006PF6-    F614801   1.068   4.302   0.462 -0.2467  0.3135 -0.5184
 1006PF6-    F714802   0.767   4.222   0.512  0.5674  0.3452  0.4265
 1007PF6-    P114803   3.044   3.246   4.596 -0.0859  0.3031  0.1321
 1007PF6-    F214804   3.084   3.252   4.447  0.1040  0.1965 -0.3770
 1007PF6-    F314805   2.987   3.241   4.742  0.6874 -0.0802  0.1773
 1007PF6-    F414806   3.139   3.377   4.627  0.0690  0.1067 -0.1282
 1007PF6-    F514807   2.940   3.128   4.559  0.1863  0.0749 -0.3095
 1007PF6-    F614808   3.158   3.138   4.629 -0.0168  0.1512  0.1725
 1007PF6-    F714809   2.931   3.347   4.560 -0.5149  0.0093  0.0573
 1008PF6-    P114810   0.021   0.879   5.068  0.1832  0.2385  0.1818
 1008PF6-    F214811   0.097   0.851   5.209 -0.3075  0.3462 -0.5484
 1008PF6-    F314812  -0.058   0.903   4.926  0.3174 -0.3459  0.2910
 1008PF6-    F414813  -0.098   0.958   5.142  0.0456 -0.1191 -0.2786
 1008PF6-    F514814   0.141   0.796   4.995 -0.0173 -0.3655 -0.5612
 1008PF6-    F614815  -0.064   0.736   5.089 -0.4861 -0.3926 -0.0390
 1008PF6-    F714816   0.105   1.012   5.053 -0.0631 -0.3118 -0.1135
 1009PF6-    P114817   0.745   1.609   4.161  0.0497 -0.0175  0.1855
 1009PF6-    F214818   0.734   1.652   4.315  0.0420  0.2578 -0.8507
 1009PF6-    F314819   0.748   1.561   4.008 -0.1302  0.0176  0.0488
 1009PF6-    F414820   0.832   1.483   4.207  0.1189 -0.3483 -0.2273
 1009PF6-    F514821   0.650   1.737   4.125  0.1228 -0.8496 -0.6258
 1009PF6-    F614822   0.880   1.698   4.140 -0.1376  0.4862 -0.4609
 1009PF6-    F714823   0.610   1.523   4.176  0.3109  0.1781 -0.7472
 1010PF6-    P114824   5.241   2.185   0.128 -0.6047  0.1560 -0.3256
 1010PF6-    F214825   5.107   2.104   0.174 -0.3348  0.0878  0.5331
 1010PF6-    F314826   5.376   2.261   0.082 -0.4483 -0.7033 -0.1993
 1010PF6-    F414827   5.176   2.326   0.178 -0.4374 -0.4994 -0.2163
 1010PF6-    F514828   5.308   2.044   0.079  0.0463  0.1256  0.5765
 1010PF6-    F614829   5.180   2.206  -0.018  0.0972 -0.4552  0.0534
 1010PF6-    F714830   5.296   2.156   0.275 -0.4547 -0.2894  0.2060
 1011PF6-    P114831   4.581   1.122   2.371 -0.0049  0.4278 -0.1536
 1011PF6-    F214832   4.547   0.973   2.420 -0.1860  0.0496  0.2310
 1011PF6-    F314833   4.620   1.273   2.321 -0.1643  0.4652  0.2800
 1011PF6-    F414834   4.434   1.168   2.421 -0.3467  0.0468  0.2827
 1011PF6-    F514835   4.723   1.063   2.325  0.2905  0.6792  0.3453
 1011PF6-    F614836   4.518   1.093   2.226  0.1785 -0.2143  0.3655
 1011PF6-    F714837   4.642   1.154   2.516  0.0039 -0.3616 -0.1590
 1012PF6-    P114838   0.065   3.904   4.210 -0.0029 -0.1665 -0.2140
 1012PF6-    F214839  -0.027   3.933   4.083 -0.5677  0.0227  0.5877
 1012PF6-    F314840   0.157   3.878   4.336 -0.5062  0.6494  0.4255
 1012PF6-    F414841   0.033   3.746   4.204 -0.3925  0.2075  0.4868
 1012PF6-    F514842   0.098   4.059   4.227 -0.1247  0.1906  0.3384
 1012PF6-    F614843  -0.060   3.926   4.306 -0.1355  0.1049 -0.4615
 1012PF6-    F714844   0.196   3.885   4.117 -0.1501 -0.2878 -0.5407
 1013PF6-    P114845   2.300   4.383   2.405 -0.2440 -0.2659  0.4149
 1013PF6-    F214846   2.256   4.494   2.510 -0.4924  0.0023 -0.2086
 1013PF6-    F314847   2.343   4.269   2.300 -0.3300  0.4466  0.2424
 1013PF6-    F414848   2.159   4.398   2.338  0.4076  0.0969 -0.0846
 1013PF6-    F514849   2.438   4.364   2.477  0.0883 -0.2288 -0.3706
 1013PF6-    F614850   2.250   4.272   2.504  0.4308 -0.5167  0.2254
 1013PF6-    F714851   2.357   4.497   2.308 -0.0448 -0.4720  0.0699
 1014PF6-    P114852   4.096   3.098   1.420  0.2416 -0.0742  0.4401
 1014PF6-    F214853   3.976   3.146   1.321 -0.3028 -0.0612  0.1549
 1014PF6-    F314854   4.212   3.060   1.522  0.9932  0.0231  0.0593
 1014PF6-    F414855   3.988   3.099   1.541  0.3856  0.3046  0.2441
 1014PF6-    F514856   4.202   3.098   1.306  0.4281 -0.0273  0.5212
 1014PF6-    F614857   4.126   3.257   1.455  0.1663  0.2904  0.6506
 1014PF6-    F714858   4.062   2.949   1.387  0.0327 -0.4024 -1.0154
 1015PF6-    P114859   4.174   1.042   3.865  0.1489 -0.3902 -0.2161
 1015PF6-    F214860   4.115   0.898   3.874 -0.0371  0.3207 -0.0327
 1015PF6-    F314861   4.239   1.185   3.852  0.3042  0.2910 -0.2513
 1015PF6-    F414862   4.027   1.097   3.901  0.3364 -0.6870  0.0824
 1015PF6-    F514863   4.319   0.980   3.831  0.0877  0.1456 -0.1775
 1015PF6-    F614864   4.135   1.036   3.707  0.0735  0.6532 -0.6538
 1015PF6-    F714865   4.206   1.044   4.022 -0.2506  0.2948 -0.5475
 1016PF6-    P114866   4.469   0.138   3.064 -0.3220  0.3001 -0.1629
 1016PF6-    F214867   4.592   0.110   3.165  0.7538 -0.1639  0.0278
 1016PF6-    F314868   4.346   0.169   2.961  0.2856 -0.6315  0.1216
 1016PF6-    F414869   4.378   0.035   3.144  0.1161 -0.1423 -0.6339
 1016PF6-    F514870   4.555   0.244   2.978 -0.1237 -0.9262 -0.0641
 1016PF6-    F614871   4.524   0.023   2.969 -0.1408  0.5573 -0.0273
 1016PF6-    F714872   4.415   0.262   3.150  0.0016  0.2520 -0.7025
 1017PF6-    P114873   4.995   3.112   5.421  0.2065  0.0092  0.1077
 1017PF6-    F214874   4.871   3.103   5.316 -0.2760 -0.3742 -1.0511
 1017PF6-    F314875   5.125   3.128   5.513 -0.0630 -0.3187  0.3415
 1017PF6-    F414876   5.049   3.233   5.329 -0.5959 -0.1553 -0.0157
 1017PF6-    F514877   4.941   2.990   5.502 -0.4340 -0.3249 -0.0055
 1017PF6-    F614878   5.077   3.017   5.324  0.3294 -0.1834 -0.3921
 1017PF6-    F714879   4.912   3.217   5.511 -0.1640 -0.0516 -0.5978
 1018PF6-    P114880   3.348   2.290   2.128 -0.1750  0.2895  0.4460
 1018PF6-    F214881   3.461   2.385   2.066 -0.5504 -0.0977 -0.2463
 1018PF6-    F314882   3.230   2.189   2.175 -0.2164  0.2192 -0.4290
 1018PF6-    F414883   3.422   2.160   2.070 -0.3753  0.2516 -0.3489
 1018PF6-    F514884   3.261   2.415   2.181  0.3146 -0.6179  0.0977
 1018PF6-    F614885   3.282   2.300   1.986  0.2954  0.3119 -0.0300
 1018PF6-    F714886   3.420   2.287   2.266  0.3510  0.1895 -0.1121
 1019PF6-    P114887   4.020   4.445   2.785  0.0151  0.1137 -0.2799
 1019PF6-    F214888   4.070   4.459   2.937  0.4458  0.0082 -0.1755
 1019PF6-    F314889   3.961   4.426   2.632 -0.0063 -0.0622 -0.2738
 1019PF6-    F414890   4.165   4.495   2.734  0.4289 -0.1192 -0.1903
 1019PF6-    F514891   3.872   4.390   2.842  0.2803 -0.7813  0.2495
 1019PF6-    F614892   3.968   4.592   2.787 -0.0617 -0.2950  0.1595
 1019PF6-    F714893   4.074   4.294   2.778  0.0244  0.1000  0.3790
 1020PF6-    P114894   4.309   2.237   2.030  0.4144  0.2788 -0.5976
 1020PF6-    F214895   4.196   2.277   1.923  0.0422 -0.1315  0.3096
 1020PF6-    F314896   4.413   2.197   2.144  0.2886 -0.1824  0.4473
 1020PF6-    F414897   4.193   2.172   2.116  0.2195  0.0614 -0.2247
 1020PF6-    F514898   4.427   2.297   1.940 -0.0215  0.3131 -0.1175
 1020PF6-    F614899   4.291   2.385   2.097 -0.1059  0.1593 -0.1408
 1020PF6-    F714900   4.328   2.101   1.960 -0.4231  0.1896  0.0543
 1021PF6-    P114901   3.076   3.781   3.121  0.2792 -0.2002 -0.1659
 1021PF6-    F214902   3.008   3.894   3.218  0.2769  0.5195  0.2097
 1021PF6-    F314903   3.149   3.674   3.028 -0.5157 -0.4644  0.1148
 1021PF6-    F414904   3.170   3.899   3.061 -0.4314 -0.3696  0.4366
 1021PF6-    F514905   2.981   3.668   3.188  0.2378  0.3098 -0.4431
 1021PF6-    F614906   2.959   3.806   3.009  0.2255 -0.3004 -0.1761
 1021PF6-    F714907   3.181   3.759   3.242  0.3754  0.1446 -0.1603
 1022PF6-    P114908   1.148   0.536   3.993  0.0749  0.2455  0.4484
 1022PF6-    F214909   1.306   0.581   4.012  0.5485 -0.1246 -0.7156
 1022PF6-    F314910   0.992   0.492   3.980 -0.3895  0.0665 -0.1826
 1022PF6-    F414911   1.197   0.385   4.012 -0.2050  0.1896  0.1201
 1022PF6-    F514912   1.110   0.681   3.960 -0.0168  0.2172  0.6318
 1022PF6-    F614913   1.178   0.517   3.835  0.5266  0.0569 -0.4674
 1022PF6-    F714914   1.128   0.558   4.155  0.0169  0.5065  0.7941
 1023PF6-    P114915   1.651   4.552   5.210  0.0139  0.0250 -0.5378
 1023PF6-    F214916   1.503   4.491   5.252 -0.7037  0.2469  0.5526
 1023PF6-    F314917   1.786   4.615   5.171  0.4332  0.3114 -0.5892
 1023PF6-    F414918   1.623   4.686   5.298  0.2894 -0.6452 -0.0579
 1023PF6-    F514919   1.673   4.422   5.118  0.1821  0.6235  0.2521
 1023PF6-    F614920   1.579   4.632   5.085 -0.5387  0.5329 -0.3274
 1023PF6-    F714921   1.723   4.483   5.339 -0.0563 -0.6135 -0.0393
 1024PF6-    P114922   4.255   5.475   1.691 -0.1127  0.1500  0.2849
 1024PF6-    F214923   4.199   5.588   1.597 -0.3799 -0.3291 -0.1683
 1024PF6-    F314924   4.311   5.349   1.776 -0.0785 -0.6443  0.3541
 1024PF6-    F414925   4.109   5.463   1.750 -0.3309  0.4954 -0.3621
 1024PF6-    F514926   4.406   5.485   1.620 -0.1973 -0.1275  0.3412
 1024PF6-    F614927   4.294   5.574   1.813  0.4617 -0.5634  0.0677
 1024PF6-    F714928   4.211   5.374   1.579 -0.1875 -0.1674 -0.1036
 1025PF6-    P114929   2.558   2.138   4.663  0.1433 -0.2116 -0.4043
 1025PF6-    F214930   2.627   2.029   4.566 -0.6615  0.2219  0.2969
 1025PF6-    F314931   2.493   2.237   4.761  0.3309 -0.5310 -0.0074
 1025PF6-    F414932   2.477   2.199   4.537  0.1039  0.3468  0.5351
 1025PF6-    F514933   2.627   2.079   4.794 -0.2115  0.5242  0.1555
 1025PF6-    F614934   2.680   2.238   4.642  0.1881  0.0096 -0.5574
 1025PF6-    F714935   2.438   2.034   4.689  0.2739 -0.1894  0.5688
 1026PF6-    P114936   3.494   0.993   3.288  0.1356 -0.1110  0.0915
 1026PF6-    F214937   3.533   0.988   3.441 -0.3882  0.7502 -0.4265
 1026PF6-    F314938   3.469   0.991   3.129 -0.4710 -0.3771 -0.7684
 1026PF6-    F414939   3.428   0.854   3.303 -0.1325  0.2552 -0.1058
 1026PF6-    F514940   3.563   1.142   3.281 -0.1458 -0.7454 -0.4723
 1026PF6-    F614941   3.634   0.922   3.269  0.1387 -0.6775  0.4094
 1026PF6-    F714942   3.355   1.064   3.320  0.9127 -0.1108  0.0536
 1027PF6-    P114943   1.086   1.173   2.234  0.4350  0.3108  0.0111
 1027PF6-    F214944   0.930   1.144   2.260 -0.0969  0.1548  0.4378
 1027PF6-    F314945   1.240   1.196   2.204  0.1153  0.0197  0.0772
 1027PF6-    F414946   1.104   1.016   2.230 -0.1635 -0.0261  0.4500
 1027PF6-    F514947   1.064   1.333   2.240 -0.1582 -0.0704  0.2615
 1027PF6-    F614948   1.109   1.169   2.391 -0.3978 -0.1458 -0.1469
 1027PF6-    F714949   1.061   1.176   2.074  0.9902 -0.4033 -0.0705
 1028PF6-    P114950   5.224   3.197   1.933  0.0860  0.1783  0.2270
 1028PF6-    F214951   5.306   3.145   2.060 -0.4360  0.5225 -0.1893
 1028PF6-    F314952   5.138   3.250   1.811 -0.0560  1.1178  0.0792
 1028PF6-    F414953   5.339   3.299   1.897 -0.1589  0.0458  0.0064
 1028PF6-    F514954   5.108   3.088   1.965 -0.1056 -0.3670 -0.5900
 1028PF6-    F614955   5.155   3.305   2.030 -0.1707 -0.0797 -0.2152
 1028PF6-    F714956   5.300   3.089   1.838  0.5685  0.1458 -0.2757
 1029PF6-    P114957   4.336   4.194   2.037  0.1377 -0.0066 -0.1224
 1029PF6-    F214958   4.446   4.258   2.135  0.0333  0.3929 -0.1484
 1029PF6-    F314959   4.227   4.138   1.938  0.2689 -0.1379  0.3089
 1029PF6-    F414960   4.315   4.335   1.979  0.3462  0.3253 -0.0694
 1029PF6-    F514961   4.360   4.046   2.100  0.0387 -0.1310 -0.4204
 1029PF6-    F614962   4.214   4.224   2.142 -0.0014  0.5615  0.1861
 1029PF6-    F714963   4.456   4.172   1.931  0.7309 -0.3511 -0.3151
 1030PF6-    P114964   0.153   3.651   0.322  0.3319 -0.4701  0.1426
 1030PF6-    F214965   0.224   3.515   0.372  0.3811 -0.3733 -0.3104
 1030PF6-    F314966   0.082   3.789   0.275 -0.2127  0.4711 -0.4349
 1030PF6-    F414967   0.205   3.721   0.458  0.1387 -0.3631  0.6200
 1030PF6-    F514968   0.123   3.587   0.186 -0.0380  0.5057  0.5219
 1030PF6-    F614969   0.019   3.604   0.390  0.4482  0.3746  0.4195
 1030PF6-    F714970   0.286   3.698   0.258 -0.5383  0.0633 -0.1617
 1031PF6-    P114971   2.040   2.852   2.115  0.1059  0.6840  0.2135
 1031PF6-    F214972   2.124   2.917   2.232 -0.3960  0.0895 -0.2512
 1031PF6-    F314973   1.958   2.787   1.996 -0.2406  0.2318  0.0534
 1031PF6-    F414974   2.138   2.729   2.128 -0.2285  0.5080  0.1789
 1031PF6-    F514975   1.943   2.978   2.099  0.1983  0.2751  0.3672
 1031PF6-    F614976   2.137   2.915   2.008 -0.4489  0.0382 -0.0472
 1031PF6-    F714977   1.937   2.784   2.215  0.4674 -0.1791 -0.0139
 1032PF6-    P114978   2.718   2.743   0.140 -0.1650 -0.4082 -0.1042
 1032PF6-    F214979   2.805   2.879   0.192 -0.0603  0.2603 -0.6218
 1032PF6-    F314980   2.632   2.616   0.093  0.2544 -0.5831 -0.1798
 1032PF6-    F414981   2.850   2.681   0.071 -0.4524  0.0761 -0.2492
 1032PF6-    F514982   2.586   2.803   0.207  0.4045  0.0483  0.2751
 1032PF6-    F614983   2.688   2.813   0.001  0.1113 -0.0089  0.4512
 1032PF6-    F714984   2.761   2.671   0.277  0.3478 -0.2944  0.6515
 1033PF6-    P114985   4.385   3.270   4.397 -0.1323  0.4493  0.4242
 1033PF6-    F214986   4.387   3.189   4.537  0.7490 -0.5317 -0.0144
 1033PF6-    F314987   4.385   3.349   4.256 -0.0801  0.3657 -0.4196
 1033PF6-    F414988   4.370   3.133   4.308 -0.5561  0.0491 -0.4103
 1033PF6-    F514989   4.395   3.410   4.470 -0.2972 -0.3806  0.3432
 1033PF6-    F614990   4.549   3.258   4.392 -0.1949 -0.0653 -0.0597
 1033PF6-    F714991   4.226   3.282   4.403 -0.5079 -0.1058 -0.2443
 1034PF6-    P114992   3.521   4.450   4.134  0.2696 -0.4311 -0.0276
 1034PF6-    F214993   3.370   4.446   4.095  0.2554 -0.2631 -0.6727
 1034PF6-    F314994   3.674   4.458   4.173  0.2569  0.0280  0.1342
 1034PF6-    F414995   3.493   4.593   4.195  0.6810 -0.1775 -0.4359
 1034PF6-    F514996   3.548   4.302   4.075 -0.1536  0.5106  0.2382
 1034PF6-    F614997   3.552   4.516   3.992  0.0853  0.0426  0.5618
 1034PF6-    F714998   3.484   4.387   4.277 -0.3326  0.0659  0.3038
 1035PF6-    P114999   0.893   2.070   5.275 -0.3234  0.0192 -0.5711
 1035PF6-    F215000   0.973   2.074   5.413 -0.0475 -0.0824 -0.0344
 1035PF6-    F315001   0.818   2.069   5.130 -0.0920  0.4601  0.2674
 1035PF6-    F415002   0.769   2.005   5.350 -0.1641 -0.1938 -0.0369
 1035PF6-    F515003   1.019   2.145   5.200  0.1617 -0.4381  0.0580
 1035PF6-    F615004   0.967   1.928   5.251  0.3661  0.0835  0.9501
 1035PF6-    F715005   0.830   2.218   5.298  0.4626 -0.4436  0.0313
 1036PF6-    P115006   4.033   2.512   0.701  0.0481  0.1702 -0.2774
 1036PF6-    F215007   4.021   2.352   0.685 -0.8262  0.4235 -0.2797
 1036PF6-    F315008   4.047   2.675   0.711 -0.7633 -0.2465  0.2448
 1036PF6-    F415009   4.045   2.492   0.860  0.2443 -0.1822  0.2016
 1036PF6-    F515010   4.016   2.530   0.538 -0.1300 -0.0922 -0.4674
 1036PF6-    F615011   3.872   2.522   0.709  0.1125 -0.4063 -0.0278
 1036PF6-    F715012   4.192   2.494   0.686  0.1301  0.4651  0.2387
 1037PF6-    P115013   1.418   0.103   0.463 -0.0528 -0.3297  0.0930
 1037PF6-    F215014   1.564   0.122   0.535 -0.5213  0.1524  0.2361
 1037PF6-    F315015   1.273   0.085   0.387 -0.3011 -0.0673 -0.2733
 1037PF6-    F415016   1.413  -0.050   0.509 -0.0069 -0.1072 -0.0216
 1037PF6-    F515017   1.425   0.252   0.413  0.2394 -0.4306  0.2202
 1037PF6-    F615018   1.484   0.056   0.330 -0.3278  0.5434  0.0995
 1037PF6-    F715019   1.347   0.147   0.596  0.1126  0.3472 -0.4619
 1038PF6-    P115020   2.893   4.942   3.429 -0.1594  0.2479  0.0756
 1038PF6-    F215021   2.792   4.842   3.512 -0.1257  0.1272 -0.2757
 1038PF6-    F315022   2.998   5.035   3.349  0.9285 -0.0401 -0.4408
 1038PF6-    F415023   3.005   4.901   3.534 -0.4167  0.1707  0.0854
 1038PF6-    F515024   2.782   4.978   3.321  0.2035 -0.4237  0.1348
 1038PF6-    F615025   2.851   5.067   3.520 -0.3805  0.1084  0.6687
 1038PF6-    F715026   2.940   4.817   3.338 -0.2012 -0.7030 -0.1592
 1039PF6-    P115027   4.538   1.275   0.632 -0.3002 -0.0392  0.4635
 1039PF6-    F215028   4.475   1.156   0.720  0.0886 -0.1423 -0.2915
 1039PF6-    F315029   4.604   1.385   0.540 -0.1928  0.1788  0.1752
 1039PF6-    F415030   4.682   1.203   0.652  0.1028 -0.3653 -0.2734
 1039PF6-    F515031   4.391   1.341   0.607 -0.3231  0.7704 -0.3428
 1039PF6-    F615032   4.553   1.374   0.763  0.1706  0.2622  0.1256
 1039PF6-    F715033   4.515   1.185   0.504  0.0073 -0.2864  0.3948
 1040PF6-    P115034   3.592   5.496   0.554 -0.2843 -0.6410  0.0228
 1040PF6-    F215035   3.482   5.513   0.674 -0.1902  0.1795 -0.3049
 1040PF6-    F315036   3.698   5.483   0.435 -0.0189  0.2770  0.0692
 1040PF6-    F415037   3.463   5.488   0.454 -0.2195  0.1177  0.1967
 1040PF6-    F515038   3.714   5.507   0.657  0.0627 -0.5642  0.2635
 1040PF6-    F615039   3.591   5.333   0.567  0.1524 -0.2263  0.4644
 1040PF6-    F715040   3.585   5.651   0.545 -0.3185  0.4883  0.1374
 1041PF6-    P115041   0.041   2.580   3.746 -0.4227  0.0725 -0.0196
 1041PF6-    F215042   0.085   2.521   3.597  0.5014  0.4285  0.5871
 1041PF6-    F315043   0.003   2.637   3.890 -0.4518  0.4366  0.8353
 1041PF6-    F415044  -0.115   2.569   3.706 -0.1325  0.2534 -0.1509
 1041PF6-    F515045   0.192   2.581   3.790 -0.2419  0.1621 -0.3539
 1041PF6-    F615046   0.060   2.731   3.694  0.0459  0.5325  0.1618
 1041PF6-    F715047   0.034   2.433   3.810  0.0163 -0.1240  0.3612
 1042PF6-    P115048   1.793   2.280   0.238 -0.3356 -0.0944  0.1199
 1042PF6-    F215049   1.640   2.269   0.196  0.1784 -0.6368 -0.1403
 1042PF6-    F315050   1.947   2.301   0.271 -0.0709 -0.1347 -0.2448
 1042PF6-    F415051   1.746   2.341   0.381  0.3199  0.3880  0.3404
 1042PF6-    F515052   1.844   2.225   0.096 -0.1706  0.1424 -0.8351
 1042PF6-    F615053   1.794   2.435   0.183  0.3623  0.3489  0.0152
 1042PF6-    F715054   1.787   2.133   0.288 -0.0786  0.5130  0.1201
 1043PF6-    P115055   4.626   4.817   4.886 -0.0516  0.2671 -0.4087
 1043PF6-    F215056   4.519   4.925   4.929 -0.0658 -0.7443 -0.6230
 1043PF6-    F315057   4.736   4.699   4.847  0.6792 -0.3529  0.1497
 1043PF6-    F415058   4.739   4.930   4.883  0.4763  0.2162 -0.1053
 1043PF6-    F515059   4.518   4.702   4.886  0.0712  0.3864 -0.4499
 1043PF6-    F615060   4.603   4.852   4.733  0.3236 -0.3041  0.2883
 1043PF6-    F715061   4.658   4.793   5.040 -0.1157  0.2707 -0.5070
 1044PF6-    P115062   1.779   2.536   3.948  0.1351  0.0137  0.3830
 1044PF6-    F215063   1.688   2.625   4.048  0.6116  0.0074  0.0224
 1044PF6-    F315064   1.870   2.449   3.847 -0.0426 -0.0606  0.2816
 1044PF6-    F415065   1.802   2.428   4.062  0.3891  0.2017  0.2997
 1044PF6-    F515066   1.749   2.644   3.830  0.6971 -0.1924  0.2757
 1044PF6-    F615067   1.903   2.622   4.001 -0.3108  0.6424 -0.0447
 1044PF6-    F715068   1.654   2.455   3.904  0.1577  0.4816  0.2552
 1045PF6-    P115069   4.218   1.317   5.241 -0.2692 -0.3547  0.4495
 1045PF6-    F215070   4.159   1.398   5.358  0.3877 -0.0867 -0.5862
 1045PF6-    F315071   4.287   1.244   5.121 -0.2621  0.2064  0.3029
 1045PF6-    F415072   4.230   1.455   5.158  0.2544  0.4601  0.7693
 1045PF6-    F515073   4.208   1.182   5.323 -0.1395 -0.3657 -0.7879
 1045PF6-    F615074   4.069   1.292   5.180  0.1632  0.1023 -0.1512
 1045PF6-    F715075   4.368   1.346   5.301  0.1504 -0.0593 -0.2907
 1046PF6-    P115076   5.245   2.022   2.486  0.0671 -0.4613 -0.4101
 1046PF6-    F215077   5.280   1.867   2.445  0.0885  0.6468 -0.4219
 1046PF6-    F315078   5.214   2.168   2.525  0.1087  0.0202  0.0514
 1046PF6-    F415079   5.246   1.982   2.646  1.0176  0.1911  0.3535
 1046PF6-    F515080   5.243   2.061   2.332  0.3415  0.1060  0.1229
 1046PF6-    F615081   5.088   1.997   2.481  0.4149 -0.1757  0.2232
 1046PF6-    F715082   5.407   2.057   2.494 -0.1008  0.3327 -0.4136
 1047PF6-    P115083   3.375   1.825   2.907 -0.3387  0.2008 -0.3518
 1047PF6-    F215084   3.263   1.893   2.998  0.2338 -0.0657 -0.3217
 1047PF6-    F315085   3.493   1.767   2.814 -0.7167 -0.3805 -0.7318
 1047PF6-    F415086   3.262   1.774   2.808  0.2041  0.3793 -0.0393
 1047PF6-    F515087   3.480   1.884   3.005 -0.4574 -0.0813  0.3032
 1047PF6-    F615088   3.365   1.687   2.996  0.0803 -0.0056 -0.2432
 1047PF6-    F715089   3.387   1.962   2.827 -0.2069  0.2349  0.3767
 1048PF6-    P115090   5.438   2.491   4.843  0.1557  0.1332 -0.3807
 1048PF6-    F215091   5.367   2.411   4.969 -0.0088  0.1054 -0.2284
 1048PF6-    F315092   5.499   2.564   4.718  0.5153  0.1061  0.1170
 1048PF6-    F415093   5.545   2.551   4.946  0.4257 -0.3025 -0.5843
 1048PF6-    F515094   5.334   2.419   4.739 -0.6679 -0.8659 -0.1621
 1048PF6-    F615095   5.340   2.618   4.863  0.2570  0.5039  0.1096
 1048PF6-    F715096   5.538   2.365   4.826  0.0294 -0.1896  0.0253
 1049PF6-    P115097   0.668   5.117   1.710  0.1226  0.0120  0.4820
 1049PF6-    F215098   0.778   5.175   1.617  0.0381  0.0477  0.0829
 1049PF6-    F315099   0.556   5.059   1.807 -0.1571 -0.6488 -0.2870
 1049PF6-    F415100   0.707   4.973   1.666 -0.3215  0.1661 -0.0773
 1049PF6-    F515101   0.613   5.266   1.742 -0.4625  0.1475  0.5523
 1049PF6-    F615102   0.573   5.115   1.586 -0.3361  0.1389  0.5357
 1049PF6-    F715103   0.774   5.117   1.830 -0.1299 -0.1725 -0.1200
 1050PF6-    P115104   0.766   4.448   2.365 -0.0099 -0.0955  0.1783
 1050PF6-    F215105   0.760   4.522   2.224  0.2624 -0.2105  0.6445
 1050PF6-    F315106   0.783   4.370   2.502  0.0355  0.1115 -0.5646
 1050PF6-    F415107   0.849   4.573   2.417  0.7104  0.1074 -0.8305
 1050PF6-    F515108   0.677   4.325   2.305  0.0241 -0.8947  0.2920
 1050PF6-    F615109   0.895   4.376   2.315 -0.0068 -0.2317 -0.9244
 1050PF6-    F715110   0.636   4.518   2.425 -0.0195 -0.5935 -0.2885
 1051PF6-    P115111   5.104   0.606   1.126 -0.4195  0.2052 -0.4583
 1051PF6-    F215112   4.951   0.641   1.086 -0.0090  0.3355  0.0737
 1051PF6-    F315113   5.257   0.569   1.166  0.6750  0.1743 -0.3113
 1051PF6-    F415114   5.066   0.453   1.134  0.5910 -0.0052  0.0060
 1051PF6-    F515115   5.144   0.760   1.121 -0.7886 -0.8352 -0.0642
 1051PF6-    F615116   5.071   0.622   1.279  0.3689  0.1515  0.4043
 1051PF6-    F715117   5.141   0.592   0.966  0.2853 -0.6370 -0.4598
 1052PF6-    P115118   4.098   3.229   3.363 -0.2995 -0.5573 -0.2111
 1052PF6-    F215119   4.037   3.141   3.240 -0.0768 -0.0268 -0.4223
 1052PF6-    F315120   4.149   3.321   3.479 -0.4359 -0.1633  0.0857
 1052PF6-    F415121   4.046   3.117   3.464 -0.3171 -0.0147  0.4677
 1052PF6-    F515122   4.152   3.347   3.263 -0.2230  0.5422 -0.9917
 1052PF6-    F615123   3.956   3.313   3.372 -0.1496  0.1511  0.0353
 1052PF6-    F715124   4.239   3.159   3.346 -0.1866  0.0806  0.1354
 1053PF6-    P115125   1.192   3.408   2.443  0.3567 -0.2491 -0.2356
 1053PF6-    F215126   1.095   3.493   2.543  0.3348 -0.6399 -0.0607
 1053PF6-    F315127   1.282   3.327   2.341 -0.2512  0.1619  0.8764
 1053PF6-    F415128   1.319   3.481   2.501  0.6395  0.2482  0.1831
 1053PF6-    F515129   1.058   3.334   2.381  0.1521  0.5769  0.0748
 1053PF6-    F615130   1.187   3.531   2.338  0.5070  0.3719 -0.4747
 1053PF6-    F715131   1.213   3.300   2.556 -0.1472  0.0198  0.0286
 1054PF6-    P115132   1.792   3.069   0.940 -0.1677 -0.0723 -0.2817
 1054PF6-    F215133   1.780   3.016   1.092  0.0686 -0.1694 -0.1407
 1054PF6-    F315134   1.791   3.132   0.797 -0.8780  0.1471  0.2961
 1054PF6-    F415135   1.944   3.018   0.924 -0.2033 -0.0192 -0.6570
 1054PF6-    F515136   1.643   3.118   0.952 -0.5057  0.0210  0.3123
 1054PF6-    F615137   1.838   3.208   1.002  0.6525  0.3574  0.5103
 1054PF6-    F715138   1.743   2.927   0.883  0.4084  0.3076 -0.0280
 1055PF6-    P115139   4.563   2.870   2.484  0.0367  0.2048 -0.1033
 1055PF6-    F215140   4.614   2.991   2.391 -0.0011 -0.0285  0.1231
 1055PF6-    F315141   4.517   2.753   2.574  0.1339  0.5272  0.2582
 1055PF6-    F415142   4.470   2.817   2.365  0.6470 -0.2009 -0.4520
 1055PF6-    F515143   4.665   2.916   2.596 -0.1961 -0.2034  0.7954
 1055PF6-    F615144   4.443   2.960   2.550  0.1002  0.2120  0.3875
 1055PF6-    F715145   4.672   2.768   2.425 -0.1599 -0.0404  0.6251
 1056PF6-    P115146   2.748   0.933   1.945 -0.0532  0.1803  0.1812
 1056PF6-    F215147   2.853   1.014   2.038  0.1921  0.5445 -0.1044
 1056PF6-    F315148   2.640   0.852   1.855  0.7270 -0.1422 -0.3729
 1056PF6-    F415149   2.633   0.988   2.043  0.2279 -0.1807  0.1377
 1056PF6-    F515150   2.868   0.885   1.848 -0.0955 -0.5234  0.5485
 1056PF6-    F615151   2.764   0.804   2.041  0.0237 -0.6344  0.1258
 1056PF6-    F715152   2.731   1.061   1.848  0.1375 -0.0739  0.4211
 1057PF6-    P115153   1.648   1.175   3.730  0.0407  0.1693 -0.3830
 1057PF6-    F215154   1.693   1.314   3.664 -0.1820  0.0461  0.0063
 1057PF6-    F315155   1.595   1.029   3.787 -0.0555 -0.3468  0.2989
 1057PF6-    F415156   1.603   1.124   3.587  0.4252 -0.1926 -0.2947
 1057PF6-    F515157   1.692   1.219   3.876  0.0538  0.0605 -0.0921
 1057PF6-    F615158   1.501   1.229   3.749 -0.1119  0.0415  0.2249
 1057PF6-    F715159   1.795   1.122   3.703  0.3735  0.5041  0.2918
 1058PF6-    P115160   2.560   3.466   1.718 -0.1846 -0.0167  0.1145
 1058PF6-    F215161   2.691   3.498   1.644 -0.1130 -0.7112  0.3848
 1058PF6-    F315162   2.421   3.438   1.800 -0.2041  0.5543  0.1179
 1058PF6-    F415163   2.555   3.616   1.774 -0.3493  0.5769  0.5971
 1058PF6-    F515164   2.564   3.315   1.667  0.0876 -0.0879  0.0699
 1058PF6-    F615165   2.648   3.424   1.848 -0.1926 -0.6216 -0.4826
 1058PF6-    F715166   2.472   3.521   1.595 -0.0928 -0.7912 -0.2442
 1059PF6-    P115167   2.313   0.047   1.843  0.3217 -0.3822 -0.1062
 1059PF6-    F215168   2.309   0.082   2.002 -0.3155 -0.3262 -0.3537
 1059PF6-    F315169   2.316   0.017   1.685  0.2689  0.2480 -0.5474
 1059PF6-    F415170   2.157   0.005   1.855  0.1309  0.3419  0.4397
 1059PF6-    F515171   2.474   0.084   1.845 -0.0307 -0.4004 -0.3235
 1059PF6-    F615172   2.352  -0.105   1.878 -0.5053 -0.5565  0.2287
 1059PF6-    F715173   2.269   0.196   1.806 -0.3341  0.0161 -0.4041
 1060PF6-    P115174   1.363   3.313   4.810 -0.0874 -0.0725 -0.5947
 1060PF6-    F215175   1.223   3.242   4.815 -0.2468  0.4111 -0.0864
 1060PF6-    F315176   1.509   3.385   4.804  0.0445 -0.2118 -0.2688
 1060PF6-    F415177   1.414   3.190   4.725  0.1672  0.3355  0.0284
 1060PF6-    F515178   1.308   3.439   4.896  0.4565  0.3245 -0.1922
 1060PF6-    F615179   1.412   3.243   4.941 -0.7342  0.2663 -0.2915
 1060PF6-    F715180   1.314   3.393   4.675  0.4228 -0.0822 -0.1305
 1061PF6-    P115181   0.129   0.524   2.253  0.0180 -0.3598 -0.0113
 1061PF6-    F215182   0.054   0.392   2.199  0.3417  0.4003  0.5575
 1061PF6-    F315183   0.197   0.655   2.313  0.5317  0.1704 -0.0400
 1061PF6-    F415184   0.204   0.540   2.112 -0.0704  0.1106 -0.2353
 1061PF6-    F515185   0.059   0.508   2.396  0.0483  0.3745  0.2501
 1061PF6-    F615186   0.253   0.440   2.313 -0.4491  0.3914 -0.0466
 1061PF6-    F715187   0.004   0.611   2.197  0.2595 -0.4643 -0.4160
 1062PF6-    P115188   3.095   0.584   4.031  0.1514  0.4651  0.0666
 1062PF6-    F215189   2.966   0.632   3.939 -0.4245 -0.0958 -0.1552
 1062PF6-    F315190   3.218   0.541   4.123  0.5755  0.0018  0.1490
 1062PF6-    F415191   3.015   0.461   4.093 -0.3940  0.1490  0.5290
 1062PF6-    F515192   3.177   0.711   3.975 -0.0574 -0.4853  0.4612
 1062PF6-    F615193   3.046   0.685   4.148  0.5677 -0.0197  0.0495
 1062PF6-    F715194   3.145   0.503   3.903 -0.2291  0.2673 -0.0222
 1063PF6-    P115195   4.491   1.931   3.045 -0.2597  0.1609  0.1870
 1063PF6-    F215196   4.539   2.088   3.008 -0.1277  0.6024 -0.0689
 1063PF6-    F315197   4.435   1.788   3.083 -0.1822  0.3831 -0.1971
 1063PF6-    F415198   4.402   1.923   2.914 -0.3114 -0.1427  0.2632
 1063PF6-    F515199   4.570   1.936   3.182  0.3200 -0.1096 -0.4260
 1063PF6-    F615200   4.368   2.001   3.120  0.2349  0.1797 -0.7373
 1063PF6-    F715201   4.614   1.866   2.971 -0.2129 -0.2910 -0.1960
 1064PF6-    P115202   4.080   4.875   0.323 -0.1974 -0.2010 -0.6130
 1064PF6-    F215203   4.066   4.796   0.465 -0.2548  0.3399  0.1618
 1064PF6-    F315204   4.087   4.957   0.181 -0.2310 -0.6943 -0.2472
 1064PF6-    F415205   4.240   4.917   0.351 -0.7662  0.2134  0.2022
 1064PF6-    F515206   3.924   4.832   0.291 -0.1522  0.0248  0.1137
 1064PF6-    F615207   4.035   5.008   0.398 -0.0138 -0.2200  0.2835
 1064PF6-    F715208   4.135   4.739   0.256  0.0422 -0.4885 -0.1637
 1065PF6-    P115209   2.004   5.085   4.453 -0.1459  0.1269 -0.0081
 1065PF6-    F215210   2.048   5.155   4.317  0.4578 -0.4580  0.1285
 1065PF6-    F315211   1.967   5.021   4.593 -0.9690  0.4544 -0.2156
 1065PF6-    F415212   1.918   5.216   4.490  0.2654 -0.5728 -0.0717
 1065PF6-    F515213   2.095   4.956   4.414 -0.0386 -0.5711  0.0094
 1065PF6-    F615214   2.129   5.164   4.527  0.2561 -0.3962 -0.3168
 1065PF6-    F715215   1.876   5.012   4.390 -0.7842 -0.0975 -0.0339
 1066PF6-    P115216   1.904   1.563   1.136 -0.0094  0.2582 -0.1394
 1066PF6-    F215217   1.874   1.597   0.983 -0.1001 -0.2271  0.0947
 1066PF6-    F315218   1.939   1.531   1.288  0.2656  0.2474  0.0024
 1066PF6-    F415219   2.062   1.572   1.110 -0.1122 -0.0902  0.3054
 1066PF6-    F515220   1.744   1.563   1.159 -0.2253  0.2997 -0.1259
 1066PF6-    F615221   1.901   1.408   1.098 -0.5150  0.0065 -0.0870
 1066PF6-    F715222   1.908   1.720   1.181 -0.1220  0.2647  0.0338
 1067PF6-    P115223   1.519   4.976   1.552 -0.3866 -0.1623 -0.1720
 1067PF6-    F215224   1.639   4.869   1.574  0.1976  0.1547 -0.5604
 1067PF6-    F315225   1.405   5.082   1.526 -0.7792  0.1963 -0.1442
 1067PF6-    F415226   1.472   4.951   1.702  0.4102  0.4638  0.0599
 1067PF6-    F515227   1.573   5.001   1.403  0.2471 -0.4837  0.5837
 1067PF6-    F615228   1.424   4.858   1.498  0.0941 -0.5459  0.4867
 1067PF6-    F715229   1.609   5.095   1.601  0.3303  0.5011  0.2079
 1068PF6-    P115230   4.163   0.668   1.198  0.0751  0.2405 -0.1783
 1068PF6-    F215231   4.248   0.608   1.080 -0.4235  0.3822  0.5331
 1068PF6-    F315232   4.082   0.721   1.319 -0.4394 -0.9400 -0.2509
 1068PF6-    F415233   4.125   0.797   1.111  0.3796 -0.3264 -0.1875
 1068PF6-    F515234   4.185   0.530   1.279 -0.0468  0.3429  0.3113
 1068PF6-    F615235   4.297   0.736   1.253 -0.3345  0.2329 -0.0294
 1068PF6-    F715236   4.027   0.602   1.146  0.0499 -0.2774  0.2570
 1069PF6-    P115237   3.231   4.268   1.876  0.5566 -0.0249 -0.1885
 1069PF6-    F215238   3.163   4.365   1.762 -0.4893 -0.2107 -0.0895
 1069PF6-    F315239   3.298   4.179   1.993  0.1797  0.1925  0.4831
 1069PF6-    F415240   3.088   4.254   1.945 -0.9266 -0.4714 -0.1018
 1069PF6-    F515241   3.373   4.281   1.801 -0.7979  0.0089 -0.0936
 1069PF6-    F615242   3.265   4.397   1.961 -0.0226 -0.1866 -0.4795
 1069PF6-    F715243   3.200   4.137   1.779 -0.5110  0.0457 -0.4237
 1070PF6-    P115244   1.763   3.674   0.163 -0.1849  0.2027  0.2698
 1070PF6-    F215245   1.821   3.653   0.312 -0.0357  0.2715  0.2156
 1070PF6-    F315246   1.717   3.690   0.006  0.5762  0.2874  0.1018
 1070PF6-    F415247   1.652   3.787   0.208  0.6694 -1.0410 -0.7024
 1070PF6-    F515248   1.870   3.565   0.118 -0.0997  0.1094  0.1717
 1070PF6-    F615249   1.649   3.562   0.188  0.2233 -0.5205 -0.4506
 1070PF6-    F715250   1.877   3.789   0.135 -0.1781 -0.1040  0.0425
 1071Na+     N115251   1.460   1.840   3.997  0.6183 -0.2975  0.0750
 1072Na+     N115252   3.679   4.912   3.805  0.3022  0.4431  0.1261
 1073Na+     N115253   4.042   0.323   3.638 -0.0753  0.8006 -0.3394
 1074Na+     N115254   2.880   5.340   0.853  0.2703 -0.2246  0.5359
 1075Na+     N115255   1.236   4.671   1.494  0.0596 -0.3079  0.5666
 1076Na+     N115256   2.863   4.168   1.915  0.3980  0.0667 -0.7188
 1077Na+     N115257   2.056   0.667   0.763  0.2269 -0.2412  0.2231
 1078Na+     N115258   4.336   4.059   1.310  0.1562 -0.2444  0.2569
 1079Na+     N115259   3.857   1.239   4.701  0.1020  0.1528 -0.5125
 1080Na+     N115260   2.943   4.478   2.783 -0.2985 -0.2387 -0.1919
 1081Na+     N115261   4.174   1.456   1.256 -0.1225  0.4022 -0.0555
 1082Na+     N115262   4.919   3.564   3.962 -0.0764  0.4282  0.3174
 1083Na+     N115263   4.693   4.977   4.514 -0.2001  0.1123  0.1056
 1084Na+     N115264   4.200   2.570   3.311  0.0427  0.4285  0.2552
 1085Na+     N115265   1.186   1.937   5.416 -0.3848  0.1071  0.9131
 1086Na+     N115266   3.381   0.923   2.485 -0.6951 -0.0960 -0.0589
 1087Na+     N115267   3.782   4.567   0.721  0.7046 -0.2893  0.0786
 1088Na+     N115268   0.814   3.625   4.382  0.3875  0.0461  0.3253
 1089Na+     N115269   2.733   5.258   3.636 -0.2130 -0.2383  0.0333
 1090Na+     N115270   0.420   3.643   0.604  0.4925 -0.0579 -0.2059
 1091Na+     N115271   0.976   2.723   0.943  0.1877 -0.4436  0.2212
 1092Na+     N115272   3.959   0.119   1.638  0.1255 -0.2695 -0.0778
 1093Na+     N115273   3.819   0.667   5.208  0.0877 -0.1429 -0.2601
 1094Na+     N115274   4.560   4.822   5.275  0.1779  0.0831 -0.6015
 1095Na+     N115275   4.877   2.727   2.303  0.2821 -0.1798 -0.0019
 1096Na+     N115276   3.506   3.450   1.262 -0.3757 -0.0797 -0.2570
 1097Na+     N115277   0.914   0.393   4.235 -0.3108  0.1463  0.4502
 1098Na+     N115278   2.855   0.130   4.804 -0.6529 -0.1137 -0.1473
 1099Na+     N115279   0.450   0.240   5.181 -0.5757  0.5838  0.2270
 1100Na+     N115280   5.051   1.817   2.673 -0.3372 -0.3175  0.4041
 1101Na+     N115281   4.511   4.831   1.636  0.2438 -0.7710 -0.3575
 1102Na+     N115282   2.683   2.915   2.194 -0.5426 -0.6276 -0.2034
 1103Na+     N115283   4.803   3.733   2.025 -0.2019 -0.2313  0.1644
 1104Na+     N115284   0.313   4.390   0.063  0.2891 -0.3304 -0.3744
 1105Na+     N115285   2.224   3.561   1.711 -0.2495  0.2053  0.2625
 1106Na+     N115286   2.051   0.240   2.628 -0.6060  0.0871  0.2773
 1107Na+     N115287   1.464   2.626   3.382  0.1198  0.4734 -0.0222
 1108Na+     N115288   3.545   2.197   1.860  0.2067 -0.1847 -0.0861
 1109Na+     N115289   4.774   1.472   3.837  0.0044  0.4202  0.3269
 1110Na+     N115290   3.127   0.554   3.678  0.3800  0.0158  0.0220
 1111Na+     N115291   0.541   2.192   1.750 -0.2500  0.1989  0.0889
 1112Na+     N115292   3.501   3.285   3.550  0.4228  0.2967 -0.3612
 1113Na+     N115293   1.916   3.259   3.886  0.3757 -0.0285 -0.6510
 1114Na+     N115294   0.106   2.161   0.022 -0.2621  0.2690 -0.2050
 1115Na+     N115295   5.306   3.735   4.832  0.0079 -0.0371  0.1347
 1116Na+     N115296   1.423   4.076   4.093  0.0390 -0.2786  0.1658
 1117Na+     N115297   4.650   0.235   0.618 -0.1933  0.5529  0.1042
 1118Na+     N115298   2.924   2.904   0.394  0.4255 -0.4332 -0.0973
 1119Na+     N115299   3.340   3.890   4.943 -0.1116 -0.7668  0.4576
 1120Na+     N115300   4.706   2.285   0.626  0.0427  0.0975  0.4458
 1121Na+     N115301   2.914   5.050   4.911  0.1344 -0.0275  1.0070
 1122Na+     N115302   0.721   0.642   2.026  0.2536  0.4856 -0.3828
 1123Na+     N115303   1.202   5.337   0.496 -0.6845  0.0428 -0.1646
 1124Na+     N115304   1.888   0.525   3.834  0.7804 -0.0995  0.2952
 1125Na+     N115305   1.803   5.092   0.112  0.1269  0.0884 -0.2489
 1126Na+     N115306   1.974   3.456   0.384  0.2216 -0.0406  0.2012
 1127Na+     N115307   4.816   0.832   2.891 -0.2498 -0.5485 -0.1526
 1128Na+     N115308   4.305   5.368   2.966  0.0726  0.0079  0.5318
 1129Na+     N115309   2.390   2.299   4.259  0.5601 -0.0024 -0.1505
 1130Na+     N115310   2.287   1.576   1.041 -0.5037  0.4349  0.4748
 1131Na+     N115311   0.315   2.471   3.387  0.1856  0.4040 -0.2708
 1132Na+     N115312   3.753   3.955   2.303 -0.3296 -0.3658  0.2349
 1133Na+     N115313   1.158   4.004   5.058 -0.3457 -0.1256 -0.2292
 1134Na+     N115314   5.077   0.027   1.757  0.2455 -0.1571  0.1553
 1135Na+     N115315   0.023   2.149   0.904 -0.0748 -0.7842  0.0432
 1136Na+     N115316   4.851   2.810   5.334 -0.1211  0.7180 -0.4838
 1137Na+     N115317   1.377   1.198   3.498  0.3071 -0.3341  0.0642
 1138Na+     N115318   5.250   3.712   0.375  0.1356  0.0767  0.8306
 1139Na+     N115319   0.267   3.060   1.269 -0.8258 -0.1688 -0.1945
 1140Na+     N115320   1.775   4.499   4.865 -0.1017  0.2527  0.5598
 1141Na+     N115321   1.709   0.745   2.045 -0.2362 -0.4048 -0.4037
 1142Na+     N115322   3.912   0.097   0.509  0.5767  0.6107  0.0127
 1143Na+     N115323   3.112   4.158   3.685  0.3265 -0.0396 -0.2161
 1144Na+     N115324   4.811   1.791   2.002  0.2417  0.1627 -0.0797
 1145Na+     N115325   2.884   0.729   1.153 -0.1104  0.4550  0.0617
 1146Na+     N115326   0.865   3.208   2.268  0.4577 -0.5044  0.3914
 1147Na+     N115327   0.552   1.460   4.440 -0.1508  0.0594  0.1329
 1148Na+     N115328   0.353   0.812   0.978 -0.0402 -0.0612  0.5880
 1149Na+     N115329   4.086   1.561   2.282 -0.1755 -0.0373 -0.1751
 1150Na+     N115330   0.447   4.989   2.050  0.4800  0.1615  0.3878
 1151Na+     N115331   1.095   0.247   1.532  0.1702 -0.6632  0.5117
 1152Na+     N115332   1.862   1.904   1.352 -0.2414  0.2286 -0.1296
 1153Na+     N115333   1.803   5.114   1.773 -0.1242 -0.3156 -0.4096
 1154Na+     N115334   1.343   3.048   5.372  0.3178  0.2645  0.4433
 1155Na+     N115335   1.348   3.970   2.058 -0.2142 -0.2222 -0.4774
 1156Na+     N115336   5.014   1.456   0.043 -0.3832 -0.0184 -0.0853
 1157Na+     N115337   4.295   0.770   1.932 -0.0301  0.1867  0.2585
 1158Na+     N115338   5.261   4.511   1.814  0.1768 -0.0314 -0.0975
 1159Na+     N115339   0.109   2.372   4.170  0.1911 -0.1129 -0.5431
 1160Na+     N115340   3.186   2.944   5.133  0.3827  0.2020  0.6621
 1161Na+     N115341   0.973   1.862   2.988  0.5485 -0.1646  0.3525
 1162Na+     N115342   2.423   2.438   0.060  0.4314 -0.3068  0.1167
 1163Na+     N115343   1.632   3.327   1.088 -0.2828 -0.3403 -0.0958
 1164Na+     N115344   5.416   1.073   1.686 -0.5604  0.2182  0.4080
 1165Na+     N115345   4.288   1.055   0.461 -0.3417  0.3740 -0.4701
 1166Na+     N115346   3.700   1.327   3.359  0.8645  0.3527  0.3335
 1167Na+     N115347   1.615   4.362   0.710 -0.5353  0.3093 -0.0510
 1168Na+     N115348   4.328   2.587   1.310 -0.1439  0.2060  0.3964
 1169Na+     N115349   3.389   1.307   1.665 -0.8060  0.0785 -0.1312
 1170Na+     N115350   0.617   4.365   3.805 -0.5440 -0.0365 -0.1798
   5.49792   5.49792   5.49792
