DG-THF-PF6-Na      Amber RESP
15500
    1DG      C1    1   4.210   0.538   2.253 -0.0911 -0.1296 -0.0968
    1DG      C2    2   4.446  -0.083   2.434 -0.3359 -0.8901  0.5952
    1DG      H3    3   4.305   0.586   2.274 -1.4331  3.3765 -1.4081
    1DG      H4    4   4.132   0.613   2.261 -0.4468 -0.5128  0.1149
    1DG      H5    5   4.236   0.508   2.152  1.4611 -1.9557  0.7820
    1DG      H6    6   4.501  -0.065   2.526 -0.6223 -0.7861  0.7483
    1DG      H7    7   4.410  -0.185   2.435 -3.9369  0.2386  1.7545
    1DG      H8    8   4.512  -0.062   2.350 -2.0357  0.7328 -0.4250
    1DG      O9    9   4.195   0.417   2.328 -0.5660  0.3689  0.2630
    1DG     O10   10   4.342   0.011   2.430 -0.0405  0.0797  0.0197
    1DG     C11   11   4.142   0.431   2.459  0.1082 -0.3456  0.2291
    1DG     C12   12   4.235  -0.029   2.513 -0.1768 -0.5435 -0.2053
    1DG     H13   13   4.076   0.517   2.466  3.0671  1.9632  2.6578
    1DG     H14   14   4.223   0.460   2.526 -0.4807 -1.7885  1.6387
    1DG     H15   15   4.284  -0.021   2.610 -0.3516  0.3008 -0.1716
    1DG     H16   16   4.208  -0.130   2.483  1.1852 -1.2487  0.8101
    1DG     C17   17   4.070   0.304   2.505  0.0989 -0.8340  0.6532
    1DG     C18   18   4.121   0.074   2.495  0.2160  0.0560  0.4208
    1DG     O19   19   4.172   0.202   2.528 -0.5090  0.1161  1.0723
    1DG     H20   20   4.022   0.271   2.413 -0.4937 -2.6147  1.5544
    1DG     H21   21   4.008   0.311   2.593 -0.7045  0.5610  0.0060
    1DG     H22   22   4.077   0.067   2.395 -1.0573 -0.1407  0.9863
    1DG     H23   23   4.042   0.060   2.568  0.5827  2.4853  1.3802
    2DG      C1   24   2.560   3.221   3.101 -0.3202  0.1326 -0.0805
    2DG      C2   25   2.580   2.822   2.498  0.4837  0.0526 -0.1453
    2DG      H3   26   2.489   3.141   3.124  0.2057 -0.7311 -1.3648
    2DG      H4   27   2.507   3.310   3.136 -2.4484 -1.0572 -0.0648
    2DG      H5   28   2.641   3.206   3.172 -2.0465 -0.9514  1.7772
    2DG      H6   29   2.496   2.775   2.446 -0.3073  2.0188 -0.7348
    2DG      H7   30   2.674   2.793   2.451  0.7481 -0.7768  0.8485
    2DG      H8   31   2.590   2.765   2.590  0.3103  1.1621  0.5729
    2DG      O9   32   2.598   3.226   2.960 -0.0067  0.7489 -0.3708
    2DG     O10   33   2.576   2.962   2.523  0.3886 -0.0190 -0.8712
    2DG     C11   34   2.697   3.323   2.947 -0.7829 -0.0889  0.3229
    2DG     C12   35   2.663   2.995   2.635 -0.3868 -0.2587  0.4811
    2DG     H13   36   2.789   3.293   2.999 -2.6782 -1.2402  3.2451
    2DG     H14   37   2.667   3.420   2.986  1.8796  0.5390  1.0536
    2DG     H15   38   2.762   2.959   2.610 -0.1674  1.3121 -1.0694
    2DG     H16   39   2.633   2.950   2.730  0.0543  0.1197  0.7995
    2DG     C17   40   2.734   3.326   2.794 -0.2654  0.2500 -0.0706
    2DG     C18   41   2.669   3.150   2.648 -0.2243  0.9725  1.0279
    2DG     O19   42   2.760   3.193   2.752 -0.3307  0.3798  0.3775
    2DG     H20   43   2.813   3.398   2.775 -0.2800  0.1926 -0.3404
    2DG     H21   44   2.649   3.368   2.741 -0.6713 -0.5646 -0.0806
    2DG     H22   45   2.678   3.208   2.556 -3.1723  1.2934  0.8341
    2DG     H23   46   2.567   3.167   2.684 -1.1682 -2.1418  0.1340
    3DG      C1   47   0.997   2.295   2.398 -0.0286 -0.1957 -0.4002
    3DG      C2   48   1.091   1.870   2.869  0.6131  0.5147  0.1223
    3DG      H3   49   0.955   2.380   2.452 -4.2166 -1.7493 -0.8075
    3DG      H4   50   0.912   2.226   2.397 -0.0319 -0.2017 -1.8614
    3DG      H5   51   1.020   2.331   2.298 -1.7581 -0.8416 -1.0735
    3DG      H6   52   1.067   1.960   2.925  2.0578  1.0060 -0.0099
    3DG      H7   53   0.998   1.842   2.820 -0.1933  0.7764  1.4596
    3DG      H8   54   1.125   1.797   2.942  0.6335  1.1363  0.7402
    3DG      O9   55   1.111   2.249   2.469  0.7241  0.1913 -0.5706
    3DG     O10   56   1.199   1.909   2.787 -0.4565  0.0265 -0.3553
    3DG     C11   57   1.155   2.122   2.430 -0.4863  0.2202  0.8215
    3DG     C12   58   1.201   1.815   2.684  0.1781  0.4785  0.1135
    3DG     H13   59   1.179   2.105   2.325  0.2848  0.2084  0.9955
    3DG     H14   60   1.069   2.056   2.444 -1.2310  0.2514 -2.7061
    3DG     H15   61   1.105   1.821   2.632  0.8589 -0.2580 -1.3059
    3DG     H16   62   1.218   1.717   2.729 -0.2010 -0.9566 -2.6541
    3DG     C17   63   1.267   2.071   2.530 -0.2964  0.1420 -0.2770
    3DG     C18   64   1.313   1.844   2.585  0.4888 -0.4934 -0.2618
    3DG     O19   65   1.285   1.936   2.483  0.2175 -0.0943  0.3318
    3DG     H20   66   1.223   2.081   2.629 -1.8733 -0.6949 -0.8670
    3DG     H21   67   1.353   2.138   2.528 -0.1002 -0.0179  1.1711
    3DG     H22   68   1.404   1.873   2.638 -0.7253 -1.7992  2.7159
    3DG     H23   69   1.335   1.751   2.532  2.6249 -0.5866  0.6892
    4DG      C1   70   4.143   0.578   4.724  0.4381  0.1736  0.6454
    4DG      C2   71   4.424   0.170   5.287 -0.1348 -0.7907 -0.4995
    4DG      H3   72   4.184   0.553   4.626  2.7542  0.4770  1.4559
    4DG      H4   73   4.194   0.670   4.754  1.1910  0.0735 -0.2823
    4DG      H5   74   4.038   0.603   4.733  0.4062  0.2507  0.0555
    4DG      H6   75   4.488   0.083   5.299  1.4574 -0.1777 -3.4260
    4DG      H7   76   4.486   0.260   5.290 -3.2326  1.4791  0.0047
    4DG      H8   77   4.342   0.190   5.356  1.1166  0.1653  0.7803
    4DG      O9   78   4.185   0.481   4.817  0.1041  0.0488  0.0493
    4DG     O10   79   4.355   0.149   5.164 -0.3731 -0.0050 -0.2438
    4DG     C11   80   4.116   0.351   4.796  0.6098 -0.2658 -0.1913
    4DG     C12   81   4.450   0.128   5.057  0.1915  0.8393 -0.4330
    4DG     H13   82   4.049   0.349   4.710 -0.9527 -3.2985  0.9383
    4DG     H14   83   4.041   0.351   4.875 -0.7153 -2.1253 -1.3597
    4DG     H15   84   4.512   0.041   5.080 -1.5891 -0.3168  0.2341
    4DG     H16   85   4.510   0.218   5.072 -0.9514  1.2473  2.4053
    4DG     C17   86   4.216   0.239   4.793  0.0771 -1.1785  0.0523
    4DG     C18   87   4.375   0.121   4.924  0.1213 -0.1569 -0.1453
    4DG     O19   88   4.296   0.236   4.911  0.7364  0.1823 -0.3034
    4DG     H20   89   4.271   0.248   4.699  2.9952  0.1453  1.7555
    4DG     H21   90   4.159   0.147   4.803 -0.6421 -0.5195  2.8557
    4DG     H22   91   4.444   0.108   4.841 -1.6549 -0.5078 -1.6081
    4DG     H23   92   4.318   0.030   4.914 -1.3449  0.1545  3.6415
    5DG      C1   93   0.934   0.731   3.268 -0.2391 -0.1669  0.8340
    5DG      C2   94   1.256   1.482   3.438 -0.3177  0.7941  0.3171
    5DG      H3   95   0.856   0.700   3.198  0.4261 -0.2979  0.1308
    5DG      H4   96   0.903   0.709   3.370 -2.6266 -3.1562 -0.3823
    5DG      H5   97   1.022   0.668   3.252  0.1312  1.1005 -3.7340
    5DG      H6   98   1.324   1.565   3.418  0.6698 -0.2353 -0.7619
    5DG      H7   99   1.164   1.531   3.470 -0.5166  0.7475 -0.1740
    5DG      H8  100   1.312   1.433   3.517  0.9750 -1.3151 -1.7728
    5DG      O9  101   0.969   0.871   3.254 -0.0905  0.1589 -0.1782
    5DG     O10  102   1.230   1.412   3.318 -0.6433  0.6005  0.1936
    5DG     C11  103   0.980   0.912   3.120  0.2024  0.6890  1.0221
    5DG     C12  104   1.175   1.278   3.352 -0.5266 -0.7729 -0.1158
    5DG     H13  105   0.890   0.878   3.067  0.4525  2.2170 -0.4900
    5DG     H14  106   1.056   0.866   3.057 -1.1330 -0.9215  0.4869
    5DG     H15  107   1.113   1.282   3.442  1.0392  0.2713  0.9715
    5DG     H16  108   1.263   1.216   3.375  0.8475 -0.0478 -2.9405
    5DG     C17  109   0.996   1.063   3.124 -0.4958  0.2027  0.3104
    5DG     C18  110   1.098   1.238   3.228  0.0828 -0.3208 -0.4454
    5DG     O19  111   1.076   1.102   3.233 -0.4738  0.7079 -0.4362
    5DG     H20  112   0.889   1.081   3.114 -0.4590  0.9560  1.1660
    5DG     H21  113   1.035   1.100   3.029  0.4834  0.2457  0.7222
    5DG     H22  114   1.011   1.304   3.226  0.0144 -0.4326 -1.2160
    5DG     H23  115   1.159   1.264   3.141 -1.4838  1.4351 -1.0862
    6DG      C1  116   4.845   2.087   4.821 -0.1479 -0.0770 -0.0911
    6DG      C2  117   4.614   1.718   4.276 -0.4337 -0.3159  0.1504
    6DG      H3  118   4.925   2.157   4.844 -0.0975  0.1311 -0.8617
    6DG      H4  119   4.844   2.019   4.906  3.0844 -0.6485 -0.3919
    6DG      H5  120   4.753   2.141   4.798 -0.1266 -0.4812 -1.2178
    6DG      H6  121   4.532   1.680   4.337 -0.3591  0.7835  0.9577
    6DG      H7  122   4.574   1.803   4.222  1.9487  0.7584 -0.0269
    6DG      H8  123   4.627   1.642   4.199 -0.0281 -1.1554  1.0196
    6DG      O9  124   4.890   2.018   4.702  0.2054 -0.0574 -0.0049
    6DG     O10  125   4.730   1.759   4.358  0.1799  0.0496  0.1826
    6DG     C11  126   4.987   2.078   4.624  0.5949  0.0135  0.1022
    6DG     C12  127   4.846   1.794   4.290  0.1599 -0.3132  0.4265
    6DG     H13  128   5.075   2.114   4.679  0.3279  0.4984  0.2234
    6DG     H14  129   4.945   2.165   4.574 -3.4885 -1.0306  1.3699
    6DG     H15  130   4.833   1.887   4.234 -2.0704 -0.8004  0.0249
    6DG     H16  131   4.874   1.713   4.221 -2.0542  0.2638 -1.2659
    6DG     C17  132   5.050   1.976   4.527 -0.0136 -0.5899  0.2482
    6DG     C18  133   4.969   1.812   4.378  0.2410  0.2221  0.1756
    6DG     O19  134   4.940   1.920   4.460 -0.0703 -0.0310  0.1693
    6DG     H20  135   5.075   1.887   4.585 -0.2013  0.2498  1.6690
    6DG     H21  136   5.124   2.018   4.459 -1.3816  0.2643 -0.7642
    6DG     H22  137   4.988   1.716   4.425 -0.3847 -1.0426 -2.0305
    6DG     H23  138   5.060   1.832   4.322  0.0898 -0.5879 -0.3735
    7DG      C1  139   1.197   1.812   1.428  0.1750  0.9682  0.2154
    7DG      C2  140   1.087   2.269   2.050 -0.3064 -0.0019  0.0185
    7DG      H3  141   1.207   1.709   1.462 -0.8666  1.0316  0.7434
    7DG      H4  142   1.227   1.809   1.323 -1.3944 -2.5303 -0.2565
    7DG      H5  143   1.091   1.836   1.426  0.4341  2.1966 -0.8614
    7DG      H6  144   1.150   2.333   2.111 -2.1660  0.1810  1.8366
    7DG      H7  145   1.067   2.321   1.956  1.4035  0.9496  0.1431
    7DG      H8  146   0.993   2.239   2.095 -0.1975 -0.6475 -0.1622
    7DG      O9  147   1.266   1.896   1.523 -0.7367 -0.3192 -0.0195
    7DG     O10  148   1.163   2.155   2.007  0.7862  0.0804 -0.0008
    7DG     C11  149   1.236   2.035   1.515 -0.2488  0.4864 -1.4153
    7DG     C12  150   1.088   2.066   1.928  0.1346  0.4200  0.0571
    7DG     H13  151   1.128   2.043   1.519 -0.3762 -1.3782  1.2239
    7DG     H14  152   1.276   2.069   1.419 -1.8833  1.5720 -1.7395
    7DG     H15  153   0.979   2.064   1.931  0.0134 -2.9662 -2.1170
    7DG     H16  154   1.124   1.964   1.938 -0.0423  0.2719 -0.7801
    7DG     C17  155   1.304   2.110   1.629 -0.7552  0.2815 -1.3186
    7DG     C18  156   1.118   2.097   1.785 -0.1377 -0.9086 -0.2241
    7DG     O19  157   1.259   2.084   1.763 -0.0016 -0.1826 -0.1288
    7DG     H20  158   1.292   2.218   1.625 -0.4561  0.3010 -1.8468
    7DG     H21  159   1.410   2.082   1.625 -0.9628 -0.7463 -0.1546
    7DG     H22  160   1.068   2.025   1.720 -1.8571  0.4838 -0.5207
    7DG     H23  161   1.087   2.199   1.762  0.7460 -0.5668  0.0712
    8DG      C1  162   0.668   1.494   5.023  1.0353  0.0512  0.5561
    8DG      C2  163   0.684   0.876   4.829  0.0443 -0.5133  0.2699
    8DG      H3  164   0.641   1.508   5.127 -0.3510  0.3199  0.1767
    8DG      H4  165   0.574   1.483   4.970  0.9441  0.9383  0.5125
    8DG      H5  166   0.713   1.580   4.973  1.8674 -0.2640  0.7354
    8DG      H6  167   0.653   0.785   4.881 -1.2623 -1.9230 -2.7198
    8DG      H7  168   0.596   0.921   4.783 -0.2794 -2.6200 -1.3211
    8DG      H8  169   0.754   0.855   4.749 -0.1822  0.1498 -0.1111
    8DG      O9  170   0.758   1.392   5.007 -0.0339 -0.4765  0.4428
    8DG     O10  171   0.747   0.973   4.912  0.2970 -0.3525 -0.3447
    8DG     C11  172   0.875   1.399   5.088  0.7710 -0.1524  0.6162
    8DG     C12  173   0.881   0.933   4.963 -0.1142  0.5329 -0.0637
    8DG     H13  174   0.845   1.380   5.192 -0.6418 -1.3834  0.0183
    8DG     H14  175   0.921   1.495   5.066  0.4213 -0.4094 -1.3715
    8DG     H15  176   0.924   0.853   4.902 -2.3138 -0.2308 -0.7323
    8DG     H16  177   0.860   0.873   5.052  2.0059 -3.5860 -2.0655
    8DG     C17  178   0.960   1.277   5.039  0.3557 -0.6648  0.2431
    8DG     C18  179   0.969   1.053   4.981 -0.6880  0.1935  0.6740
    8DG     O19  180   0.890   1.165   5.016 -0.0201 -1.0843  0.1551
    8DG     H20  181   1.041   1.253   5.108  0.3178 -0.8213  0.2323
    8DG     H21  182   1.010   1.297   4.944  1.4043 -1.9625  0.4964
    8DG     H22  183   1.040   1.019   5.057 -1.6124 -1.4597  0.8325
    8DG     H23  184   1.021   1.073   4.887 -1.8574 -0.4563 -0.1238
    9DG      C1  185   5.069   2.359   0.191 -0.3385  0.5304 -0.4602
    9DG      C2  186   4.860   2.444  -0.471 -0.1915 -0.1180  0.0537
    9DG      H3  187   5.145   2.282   0.188  1.2413  2.0347 -0.8822
    9DG      H4  188   4.968   2.319   0.179 -0.2371  0.1555 -0.0682
    9DG      H5  189   5.071   2.393   0.295 -1.1890  1.3972 -0.7087
    9DG      H6  190   4.778   2.379  -0.441 -0.5321  0.6525  0.8523
    9DG      H7  191   4.824   2.529  -0.529 -0.0439 -0.5532 -0.6759
    9DG      H8  192   4.935   2.386  -0.525  0.0890  1.5609 -1.4526
    9DG      O9  193   5.081   2.467   0.102  0.0189  0.2745 -0.2855
    9DG     O10  194   4.898   2.493  -0.347 -0.0516 -0.3387 -0.0583
    9DG     C11  195   4.983   2.567   0.124 -0.0821  0.1561 -0.1212
    9DG     C12  196   4.837   2.616  -0.307  0.4384  0.5061  0.1486
    9DG     H13  197   4.995   2.612   0.223  1.1210  3.5771 -1.6482
    9DG     H14  198   4.882   2.527   0.113 -0.3941  1.0684 -0.7399
    9DG     H15  199   4.737   2.627  -0.349  0.9246  0.5568 -1.0398
    9DG     H16  200   4.896   2.696  -0.353 -0.0586  2.1963  2.2698
    9DG     C17  201   4.996   2.679   0.015 -0.3083 -0.2614  0.1278
    9DG     C18  202   4.834   2.634  -0.155 -0.1428  0.4026 -0.1957
    9DG     O19  203   4.962   2.621  -0.111 -0.0998 -0.4295 -0.1084
    9DG     H20  204   5.099   2.715   0.008  0.7465 -2.4112  2.5581
    9DG     H21  205   4.928   2.759   0.042 -1.2948 -0.6003 -1.2599
    9DG     H22  206   4.811   2.740  -0.148 -0.0017  0.3976  0.3796
    9DG     H23  207   4.761   2.588  -0.089  0.7602  0.1742  0.6607
   10DG      C1  208   3.980   4.863   1.338  0.5604 -0.2429  0.0882
   10DG      C2  209   4.133   5.401   1.725  0.3626 -0.5831  0.0081
   10DG      H3  210   4.072   4.827   1.384 -0.3186 -0.7305  1.4939
   10DG      H4  211   4.008   4.936   1.262 -0.2823 -2.0033 -2.0243
   10DG      H5  212   3.934   4.776   1.290 -0.0897  0.6387 -0.9414
   10DG      H6  213   4.134   5.294   1.705 -2.4222 -0.6565 -0.1117
   10DG      H7  214   4.129   5.467   1.638  0.1730  1.2119  1.3144
   10DG      H8  215   4.223   5.438   1.774  0.1434 -0.8547  0.6273
   10DG      O9  216   3.887   4.927   1.429  0.4103  0.9745 -0.0859
   10DG     O10  217   4.037   5.438   1.819 -0.1974 -0.0990  0.1961
   10DG     C11  218   3.920   5.053   1.474 -0.3808 -0.2758 -0.9849
   10DG     C12  219   3.899   5.423   1.798 -0.4020  0.7035 -0.0789
   10DG     H13  220   3.895   5.127   1.398  1.5085  1.1256 -0.3127
   10DG     H14  221   4.028   5.060   1.481 -0.3204 -1.0841 -0.9748
   10DG     H15  222   3.875   5.501   1.725 -1.8159  2.5127  2.1638
   10DG     H16  223   3.841   5.451   1.886  2.0731  0.4268  1.7304
   10DG     C17  224   3.852   5.096   1.610  0.0512 -0.0322 -0.1688
   10DG     C18  225   3.849   5.280   1.762 -0.2343  0.4611  0.1688
   10DG     O19  226   3.882   5.234   1.636 -0.1830 -0.3606  0.4335
   10DG     H20  227   3.861   5.026   1.694 -3.5640 -1.4311 -0.7559
   10DG     H21  228   3.747   5.092   1.583 -0.6561 -1.0978  2.4229
   10DG     H22  229   3.899   5.210   1.829 -0.3704 -0.9697 -1.1642
   10DG     H23  230   3.741   5.286   1.770 -0.3104  2.0080 -1.4165
   11DG      C1  231   2.572   4.689   2.594 -0.0546 -0.5457 -0.5425
   11DG      C2  232   3.079   4.269   2.746 -1.2360  0.0089  0.0381
   11DG      H3  233   2.602   4.786   2.633  0.3690 -0.4224 -1.1652
   11DG      H4  234   2.521   4.651   2.683  0.7758  1.0776  0.6711
   11DG      H5  235   2.504   4.697   2.509  1.6013  0.7848 -1.8019
   11DG      H6  236   3.043   4.233   2.843 -0.3708 -0.9251  0.0298
   11DG      H7  237   3.174   4.219   2.723  0.1479  1.9405  1.2628
   11DG      H8  238   3.104   4.372   2.769 -1.2745  0.3511 -1.3726
   11DG      O9  239   2.682   4.602   2.572 -0.0330 -0.7142  0.1858
   11DG     O10  240   2.978   4.261   2.654  1.2194 -0.4048 -0.1942
   11DG     C11  241   2.756   4.649   2.460  0.1789 -0.0498  0.2654
   11DG     C12  242   3.033   4.267   2.525  0.2374 -0.5298  0.2215
   11DG     H13  243   2.824   4.716   2.513 -0.5973 -0.2389  1.5523
   11DG     H14  244   2.691   4.698   2.388 -1.7222 -0.6994  1.4721
   11DG     H15  245   3.043   4.163   2.495 -0.7853 -0.5913  0.0730
   11DG     H16  246   3.122   4.330   2.528 -0.0621 -0.0930  0.0356
   11DG     C17  247   2.827   4.539   2.386  0.0230  1.0408  0.0933
   11DG     C18  248   2.935   4.334   2.426 -0.4319  0.4943 -0.1357
   11DG     O19  249   2.883   4.450   2.484  0.3395 -0.0964 -0.2551
   11DG     H20  250   2.906   4.578   2.321  1.0091 -0.4120  0.3715
   11DG     H21  251   2.753   4.506   2.314 -0.0780  0.6095  0.3961
   11DG     H22  252   2.989   4.335   2.331  0.3189 -1.5092  0.2261
   11DG     H23  253   2.853   4.264   2.419 -1.1519  1.3632 -0.6528
   12DG      C1  254   3.391   0.646   0.411  0.4006  0.2672  0.4476
   12DG      C2  255   3.699   0.404  -0.053  0.5042 -0.2131  0.2862
   12DG      H3  256   3.454   0.723   0.454 -0.1514  0.1914  1.4198
   12DG      H4  257   3.404   0.551   0.463  0.6057  0.8070  1.4054
   12DG      H5  258   3.285   0.671   0.407  0.0752 -1.1658 -2.4467
   12DG      H6  259   3.743   0.384  -0.151  0.8908  2.3862 -0.1366
   12DG      H7  260   3.708   0.318   0.014 -0.3891 -2.1125 -1.8562
   12DG      H8  261   3.590   0.408  -0.059  0.5812  0.8913 -0.5931
   12DG      O9  262   3.415   0.631   0.269 -1.0764 -0.2476 -0.1604
   12DG     O10  263   3.754   0.519   0.007 -0.0774  0.2095 -0.2455
   12DG     C11  264   3.386   0.752   0.195  0.0807 -0.3222 -0.3857
   12DG     C12  265   3.750   0.637  -0.067 -0.5192  0.4463 -0.5246
   12DG     H13  266   3.450   0.832   0.232  2.5047 -1.0392 -2.7047
   12DG     H14  267   3.280   0.770   0.210  0.0154 -1.1805  0.2201
   12DG     H15  268   3.809   0.637  -0.159  1.4446  1.9969  0.6336
   12DG     H16  269   3.807   0.715  -0.016  0.5231 -0.0042 -0.9556
   12DG     C17  270   3.417   0.738   0.048  0.0219 -0.1643  0.1161
   12DG     C18  271   3.602   0.684  -0.090  0.6171 -0.6035  0.0632
   12DG     O19  272   3.547   0.689   0.042  0.0390 -0.3965  0.3719
   12DG     H20  273   3.399   0.823  -0.017 -2.4760 -1.0734 -0.4885
   12DG     H21  274   3.350   0.657   0.017  0.3471 -1.1952  1.9308
   12DG     H22  275   3.599   0.785  -0.130 -0.4580 -0.4179  0.5906
   12DG     H23  276   3.532   0.623  -0.146  0.0760 -0.4415  0.5535
   13DG      C1  277   0.497   0.841   0.006  0.2702  0.4838 -0.3189
   13DG      C2  278   0.621   0.500   0.167 -0.7509  0.4301 -0.1059
   13DG      H3  279   0.540   0.935  -0.031  2.4493  0.4389  1.8715
   13DG      H4  280   0.570   0.774   0.051 -0.8648 -0.4950  0.1143
   13DG      H5  281   0.451   0.860   0.103 -1.1635 -1.5097 -0.5512
   13DG      H6  282   0.651   0.402   0.203 -0.9764  0.6106  0.5858
   13DG      H7  283   0.701   0.525   0.097 -0.0774 -2.9358 -0.6897
   13DG      H8  284   0.627   0.569   0.252 -0.9409 -0.1922  0.4173
   13DG      O9  285   0.417   0.778  -0.092 -0.1039  0.2100  0.4052
   13DG     O10  286   0.494   0.492   0.116  0.0248 -0.0878 -0.1256
   13DG     C11  287   0.281   0.806  -0.073 -0.2224  0.1966  0.9289
   13DG     C12  288   0.392   0.507   0.213  0.6407  0.5254  0.6413
   13DG     H13  289   0.234   0.763  -0.162  1.0568  3.2911 -1.4181
   13DG     H14  290   0.257   0.911  -0.062 -1.6770  0.1333 -1.0837
   13DG     H15  291   0.409   0.604   0.261  3.2438  0.1322  0.6537
   13DG     H16  292   0.388   0.436   0.296 -2.5160 -0.2946 -0.1005
   13DG     C17  293   0.230   0.722   0.055 -0.2386 -0.0570 -0.0265
   13DG     C18  294   0.256   0.507   0.149 -0.2245 -0.4939  0.2550
   13DG     O19  295   0.263   0.584   0.032  0.8709  0.1112 -0.1594
   13DG     H20  296   0.121   0.718   0.054 -0.2288 -0.8553  0.7629
   13DG     H21  297   0.273   0.758   0.148 -3.9376 -2.4004  2.8928
   13DG     H22  298   0.220   0.405   0.131 -1.6969 -0.2383  1.5495
   13DG     H23  299   0.169   0.551   0.198  0.1149  0.9080 -0.3404
   14DG      C1  300   0.115   4.111   1.127 -0.0500  0.4278 -0.6789
   14DG      C2  301   0.172   4.595   0.585  0.7791  0.8293 -0.3709
   14DG      H3  302   0.142   4.017   1.079  0.1096 -0.6725  1.4328
   14DG      H4  303   0.072   4.079   1.222  1.2306 -0.0964 -0.2498
   14DG      H5  304   0.197   4.182   1.137 -1.0435  1.6496 -1.0138
   14DG      H6  305   0.178   4.495   0.542  0.8229 -0.1990  1.9283
   14DG      H7  306   0.109   4.660   0.523  0.6869  0.5230 -0.6016
   14DG      H8  307   0.278   4.619   0.576  1.0505 -0.0826  0.3093
   14DG      O9  308   0.020   4.178   1.045 -0.3417 -0.1924 -0.3724
   14DG     O10  309   0.122   4.598   0.715  0.1373  0.0658 -0.0474
   14DG     C11  310  -0.028   4.299   1.122 -0.4632  0.3444 -0.1095
   14DG     C12  311  -0.019   4.587   0.712  0.3336 -0.3302 -0.2504
   14DG     H13  312   0.062   4.350   1.156 -0.3859  0.8988 -1.0989
   14DG     H14  313  -0.085   4.273   1.211 -0.0692  1.1219  0.3750
   14DG     H15  314  -0.048   4.496   0.659  1.3899 -0.1641 -1.1566
   14DG     H16  315  -0.074   4.674   0.676 -1.3525 -0.5698  1.5877
   14DG     C17  316  -0.095   4.397   1.030  0.3448 -0.4799  0.2145
   14DG     C18  317  -0.078   4.567   0.857 -0.8099 -0.0715 -0.5030
   14DG     O19  318  -0.016   4.460   0.930  0.0401 -0.2851  0.0969
   14DG     H20  319  -0.139   4.477   1.089  1.6526 -0.3152  1.0025
   14DG     H21  320  -0.180   4.346   0.985  2.1229 -2.2494 -1.3015
   14DG     H22  321  -0.078   4.662   0.909  1.3062 -0.3447  0.0752
   14DG     H23  322  -0.184   4.543   0.848 -0.7621  0.4104 -3.1660
   15DG      C1  323   4.518   3.530   1.070 -0.2026  0.1363 -0.3204
   15DG      C2  324   4.589   2.916   0.845  0.4714  0.8390  0.1070
   15DG      H3  325   4.422   3.571   1.040 -0.8595 -1.4692 -0.4993
   15DG      H4  326   4.597   3.578   1.012  0.0536  0.2181  0.0916
   15DG      H5  327   4.531   3.568   1.171  0.4576 -0.9938  0.0310
   15DG      H6  328   4.582   2.809   0.825  1.4783  0.4873  1.5068
   15DG      H7  329   4.652   2.961   0.768  0.1022  1.4113  0.1328
   15DG      H8  330   4.648   2.938   0.933  0.4226  0.6378  0.1912
   15DG      O9  331   4.533   3.393   1.075  0.4592 -0.0757  0.3045
   15DG     O10  332   4.450   2.952   0.853 -0.2485 -0.3556  0.1115
   15DG     C11  333   4.432   3.337   1.166 -0.1675 -0.3123  0.2665
   15DG     C12  334   4.379   2.894   0.962 -0.5728 -0.7445 -0.6485
   15DG     H13  335   4.327   3.361   1.148  0.4052  2.0105 -0.2673
   15DG     H14  336   4.446   3.367   1.270  3.1049 -1.0109  0.1304
   15DG     H15  337   4.411   2.791   0.976 -0.8858 -0.6105  1.3648
   15DG     H16  338   4.278   2.884   0.923 -0.4960 -3.8643 -0.2599
   15DG     C17  339   4.451   3.187   1.169  0.5473  0.1166 -0.0232
   15DG     C18  340   4.402   2.980   1.084  0.0730 -0.1028  0.3608
   15DG     O19  341   4.398   3.121   1.055  0.3137 -0.4544 -1.1278
   15DG     H20  342   4.399   3.148   1.257  0.3649 -2.5637 -1.2319
   15DG     H21  343   4.556   3.159   1.178  0.2239 -0.6367  1.9207
   15DG     H22  344   4.335   2.949   1.163 -0.1114 -1.1513 -0.1988
   15DG     H23  345   4.504   2.956   1.115  0.5657  1.0834 -0.2524
   16DG      C1  346   0.187   5.268   3.918  0.4338  0.0697  0.3321
   16DG      C2  347   0.435   4.690   4.200 -0.3056  0.2888  0.2006
   16DG      H3  348   0.143   5.279   4.017 -0.0410  1.3426 -0.0023
   16DG      H4  349   0.115   5.295   3.841 -1.0289 -0.4764  1.4743
   16DG      H5  350   0.274   5.334   3.913  1.7975 -1.7073 -1.1138
   16DG      H6  351   0.402   4.669   4.302  0.2669 -1.5719  0.0538
   16DG      H7  352   0.464   4.592   4.161 -0.5510  0.0156  0.6865
   16DG      H8  353   0.516   4.762   4.204  0.9482 -0.9431 -1.3995
   16DG      O9  354   0.240   5.141   3.901 -0.2918 -0.4721 -0.2693
   16DG     O10  355   0.332   4.733   4.121  0.1628  0.3581 -0.4968
   16DG     C11  356   0.302   5.118   3.776 -0.6937 -0.1044 -0.1227
   16DG     C12  357   0.378   4.761   3.989 -0.4313 -0.0698  0.3195
   16DG     H13  358   0.366   5.203   3.753 -2.4574  0.7665 -2.1460
   16DG     H14  359   0.229   5.124   3.696 -1.2803  1.3283  0.4910
   16DG     H15  360   0.410   4.666   3.946 -1.9206  0.2317 -1.5818
   16DG     H16  361   0.462   4.830   3.983  0.4785 -1.1900 -0.1078
   16DG     C17  362   0.382   4.992   3.772 -0.1555 -0.5828  0.0851
   16DG     C18  363   0.271   4.823   3.906 -0.1930 -0.3049 -0.2030
   16DG     O19  364   0.304   4.869   3.777 -0.5198 -0.6654  0.3475
   16DG     H20  365   0.462   4.995   3.847 -0.1945 -0.8812  0.1404
   16DG     H21  366   0.431   5.001   3.675  1.5282 -1.0700  0.8596
   16DG     H22  367   0.198   4.743   3.892  0.9457 -1.7051  1.3904
   16DG     H23  368   0.233   4.908   3.963 -0.9313  1.0978 -2.6129
   17DG      C1  369   0.424   2.076   2.918  0.2534  0.3872 -0.1770
   17DG      C2  370   0.518   1.552   2.506  0.1187 -0.1299  0.1377
   17DG      H3  371   0.363   2.050   3.005  0.5104  2.1448  0.5525
   17DG      H4  372   0.425   2.183   2.901  1.2890  0.3990 -0.0837
   17DG      H5  373   0.527   2.047   2.940  0.9301  1.7347 -1.4363
   17DG      H6  374   0.445   1.473   2.519 -1.3573  0.8367 -1.7485
   17DG      H7  375   0.570   1.558   2.410 -0.1470  0.9677  0.0528
   17DG      H8  376   0.603   1.535   2.572  0.0388 -1.2543 -0.0306
   17DG      O9  377   0.385   2.015   2.791 -0.6953 -0.0862 -0.3734
   17DG     O10  378   0.447   1.676   2.522 -0.3617  0.7912  0.3236
   17DG     C11  379   0.245   2.031   2.761  0.4990  0.4258 -0.0074
   17DG     C12  380   0.331   1.689   2.435  0.1071 -0.1151 -0.1069
   17DG     H13  381   0.214   2.133   2.781  0.0616  0.2216  0.3976
   17DG     H14  382   0.197   1.967   2.836 -0.8226  1.3374 -0.0419
   17DG     H15  383   0.253   1.615   2.455 -1.9163  1.8374 -0.4055
   17DG     H16  384   0.352   1.674   2.329  2.4829 -0.6851  0.3763
   17DG     C17  385   0.223   1.987   2.614 -0.2660 -1.0170 -1.4677
   17DG     C18  386   0.274   1.833   2.452  0.3971  0.3144 -0.6827
   17DG     O19  387   0.279   1.863   2.591 -0.8915  0.2146 -0.0563
   17DG     H20  388   0.273   2.066   2.558  1.7084 -1.1215  0.0341
   17DG     H21  389   0.123   1.995   2.572  0.4929  0.5570 -3.1155
   17DG     H22  390   0.335   1.899   2.390 -2.6020  1.4315 -2.7018
   17DG     H23  391   0.169   1.844   2.422  0.5554  3.6408 -0.3537
   18DG      C1  392   3.813   1.156   4.460 -0.0368  0.1476 -0.2721
   18DG      C2  393   4.180   1.036   4.972 -0.2205 -0.1360 -0.2168
   18DG      H3  394   3.708   1.163   4.488  0.0078  1.9564 -0.4316
   18DG      H4  395   3.827   1.080   4.384 -1.5838 -1.1779  0.7109
   18DG      H5  396   3.834   1.256   4.421 -0.7037  0.8462  1.0830
   18DG      H6  397   4.098   0.994   5.031 -1.0577  1.7575  0.0738
   18DG      H7  398   4.278   1.041   5.020 -0.0236  0.6717 -0.6777
   18DG      H8  399   4.136   1.136   4.974  0.6332  0.2429 -0.1191
   18DG      O9  400   3.911   1.133   4.561 -0.2326 -0.6737  0.8975
   18DG     O10  401   4.179   0.999   4.840  0.4731 -0.5868  0.7545
   18DG     C11  402   3.921   1.002   4.623 -0.1295  0.4449 -0.1680
   18DG     C12  403   4.293   1.026   4.760 -0.0370 -0.0674 -0.4100
   18DG     H13  404   3.827   0.951   4.604 -0.7572  1.4333  0.1863
   18DG     H14  405   3.930   1.022   4.730  2.7054  2.3549 -0.6220
   18DG     H15  406   4.378   0.978   4.807 -0.3336 -1.3099 -1.1087
   18DG     H16  407   4.319   1.131   4.777  0.7323 -0.2592 -0.3638
   18DG     C17  408   4.047   0.933   4.565  0.1160  0.0378  0.5506
   18DG     C18  409   4.280   0.970   4.610 -0.0252 -0.1413 -0.4618
   18DG     O19  410   4.164   1.013   4.544 -0.0930 -0.5318 -0.0215
   18DG     H20  411   4.015   0.886   4.472  0.6566 -0.6988  0.7306
   18DG     H21  412   4.063   0.845   4.626 -0.5325 -0.8348 -0.5027
   18DG     H22  413   4.367   0.984   4.546 -0.0227 -1.8423 -0.8854
   18DG     H23  414   4.276   0.861   4.611 -0.5064 -0.1207 -0.0041
   19DG      C1  415   4.142   2.682   0.520  0.3734 -0.0998 -0.3871
   19DG      C2  416   3.845   2.263   0.072  0.3441  0.2985 -0.4538
   19DG      H3  417   4.137   2.789   0.539 -0.4617  0.1418 -1.7838
   19DG      H4  418   4.226   2.658   0.455  1.2061  0.0035  0.6309
   19DG      H5  419   4.152   2.622   0.611  4.9220 -0.2547 -0.7632
   19DG      H6  420   3.926   2.285   0.003  0.2112 -1.3374 -1.1764
   19DG      H7  421   3.882   2.190   0.144 -0.3047 -0.9823 -1.3681
   19DG      H8  422   3.765   2.215   0.016 -0.6103 -0.6890  1.6498
   19DG      O9  423   4.021   2.661   0.445 -0.5344 -0.1342  0.5259
   19DG     O10  424   3.799   2.388   0.127  0.3070  0.4645  0.5139
   19DG     C11  425   3.896   2.686   0.513  0.5869  0.3569 -0.3467
   19DG     C12  426   3.680   2.382   0.213 -0.8497  0.6302  0.1053
   19DG     H13  427   3.903   2.791   0.543  2.1908  0.9217 -2.4473
   19DG     H14  428   3.893   2.617   0.598  1.9704 -0.6807 -1.1015
   19DG     H15  429   3.694   2.306   0.290  0.9526 -0.0021 -0.7935
   19DG     H16  430   3.591   2.358   0.154  0.6682  0.8544 -2.4359
   19DG     C17  431   3.769   2.680   0.426 -0.3718  0.2325  0.3051
   19DG     C18  432   3.653   2.519   0.286  0.3007 -0.4977  0.0062
   19DG     O19  433   3.771   2.549   0.369 -0.4564  0.3344  0.4709
   19DG     H20  434   3.754   2.758   0.351 -0.3572 -1.3894 -1.4702
   19DG     H21  435   3.679   2.689   0.487  0.5237  0.5690  1.6129
   19DG     H22  436   3.640   2.598   0.212 -1.9400 -1.4178 -0.6854
   19DG     H23  437   3.571   2.520   0.357  0.2752 -1.1836 -0.0090
   20DG      C1  438   4.009   1.840   2.084 -1.0007 -0.4682 -0.4105
   20DG      C2  439   3.807   2.023   2.675  0.2049  0.4479  0.0230
   20DG      H3  440   3.901   1.838   2.101 -0.9989  1.3718  0.0356
   20DG      H4  441   4.049   1.755   2.031  1.2301  0.9290 -1.1013
   20DG      H5  442   4.040   1.926   2.024  1.0487 -1.2544 -0.5442
   20DG      H6  443   3.811   2.121   2.628 -2.5693 -0.4436 -2.3954
   20DG      H7  444   3.710   1.983   2.644  0.3083  0.4115 -0.2604
   20DG      H8  445   3.814   2.032   2.783 -0.2519 -0.3259  0.1281
   20DG      O9  446   4.080   1.835   2.208  0.5497 -0.0291 -0.2832
   20DG     O10  447   3.913   1.936   2.632 -0.1065 -0.1387  0.3864
   20DG     C11  448   4.220   1.839   2.223  0.6154  0.1912 -0.2019
   20DG     C12  449   4.044   1.986   2.655  0.2314 -0.0449 -0.0154
   20DG     H13  450   4.266   1.931   2.187  1.0385  0.1846  0.3070
   20DG     H14  451   4.264   1.753   2.172 -0.8465 -1.3834  1.0635
   20DG     H15  452   4.054   1.987   2.764  1.9226 -2.9487 -0.0543
   20DG     H16  453   4.046   2.089   2.622  0.8633 -0.4364 -1.2594
   20DG     C17  454   4.241   1.834   2.373 -0.0036  0.3823 -0.0630
   20DG     C18  455   4.150   1.905   2.585 -0.1602 -0.0741  0.2132
   20DG     O19  456   4.137   1.897   2.444 -0.2242  0.2929 -0.0713
   20DG     H20  457   4.328   1.893   2.398 -0.4258  0.5523  1.0615
   20DG     H21  458   4.253   1.731   2.407 -0.9508  0.2056 -0.2265
   20DG     H22  459   4.250   1.944   2.607 -0.4537 -0.5864  2.8557
   20DG     H23  460   4.155   1.805   2.629 -0.5249  0.4894  1.6134
   21DG      C1  461   4.602   3.006   4.621  1.2212 -0.0987  0.6329
   21DG      C2  462   4.571   3.217   5.267 -0.4632  0.3230 -0.8833
   21DG      H3  463   4.685   3.069   4.588  1.0556 -0.0111  0.3810
   21DG      H4  464   4.511   3.063   4.603  1.0259  0.7434  3.6129
   21DG      H5  465   4.598   2.921   4.554 -1.9420 -0.7255  1.4480
   21DG      H6  466   4.475   3.202   5.317  0.2234 -2.6884 -0.2628
   21DG      H7  467   4.637   3.188   5.349 -1.7774 -0.1551  0.0430
   21DG      H8  468   4.595   3.317   5.232 -0.6543  1.1144  1.1166
   21DG      O9  469   4.618   2.968   4.757 -0.1990 -0.2683  0.0720
   21DG     O10  470   4.588   3.126   5.162  0.1560  0.1213  0.0912
   21DG     C11  471   4.750   2.925   4.779 -0.1351  0.3713 -0.8233
   21DG     C12  472   4.563   2.988   5.195 -0.5892  0.0620  0.0794
   21DG     H13  473   4.830   2.999   4.776  0.7288 -0.4405  0.8112
   21DG     H14  474   4.790   2.861   4.701  0.1509  1.2357 -1.4003
   21DG     H15  475   4.459   2.971   5.222 -0.8774  0.2760 -0.8383
   21DG     H16  476   4.621   2.961   5.282 -1.1042  2.0673  1.1143
   21DG     C17  477   4.779   2.856   4.916 -0.0759  0.4104 -0.2946
   21DG     C18  478   4.594   2.906   5.064 -0.5898  0.2039 -0.2591
   21DG     O19  479   4.735   2.924   5.036 -0.7215  0.1164 -0.5931
   21DG     H20  480   4.883   2.824   4.922 -0.0758  0.3831 -0.4623
   21DG     H21  481   4.728   2.760   4.917 -0.1210  0.3916  2.0535
   21DG     H22  482   4.587   2.801   5.091  1.9629 -0.1694 -0.8471
   21DG     H23  483   4.523   2.942   4.989 -1.3623  1.0973  0.8546
   22DG      C1  484   4.785   3.710   1.545 -0.1530  0.7806 -0.3369
   22DG      C2  485   4.694   4.175   2.078 -0.3272 -0.3692 -0.1237
   22DG      H3  486   4.844   3.638   1.601  2.2555  2.6204 -0.3469
   22DG      H4  487   4.812   3.694   1.440 -0.9351  1.1214 -0.5980
   22DG      H5  488   4.678   3.697   1.562  0.1698  0.7113  1.8778
   22DG      H6  489   4.735   4.109   2.155 -2.0275 -0.6831  0.5724
   22DG      H7  490   4.713   4.276   2.114 -0.2593  0.5813 -2.6644
   22DG      H8  491   4.588   4.151   2.081 -0.4026 -0.5937 -2.7572
   22DG      O9  492   4.803   3.841   1.594 -0.4306  0.1477  0.2415
   22DG     O10  493   4.749   4.142   1.952 -0.2306  0.1898 -0.6641
   22DG     C11  494   4.751   3.943   1.507  0.0102  0.8374  0.7012
   22DG     C12  495   4.746   4.251   1.862 -0.1888 -0.0556 -0.7292
   22DG     H13  496   4.642   3.945   1.508  0.0057  2.5080 -0.0541
   22DG     H14  497   4.774   3.909   1.406  0.0210  0.8280  0.7068
   22DG     H15  498   4.793   4.338   1.908 -0.5769 -0.6816  0.9207
   22DG     H16  499   4.647   4.281   1.828 -0.8202 -1.9595 -0.7084
   22DG     C17  500   4.806   4.081   1.541  0.0495 -0.2301  0.3924
   22DG     C18  501   4.822   4.224   1.730 -0.2551 -0.6218  0.1515
   22DG     O19  502   4.774   4.101   1.677  0.3619  0.6712  0.7402
   22DG     H20  503   4.755   4.157   1.481 -0.6720 -0.5981  0.5256
   22DG     H21  504   4.913   4.075   1.522 -0.2477 -1.1949 -1.1873
   22DG     H22  505   4.812   4.317   1.673  0.8046 -0.5127  0.1308
   22DG     H23  506   4.929   4.213   1.744 -0.2963  0.3544  1.3928
   23DG      C1  507   0.966   0.706   1.275  0.0028 -0.5878 -1.0042
   23DG      C2  508   0.598   0.087   0.987 -0.8420  0.0976 -0.3235
   23DG      H3  509   0.941   0.669   1.375  1.8436  2.0441  0.5773
   23DG      H4  510   0.996   0.809   1.295  1.2282 -0.6933 -2.1388
   23DG      H5  511   1.048   0.648   1.232  1.3244  1.4904 -1.4218
   23DG      H6  512   0.675   0.127   0.921 -0.5483  0.5327  0.2751
   23DG      H7  513   0.641   0.007   1.048  0.6997 -0.0266 -1.5150
   23DG      H8  514   0.521   0.038   0.928  0.0554 -1.5172 -0.1985
   23DG      O9  515   0.856   0.713   1.188 -0.1986  0.1890 -0.0707
   23DG     O10  516   0.540   0.187   1.064 -0.0162  0.0977  0.2937
   23DG     C11  517   0.777   0.593   1.196 -0.1286 -0.4980 -0.4897
   23DG     C12  518   0.476   0.293   0.996  0.3273  0.2668 -0.4640
   23DG     H13  519   0.722   0.597   1.291  0.3235 -1.7235 -0.1569
   23DG     H14  520   0.846   0.512   1.174  0.1629  0.2976 -2.7500
   23DG     H15  521   0.397   0.335   1.058  1.5842  0.7561  0.8660
   23DG     H16  522   0.440   0.258   0.900 -0.1846  0.8204 -0.4807
   23DG     C17  523   0.671   0.580   1.084 -0.0122 -0.8000  0.2943
   23DG     C18  524   0.569   0.408   0.963 -0.1257  0.3266  0.0375
   23DG     O19  525   0.623   0.448   1.091 -0.0258 -0.1745  0.6034
   23DG     H20  526   0.727   0.603   0.993 -0.3736  0.4280  0.3660
   23DG     H21  527   0.594   0.657   1.088  1.3156  0.5884  0.3865
   23DG     H22  528   0.650   0.370   0.901  0.5098 -0.5018  1.3342
   23DG     H23  529   0.513   0.481   0.905 -0.8334 -1.0123 -0.9922
   24DG      C1  530   0.302   0.930   2.395  0.1374  0.4410  0.1410
   24DG      C2  531   0.528   0.785   3.008  0.4691  0.3231 -0.6001
   24DG      H3  532   0.399   0.918   2.347  0.1355 -0.5391  0.3634
   24DG      H4  533   0.242   0.985   2.323 -0.5288  0.1452  0.4661
   24DG      H5  534   0.256   0.832   2.394 -0.9173  0.9020 -2.1780
   24DG      H6  535   0.466   0.696   2.998  2.1221 -0.8881 -0.5041
   24DG      H7  536   0.624   0.756   2.966  1.1581 -0.7462  1.5862
   24DG      H8  537   0.547   0.805   3.113 -0.5632  2.4633 -0.7492
   24DG      O9  538   0.317   0.981   2.526  0.4881 -0.5934 -0.3612
   24DG     O10  539   0.459   0.883   2.933  0.2675  0.1994  0.4144
   24DG     C11  540   0.373   1.113   2.519 -0.4638 -0.3849  0.2411
   24DG     C12  541   0.505   1.016   2.965  0.6227  0.5403  0.5319
   24DG     H13  542   0.329   1.186   2.451  0.3341 -0.9149 -0.8697
   24DG     H14  543   0.476   1.109   2.483 -0.8589 -0.6786 -0.8693
   24DG     H15  544   0.612   1.016   2.948  0.4095  0.1220 -0.9282
   24DG     H16  545   0.493   1.022   3.073 -2.7938 -1.3128  0.4192
   24DG     C17  546   0.375   1.177   2.661 -0.4529 -0.3188 -0.2756
   24DG     C18  547   0.449   1.137   2.882  0.0935 -0.3186  0.3966
   24DG     O19  548   0.454   1.098   2.748  0.7792  0.0566  0.2815
   24DG     H20  549   0.271   1.183   2.693 -0.2734 -0.2981  0.3141
   24DG     H21  550   0.415   1.278   2.659  1.2456 -0.9694 -0.3226
   24DG     H22  551   0.347   1.160   2.914  0.1307 -0.9940  1.0350
   24DG     H23  552   0.501   1.232   2.897 -0.9247  0.3148  0.0285
   25DG      C1  553   5.076   2.905   3.537 -0.3302  0.0261 -0.3158
   25DG      C2  554   5.570   2.754   3.089 -0.7277 -0.2428 -0.3710
   25DG      H3  555   5.002   2.870   3.466 -0.3742 -0.2740 -0.1263
   25DG      H4  556   5.112   3.005   3.512  1.3885 -0.3858  0.3521
   25DG      H5  557   5.024   2.913   3.632  2.3100  2.2731  1.1075
   25DG      H6  558   5.615   2.849   3.115 -0.6302 -0.5714  0.7214
   25DG      H7  559   5.652   2.686   3.063 -1.5880 -0.6894 -2.1383
   25DG      H8  560   5.508   2.765   2.999 -0.0050  1.7034 -0.6589
   25DG      O9  561   5.190   2.828   3.529 -0.3391  0.2429  0.1494
   25DG     O10  562   5.496   2.703   3.201  0.5741 -0.2762  0.6527
   25DG     C11  563   5.162   2.691   3.527 -0.6338 -0.5509 -0.5084
   25DG     C12  564   5.577   2.666   3.310 -0.3919 -0.0266 -0.0085
   25DG     H13  565   5.108   2.661   3.438  0.7047  1.5841 -2.1254
   25DG     H14  566   5.094   2.670   3.609 -0.6581 -1.7603 -0.8204
   25DG     H15  567   5.652   2.738   3.339  1.3700 -2.0599  0.7618
   25DG     H16  568   5.640   2.580   3.286  0.2398 -0.2686  2.2665
   25DG     C17  569   5.292   2.614   3.532  0.3367  0.4533  0.1617
   25DG     C18  570   5.507   2.614   3.433  0.6395  0.3581  0.2855
   25DG     O19  571   5.378   2.682   3.443 -0.3317 -0.0177 -0.5895
   25DG     H20  572   5.280   2.511   3.500  0.8595  0.2018  0.7517
   25DG     H21  573   5.329   2.616   3.634 -2.6633  0.0097  1.3542
   25DG     H22  574   5.499   2.508   3.412 -0.0130  0.5920 -0.7434
   25DG     H23  575   5.565   2.636   3.523  1.5426  0.5109 -0.3240
   26DG      C1  576   4.008   4.112   0.423  0.1051 -0.0122  0.0521
   26DG      C2  577   4.600   3.647   0.741  0.8978 -0.4039 -0.1389
   26DG      H3  578   3.952   4.141   0.334 -1.6659  0.1478  1.1486
   26DG      H4  579   4.032   4.204   0.477  0.4815 -0.5862  0.8836
   26DG      H5  580   3.951   4.040   0.483  0.4150  0.6903  1.2313
   26DG      H6  581   4.643   3.714   0.815  2.1091  0.4972 -1.6019
   26DG      H7  582   4.506   3.607   0.778  0.4086  0.0631 -0.8433
   26DG      H8  583   4.667   3.566   0.712 -1.2700 -2.1763 -0.4744
   26DG      O9  584   4.127   4.061   0.366 -0.9520  0.1786  0.1994
   26DG     O10  585   4.579   3.733   0.626 -0.8332  0.5809  0.0249
   26DG     C11  586   4.217   4.009   0.461 -0.3782 -0.2818 -0.3788
   26DG     C12  587   4.523   3.654   0.517  0.2685  0.2095 -0.0876
   26DG     H13  588   4.176   3.931   0.525  1.4196  0.0922  1.3080
   26DG     H14  589   4.253   4.082   0.533  2.2015 -1.5708 -0.2743
   26DG     H15  590   4.439   3.598   0.556 -0.5703  1.9442  0.7360
   26DG     H16  591   4.595   3.582   0.479  0.1912  0.3874 -0.5729
   26DG     C17  592   4.329   3.936   0.384 -0.2172  0.3601 -0.1851
   26DG     C18  593   4.480   3.736   0.394  0.0374 -0.2596  1.8065
   26DG     O19  594   4.389   3.825   0.458  0.1546 -0.1185  0.0381
   26DG     H20  595   4.412   4.002   0.358  0.3362  0.5865  1.9723
   26DG     H21  596   4.291   3.905   0.287  0.0473  1.7605 -0.7623
   26DG     H22  597   4.563   3.790   0.348  0.7847 -1.9926  0.9977
   26DG     H23  598   4.442   3.666   0.318  1.4908 -0.0133  0.8142
   27DG      C1  599   1.764   1.132   3.337 -0.6956  0.0230  0.1776
   27DG      C2  600   1.647   0.965   2.691  0.1550  0.1629 -1.0204
   27DG      H3  601   1.848   1.201   3.325 -0.6979  0.2645  1.4014
   27DG      H4  602   1.770   1.107   3.443 -0.7815  0.3751  0.2660
   27DG      H5  603   1.669   1.184   3.333 -0.9331 -0.2853  1.2748
   27DG      H6  604   1.564   1.036   2.694 -0.3226 -0.4176  1.0624
   27DG      H7  605   1.685   0.975   2.589 -2.1894  2.6769 -1.7810
   27DG      H8  606   1.608   0.865   2.711  2.0611 -0.3738  0.2888
   27DG      O9  607   1.758   1.026   3.245  0.2095  0.0236  0.1041
   27DG     O10  608   1.747   1.000   2.784 -0.0798 -1.1979  1.1462
   27DG     C11  609   1.842   0.918   3.287  0.1673 -0.0472 -0.1295
   27DG     C12  610   1.856   0.908   2.797 -0.3752  1.2833  0.0398
   27DG     H13  611   1.805   0.871   3.378 -0.3791  0.2598 -0.1877
   27DG     H14  612   1.946   0.950   3.299 -0.4742  1.5085  1.9876
   27DG     H15  613   1.951   0.961   2.803  0.4432 -0.2470  2.7465
   27DG     H16  614   1.859   0.842   2.711 -2.1520  0.4385  0.5703
   27DG     C17  615   1.836   0.831   3.161  0.3348 -0.7780 -0.0306
   27DG     C18  616   1.834   0.824   2.926 -0.7604 -0.1527  0.4541
   27DG     O19  617   1.839   0.908   3.037  0.2538  0.1961 -0.1389
   27DG     H20  618   1.739   0.781   3.161 -1.8834  3.1272  0.1120
   27DG     H21  619   1.904   0.746   3.161 -0.4216 -1.4421  1.9363
   27DG     H22  620   1.740   0.770   2.924 -0.0588 -1.3971 -0.6337
   27DG     H23  621   1.922   0.760   2.926  0.9561  1.9880 -1.9767
   28DG      C1  622   3.116   2.367   1.834 -0.3064  0.2456  0.1579
   28DG      C2  623   3.216   2.405   1.144  0.6818 -0.2459  0.0425
   28DG      H3  624   3.141   2.472   1.845  1.3985 -0.0548 -0.5309
   28DG      H4  625   3.202   2.299   1.836 -0.0080  0.6289  1.5719
   28DG      H5  626   3.053   2.346   1.920 -2.2782  0.4280 -1.1813
   28DG      H6  627   3.206   2.338   1.059 -0.0160  1.2143 -1.0698
   28DG      H7  628   3.209   2.508   1.110 -0.4594 -1.1513 -2.7033
   28DG      H8  629   3.320   2.407   1.176  0.4655 -0.4500  0.8015
   28DG      O9  630   3.059   2.350   1.712  0.1949  0.1476 -0.0978
   28DG     O10  631   3.139   2.361   1.254 -0.2958  0.3535 -0.1021
   28DG     C11  632   3.011   2.228   1.677 -0.0271 -0.3803  0.4864
   28DG     C12  633   3.004   2.415   1.248  0.3282  0.3218 -0.2273
   28DG     H13  634   2.952   2.184   1.758 -3.8412 -1.0552 -2.3803
   28DG     H14  635   3.095   2.158   1.670 -0.2954 -0.5784 -1.2956
   28DG     H15  636   2.966   2.406   1.146 -0.1911 -3.3376  0.1227
   28DG     H16  637   3.006   2.519   1.278 -1.3934  0.2527  0.2410
   28DG     C17  638   2.924   2.216   1.547 -0.6068  0.5794 -0.0708
   28DG     C18  639   2.907   2.341   1.340  0.2887 -0.1466 -0.4720
   28DG     O19  640   2.980   2.315   1.453 -0.0698 -0.3110  0.2443
   28DG     H20  641   2.820   2.244   1.565 -0.6197  1.2443 -1.0863
   28DG     H21  642   2.932   2.114   1.512 -3.8087 -1.0290  3.2473
   28DG     H22  643   2.830   2.410   1.373 -0.4687 -0.8269 -0.7805
   28DG     H23  644   2.862   2.250   1.299 -0.7162 -0.4775  1.2714
   29DG      C1  645   4.237   2.481   1.049 -0.0759 -0.1779  0.0822
   29DG      C2  646   4.550   2.136   1.051 -0.3395  0.7974  0.3880
   29DG      H3  647   4.246   2.589   1.042  0.3353 -0.0974  1.4488
   29DG      H4  648   4.321   2.435   1.102  0.2477  2.4486  2.0356
   29DG      H5  649   4.154   2.464   1.117 -0.2376 -0.1839 -0.1172
   29DG      H6  650   4.508   2.036   1.067 -0.2737  0.0531 -3.2157
   29DG      H7  651   4.603   2.166   1.142  0.7055  2.5793 -0.7565
   29DG      H8  652   4.478   2.217   1.041  0.5466  1.4899 -0.6257
   29DG      O9  653   4.228   2.426   0.918 -0.1886 -0.2785 -0.1244
   29DG     O10  654   4.645   2.133   0.952 -0.5306  0.7430  0.0275
   29DG     C11  655   4.334   2.477   0.837  0.0719  0.2074 -0.1610
   29DG     C12  656   4.602   2.092   0.819  0.6512 -0.7204  0.0016
   29DG     H13  657   4.420   2.497   0.901 -0.1459  0.3019  0.1052
   29DG     H14  658   4.296   2.570   0.795 -1.0792  0.1605  0.7009
   29DG     H15  659   4.533   2.008   0.810 -2.9074  2.0910 -1.3737
   29DG     H16  660   4.695   2.064   0.769 -0.4009 -2.4885 -1.0717
   29DG     C17  661   4.361   2.368   0.729  0.2489 -0.0946  0.2530
   29DG     C18  662   4.544   2.225   0.753  0.3232  0.2507  0.1053
   29DG     O19  663   4.409   2.251   0.790  0.2620 -0.1081  0.1590
   29DG     H20  664   4.419   2.410   0.647 -1.0145  0.6675 -0.2782
   29DG     H21  665   4.269   2.337   0.680  0.9813 -1.7560 -0.1289
   29DG     H22  666   4.614   2.302   0.784  1.3860 -0.2994 -0.8790
   29DG     H23  667   4.560   2.220   0.645 -0.2768  0.1735  0.0165
   30DG      C1  668   3.758   3.426   0.571  0.0238  0.0273 -0.4018
   30DG      C2  669   4.441   3.263   0.548  0.1439 -0.0707  0.6840
   30DG      H3  670   3.663   3.412   0.621  0.2843  2.3200  0.8580
   30DG      H4  671   3.743   3.379   0.474  2.0695 -0.3454 -0.5999
   30DG      H5  672   3.769   3.534   0.564  0.7186  0.1017  1.2976
   30DG      H6  673   4.457   3.156   0.546  0.5936 -0.0040  0.7422
   30DG      H7  674   4.421   3.294   0.445  1.3640 -1.5833 -0.0537
   30DG      H8  675   4.528   3.316   0.586  1.3626 -0.0328 -1.9496
   30DG      O9  676   3.864   3.374   0.656 -0.1012 -0.0351  0.1660
   30DG     O10  677   4.320   3.293   0.620  0.7924 -0.0058 -0.5763
   30DG     C11  678   3.875   3.448   0.779  0.3430 -0.8706  1.1729
   30DG     C12  679   4.335   3.283   0.767  0.6442 -0.2750 -0.0653
   30DG     H13  680   3.782   3.449   0.836  0.2931 -2.1781  1.1517
   30DG     H14  681   3.901   3.551   0.753  1.7579 -1.8286 -1.6116
   30DG     H15  682   4.375   3.377   0.805  0.1441 -0.1229  0.0879
   30DG     H16  683   4.397   3.198   0.796  0.8934 -0.2684 -0.5702
   30DG     C17  684   3.982   3.378   0.862  0.4012  0.1138 -0.4005
   30DG     C18  685   4.200   3.272   0.833 -0.4423  0.6989  0.9094
   30DG     O19  686   4.102   3.363   0.787 -0.2591  0.2452 -0.9413
   30DG     H20  687   3.939   3.288   0.905 -1.2150  1.4692  0.9529
   30DG     H21  688   4.006   3.444   0.946 -0.2082  1.4284 -1.2291
   30DG     H22  689   4.170   3.169   0.813  3.9005 -0.9496  1.6279
   30DG     H23  690   4.218   3.271   0.941  1.3177  1.0689  0.6528
   31DG      C1  691   4.584   3.091   2.536 -0.6788  0.6284  1.0792
   31DG      C2  692   4.745   2.504   2.602 -0.1904 -0.1252  0.0769
   31DG      H3  693   4.587   3.184   2.480 -1.1054  0.1932  0.2983
   31DG      H4  694   4.660   3.081   2.613 -1.9294 -0.6753  2.2252
   31DG      H5  695   4.489   3.065   2.583 -1.5156  1.9845  0.1965
   31DG      H6  696   4.775   2.402   2.577  1.2494  0.3343 -0.1097
   31DG      H7  697   4.793   2.552   2.687 -1.1202  2.7978 -0.9335
   31DG      H8  698   4.637   2.496   2.621 -0.0931 -1.9152  0.0998
   31DG      O9  699   4.597   2.986   2.441  0.3466  0.1899  0.2441
   31DG     O10  700   4.749   2.592   2.482  0.5497 -0.0695  0.1305
   31DG     C11  701   4.702   3.006   2.347 -0.5325 -0.3455  0.5936
   31DG     C12  702   4.691   2.543   2.365 -0.2983  0.5751  0.1320
   31DG     H13  703   4.799   3.015   2.396  0.1403 -3.6289  0.1142
   31DG     H14  704   4.687   3.100   2.294 -0.1612  0.3987  1.7783
   31DG     H15  705   4.582   2.540   2.374 -0.2623  1.1133  0.8104
   31DG     H16  706   4.726   2.447   2.327 -0.9301  0.6010 -0.5341
   31DG     C17  707   4.705   2.886   2.251 -0.8481 -0.1324 -0.9307
   31DG     C18  708   4.722   2.651   2.261  0.2908 -0.0452 -0.1292
   31DG     O19  709   4.692   2.771   2.330  0.4498 -0.5795 -0.3304
   31DG     H20  710   4.796   2.891   2.191 -0.0234  1.1220  0.3611
   31DG     H21  711   4.620   2.898   2.183 -3.3564 -0.5033  1.9165
   31DG     H22  712   4.830   2.646   2.246  0.1114 -0.4265 -1.4489
   31DG     H23  713   4.669   2.640   2.166  0.0648 -0.1429  0.0073
   32DG      C1  714   3.342   4.062   0.669  0.0323 -0.2825  0.3717
   32DG      C2  715   3.455   4.747   0.648  0.3727  0.0831 -0.1412
   32DG      H3  716   3.293   3.974   0.626 -0.9450  0.8457 -0.9498
   32DG      H4  717   3.312   4.083   0.771  2.0641  0.8922  0.7778
   32DG      H5  718   3.444   4.026   0.668  0.4239  0.8063  0.3789
   32DG      H6  719   3.561   4.753   0.672  0.1350  1.1763  0.7449
   32DG      H7  720   3.434   4.852   0.628  0.9950  0.0789 -0.8613
   32DG      H8  721   3.406   4.717   0.742  2.5555 -1.6331  0.5320
   32DG      O9  722   3.309   4.176   0.588 -0.6303  0.3906  0.2380
   32DG     O10  723   3.423   4.653   0.550  0.3069  0.3729 -0.0732
   32DG     C11  724   3.350   4.170   0.459 -0.6270 -0.6219 -1.2231
   32DG     C12  725   3.283   4.648   0.507 -0.4019  0.2708  0.2527
   32DG     H13  726   3.308   4.079   0.415 -0.6266 -1.3259  0.1759
   32DG     H14  727   3.458   4.157   0.464 -0.7708 -1.6503 -0.4683
   32DG     H15  728   3.243   4.746   0.482  0.2797  0.5559  0.2516
   32DG     H16  729   3.223   4.622   0.594  1.2474 -1.9053  0.8317
   32DG     C17  730   3.290   4.296   0.398 -0.6705 -0.5316 -0.4400
   32DG     C18  731   3.262   4.536   0.403 -0.3188  1.0904 -0.1517
   32DG     O19  732   3.332   4.418   0.453 -0.6398 -0.2943 -0.4076
   32DG     H20  733   3.182   4.287   0.410 -0.6913  0.9931  0.7587
   32DG     H21  734   3.316   4.292   0.292  1.7824  1.4737  0.0136
   32DG     H22  735   3.155   4.517   0.395  0.1712 -1.2433 -2.0520
   32DG     H23  736   3.298   4.559   0.303 -0.0269 -0.4211 -0.4230
   33DG      C1  737   1.779   1.482   3.511  0.0273  0.0898 -0.2981
   33DG      C2  738   1.818   2.007   3.196  0.7945 -0.1854 -0.1384
   33DG      H3  739   1.784   1.386   3.458 -1.0597 -0.2066  0.1052
   33DG      H4  740   1.672   1.500   3.501 -0.1680 -1.6367 -1.7981
   33DG      H5  741   1.811   1.466   3.614  3.2261 -0.1622 -1.2160
   33DG      H6  742   1.716   1.982   3.168 -0.5969  2.9289  1.6361
   33DG      H7  743   1.818   1.986   3.303  0.8382  0.3600 -0.0308
   33DG      H8  744   1.840   2.111   3.173 -0.8011  0.1350 -0.3327
   33DG      O9  745   1.841   1.597   3.441  0.2748  0.2068 -0.3761
   33DG     O10  746   1.917   1.944   3.128  0.1449  0.9264  0.4977
   33DG     C11  747   1.979   1.608   3.483  0.3013  0.3137 -0.5084
   33DG     C12  748   2.044   1.981   3.175  0.0004  0.0092  0.0563
   33DG     H13  749   2.048   1.539   3.434  0.3365  0.0196 -0.0509
   33DG     H14  750   1.989   1.592   3.591  2.2895 -0.9992 -0.8475
   33DG     H15  751   2.052   2.089   3.157  2.5327 -0.1390 -0.0448
   33DG     H16  752   2.124   1.945   3.111 -2.8185 -0.2967 -3.6497
   33DG     C17  753   2.030   1.746   3.460 -0.2798 -0.4125  0.1788
   33DG     C18  754   2.076   1.925   3.318  0.3831  0.1359  0.3685
   33DG     O19  755   2.015   1.796   3.330  0.0018 -0.1238 -0.5449
   33DG     H20  756   2.135   1.754   3.490  0.1610 -1.7727 -0.8716
   33DG     H21  757   1.979   1.808   3.533  0.0388 -0.3138  0.3235
   33DG     H22  758   2.184   1.935   3.326  0.4731  1.5527 -1.7219
   33DG     H23  759   2.034   1.992   3.393 -0.5523 -0.4765  0.4185
   34DG      C1  760   1.162   4.242   2.882  0.5492  0.4892 -0.3674
   34DG      C2  761   1.464   3.862   3.297  0.0710  0.6702  0.2400
   34DG      H3  762   1.146   4.137   2.905  3.6305  0.3127  1.4936
   34DG      H4  763   1.151   4.253   2.774 -1.1231  0.9980 -0.1726
   34DG      H5  764   1.069   4.291   2.912 -0.1824 -0.5476 -0.8646
   34DG      H6  765   1.361   3.862   3.333 -0.4130  1.5368 -1.0690
   34DG      H7  766   1.497   3.790   3.223  0.2903 -0.1942  1.1574
   34DG      H8  767   1.529   3.830   3.378 -0.2609 -1.1338 -0.1786
   34DG      O9  768   1.283   4.280   2.935 -0.5007 -0.3012 -0.1504
   34DG     O10  769   1.493   3.993   3.241  0.0413  0.3706 -1.0870
   34DG     C11  770   1.388   4.218   2.856  0.1108  0.0336  0.0609
   34DG     C12  771   1.604   3.999   3.148  0.0490 -0.8708 -0.6215
   34DG     H13  772   1.458   4.300   2.837  1.3096 -1.0121 -0.1012
   34DG     H14  773   1.354   4.179   2.761  0.4675 -1.5826  0.5690
   34DG     H15  774   1.595   3.929   3.065 -0.4388 -2.2113  0.5440
   34DG     H16  775   1.692   3.960   3.198 -0.7645 -0.9156  0.8280
   34DG     C17  776   1.464   4.120   2.934 -0.0500  0.6265 -0.5923
   34DG     C18  777   1.630   4.137   3.104  0.5308 -0.1072 -0.6373
   34DG     O19  778   1.507   4.188   3.049 -0.3333 -0.6683  0.0836
   34DG     H20  779   1.552   4.082   2.880  1.4854 -0.1090  2.2158
   34DG     H21  780   1.405   4.030   2.950 -0.0347  0.5117 -1.1447
   34DG     H22  781   1.666   4.199   3.186  0.9891  0.7841 -1.4886
   34DG     H23  782   1.717   4.135   3.037  0.8093  2.0890 -0.4375
   35DG      C1  783   0.534   3.787   2.447 -0.8440  0.3549 -0.1358
   35DG      C2  784   0.118   4.035   1.777 -0.0158 -0.2730 -0.7195
   35DG      H3  785   0.611   3.763   2.373 -0.4042 -0.7925  0.6566
   35DG      H4  786   0.519   3.693   2.500  0.7481  0.1939  0.0792
   35DG      H5  787   0.561   3.869   2.513  0.1411  1.2692 -1.5957
   35DG      H6  788   0.082   3.938   1.812  0.0740  0.0438  0.2857
   35DG      H7  789   0.037   4.107   1.771  0.0957 -0.0827 -0.0655
   35DG      H8  790   0.160   4.018   1.678 -0.5485  1.4912 -1.2705
   35DG      O9  791   0.412   3.820   2.375 -0.5297  1.1709 -0.2143
   35DG     O10  792   0.224   4.078   1.863  0.0454  0.0914  0.2591
   35DG     C11  793   0.380   3.750   2.251 -0.5543 -0.4195  0.0064
   35DG     C12  794   0.170   4.105   1.991 -0.1516 -0.2407  0.0947
   35DG     H13  795   0.358   3.645   2.272  0.4940 -0.3734  1.5089
   35DG     H14  796   0.461   3.741   2.180  0.1328 -2.5167  0.9505
   35DG     H15  797   0.081   4.167   1.980 -0.9442 -1.6154 -1.6487
   35DG     H16  798   0.231   4.184   2.035 -1.5244  1.8867 -1.6358
   35DG     C17  799   0.244   3.807   2.202  0.1465 -0.7210  0.0965
   35DG     C18  800   0.133   3.983   2.080 -0.6603  0.0681  0.1950
   35DG     O19  801   0.260   3.925   2.126  0.2176  0.4076 -0.0066
   35DG     H20  802   0.173   3.817   2.284  0.1797 -0.8557  0.1401
   35DG     H21  803   0.209   3.741   2.122  0.4759 -0.0768 -0.6005
   35DG     H22  804   0.071   4.024   2.160 -0.7479  2.4881 -1.0008
   35DG     H23  805   0.067   3.910   2.035 -2.2187  0.8405  1.1235
   36DG      C1  806   3.035   4.582   3.242 -0.1151  0.1188  0.0839
   36DG      C2  807   2.563   4.938   3.520 -0.6742 -0.9763 -0.2888
   36DG      H3  808   3.060   4.628   3.147 -3.7451  0.0255 -1.0684
   36DG      H4  809   2.941   4.536   3.214 -0.9669  0.2210  2.5608
   36DG      H5  810   3.120   4.514   3.250  0.9404  0.9558 -2.7883
   36DG      H6  811   2.493   4.990   3.586  0.0733  0.7284 -0.7831
   36DG      H7  812   2.594   5.018   3.452 -0.9370  0.5804  1.3316
   36DG      H8  813   2.503   4.859   3.474  0.2495  0.0532 -3.5381
   36DG      O9  814   3.029   4.688   3.334  0.3128 -0.2054  0.3608
   36DG     O10  815   2.682   4.886   3.595  0.1398 -0.2499  0.2765
   36DG     C11  816   3.048   4.643   3.469 -0.1509  0.0154 -0.1227
   36DG     C12  817   2.759   4.997   3.639 -0.2186  0.2677  0.0851
   36DG     H13  818   3.150   4.605   3.474  0.1798  0.9634  0.7779
   36DG     H14  819   2.980   4.563   3.497 -0.4162 -0.2691 -1.5005
   36DG     H15  820   2.702   5.048   3.717  0.1648  0.4857  0.2211
   36DG     H16  821   2.772   5.064   3.554 -0.6008  0.8871  0.5050
   36DG     C17  822   3.042   4.762   3.566  0.1718  0.5462 -0.0496
   36DG     C18  823   2.898   4.917   3.668 -0.5545  0.2991 -0.3536
   36DG     O19  824   2.916   4.824   3.562  0.0809  0.4319 -0.1261
   36DG     H20  825   3.123   4.834   3.551 -1.4248  2.2359 -0.8324
   36DG     H21  826   3.052   4.728   3.669  0.9027  1.7579  0.3014
   36DG     H22  827   2.978   4.986   3.692  0.0703 -1.0416  1.6098
   36DG     H23  828   2.883   4.853   3.754 -1.7641  0.2333 -0.5931
   37DG      C1  829   2.242   3.329   3.920 -0.6046 -0.0870 -0.4847
   37DG      C2  830   2.102   3.899   4.408 -1.0205 -0.4855  0.4924
   37DG      H3  831   2.193   3.398   3.851 -1.4750  0.3850  0.5878
   37DG      H4  832   2.215   3.224   3.907 -0.8573 -0.0952  0.1056
   37DG      H5  833   2.349   3.336   3.900 -0.7172 -0.4407 -1.2620
   37DG      H6  834   2.184   3.966   4.381 -0.2456 -1.4709  0.3287
   37DG      H7  835   2.031   3.917   4.327 -1.9171 -3.6939  0.4388
   37DG      H8  836   2.081   3.930   4.510  2.8600  1.2766  0.9372
   37DG      O9  837   2.209   3.390   4.044  0.4683 -0.4574 -0.2752
   37DG     O10  838   2.153   3.766   4.395 -0.2076 -0.2195  0.6441
   37DG     C11  839   2.278   3.336   4.155 -0.3034 -0.2859  0.3527
   37DG     C12  840   2.051   3.671   4.416 -0.1649 -0.0969 -0.6994
   37DG     H13  841   2.375   3.385   4.157 -0.2769 -0.2610 -0.7991
   37DG     H14  842   2.291   3.229   4.138  1.7510  0.1023 -0.8884
   37DG     H15  843   1.975   3.678   4.338 -0.0170  0.4011 -0.7998
   37DG     H16  844   2.003   3.685   4.513  1.3878 -0.5758  0.1705
   37DG     C17  845   2.202   3.358   4.281 -0.1493 -0.3358  0.1804
   37DG     C18  846   2.110   3.525   4.421  0.7645 -0.5975  0.0345
   37DG     O19  847   2.178   3.499   4.298  0.8162  0.1304  0.2191
   37DG     H20  848   2.272   3.323   4.356 -0.6336 -0.9406  0.3548
   37DG     H21  849   2.113   3.295   4.278  0.9454 -1.9992  1.3083
   37DG     H22  850   2.173   3.503   4.507  0.7958 -1.6150 -0.2414
   37DG     H23  851   2.027   3.456   4.437 -0.7553  1.1287 -0.0924
   38DG      C1  852   3.107   4.774   4.995 -0.5392  0.5560 -0.4497
   38DG      C2  853   2.974   4.424   5.621 -0.6170  0.0981  0.9162
   38DG      H3  854   3.000   4.765   4.976 -0.3762  1.6484 -2.1047
   38DG      H4  855   3.154   4.778   4.897 -0.2441  1.0941 -0.2911
   38DG      H5  856   3.121   4.872   5.041 -0.6469  0.0685  0.6487
   38DG      H6  857   2.868   4.420   5.598 -0.2994  0.5419 -0.8038
   38DG      H7  858   2.983   4.342   5.692 -2.3786 -0.0204  1.0422
   38DG      H8  859   3.000   4.517   5.671  1.1211  0.0940  0.0964
   38DG      O9  860   3.154   4.668   5.073  0.5529 -0.1901  0.4301
   38DG     O10  861   3.053   4.409   5.510 -0.1125  0.3836  0.8647
   38DG     C11  862   3.285   4.669   5.113  0.2059  0.1151  0.1702
   38DG     C12  863   3.191   4.420   5.529 -0.5432 -0.0764  0.3954
   38DG     H13  864   3.287   4.762   5.169 -0.8345 -0.0543  0.5214
   38DG     H14  865   3.361   4.689   5.038  1.5549 -0.3323  1.3771
   38DG     H15  866   3.230   4.332   5.580 -0.0890 -0.9064 -1.3321
   38DG     H16  867   3.223   4.512   5.578 -0.4209  0.7847 -1.2250
   38DG     C17  868   3.325   4.552   5.202 -0.0228  0.0296  0.2770
   38DG     C18  869   3.258   4.416   5.389  0.4704  0.0611  0.3376
   38DG     O19  870   3.228   4.530   5.306 -0.5262 -0.2747 -0.6348
   38DG     H20  871   3.417   4.583   5.250 -0.1642 -2.7441  2.6081
   38DG     H21  872   3.337   4.457   5.149  0.2985  0.4471 -0.4154
   38DG     H22  873   3.366   4.415   5.403  0.5072 -0.3046  0.0144
   38DG     H23  874   3.219   4.331   5.334 -0.0325  0.3168  0.2865
   39DG      C1  875   1.523   5.249   2.465  0.1576 -0.0543 -0.1450
   39DG      C2  876   1.131   4.902   2.047 -0.0068 -1.1509  0.5024
   39DG      H3  877   1.582   5.243   2.556  1.1824  0.3768 -0.7683
   39DG      H4  878   1.444   5.323   2.481  0.0498 -0.1883 -0.0558
   39DG      H5  879   1.600   5.282   2.396 -0.7999 -0.7864 -1.6160
   39DG      H6  880   1.205   4.945   1.979  0.2543 -0.8222  0.9892
   39DG      H7  881   1.082   4.824   1.989  0.4324 -1.9014  1.1271
   39DG      H8  882   1.064   4.986   2.068  0.6848 -0.5310  0.2975
   39DG      O9  883   1.479   5.116   2.433 -0.0069 -0.5254 -0.8577
   39DG     O10  884   1.187   4.866   2.175  0.0367 -0.7751  0.1369
   39DG     C11  885   1.575   5.018   2.440  0.3599  0.2314 -0.6341
   39DG     C12  886   1.262   4.746   2.176 -0.0039 -0.1838 -0.9193
   39DG     H13  887   1.631   5.014   2.533  0.0320 -1.3840 -0.4728
   39DG     H14  888   1.648   5.029   2.359  1.8229  1.2409  0.7789
   39DG     H15  889   1.334   4.742   2.093  0.2171  0.4844 -0.7625
   39DG     H16  890   1.195   4.660   2.180  0.8164 -0.8961 -1.8272
   39DG     C17  891   1.521   4.873   2.424  0.1186 -0.3543 -0.4597
   39DG     C18  892   1.353   4.740   2.303  0.4880 -0.5940 -0.1633
   39DG     O19  893   1.432   4.861   2.309  0.0482 -0.2944  0.2543
   39DG     H20  894   1.480   4.838   2.518 -1.5873  1.1656 -0.5954
   39DG     H21  895   1.596   4.802   2.386 -0.0184 -1.2341  0.8569
   39DG     H22  896   1.303   4.724   2.399  1.0907  3.5877  1.0244
   39DG     H23  897   1.422   4.656   2.297  1.0017 -0.5085  2.8911
   40DG      C1  898   2.667   0.680   4.324 -0.4382  0.4321 -0.4354
   40DG      C2  899   2.137   0.255   4.328 -0.7085 -0.1861 -0.3079
   40DG      H3  900   2.776   0.681   4.325 -0.3814  2.5151 -1.5246
   40DG      H4  901   2.633   0.700   4.425  1.5505 -0.3021  0.4322
   40DG      H5  902   2.645   0.756   4.249 -1.2828  0.6309  0.0017
   40DG      H6  903   2.084   0.332   4.272 -0.9277  0.9450  1.3952
   40DG      H7  904   2.111   0.152   4.301 -0.0675 -0.5124  0.2825
   40DG      H8  905   2.112   0.267   4.433  0.0923  3.9263 -0.4169
   40DG      O9  906   2.619   0.554   4.294  0.3209  0.1315 -0.4432
   40DG     O10  907   2.280   0.263   4.305 -0.1835  0.2806  0.3647
   40DG     C11  908   2.631   0.518   4.153  0.1209  0.0679 -0.6706
   40DG     C12  909   2.328   0.178   4.203  0.4518  0.9238  0.0373
   40DG     H13  910   2.729   0.556   4.122  1.1382 -2.1226 -0.3169
   40DG     H14  911   2.555   0.572   4.097 -0.1546 -0.3099 -0.6630
   40DG     H15  912   2.274   0.212   4.115  0.7448 -0.0072 -0.5218
   40DG     H16  913   2.302   0.073   4.215  0.0129  0.9335 -0.7424
   40DG     C17  914   2.623   0.365   4.140  0.6796  0.6870  0.2102
   40DG     C18  915   2.483   0.181   4.187  0.7958 -0.2724 -0.0101
   40DG     O19  916   2.497   0.325   4.197  0.2149 -0.0816  0.3579
   40DG     H20  917   2.707   0.319   4.192  1.0534 -1.5651 -2.2252
   40DG     H21  918   2.641   0.333   4.038 -0.2278  3.6493 -0.9739
   40DG     H22  919   2.525   0.129   4.273 -2.7859 -2.6346  0.5200
   40DG     H23  920   2.513   0.136   4.092 -1.1600 -0.1629 -0.7246
   41DG      C1  921   3.183   1.616   1.283  0.0871  0.2542 -0.1693
   41DG      C2  922   3.002   1.484   1.805 -0.2529 -0.0635  0.0396
   41DG      H3  923   3.172   1.508   1.272  1.1460  0.3149 -2.7522
   41DG      H4  924   3.179   1.649   1.386 -0.8471 -2.9111  0.9261
   41DG      H5  925   3.286   1.633   1.252  0.3457 -0.7460  0.0784
   41DG      H6  926   3.016   1.530   1.903 -1.5772  2.1619 -0.7398
   41DG      H7  927   2.974   1.379   1.815 -0.2222 -0.0261  0.5815
   41DG      H8  928   3.095   1.495   1.750  0.6482  0.6512  1.6444
   41DG      O9  929   3.098   1.697   1.200  0.1534 -0.2611 -0.2621
   41DG     O10  930   2.904   1.562   1.739  1.1131  0.4674  0.1443
   41DG     C11  931   2.963   1.679   1.230  0.0085 -0.5893 -0.3677
   41DG     C12  932   2.934   1.697   1.716 -0.3237  0.5958 -0.3582
   41DG     H13  933   2.930   1.576   1.248  0.7007 -0.4953  1.5840
   41DG     H14  934   2.909   1.715   1.142  0.8658  0.6806 -0.3927
   41DG     H15  935   3.043   1.701   1.710 -0.3035 -1.0929 -2.6575
   41DG     H16  936   2.905   1.750   1.806  1.1583  0.3311  0.3057
   41DG     C17  937   2.907   1.758   1.353 -0.5166 -0.1573 -0.0067
   41DG     C18  938   2.869   1.755   1.587  0.1596 -0.1961 -0.8211
   41DG     O19  939   2.940   1.693   1.480 -0.4271 -0.0876 -0.0095
   41DG     H20  940   2.799   1.747   1.341 -0.8117  1.3183  1.0390
   41DG     H21  941   2.947   1.859   1.353 -0.9671  0.0222 -0.2032
   41DG     H22  942   2.763   1.730   1.596  0.6057 -1.6701  1.3666
   41DG     H23  943   2.906   1.857   1.590 -0.3447 -0.0025 -1.0569
   42DG      C1  944   0.863   4.661   1.832  0.5223 -0.5466 -0.1936
   42DG      C2  945   0.690   4.271   1.870 -0.3226  0.8706  0.0895
   42DG      H3  946   0.927   4.582   1.872  2.2097  0.9936  0.2786
   42DG      H4  947   0.798   4.683   1.916  1.1723  0.6316  0.0188
   42DG      H5  948   0.920   4.751   1.811 -3.3734  2.0924 -0.4859
   42DG      H6  949   0.780   4.306   1.921 -0.6081 -0.1059  1.3162
   42DG      H7  950   0.617   4.313   1.940  1.7022  0.9606  2.2933
   42DG      H8  951   0.669   4.169   1.901 -2.8497  1.2911 -0.0231
   42DG      O9  952   0.778   4.632   1.721 -0.0176  0.3423  0.5676
   42DG     O10  953   0.683   4.319   1.741 -0.1521 -0.3309 -0.6309
   42DG     C11  954   0.841   4.614   1.597 -0.1532  0.1174  0.0252
   42DG     C12  955   0.794   4.289   1.656 -0.7738  0.6868 -0.0547
   42DG     H13  956   0.922   4.542   1.610  0.7608  1.4959  2.9541
   42DG     H14  957   0.886   4.711   1.574  1.6398 -0.5888  0.4191
   42DG     H15  958   0.823   4.184   1.664  1.6986  1.2107 -1.2705
   42DG     H16  959   0.881   4.344   1.691  0.3529 -1.5699  0.8503
   42DG     C17  960   0.751   4.569   1.480 -0.4998  0.1651 -0.3084
   42DG     C18  961   0.758   4.322   1.511 -0.2440 -0.7018 -0.5807
   42DG     O19  962   0.684   4.447   1.505  0.4347 -0.1748  0.9135
   42DG     H20  963   0.814   4.556   1.392 -3.7672  0.5000 -2.8793
   42DG     H21  964   0.672   4.639   1.455 -1.2951 -1.7319 -3.5869
   42DG     H22  965   0.837   4.309   1.437  0.4866  1.4211 -0.2399
   42DG     H23  966   0.682   4.250   1.481 -1.7803 -0.3392  2.0763
   43DG      C1  967   4.165   4.641   0.672 -0.3370 -0.2714 -0.4332
   43DG      C2  968   3.966   4.907   0.135 -0.0603  0.2572  0.5741
   43DG      H3  969   4.104   4.732   0.677  1.1487  0.8470 -1.6931
   43DG      H4  970   4.257   4.654   0.729 -0.5586 -0.1383 -0.1010
   43DG      H5  971   4.110   4.555   0.709  0.6328  0.3856  2.8176
   43DG      H6  972   3.898   4.913   0.050 -2.1331  3.7117  2.2536
   43DG      H7  973   3.924   4.978   0.207  0.4441  3.0438 -1.6898
   43DG      H8  974   4.063   4.944   0.101  1.2280 -1.6031  2.0631
   43DG      O9  975   4.189   4.629   0.532  0.0618 -0.4043 -0.2600
   43DG     O10  976   3.983   4.776   0.184 -0.7599 -0.5394 -0.4615
   43DG     C11  977   4.250   4.506   0.489 -0.0746  0.9005  0.3140
   43DG     C12  978   4.001   4.670   0.089  1.2797 -0.2672 -1.0497
   43DG     H13  979   4.226   4.427   0.560 -1.0407  0.1970 -0.7565
   43DG     H14  980   4.357   4.514   0.475 -0.2568  1.1212 -1.0482
   43DG     H15  981   4.076   4.690   0.013  1.7501  0.2437 -0.4602
   43DG     H16  982   3.899   4.653   0.054  0.2764  2.0177  0.4635
   43DG     C17  983   4.179   4.467   0.355  1.0232  0.0229 -0.7020
   43DG     C18  984   4.041   4.543   0.173  0.0361  0.0407 -0.4092
   43DG     O19  985   4.141   4.577   0.276 -0.1608  0.0071 -0.2323
   43DG     H20  986   4.088   4.419   0.389  0.6809 -0.7897 -2.6099
   43DG     H21  987   4.242   4.397   0.299  1.1147 -0.1965 -0.3282
   43DG     H22  988   3.954   4.502   0.225 -1.0552  1.1720 -1.2986
   43DG     H23  989   4.084   4.465   0.110 -0.8792 -1.1989  0.4358
   44DG      C1  990   4.316   2.665   2.684  0.3671 -0.1211 -0.4661
   44DG      C2  991   4.990   2.882   2.562 -0.1619 -0.5350  0.2872
   44DG      H3  992   4.365   2.568   2.689  2.1646  0.7941  0.3253
   44DG      H4  993   4.272   2.679   2.585  1.3639 -1.7979 -1.1843
   44DG      H5  994   4.240   2.647   2.760  1.3454 -3.2003 -0.0953
   44DG      H6  995   5.051   2.801   2.602  2.2397  1.3853  0.7237
   44DG      H7  996   4.972   2.875   2.455  0.1563  2.0634 -0.0003
   44DG      H8  997   5.054   2.969   2.575  0.8481 -1.3628  0.9817
   44DG      O9  998   4.413   2.765   2.711  0.1781  0.2465  0.3314
   44DG     O10  999   4.872   2.889   2.644  0.3710 -0.4471  0.5127
   44DG     C11 1000   4.424   2.782   2.856 -0.1749 -0.6492  0.2993
   44DG     C12 1001   4.891   2.882   2.782 -0.5080 -0.4815  0.2040
   44DG     H13 1002   4.461   2.693   2.906 -1.3857 -0.8348  0.9073
   44DG     H14 1003   4.333   2.820   2.905  0.0876 -2.9257  2.7875
   44DG     H15 1004   4.976   2.940   2.818  0.8842 -1.9462 -0.6189
   44DG     H16 1005   4.907   2.776   2.799  1.0446 -0.4194 -0.7054
   44DG     C17 1006   4.517   2.899   2.873 -0.3365 -0.2666 -0.1462
   44DG     C18 1007   4.761   2.934   2.855  0.3852  0.1838 -0.5269
   44DG     O19 1008   4.643   2.875   2.801 -0.1462 -0.2747 -0.1325
   44DG     H20 1009   4.540   2.912   2.979  2.4514 -1.3014 -0.5530
   44DG     H21 1010   4.485   2.996   2.834  1.3044  0.3039 -0.1366
   44DG     H22 1011   4.768   2.910   2.961 -0.1240  0.5185 -0.4147
   44DG     H23 1012   4.744   3.041   2.844 -0.3269  0.1299  0.0078
   45DG      C1 1013   2.773   2.722   1.490 -0.0198  0.2636  0.2475
   45DG      C2 1014   3.385   2.820   1.993  0.5009 -0.6958 -0.3150
   45DG      H3 1015   2.689   2.776   1.447  0.4715  1.8878  1.2451
   45DG      H4 1016   2.724   2.636   1.537 -0.8684  1.9068  2.5422
   45DG      H5 1017   2.845   2.702   1.410 -0.2114 -2.6212  0.6736
   45DG      H6 1018   3.487   2.825   1.955  1.2013  0.5703  1.5519
   45DG      H7 1019   3.393   2.873   2.088  0.4245 -0.7107 -0.3004
   45DG      H8 1020   3.352   2.726   2.037  0.6344 -1.0197 -0.9018
   45DG      O9 1021   2.827   2.793   1.600  0.1534  0.6148 -0.3779
   45DG     O10 1022   3.293   2.895   1.913 -0.3921  0.0812  0.1465
   45DG     C11 1023   2.877   2.921   1.558 -0.1773 -0.7144  0.3871
   45DG     C12 1024   3.156   2.893   1.963  0.3368 -0.1849  0.5620
   45DG     H13 1025   2.795   2.971   1.506 -1.5347 -1.9764  1.2190
   45DG     H14 1026   2.964   2.921   1.492  0.4039 -1.1371  1.1354
   45DG     H15 1027   3.164   2.944   2.059  0.6393  1.1073 -0.1389
   45DG     H16 1028   3.122   2.790   1.978  0.0508  0.0036  1.2261
   45DG     C17 1029   2.928   2.997   1.685 -0.5190  0.7978 -0.8996
   45DG     C18 1030   3.067   2.978   1.871  0.6280  0.1966  0.4683
   45DG     O19 1031   3.031   2.923   1.748  0.5311  0.2612 -0.0661
   45DG     H20 1032   2.845   3.016   1.753  0.3211 -0.3323  0.5061
   45DG     H21 1033   2.974   3.093   1.663  0.9519  0.2359 -0.4143
   45DG     H22 1034   2.979   3.002   1.931  2.1849 -0.1490  3.0574
   45DG     H23 1035   3.106   3.077   1.844  0.2773 -0.6180 -3.6899
   46DG      C1 1036   0.709   2.860   2.683  0.8941  0.0638  0.2829
   46DG      C2 1037   1.179   3.133   2.075 -0.9829 -0.1031 -0.4998
   46DG      H3 1038   0.626   2.791   2.670  1.8640 -1.2302  0.7645
   46DG      H4 1039   0.674   2.941   2.748 -0.1439  0.6755 -0.9812
   46DG      H5 1040   0.796   2.809   2.724 -0.4807 -0.4870  2.7291
   46DG      H6 1041   1.147   3.218   2.014  0.5358  0.5393 -0.4469
   46DG      H7 1042   1.273   3.157   2.124 -1.6312  2.6898 -0.4332
   46DG      H8 1043   1.198   3.051   2.006  2.2818  0.4788 -0.4461
   46DG      O9 1044   0.745   2.921   2.560  0.0423  0.1123 -0.0522
   46DG     O10 1045   1.074   3.100   2.160 -0.0092 -0.2856  0.3903
   46DG     C11 1046   0.748   2.823   2.456 -0.0485  0.6964  0.4683
   46DG     C12 1047   1.125   3.051   2.292 -0.2174 -0.3847  0.2518
   46DG     H13 1048   0.650   2.779   2.440  0.4048  0.1261 -0.8722
   46DG     H14 1049   0.811   2.739   2.485 -0.1243  0.2033 -0.7393
   46DG     H15 1050   1.186   3.131   2.334  1.3755 -1.0964 -0.6252
   46DG     H16 1051   1.186   2.961   2.296 -1.3418 -1.1448  0.8213
   46DG     C17 1052   0.806   2.882   2.320  0.4032  0.4392  0.1916
   46DG     C18 1053   1.012   2.997   2.374  0.7872 -0.4288 -0.6967
   46DG     O19 1054   0.946   2.887   2.310 -0.0103  0.0083  0.6714
   46DG     H20 1055   0.763   2.981   2.303 -1.1304 -0.5225 -1.9951
   46DG     H21 1056   0.770   2.813   2.243 -2.3858  0.0655  1.7133
   46DG     H22 1057   1.044   2.954   2.469  1.2291 -0.0425 -0.6680
   46DG     H23 1058   0.936   3.071   2.399  2.2727  1.5073 -1.5527
   47DG      C1 1059   3.298   2.225   3.873  0.8518 -0.5311  0.2928
   47DG      C2 1060   3.419   1.690   3.479  0.0143  0.1258 -0.1075
   47DG      H3 1061   3.207   2.266   3.830  1.3281  1.7165  1.2657
   47DG      H4 1062   3.345   2.303   3.933  0.6930 -1.6201  1.9077
   47DG      H5 1063   3.278   2.136   3.933 -1.7230 -0.8890 -0.9685
   47DG      H6 1064   3.314   1.662   3.487 -0.0090  0.2972  0.1845
   47DG      H7 1065   3.474   1.655   3.392 -1.5631  0.3427 -1.2480
   47DG      H8 1066   3.468   1.634   3.558 -0.4999 -0.0481  0.0940
   47DG      O9 1067   3.388   2.192   3.768  0.0374 -0.2745  0.2643
   47DG     O10 1068   3.452   1.829   3.498 -0.0572 -0.0422  0.4880
   47DG     C11 1069   3.384   2.291   3.660  0.3830 -0.1703  0.6136
   47DG     C12 1070   3.451   1.901   3.376 -0.3519  0.2795  0.4868
   47DG     H13 1071   3.427   2.386   3.690  2.9268  0.4651 -4.0071
   47DG     H14 1072   3.282   2.310   3.626  0.4269  1.0760  1.1486
   47DG     H15 1073   3.347   1.897   3.344 -0.7281  0.1853  1.6859
   47DG     H16 1074   3.521   1.848   3.311 -1.3877  0.0395 -0.4503
   47DG     C17 1075   3.479   2.235   3.550 -0.8859  0.5779 -0.0719
   47DG     C18 1076   3.494   2.050   3.391 -0.1773 -0.6821 -0.3259
   47DG     O19 1077   3.428   2.105   3.509 -0.4039 -0.1977 -0.3332
   47DG     H20 1078   3.583   2.232   3.585 -0.7883 -0.4915 -0.4005
   47DG     H21 1079   3.477   2.294   3.459 -0.8434 -0.7830 -0.9967
   47DG     H22 1080   3.603   2.055   3.399  0.0070 -2.9027 -0.7133
   47DG     H23 1081   3.467   2.100   3.298  3.7372  1.5074 -0.4809
   48DG      C1 1082   3.008   2.223   2.351 -0.4479 -0.0442 -0.3600
   48DG      C2 1083   3.135   1.673   2.656  0.6609 -0.2093  0.6899
   48DG      H3 1084   2.968   2.256   2.447 -0.6984  1.2535 -0.8825
   48DG      H4 1085   2.938   2.149   2.313 -0.2008 -0.9258  0.8280
   48DG      H5 1086   2.996   2.312   2.288  0.8222  1.0266  0.8319
   48DG      H6 1087   3.113   1.570   2.627  0.6444  0.0857 -0.3701
   48DG      H7 1088   3.217   1.661   2.726  1.0974  0.0006  0.2191
   48DG      H8 1089   3.056   1.715   2.718  0.3020 -1.6086  1.2353
   48DG      O9 1090   3.140   2.177   2.380 -0.0413  0.2317  0.0307
   48DG     O10 1091   3.175   1.760   2.550 -0.1664  0.4694  0.6437
   48DG     C11 1092   3.207   2.129   2.258 -0.4650 -1.0178  0.0872
   48DG     C12 1093   3.265   1.704   2.463 -0.3062 -0.5320 -0.0963
   48DG     H13 1094   3.315   2.140   2.268 -0.6870  0.5998  1.0376
   48DG     H14 1095   3.171   2.197   2.180 -1.3774  2.0622  2.9529
   48DG     H15 1096   3.272   1.595   2.460  0.4779 -0.4658 -1.8971
   48DG     H16 1097   3.358   1.739   2.507  0.1767 -0.4123 -1.1765
   48DG     C17 1098   3.179   1.980   2.233  0.1157 -0.0116 -0.3250
   48DG     C18 1099   3.240   1.766   2.330  0.6141 -1.0750 -0.0086
   48DG     O19 1100   3.219   1.906   2.352 -0.4661 -0.0863 -0.0729
   48DG     H20 1101   3.248   1.948   2.155 -0.2073 -2.1266  0.1786
   48DG     H21 1102   3.074   1.954   2.221  0.0841  0.0033 -0.0855
   48DG     H22 1103   3.320   1.755   2.258  0.0673  0.9539 -0.9991
   48DG     H23 1104   3.148   1.723   2.290 -1.3764  0.9500  2.0417
   49DG      C1 1105   2.262   0.709   0.317  0.4621  0.1127  0.2345
   49DG      C2 1106   1.666   0.905   0.142 -0.1262 -0.0370 -0.0001
   49DG      H3 1107   2.366   0.742   0.316  1.1207 -1.8490 -1.3158
   49DG      H4 1108   2.233   0.649   0.231 -0.1244 -0.2363  0.6759
   49DG      H5 1109   2.251   0.645   0.404 -1.5326 -0.8574 -0.6739
   49DG      H6 1110   1.707   0.843   0.062 -0.7086 -1.4397  0.7435
   49DG      H7 1111   1.625   0.831   0.212 -0.5155  1.3858  1.3433
   49DG      H8 1112   1.579   0.952   0.096  0.4306  2.8265  1.6640
   49DG      O9 1113   2.164   0.810   0.325  0.0877 -0.1172  0.2868
   49DG     O10 1114   1.771   0.980   0.199 -0.3910  0.0922  0.4151
   49DG     C11 1115   2.187   0.904   0.423 -0.5883  0.0984  0.0202
   49DG     C12 1116   1.733   1.049   0.313 -0.1680  0.1179  0.4003
   49DG     H13 1117   2.288   0.946   0.432 -0.5923  0.1259 -0.0577
   49DG     H14 1118   2.177   0.850   0.517  0.0524 -0.2878 -0.1257
   49DG     H15 1119   1.684   0.984   0.386 -1.3418  1.5904  0.9832
   49DG     H16 1120   1.668   1.134   0.293  0.5311  0.0078 -2.8162
   49DG     C17 1121   2.089   1.020   0.409  0.6392 -0.4719  0.6199
   49DG     C18 1122   1.867   1.091   0.382 -0.0153  0.5861  0.5570
   49DG     O19 1123   1.955   0.977   0.383 -0.5634  0.2326 -0.8542
   49DG     H20 1124   2.124   1.073   0.320  0.7419 -0.7439  0.4984
   49DG     H21 1125   2.103   1.093   0.488  0.3737  2.0291 -1.4989
   49DG     H22 1126   1.911   1.175   0.330  0.8582  1.5201  2.6673
   49DG     H23 1127   1.848   1.113   0.488 -3.3520  0.1370  0.1792
   50DG      C1 1128   0.265   2.451   3.838  0.5621 -0.1458 -0.0011
   50DG      C2 1129  -0.145   1.948   4.207  0.6840  0.1402 -0.0849
   50DG      H3 1130   0.210   2.505   3.914 -2.5402 -0.8888 -1.5662
   50DG      H4 1131   0.221   2.463   3.739 -0.3949  1.0405  0.5527
   50DG      H5 1132   0.370   2.479   3.843  0.9609 -1.3155 -1.1655
   50DG      H6 1133  -0.166   1.844   4.231  0.7092  0.7798  3.0750
   50DG      H7 1134  -0.115   2.002   4.297  2.7893  0.6659 -1.0366
   50DG      H8 1135  -0.236   1.997   4.172 -0.6985 -0.5222  2.3811
   50DG      O9 1136   0.243   2.317   3.873 -0.8119 -0.4298  0.4506
   50DG     O10 1137  -0.037   1.962   4.114 -0.0922  0.1487  0.0404
   50DG     C11 1138   0.287   2.213   3.788 -0.4657 -0.0225  0.4369
   50DG     C12 1139  -0.048   1.902   3.987  0.1649  0.3446  0.2610
   50DG     H13 1140   0.394   2.219   3.767 -0.2589 -1.6747  0.8042
   50DG     H14 1141   0.236   2.220   3.692  1.1405 -3.5827 -0.8717
   50DG     H15 1142  -0.128   1.951   3.931  0.9398  1.2818 -0.0540
   50DG     H16 1143  -0.053   1.793   3.989  1.6608  0.2248 -0.7891
   50DG     C17 1144   0.260   2.071   3.853  0.0936 -0.2553  0.2360
   50DG     C18 1145   0.084   1.926   3.917  0.2848  0.1731 -0.1002
   50DG     O19 1146   0.122   2.057   3.880  0.5968 -0.3543 -0.2065
   50DG     H20 1147   0.323   2.047   3.939  0.5495 -1.1338 -0.3339
   50DG     H21 1148   0.279   1.997   3.776  1.1255 -0.3702  0.5859
   50DG     H22 1149   0.166   1.880   3.972  0.8773 -0.2543 -1.3066
   50DG     H23 1150   0.083   1.865   3.827  1.5491 -2.1659  1.3671
   51DG      C1 1151   4.028   1.966   4.957 -0.2021  0.0986  0.6691
   51DG      C2 1152   3.770   1.567   4.321 -0.6182 -0.0096  0.1091
   51DG      H3 1153   4.049   2.071   4.978  2.1542 -0.5314  1.7935
   51DG      H4 1154   4.096   1.905   5.016 -1.4913 -0.2696  1.8521
   51DG      H5 1155   3.931   1.957   5.006 -1.2080  2.3504 -0.7489
   51DG      H6 1156   3.878   1.556   4.319 -0.5274  0.7521  0.6007
   51DG      H7 1157   3.712   1.476   4.336 -0.9541  0.5380  2.4952
   51DG      H8 1158   3.744   1.604   4.221  1.3011 -0.7662 -0.7241
   51DG      O9 1159   4.017   1.937   4.817 -0.4526  0.5380 -0.7365
   51DG     O10 1160   3.735   1.663   4.415 -0.0555 -1.1645  0.0677
   51DG     C11 1161   3.990   1.799   4.796 -0.8080  0.2401 -0.8615
   51DG     C12 1162   3.777   1.799   4.374  0.2990  0.0237 -0.3521
   51DG     H13 1163   3.888   1.781   4.831 -0.3725 -1.5532 -0.3627
   51DG     H14 1164   4.046   1.729   4.859 -2.1887  0.0436  0.1761
   51DG     H15 1165   3.703   1.868   4.415 -0.0404 -1.6851  2.1173
   51DG     H16 1166   3.785   1.800   4.265 -1.3732 -0.5159 -0.5044
   51DG     C17 1167   3.998   1.772   4.640  0.4978  0.1298  0.8307
   51DG     C18 1168   3.912   1.830   4.426  0.1427  0.0542 -0.3792
   51DG     O19 1169   3.898   1.841   4.570 -0.1997 -0.2123 -0.0921
   51DG     H20 1170   3.984   1.665   4.625  0.5846  0.4606 -2.1634
   51DG     H21 1171   4.097   1.805   4.606 -0.2129  1.2789 -0.2010
   51DG     H22 1172   3.979   1.755   4.385 -0.7918 -0.5321 -0.8698
   51DG     H23 1173   3.954   1.923   4.387 -1.3974  0.3911 -1.3679
   52DG      C1 1174   0.889   3.463   4.051 -0.2458  0.3968 -0.1938
   52DG      C2 1175   1.081   2.854   3.962  0.0205 -0.2281 -0.0929
   52DG      H3 1176   0.849   3.553   4.004 -1.5778  1.7682  3.2685
   52DG      H4 1177   0.927   3.494   4.148  0.7185  0.7939 -0.6748
   52DG      H5 1178   0.804   3.396   4.063 -0.0454  0.4802  1.9554
   52DG      H6 1179   1.145   2.776   3.919  3.0711  1.9239  0.2102
   52DG      H7 1180   1.082   2.849   4.071  2.3206 -0.3762 -0.0631
   52DG      H8 1181   0.979   2.845   3.924  0.2130 -1.5302 -0.3708
   52DG      O9 1182   0.988   3.407   3.974  0.0466 -0.0513 -0.0286
   52DG     O10 1183   1.128   2.979   3.924  0.0797  0.3455 -0.2190
   52DG     C11 1184   1.121   3.457   3.996 -0.4994  0.6865 -0.0529
   52DG     C12 1185   1.266   2.989   3.938  0.0469 -0.2074 -0.3003
   52DG     H13 1186   1.144   3.461   4.103  0.1228  0.1080 -0.1553
   52DG     H14 1187   1.136   3.554   3.949  2.9810  0.1454 -0.3455
   52DG     H15 1188   1.322   2.922   3.872 -1.0127 -0.1577 -1.2898
   52DG     H16 1189   1.287   2.967   4.042 -2.8240  0.1354  0.4448
   52DG     C17 1190   1.226   3.360   3.928  0.1471  0.0898  0.3639
   52DG     C18 1191   1.294   3.133   3.900 -0.1556 -0.1290  0.5524
   52DG     O19 1192   1.200   3.226   3.969  0.3668 -0.5510  0.1275
   52DG     H20 1193   1.330   3.383   3.954 -0.0087  1.9323 -0.4791
   52DG     H21 1194   1.220   3.368   3.820 -1.2249  1.2198  0.4959
   52DG     H22 1195   1.398   3.154   3.923  0.4088 -0.0401 -1.8516
   52DG     H23 1196   1.270   3.144   3.794  1.1432 -0.0784  0.2454
   53DG      C1 1197   4.028   0.835   0.289  0.1867 -1.0935 -0.3910
   53DG      C2 1198   3.911   1.028  -0.163  0.1326  0.0000 -0.1885
   53DG      H3 1199   4.089   0.910   0.340 -0.0800 -2.3636  1.8910
   53DG      H4 1200   3.990   0.874   0.194  2.4837 -0.1995 -1.0129
   53DG      H5 1201   4.105   0.766   0.254  1.6200 -0.5701  1.5780
   53DG      H6 1202   3.970   0.947  -0.206 -1.2208  0.0128 -2.1964
   53DG      H7 1203   3.843   1.046  -0.246 -0.6723 -1.9784  0.0020
   53DG      H8 1204   3.979   1.110  -0.140 -0.3773  0.0927  1.0583
   53DG      O9 1205   3.940   0.779   0.375 -0.0318 -0.2411 -0.8709
   53DG     O10 1206   3.846   0.979  -0.041 -0.1918  0.3181  0.1164
   53DG     C11 1207   3.837   0.865   0.427  0.0742  0.5874 -0.7888
   53DG     C12 1208   3.742   1.063   0.008  0.7406 -0.5497 -0.2881
   53DG     H13 1209   3.881   0.962   0.451  0.2767  1.1402 -3.1439
   53DG     H14 1210   3.803   0.830   0.524  0.2695  0.7220 -0.6702
   53DG     H15 1211   3.666   1.081  -0.068  1.4926  0.1756 -0.8921
   53DG     H16 1212   3.777   1.161   0.039 -4.9105  1.1231  1.9165
   53DG     C17 1213   3.713   0.883   0.340  0.7735 -0.4292  0.6912
   53DG     C18 1214   3.674   1.012   0.139  0.8207 -0.4476  0.4144
   53DG     O19 1215   3.768   0.960   0.230  0.7070 -0.4129 -0.2904
   53DG     H20 1216   3.630   0.934   0.388  0.5931  2.4174 -2.3022
   53DG     H21 1217   3.679   0.786   0.302  0.5096 -0.3011  0.5997
   53DG     H22 1218   3.601   1.082   0.179 -0.2182 -2.7181  2.8124
   53DG     H23 1219   3.623   0.922   0.106 -0.8221 -0.3296  2.4189
   54DG      C1 1220   1.208   2.248   0.805  0.2245 -0.2337 -0.6322
   54DG      C2 1221   1.098   2.403   1.486  0.4559  0.0608  0.6132
   54DG      H3 1222   1.276   2.216   0.726  1.3610  1.8340 -0.5520
   54DG      H4 1223   1.176   2.347   0.773  0.9404  0.4343  0.6178
   54DG      H5 1224   1.123   2.179   0.804 -1.6674  1.9806 -0.6402
   54DG      H6 1225   1.101   2.509   1.513 -4.5077  0.6713 -0.2162
   54DG      H7 1226   1.012   2.410   1.418  0.8993  4.1553  0.1987
   54DG      H8 1227   1.071   2.346   1.575 -0.0403  0.0636  0.4681
   54DG      O9 1228   1.279   2.251   0.933  0.3934 -0.3446  0.6258
   54DG     O10 1229   1.210   2.340   1.428 -0.3289 -0.5510 -0.5610
   54DG     C11 1230   1.314   2.129   0.981 -0.3929 -0.3486 -0.2316
   54DG     C12 1231   1.289   2.422   1.338 -0.0061 -0.4026  0.2945
   54DG     H13 1232   1.380   2.080   0.910  1.4548 -0.1651  1.2723
   54DG     H14 1233   1.234   2.060   1.006  1.2638 -1.6423  1.8497
   54DG     H15 1234   1.353   2.501   1.378  0.4922 -0.3994 -0.4915
   54DG     H16 1235   1.223   2.452   1.257  1.0893  1.1742 -0.0666
   54DG     C17 1236   1.403   2.150   1.102  1.1688 -0.0155  1.2075
   54DG     C18 1237   1.390   2.328   1.261  0.3297  0.3615  0.0891
   54DG     O19 1238   1.328   2.215   1.198  0.6291 -0.3815 -0.2095
   54DG     H20 1239   1.491   2.213   1.087  0.5296  1.1684  2.2747
   54DG     H21 1240   1.447   2.056   1.136  1.9239  0.3192  1.1621
   54DG     H22 1241   1.435   2.391   1.184  0.5088  1.8735  1.3617
   54DG     H23 1242   1.473   2.294   1.322  0.0459 -1.1615 -0.3517
   55DG      C1 1243   1.293   1.510   1.794  0.3033 -0.4680 -0.2451
   55DG      C2 1244   0.873   1.572   2.343  0.7065 -0.3684 -0.0898
   55DG      H3 1245   1.204   1.447   1.791 -0.1644 -0.1339  3.1835
   55DG      H4 1246   1.378   1.446   1.768  0.6295  0.1502 -0.7493
   55DG      H5 1247   1.271   1.578   1.711  0.5118 -0.6363 -0.4399
   55DG      H6 1248   0.857   1.594   2.448 -0.2771  0.1456 -0.3430
   55DG      H7 1249   0.797   1.617   2.279 -0.5400 -2.3394 -0.0683
   55DG      H8 1250   0.861   1.465   2.323  0.3245 -0.1764 -0.9016
   55DG      O9 1251   1.289   1.567   1.931 -0.5046  0.4186 -0.2745
   55DG     O10 1252   1.000   1.611   2.295 -0.2711 -0.0145  0.5713
   55DG     C11 1253   1.333   1.702   1.928 -0.7536  0.5835  0.0183
   55DG     C12 1254   1.012   1.753   2.280 -0.1011 -0.3052  0.2711
   55DG     H13 1255   1.274   1.758   1.855 -1.7600 -2.6094 -1.8450
   55DG     H14 1256   1.437   1.710   1.897 -1.3642  1.4351 -2.0180
   55DG     H15 1257   1.001   1.809   2.373 -1.0449  0.2400 -0.1523
   55DG     H16 1258   0.942   1.791   2.206  2.3556 -0.0890 -2.0850
   55DG     C17 1259   1.303   1.755   2.065  0.3432  0.1341  0.8171
   55DG     C18 1260   1.157   1.777   2.244 -0.1090 -0.3775  1.0365
   55DG     O19 1261   1.171   1.717   2.110 -0.3648 -0.7566 -0.1325
   55DG     H20 1262   1.314   1.863   2.059  3.6639 -0.1878 -2.0743
   55DG     H21 1263   1.380   1.718   2.133 -0.3963  0.5059  1.8904
   55DG     H22 1264   1.188   1.881   2.232 -0.8680 -0.2754 -0.2842
   55DG     H23 1265   1.221   1.735   2.322  0.5086 -1.8961 -0.2356
   56DG      C1 1266   1.533   5.143   1.984  0.0604  0.3855  0.0750
   56DG      C2 1267   0.970   5.041   2.393 -0.0876  0.6039  0.2464
   56DG      H3 1268   1.503   5.171   1.883 -2.9944 -1.6994  0.2517
   56DG      H4 1269   1.539   5.034   1.986  0.2535  0.3894 -0.3313
   56DG      H5 1270   1.636   5.167   2.012 -0.0737  0.7869  0.2330
   56DG      H6 1271   1.016   4.943   2.406  0.5532  0.6321 -1.4780
   56DG      H7 1272   0.950   5.083   2.491 -1.7396  1.4855 -0.4331
   56DG      H8 1273   0.887   5.037   2.323 -1.5629  0.0480  1.9766
   56DG      O9 1274   1.437   5.196   2.079 -0.0006 -0.0223 -0.1005
   56DG     O10 1275   1.075   5.119   2.331  0.0627  0.2271  0.2920
   56DG     C11 1276   1.438   5.334   2.083 -0.6738 -0.3163  0.6352
   56DG     C12 1277   1.026   5.257   2.310 -0.1264  0.3321 -1.2075
   56DG     H13 1278   1.469   5.365   1.983 -1.7878 -1.1259  0.0158
   56DG     H14 1279   1.513   5.376   2.150 -0.8090  0.8350  0.0808
   56DG     H15 1280   1.056   5.317   2.397  1.3544 -0.5587 -1.0717
   56DG     H16 1281   0.918   5.270   2.299 -0.3331 -1.6608 -1.9241
   56DG     C17 1282   1.294   5.386   2.091  0.2951  0.2822 -0.8811
   56DG     C18 1283   1.084   5.323   2.183  0.1503 -0.4000 -0.5692
   56DG     O19 1284   1.224   5.319   2.199 -0.3958  0.1028  0.7867
   56DG     H20 1285   1.242   5.364   1.998 -1.2298  0.0607 -0.0030
   56DG     H21 1286   1.287   5.492   2.115  0.1661 -0.2445  1.6201
   56DG     H22 1287   1.061   5.258   2.099 -0.4551  0.5199 -1.1341
   56DG     H23 1288   1.060   5.429   2.170  0.4267 -0.4185 -1.2838
   57DG      C1 1289   0.644   1.056   1.809 -0.0825  0.5001  0.5103
   57DG      C2 1290   0.294   0.573   1.196  0.3611 -0.2388  0.0532
   57DG      H3 1291   0.716   1.036   1.889 -1.0379 -2.5166  0.7408
   57DG      H4 1292   0.540   1.036   1.834 -0.6336 -0.5436 -2.3112
   57DG      H5 1293   0.635   1.164   1.795 -2.1056  0.4468  1.1541
   57DG      H6 1294   0.369   0.494   1.204 -1.1825 -1.7989 -0.3666
   57DG      H7 1295   0.201   0.566   1.253  0.0990  0.5823 -0.2629
   57DG      H8 1296   0.258   0.570   1.094 -2.2908 -1.6421  0.9384
   57DG      O9 1297   0.673   1.000   1.687  0.1381 -0.3265  0.6068
   57DG     O10 1298   0.372   0.691   1.199  0.4089 -0.1473 -0.1832
   57DG     C11 1299   0.651   0.859   1.677 -0.5149  0.5174  0.3444
   57DG     C12 1300   0.427   0.722   1.331 -0.4707 -0.6714  0.7938
   57DG     H13 1301   0.553   0.824   1.712  0.8719 -2.8163  1.3592
   57DG     H14 1302   0.721   0.810   1.745 -1.0076  1.3061  1.4538
   57DG     H15 1303   0.487   0.636   1.357  0.3786 -0.1513  0.5875
   57DG     H16 1304   0.341   0.739   1.395 -0.7659  3.2296 -0.3515
   57DG     C17 1305   0.675   0.821   1.536  0.0814  0.1747 -0.5277
   57DG     C18 1306   0.518   0.847   1.333 -0.7326 -0.0918 -0.9898
   57DG     O19 1307   0.566   0.880   1.465  0.5924  0.1168  0.0597
   57DG     H20 1308   0.680   0.713   1.523 -0.7472 -0.0034  0.4180
   57DG     H21 1309   0.765   0.869   1.498  0.2314 -0.6439 -1.2401
   57DG     H22 1310   0.615   0.841   1.285  0.7716  0.6236  1.7398
   57DG     H23 1311   0.478   0.944   1.306  2.1671  0.9465 -1.8930
   58DG      C1 1312   5.504   1.673   2.122 -0.6941  0.9166 -0.4776
   58DG      C2 1313   5.743   2.342   2.437 -0.7419  0.6751 -0.0111
   58DG      H3 1314   5.611   1.682   2.138 -0.9451  1.0741  1.3348
   58DG      H4 1315   5.472   1.611   2.039  1.0728 -3.2375  1.6335
   58DG      H5 1316   5.447   1.636   2.207 -0.6990  2.2142  0.1121
   58DG      H6 1317   5.702   2.335   2.538  1.7034 -2.6266  0.9248
   58DG      H7 1318   5.847   2.312   2.432 -1.2304 -0.8826 -1.7819
   58DG      H8 1319   5.723   2.442   2.399 -1.9524  0.5375  0.2186
   58DG      O9 1320   5.443   1.804   2.117  0.2593  0.2150  0.0187
   58DG     O10 1321   5.688   2.252   2.344  0.0545  0.2020 -0.2871
   58DG     C11 1322   5.503   1.887   2.013  0.3322 -0.2373  0.4306
   58DG     C12 1323   5.545   2.243   2.335 -0.3274  0.1048 -0.4463
   58DG     H13 1324   5.468   1.858   1.914 -1.3408  2.3637  0.1716
   58DG     H14 1325   5.611   1.873   2.008  0.3502 -0.5566  1.5173
   58DG     H15 1326   5.509   2.341   2.366  0.4294 -0.0453  0.9968
   58DG     H16 1327   5.500   2.175   2.406 -0.3707  0.7566  0.1576
   58DG     C17 1328   5.471   2.033   2.043 -0.1523 -0.4718  0.3210
   58DG     C18 1329   5.517   2.208   2.188 -0.5121  0.3818  0.4737
   58DG     O19 1330   5.533   2.070   2.166 -0.0416 -0.9218  0.3099
   58DG     H20 1331   5.366   2.045   2.071  0.5592  1.1249  2.6051
   58DG     H21 1332   5.500   2.106   1.969  1.9357 -0.6464  0.9096
   58DG     H22 1333   5.418   2.248   2.163 -0.4937 -1.3089 -2.8499
   58DG     H23 1334   5.585   2.259   2.120  0.6320 -0.6423  0.8145
   59DG      C1 1335   0.314   5.195   4.787 -0.1293  0.1381  0.1721
   59DG      C2 1336   0.872   5.073   5.114  0.6679  0.1785  0.7297
   59DG      H3 1337   0.355   5.096   4.766 -1.9692 -0.2928 -1.7578
   59DG      H4 1338   0.244   5.229   4.711 -1.1551 -0.7386  0.7096
   59DG      H5 1339   0.253   5.192   4.877 -1.3987  4.6458 -0.3044
   59DG      H6 1340   0.952   5.144   5.134  0.8560  0.4720 -0.9247
   59DG      H7 1341   0.805   5.061   5.199 -0.5399  0.7466 -0.1275
   59DG      H8 1342   0.927   4.979   5.101  2.6382  1.3039  0.5611
   59DG      O9 1343   0.400   5.311   4.806 -0.0223 -1.1033 -0.2376
   59DG     O10 1344   0.789   5.120   5.008  0.0223 -0.7900  0.2847
   59DG     C11 1345   0.475   5.353   4.690 -0.3726  0.3348 -0.0094
   59DG     C12 1346   0.853   5.107   4.878  0.7561 -0.2300 -0.3729
   59DG     H13 1347   0.521   5.450   4.711 -1.5605  0.6515  1.3003
   59DG     H14 1348   0.419   5.370   4.598  0.6286  0.7088 -0.5712
   59DG     H15 1349   0.898   5.007   4.878  0.9572 -0.1917  2.1059
   59DG     H16 1350   0.929   5.184   4.873 -1.0014  1.6797  0.7155
   59DG     C17 1351   0.580   5.254   4.661  0.0308  0.6928  0.1262
   59DG     C18 1352   0.752   5.116   4.762 -0.2858  0.5923  0.7308
   59DG     O19 1353   0.653   5.223   4.780 -0.3236 -0.1317 -0.1746
   59DG     H20 1354   0.643   5.292   4.580  0.5715 -1.3869 -0.4999
   59DG     H21 1355   0.534   5.165   4.619  2.5469 -1.4199  1.4857
   59DG     H22 1356   0.803   5.145   4.670 -4.2930 -1.4624 -2.4632
   59DG     H23 1357   0.691   5.026   4.758 -0.8015  0.9059  1.3772
   60DG      C1 1358   4.635   1.237   0.033 -0.8961 -0.8987 -0.1111
   60DG      C2 1359   5.339   0.798  -0.045 -0.0480 -0.2208  0.8428
   60DG      H3 1360   4.609   1.330  -0.018  0.1868 -0.1168  0.7234
   60DG      H4 1361   4.581   1.211   0.123  1.5694  0.2271  1.8020
   60DG      H5 1362   4.605   1.169  -0.047 -4.0672  2.0471 -1.7097
   60DG      H6 1363   5.343   0.789  -0.154  1.0905 -1.8807  0.9792
   60DG      H7 1364   5.437   0.764  -0.011  0.3805 -0.1610 -0.3054
   60DG      H8 1365   5.261   0.731  -0.007 -1.9414  0.8870 -0.8728
   60DG      O9 1366   4.781   1.242   0.062  0.5748  0.3580  0.5171
   60DG     O10 1367   5.315   0.928   0.006 -0.2686 -0.1265 -0.0449
   60DG     C11 1368   4.853   1.300  -0.043 -0.4979  0.2302  0.5868
   60DG     C12 1369   5.177   0.965  -0.005  0.0665 -0.1122  0.3843
   60DG     H13 1370   4.825   1.404  -0.058 -1.7377 -0.1392  0.2184
   60DG     H14 1371   4.840   1.249  -0.138  2.0418 -1.2412  0.9632
   60DG     H15 1372   5.123   0.929   0.082 -0.1917  0.4686  0.4695
   60DG     H16 1373   5.127   0.918  -0.089  0.2927  1.5113 -0.7074
   60DG     C17 1374   5.006   1.289  -0.011  0.1350 -0.1890 -0.2831
   60DG     C18 1375   5.167   1.115  -0.020 -0.1141  0.4946 -0.2327
   60DG     O19 1376   5.028   1.148  -0.002 -0.1698 -0.0211 -0.3801
   60DG     H20 1377   5.028   1.332   0.087 -2.2282 -1.3529  0.8289
   60DG     H21 1378   5.080   1.340  -0.074 -1.2133  0.2625 -1.5523
   60DG     H22 1379   5.239   1.163   0.047  0.6635 -1.5119  0.4399
   60DG     H23 1380   5.199   1.133  -0.122 -1.0847  1.9242 -0.3151
   61DG      C1 1381   1.159   1.688   5.050  0.6692 -0.0352 -0.2953
   61DG      C2 1382   1.532   1.387   4.518 -0.0986 -0.0801  0.5708
   61DG      H3 1383   1.248   1.738   5.087  0.5564  0.1152 -0.2278
   61DG      H4 1384   1.107   1.654   5.140  1.0584 -0.6769 -0.3080
   61DG      H5 1385   1.104   1.759   4.990  1.1947 -0.3428 -1.1538
   61DG      H6 1386   1.534   1.322   4.430 -0.7617  2.0288 -1.0885
   61DG      H7 1387   1.463   1.469   4.500 -0.4562 -0.2871  0.9694
   61DG      H8 1388   1.633   1.427   4.521 -0.6106  1.4375 -0.8532
   61DG      O9 1389   1.197   1.578   4.961 -0.1226 -0.8362  0.1802
   61DG     O10 1390   1.486   1.330   4.638  0.8177 -0.1460  0.2148
   61DG     C11 1391   1.293   1.489   5.022 -0.2137 -0.1117 -0.6621
   61DG     C12 1392   1.351   1.288   4.629 -0.1240  0.8984 -0.8111
   61DG     H13 1393   1.244   1.421   5.092 -2.5740  1.8694 -0.2882
   61DG     H14 1394   1.375   1.545   5.068 -0.4458  0.5054 -0.9966
   61DG     H15 1395   1.340   1.209   4.554  1.1684  0.3311 -0.4101
   61DG     H16 1396   1.278   1.360   4.591 -1.5557 -0.5406 -0.8955
   61DG     C17 1397   1.354   1.404   4.916  0.5783  0.0812 -0.4664
   61DG     C18 1398   1.302   1.235   4.765 -0.6001  0.2334  0.5703
   61DG     O19 1399   1.256   1.338   4.843  0.2157  0.1573  0.3130
   61DG     H20 1400   1.420   1.338   4.972 -0.4043 -1.0144 -0.5473
   61DG     H21 1401   1.421   1.449   4.844 -0.2615  0.7573 -0.8437
   61DG     H22 1402   1.213   1.173   4.757 -1.0600  0.9766 -0.1005
   61DG     H23 1403   1.381   1.173   4.807 -0.4345 -1.9177 -2.5765
   62DG      C1 1404   0.056   0.893   1.246  0.1105  0.1020 -0.0325
   62DG      C2 1405   0.409   1.315   1.476 -0.0100 -0.4500 -0.0483
   62DG      H3 1406   0.072   0.786   1.247 -0.2616 -0.0061 -1.9432
   62DG      H4 1407   0.108   0.931   1.157 -1.1001  0.1263 -0.7536
   62DG      H5 1408  -0.050   0.915   1.240 -0.2537 -1.3934  0.7278
   62DG      H6 1409   0.431   1.211   1.453  0.7889  0.0022 -1.4538
   62DG      H7 1410   0.428   1.366   1.382 -1.1179 -1.7465 -1.0153
   62DG      H8 1411   0.489   1.357   1.538  0.1067 -0.2123 -0.3609
   62DG      O9 1412   0.123   0.953   1.359  0.1055 -0.1000  0.4147
   62DG     O10 1413   0.283   1.328   1.535 -0.0643 -0.0081  0.2418
   62DG     C11 1414   0.080   0.894   1.479 -0.0936  0.5294 -0.1109
   62DG     C12 1415   0.273   1.288   1.671  1.0239  0.2592 -0.0255
   62DG     H13 1416   0.069   0.785   1.481 -0.4029  0.5630  1.2640
   62DG     H14 1417  -0.018   0.924   1.516 -0.2703 -0.6535  0.4491
   62DG     H15 1418   0.187   1.340   1.714  1.8804  1.5142  0.2301
   62DG     H16 1419   0.358   1.323   1.731 -0.1602 -1.7115  3.0373
   62DG     C17 1420   0.179   0.928   1.591  0.1140 -0.2675 -0.4906
   62DG     C18 1421   0.269   1.135   1.688  0.5382 -0.5483 -0.3873
   62DG     O19 1422   0.203   1.069   1.579  0.1511 -0.4098  0.1920
   62DG     H20 1423   0.271   0.871   1.581 -0.5264 -1.8238  1.6744
   62DG     H21 1424   0.140   0.924   1.693  0.8603  0.9602 -0.1389
   62DG     H22 1425   0.370   1.094   1.684  0.8431 -0.0353  1.2636
   62DG     H23 1426   0.225   1.116   1.786 -1.1798  0.6497 -0.8704
   63DG      C1 1427   0.294   1.550   0.388  0.4644 -1.0138 -0.2673
   63DG      C2 1428  -0.128   1.489  -0.119  0.4222 -0.0341  0.4404
   63DG      H3 1429   0.316   1.655   0.371  1.2247 -1.1066  0.0943
   63DG      H4 1430   0.353   1.487   0.321 -0.8129 -1.7207 -0.7502
   63DG      H5 1431   0.306   1.514   0.490 -1.4676  1.9037  1.1065
   63DG      H6 1432  -0.219   1.468  -0.175 -0.0238  1.6880  0.4696
   63DG      H7 1433  -0.096   1.591  -0.139  0.0110 -0.1082 -0.6586
   63DG      H8 1434  -0.057   1.414  -0.153 -0.8637 -1.1234  0.0416
   63DG      O9 1435   0.153   1.529   0.362 -0.3485 -0.2608  0.4031
   63DG     O10 1436  -0.142   1.468   0.020  0.5246  0.8922  0.0055
   63DG     C11 1437   0.064   1.578   0.460 -0.5836 -0.1987 -0.1840
   63DG     C12 1438  -0.228   1.556   0.082 -0.0397 -0.3058 -0.3626
   63DG     H13 1439   0.071   1.687   0.472  3.8980 -0.4462  1.5414
   63DG     H14 1440   0.096   1.538   0.557  2.4073  0.2046 -0.8877
   63DG     H15 1441  -0.326   1.548   0.035 -0.1211  1.8387 -0.6264
   63DG     H16 1442  -0.193   1.656   0.056 -0.0781 -0.6382 -1.7535
   63DG     C17 1443  -0.075   1.521   0.414 -0.2967 -0.7674 -0.4341
   63DG     C18 1444  -0.227   1.526   0.236 -0.2257  0.4094 -0.2424
   63DG     O19 1445  -0.107   1.575   0.286 -0.1863  0.2505 -0.1578
   63DG     H20 1446  -0.150   1.538   0.491 -0.2833  0.1223 -0.6063
   63DG     H21 1447  -0.065   1.416   0.390 -1.3512 -1.6609  2.5358
   63DG     H22 1448  -0.314   1.566   0.289 -2.4407 -0.1416 -3.2000
   63DG     H23 1449  -0.241   1.419   0.244 -0.9459  0.3123 -2.2569
   64DG      C1 1450   2.745   1.155   1.908  0.0710 -0.4415 -0.3777
   64DG      C2 1451   2.010   0.976   2.060  0.4192  0.5235 -0.5121
   64DG      H3 1452   2.783   1.053   1.905  0.4117 -0.4131  1.5466
   64DG      H4 1453   2.831   1.217   1.884  1.0539 -2.3229 -1.8943
   64DG      H5 1454   2.683   1.162   1.818 -0.4686  0.5143  0.0473
   64DG      H6 1455   1.903   0.987   2.077  0.4838 -0.8460  1.0536
   64DG      H7 1456   2.020   0.987   1.952 -1.9691  0.2962 -0.8043
   64DG      H8 1457   2.040   0.876   2.091 -1.5444 -0.3901 -1.4292
   64DG      O9 1458   2.681   1.202   2.021  0.1542 -0.4209 -0.0556
   64DG     O10 1459   2.089   1.077   2.120  0.0522 -0.0404 -0.5787
   64DG     C11 1460   2.620   1.329   2.007 -0.0189  0.5653 -0.3596
   64DG     C12 1461   2.228   1.077   2.082  0.1548  0.3243  0.3923
   64DG     H13 1462   2.585   1.347   1.906 -3.0540 -0.8256  0.3302
   64DG     H14 1463   2.695   1.402   2.039  0.2167 -0.0317  0.5029
   64DG     H15 1464   2.236   1.079   1.974 -0.5234  1.8550  0.3552
   64DG     H16 1465   2.273   0.983   2.116  2.4598  0.7631 -1.2165
   64DG     C17 1466   2.500   1.314   2.093 -0.3873  0.1089 -0.1456
   64DG     C18 1467   2.294   1.200   2.133 -0.2623 -0.4169 -0.6581
   64DG     O19 1468   2.410   1.211   2.053  0.4144  0.2897  0.1754
   64DG     H20 1469   2.459   1.415   2.089 -0.6558 -0.0215 -1.0410
   64DG     H21 1470   2.536   1.292   2.193 -0.4448 -2.4244 -0.6180
   64DG     H22 1471   2.238   1.294   2.129 -0.0848 -0.1328  1.7717
   64DG     H23 1472   2.328   1.189   2.236 -0.9400 -1.1432 -0.5078
   65DG      C1 1473   0.473   2.386   3.511 -0.1395  1.0680 -0.2685
   65DG      C2 1474   0.909   2.346   3.279 -0.5661  0.9896 -0.6921
   65DG      H3 1475   0.543   2.348   3.585  0.4337  3.0099  0.2695
   65DG      H4 1476   0.376   2.390   3.559 -0.5715 -0.5225 -0.9710
   65DG      H5 1477   0.502   2.488   3.482  0.3513  1.1423  0.4749
   65DG      H6 1478   0.937   2.311   3.379  1.4393  1.0799 -1.1872
   65DG      H7 1479   0.955   2.288   3.199  0.7616  0.5383  0.3475
   65DG      H8 1480   0.956   2.444   3.273  2.9028 -0.1844  2.7196
   65DG      O9 1481   0.472   2.306   3.398 -0.4377  0.5606  1.2204
   65DG     O10 1482   0.768   2.356   3.268 -0.4246  0.0397  0.6487
   65DG     C11 1483   0.351   2.305   3.314 -0.0517  0.1889  0.3362
   65DG     C12 1484   0.735   2.405   3.140  0.3451 -0.0808 -0.2779
   65DG     H13 1485   0.307   2.405   3.316 -0.3531  0.0504  0.9307
   65DG     H14 1486   0.277   2.232   3.347  2.2786 -2.3133  0.4198
   65DG     H15 1487   0.782   2.345   3.061 -1.8077 -2.3472  0.0446
   65DG     H16 1488   0.758   2.512   3.134 -2.1276  0.4757 -1.1003
   65DG     C17 1489   0.387   2.271   3.174 -0.7548  0.5013  0.0466
   65DG     C18 1490   0.583   2.402   3.128  0.2041 -0.4786  0.2597
   65DG     O19 1491   0.532   2.273   3.152  1.1750  0.1537 -0.6430
   65DG     H20 1492   0.332   2.333   3.104  1.4497  0.2164 -2.0842
   65DG     H21 1493   0.351   2.168   3.168 -1.6812  0.8797 -1.4429
   65DG     H22 1494   0.543   2.478   3.196  1.4337 -1.0211  1.6257
   65DG     H23 1495   0.562   2.429   3.024  3.3160 -0.4359 -0.4593
   66DG      C1 1496   2.312   2.999   1.290  0.9103  0.3071 -0.6378
   66DG      C2 1497   2.764   3.359   1.492  0.3306  0.1804 -0.2936
   66DG      H3 1498   2.326   3.100   1.250 -0.5039  1.2582  1.1286
   66DG      H4 1499   2.209   2.968   1.304  1.1571  0.3640  1.7348
   66DG      H5 1500   2.371   2.938   1.222  1.4936 -0.1314  0.2509
   66DG      H6 1501   2.855   3.401   1.534  0.0891 -0.9274  1.4419
   66DG      H7 1502   2.784   3.325   1.391 -3.0184  2.8656 -2.0987
   66DG      H8 1503   2.681   3.430   1.489 -0.3954 -0.6176  0.2264
   66DG      O9 1504   2.372   3.004   1.416  0.0699 -0.1056 -0.0489
   66DG     O10 1505   2.752   3.243   1.571  0.1359  0.0259  0.0860
   66DG     C11 1506   2.288   3.048   1.531 -0.5494 -0.2768  0.2342
   66DG     C12 1507   2.682   3.269   1.691 -0.2734 -0.2823  0.4232
   66DG     H13 1508   2.190   3.000   1.542 -2.1254  2.2749 -1.4179
   66DG     H14 1509   2.262   3.151   1.507 -0.3838 -0.4091 -0.5615
   66DG     H15 1510   2.614   3.355   1.686 -0.7525 -0.6756  0.0391
   66DG     H16 1511   2.758   3.282   1.768  2.1456  0.1946 -1.8968
   66DG     C17 1512   2.387   3.052   1.646  0.2149  0.4193 -0.1968
   66DG     C18 1513   2.588   3.149   1.721  0.2493 -0.3040  0.1755
   66DG     O19 1514   2.478   3.155   1.628 -0.0429 -0.7534  0.3502
   66DG     H20 1515   2.425   2.950   1.642 -1.3083 -0.1343 -2.0192
   66DG     H21 1516   2.342   3.069   1.744 -2.4098 -1.3321 -0.9803
   66DG     H22 1517   2.639   3.053   1.720  1.4385  0.2600  2.1003
   66DG     H23 1518   2.557   3.165   1.824 -0.5630  3.0780 -0.4610
   67DG      C1 1519   2.573   3.787   0.831  0.1053  0.2515  0.1047
   67DG      C2 1520   2.912   3.790   0.300 -0.6456 -0.5313 -0.1847
   67DG      H3 1521   2.532   3.736   0.918 -0.9801  0.1478 -0.4629
   67DG      H4 1522   2.524   3.743   0.744 -1.2702  2.4665 -0.3294
   67DG      H5 1523   2.528   3.886   0.822  0.3991  0.2503 -1.7427
   67DG      H6 1524   2.817   3.836   0.273 -0.5229 -0.5851 -0.7370
   67DG      H7 1525   2.975   3.835   0.223 -3.2265  0.6299 -1.7579
   67DG      H8 1526   2.901   3.682   0.285  0.6669 -0.6102 -0.7678
   67DG      O9 1527   2.714   3.798   0.821  0.3475 -0.0626 -0.1955
   67DG     O10 1528   2.950   3.820   0.431 -0.3185 -0.6199  0.3595
   67DG     C11 1529   2.761   3.922   0.870 -0.0113  0.2411  0.2413
   67DG     C12 1530   2.997   3.951   0.459  0.3676 -0.9554 -0.4058
   67DG     H13 1531   2.748   3.930   0.978  3.1635 -1.6799  0.9017
   67DG     H14 1532   2.710   4.012   0.835 -1.3314 -0.4534  0.2926
   67DG     H15 1533   2.920   4.019   0.421 -0.9521 -1.7224  0.8031
   67DG     H16 1534   3.091   3.966   0.406  1.4627  0.3707  1.7732
   67DG     C17 1535   2.903   3.937   0.820 -0.1639 -0.1952  0.3521
   67DG     C18 1536   3.019   3.968   0.612  0.5036 -0.7727 -0.3349
   67DG     O19 1537   2.894   3.934   0.675  0.1071 -0.5431  1.0003
   67DG     H20 1538   2.963   3.855   0.859 -0.4701 -0.0733  1.0966
   67DG     H21 1539   2.943   4.035   0.847  2.2173 -0.5850 -1.4315
   67DG     H22 1540   3.095   3.903   0.654 -1.0747 -0.4789  3.3406
   67DG     H23 1541   3.038   4.073   0.636 -0.5341 -0.4301 -0.9387
   68DG      C1 1542   1.838   5.467   3.196 -0.5536  0.4847  0.2989
   68DG      C2 1543   1.520   5.199   3.789 -0.2179 -0.1566  0.2507
   68DG      H3 1544   1.927   5.501   3.144  1.5391 -2.5910  1.6272
   68DG      H4 1545   1.757   5.528   3.155  0.0724  0.4968 -0.9756
   68DG      H5 1546   1.817   5.363   3.172 -0.0826  0.1459  1.3274
   68DG      H6 1547   1.450   5.148   3.723 -1.4898  1.3811  0.3670
   68DG      H7 1548   1.560   5.125   3.860  0.7448 -0.0593 -0.1735
   68DG      H8 1549   1.466   5.267   3.854  0.4604  0.4900  0.1482
   68DG      O9 1550   1.834   5.456   3.332  0.1266 -0.2647 -0.2998
   68DG     O10 1551   1.622   5.259   3.711 -0.5001 -0.2345  0.1353
   68DG     C11 1552   1.832   5.581   3.400  0.2506  0.1843  0.1764
   68DG     C12 1553   1.685   5.356   3.790 -0.0081 -0.7730  0.4791
   68DG     H13 1554   1.734   5.629   3.389 -0.2838 -0.9694 -0.3295
   68DG     H14 1555   1.915   5.642   3.366 -1.0696  1.9738  0.0462
   68DG     H15 1556   1.710   5.327   3.892  5.4869  0.5641 -0.1865
   68DG     H16 1557   1.615   5.438   3.807 -0.3231 -0.5554 -1.5992
   68DG     C17 1558   1.860   5.550   3.544 -0.0380 -0.3951  0.0323
   68DG     C18 1559   1.807   5.419   3.725  0.1247 -0.2314 -0.0445
   68DG     O19 1560   1.766   5.457   3.589 -0.2058 -0.2675  0.4112
   68DG     H20 1561   1.861   5.637   3.610 -2.0888  0.6044 -1.1727
   68DG     H21 1562   1.958   5.503   3.543 -0.4789 -1.3282 -1.2319
   68DG     H22 1563   1.834   5.501   3.791  0.8546  0.4617 -1.1608
   68DG     H23 1564   1.890   5.348   3.716  0.3615  0.1032 -0.5217
   69DG      C1 1565   2.253   0.664   4.198  0.6097  0.5592  0.1593
   69DG      C2 1566   2.482   0.164   4.620 -0.0334  0.0224  0.4694
   69DG      H3 1567   2.160   0.622   4.160  1.6007 -0.3641 -1.3270
   69DG      H4 1568   2.326   0.635   4.122  0.5202 -0.7591  0.5606
   69DG      H5 1569   2.241   0.773   4.193 -1.1758  0.4264  0.8060
   69DG      H6 1570   2.568   0.143   4.557 -0.0206 -0.3212  0.6002
   69DG      H7 1571   2.500   0.131   4.722 -0.8091  0.4136  0.7436
   69DG      H8 1572   2.396   0.112   4.576  0.3093  0.1824 -0.4169
   69DG      O9 1573   2.282   0.618   4.333 -0.5235 -0.2699  0.5727
   69DG     O10 1574   2.463   0.310   4.620  0.4567  0.9379 -0.2010
   69DG     C11 1575   2.184   0.661   4.430 -0.5783  0.5324  0.7369
   69DG     C12 1576   2.352   0.352   4.715  0.5606 -0.6124  0.7744
   69DG     H13 1577   2.081   0.649   4.396 -1.0824  0.9418  2.0518
   69DG     H14 1578   2.192   0.765   4.460  1.4560  0.4054  0.7580
   69DG     H15 1579   2.371   0.312   4.815 -1.5536 -4.2204 -0.0717
   69DG     H16 1580   2.257   0.304   4.692 -1.0838  1.6453  2.4360
   69DG     C17 1581   2.185   0.574   4.554 -0.5567  0.6511  0.0440
   69DG     C18 1582   2.333   0.503   4.721 -0.5342 -0.1790  0.1605
   69DG     O19 1583   2.316   0.566   4.602 -0.9707 -0.2587 -0.3765
   69DG     H20 1584   2.157   0.469   4.550 -2.6580  1.0866  1.7252
   69DG     H21 1585   2.120   0.613   4.632 -0.4694 -1.0201  0.9975
   69DG     H22 1586   2.251   0.531   4.788  0.5163  1.5034  0.7980
   69DG     H23 1587   2.428   0.541   4.759 -0.4756  1.3296 -1.3953
   70DG      C1 1588   0.099   2.532   4.990  0.0393 -0.4282 -0.3552
   70DG      C2 1589   0.220   3.172   4.726  0.8329 -0.7118  0.7907
   70DG      H3 1590  -0.003   2.568   4.991 -0.2897 -1.3144 -1.0252
   70DG      H4 1591   0.115   2.479   5.084  0.5651 -0.0886 -0.2421
   70DG      H5 1592   0.105   2.459   4.910 -1.9743  0.4529 -1.3777
   70DG      H6 1593   0.289   3.254   4.703 -2.8397  2.7701  1.1854
   70DG      H7 1594   0.191   3.149   4.624 -1.2941  1.0390  0.9475
   70DG      H8 1595   0.139   3.224   4.776 -1.1684 -1.9943 -0.9737
   70DG      O9 1596   0.195   2.640   4.975 -0.3331  0.0364  0.1706
   70DG     O10 1597   0.292   3.070   4.798 -0.2265 -0.4192 -0.4116
   70DG     C11 1598   0.329   2.597   4.949 -0.3608 -0.0257 -0.2877
   70DG     C12 1599   0.397   3.018   4.721 -0.1482  0.3000  0.3720
   70DG     H13 1600   0.338   2.546   4.853 -1.5439  1.1030 -1.0381
   70DG     H14 1601   0.366   2.528   5.025  1.4943  1.5181  0.2755
   70DG     H15 1602   0.459   3.097   4.679 -1.6408  0.5797 -1.4276
   70DG     H16 1603   0.361   2.968   4.631 -2.3410  0.3566  1.1591
   70DG     C17 1604   0.426   2.713   4.935  0.4211 -0.4150  0.0741
   70DG     C18 1605   0.463   2.906   4.798  0.0706 -0.2955  0.2516
   70DG     O19 1606   0.367   2.819   4.858 -0.1415 -0.0400 -0.3136
   70DG     H20 1607   0.521   2.689   4.889  1.4201 -0.2652  1.9561
   70DG     H21 1608   0.452   2.761   5.029  0.6907  1.6459 -0.9937
   70DG     H22 1609   0.512   2.842   4.725 -0.5932 -1.0442  0.4481
   70DG     H23 1610   0.541   2.948   4.863  2.1782 -0.5651 -1.9643
   71DG      C1 1611   4.646   5.461   4.691 -0.2785 -0.5663  0.5502
   71DG      C2 1612   4.507   5.272   4.086  0.2347 -0.5047  0.1306
   71DG      H3 1613   4.689   5.477   4.790 -0.0692  1.8628  0.1224
   71DG      H4 1614   4.592   5.366   4.697 -0.0670 -0.7359 -0.1614
   71DG      H5 1615   4.570   5.537   4.673  0.2975 -0.1688 -0.2370
   71DG      H6 1616   4.490   5.376   4.058  0.7776 -0.6674 -0.8376
   71DG      H7 1617   4.554   5.216   4.005 -1.2107  1.5430 -2.2995
   71DG      H8 1618   4.417   5.215   4.109  0.1764 -0.2601  0.5118
   71DG      O9 1619   4.732   5.456   4.576  0.2222  0.1176  0.0162
   71DG     O10 1620   4.584   5.262   4.200 -0.1517  0.3154  0.6659
   71DG     C11 1621   4.833   5.364   4.588 -0.7343 -0.6457 -0.7407
   71DG     C12 1622   4.608   5.127   4.239 -0.0663  0.5489  0.9219
   71DG     H13 1623   4.890   5.360   4.681 -0.4278 -0.7037 -0.9270
   71DG     H14 1624   4.898   5.394   4.506 -0.5765 -0.3187 -0.4957
   71DG     H15 1625   4.665   5.083   4.157  1.9776  0.6174  2.2201
   71DG     H16 1626   4.515   5.071   4.233  0.7870 -0.7713 -3.3366
   71DG     C17 1627   4.787   5.225   4.547 -0.4737  0.7124 -0.2906
   71DG     C18 1628   4.682   5.112   4.372  0.1016 -0.3812 -0.0606
   71DG     O19 1629   4.724   5.239   4.423 -0.1061  0.0182  0.4018
   71DG     H20 1630   4.721   5.180   4.622  2.6486 -1.6239  1.3099
   71DG     H21 1631   4.874   5.161   4.533 -0.4134  0.3575  1.4604
   71DG     H22 1632   4.613   5.053   4.432 -0.8370  0.4264 -0.3001
   71DG     H23 1633   4.770   5.050   4.362  1.2596  1.1501  0.2169
   72DG      C1 1634   3.536   0.156   5.294  0.4705 -0.0726  0.1851
   72DG      C2 1635   3.844   0.105   4.710  0.2622  0.2034  0.1861
   72DG      H3 1636   3.518   0.054   5.260 -0.4234  0.1659 -0.0773
   72DG      H4 1637   3.445   0.196   5.340  0.1025  1.4015 -1.7328
   72DG      H5 1638   3.605   0.141   5.378  0.0994  0.4052  0.5799
   72DG      H6 1639   3.755   0.043   4.702 -0.1884  0.3095  3.4081
   72DG      H7 1640   3.875   0.141   4.611  1.1075 -2.3806 -0.5742
   72DG      H8 1641   3.916   0.027   4.737 -0.9422 -1.2739 -0.6956
   72DG      O9 1642   3.587   0.243   5.197 -0.3105 -0.2350 -0.2102
   72DG     O10 1643   3.829   0.213   4.800 -0.3391 -0.1244 -0.2197
   72DG     C11 1644   3.493   0.337   5.145  0.5300  0.1778 -0.8497
   72DG     C12 1645   3.751   0.311   4.745  0.4402  0.3685 -1.1755
   72DG     H13 1646   3.457   0.404   5.223  2.9235 -1.5453  1.9660
   72DG     H14 1647   3.411   0.289   5.092  2.4000 -1.3844 -2.5030
   72DG     H15 1648   3.657   0.276   4.701  0.2689  1.2501 -1.5363
   72DG     H16 1649   3.794   0.361   4.658  1.4339 -0.2931 -1.0720
   72DG     C17 1650   3.568   0.427   5.049 -0.0556  0.0988 -0.6247
   72DG     C18 1651   3.714   0.409   4.857 -0.1291 -0.7597  0.1685
   72DG     O19 1652   3.632   0.338   4.953  0.0752  0.0202  0.2339
   72DG     H20 1653   3.638   0.484   5.109 -1.7291  1.6986 -0.0970
   72DG     H21 1654   3.496   0.494   5.003 -1.6672 -0.6298  0.6839
   72DG     H22 1655   3.801   0.440   4.915 -1.1269  0.6878  0.9582
   72DG     H23 1656   3.658   0.491   4.811  2.3545  2.1221  1.8762
   73DG      C1 1657   3.395   0.701   4.069 -0.8139 -0.8494 -0.6574
   73DG      C2 1658   3.308   1.371   3.724  0.5341  0.9349 -0.7357
   73DG      H3 1659   3.352   0.601   4.071 -3.2711  0.1189 -1.4839
   73DG      H4 1660   3.386   0.729   4.174 -6.1294 -0.5361 -0.9538
   73DG      H5 1661   3.499   0.701   4.035 -1.2227  0.9201 -2.0851
   73DG      H6 1662   3.350   1.431   3.805  1.0666  1.6332 -1.5128
   73DG      H7 1663   3.388   1.336   3.658 -0.1405 -0.2398 -0.9587
   73DG      H8 1664   3.249   1.432   3.656  1.9279 -1.4300 -4.3507
   73DG      O9 1665   3.305   0.795   4.011  0.1529 -0.2682  0.2553
   73DG     O10 1666   3.233   1.251   3.773  0.1777 -0.3295  0.3746
   73DG     C11 1667   3.264   0.752   3.880 -0.7449  0.2654 -0.2185
   73DG     C12 1668   3.184   1.169   3.668 -0.2203  0.3711 -0.5517
   73DG     H13 1669   3.239   0.649   3.855 -0.5849  0.0912  0.3169
   73DG     H14 1670   3.355   0.767   3.822  1.0712 -1.8605  1.8551
   73DG     H15 1671   3.266   1.141   3.601  0.4314  1.2538 -0.1452
   73DG     H16 1672   3.125   1.218   3.590 -2.3518  0.2831  0.9204
   73DG     C17 1673   3.158   0.840   3.821  0.4414  0.1922  0.2242
   73DG     C18 1674   3.105   1.054   3.726  0.9471  0.6693  0.1010
   73DG     O19 1675   3.197   0.973   3.804  0.1913 -0.1087  0.2345
   73DG     H20 1676   3.072   0.833   3.886  1.2651  1.9110  1.5734
   73DG     H21 1677   3.137   0.802   3.720  1.1397  0.4163 -0.0120
   73DG     H22 1678   3.014   1.089   3.775  0.4274  1.1046 -1.1320
   73DG     H23 1679   3.063   0.992   3.646 -0.3960  1.1622  0.3894
   74DG      C1 1680   5.112   4.396   3.242  0.2835 -0.4333 -0.2655
   74DG      C2 1681   5.152   3.974   2.760  0.1760  0.1771  0.2879
   74DG      H3 1682   5.044   4.440   3.316  2.3235  0.2710  1.2798
   74DG      H4 1683   5.108   4.459   3.153  1.7963  0.8810  0.5573
   74DG      H5 1684   5.211   4.418   3.282 -0.7032  0.4863  1.8447
   74DG      H6 1685   5.141   3.872   2.722  4.1764 -0.9147  1.5306
   74DG      H7 1686   5.086   4.023   2.689  1.2939  0.5911 -0.5019
   74DG      H8 1687   5.255   3.997   2.729  0.2737 -0.4101  0.1526
   74DG      O9 1688   5.099   4.258   3.210  0.3284  0.1930 -0.3609
   74DG     O10 1689   5.134   4.006   2.897  0.1010  0.0194  1.0774
   74DG     C11 1690   5.158   4.176   3.311 -1.2636 -0.3329  0.0449
   74DG     C12 1691   5.219   3.912   2.963 -0.2119 -0.4573 -0.7230
   74DG     H13 1692   5.124   4.207   3.410  2.0682  2.1521  0.6062
   74DG     H14 1693   5.266   4.192   3.304 -1.1068 -0.8530  1.0837
   74DG     H15 1694   5.320   3.905   2.923  0.0954  1.3065 -0.3223
   74DG     H16 1695   5.168   3.816   2.971  1.2867 -1.1740  0.5777
   74DG     C17 1696   5.120   4.028   3.303  0.2151 -0.6264  0.3919
   74DG     C18 1697   5.242   3.964   3.109 -0.0282  0.1125 -0.1963
   74DG     O19 1698   5.116   3.999   3.164 -0.0821  0.8406 -0.0724
   74DG     H20 1699   5.017   4.017   3.336  1.1617 -3.7199  2.7849
   74DG     H21 1700   5.186   3.965   3.363 -0.3507 -0.7712  0.8739
   74DG     H22 1701   5.296   3.888   3.164  2.0040  1.9645  0.4922
   74DG     H23 1702   5.320   4.039   3.111  0.8433 -0.7779  0.0968
   75DG      C1 1703   1.558   0.568   0.947  0.4063  0.0037  0.9634
   75DG      C2 1704   1.667   1.157   1.305 -0.0709 -0.2988  0.3385
   75DG      H3 1705   1.516   0.617   0.859  3.1662  2.2776  0.7509
   75DG      H4 1706   1.480   0.560   1.022 -0.3072 -1.7005  0.0955
   75DG      H5 1707   1.573   0.461   0.932  0.4504  0.1134  0.1931
   75DG      H6 1708   1.569   1.168   1.259  0.5688 -0.7792 -1.2114
   75DG      H7 1709   1.663   1.155   1.414  0.8749 -1.4520  0.3801
   75DG      H8 1710   1.712   1.252   1.277 -2.6089  0.7136 -0.6233
   75DG      O9 1711   1.671   0.636   1.001  0.1348 -0.1715 -1.3885
   75DG     O10 1712   1.724   1.025   1.263  0.0611 -0.7218  0.5716
   75DG     C11 1713   1.735   0.569   1.107 -0.1470 -0.1677 -0.6773
   75DG     C12 1714   1.850   0.993   1.323 -0.4748  0.6525  0.1323
   75DG     H13 1715   1.779   0.471   1.086  0.2956 -0.5995  1.9599
   75DG     H14 1716   1.668   0.547   1.189  0.3289 -2.2750 -0.8081
   75DG     H15 1717   1.825   0.968   1.426  0.9786 -1.7649 -0.0409
   75DG     H16 1718   1.927   1.070   1.317  0.1991 -0.1134 -1.6779
   75DG     C17 1719   1.862   0.657   1.153  0.5218  0.5308 -0.0039
   75DG     C18 1720   1.910   0.879   1.244  0.0909  0.3001  0.0829
   75DG     O19 1721   1.810   0.782   1.206 -0.3433  0.2681  0.1568
   75DG     H20 1722   1.925   0.694   1.072  0.9567  1.8912  0.9283
   75DG     H21 1723   1.923   0.601   1.224 -1.6114 -0.9668  0.7529
   75DG     H22 1724   1.956   0.925   1.156 -2.0828  0.7572 -0.8777
   75DG     H23 1725   1.990   0.828   1.297  0.3955 -0.8241 -1.3851
   76DG      C1 1726   1.887   1.985   4.867 -0.2830  0.1817 -0.0906
   76DG      C2 1727   2.152   2.310   5.385 -0.6006  0.3855 -0.6577
   76DG      H3 1728   1.834   2.018   4.777 -0.5399 -0.7936 -0.3079
   76DG      H4 1729   1.982   2.037   4.859  0.9440 -1.7845  1.0434
   76DG      H5 1730   1.837   2.027   4.955  0.9644  2.2197 -0.3013
   76DG      H6 1731   2.150   2.367   5.292  0.5764  1.8324  0.1511
   76DG      H7 1732   2.059   2.315   5.443  0.5218 -0.6358  1.3453
   76DG      H8 1733   2.233   2.341   5.451 -0.3800 -0.0776 -0.7106
   76DG      O9 1734   1.901   1.843   4.858  0.6053  0.6085 -0.3173
   76DG     O10 1735   2.191   2.178   5.342 -0.6814 -0.2318  0.1793
   76DG     C11 1736   1.902   1.776   4.985 -0.0854  0.2949 -0.0539
   76DG     C12 1737   2.091   2.124   5.248 -0.1157  0.4319  0.0533
   76DG     H13 1738   1.900   1.667   4.979  1.5317  0.1446  1.4257
   76DG     H14 1739   1.819   1.815   5.044 -1.3642 -1.7474 -0.4032
   76DG     H15 1740   2.105   2.175   5.153  0.4643 -1.2996 -0.8425
   76DG     H16 1741   1.996   2.151   5.293  0.8412  1.8423  1.3271
   76DG     C17 1742   2.031   1.801   5.070  0.4146 -0.1181 -0.4121
   76DG     C18 1743   2.114   1.969   5.228  0.0375 -0.1458  0.0618
   76DG     O19 1744   2.012   1.933   5.136 -0.3532  0.3050 -0.7448
   76DG     H20 1745   2.120   1.795   5.008 -1.2120  1.7430 -3.1439
   76DG     H21 1746   2.035   1.722   5.145 -2.7598 -1.3001 -1.3092
   76DG     H22 1747   2.210   1.940   5.186  0.2535  0.6613 -0.0223
   76DG     H23 1748   2.104   1.931   5.330 -0.9370 -0.1003 -0.0058
   77DG      C1 1749   1.116   1.725   4.584 -0.8373 -0.8752  0.0668
   77DG      C2 1750   0.621   2.320   5.021  0.0983 -1.2019 -0.1031
   77DG      H3 1751   1.174   1.795   4.524  0.2823  0.7620  2.8655
   77DG      H4 1752   1.103   1.635   4.523 -0.4674  1.0437 -3.0687
   77DG      H5 1753   1.153   1.716   4.686 -1.6075  1.0388  0.5569
   77DG      H6 1754   0.548   2.372   4.959  0.0189  0.4446  1.2760
   77DG      H7 1755   0.566   2.276   5.103 -2.5695 -0.4041 -1.3529
   77DG      H8 1756   0.699   2.394   5.040 -1.7852  0.9800 -0.4479
   77DG      O9 1757   0.989   1.785   4.589  0.0344 -0.9960  0.1737
   77DG     O10 1758   0.683   2.216   4.947 -0.1923 -0.1616 -0.0404
   77DG     C11 1759   0.982   1.919   4.639  0.3629  0.8627 -0.6638
   77DG     C12 1760   0.784   2.151   5.022 -0.3111  0.8657  0.1108
   77DG     H13 1761   0.917   1.976   4.573 -0.5326 -0.0737 -0.6151
   77DG     H14 1762   1.079   1.968   4.645  0.3159  0.9626 -0.7280
   77DG     H15 1763   0.747   2.129   5.122 -2.6911  2.4249 -0.3442
   77DG     H16 1764   0.878   2.204   5.037  1.2571 -1.6921 -0.1016
   77DG     C17 1765   0.907   1.911   4.777 -0.3551  0.5022 -0.2094
   77DG     C18 1766   0.817   2.013   4.964  0.1361 -0.1390 -0.2400
   77DG     O19 1767   0.874   2.033   4.835 -0.3918 -0.4729  0.5753
   77DG     H20 1768   0.965   1.852   4.848 -2.1600  0.2114  1.0963
   77DG     H21 1769   0.821   1.847   4.755  1.2050 -1.3838 -1.1541
   77DG     H22 1770   0.886   1.954   5.024 -0.4580 -0.0517  0.5469
   77DG     H23 1771   0.734   1.942   4.953  0.3720 -0.1989 -1.8946
   78DG      C1 1772   0.523   3.978   4.386  0.5125 -0.2817  0.4558
   78DG      C2 1773  -0.189   4.225   4.406  0.2720  0.3353  0.5236
   78DG      H3 1774   0.427   3.926   4.384  0.0884  0.4852 -0.9468
   78DG      H4 1775   0.600   3.935   4.450  2.1282 -0.3173 -1.3908
   78DG      H5 1776   0.557   3.969   4.283 -2.4906  1.4732 -0.8230
   78DG      H6 1777  -0.149   4.322   4.379 -0.6012  0.8501  1.0140
   78DG      H7 1778  -0.200   4.159   4.320  0.5183 -0.4360  1.0654
   78DG      H8 1779  -0.285   4.244   4.453  0.1522  2.2939 -0.4497
   78DG      O9 1780   0.514   4.115   4.430  0.2078  0.8229  0.4270
   78DG     O10 1781  -0.092   4.171   4.495  0.4513 -0.4607 -0.4832
   78DG     C11 1782   0.496   4.140   4.560 -0.2803 -0.7708 -0.3223
   78DG     C12 1783   0.033   4.133   4.432  1.1722 -0.6592  1.2285
   78DG     H13 1784   0.510   4.247   4.574  3.6406 -1.3346  1.3725
   78DG     H14 1785   0.578   4.100   4.621 -0.9428 -3.6169 -1.1246
   78DG     H15 1786   0.076   4.216   4.376 -0.2016 -1.0807 -0.5132
   78DG     H16 1787   0.006   4.064   4.352  0.9040 -0.2413  0.9590
   78DG     C17 1788   0.353   4.100   4.609 -0.1941  0.1900 -0.2946
   78DG     C18 1789   0.129   4.079   4.534  0.6519  0.4713  0.6631
   78DG     O19 1790   0.259   4.132   4.510  0.7578  0.4965  0.1739
   78DG     H20 1791   0.336   4.163   4.697 -0.2023  0.0432 -0.1905
   78DG     H21 1792   0.338   3.994   4.632  1.1353 -0.0200 -0.3326
   78DG     H22 1793   0.085   4.111   4.629 -2.1149  1.2380 -0.7499
   78DG     H23 1794   0.128   3.971   4.548  1.6024  0.6705  2.4653
   79DG      C1 1795   2.714   0.290   3.681 -0.5670  0.4723 -0.1768
   79DG      C2 1796   2.979  -0.098   3.210 -0.7405 -0.2630  0.5331
   79DG      H3 1797   2.644   0.255   3.605 -0.4041  0.6819 -0.4274
   79DG      H4 1798   2.765   0.380   3.648  0.9141  0.1195  1.0382
   79DG      H5 1799   2.673   0.312   3.780 -0.6551  0.4530 -0.2085
   79DG      H6 1800   2.898  -0.168   3.189  0.4416 -0.9308 -2.1705
   79DG      H7 1801   2.962  -0.005   3.155 -0.3929 -0.6288 -0.2077
   79DG      H8 1802   3.069  -0.147   3.174  0.3456  0.5284  2.0652
   79DG      O9 1803   2.827   0.197   3.701  0.1170  0.0705  0.3667
   79DG     O10 1804   3.001  -0.072   3.344  0.3960 -0.5338  0.2362
   79DG     C11 1805   2.786   0.073   3.762  0.2585 -0.0335  0.1902
   79DG     C12 1806   3.009  -0.189   3.428 -0.0161 -0.2597  0.3019
   79DG     H13 1807   2.697   0.029   3.717  2.0601 -0.6526 -3.0631
   79DG     H14 1808   2.769   0.085   3.869 -0.3228  0.4064  0.0576
   79DG     H15 1809   3.088  -0.256   3.393  0.4961  1.0826 -1.2595
   79DG     H16 1810   2.910  -0.233   3.419 -1.3009  2.3840  0.3627
   79DG     C17 1811   2.890  -0.039   3.734 -0.0120  0.7414  0.2524
   79DG     C18 1812   3.026  -0.145   3.573 -0.0772 -0.0818 -0.1131
   79DG     O19 1813   2.923  -0.048   3.599  0.6111 -0.4903 -0.5886
   79DG     H20 1814   2.840  -0.134   3.755  3.3258 -1.5742 -1.3657
   79DG     H21 1815   2.979  -0.023   3.794  0.7703  0.7957 -0.8943
   79DG     H22 1816   3.000  -0.229   3.638  3.0024  0.9993  2.8609
   79DG     H23 1817   3.126  -0.101   3.576  0.7405 -1.8757  0.3584
   80DG      C1 1818   1.490   4.626   5.378  0.3085  0.3308  0.8159
   80DG      C2 1819   1.650   4.181   5.797  0.4854  0.0005 -0.1568
   80DG      H3 1820   1.389   4.663   5.393 -0.5214 -1.2872 -0.4494
   80DG      H4 1821   1.513   4.624   5.271 -1.5975 -1.5299  0.3576
   80DG      H5 1822   1.563   4.676   5.442  1.0198  0.4162 -0.0437
   80DG      H6 1823   1.677   4.083   5.837  0.2032  0.2097  0.5476
   80DG      H7 1824   1.738   4.241   5.817 -0.1791  0.7702  0.5391
   80DG      H8 1825   1.564   4.227   5.845  0.6007 -0.1027  0.1465
   80DG      O9 1826   1.487   4.489   5.423 -0.4452 -0.1938 -0.5389
   80DG     O10 1827   1.631   4.171   5.658 -0.0235 -0.4478  0.0462
   80DG     C11 1828   1.408   4.404   5.343 -0.3169 -0.3549 -0.2727
   80DG     C12 1829   1.525   4.078   5.622  0.6002 -0.4365  0.0285
   80DG     H13 1830   1.453   4.396   5.244  0.0665 -1.1597 -0.0368
   80DG     H14 1831   1.313   4.457   5.328  0.0342  1.0630  2.1147
   80DG     H15 1832   1.435   4.102   5.679  1.2170 -0.6751  1.1332
   80DG     H16 1833   1.545   3.985   5.676  1.3833  0.3661  1.1823
   80DG     C17 1834   1.392   4.260   5.396  0.0444  0.3435 -0.1634
   80DG     C18 1835   1.506   4.067   5.470 -0.2799 -0.0815  0.0398
   80DG     O19 1836   1.516   4.194   5.403  0.3337  0.3540  0.4917
   80DG     H20 1837   1.322   4.204   5.335  2.3163 -1.4748 -1.2608
   80DG     H21 1838   1.344   4.251   5.494 -4.1757 -2.7237 -2.1975
   80DG     H22 1839   1.592   4.018   5.425 -0.2790 -0.1436  0.1095
   80DG     H23 1840   1.425   4.003   5.437 -1.2491  1.2722 -0.2612
   81DG      C1 1841   4.686   5.478   1.042  0.2118 -0.4544  0.2407
   81DG      C2 1842   4.004   5.627   1.437  0.2837 -0.7244  0.3071
   81DG      H3 1843   4.793   5.488   1.061  0.1556  0.5299  0.0834
   81DG      H4 1844   4.661   5.477   0.936 -2.7984  1.1304  0.8250
   81DG      H5 1845   4.657   5.386   1.092  0.5539  0.1565  1.5917
   81DG      H6 1846   3.937   5.547   1.467 -0.7416  0.1362  0.3692
   81DG      H7 1847   4.004   5.701   1.517 -1.0457 -0.5733  0.1847
   81DG      H8 1848   3.963   5.670   1.345 -0.6883 -1.5444  0.3492
   81DG      O9 1849   4.598   5.579   1.100  0.6301 -0.0391  0.0841
   81DG     O10 1850   4.137   5.579   1.408 -0.3002 -0.1096 -0.1800
   81DG     C11 1851   4.593   5.591   1.241  0.2263  0.9161 -0.2179
   81DG     C12 1852   4.138   5.459   1.334 -0.3855 -0.0982  0.0591
   81DG     H13 1853   4.556   5.687   1.276  0.4893  1.0800 -0.3895
   81DG     H14 1854   4.697   5.580   1.273  0.4318  0.7172 -0.9426
   81DG     H15 1855   4.108   5.488   1.233 -2.0218  0.7500  0.7667
   81DG     H16 1856   4.071   5.382   1.370  0.5384 -0.5172  0.9381
   81DG     C17 1857   4.508   5.478   1.314 -0.4125 -0.5173  0.3907
   81DG     C18 1858   4.280   5.398   1.339 -0.6121  0.0788 -0.3181
   81DG     O19 1859   4.369   5.508   1.299 -0.1988  0.0126 -0.0861
   81DG     H20 1860   4.521   5.493   1.421  2.4722  0.6007 -0.0192
   81DG     H21 1861   4.527   5.375   1.282 -1.3423 -0.6805  0.3323
   81DG     H22 1862   4.301   5.375   1.443  0.5373  1.2728 -0.2567
   81DG     H23 1863   4.281   5.320   1.263 -0.1571  0.3937 -0.6406
   82DG      C1 1864   1.862   3.033   3.418 -0.3710  0.5573  0.2508
   82DG      C2 1865   2.426   2.528   3.586  0.0613 -0.1787  0.7904
   82DG      H3 1866   1.779   2.995   3.478  0.1596 -1.1579 -0.0416
   82DG      H4 1867   1.824   3.074   3.325  1.7802 -1.8725 -1.8711
   82DG      H5 1868   1.914   3.110   3.474 -0.0282 -0.0243  0.7463
   82DG      H6 1869   2.475   2.457   3.520  0.0269 -1.0126  1.6449
   82DG      H7 1870   2.475   2.625   3.574 -3.6570  1.6531 -1.6692
   82DG      H8 1871   2.429   2.497   3.690  0.5979  0.9743  1.1264
   82DG      O9 1872   1.970   2.945   3.394  0.5445  0.2647  0.1224
   82DG     O10 1873   2.295   2.545   3.532 -0.3260 -0.4385  0.0385
   82DG     C11 1874   1.937   2.816   3.340 -0.8214  0.2036  0.3613
   82DG     C12 1875   2.217   2.623   3.619 -0.7226 -0.0360 -0.0573
   82DG     H13 1876   1.874   2.826   3.252 -1.0705 -0.2853  0.4834
   82DG     H14 1877   1.878   2.777   3.423  2.3344 -0.6228  2.4313
   82DG     H15 1878   2.255   2.711   3.671 -2.3497  0.1553  0.9015
   82DG     H16 1879   2.179   2.554   3.694 -1.0016  0.4266  0.2382
   82DG     C17 1880   2.061   2.731   3.313 -0.8388  0.3876 -0.1427
   82DG     C18 1881   2.100   2.662   3.539 -0.3005 -0.6931  0.5307
   82DG     O19 1882   2.145   2.731   3.430 -0.3571 -0.1690  0.7055
   82DG     H20 1883   2.114   2.775   3.229 -0.0217  1.1219  0.7323
   82DG     H21 1884   2.039   2.628   3.284  1.8481  0.3645 -2.5816
   82DG     H22 1885   2.038   2.576   3.514  0.0815 -1.2641  1.5029
   82DG     H23 1886   2.023   2.720   3.591 -1.7727 -0.9284 -1.2668
   83DG      C1 1887   1.960   2.665   1.706 -0.1276  0.3940 -0.1486
   83DG      C2 1888   1.532   3.106   2.311 -0.1189 -0.6524  0.0606
   83DG      H3 1889   2.036   2.590   1.727  1.2225  1.8071  0.3074
   83DG      H4 1890   2.013   2.760   1.692  1.1101 -0.3296 -0.5154
   83DG      H5 1891   1.908   2.649   1.612  1.6650 -1.1324 -0.9403
   83DG      H6 1892   1.477   3.142   2.398  0.4818 -1.1216  0.6412
   83DG      H7 1893   1.566   3.180   2.239  2.4161  0.7360  2.4738
   83DG      H8 1894   1.469   3.041   2.250  0.1143  0.6670 -1.6617
   83DG      O9 1895   1.861   2.662   1.805  0.1338  0.6812  0.2390
   83DG     O10 1896   1.636   3.028   2.363  0.1429 -0.1506  1.0236
   83DG     C11 1897   1.903   2.714   1.932 -0.1410 -0.2743  0.1601
   83DG     C12 1898   1.727   2.993   2.267 -0.2178  0.6044  0.2956
   83DG     H13 1899   1.927   2.818   1.913  1.0092 -0.5516  0.0013
   83DG     H14 1900   1.989   2.667   1.979 -1.4700 -0.9312  2.0675
   83DG     H15 1901   1.812   2.971   2.331 -0.3556  0.2085  0.3421
   83DG     H16 1902   1.759   3.073   2.199  1.3272  0.8110  1.2290
   83DG     C17 1903   1.790   2.711   2.040  0.7108 -0.8023  0.2777
   83DG     C18 1904   1.690   2.864   2.194  0.1653 -0.8266 -0.9337
   83DG     O19 1905   1.800   2.839   2.104  0.2564 -0.3846  0.3579
   83DG     H20 1906   1.787   2.625   2.107  0.4466 -2.4693 -1.7626
   83DG     H21 1907   1.694   2.719   1.989  0.9467 -0.5646 -0.1340
   83DG     H22 1908   1.677   2.787   2.269  0.4617 -1.2472 -1.3136
   83DG     H23 1909   1.594   2.874   2.142  0.6361  1.1174 -1.5547
   84DG      C1 1910   3.374   2.828   4.012  0.0056  0.2187  0.7695
   84DG      C2 1911   3.990   2.627   4.133 -0.7942 -0.1922  0.6897
   84DG      H3 1912   3.394   2.828   3.905 -2.1246 -1.4925  0.3026
   84DG      H4 1913   3.272   2.866   4.021  0.1993  1.0366 -0.3187
   84DG      H5 1914   3.359   2.727   4.049 -1.0120  0.1923  0.3210
   84DG      H6 1915   4.087   2.670   4.107 -0.0422 -3.4845 -2.6543
   84DG      H7 1916   3.996   2.556   4.215 -3.3710 -0.7246  0.4969
   84DG      H8 1917   3.960   2.570   4.046 -0.0688 -0.1882  0.4333
   84DG      O9 1918   3.469   2.891   4.092 -0.1584 -0.0708  0.2199
   84DG     O10 1919   3.901   2.737   4.160  0.2304  0.1609  0.1483
   84DG     C11 1920   3.455   2.866   4.231 -0.3021 -0.3247 -0.0323
   84DG     C12 1921   3.925   2.798   4.288  0.0159  0.8483  0.1812
   84DG     H13 1922   3.451   2.758   4.244 -3.2880 -0.1954  0.7350
   84DG     H14 1923   3.360   2.908   4.262 -1.0033 -0.7364 -1.5637
   84DG     H15 1924   4.019   2.852   4.294  0.9611 -0.6165 -0.7446
   84DG     H16 1925   3.918   2.722   4.365  0.2853  0.8687  0.2259
   84DG     C17 1926   3.578   2.916   4.309  0.0455 -1.0523 -0.2753
   84DG     C18 1927   3.811   2.902   4.314  0.2248  0.7299 -0.1951
   84DG     O19 1928   3.693   2.859   4.245  0.3389 -0.2900  0.4685
   84DG     H20 1929   3.576   2.899   4.417 -2.3418  0.1738 -0.0760
   84DG     H21 1930   3.588   3.024   4.300 -1.7114 -0.8006  0.3837
   84DG     H22 1931   3.795   2.913   4.421  0.1570 -0.6444 -0.0378
   84DG     H23 1932   3.838   3.001   4.277  0.2290  1.2416  1.1392
   85DG      C1 1933   2.556   3.420   0.756  0.3008  0.4983  0.2324
   85DG      C2 1934   2.607   4.003   0.539  0.2252  0.4556  0.3128
   85DG      H3 1935   2.588   3.316   0.759 -3.0981 -0.6567  0.6640
   85DG      H4 1936   2.448   3.410   0.746  0.2943 -0.5873  1.2372
   85DG      H5 1937   2.580   3.468   0.851  3.3116 -0.1607 -0.0927
   85DG      H6 1938   2.513   4.047   0.572  0.1651 -0.2489  1.1133
   85DG      H7 1939   2.667   3.996   0.629 -1.3811 -3.2840  1.3174
   85DG      H8 1940   2.660   4.064   0.466  0.1064 -1.0461 -1.1167
   85DG      O9 1941   2.616   3.486   0.638 -0.2078  0.6440 -0.1602
   85DG     O10 1942   2.601   3.863   0.503  0.0992 -0.0570  0.2540
   85DG     C11 1943   2.576   3.425   0.511  0.7673 -0.0624 -0.4521
   85DG     C12 1944   2.538   3.836   0.378  0.1522  0.0376  0.3404
   85DG     H13 1945   2.467   3.428   0.509  0.6773 -0.6762  1.4925
   85DG     H14 1946   2.595   3.318   0.515  1.0188  0.0055  0.6008
   85DG     H15 1947   2.591   3.886   0.297 -3.2360  3.0833 -0.2590
   85DG     H16 1948   2.439   3.881   0.374  0.2766  0.3703  0.9007
   85DG     C17 1949   2.647   3.476   0.390 -0.2912 -0.4102 -0.9677
   85DG     C18 1950   2.527   3.687   0.361 -0.4556  0.1815 -0.2331
   85DG     O19 1951   2.646   3.620   0.399 -0.2391 -0.3102 -0.1316
   85DG     H20 1952   2.600   3.439   0.299 -2.0166 -1.5266  0.2963
   85DG     H21 1953   2.752   3.448   0.388 -0.7603 -2.5577  0.3523
   85DG     H22 1954   2.442   3.651   0.418 -0.3633 -0.8216 -0.7198
   85DG     H23 1955   2.503   3.662   0.258  0.8630  0.3048 -0.6006
   86DG      C1 1956   1.828   5.013   3.678  0.0115  0.2873 -0.3652
   86DG      C2 1957   1.486   5.465   3.190 -0.1251  0.0805  0.5623
   86DG      H3 1958   1.745   4.997   3.747  0.0072 -3.8010 -1.0544
   86DG      H4 1959   1.886   5.101   3.707  3.2697 -1.8418  0.1080
   86DG      H5 1960   1.903   4.934   3.670 -1.0757 -0.8372  0.1324
   86DG      H6 1961   1.390   5.486   3.237  0.7641  0.3254  2.3781
   86DG      H7 1962   1.551   5.541   3.233 -1.5691  2.0575 -0.6305
   86DG      H8 1963   1.473   5.496   3.087 -1.0739  2.7323  1.4085
   86DG      O9 1964   1.770   5.046   3.544 -0.5833 -0.6011 -0.1460
   86DG     O10 1965   1.548   5.341   3.219 -0.0301 -0.0115 -0.2586
   86DG     C11 1966   1.680   4.949   3.495 -0.1601  0.2537 -0.0506
   86DG     C12 1967   1.487   5.228   3.151  0.7564 -0.5476  0.1752
   86DG     H13 1968   1.587   4.973   3.547  0.5633  0.8736  0.9700
   86DG     H14 1969   1.710   4.850   3.529  1.0220  0.5735 -0.1124
   86DG     H15 1970   1.481   5.231   3.042  0.2499  1.0351  0.2214
   86DG     H16 1971   1.388   5.230   3.197  0.4924  2.4204 -0.3612
   86DG     C17 1972   1.651   4.956   3.343  0.5835 -0.0524 -0.7346
   86DG     C18 1973   1.547   5.092   3.180  0.1844  0.5951 -0.0684
   86DG     O19 1974   1.587   5.085   3.317  0.5350  0.6497 -0.1837
   86DG     H20 1975   1.583   4.874   3.318  1.9181 -1.6985  0.7837
   86DG     H21 1976   1.743   4.936   3.288  0.6788  0.2592 -0.6914
   86DG     H22 1977   1.480   5.009   3.160 -0.5288  1.5358 -1.7893
   86DG     H23 1978   1.629   5.074   3.111  2.1863 -1.2921  2.5931
   87DG      C1 1979   4.262   0.109   2.886 -0.0744  0.3335  0.7988
   87DG      C2 1980   4.700  -0.390   3.131 -0.2789  0.3770  0.0770
   87DG      H3 1981   4.168   0.153   2.920 -0.6913 -1.2979  1.2660
   87DG      H4 1982   4.234   0.024   2.825  1.8700  0.4656 -0.3575
   87DG      H5 1983   4.311   0.189   2.829 -2.5245  2.5078  1.5458
   87DG      H6 1984   4.631  -0.453   3.187 -0.2770  0.0914 -0.2372
   87DG      H7 1985   4.696  -0.410   3.023  1.3796  1.3469 -0.1974
   87DG      H8 1986   4.801  -0.400   3.170 -0.7913  0.2434  1.4308
   87DG      O9 1987   4.359   0.058   2.975 -0.2781 -0.1400  0.1063
   87DG     O10 1988   4.671  -0.255   3.140 -0.5451  0.1411 -0.3125
   87DG     C11 1989   4.381   0.151   3.080 -0.1037  0.3328 -0.1434
   87DG     C12 1990   4.641  -0.209   3.268  0.4080  0.1080  0.4258
   87DG     H13 1991   4.296   0.149   3.148 -0.6735 -0.0941 -0.8558
   87DG     H14 1992   4.384   0.258   3.059 -2.3854  0.6728  0.8720
   87DG     H15 1993   4.718  -0.232   3.342  0.9081 -0.1863 -0.1802
   87DG     H16 1994   4.555  -0.260   3.310 -1.0851  0.4136 -2.0773
   87DG     C17 1995   4.509   0.106   3.153  0.0947 -0.2142 -0.0345
   87DG     C18 1996   4.615  -0.063   3.261  0.3960  0.5179  0.1188
   87DG     O19 1997   4.510  -0.029   3.170  0.2070 -0.6345 -0.2583
   87DG     H20 1998   4.523   0.148   3.252 -1.2638 -2.8015  1.3640
   87DG     H21 1999   4.583   0.135   3.078 -0.2293 -1.3471 -0.8280
   87DG     H22 2000   4.600  -0.016   3.358  0.1863 -1.3068  1.0131
   87DG     H23 2001   4.712  -0.021   3.233  0.7826 -0.2669  0.2647
   88DG      C1 2002   4.023   4.818   3.930 -0.1938  0.5947  0.1630
   88DG      C2 2003   4.062   4.717   4.496 -0.4912  0.7548  0.2849
   88DG      H3 2004   4.010   4.881   3.842  0.2476 -0.0703 -0.3916
   88DG      H4 2005   4.001   4.713   3.914 -0.6639  0.6305  0.5667
   88DG      H5 2006   4.126   4.828   3.965  0.3472 -2.4695 -0.2367
   88DG      H6 2007   4.021   4.763   4.586 -1.8768 -0.3993  0.2866
   88DG      H7 2008   4.094   4.613   4.510 -0.7385  0.8681  1.9381
   88DG      H8 2009   4.157   4.765   4.475  0.2870 -0.6819  0.3922
   88DG      O9 2010   3.940   4.877   4.028  0.6175  0.1509 -0.1574
   88DG     O10 2011   3.966   4.736   4.391  0.1787 -0.5938 -0.3096
   88DG     C11 2012   3.802   4.861   4.002  0.2138 -0.3316  0.1342
   88DG     C12 2013   3.839   4.674   4.426 -0.1112  0.2560 -0.2936
   88DG     H13 2014   3.790   4.840   3.895  1.6491 -0.7748  0.0366
   88DG     H14 2015   3.745   4.950   4.028  0.4076 -0.0957 -0.2250
   88DG     H15 2016   3.794   4.723   4.512 -0.7448  0.1534 -0.5603
   88DG     H16 2017   3.857   4.571   4.456  0.8952  0.3526 -0.4936
   88DG     C17 2018   3.751   4.744   4.083 -0.3821  0.7200 -0.7771
   88DG     C18 2019   3.737   4.670   4.312 -0.0561  0.2961  0.0540
   88DG     O19 2020   3.772   4.773   4.222  0.5449 -0.2606 -0.2173
   88DG     H20 2021   3.797   4.648   4.060 -1.8439  0.1284 -1.3645
   88DG     H21 2022   3.642   4.743   4.080 -0.4162 -0.2699  0.2376
   88DG     H22 2023   3.755   4.571   4.268  0.2869 -0.7736  2.4608
   88DG     H23 2024   3.632   4.681   4.339  0.2151 -1.3561  2.0569
   89DG      C1 2025   3.862   3.831   1.506  0.2888  0.0856 -0.2586
   89DG      C2 2026   4.242   4.363   1.312 -0.4100  0.4841  0.1768
   89DG      H3 2027   3.789   3.861   1.582  0.3282  2.5169 -1.0921
   89DG      H4 2028   3.959   3.807   1.549  1.0985  2.8454 -0.3377
   89DG      H5 2029   3.826   3.733   1.477 -0.2645 -0.0807  0.9076
   89DG      H6 2030   4.273   4.432   1.233 -0.5384 -0.5729 -0.8170
   89DG      H7 2031   4.219   4.423   1.401  0.9263  1.1144  0.1164
   89DG      H8 2032   4.325   4.297   1.335 -1.5860 -1.6766 -1.4200
   89DG      O9 2033   3.868   3.924   1.398 -0.0251  0.0993 -0.3697
   89DG     O10 2034   4.119   4.297   1.285 -0.0035 -0.6348 -0.3784
   89DG     C11 2035   3.749   3.981   1.358 -0.4927  0.3597 -0.1363
   89DG     C12 2036   4.001   4.374   1.250  0.3191 -0.9528 -0.2813
   89DG     H13 2037   3.694   4.034   1.436 -0.6722  1.6666 -1.0955
   89DG     H14 2038   3.689   3.899   1.318 -0.9467  1.0077 -0.8181
   89DG     H15 2039   4.009   4.465   1.190  0.8666 -0.8672 -0.0810
   89DG     H16 2040   3.960   4.410   1.344 -0.4204 -1.2518 -0.4885
   89DG     C17 2041   3.779   4.086   1.249 -0.4966  0.0868  0.0859
   89DG     C18 2042   3.900   4.280   1.190  0.9440  0.7408  0.2212
   89DG     O19 2043   3.886   4.177   1.284  0.7248  0.1314  0.5627
   89DG     H20 2044   3.687   4.141   1.232 -0.6184  0.5059  1.8544
   89DG     H21 2045   3.798   4.039   1.153  1.3388  1.2559 -0.1812
   89DG     H22 2046   3.802   4.325   1.180 -0.0920 -0.9923  1.8302
   89DG     H23 2047   3.921   4.235   1.092 -2.9054  0.6069 -0.6927
   90DG      C1 2048   2.333   4.162   3.833 -0.2840  0.0576  0.0019
   90DG      C2 2049   2.516   3.931   4.203 -0.1049 -0.2826 -0.8014
   90DG      H3 2050   2.409   4.111   3.891 -1.7722  1.1618  3.1659
   90DG      H4 2051   2.278   4.228   3.901 -0.6419  1.0433 -1.2160
   90DG      H5 2052   2.377   4.230   3.760 -1.2377  0.5699 -0.1085
   90DG      H6 2053   2.572   3.860   4.263  1.9324  1.6115 -0.3326
   90DG      H7 2054   2.590   4.000   4.163 -0.5638  0.0075 -1.1698
   90DG      H8 2055   2.459   3.988   4.277  2.9965 -1.0116  2.3936
   90DG      O9 2056   2.229   4.082   3.777 -0.4152  0.3881  0.0767
   90DG     O10 2057   2.448   3.874   4.096  0.7031 -0.1084 -0.3733
   90DG     C11 2058   2.285   3.970   3.707  0.3125  0.9062 -0.1050
   90DG     C12 2059   2.330   3.792   4.127 -0.3055 -0.3524 -0.1816
   90DG     H13 2060   2.374   3.994   3.648  1.0939  1.0744  1.1109
   90DG     H14 2061   2.210   3.920   3.645  1.9621 -0.7835 -0.8468
   90DG     H15 2062   2.264   3.866   4.173 -0.4961 -0.7721  0.2253
   90DG     H16 2063   2.350   3.711   4.196 -0.9400 -0.0877  0.3326
   90DG     C17 2064   2.339   3.868   3.812  0.0198 -0.5667  0.5943
   90DG     C18 2065   2.273   3.737   3.995  0.0343  0.6123 -0.1633
   90DG     O19 2066   2.239   3.839   3.894  0.2335  0.4138 -0.3599
   90DG     H20 2067   2.434   3.889   3.862 -0.1570 -1.7084  1.4473
   90DG     H21 2068   2.375   3.782   3.756 -0.2656 -1.4603  1.7599
   90DG     H22 2069   2.345   3.668   3.951  1.1705  1.4869  0.2689
   90DG     H23 2070   2.179   3.698   4.034  0.8548  1.2030  2.6023
   91DG      C1 2071   4.670   5.132   2.386 -0.6157 -0.5420  0.7314
   91DG      C2 2072   5.291   5.203   2.874 -0.2470 -0.3575 -0.6772
   91DG      H3 2073   4.658   5.239   2.409 -2.3650 -0.3525 -0.8047
   91DG      H4 2074   4.582   5.085   2.343  1.5082 -2.8712 -1.3844
   91DG      H5 2075   4.758   5.124   2.323 -1.3857  1.7827 -0.7935
   91DG      H6 2076   5.352   5.215   2.785 -0.9898  2.0223 -0.9293
   91DG      H7 2077   5.245   5.300   2.893 -0.9095 -0.8864  0.5262
   91DG      H8 2078   5.343   5.169   2.964 -0.3692 -1.6426 -1.0729
   91DG      O9 2079   4.693   5.067   2.512 -0.5716 -0.8027 -0.0958
   91DG     O10 2080   5.193   5.111   2.841  0.0129 -0.1657 -0.5002
   91DG     C11 2081   4.804   5.114   2.581  0.3976  0.6174 -0.0635
   91DG     C12 2082   5.106   5.068   2.943 -0.4552  0.1093 -0.5329
   91DG     H13 2083   4.802   5.217   2.615  3.6664  0.5524  0.6662
   91DG     H14 2084   4.882   5.095   2.507 -0.9919 -3.0823 -0.7903
   91DG     H15 2085   5.069   5.143   3.014 -1.3989 -2.0788  1.4222
   91DG     H16 2086   5.153   4.992   3.005  1.3787 -1.3917 -3.5355
   91DG     C17 2087   4.818   5.031   2.707 -0.1951 -0.8014 -0.5132
   91DG     C18 2088   4.986   5.000   2.877 -0.3210  0.0783  0.6873
   91DG     O19 2089   4.927   5.092   2.772 -0.5990 -0.2184 -0.8714
   91DG     H20 2090   4.829   4.925   2.685 -2.7977 -1.3226  0.3510
   91DG     H21 2091   4.733   5.030   2.776  1.6706 -0.7909  1.9268
   91DG     H22 2092   5.011   4.906   2.828 -3.1026 -1.0767  1.2808
   91DG     H23 2093   4.915   4.981   2.957 -0.8587  1.0124  0.4547
   92DG      C1 2094   2.871   2.909   2.960  0.2748 -0.0649  0.8009
   92DG      C2 2095   3.433   2.600   2.776 -0.6531  0.2097  0.3481
   92DG      H3 2096   2.764   2.934   2.960 -0.2288 -1.8577 -1.6227
   92DG      H4 2097   2.918   3.007   2.968 -1.3079  0.8210 -0.1898
   92DG      H5 2098   2.893   2.842   3.043  0.7576  0.2253  0.9121
   92DG      H6 2099   3.483   2.527   2.711 -0.3340 -2.1041  3.0020
   92DG      H7 2100   3.468   2.702   2.764 -0.5959  0.0610 -1.0023
   92DG      H8 2101   3.450   2.566   2.878  0.1961 -1.0550 -0.1889
   92DG      O9 2102   2.920   2.862   2.831 -0.4078  0.5286  0.3042
   92DG     O10 2103   3.300   2.593   2.734  0.1167  0.3136  0.7047
   92DG     C11 2104   2.850   2.741   2.799  0.2645 -0.9099  0.4299
   92DG     C12 2105   3.271   2.613   2.598  0.6767 -0.1201  0.2237
   92DG     H13 2106   2.743   2.760   2.794  0.3718 -0.2898  0.3858
   92DG     H14 2107   2.880   2.672   2.878  2.1721 -0.8973 -0.2279
   92DG     H15 2108   3.327   2.554   2.526  1.4203  0.2665  0.4724
   92DG     H16 2109   3.309   2.713   2.578  1.3586  0.0479  2.1653
   92DG     C17 2110   2.907   2.676   2.674  0.4276  0.3327  0.4387
   92DG     C18 2111   3.116   2.606   2.579  0.3238  0.7880 -0.3525
   92DG     O19 2112   3.050   2.691   2.674 -0.4109 -0.7101  0.4367
   92DG     H20 2113   2.863   2.725   2.586 -0.1503  1.2578  1.2224
   92DG     H21 2114   2.888   2.569   2.665  0.8127  0.3030 -0.0835
   92DG     H22 2115   3.071   2.624   2.481  0.6513 -1.4931 -0.9619
   92DG     H23 2116   3.096   2.500   2.588  0.8254  0.8628  3.2157
   93DG      C1 2117   3.603   3.827   0.480 -0.4071  0.2296  0.4372
   93DG      C2 2118   3.671   4.476   0.341  0.5308  0.7412  0.4738
   93DG      H3 2119   3.606   3.851   0.586 -0.1460  0.7385  0.3153
   93DG      H4 2120   3.654   3.731   0.471  0.7371  0.9390 -1.4012
   93DG      H5 2121   3.496   3.831   0.460 -0.7189  2.1621  2.2361
   93DG      H6 2122   3.711   4.501   0.440  1.9649  3.6268 -0.7203
   93DG      H7 2123   3.714   4.546   0.269 -0.2939  0.6653 -0.1030
   93DG      H8 2124   3.562   4.472   0.333  0.5880  0.2858 -0.0551
   93DG      O9 2125   3.673   3.914   0.397  0.5322 -0.1137 -0.3378
   93DG     O10 2126   3.733   4.361   0.286  0.7992 -0.0246  0.3415
   93DG     C11 2127   3.668   3.874   0.257  0.5251  0.2105 -0.0849
   93DG     C12 2128   3.698   4.335   0.150  0.0105  0.1985  0.8419
   93DG     H13 2129   3.563   3.874   0.230  0.1876  0.9830  1.1324
   93DG     H14 2130   3.690   3.769   0.238 -0.1925  0.2461 -1.1707
   93DG     H15 2131   3.744   4.418   0.097  1.3934 -1.0513 -0.0137
   93DG     H16 2132   3.591   4.338   0.128  0.3189 -0.4126 -0.8931
   93DG     C17 2133   3.755   3.969   0.175  0.7424 -0.4956  0.4062
   93DG     C18 2134   3.763   4.201   0.112  0.1517  0.2242 -0.0360
   93DG     O19 2135   3.697   4.099   0.190 -0.1514  0.6284  0.3709
   93DG     H20 2136   3.753   3.928   0.074  1.2597 -1.1768  0.6631
   93DG     H21 2137   3.852   3.961   0.224  0.0996 -0.1094  1.8071
   93DG     H22 2138   3.748   4.181   0.006 -1.0069 -1.6536  0.4319
   93DG     H23 2139   3.871   4.206   0.127  0.0374  0.9161  0.6541
   94DG      C1 2140   1.452   1.591   5.432  0.8903  0.6409  0.2245
   94DG      C2 2141   1.642   1.785   4.600  0.0330 -0.0461  0.2963
   94DG      H3 2142   1.502   1.626   5.522  0.9045  0.4780  0.2807
   94DG      H4 2143   1.504   1.500   5.402 -0.8769 -0.7786  1.2791
   94DG      H5 2144   1.354   1.552   5.457  0.7106  1.3971  0.7312
   94DG      H6 2145   1.608   1.684   4.574 -0.8683 -0.5589  3.0472
   94DG      H7 2146   1.623   1.856   4.520 -1.2134  0.8186  1.3207
   94DG      H8 2147   1.748   1.788   4.623 -0.1115  0.4030  0.9389
   94DG      O9 2148   1.437   1.680   5.325  0.4012 -0.0664 -0.5043
   94DG     O10 2149   1.562   1.827   4.709  0.2897  0.9808  0.0414
   94DG     C11 2150   1.553   1.762   5.306  1.0277  0.2820  0.3037
   94DG     C12 2151   1.576   1.739   4.825 -0.9541 -1.0726  0.5881
   94DG     H13 2152   1.650   1.712   5.317 -0.1368 -1.7596  2.3743
   94DG     H14 2153   1.557   1.830   5.391  0.7345 -0.6601  1.0868
   94DG     H15 2154   1.682   1.713   4.834 -0.8609 -1.5684 -1.5857
   94DG     H16 2155   1.518   1.647   4.819  0.1957 -1.7861  0.1157
   94DG     C17 2156   1.552   1.835   5.176 -0.5652 -0.7952 -0.3865
   94DG     C18 2157   1.537   1.822   4.942  0.6129  0.3920 -0.4413
   94DG     O19 2158   1.543   1.747   5.063 -0.1230  0.0523  0.2775
   94DG     H20 2159   1.649   1.884   5.171  1.3952 -4.2267  0.7168
   94DG     H21 2160   1.474   1.910   5.168  0.6650  0.3952 -2.2498
   94DG     H22 2161   1.600   1.910   4.953 -0.0997  0.9346 -0.6242
   94DG     H23 2162   1.434   1.858   4.935  0.4566 -0.0053 -0.2629
   95DG      C1 2163   3.084   4.987   5.311 -0.7694 -0.7649 -0.2278
   95DG      C2 2164   2.784   4.803   5.231  0.2077  0.2071  0.7088
   95DG      H3 2165   2.995   5.015   5.369 -2.0307 -2.5638 -1.1781
   95DG      H4 2166   3.054   5.006   5.208  1.7970 -0.4841 -0.9827
   95DG      H5 2167   3.171   5.045   5.340 -0.8881 -1.1800  1.0130
   95DG      H6 2168   2.679   4.828   5.213 -0.1502 -1.6360  0.0067
   95DG      H7 2169   2.838   4.893   5.258 -0.3489  1.0771 -0.9363
   95DG      H8 2170   2.826   4.757   5.142  1.3659  1.1188  0.7665
   95DG      O9 2171   3.139   4.853   5.325 -0.8099 -0.4392 -0.4686
   95DG     O10 2172   2.787   4.689   5.318  0.0902  0.6059  0.5114
   95DG     C11 2173   3.187   4.814   5.454 -0.3325 -0.1739 -0.0454
   95DG     C12 2174   2.739   4.704   5.452  0.2052 -0.5895 -0.1075
   95DG     H13 2175   3.264   4.884   5.486  0.5556 -0.9999 -0.3284
   95DG     H14 2176   3.230   4.714   5.444 -0.3624  0.0154 -2.5713
   95DG     H15 2177   2.719   4.601   5.483  2.7756 -1.0620  0.2175
   95DG     H16 2178   2.646   4.758   5.468  0.2917 -0.6739  0.7541
   95DG     C17 2179   3.070   4.804   5.558  0.5776 -0.7708  0.1272
   95DG     C18 2180   2.840   4.763   5.550 -0.2854 -0.1035 -0.0800
   95DG     O19 2181   2.968   4.734   5.494  0.4280 -0.2333 -0.1071
   95DG     H20 2182   3.039   4.908   5.574 -1.7029 -1.2552 -0.7918
   95DG     H21 2183   3.098   4.746   5.646  1.9665  1.1903  1.0728
   95DG     H22 2184   2.830   4.871   5.551  0.0622 -0.0655 -0.6309
   95DG     H23 2185   2.825   4.738   5.655  0.2475  0.9929  0.2740
   96DG      C1 2186   4.241   0.484   1.777 -0.4031 -0.5459  0.5350
   96DG      C2 2187   4.417   0.580   1.109  0.2847 -0.4533  0.3113
   96DG      H3 2188   4.252   0.592   1.777 -0.9423 -0.4097 -2.2628
   96DG      H4 2189   4.236   0.446   1.879 -0.5860  0.5515  0.9458
   96DG      H5 2190   4.142   0.473   1.732 -0.9160  0.9001  1.2497
   96DG      H6 2191   4.356   0.541   1.028  0.2196  0.9467 -0.3487
   96DG      H7 2192   4.367   0.673   1.136 -0.1084 -0.8770  1.0566
   96DG      H8 2193   4.512   0.619   1.070  0.2144 -0.4310  0.1611
   96DG      O9 2194   4.345   0.429   1.700 -0.1067  0.2663  0.2745
   96DG     O10 2195   4.452   0.488   1.211  0.3242 -0.1042  0.2123
   96DG     C11 2196   4.322   0.295   1.662  0.0347 -0.0399 -0.0130
   96DG     C12 2197   4.504   0.541   1.333  0.1935 -0.2318  0.7342
   96DG     H13 2198   4.221   0.278   1.624 -0.3435  0.9344  0.5314
   96DG     H14 2199   4.328   0.229   1.749 -0.3670  1.3491  1.1020
   96DG     H15 2200   4.437   0.609   1.386 -1.4968 -0.8016 -0.5660
   96DG     H16 2201   4.596   0.597   1.313  0.8788  0.0990  4.2577
   96DG     C17 2202   4.427   0.263   1.553  0.0410  0.3349 -0.2280
   96DG     C18 2203   4.540   0.440   1.435 -0.4859 -0.0476 -0.4115
   96DG     O19 2204   4.425   0.362   1.454  0.6154  0.0529 -0.1775
   96DG     H20 2205   4.414   0.166   1.506 -1.2002  0.3724  0.0212
   96DG     H21 2206   4.529   0.262   1.593  0.5976  3.0832 -1.3444
   96DG     H22 2207   4.626   0.376   1.418 -0.4020  0.2459 -1.1027
   96DG     H23 2208   4.556   0.486   1.533 -0.5374 -2.1228  0.6311
   97DG      C1 2209   3.879   0.917   1.518 -0.2316  0.2226 -0.2412
   97DG      C2 2210   3.368   0.448   1.534 -0.1380 -0.0445 -0.2436
   97DG      H3 2211   3.852   0.942   1.621 -0.3890  2.4178 -0.7574
   97DG      H4 2212   3.916   1.003   1.462  2.1436 -1.6619 -1.7724
   97DG      H5 2213   3.954   0.838   1.521 -0.6379 -0.2873 -2.1149
   97DG      H6 2214   3.336   0.470   1.636 -0.2088 -1.4795  0.0616
   97DG      H7 2215   3.270   0.429   1.490 -0.8369  1.8290  0.4134
   97DG      H8 2216   3.424   0.354   1.533  0.2621  0.1803 -1.4580
   97DG      O9 2217   3.775   0.857   1.454 -0.0631  0.5082  0.0212
   97DG     O10 2218   3.431   0.557   1.466  0.1704  0.3295 -0.1407
   97DG     C11 2219   3.790   0.850   1.307 -0.3193  0.0994 -0.5414
   97DG     C12 2220   3.450   0.518   1.330 -0.3035 -0.4258 -0.0874
   97DG     H13 2221   3.868   0.777   1.281 -1.5913 -1.3786 -0.3857
   97DG     H14 2222   3.806   0.948   1.264 -2.0346  0.6371 -0.0411
   97DG     H15 2223   3.356   0.491   1.283 -0.7262  2.1850 -0.8962
   97DG     H16 2224   3.510   0.428   1.319 -0.9737 -1.0253  1.0132
   97DG     C17 2225   3.661   0.802   1.243  0.5250  0.2805 -0.7998
   97DG     C18 2226   3.506   0.636   1.247  0.3653  0.3144 -0.1040
   97DG     O19 2227   3.633   0.677   1.301 -0.1014  0.1194 -0.5614
   97DG     H20 2228   3.692   0.788   1.139  2.5444 -1.8484  0.0118
   97DG     H21 2229   3.595   0.887   1.262  0.1902  0.3218 -2.0651
   97DG     H22 2230   3.512   0.598   1.145 -1.2182 -1.7544  0.5180
   97DG     H23 2231   3.436   0.719   1.247  1.3059  1.1827  1.7943
   98DG      C1 2232   4.813   4.755   5.055  0.7121 -0.4347  0.8715
   98DG      C2 2233   4.349   4.554   4.676 -0.1428 -0.1593 -0.3625
   98DG      H3 2234   4.745   4.783   5.136 -2.4837 -2.3795 -0.9153
   98DG      H4 2235   4.789   4.796   4.957 -1.3024 -0.5590  1.2769
   98DG      H5 2236   4.916   4.780   5.080  0.7532  0.7707 -0.4092
   98DG      H6 2237   4.379   4.613   4.589  0.5989  0.3239  0.2084
   98DG      H7 2238   4.302   4.475   4.616 -0.5791  1.7228 -2.6559
   98DG      H8 2239   4.265   4.595   4.733  0.7818  0.9921  0.2067
   98DG      O9 2240   4.795   4.615   5.054 -0.6808  0.0945 -0.5555
   98DG     O10 2241   4.467   4.506   4.754  0.3063  0.2133 -0.2498
   98DG     C11 2242   4.894   4.548   4.984  0.7074 -0.3539 -0.3666
   98DG     C12 2243   4.558   4.426   4.674  0.2607 -0.4664 -0.1423
   98DG     H13 2244   4.967   4.498   5.047 -1.8082 -1.6795  1.6829
   98DG     H14 2245   4.935   4.607   4.901  1.2931 -0.4100 -0.1227
   98DG     H15 2246   4.601   4.498   4.605 -1.2715  1.6285  0.9653
   98DG     H16 2247   4.514   4.348   4.611 -0.5210  0.7213 -1.1039
   98DG     C17 2248   4.813   4.434   4.927  0.2915 -0.3867 -0.3750
   98DG     C18 2249   4.664   4.372   4.761  0.0549  0.4052  0.3290
   98DG     O19 2250   4.714   4.482   4.838  0.0423 -0.0152  0.1915
   98DG     H20 2251   4.769   4.380   5.012 -0.2350  1.1354  0.3665
   98DG     H21 2252   4.885   4.364   4.884 -0.7465 -1.0232 -1.1475
   98DG     H22 2253   4.613   4.293   4.818 -1.9675  1.0162 -0.5396
   98DG     H23 2254   4.741   4.325   4.699  1.4497 -1.8996  3.5290
   99DG      C1 2255   5.229   4.807   4.064  0.0205  0.0450  0.2239
   99DG      C2 2256   5.315   4.518   3.617  0.5382  0.2730 -0.4149
   99DG      H3 2257   5.322   4.834   4.014 -0.4026 -0.2484 -0.7506
   99DG      H4 2258   5.229   4.702   4.093  1.0858 -0.0908 -0.2193
   99DG      H5 2259   5.221   4.865   4.156 -2.6747  3.2611 -1.7864
   99DG      H6 2260   5.296   4.426   3.672 -2.4237  0.9320 -0.1838
   99DG      H7 2261   5.326   4.497   3.511  0.3270 -0.9397 -0.2089
   99DG      H8 2262   5.407   4.568   3.649 -1.0993  2.2008  1.6393
   99DG      O9 2263   5.122   4.848   3.984  0.1523 -0.2614  0.3847
   99DG     O10 2264   5.198   4.600   3.632 -0.1545 -0.3668 -0.2556
   99DG     C11 2265   4.994   4.796   4.014  0.5186  0.0655 -0.4675
   99DG     C12 2266   5.080   4.525   3.647  0.0915 -0.2674  0.1385
   99DG     H13 2267   4.908   4.842   3.965  0.4435 -0.1436 -0.5302
   99DG     H14 2268   4.974   4.799   4.121 -1.1105 -2.9469 -0.6035
   99DG     H15 2269   5.081   4.427   3.600  0.9491 -0.9833  1.5885
   99DG     H16 2270   5.000   4.586   3.606  0.7082  0.0542 -0.5918
   99DG     C17 2271   4.991   4.650   3.971  0.2533  0.7501 -0.1080
   99DG     C18 2272   5.062   4.513   3.794 -0.3246  0.0372 -0.2326
   99DG     O19 2273   5.028   4.641   3.835  0.6125 -0.1458  0.3207
   99DG     H20 2274   4.895   4.600   3.984  0.8897 -0.1228  1.4809
   99DG     H21 2275   5.062   4.592   4.029 -1.0212 -0.3406  0.4221
   99DG     H22 2276   4.977   4.446   3.808 -0.5530  0.1250 -1.1507
   99DG     H23 2277   5.154   4.480   3.843 -1.3041  2.8613  4.1687
  100DG      C1 2278   4.743   4.757   3.702  0.6691  0.0207  0.0911
  100DG      C2 2279   5.427   4.890   3.647 -0.6277  0.6622 -0.3530
  100DG      H3 2280   4.647   4.762   3.753  0.6498 -0.9108  0.1624
  100DG      H4 2281   4.781   4.659   3.732 -2.0474 -0.8493  1.0553
  100DG      H5 2282   4.716   4.758   3.596 -2.6998 -2.3351  0.7443
  100DG      H6 2283   5.482   4.835   3.723  1.4423  0.7033 -1.7366
  100DG      H7 2284   5.398   4.821   3.568  1.6399 -1.1412  0.2575
  100DG      H8 2285   5.501   4.962   3.612  1.1141  0.6963  2.9896
  100DG      O9 2286   4.840   4.848   3.732  0.5153 -0.3803 -0.0973
  100DG     O10 2287   5.305   4.947   3.699  0.0831 -0.3739  0.2988
  100DG     C11 2288   4.794   4.985   3.737 -0.5601  0.3234 -0.6302
  100DG     C12 2289   5.253   5.042   3.615  0.8249  0.8556 -0.0533
  100DG     H13 2290   4.708   4.988   3.804  0.3735 -2.4180  0.8414
  100DG     H14 2291   4.758   5.003   3.636 -0.1924 -1.5086 -1.1286
  100DG     H15 2292   5.224   4.991   3.523  2.6901 -1.3531  0.5030
  100DG     H16 2293   5.330   5.109   3.575  0.1850  3.2113  2.3186
  100DG     C17 2294   4.911   5.078   3.768  0.1468 -0.4065 -0.5933
  100DG     C18 2295   5.129   5.126   3.671  0.2013  0.1953 -0.1912
  100DG     O19 2296   5.026   5.039   3.692  0.5830 -0.5030 -0.5318
  100DG     H20 2297   4.944   5.067   3.871  2.7718 -0.8337 -1.3839
  100DG     H21 2298   4.885   5.183   3.756  0.6236 -0.1966  0.1447
  100DG     H22 2299   5.156   5.173   3.765  1.7359 -1.0499  0.0390
  100DG     H23 2300   5.099   5.206   3.603 -0.2937  0.3013  0.1542
  101DG      C1 2301   5.391   3.338   5.030  0.0560  0.0557 -0.0306
  101DG      C2 2302   5.738   3.140   5.500 -0.8686  1.0249 -0.2772
  101DG      H3 2303   5.288   3.313   5.055 -0.0769 -0.7071 -1.2515
  101DG      H4 2304   5.446   3.256   4.985  2.7982  1.0473  1.3083
  101DG      H5 2305   5.381   3.417   4.957  1.8060 -0.7066 -1.1511
  101DG      H6 2306   5.763   3.113   5.602  0.2860 -0.2064 -0.8515
  101DG      H7 2307   5.642   3.090   5.482 -0.4164  0.5975 -1.6485
  101DG      H8 2308   5.807   3.085   5.436 -0.7744  1.0966 -0.2353
  101DG      O9 2309   5.458   3.404   5.137  0.3662 -0.1607 -0.3025
  101DG     O10 2310   5.726   3.277   5.476  0.5001  0.4093 -0.2699
  101DG     C11 2311   5.366   3.485   5.217 -0.0419 -0.3756 -0.0400
  101DG     C12 2312   5.644   3.347   5.568  0.1000  0.6693 -0.3813
  101DG     H13 2313   5.280   3.420   5.237 -0.8629 -0.4078 -3.0902
  101DG     H14 2314   5.328   3.571   5.161  1.0907  2.2733  2.9681
  101DG     H15 2315   5.706   3.359   5.657 -0.0106  1.7208 -0.4345
  101DG     H16 2316   5.550   3.304   5.600  0.3089  0.7682  0.3938
  101DG     C17 2317   5.435   3.540   5.338 -0.2194  0.2131 -0.3519
  101DG     C18 2318   5.594   3.479   5.507 -0.4755  0.3448 -0.4069
  101DG     O19 2319   5.531   3.448   5.384 -0.5766  0.1164  0.3009
  101DG     H20 2320   5.366   3.565   5.419  1.3792  1.5735  0.6508
  101DG     H21 2321   5.492   3.630   5.315  1.3950 -0.1666  1.8956
  101DG     H22 2322   5.522   3.522   5.576 -0.8585 -1.1333  0.1571
  101DG     H23 2323   5.678   3.549   5.503 -0.1388  0.1381  1.8744
  102DG      C1 2324   3.872   2.245   3.525 -0.5254 -0.3925  0.4399
  102DG      C2 2325   3.532   2.058   4.273  0.1896  0.7198  0.4941
  102DG      H3 2326   3.848   2.170   3.450  1.4200 -0.6607  0.0208
  102DG      H4 2327   3.966   2.287   3.490  0.1340 -1.7373  0.5421
  102DG      H5 2328   3.802   2.323   3.554  0.7963  1.1508 -0.3434
  102DG      H6 2329   3.446   2.036   4.210  0.8943  1.5235 -0.7936
  102DG      H7 2330   3.522   1.983   4.351 -0.1269 -0.9500 -1.0708
  102DG      H8 2331   3.527   2.156   4.320  3.3308  0.8301  0.8590
  102DG      O9 2332   3.897   2.183   3.646 -0.0554  0.1883 -0.7062
  102DG     O10 2333   3.646   2.026   4.201  0.0515  0.0048 -1.1501
  102DG     C11 2334   3.954   2.260   3.747 -0.1364  0.3807  0.3008
  102DG     C12 2335   3.654   2.102   4.086 -0.3515 -0.7412 -0.0992
  102DG     H13 2336   3.916   2.362   3.745 -1.8986 -0.0789  3.2877
  102DG     H14 2337   4.056   2.268   3.710 -0.7385  0.2432 -1.4970
  102DG     H15 2338   3.660   2.206   4.118  0.3626 -0.3809 -1.3713
  102DG     H16 2339   3.570   2.079   4.020 -0.3749  2.7681 -1.5162
  102DG     C17 2340   3.934   2.181   3.878 -0.3684 -0.6877 -0.6111
  102DG     C18 2341   3.786   2.068   4.019  0.9928 -0.4999 -0.2841
  102DG     O19 2342   3.798   2.165   3.916 -0.1219 -0.4538  0.0320
  102DG     H20 2343   4.000   2.215   3.958  0.2396 -1.3361 -0.8206
  102DG     H21 2344   3.966   2.079   3.855 -1.3929 -1.2751  0.4239
  102DG     H22 2345   3.867   2.078   4.091 -0.5442  2.1456  1.2253
  102DG     H23 2346   3.781   1.971   3.969  0.5248 -1.0755  0.8435
  103DG      C1 2347   1.868   4.204   5.270  0.3328 -0.1127 -0.3929
  103DG      C2 2348   2.022   4.330   5.636  0.0824  0.2086 -0.3360
  103DG      H3 2349   1.911   4.177   5.174 -0.2919 -0.2900 -0.6302
  103DG      H4 2350   1.840   4.112   5.320 -1.0230  0.3192 -0.3085
  103DG      H5 2351   1.957   4.236   5.324  0.6590 -1.8141  0.1195
  103DG      H6 2352   2.047   4.363   5.737  0.3220  0.0342 -0.3372
  103DG      H7 2353   1.971   4.234   5.643 -1.6856  1.2231  1.9476
  103DG      H8 2354   2.107   4.318   5.568 -0.4989  0.8098 -1.1855
  103DG      O9 2355   1.752   4.279   5.267  0.1620 -0.3253 -0.1177
  103DG     O10 2356   1.917   4.412   5.579  0.3973  0.9109 -0.4244
  103DG     C11 2357   1.757   4.400   5.188  0.4903  0.3223 -0.4405
  103DG     C12 2358   1.946   4.545   5.540 -0.6871 -0.3611 -0.1281
  103DG     H13 2359   1.650   4.421   5.187  0.7990  3.0159  3.0311
  103DG     H14 2360   1.783   4.375   5.085 -0.2627  0.7932 -0.7485
  103DG     H15 2361   2.026   4.533   5.467  0.4036  1.4047  0.7172
  103DG     H16 2362   1.992   4.604   5.619  0.3670 -0.7477 -0.4377
  103DG     C17 2363   1.830   4.516   5.253 -0.6814  0.6501  0.1022
  103DG     C18 2364   1.840   4.623   5.467 -0.1671 -0.3828  0.4147
  103DG     O19 2365   1.780   4.528   5.386 -0.0614  0.3898 -0.5895
  103DG     H20 2366   1.831   4.604   5.190 -2.5939 -0.0098 -0.9274
  103DG     H21 2367   1.933   4.482   5.263 -1.3170 -1.3296  0.3911
  103DG     H22 2368   1.780   4.676   5.541  1.0862  1.0586  0.4282
  103DG     H23 2369   1.882   4.707   5.413 -0.2523  0.8147  2.1258
  104DG      C1 2370   0.832   4.665   2.324 -0.3887  0.4464  1.0062
  104DG      C2 2371   1.587   4.508   2.478  0.2852 -0.1425 -0.6305
  104DG      H3 2372   0.846   4.772   2.312  1.8174  0.1969  0.7983
  104DG      H4 2373   0.733   4.642   2.363  0.0298  0.5217  2.1672
  104DG      H5 2374   0.842   4.610   2.231 -1.0818  1.5735  0.2515
  104DG      H6 2375   1.627   4.424   2.534 -0.0646 -1.9845 -2.9942
  104DG      H7 2376   1.596   4.497   2.370  1.2532  0.2980 -0.6007
  104DG      H8 2377   1.627   4.608   2.493 -1.2642  0.8590 -2.5584
  104DG      O9 2378   0.933   4.595   2.407  0.4505 -0.1459  0.0703
  104DG     O10 2379   1.447   4.516   2.491  0.2453  0.3513  0.0783
  104DG     C11 2380   0.957   4.657   2.527  0.6117 -1.0052 -0.0458
  104DG     C12 2381   1.421   4.553   2.624  0.6807  0.5731 -0.0934
  104DG     H13 2382   0.863   4.667   2.582  1.3443  1.2711  0.9057
  104DG     H14 2383   1.006   4.754   2.523 -2.3437  0.6642  0.6932
  104DG     H15 2384   1.449   4.658   2.638  0.0847  0.8433 -0.8370
  104DG     H16 2385   1.468   4.498   2.706  0.6361  1.7063  0.7185
  104DG     C17 2386   1.040   4.569   2.612 -0.8102 -0.4698 -0.5153
  104DG     C18 2387   1.277   4.531   2.671  0.5677 -0.6578  0.8473
  104DG     O19 2388   1.180   4.591   2.577 -0.0255 -0.0255 -0.1048
  104DG     H20 2389   1.005   4.467   2.596 -1.1455 -0.2294 -1.3586
  104DG     H21 2390   1.031   4.604   2.715 -1.1869 -0.9563 -0.3764
  104DG     H22 2391   1.253   4.425   2.681 -1.5093 -0.3915 -0.6107
  104DG     H23 2392   1.258   4.580   2.766 -2.8989 -2.4963  1.2738
  105DG      C1 2393   0.928   3.935   2.128 -0.2334 -0.1671 -0.4207
  105DG      C2 2394   1.401   4.419   2.007  0.1857  0.4096 -0.1053
  105DG      H3 2395   0.870   4.025   2.146  0.5368  0.5154 -1.2454
  105DG      H4 2396   0.976   3.906   2.221 -1.1700  1.6618  0.6839
  105DG      H5 2397   0.854   3.859   2.100  1.6599 -2.2409 -0.0939
  105DG      H6 2398   1.375   4.521   1.977  0.5026  1.4456  2.7687
  105DG      H7 2399   1.394   4.418   2.116  2.7106 -1.2271  0.1216
  105DG      H8 2400   1.504   4.397   1.979 -0.1107 -2.1525  0.6327
  105DG      O9 2401   1.021   3.975   2.027 -0.5141 -0.4720  1.1351
  105DG     O10 2402   1.322   4.306   1.965 -0.1703  0.2434  0.5359
  105DG     C11 2403   0.952   3.989   1.900  0.2648 -0.5257  0.0785
  105DG     C12 2404   1.322   4.280   1.827  0.8534 -0.0697  0.5872
  105DG     H13 2405   0.881   4.072   1.895  2.8288  1.8368  0.3177
  105DG     H14 2406   0.901   3.897   1.873  0.6814 -0.9231  0.6037
  105DG     H15 2407   1.425   4.281   1.791  1.0339  0.4144  1.1122
  105DG     H16 2408   1.270   4.354   1.767  0.5788  0.3864  1.3774
  105DG     C17 2409   1.060   4.022   1.808 -0.2279  0.6306 -0.1168
  105DG     C18 2410   1.251   4.150   1.801 -0.2210 -0.0546  0.5480
  105DG     O19 2411   1.126   4.148   1.851  0.4681  0.2989  0.3857
  105DG     H20 2412   1.026   4.039   1.706  1.9449 -3.1138 -1.6677
  105DG     H21 2413   1.130   3.939   1.800  1.5224  2.0924 -1.0512
  105DG     H22 2414   1.248   4.129   1.694  2.2747 -0.0590  0.4245
  105DG     H23 2415   1.318   4.071   1.833  1.7813  0.5502 -1.8475
  106DG      C1 2416   1.405   0.432   4.912  0.0155 -0.3648  0.8992
  106DG      C2 2417   0.936  -0.159   4.468 -0.1711 -0.5100  0.1935
  106DG      H3 2418   1.332   0.411   4.990  1.2625 -0.5544  2.0423
  106DG      H4 2419   1.368   0.520   4.858 -2.9768 -1.4671  0.9984
  106DG      H5 2420   1.492   0.478   4.958 -1.1086  2.6021  0.2898
  106DG      H6 2421   0.847  -0.170   4.530 -0.8072  0.3123 -0.5515
  106DG      H7 2422   0.910  -0.100   4.380  1.4472 -0.3700 -0.2199
  106DG      H8 2423   0.968  -0.254   4.425  1.2733 -0.0006  0.0990
  106DG      O9 2424   1.443   0.326   4.820 -0.3699 -0.2977 -0.1228
  106DG     O10 2425   1.045  -0.093   4.532  0.5743  0.0221 -0.1585
  106DG     C11 2426   1.329   0.263   4.761  0.3920  0.6508  0.3583
  106DG     C12 2427   1.152  -0.069   4.440 -0.3934  0.0476 -0.0011
  106DG     H13 2428   1.279   0.342   4.706  1.9321 -0.5500 -3.0431
  106DG     H14 2429   1.272   0.221   4.843 -0.7682 -0.8186 -1.1360
  106DG     H15 2430   1.120   0.007   4.369  0.7045 -0.7289 -1.3501
  106DG     H16 2431   1.195  -0.157   4.394  1.6004  1.5594 -1.1847
  106DG     C17 2432   1.358   0.155   4.661  0.5204  0.5052  0.4497
  106DG     C18 2433   1.267  -0.013   4.538  0.7333  0.3694  0.0610
  106DG     O19 2434   1.238   0.109   4.603 -0.0913 -0.0863 -0.1487
  106DG     H20 2435   1.403   0.074   4.719  2.1467 -1.4364 -3.1938
  106DG     H21 2436   1.433   0.177   4.586 -0.9547  3.3052 -0.3381
  106DG     H22 2437   1.297  -0.079   4.619  3.2374  2.1076  0.6520
  106DG     H23 2438   1.361  -0.004   4.483  0.9406 -0.6785  0.2129
  107DG      C1 2439   3.406   5.384   2.372  0.1143 -0.0196 -0.3308
  107DG      C2 2440   2.771   5.566   2.773  0.3900  0.4019  0.7513
  107DG      H3 2441   3.510   5.417   2.365  0.7143 -1.3265  1.6849
  107DG      H4 2442   3.381   5.314   2.292 -1.9430 -1.1612  1.2200
  107DG      H5 2443   3.408   5.326   2.464  3.0107 -1.2692 -1.0644
  107DG      H6 2444   2.828   5.507   2.844  1.7459  0.9745  0.1965
  107DG      H7 2445   2.705   5.642   2.814 -1.9169 -1.2979  0.3806
  107DG      H8 2446   2.703   5.501   2.718  2.4441 -0.6777 -0.6571
  107DG      O9 2447   3.319   5.493   2.383  0.4562  0.0882  0.5124
  107DG     O10 2448   2.852   5.631   2.678 -0.1708 -0.4629  0.7341
  107DG     C11 2449   3.178   5.457   2.387  0.2618 -0.3082 -0.2153
  107DG     C12 2450   2.779   5.672   2.557  0.8020 -0.2356 -0.4332
  107DG     H13 2451   3.160   5.412   2.484  1.0110 -0.1865 -0.0145
  107DG     H14 2452   3.151   5.398   2.299 -0.3581  1.4906 -1.2869
  107DG     H15 2453   2.731   5.767   2.581 -0.0295 -1.0357  1.1751
  107DG     H16 2454   2.702   5.604   2.523 -0.1010 -0.0088  1.1026
  107DG     C17 2455   3.097   5.590   2.382  0.1046 -1.2756  0.4775
  107DG     C18 2456   2.883   5.693   2.441  0.1943 -0.6544  0.6556
  107DG     O19 2457   2.963   5.573   2.428  0.4342 -0.2177  0.3703
  107DG     H20 2458   3.100   5.631   2.281  3.0494  0.1529  1.0204
  107DG     H21 2459   3.134   5.659   2.458 -1.5602 -1.6831  1.7253
  107DG     H22 2460   2.824   5.711   2.351  0.5354 -1.6063  0.2194
  107DG     H23 2461   2.947   5.778   2.462 -1.0929  0.7770 -0.9273
  108DG      C1 2462   0.338   0.087   1.756  0.4008 -0.0643 -0.0655
  108DG      C2 2463   0.901   0.356   1.742 -0.7219  0.5258 -0.3178
  108DG      H3 2464   0.325   0.186   1.711 -1.2542 -0.7246 -1.1570
  108DG      H4 2465   0.258   0.071   1.828  1.0460  1.4692  1.0454
  108DG      H5 2466   0.302   0.020   1.677  0.2708 -0.3760  0.2556
  108DG      H6 2467   1.007   0.375   1.755 -0.1627 -2.0278 -0.5395
  108DG      H7 2468   0.862   0.394   1.647 -0.1401  3.4146  0.5077
  108DG      H8 2469   0.846   0.411   1.818  0.5579 -0.0580  1.0834
  108DG      O9 2470   0.475   0.064   1.785 -0.3684  0.5249 -0.1059
  108DG     O10 2471   0.878   0.219   1.751  0.2065  0.1735  0.3938
  108DG     C11 2472   0.492  -0.034   1.887 -0.1009  0.2858  0.9118
  108DG     C12 2473   0.925   0.158   1.871 -0.2334 -0.6562  0.1495
  108DG     H13 2474   0.423  -0.118   1.882  1.1385 -0.9088  2.6289
  108DG     H14 2475   0.463   0.013   1.981 -2.1213 -0.8962  0.9302
  108DG     H15 2476   0.886   0.207   1.960  0.4076 -0.1149  0.1427
  108DG     H16 2477   1.033   0.163   1.887 -0.3331  0.7226  0.5510
  108DG     C17 2478   0.640  -0.080   1.877 -0.1223 -0.2953  0.0412
  108DG     C18 2479   0.862   0.019   1.880  0.2821  0.2708 -0.3232
  108DG     O19 2480   0.720   0.036   1.860  0.0514 -0.0345  0.1631
  108DG     H20 2481   0.668  -0.144   1.793  0.2234 -2.4174  1.6960
  108DG     H21 2482   0.676  -0.119   1.972 -0.7349 -0.6179  0.1418
  108DG     H22 2483   0.910  -0.044   1.806  0.4718  0.8371 -0.6875
  108DG     H23 2484   0.880  -0.012   1.984  2.3295  0.2847 -0.6261
  109DG      C1 2485   3.337   1.584   5.098  0.2573  0.4439  0.0654
  109DG      C2 2486   3.385   1.919   4.573 -0.2047  0.1815 -0.1632
  109DG      H3 2487   3.385   1.494   5.059  0.8232  1.4833 -1.7469
  109DG      H4 2488   3.240   1.585   5.050  0.6145 -0.1949 -0.6943
  109DG      H5 2489   3.332   1.582   5.207 -0.5104 -1.5103  0.0402
  109DG      H6 2490   3.280   1.892   4.579 -0.0254 -1.2683 -2.3380
  109DG      H7 2491   3.407   2.021   4.540 -0.6130  0.6434  0.9325
  109DG      H8 2492   3.426   1.846   4.503  0.4926 -1.0435  1.4629
  109DG      O9 2493   3.414   1.691   5.058 -0.1712  0.0800 -0.2634
  109DG     O10 2494   3.455   1.908   4.701  0.2372  0.0910  0.7880
  109DG     C11 2495   3.547   1.692   5.110 -0.6130 -1.0753 -0.4198
  109DG     C12 2496   3.595   1.935   4.701  0.3438  0.4344  0.2377
  109DG     H13 2497   3.601   1.599   5.096  1.2697 -0.4523  2.0571
  109DG     H14 2498   3.532   1.711   5.216  0.6715  0.1687 -0.4319
  109DG     H15 2499   3.627   2.029   4.656 -2.7468  0.8978 -1.2706
  109DG     H16 2500   3.644   1.852   4.650  0.3253  0.1111  0.7391
  109DG     C17 2501   3.619   1.815   5.049  0.8428  0.4456 -0.3824
  109DG     C18 2502   3.631   1.943   4.849  0.2705  0.0646  0.4003
  109DG     O19 2503   3.594   1.817   4.913  0.1672  0.2070  0.7883
  109DG     H20 2504   3.724   1.822   5.076  0.6177  0.0488  0.6541
  109DG     H21 2505   3.571   1.903   5.093  1.8150  0.1295  1.4229
  109DG     H22 2506   3.738   1.963   4.861 -0.0639  1.6295  1.0203
  109DG     H23 2507   3.582   2.029   4.896  0.6616  0.9239 -0.7223
  110DG      C1 2508   2.023   1.937   1.385  0.6471 -0.1576 -0.6156
  110DG      C2 2509   2.412   2.502   1.501 -0.1093 -0.0577 -0.5699
  110DG      H3 2510   2.010   1.896   1.285  2.7057 -0.9143 -0.6286
  110DG      H4 2511   1.930   1.926   1.441  0.7940  0.9772 -0.1068
  110DG      H5 2512   2.093   1.872   1.437  0.3632 -1.8252 -2.2342
  110DG      H6 2513   2.505   2.480   1.449  0.9990 -0.9489  1.6645
  110DG      H7 2514   2.415   2.605   1.537 -0.3263  0.2526 -1.4204
  110DG      H8 2515   2.397   2.443   1.592 -2.1386 -0.0135 -0.8222
  110DG      O9 2516   2.048   2.080   1.385 -0.6395 -0.1715  0.1319
  110DG     O10 2517   2.310   2.478   1.412  0.3099  0.0874 -0.2583
  110DG     C11 2518   1.930   2.148   1.349  0.5125 -0.5549 -0.4689
  110DG     C12 2519   2.190   2.549   1.452 -0.4082 -0.3284  0.4237
  110DG     H13 2520   1.849   2.129   1.419 -0.6692 -0.8440 -1.8681
  110DG     H14 2521   1.878   2.109   1.261  0.1876 -0.8070 -0.1654
  110DG     H15 2522   2.208   2.653   1.426 -0.1017 -0.3330  0.6087
  110DG     H16 2523   2.177   2.554   1.560  0.2233  0.4837  0.4742
  110DG     C17 2524   1.945   2.299   1.320  0.2518 -0.0071 -0.2602
  110DG     C18 2525   2.063   2.500   1.387 -0.3889  0.5064 -0.7062
  110DG     O19 2526   2.045   2.357   1.405  0.4691  0.4537  0.6490
  110DG     H20 2527   1.850   2.354   1.325  0.5091  0.5645 -1.4001
  110DG     H21 2528   1.994   2.303   1.223 -0.2699  1.2142 -0.4971
  110DG     H22 2529   1.985   2.563   1.430  1.0391  2.2510 -0.5845
  110DG     H23 2530   2.063   2.511   1.278 -2.5743 -0.6974 -0.8842
  111DG      C1 2531   0.040   0.669   2.589  0.2624  0.4367  0.1702
  111DG      C2 2532  -0.739   0.742   2.469 -0.0799  0.2582 -0.1051
  111DG      H3 2533   0.020   0.602   2.673 -0.8752  0.6366  0.0824
  111DG      H4 2534   0.116   0.739   2.624  1.0391 -0.2395 -0.1479
  111DG      H5 2535   0.084   0.606   2.512 -0.7925 -0.6812  0.4485
  111DG      H6 2536  -0.703   0.693   2.560  0.7999  2.0826  0.5747
  111DG      H7 2537  -0.700   0.843   2.479  1.4036 -0.2219 -0.6884
  111DG      H8 2538  -0.847   0.739   2.453 -0.3759  3.1678  0.6929
  111DG      O9 2539  -0.073   0.737   2.545  0.0309  0.1228  0.0184
  111DG     O10 2540  -0.662   0.684   2.358 -0.0049 -0.1042  0.6220
  111DG     C11 2541  -0.063   0.794   2.417  1.3076 -0.2832  0.4802
  111DG     C12 2542  -0.519   0.663   2.392  0.8963 -0.2026 -0.1222
  111DG     H13 2543  -0.049   0.718   2.341 -0.7093 -2.3199  1.9940
  111DG     H14 2544   0.018   0.867   2.419  2.7648 -1.8361  1.0667
  111DG     H15 2545  -0.480   0.577   2.338  1.4603 -1.4592  2.1410
  111DG     H16 2546  -0.512   0.634   2.497 -3.7967 -1.8395 -0.0290
  111DG     C17 2547  -0.205   0.850   2.396 -0.9267 -0.1603  0.4041
  111DG     C18 2548  -0.436   0.786   2.374  0.2301  0.2281 -0.2079
  111DG     O19 2549  -0.303   0.746   2.408 -0.1049  0.0723 -0.1691
  111DG     H20 2550  -0.208   0.897   2.298 -0.6425  1.4571  1.1354
  111DG     H21 2551  -0.226   0.932   2.464 -2.0437 -1.0456  1.1773
  111DG     H22 2552  -0.441   0.842   2.281  1.5483 -0.9016 -0.9918
  111DG     H23 2553  -0.470   0.868   2.438  0.1557 -0.0736  0.1388
  112DG      C1 2554   0.300   1.261   1.133  0.1705  0.1279  0.0696
  112DG      C2 2555  -0.106   1.169   1.663  0.1211  0.0098  0.3619
  112DG      H3 2556   0.239   1.228   1.048  1.3501 -0.8743 -0.4214
  112DG      H4 2557   0.343   1.168   1.170  1.3042  0.5082 -0.2688
  112DG      H5 2558   0.375   1.324   1.087 -0.7523  1.2049 -0.0095
  112DG      H6 2559  -0.131   1.199   1.765 -0.9785 -1.1684  0.4631
  112DG      H7 2560  -0.196   1.148   1.606  0.0472  1.3119 -0.0185
  112DG      H8 2561  -0.039   1.084   1.679 -1.4406 -0.8676  2.9471
  112DG      O9 2562   0.215   1.324   1.228  0.7101  0.0663  0.3658
  112DG     O10 2563  -0.040   1.270   1.584  0.8723  0.2695 -0.5954
  112DG     C11 2564   0.184   1.458   1.196  0.0725 -0.9051 -0.3926
  112DG     C12 2565  -0.113   1.384   1.557  0.2321  0.5128 -0.1568
  112DG     H13 2566   0.109   1.464   1.117 -1.7940  2.0147  1.4104
  112DG     H14 2567   0.269   1.505   1.146 -0.3987 -0.5627 -0.8808
  112DG     H15 2568  -0.163   1.440   1.637 -0.6439  0.2519 -0.5024
  112DG     H16 2569  -0.194   1.348   1.494  0.9926  0.3094 -1.0205
  112DG     C17 2570   0.138   1.520   1.323  0.4322  0.7103 -0.6879
  112DG     C18 2571  -0.030   1.494   1.490 -0.7357 -0.4189  0.2786
  112DG     O19 2572   0.033   1.442   1.371 -0.1911 -0.2251  0.0356
  112DG     H20 2573   0.107   1.624   1.311 -0.3212  0.4304 -1.2487
  112DG     H21 2574   0.226   1.522   1.388  0.4825 -0.5665 -0.6853
  112DG     H22 2575  -0.098   1.575   1.466 -1.1713 -1.1108 -0.9204
  112DG     H23 2576   0.046   1.515   1.566  0.1634 -2.0529 -0.1022
  113DG      C1 2577   0.055   0.104   4.223  0.0822  0.1738 -0.5381
  113DG      C2 2578  -0.038   0.100   4.982 -0.1269  0.0458  0.2631
  113DG      H3 2579   0.060   0.045   4.132  0.9593 -1.5316  0.5667
  113DG      H4 2580   0.157   0.129   4.251  0.0102 -0.3471  0.2291
  113DG      H5 2581  -0.009   0.189   4.200 -0.2993 -0.4547 -1.8810
  113DG      H6 2582  -0.101   0.182   4.948 -0.9645 -0.1624  1.2469
  113DG      H7 2583  -0.089   0.043   5.061 -1.6769 -0.2361 -0.8881
  113DG      H8 2584   0.057   0.144   5.013 -0.3047  1.1880 -0.7293
  113DG      O9 2585  -0.007   0.028   4.326  0.2003 -0.2759 -0.1092
  113DG     O10 2586  -0.003   0.010   4.878  0.2246  0.1750  0.1791
  113DG     C11 2587   0.075  -0.072   4.382 -0.1974 -0.3373  0.1656
  113DG     C12 2588  -0.125  -0.047   4.820 -0.1797  0.3581  0.1080
  113DG     H13 2589   0.170  -0.034   4.418  0.4185 -2.6379  1.1499
  113DG     H14 2590   0.095  -0.146   4.304  0.3286  0.4324 -0.4482
  113DG     H15 2591  -0.188   0.029   4.774  0.3390  0.6742 -0.0884
  113DG     H16 2592  -0.182  -0.106   4.892 -0.2055  0.6382  0.3197
  113DG     C17 2593   0.014  -0.157   4.497 -0.6803 -0.3289 -0.1942
  113DG     C18 2594  -0.070  -0.146   4.707 -0.4469 -0.0409 -0.5985
  113DG     O19 2595  -0.018  -0.073   4.609 -0.3941 -0.8246 -0.1017
  113DG     H20 2596   0.089  -0.234   4.516 -0.7696 -0.3158  0.2250
  113DG     H21 2597  -0.066  -0.220   4.457 -0.2332  0.6090 -2.7420
  113DG     H22 2598   0.007  -0.215   4.742  1.5058  1.4876 -1.6855
  113DG     H23 2599  -0.154  -0.197   4.661  0.1432 -0.4936 -1.1930
  114DG      C1 2600   1.477   0.206   2.327 -0.0443  0.1423  0.9993
  114DG      C2 2601   1.726   0.542   2.579 -0.0885 -0.2563  0.3657
  114DG      H3 2602   1.582   0.220   2.301  0.1692 -4.5518 -1.6497
  114DG      H4 2603   1.428   0.291   2.375 -0.1453  0.0152  1.1204
  114DG      H5 2604   1.424   0.203   2.232  0.7739  1.9455  0.4463
  114DG      H6 2605   1.815   0.603   2.560  0.9853 -2.3895 -1.9027
  114DG      H7 2606   1.753   0.444   2.618  0.7438  0.5167  1.8142
  114DG      H8 2607   1.674   0.523   2.485  0.6234  0.9106 -0.2866
  114DG      O9 2608   1.477   0.100   2.421 -0.6197  0.5005  0.1577
  114DG     O10 2609   1.631   0.600   2.674 -0.8119 -0.4954 -0.6725
  114DG     C11 2610   1.552   0.115   2.538 -0.5577 -0.1633  0.3201
  114DG     C12 2611   1.501   0.558   2.679  0.3523 -0.1505 -0.0513
  114DG     H13 2612   1.649   0.156   2.513 -1.3871  0.5948 -1.8661
  114DG     H14 2613   1.570   0.013   2.572  0.0419 -1.0197 -2.3509
  114DG     H15 2614   1.450   0.587   2.587 -1.6904  1.1087  1.4063
  114DG     H16 2615   1.453   0.617   2.756  1.4602  1.0190 -0.2114
  114DG     C17 2616   1.481   0.204   2.645  0.6994 -0.8094 -0.4962
  114DG     C18 2617   1.467   0.416   2.723 -0.3625  0.2023  0.0528
  114DG     O19 2618   1.486   0.338   2.607  0.1642  0.0772  0.7114
  114DG     H20 2619   1.516   0.175   2.745 -2.0618 -0.9729  0.5146
  114DG     H21 2620   1.376   0.175   2.649  0.8421 -1.3265 -0.3941
  114DG     H22 2621   1.541   0.389   2.798  1.6095  2.1682 -1.0351
  114DG     H23 2622   1.365   0.415   2.760 -0.8336 -0.8424 -1.2028
  115DG      C1 2623   1.404   0.103   5.122  0.6909 -0.3837  0.4837
  115DG      C2 2624   1.706  -0.239   5.517  0.5444  0.1956  0.1601
  115DG      H3 2625   1.386   0.176   5.042 -0.2879 -1.1466 -0.0084
  115DG      H4 2626   1.387   0.148   5.219 -1.5194 -0.5388  0.2124
  115DG      H5 2627   1.329   0.024   5.116  0.5090 -0.1616 -0.3547
  115DG      H6 2628   1.745  -0.207   5.614 -0.4903  1.7668  0.1078
  115DG      H7 2629   1.605  -0.276   5.536  0.5281  0.9557  1.6693
  115DG      H8 2630   1.761  -0.322   5.475 -2.0628 -1.7799  0.4067
  115DG      O9 2631   1.537   0.066   5.127 -0.2412  0.1606 -0.2896
  115DG     O10 2632   1.693  -0.127   5.432  0.6086  0.0387 -0.9365
  115DG     C11 2633   1.633   0.175   5.106  0.2441  0.4157 -0.0284
  115DG     C12 2634   1.808  -0.043   5.439 -0.5082 -0.2544  0.2819
  115DG     H13 2635   1.631   0.255   5.180  0.1759  1.3763 -1.0371
  115DG     H14 2636   1.615   0.233   5.015 -0.3497  1.9213  1.0071
  115DG     H15 2637   1.899  -0.101   5.421 -0.9564 -0.6397 -0.7805
  115DG     H16 2638   1.821   0.012   5.533  1.0239  0.1736 -0.1501
  115DG     C17 2639   1.769   0.111   5.100  0.2686 -0.9123  0.4116
  115DG     C18 2640   1.788   0.064   5.334  0.1134  0.5062 -0.1429
  115DG     O19 2641   1.782   0.013   5.204  0.6671 -0.6202 -0.0609
  115DG     H20 2642   1.850   0.182   5.113  0.3767 -1.4558  3.2461
  115DG     H21 2643   1.775   0.062   5.002 -0.6660 -1.9404  0.8407
  115DG     H22 2644   1.709   0.133   5.364 -0.5109 -0.3345  0.1949
  115DG     H23 2645   1.879   0.124   5.345 -0.6016  1.4905  0.6511
  116DG      C1 2646   4.071   1.623   0.397 -0.1618  0.3300  0.3025
  116DG      C2 2647   3.674   1.219   0.786  0.7134  0.8677  0.0617
  116DG      H3 2648   4.055   1.719   0.348 -1.7543 -0.3356 -0.5323
  116DG      H4 2649   4.153   1.571   0.347  0.5042  0.9535  0.7108
  116DG      H5 2650   4.105   1.641   0.499  0.8718 -1.1132  0.2399
  116DG      H6 2651   3.734   1.129   0.779 -1.7929 -1.1198  2.3200
  116DG      H7 2652   3.738   1.257   0.866 -0.2049  0.3225  1.0751
  116DG      H8 2653   3.583   1.181   0.831 -0.3501  0.9970 -1.8739
  116DG      O9 2654   3.948   1.557   0.415 -0.1165  0.0695  0.0966
  116DG     O10 2655   3.668   1.310   0.677 -0.2346 -0.0383 -0.1774
  116DG     C11 2656   3.907   1.484   0.296  0.2068 -0.0828 -0.5142
  116DG     C12 2657   3.615   1.249   0.558  0.6289  0.5310 -0.0068
  116DG     H13 2658   3.952   1.385   0.300 -1.6995 -0.9763  0.4568
  116DG     H14 2659   3.939   1.539   0.208  2.6891 -1.5758 -0.6495
  116DG     H15 2660   3.518   1.213   0.591  1.1653 -0.3171  0.6838
  116DG     H16 2661   3.681   1.168   0.525 -0.8722 -0.6013 -0.3484
  116DG     C17 2662   3.751   1.474   0.307  0.2181 -0.5573  0.2495
  116DG     C18 2663   3.606   1.348   0.444  0.3439  0.5278 -0.7436
  116DG     O19 2664   3.736   1.392   0.422  0.7567 -0.1623 -0.1140
  116DG     H20 2665   3.708   1.424   0.220  1.7050  0.2200 -0.9793
  116DG     H21 2666   3.699   1.570   0.313  1.7455  0.3825 -0.9009
  116DG     H22 2667   3.554   1.291   0.367 -0.6723 -1.1461  1.0981
  116DG     H23 2668   3.529   1.417   0.478  0.7325  0.2508  0.7707
  117DG      C1 2669   2.515   3.664   2.454 -0.2453  0.1783  0.2501
  117DG      C2 2670   1.979   4.142   2.269  0.2157 -0.3366 -0.0404
  117DG      H3 2671   2.552   3.601   2.535  1.6258  1.0749  0.1459
  117DG      H4 2672   2.600   3.727   2.429 -0.5995  0.3962 -0.4283
  117DG      H5 2673   2.484   3.593   2.378 -0.0136 -2.4918  2.4681
  117DG      H6 2674   1.981   4.058   2.199 -1.8159  0.8204 -1.5947
  117DG      H7 2675   1.873   4.160   2.283 -0.0874 -1.2781 -1.0351
  117DG      H8 2676   2.025   4.229   2.222 -2.5628  0.7520 -0.9333
  117DG      O9 2677   2.399   3.734   2.488  0.4435 -0.4436 -0.1095
  117DG     O10 2678   2.045   4.099   2.394 -0.0329  0.8500 -0.5741
  117DG     C11 2679   2.409   3.830   2.596  1.0621  0.4686  0.7526
  117DG     C12 2680   1.979   3.986   2.448 -0.3961 -0.1543  0.6225
  117DG     H13 2681   2.466   3.914   2.557 -0.1825  1.7668  1.6263
  117DG     H14 2682   2.454   3.784   2.684 -0.5345  0.6055  1.6690
  117DG     H15 2683   1.960   3.916   2.366 -1.1459  1.7001 -0.8515
  117DG     H16 2684   1.879   4.013   2.480 -1.5120 -0.9588 -1.9065
  117DG     C17 2685   2.277   3.888   2.641 -0.1517  0.2596 -0.2032
  117DG     C18 2686   2.057   3.933   2.569  0.0258 -0.2817  0.5139
  117DG     O19 2687   2.193   3.911   2.526 -0.3539  0.2270 -0.0413
  117DG     H20 2688   2.292   3.979   2.698  1.6341 -0.6691  0.8665
  117DG     H21 2689   2.231   3.815   2.709 -0.9160  1.6909  0.8647
  117DG     H22 2690   2.042   4.001   2.653 -2.3113  0.7884 -0.6774
  117DG     H23 2691   2.012   3.840   2.603  0.0753 -1.6200 -2.6949
  118DG      C1 2692   1.996   5.017   4.678  0.0669 -0.5055 -0.2232
  118DG      C2 2693   2.481   4.391   4.755  0.2275 -0.2173 -0.7129
  118DG      H3 2694   2.015   5.092   4.600 -0.8619 -0.5528 -0.5028
  118DG      H4 2695   1.966   5.085   4.758  1.9051  1.6238 -1.2102
  118DG      H5 2696   1.903   4.969   4.648  0.5337 -0.8725 -1.1272
  118DG      H6 2697   2.486   4.332   4.846  0.0436 -0.0131 -0.5683
  118DG      H7 2698   2.436   4.328   4.678  0.9462  0.1076 -1.4087
  118DG      H8 2699   2.585   4.403   4.727  0.6345 -2.4229 -0.2755
  118DG      O9 2700   2.094   4.922   4.710 -0.2502 -0.0530  0.1734
  118DG     O10 2701   2.405   4.510   4.778 -0.6296 -0.3834 -0.7559
  118DG     C11 2702   2.208   4.987   4.766  0.3417 -0.6566 -0.1217
  118DG     C12 2703   2.465   4.603   4.868 -0.4885  0.2452  0.3214
  118DG     H13 2704   2.188   5.090   4.794 -1.6719 -0.5124 -1.8100
  118DG     H14 2705   2.280   4.991   4.684  1.7392 -0.9441  1.0415
  118DG     H15 2706   2.551   4.646   4.817 -0.9516  0.5703 -0.1895
  118DG     H16 2707   2.507   4.556   4.957 -2.2358  0.1381  1.1329
  118DG     C17 2708   2.264   4.902   4.882  0.3822 -0.3963  0.0648
  118DG     C18 2709   2.375   4.710   4.927 -0.5513 -0.0343  0.4229
  118DG     O19 2710   2.318   4.786   4.819  0.2759 -0.1333 -0.0358
  118DG     H20 2711   2.186   4.884   4.955 -0.2432 -0.3854 -0.5867
  118DG     H21 2712   2.342   4.961   4.931  0.6476 -1.1190  0.5236
  118DG     H22 2713   2.300   4.658   4.988 -0.8472 -1.2356 -0.9178
  118DG     H23 2714   2.442   4.767   4.991 -1.3860 -0.2325  1.5040
  119DG      C1 2715   2.403   3.353   5.126  0.3156  0.1502 -0.4446
  119DG      C2 2716   1.908   3.315   4.768 -0.2056 -0.4920  0.4175
  119DG      H3 2717   2.461   3.407   5.201  2.4459 -1.5983 -0.7254
  119DG      H4 2718   2.465   3.300   5.054 -1.3846 -1.3715 -0.8585
  119DG      H5 2719   2.364   3.264   5.175 -1.1438  0.9161 -0.1563
  119DG      H6 2720   1.802   3.304   4.747 -0.0348 -0.2682 -0.5971
  119DG      H7 2721   1.959   3.226   4.732  0.8170  1.0213 -2.1180
  119DG      H8 2722   1.920   3.300   4.876 -0.9088  0.1967  0.6059
  119DG      O9 2723   2.301   3.429   5.063 -0.2020  0.2307 -0.1274
  119DG     O10 2724   1.957   3.440   4.715  0.2708 -0.1266  0.4350
  119DG     C11 2725   2.239   3.521   5.150 -0.0319  0.3075 -0.7917
  119DG     C12 2726   1.899   3.546   4.792  0.1184 -0.4447  0.3452
  119DG     H13 2727   2.306   3.579   5.213 -1.0503  0.3057  0.3293
  119DG     H14 2728   2.168   3.466   5.212  0.1976 -1.9850 -2.4255
  119DG     H15 2729   1.816   3.518   4.856  1.3842 -2.7366  1.1031
  119DG     H16 2730   1.864   3.614   4.715 -1.3915 -1.4844  0.0849
  119DG     C17 2731   2.160   3.613   5.057  0.4224 -0.1821  0.4249
  119DG     C18 2732   2.006   3.620   4.877  0.0451 -0.2965  0.6554
  119DG     O19 2733   2.058   3.547   4.980  0.0453  0.2336  0.2877
  119DG     H20 2734   2.227   3.659   4.984 -0.3184  0.1941 -0.0366
  119DG     H21 2735   2.104   3.684   5.118  2.0143  1.3244  0.2213
  119DG     H22 2736   2.083   3.657   4.810 -0.4395  0.4100  0.4745
  119DG     H23 2737   1.956   3.712   4.910 -0.6456  0.1242 -1.4151
  120DG      C1 2738   4.830   2.191   5.291 -0.1930 -0.2532 -0.3032
  120DG      C2 2739   5.351   2.643   5.337 -0.1518 -0.0851  0.3523
  120DG      H3 2740   4.748   2.256   5.318 -1.4641 -2.9549  3.0496
  120DG      H4 2741   4.791   2.095   5.326 -0.7113 -0.4109 -1.2858
  120DG      H5 2742   4.823   2.187   5.182 -0.2151  0.8158 -0.3431
  120DG      H6 2743   5.274   2.707   5.292 -0.0591 -0.1563  0.0940
  120DG      H7 2744   5.389   2.698   5.423 -1.0970  2.9639 -1.0424
  120DG      H8 2745   5.436   2.638   5.269  0.0642  1.6273  0.4494
  120DG      O9 2746   4.962   2.220   5.338 -0.2092  0.2089  0.1242
  120DG     O10 2747   5.295   2.519   5.373  0.0227  0.5764 -0.1174
  120DG     C11 2748   5.056   2.135   5.277  0.1394 -0.0002  0.7289
  120DG     C12 2749   5.401   2.425   5.401  0.0688  0.2275  0.3310
  120DG     H13 2750   5.084   2.161   5.175  2.3132  0.0744  1.2756
  120DG     H14 2751   5.016   2.034   5.270  0.9844 -0.5628  3.0024
  120DG     H15 2752   5.472   2.455   5.478  1.2540  0.3795 -0.7891
  120DG     H16 2753   5.466   2.428   5.313  3.3540  2.5224  2.5812
  120DG     C17 2754   5.193   2.123   5.350  0.1111 -0.5952  1.0824
  120DG     C18 2755   5.346   2.284   5.442 -0.1135 -0.1962 -0.4811
  120DG     O19 2756   5.238   2.260   5.359 -0.3896  0.3309  0.0615
  120DG     H20 2757   5.260   2.053   5.301 -0.0223  0.8471 -1.3642
  120DG     H21 2758   5.179   2.082   5.449 -3.0491 -0.3388  0.8534
  120DG     H22 2759   5.414   2.200   5.429 -0.0036 -0.2769  0.5335
  120DG     H23 2760   5.316   2.273   5.546  1.4700 -0.2085  0.0030
  121DG      C1 2761   1.166   3.706   0.063  0.4589  0.6995 -0.5812
  121DG      C2 2762   1.660   4.212   0.641  0.8467  0.0553 -0.5578
  121DG      H3 2763   1.076   3.647   0.050  0.8033 -0.3643  1.5220
  121DG      H4 2764   1.244   3.630   0.057 -0.3433 -0.0153 -3.0839
  121DG      H5 2765   1.177   3.763  -0.030 -0.2560  1.1427 -0.3998
  121DG      H6 2766   1.647   4.198   0.748 -0.4600 -2.2461 -0.9655
  121DG      H7 2767   1.764   4.193   0.616  0.4754 -1.1302 -1.2922
  121DG      H8 2768   1.627   4.315   0.627 -0.0466  0.4064  3.0970
  121DG      O9 2769   1.157   3.780   0.179  0.0437  0.5309  0.1552
  121DG     O10 2770   1.573   4.124   0.580 -0.4950 -0.0191 -0.3778
  121DG     C11 2771   1.260   3.877   0.195  0.0246 -0.2079 -0.6300
  121DG     C12 2772   1.435   4.157   0.569 -0.7159  0.5873  0.4431
  121DG     H13 2773   1.242   3.958   0.125  1.4604 -0.3354 -1.1797
  121DG     H14 2774   1.359   3.839   0.171 -0.2346 -0.3467 -1.5252
  121DG     H15 2775   1.425   4.255   0.522  2.9895  0.4020 -1.1285
  121DG     H16 2776   1.397   4.178   0.669 -3.0034  0.8677 -0.4373
  121DG     C17 2777   1.251   3.923   0.342  0.1568 -0.0801  0.5492
  121DG     C18 2778   1.350   4.042   0.521  0.9281  0.0147 -0.9756
  121DG     O19 2779   1.366   4.004   0.388 -0.0610  0.8007 -0.4484
  121DG     H20 2780   1.230   3.836   0.404  0.1168 -0.7205 -0.3328
  121DG     H21 2781   1.159   3.978   0.359 -0.1050 -0.2103 -0.3910
  121DG     H22 2782   1.369   3.961   0.592 -1.1390  0.6058  0.3275
  121DG     H23 2783   1.246   4.061   0.547  1.9575  0.2753  3.9414
  122DG      C1 2784   3.303   0.397   0.014 -0.0818 -0.1756  0.0805
  122DG      C2 2785   3.896   0.462   0.338 -0.0307 -0.3410 -0.4123
  122DG      H3 2786   3.220   0.458   0.049 -0.8059 -1.1509  0.1163
  122DG      H4 2787   3.260   0.308  -0.031  1.7989 -1.2963  0.3953
  122DG      H5 2788   3.359   0.458  -0.057 -2.7546  2.1970 -0.1816
  122DG      H6 2789   3.900   0.562   0.295  1.4348  0.9089  2.3649
  122DG      H7 2790   3.925   0.468   0.443 -0.8461  1.2106 -0.2468
  122DG      H8 2791   3.971   0.403   0.285 -1.2038 -2.6304  0.3127
  122DG      O9 2792   3.385   0.343   0.112  0.0866 -0.4612  0.2891
  122DG     O10 2793   3.766   0.406   0.332 -0.2214 -0.1173 -0.1077
  122DG     C11 2794   3.304   0.273   0.208  0.1060 -0.0809 -0.2045
  122DG     C12 2795   3.765   0.272   0.378 -0.4366  0.1739 -0.4331
  122DG     H13 2796   3.243   0.190   0.173 -2.4274  0.7582  1.9329
  122DG     H14 2797   3.238   0.346   0.254  0.0837 -1.4553  2.0986
  122DG     H15 2798   3.823   0.267   0.470 -1.2678  1.9363  0.2307
  122DG     H16 2799   3.823   0.216   0.304 -1.2653  0.6266 -1.4560
  122DG     C17 2800   3.403   0.214   0.302 -0.3646 -0.0842 -0.8446
  122DG     C18 2801   3.621   0.216   0.405 -0.4119  0.4697 -0.2692
  122DG     O19 2802   3.528   0.289   0.321 -0.3724 -0.1902 -0.4560
  122DG     H20 2803   3.415   0.108   0.279 -1.1483 -0.1344 -1.0645
  122DG     H21 2804   3.353   0.206   0.399  2.6729 -1.1850  0.7577
  122DG     H22 2805   3.613   0.111   0.379  2.3058 -0.1809  1.1875
  122DG     H23 2806   3.591   0.235   0.509 -1.4537  1.8144 -0.7825
  123DG      C1 2807   2.211   1.089   0.999  0.0385 -0.3077  0.2828
  123DG      C2 2808   2.169   0.602   0.709  0.4025 -0.4130 -0.3487
  123DG      H3 2809   2.221   1.196   1.019  2.0961 -0.9134  3.2333
  123DG      H4 2810   2.195   1.042   1.096  0.5780 -1.2987 -0.0956
  123DG      H5 2811   2.121   1.076   0.939  1.5635 -3.8261 -1.5022
  123DG      H6 2812   2.077   0.584   0.652 -1.7707 -0.1206  2.8107
  123DG      H7 2813   2.169   0.570   0.813  2.8573  2.3472  0.6133
  123DG      H8 2814   2.174   0.710   0.700 -2.2440 -0.2851 -1.3116
  123DG      O9 2815   2.314   1.014   0.940 -0.5392 -0.0545  0.7293
  123DG     O10 2816   2.281   0.543   0.647 -0.2706 -0.0968 -0.0864
  123DG     C11 2817   2.355   1.059   0.808  0.1836 -0.1193 -0.6104
  123DG     C12 2818   2.402   0.580   0.716  0.5568 -0.3320 -0.1437
  123DG     H13 2819   2.426   1.140   0.826 -1.8537  1.3987  1.2691
  123DG     H14 2820   2.264   1.093   0.757  0.3718  2.5310  0.6195
  123DG     H15 2821   2.475   0.506   0.681 -0.3390 -0.5167 -1.7437
  123DG     H16 2822   2.394   0.554   0.821 -3.8150 -2.6282 -0.8064
  123DG     C17 2823   2.429   0.949   0.732 -0.4568 -0.2946 -0.0007
  123DG     C18 2824   2.448   0.727   0.681 -0.5335  0.6115 -0.8165
  123DG     O19 2825   2.377   0.824   0.760 -0.2295  1.0273 -0.5562
  123DG     H20 2826   2.535   0.950   0.756 -0.9347 -0.8931  2.3698
  123DG     H21 2827   2.425   0.977   0.627 -2.9969  1.1783  0.4087
  123DG     H22 2828   2.554   0.737   0.702 -0.6058 -0.5884  0.2799
  123DG     H23 2829   2.419   0.741   0.577  2.5252  3.2519 -1.4642
  124DG      C1 2830   2.366   4.853   4.447 -0.2543  0.3107  0.6752
  124DG      C2 2831   1.942   4.521   4.890 -0.6369  0.3358 -0.4740
  124DG      H3 2832   2.347   4.961   4.440 -0.1609  0.2620 -0.6875
  124DG      H4 2833   2.442   4.814   4.380  0.0389 -2.6426  2.5770
  124DG      H5 2834   2.426   4.849   4.537 -0.7514  0.7857  1.0356
  124DG      H6 2835   1.865   4.598   4.900 -2.2492 -1.4066  1.4216
  124DG      H7 2836   1.904   4.419   4.884  0.8166 -0.1392 -3.3533
  124DG      H8 2837   2.006   4.535   4.977 -2.2510 -0.0281  0.8315
  124DG      O9 2838   2.252   4.770   4.460  0.4533  0.4459  0.5455
  124DG     O10 2839   2.005   4.534   4.761  0.5618  0.1002  0.0915
  124DG     C11 2840   2.170   4.759   4.345 -0.0077  0.3660  0.1877
  124DG     C12 2841   1.906   4.545   4.660  0.4355  0.1406  0.5320
  124DG     H13 2842   2.219   4.689   4.277 -0.0986 -0.4003  0.9005
  124DG     H14 2843   2.162   4.852   4.288  1.5756  0.5568  0.2307
  124DG     H15 2844   1.853   4.640   4.656 -1.5268 -0.9273 -0.2649
  124DG     H16 2845   1.844   4.459   4.684 -0.6476  1.1363  1.4345
  124DG     C17 2846   2.035   4.703   4.380 -0.3463  0.5274 -0.0780
  124DG     C18 2847   1.963   4.513   4.517  0.3302 -0.8482 -0.2643
  124DG     O19 2848   2.051   4.615   4.481 -0.2448 -0.0167  0.0950
  124DG     H20 2849   1.996   4.647   4.295 -1.0638 -0.5010  0.9005
  124DG     H21 2850   1.969   4.784   4.412 -2.3023 -1.0995  0.2344
  124DG     H22 2851   2.014   4.417   4.518 -0.7640 -1.4526  1.2734
  124DG     H23 2852   1.890   4.513   4.437  1.0288  2.4319 -1.0851
  125DG      C1 2853   4.604   2.090   4.431 -0.2776 -0.3125 -0.4156
  125DG      C2 2854   4.875   1.603   4.696  0.8852  0.2933 -0.1389
  125DG      H3 2855   4.535   2.166   4.393  0.4820  0.4627 -0.2799
  125DG      H4 2856   4.646   2.047   4.340 -1.1088 -1.5223 -0.2440
  125DG      H5 2857   4.687   2.138   4.484  0.3604 -1.9119  0.0882
  125DG      H6 2858   4.884   1.500   4.731  0.1862  0.5090  0.7034
  125DG      H7 2859   4.893   1.594   4.588  1.5547  0.8338 -0.0764
  125DG      H8 2860   4.954   1.666   4.734  3.2544 -2.5884  0.0805
  125DG      O9 2861   4.553   2.002   4.525  0.5548 -0.0558  0.4747
  125DG     O10 2862   4.751   1.672   4.711 -0.3193  0.0024 -0.0341
  125DG     C11 2863   4.425   1.948   4.496  0.2356 -0.3981  0.1142
  125DG     C12 2864   4.645   1.588   4.667  0.6881 -0.0457 -0.0066
  125DG     H13 2865   4.427   1.912   4.393 -1.6260 -3.2707  0.9724
  125DG     H14 2866   4.346   2.023   4.504  0.3576 -0.2485 -0.0703
  125DG     H15 2867   4.643   1.492   4.719 -0.4442  0.4864  0.9855
  125DG     H16 2868   4.649   1.567   4.560  0.2089 -2.3319  0.3691
  125DG     C17 2869   4.401   1.842   4.596  0.1311  0.1016  0.5827
  125DG     C18 2870   4.522   1.661   4.700 -0.3607 -0.3510  0.5731
  125DG     O19 2871   4.520   1.765   4.604  0.2848 -0.2997  1.1955
  125DG     H20 2872   4.316   1.781   4.566  1.9748 -1.7315 -1.2727
  125DG     H21 2873   4.386   1.891   4.693  1.0081  1.5442  0.0224
  125DG     H22 2874   4.425   1.610   4.695 -1.7705  2.2586 -0.8648
  125DG     H23 2875   4.521   1.719   4.792 -1.9180  1.8542 -0.7372
  126DG      C1 2876   5.446   0.815   3.375 -0.4937  0.2221 -0.1693
  126DG      C2 2877   4.826   0.556   3.487  0.3338 -0.2266  0.1520
  126DG      H3 2878   5.416   0.875   3.289  1.3538 -0.8812 -1.6786
  126DG      H4 2879   5.555   0.811   3.369 -0.0916  3.7377  1.9578
  126DG      H5 2880   5.420   0.874   3.463 -1.5996  1.2144 -1.1294
  126DG      H6 2881   4.763   0.494   3.551  1.4446  0.0884  1.5980
  126DG      H7 2882   4.823   0.660   3.520 -1.1838  0.4333 -1.8469
  126DG      H8 2883   4.791   0.563   3.384 -0.3356 -0.7259  0.3420
  126DG      O9 2884   5.386   0.683   3.385  0.1808  0.7546  0.9816
  126DG     O10 2885   4.965   0.507   3.482 -0.3541  0.1714 -0.5084
  126DG     C11 2886   5.400   0.584   3.294 -0.4895  0.0947  0.2551
  126DG     C12 2887   4.979   0.392   3.397  0.6960 -0.5174 -0.2017
  126DG     H13 2888   5.507   0.582   3.274 -0.2511 -1.2242  1.4804
  126DG     H14 2889   5.344   0.614   3.206 -3.0076 -1.2119  1.3008
  126DG     H15 2890   4.927   0.395   3.301 -0.1834 -2.6049  0.1580
  126DG     H16 2891   4.927   0.307   3.441 -0.2013 -0.3089 -0.8272
  126DG     C17 2892   5.342   0.455   3.349 -0.6124  0.5260 -0.5661
  126DG     C18 2893   5.127   0.355   3.374 -0.3399 -0.5304  0.3673
  126DG     O19 2894   5.203   0.472   3.350 -0.3060  0.0211  0.6011
  126DG     H20 2895   5.380   0.436   3.449  0.4877  0.3115 -1.0057
  126DG     H21 2896   5.379   0.380   3.279 -0.2325  1.5495 -1.4964
  126DG     H22 2897   5.161   0.314   3.469  1.0911  1.0513  0.5753
  126DG     H23 2898   5.148   0.276   3.301  0.2315 -0.6132  0.6169
  127DG      C1 2899   1.959   4.298   0.896  0.1255  0.0454  0.4602
  127DG      C2 2900   1.276   4.032   0.869 -0.6689  0.4165  0.8699
  127DG      H3 2901   2.015   4.380   0.942  1.5172 -0.4038 -0.3967
  127DG      H4 2902   1.931   4.334   0.797  0.4982 -0.4965  0.1566
  127DG      H5 2903   2.030   4.216   0.889  0.9727  0.5385  2.6305
  127DG      H6 2904   1.349   3.970   0.817 -0.0043 -0.3585  2.6516
  127DG      H7 2905   1.211   3.957   0.913 -2.0014 -0.5210 -2.4152
  127DG      H8 2906   1.215   4.087   0.798  2.5153 -0.5010 -2.9717
  127DG      O9 2907   1.844   4.250   0.975 -0.1073  0.1749 -0.3537
  127DG     O10 2908   1.329   4.116   0.969  0.3746 -0.4976  0.2139
  127DG     C11 2909   1.750   4.355   1.003 -0.1496  0.8987 -0.5741
  127DG     C12 2910   1.390   4.042   1.070 -0.2394  0.3074  0.0899
  127DG     H13 2911   1.694   4.384   0.914 -0.1135 -0.8336 -1.1980
  127DG     H14 2912   1.795   4.448   1.039  0.5354  0.8950 -1.3985
  127DG     H15 2913   1.443   3.953   1.036 -0.6438 -1.1423  2.9276
  127DG     H16 2914   1.308   4.009   1.134 -0.2395 -1.3193 -0.6891
  127DG     C17 2915   1.654   4.307   1.109 -0.2554 -0.1512 -0.1321
  127DG     C18 2916   1.481   4.142   1.146  0.3018  0.1913  0.3115
  127DG     O19 2917   1.583   4.196   1.059  0.1090  0.0922  0.0607
  127DG     H20 2918   1.584   4.389   1.125 -1.1504 -0.7293 -0.9403
  127DG     H21 2919   1.708   4.289   1.201 -0.3295 -0.3433 -0.1261
  127DG     H22 2920   1.425   4.227   1.186  1.7978  0.6235  1.5864
  127DG     H23 2921   1.523   4.101   1.238  1.7381 -0.2356 -0.5118
  128DG      C1 2922   4.883   2.080   2.376  0.5646 -0.2303  0.5356
  128DG      C2 2923   5.326   1.782   2.877  0.8273  0.3082 -0.2062
  128DG      H3 2924   4.801   2.050   2.442  0.6656 -0.8780  0.3722
  128DG      H4 2925   4.860   2.061   2.271  1.5210  0.0705  0.2638
  128DG      H5 2926   4.908   2.186   2.382 -0.2467  0.0309 -0.4623
  128DG      H6 2927   5.226   1.738   2.876  1.2925 -0.8356  0.5884
  128DG      H7 2928   5.400   1.704   2.897 -1.5727 -2.3237 -0.9813
  128DG      H8 2929   5.307   1.832   2.972 -1.0933  0.5019 -0.6531
  128DG      O9 2930   4.995   2.009   2.407 -0.5459  0.5607 -0.6248
  128DG     O10 2931   5.361   1.847   2.757  0.5391  0.6224 -0.2312
  128DG     C11 2932   5.085   1.983   2.299 -0.6928  0.3925 -0.3631
  128DG     C12 2933   5.365   1.760   2.647  0.3384 -0.3564  0.5862
  128DG     H13 2934   5.095   2.077   2.244 -0.7883  0.9782  0.6022
  128DG     H14 2935   5.057   1.897   2.239  1.0963 -2.5544  2.7263
  128DG     H15 2936   5.283   1.689   2.648 -0.1481  0.1957  0.6479
  128DG     H16 2937   5.459   1.704   2.645 -0.5574 -1.8732 -1.5807
  128DG     C17 2938   5.225   1.965   2.363 -0.1899  1.1341  0.1194
  128DG     C18 2939   5.359   1.834   2.509  0.4506 -0.0688  0.7360
  128DG     O19 2940   5.222   1.867   2.472 -0.3078 -0.4734 -0.0138
  128DG     H20 2941   5.276   2.058   2.390 -0.5472  1.7118 -1.1342
  128DG     H21 2942   5.288   1.912   2.292 -0.8900 -0.3728  0.5653
  128DG     H22 2943   5.412   1.929   2.508 -0.4583  0.4648 -1.3723
  128DG     H23 2944   5.410   1.782   2.428  0.2185  0.9631 -0.0918
  129DG      C1 2945   1.491   2.371   3.875  0.1314  0.2450 -0.0708
  129DG      C2 2946   2.308   2.490   3.970 -0.0872  0.4659  0.2563
  129DG      H3 2947   1.477   2.331   3.976 -0.9788 -1.2843 -0.7844
  129DG      H4 2948   1.442   2.300   3.808 -2.0010  0.8286  0.7536
  129DG      H5 2949   1.451   2.472   3.876  3.3678  1.7661  3.5483
  129DG      H6 2950   2.386   2.436   3.915 -0.7498 -0.7087  0.4292
  129DG      H7 2951   2.323   2.597   3.956 -1.6752  1.0008  2.2190
  129DG      H8 2952   2.318   2.470   4.077 -1.4353 -0.6478  0.2057
  129DG      O9 2953   1.628   2.375   3.842 -0.2388  0.0003  0.0321
  129DG     O10 2954   2.184   2.455   3.916  0.2195 -0.3358  0.0097
  129DG     C11 2955   1.711   2.455   3.928  0.1927 -0.5247 -0.1578
  129DG     C12 2956   2.146   2.315   3.930  0.0327 -0.2878  0.1170
  129DG     H13 2957   1.705   2.414   4.029  1.0617  1.8025  0.9252
  129DG     H14 2958   1.666   2.554   3.925 -0.0710 -0.6301 -3.1931
  129DG     H15 2959   2.118   2.299   4.034 -0.7391 -0.6490 -0.1453
  129DG     H16 2960   2.230   2.245   3.925  0.2599  0.0456 -0.8181
  129DG     C17 2961   1.861   2.448   3.895 -0.3856 -0.6176 -0.0476
  129DG     C18 2962   2.021   2.281   3.842 -0.5329 -0.2512  0.3269
  129DG     O19 2963   1.892   2.310   3.899 -0.0889 -0.1106  0.3646
  129DG     H20 2964   1.920   2.509   3.964 -0.6468 -2.4475  1.9323
  129DG     H21 2965   1.881   2.494   3.799  0.9245  1.8393  1.2935
  129DG     H22 2966   2.034   2.323   3.742 -2.3225  0.6945  0.4469
  129DG     H23 2967   2.026   2.175   3.818 -0.9350 -1.3035  4.2054
  130DG      C1 2968   2.683   3.391   3.993  0.2612 -0.2390 -0.2493
  130DG      C2 2969   2.780   4.032   3.391 -0.1678  1.1081  0.2757
  130DG      H3 2970   2.753   3.346   4.063 -1.3709 -0.5749  1.2223
  130DG      H4 2971   2.728   3.361   3.898 -2.8782 -1.8499 -1.3885
  130DG      H5 2972   2.588   3.337   3.991  0.2154 -0.1705  0.0344
  130DG      H6 2973   2.810   4.136   3.396  2.5148  0.5696 -1.9213
  130DG      H7 2974   2.837   3.987   3.309 -0.7285  2.6463 -1.0197
  130DG      H8 2975   2.676   4.023   3.359  0.3616 -0.9285 -1.1050
  130DG      O9 2976   2.688   3.529   4.001 -0.7421  0.2747 -0.4774
  130DG     O10 2977   2.806   3.973   3.514 -0.3277  0.7103 -0.2764
  130DG     C11 2978   2.680   3.592   3.882  0.5346  0.1556  0.2633
  130DG     C12 2979   2.705   3.996   3.612 -0.2406 -0.0763 -0.1761
  130DG     H13 2980   2.580   3.586   3.838 -0.8632  0.7791  3.1502
  130DG     H14 2981   2.749   3.557   3.805 -1.2379 -0.0713 -1.2975
  130DG     H15 2982   2.623   3.940   3.567  0.1088 -1.3744  0.7676
  130DG     H16 2983   2.674   4.100   3.620 -0.8558 -0.0027 -2.5863
  130DG     C17 2984   2.707   3.743   3.891 -0.0006 -0.3726  0.6522
  130DG     C18 2985   2.739   3.938   3.753  0.4865  0.1265  0.2783
  130DG     O19 2986   2.696   3.801   3.762  0.2794 -0.6052  0.4401
  130DG     H20 2987   2.807   3.758   3.932  0.2037 -2.2005  0.9011
  130DG     H21 2988   2.633   3.787   3.958 -0.8303  0.8035 -0.9397
  130DG     H22 2989   2.836   3.975   3.788  0.2076  0.5619  0.5948
  130DG     H23 2990   2.660   3.984   3.813  1.5597  3.4055 -0.6199
  131DG      C1 2991   0.478   1.118   3.923 -0.7015  0.3668  0.5235
  131DG      C2 2992   0.645   1.548   3.406 -0.0154  0.0158  0.2041
  131DG      H3 2993   0.480   1.193   4.002  0.2325  0.2945  0.5821
  131DG      H4 2994   0.506   1.024   3.971  2.6428  1.2098  0.4334
  131DG      H5 2995   0.383   1.129   3.871  0.1733  1.3458 -0.9531
  131DG      H6 2996   0.608   1.582   3.503  0.2541  0.5437  0.1222
  131DG      H7 2997   0.685   1.635   3.355  0.7719 -1.4215 -1.7843
  131DG      H8 2998   0.563   1.521   3.340  0.5566  1.2167 -1.0334
  131DG      O9 2999   0.580   1.118   3.820  0.0070  0.5461 -0.4213
  131DG     O10 3000   0.720   1.436   3.422  0.6896  0.0481 -0.3670
  131DG     C11 3001   0.715   1.138   3.863  0.9526  0.3241  0.1005
  131DG     C12 3002   0.833   1.455   3.512 -0.4750  1.2589  0.3726
  131DG     H13 3003   0.746   1.042   3.905 -2.1376 -1.3100 -0.9621
  131DG     H14 3004   0.717   1.216   3.938 -1.2145  1.1481 -0.6029
  131DG     H15 3005   0.803   1.524   3.590 -0.9324  0.8886  0.5281
  131DG     H16 3006   0.913   1.492   3.448  1.3000  2.0322  2.8994
  131DG     C17 3007   0.806   1.172   3.746 -0.8317  0.0901  0.0908
  131DG     C18 3008   0.866   1.315   3.568  0.4724 -0.1507  1.1355
  131DG     O19 3009   0.774   1.293   3.678 -0.1819  0.5068 -0.2330
  131DG     H20 3010   0.804   1.090   3.674  0.3884  0.7353 -0.7196
  131DG     H21 3011   0.912   1.177   3.773 -1.2164  1.2625  1.5128
  131DG     H22 3012   0.862   1.242   3.487 -0.2441  0.9792  0.1083
  131DG     H23 3013   0.962   1.324   3.618  1.4692 -0.9286 -0.5548
  132DG      C1 3014   5.314   3.447   0.254  0.6714 -0.7093  0.6635
  132DG      C2 3015   4.933   3.091  -0.260 -0.2274  0.4923  0.3021
  132DG      H3 3016   5.404   3.389   0.235  0.7425  0.2284 -2.5540
  132DG      H4 3017   5.238   3.383   0.299  0.6243 -0.4017  1.0272
  132DG      H5 3018   5.331   3.532   0.321 -0.6996 -0.8612  1.2399
  132DG      H6 3019   4.893   3.038  -0.173 -4.5557  1.2656 -0.9984
  132DG      H7 3020   4.848   3.098  -0.328 -0.0357 -0.3042 -0.0241
  132DG      H8 3021   5.001   3.021  -0.307 -1.9494 -0.5284 -0.7866
  132DG      O9 3022   5.247   3.482   0.128  0.2356  0.1022 -0.1747
  132DG     O10 3023   4.986   3.219  -0.230 -0.6872 -0.6223 -0.6908
  132DG     C11 3024   5.124   3.547   0.138  0.1468  0.1212 -1.3028
  132DG     C12 3025   4.890   3.321  -0.207 -0.4702 -0.2168 -0.2474
  132DG     H13 3026   5.133   3.645   0.184  1.8131 -1.1610  1.3495
  132DG     H14 3027   5.059   3.496   0.210  1.1060 -0.3778 -0.7715
  132DG     H15 3028   4.836   3.300  -0.115  0.3654  0.6701  0.4698
  132DG     H16 3029   4.814   3.338  -0.283 -1.9313  0.3682  1.2697
  132DG     C17 3030   5.050   3.558   0.008  0.0298  0.4248  0.2980
  132DG     C18 3031   4.948   3.462  -0.180 -0.1109  0.2993 -0.3008
  132DG     O19 3032   5.022   3.442  -0.060 -0.0324  0.2062 -0.1529
  132DG     H20 3033   5.126   3.608  -0.051 -0.5763 -1.9717 -2.7694
  132DG     H21 3034   4.963   3.624   0.012  0.0175  0.4267  0.0369
  132DG     H22 3035   5.020   3.491  -0.256 -1.0779  1.8382 -0.6662
  132DG     H23 3036   4.862   3.528  -0.171  0.6175  1.0465  1.8430
  133DG      C1 3037   5.418   0.304   0.131 -0.0902  0.0777  0.8269
  133DG      C2 3038   5.597   0.042   0.878  0.0104 -0.4158  0.0166
  133DG      H3 3039   5.461   0.399   0.166  0.7051 -0.2165  0.6734
  133DG      H4 3040   5.325   0.330   0.080  0.9830  1.6004 -0.4900
  133DG      H5 3041   5.485   0.259   0.057 -1.1283  0.3698 -0.3284
  133DG      H6 3042   5.643   0.141   0.884  0.4488 -0.5269 -1.2343
  133DG      H7 3043   5.541   0.005   0.964 -1.7032  0.3675 -0.7029
  133DG      H8 3044   5.687  -0.013   0.853  0.4575  0.7417 -1.0817
  133DG      O9 3045   5.414   0.212   0.235 -0.2169  0.1128 -0.6444
  133DG     O10 3046   5.506   0.056   0.769 -0.2906  0.6985 -0.1005
  133DG     C11 3047   5.350   0.258   0.362  1.0564 -0.1021 -0.1168
  133DG     C12 3048   5.491  -0.068   0.696  0.1854 -0.3807  0.8057
  133DG     H13 3049   5.277   0.331   0.328  1.5784 -0.2951 -1.7366
  133DG     H14 3050   5.412   0.313   0.433  0.4048  0.3375  0.1222
  133DG     H15 3051   5.462  -0.154   0.757 -1.9470  0.3334  0.8740
  133DG     H16 3052   5.594  -0.088   0.667 -0.2630 -1.9887  0.2220
  133DG     C17 3053   5.294   0.129   0.440  0.4749 -0.0091 -0.9423
  133DG     C18 3054   5.398  -0.043   0.581 -0.3127 -0.3707 -0.1573
  133DG     O19 3055   5.411   0.087   0.521  0.7830  0.4187  0.0107
  133DG     H20 3056   5.257   0.043   0.384  0.7896 -0.1126 -0.9938
  133DG     H21 3057   5.213   0.160   0.507 -0.7401 -0.3176 -2.2092
  133DG     H22 3058   5.417  -0.122   0.508  1.6407 -0.1547  0.0627
  133DG     H23 3059   5.294  -0.059   0.610 -0.4500 -0.9218 -0.9305
  134DG      C1 3060   5.198   2.751   3.042 -0.8479 -0.0993 -0.4747
  134DG      C2 3061   5.549   2.987   3.564  0.0918 -0.1994  0.0421
  134DG      H3 3062   5.184   2.692   3.133  0.7328 -2.2057 -1.5016
  134DG      H4 3063   5.276   2.705   2.981  1.2807  1.0909  1.1703
  134DG      H5 3064   5.102   2.742   2.992 -2.0113 -2.5780  1.8853
  134DG      H6 3065   5.594   2.890   3.547 -1.5109 -1.0087  0.1701
  134DG      H7 3066   5.621   3.067   3.584 -2.6213  2.0805  1.5299
  134DG      H8 3067   5.478   2.983   3.647 -2.2462  3.1643 -1.5285
  134DG      O9 3068   5.247   2.882   3.077  0.4362  0.5659  0.2796
  134DG     O10 3069   5.464   3.021   3.449  0.1203  0.5658  0.0571
  134DG     C11 3070   5.142   2.977   3.083  0.8374  0.0257  0.2900
  134DG     C12 3071   5.406   3.148   3.450 -0.3600 -0.2964  0.4728
  134DG     H13 3072   5.055   2.945   3.139  0.5281 -1.4087 -0.9278
  134DG     H14 3073   5.103   3.009   2.986 -2.0846  1.3492  1.7965
  134DG     H15 3074   5.478   3.224   3.481 -0.5624 -0.7954  2.2452
  134DG     H16 3075   5.340   3.147   3.537  1.2390 -0.2619  1.7159
  134DG     C17 3076   5.202   3.109   3.136  0.1063  0.4745 -0.0639
  134DG     C18 3077   5.334   3.179   3.316  0.8140 -0.3419  0.0335
  134DG     O19 3078   5.241   3.079   3.271  0.1818 -0.2291 -0.0660
  134DG     H20 3079   5.133   3.193   3.143  3.0200  3.3848 -3.0136
  134DG     H21 3080   5.285   3.137   3.072 -0.0839 -0.8722 -0.9392
  134DG     H22 3081   5.279   3.273   3.327  0.7451 -0.6478  3.1884
  134DG     H23 3082   5.418   3.180   3.247 -0.9741 -0.4511 -2.2630
  135DG      C1 3083   2.151   4.557   0.531 -0.7506  0.2266  0.5589
  135DG      C2 3084   2.762   4.081   0.105  0.1446  0.3451 -1.0569
  135DG      H3 3085   2.064   4.491   0.533  0.2421 -1.1373  1.0158
  135DG      H4 3086   2.151   4.615   0.439 -0.8585  1.0114  1.0507
  135DG      H5 3087   2.134   4.634   0.606 -1.8065  1.0869 -0.5257
  135DG      H6 3088   2.859   4.051   0.145  0.1137  0.9680 -0.5028
  135DG      H7 3089   2.709   3.986   0.110 -0.8128  0.8947 -0.7373
  135DG      H8 3090   2.792   4.093   0.000  2.8105 -1.5466 -0.6204
  135DG      O9 3091   2.273   4.486   0.545 -0.4779  0.1600  0.2616
  135DG     O10 3092   2.701   4.193   0.170 -0.1287  0.5090  0.7843
  135DG     C11 3093   2.297   4.393   0.438  1.0314 -0.4465  0.3937
  135DG     C12 3094   2.566   4.210   0.138  0.2797  0.2246 -0.1125
  135DG     H13 3095   2.295   4.442   0.341 -1.2386 -1.8517 -0.3595
  135DG     H14 3096   2.214   4.324   0.419  0.7279  0.1391 -0.4438
  135DG     H15 3097   2.501   4.123   0.135  0.7774 -0.1727  0.5115
  135DG     H16 3098   2.571   4.250   0.037  1.6070  0.6499  0.1001
  135DG     C17 3099   2.434   4.329   0.459  0.2876  0.2545  0.7676
  135DG     C18 3100   2.504   4.307   0.236  0.3379 -0.0771  0.1844
  135DG     O19 3101   2.479   4.240   0.356 -0.2108 -0.6707 -0.2906
  135DG     H20 3102   2.433   4.270   0.550 -0.5070  2.2946  2.1658
  135DG     H21 3103   2.511   4.405   0.473  0.4288  0.3496 -0.4003
  135DG     H22 3104   2.570   4.393   0.248 -1.1061  1.1640 -0.3932
  135DG     H23 3105   2.409   4.340   0.194 -0.3941 -1.8892  0.3273
  136DG      C1 3106   1.717   1.420   5.044 -0.4613  0.1926  1.1690
  136DG      C2 3107   1.996   0.896   4.568 -0.2754 -0.5172 -0.4446
  136DG      H3 3108   1.805   1.439   5.106 -0.5898  0.1767  1.3587
  136DG      H4 3109   1.633   1.489   5.055 -1.1929 -0.6747  1.1094
  136DG      H5 3110   1.748   1.419   4.940  0.3920 -1.8306  1.4016
  136DG      H6 3111   2.085   0.951   4.538 -0.3291  0.3040  0.8253
  136DG      H7 3112   2.032   0.828   4.646  1.9136 -0.5726 -1.4483
  136DG      H8 3113   1.963   0.843   4.479  1.1938 -1.9145 -0.1972
  136DG      O9 3114   1.663   1.289   5.074 -0.3481 -0.2245  0.2416
  136DG     O10 3115   1.878   0.984   4.603 -0.0201  0.3397 -0.3848
  136DG     C11 3116   1.722   1.182   5.006 -0.2516 -0.4891  0.3010
  136DG     C12 3117   1.755   0.909   4.622 -0.9535 -0.3140  0.2326
  136DG     H13 3118   1.716   1.096   5.073 -0.6194 -0.9033 -0.2568
  136DG     H14 3119   1.829   1.194   4.989  0.0259  0.1953  2.2297
  136DG     H15 3120   1.789   0.820   4.675  0.7807 -0.7540 -1.5109
  136DG     H16 3121   1.717   0.889   4.522  0.9760  0.2754 -0.6651
  136DG     C17 3122   1.646   1.142   4.880 -0.1334  0.0092  0.4746
  136DG     C18 3123   1.646   0.993   4.692  0.2534  0.5104 -0.4227
  136DG     O19 3124   1.718   1.048   4.802  0.0551  0.3900 -0.2303
  136DG     H20 3125   1.630   1.230   4.819  0.2711  1.0948  1.8805
  136DG     H21 3126   1.547   1.099   4.899 -0.6704  0.9255 -0.2045
  136DG     H22 3127   1.604   1.069   4.626  1.4660 -1.0381 -3.1145
  136DG     H23 3128   1.569   0.924   4.726  1.6249  0.0912  2.1013
  137DG      C1 3129   4.860   1.272   0.850 -0.3677  0.1746 -1.3610
  137DG      C2 3130   4.749   1.562   0.215 -0.5060 -0.0232 -0.2036
  137DG      H3 3131   4.924   1.184   0.841  0.1709  0.6509 -2.4484
  137DG      H4 3132   4.820   1.301   0.753 -2.4693  0.0228 -0.5925
  137DG      H5 3133   4.786   1.249   0.927  1.2965  3.0183  1.2911
  137DG      H6 3134   4.728   1.643   0.146 -0.6627  0.1969  0.0997
  137DG      H7 3135   4.778   1.476   0.156 -1.0942  0.5843 -1.4158
  137DG      H8 3136   4.663   1.533   0.275 -0.0809 -1.1281 -0.1012
  137DG      O9 3137   4.950   1.368   0.904  0.3170 -0.1672 -0.6789
  137DG     O10 3138   4.855   1.608   0.306  0.5636  0.0865 -0.1666
  137DG     C11 3139   5.064   1.404   0.822  0.6233  0.2084 -0.4203
  137DG     C12 3140   4.906   1.498   0.389 -0.1821 -0.0529  0.4681
  137DG     H13 3141   5.106   1.316   0.774 -0.5786 -1.1951  0.9648
  137DG     H14 3142   5.140   1.440   0.891 -0.2323  0.2323  0.5307
  137DG     H15 3143   4.989   1.453   0.335  0.3105 -0.3519  1.4458
  137DG     H16 3144   4.831   1.423   0.411 -0.6560  0.7343  1.6416
  137DG     C17 3145   5.021   1.517   0.728  0.1155 -0.1521 -0.2375
  137DG     C18 3146   4.958   1.560   0.514 -0.0702  0.2559 -0.0702
  137DG     O19 3147   4.972   1.461   0.616  0.1643 -0.0050  0.1871
  137DG     H20 3148   5.104   1.585   0.708  1.6514 -2.4973 -2.6762
  137DG     H21 3149   4.939   1.574   0.771 -1.0119 -1.7020 -0.2291
  137DG     H22 3150   5.057   1.601   0.495 -0.0483  0.2143 -0.0481
  137DG     H23 3151   4.886   1.637   0.542 -1.3113 -0.9978  0.3099
  138DG      C1 3152   0.411   2.480   1.023 -0.3808 -0.1363  0.0537
  138DG      C2 3153   0.582   3.103   1.154  0.0552  0.2816 -0.4961
  138DG      H3 3154   0.429   2.415   0.937  1.8310 -1.3085  1.3240
  138DG      H4 3155   0.326   2.439   1.077 -2.3273  2.9379 -0.4094
  138DG      H5 3156   0.511   2.483   1.065  0.1048  2.0360 -1.0960
  138DG      H6 3157   0.596   3.209   1.132 -0.3711  0.5340  0.3905
  138DG      H7 3158   0.542   3.113   1.255 -0.2187  2.6139 -0.7910
  138DG      H8 3159   0.680   3.056   1.154  0.6657  1.4931  1.0990
  138DG      O9 3160   0.394   2.623   0.994 -0.0020  0.0450  0.0543
  138DG     O10 3161   0.508   3.029   1.061  0.4298  0.2827 -0.0897
  138DG     C11 3162   0.295   2.652   0.900 -0.1516 -0.2024 -0.1806
  138DG     C12 3163   0.404   3.101   0.997 -0.4516 -0.0900  0.0349
  138DG     H13 3164   0.202   2.657   0.956 -0.6794 -0.0904 -1.0536
  138DG     H14 3165   0.297   2.582   0.817 -2.2529 -0.1074 -0.3650
  138DG     H15 3166   0.446   3.188   0.947  2.3249 -1.5842 -0.4032
  138DG     H16 3167   0.333   3.126   1.076 -0.7432 -1.7383  0.3323
  138DG     C17 3168   0.312   2.791   0.828 -0.2711  0.3087 -0.3736
  138DG     C18 3169   0.333   3.016   0.888 -0.4534 -0.0502 -0.0280
  138DG     O19 3170   0.315   2.881   0.936 -0.1294 -0.1384 -0.9954
  138DG     H20 3171   0.233   2.805   0.754  0.0018 -0.2887 -0.7826
  138DG     H21 3172   0.411   2.786   0.781  0.0890 -2.6593  0.5294
  138DG     H22 3173   0.238   3.056   0.852 -0.2354  1.1580  0.6886
  138DG     H23 3174   0.397   3.021   0.800  0.0227 -0.0019  0.3156
  139DG      C1 3175   5.465   5.206   1.112  0.0406 -0.3438  0.2511
  139DG      C2 3176   5.780   5.119   1.801 -0.0721 -0.3344 -0.1748
  139DG      H3 3177   5.359   5.181   1.112 -0.1696  0.5412 -0.1623
  139DG      H4 3178   5.511   5.151   1.029 -0.8851  1.4834 -1.5496
  139DG      H5 3179   5.474   5.312   1.091 -1.6370 -0.4862 -1.4363
  139DG      H6 3180   5.784   5.209   1.861 -0.6833  0.8222 -1.7977
  139DG      H7 3181   5.702   5.048   1.828 -0.6438 -0.1531 -1.2765
  139DG      H8 3182   5.875   5.065   1.796  0.6449  0.8900 -0.0846
  139DG      O9 3183   5.513   5.176   1.237 -0.3447  0.0085 -0.3583
  139DG     O10 3184   5.753   5.158   1.666  0.1080 -0.4285  0.3949
  139DG     C11 3185   5.476   5.045   1.280  0.2378  0.8842  0.6020
  139DG     C12 3186   5.641   5.245   1.660 -0.3283  0.0612  0.0846
  139DG     H13 3187   5.496   4.963   1.212 -1.0062 -0.0581  1.3237
  139DG     H14 3188   5.368   5.040   1.294  0.3157 -1.5557  0.7311
  139DG     H15 3189   5.682   5.346   1.670  0.9949 -0.3021 -1.3249
  139DG     H16 3190   5.558   5.232   1.729 -1.7385 -0.0692 -1.5613
  139DG     C17 3191   5.560   5.021   1.409  1.1922 -0.2563  0.1699
  139DG     C18 3192   5.575   5.232   1.520 -0.3586  0.0764  0.5986
  139DG     O19 3193   5.520   5.099   1.519  0.2271  0.0170  0.4806
  139DG     H20 3194   5.663   5.042   1.381  0.4279 -0.0586 -2.7458
  139DG     H21 3195   5.559   4.915   1.433  1.8555  0.0145  1.4999
  139DG     H22 3196   5.498   5.308   1.506 -0.1965  0.2598  0.7006
  139DG     H23 3197   5.647   5.250   1.441  0.6367 -2.4099  0.8367
  140DG      C1 3198   0.995   0.532   0.315 -0.1874 -0.4248 -0.0149
  140DG      C2 3199   0.979   0.315   0.944  0.1474 -0.3503 -0.0472
  140DG      H3 3200   1.093   0.552   0.272 -0.7698  1.4718 -0.5310
  140DG      H4 3201   0.964   0.627   0.359 -0.1035 -0.5462  0.3082
  140DG      H5 3202   0.933   0.499   0.231  2.2025 -0.4359 -1.8884
  140DG      H6 3203   0.887   0.264   0.972 -0.2842  0.4354 -0.0085
  140DG      H7 3204   1.060   0.305   1.016 -0.5854 -0.6237  0.7524
  140DG      H8 3205   0.973   0.424   0.939  3.2222 -0.0945 -0.5129
  140DG      O9 3206   0.991   0.424   0.410  0.0818 -0.3218  0.0308
  140DG     O10 3207   1.005   0.284   0.811  0.4969 -0.5657  0.1387
  140DG     C11 3208   0.974   0.300   0.349  0.4657  0.1918  0.3595
  140DG     C12 3209   0.980   0.145   0.794  0.0453 -0.4296  0.0644
  140DG     H13 3210   1.015   0.297   0.248 -0.4076  0.0094  0.0012
  140DG     H14 3211   0.867   0.280   0.352  0.5184 -0.0307  0.8786
  140DG     H15 3212   0.874   0.119   0.795  0.1647 -0.9450 -0.0650
  140DG     H16 3213   1.033   0.079   0.862  0.3510 -1.2198 -0.9208
  140DG     C17 3214   1.033   0.188   0.430  0.3438 -0.4535 -0.4563
  140DG     C18 3215   1.036   0.110   0.653  0.1140  0.0448 -0.1222
  140DG     O19 3216   0.990   0.210   0.566 -0.2540 -0.5347 -0.0905
  140DG     H20 3217   1.142   0.189   0.430  0.3823 -0.1373  1.8568
  140DG     H21 3218   0.985   0.098   0.390 -1.8828  0.0561  0.8777
  140DG     H22 3219   1.143   0.090   0.653  0.2275  0.5606 -1.0726
  140DG     H23 3220   0.988   0.020   0.613 -0.8312  0.2725  0.4754
  141DG      C1 3221   2.619   0.674   1.515 -0.5065 -0.7438  0.7929
  141DG      C2 3222   2.663   0.923   2.229 -0.5733  0.3094  0.5898
  141DG      H3 3223   2.717   0.715   1.489 -0.4723 -1.7056 -0.7021
  141DG      H4 3224   2.545   0.723   1.453  1.0077 -0.6309 -1.0112
  141DG      H5 3225   2.629   0.566   1.503  1.0061 -0.6691  1.1894
  141DG      H6 3226   2.573   0.957   2.280 -0.6416  0.4641  0.3662
  141DG      H7 3227   2.746   0.952   2.294 -0.2530 -2.4937  1.5729
  141DG      H8 3228   2.666   0.971   2.131 -0.5519 -3.1048 -1.2462
  141DG      O9 3229   2.596   0.695   1.652 -0.3955 -0.0188 -0.3406
  141DG     O10 3230   2.666   0.784   2.200  0.8861  0.1158  0.4911
  141DG     C11 3231   2.626   0.822   1.705  0.0473 -0.6231  0.1450
  141DG     C12 3232   2.540   0.725   2.167 -0.5975 -0.7725  0.1486
  141DG     H13 3233   2.606   0.895   1.627  0.2092 -1.7476 -0.9800
  141DG     H14 3234   2.727   0.836   1.744  0.3600 -0.5579 -0.6848
  141DG     H15 3235   2.471   0.741   2.250 -0.4654 -0.1524  0.1402
  141DG     H16 3236   2.552   0.619   2.145  1.8977 -0.2787 -1.2744
  141DG     C17 3237   2.531   0.849   1.813 -0.7173 -0.1711 -0.3948
  141DG     C18 3238   2.482   0.788   2.034 -0.2183 -0.5294 -0.6794
  141DG     O19 3239   2.569   0.763   1.918  0.1049  0.0582 -0.1183
  141DG     H20 3240   2.426   0.837   1.785 -0.2537 -0.7786 -1.9753
  141DG     H21 3241   2.541   0.949   1.855  1.5880 -0.5562  0.1127
  141DG     H22 3242   2.388   0.735   2.018  0.3911 -1.3261 -1.7001
  141DG     H23 3243   2.461   0.894   2.052 -0.0281 -0.7760  1.2312
  142DG      C1 3244   2.604   5.142   1.478 -0.0766  1.1389 -0.5994
  142DG      C2 3245   2.159   4.692   1.765  0.1505 -0.2741 -0.9682
  142DG      H3 3246   2.643   5.244   1.476  1.8629  0.4209 -2.6040
  142DG      H4 3247   2.576   5.109   1.378  0.7609 -0.3327 -0.3772
  142DG      H5 3248   2.685   5.079   1.513  0.4182  2.1869  0.1974
  142DG      H6 3249   2.209   4.637   1.686  2.9465 -0.6385  0.8985
  142DG      H7 3250   2.200   4.662   1.861  0.3748 -1.5194 -1.4411
  142DG      H8 3251   2.052   4.671   1.762  0.0179  0.4185 -1.3088
  142DG      O9 3252   2.493   5.139   1.568  0.0276  0.0606 -0.4313
  142DG     O10 3253   2.183   4.831   1.764  0.3304  0.1849 -0.3646
  142DG     C11 3254   2.395   5.237   1.547 -0.0730 -0.5358  0.1141
  142DG     C12 3255   2.090   4.905   1.683 -0.0487 -0.0758 -0.1486
  142DG     H13 3256   2.345   5.199   1.458 -0.6784 -0.7485  0.5330
  142DG     H14 3257   2.426   5.341   1.547 -1.5924 -0.0192 -2.3718
  142DG     H15 3258   1.990   4.884   1.719 -0.5166  1.6101 -0.3621
  142DG     H16 3259   2.073   4.872   1.581 -1.3585 -1.2683  0.4284
  142DG     C17 3260   2.286   5.205   1.651  0.3694 -0.6545 -0.6585
  142DG     C18 3261   2.113   5.056   1.691  0.0120  0.1942 -0.6394
  142DG     O19 3262   2.249   5.072   1.663 -0.0180  0.0680  0.1268
  142DG     H20 3263   2.200   5.265   1.618  0.0632 -0.4215  0.5180
  142DG     H21 3264   2.309   5.252   1.746 -0.8337 -0.1751 -0.5888
  142DG     H22 3265   2.042   5.105   1.624 -1.2783 -0.2861  0.3168
  142DG     H23 3266   2.098   5.093   1.793  0.6970  1.6545 -1.0440
  143DG      C1 3267   2.642   0.177   1.091 -0.2373 -0.1207  0.0584
  143DG      C2 3268   2.217   0.610   1.336 -0.3115  0.0155 -0.3583
  143DG      H3 3269   2.683   0.239   1.171 -1.8510  0.3580  0.5491
  143DG      H4 3270   2.714   0.105   1.051  1.4917  2.4435 -1.7071
  143DG      H5 3271   2.564   0.118   1.140  3.2856 -3.2520  2.5707
  143DG      H6 3272   2.291   0.547   1.386 -0.3760  1.4636  1.6940
  143DG      H7 3273   2.174   0.669   1.417  1.4797  2.4810 -1.0598
  143DG      H8 3274   2.146   0.548   1.281 -0.7636 -1.2192  1.5359
  143DG      O9 3275   2.593   0.260   0.990  0.7306 -0.8927  0.0797
  143DG     O10 3276   2.270   0.717   1.255 -1.2772  0.3564  0.3302
  143DG     C11 3277   2.685   0.368   0.962  0.4445  0.2423 -0.8155
  143DG     C12 3278   2.328   0.684   1.125  0.2726  0.3567 -0.1525
  143DG     H13 3279   2.679   0.396   0.857  0.8407 -0.1115 -0.9350
  143DG     H14 3280   2.791   0.346   0.975  0.2806 -0.1012  0.0312
  143DG     H15 3281   2.353   0.762   1.054  1.4783 -1.2395 -1.5584
  143DG     H16 3282   2.253   0.621   1.077 -0.0652 -0.8558  1.8602
  143DG     C17 3283   2.644   0.491   1.053 -0.0636  0.2375  0.1433
  143DG     C18 3284   2.463   0.606   1.143  0.2251 -0.3361  0.3891
  143DG     O19 3285   2.513   0.534   1.032 -0.1830  0.2764 -0.3268
  143DG     H20 3286   2.717   0.572   1.056 -0.8260  0.9171  2.3397
  143DG     H21 3287   2.652   0.457   1.157  0.1767  1.8804  0.6860
  143DG     H22 3288   2.531   0.683   1.180  1.0344 -0.7182 -0.2670
  143DG     H23 3289   2.444   0.542   1.229  1.9375 -1.1436  0.2163
  144DG      C1 3290   2.242   0.910   5.481 -0.0828 -0.0333 -0.0764
  144DG      C2 3291   1.833   0.652   5.940 -0.5768 -0.0395  0.0429
  144DG      H3 3292   2.254   0.940   5.377  0.6018 -0.5098 -0.1446
  144DG      H4 3293   2.307   0.825   5.503  0.6597  0.5942  0.1772
  144DG      H5 3294   2.270   0.991   5.547 -1.0898  2.6930 -2.7793
  144DG      H6 3295   1.745   0.704   5.902 -0.7888  0.3085  0.9745
  144DG      H7 3296   1.797   0.572   6.005 -0.0337  0.3197  0.8071
  144DG      H8 3297   1.881   0.716   6.014 -0.2326 -1.3351  0.9784
  144DG      O9 3298   2.120   0.846   5.513  0.1153 -0.2716  0.8523
  144DG     O10 3299   1.918   0.629   5.834 -0.0325  0.3562  0.1446
  144DG     C11 3300   2.081   0.760   5.409 -0.8385 -0.0855  0.5176
  144DG     C12 3301   1.865   0.510   5.766 -0.4784 -0.2316 -0.2917
  144DG     H13 3302   2.141   0.752   5.319 -2.2625  2.1631 -0.7208
  144DG     H14 3303   1.978   0.793   5.395 -0.2041  2.3241  1.0596
  144DG     H15 3304   1.760   0.528   5.745 -1.0859  1.6941  3.5104
  144DG     H16 3305   1.880   0.428   5.837 -0.2064  0.9172  1.0230
  144DG     C17 3306   2.051   0.613   5.458  0.0155 -0.6142  0.4509
  144DG     C18 3307   1.950   0.493   5.639  0.3597 -0.4390  0.5737
  144DG     O19 3308   1.972   0.617   5.574  0.0970  0.4062  0.2234
  144DG     H20 3309   2.148   0.572   5.486  0.5582 -0.8196 -1.5633
  144DG     H21 3310   2.004   0.554   5.379  0.7115  0.0588 -0.4732
  144DG     H22 3311   2.039   0.441   5.672 -0.5497 -2.5085 -0.0696
  144DG     H23 3312   1.913   0.415   5.572 -0.2307  1.2792 -1.2267
  145DG      C1 3313   5.098   3.883   1.700 -0.0554  0.3743  0.5630
  145DG      C2 3314   4.458   3.961   1.884 -0.4380 -0.2369 -0.0949
  145DG      H3 3315   5.122   3.989   1.702  0.2670  0.3196 -0.1075
  145DG      H4 3316   5.049   3.864   1.604  0.0542 -0.1963  0.6161
  145DG      H5 3317   5.193   3.829   1.696 -0.6718 -0.6642 -0.9023
  145DG      H6 3318   4.466   4.057   1.935  2.0524  0.3354 -1.3734
  145DG      H7 3319   4.459   3.980   1.776 -1.7466 -1.9325 -0.4609
  145DG      H8 3320   4.366   3.911   1.914 -0.8718 -0.0004 -0.9928
  145DG      O9 3321   5.012   3.839   1.810  0.2085 -0.0680  0.1573
  145DG     O10 3322   4.554   3.885   1.938 -0.2886  0.1062  0.3180
  145DG     C11 3323   5.021   3.696   1.832  0.1706  0.2593 -0.1514
  145DG     C12 3324   4.545   3.746   1.894 -0.1814  0.3285 -0.2440
  145DG     H13 3325   5.118   3.679   1.878 -0.5548  0.6970  1.6415
  145DG     H14 3326   5.022   3.637   1.741 -1.4950 -1.3289  0.7818
  145DG     H15 3327   4.518   3.742   1.788 -0.9778  0.4018 -0.0488
  145DG     H16 3328   4.455   3.697   1.930 -0.1422  0.6514  0.3134
  145DG     C17 3329   4.906   3.652   1.928  0.8559 -0.3522  0.3340
  145DG     C18 3330   4.667   3.657   1.936 -0.4089 -0.0000  0.0180
  145DG     O19 3331   4.788   3.699   1.869  0.3171  0.4855  0.1757
  145DG     H20 3332   4.924   3.697   2.025 -1.1963  1.5040 -0.0598
  145DG     H21 3333   4.902   3.543   1.940  2.2332 -0.8689 -2.8440
  145DG     H22 3334   4.692   3.661   2.042  3.8361 -0.8065 -0.7810
  145DG     H23 3335   4.649   3.552   1.916 -2.0729  0.0799  0.8942
  146DG      C1 3336   0.724   1.851   2.658  0.1389  0.3098  0.3150
  146DG      C2 3337   0.173   1.494   2.788 -0.1014 -0.2635 -0.1714
  146DG      H3 3338   0.665   1.916   2.594 -1.0726 -1.9895 -1.0609
  146DG      H4 3339   0.748   1.765   2.594  0.1853 -0.0370  0.7927
  146DG      H5 3340   0.814   1.905   2.689  0.7429 -0.6090  0.2154
  146DG      H6 3341   0.069   1.504   2.820 -0.2338  1.6382 -1.0667
  146DG      H7 3342   0.184   1.520   2.683  2.1084  1.3544  0.3717
  146DG      H8 3343   0.214   1.395   2.808 -2.5672 -1.0966  1.2408
  146DG      O9 3344   0.646   1.812   2.765  0.2551 -0.6166  0.3627
  146DG     O10 3345   0.242   1.601   2.859 -0.0719  0.0035  0.2982
  146DG     C11 3346   0.706   1.716   2.849  0.4069  0.3687 -0.5244
  146DG     C12 3347   0.257   1.579   2.996 -0.5441 -0.8468 -0.0162
  146DG     H13 3348   0.802   1.752   2.888 -0.4449  1.0504  1.0448
  146DG     H14 3349   0.721   1.616   2.808 -2.4165  0.0107 -0.8422
  146DG     H15 3350   0.282   1.477   3.024 -2.8220 -1.2269  0.7925
  146DG     H16 3351   0.167   1.601   3.053 -0.1602  0.6350  0.0576
  146DG     C17 3352   0.609   1.702   2.975  0.1534  0.0895  0.1808
  146DG     C18 3353   0.376   1.676   3.043 -0.4030 -0.1857 -0.1241
  146DG     O19 3354   0.479   1.660   2.947 -0.0399  0.2524  0.6969
  146DG     H20 3355   0.600   1.789   3.041 -1.2717  0.3590 -0.3253
  146DG     H21 3356   0.654   1.633   3.046  0.5410  0.7855  0.6300
  146DG     H22 3357   0.339   1.778   3.034  1.4712  0.4560 -0.9499
  146DG     H23 3358   0.412   1.642   3.140  0.7717  0.9262 -0.1420
  147DG      C1 3359   3.133   2.995   3.704 -0.7343  0.6706  0.0295
  147DG      C2 3360   2.965   3.646   3.461 -1.0791  0.5621 -0.4930
  147DG      H3 3361   3.230   3.024   3.664 -0.2065 -2.3373 -1.1693
  147DG      H4 3362   3.133   2.891   3.672  5.1912  0.0372  0.8906
  147DG      H5 3363   3.135   2.989   3.813 -0.6504 -1.3703 -0.0395
  147DG      H6 3364   3.039   3.637   3.381  0.2058 -0.3239  0.7618
  147DG      H7 3365   2.901   3.728   3.427 -0.5687  0.4526 -1.7900
  147DG      H8 3366   3.000   3.680   3.558 -3.0673  1.2924  0.0127
  147DG      O9 3367   3.025   3.084   3.665 -0.1017  0.3996  0.2542
  147DG     O10 3368   2.914   3.515   3.464  0.3251 -0.3420 -0.4399
  147DG     C11 3369   2.896   3.028   3.657 -0.6733 -0.4646 -0.2468
  147DG     C12 3370   2.800   3.493   3.548 -0.0022 -0.0097 -0.3927
  147DG     H13 3371   2.871   2.981   3.752  0.1259 -0.1164  0.1419
  147DG     H14 3372   2.886   2.961   3.571 -1.0968 -0.7746  0.0394
  147DG     H15 3373   2.723   3.568   3.530  0.5987  0.8441  0.5170
  147DG     H16 3374   2.844   3.498   3.647 -0.9585  1.4151 -0.0161
  147DG     C17 3375   2.793   3.144   3.631  0.2840  0.3959 -0.3204
  147DG     C18 3376   2.743   3.353   3.514  0.4005  0.1442  0.5526
  147DG     O19 3377   2.842   3.250   3.546  0.7286 -0.0464  0.4772
  147DG     H20 3378   2.768   3.188   3.727 -1.7471  0.3249 -0.7659
  147DG     H21 3379   2.702   3.091   3.601  1.6119 -2.1126 -0.2456
  147DG     H22 3380   2.648   3.352   3.567 -1.1962  0.9372 -2.1121
  147DG     H23 3381   2.704   3.339   3.413  0.6962 -1.2130  0.6068
  148DG      C1 3382   2.390   3.433   1.911  0.3319 -0.4016 -0.5974
  148DG      C2 3383   2.883   3.665   2.504 -0.2885  0.1676  1.2296
  148DG      H3 3384   2.311   3.358   1.913  0.5483 -0.6920 -1.8268
  148DG      H4 3385   2.428   3.419   1.810  3.5079  0.1606  0.3930
  148DG      H5 3386   2.360   3.536   1.930  0.5601 -0.6906  1.6191
  148DG      H6 3387   2.978   3.625   2.540  0.3829 -0.3199 -0.9280
  148DG      H7 3388   2.909   3.748   2.439  1.5058 -1.4516 -0.2570
  148DG      H8 3389   2.839   3.692   2.600  0.6199  0.6539  1.5252
  148DG      O9 3390   2.491   3.392   2.003 -0.2938  0.0304 -0.5612
  148DG     O10 3391   2.800   3.571   2.433 -0.1675  0.6951 -0.0033
  148DG     C11 3392   2.446   3.368   2.139  0.2889 -0.2601  0.0252
  148DG     C12 3393   2.864   3.519   2.324  0.8004 -0.6650  0.4654
  148DG     H13 3394   2.366   3.294   2.141 -0.7057  0.7925  1.3633
  148DG     H14 3395   2.396   3.456   2.180 -0.4166  0.3065 -1.9403
  148DG     H15 3396   2.969   3.491   2.331  1.2957  0.4377 -1.8215
  148DG     H16 3397   2.861   3.595   2.246 -2.9876 -0.8041  0.2955
  148DG     C17 3398   2.563   3.328   2.225 -0.4147  0.0982 -0.2902
  148DG     C18 3399   2.791   3.392   2.274  0.0032 -0.4596 -0.4052
  148DG     O19 3400   2.664   3.434   2.234 -0.1532  0.0962  0.5756
  148DG     H20 3401   2.611   3.237   2.191  1.4911  1.2866 -0.8783
  148DG     H21 3402   2.518   3.302   2.322 -3.2130 -3.4255 -2.2818
  148DG     H22 3403   2.841   3.341   2.192 -0.9862  0.0193 -1.3477
  148DG     H23 3404   2.781   3.327   2.361 -0.7336  0.6615  0.3827
  149DG      C1 3405   4.906   3.872   3.579  0.0724  0.3378  0.2409
  149DG      C2 3406   4.692   3.702   3.043  0.2778 -0.6596  0.3918
  149DG      H3 3407   4.807   3.857   3.537  1.1377  1.2388 -2.8140
  149DG      H4 3408   4.943   3.965   3.538  2.7273 -0.2508  1.0954
  149DG      H5 3409   4.919   3.878   3.687  2.1023 -0.6620  0.1114
  149DG      H6 3410   4.721   3.684   2.939 -1.3396 -1.6565  0.0813
  149DG      H7 3411   4.604   3.639   3.050  0.0594 -0.4302 -0.1968
  149DG      H8 3412   4.652   3.801   3.065 -2.0217 -1.6513  0.9609
  149DG      O9 3413   4.994   3.765   3.536  0.0778  0.4146  0.4214
  149DG     O10 3414   4.790   3.658   3.132 -0.1754 -0.0748 -0.3592
  149DG     C11 3415   4.979   3.718   3.404  0.3589 -0.4424 -0.1370
  149DG     C12 3416   4.846   3.535   3.100 -0.5351 -0.3373 -0.1696
  149DG     H13 3417   4.975   3.803   3.335 -0.7119  0.0892  0.5639
  149DG     H14 3418   4.877   3.680   3.395  0.2869 -0.1475 -0.5995
  149DG     H15 3419   4.887   3.544   2.999 -0.2308  1.2813  0.0799
  149DG     H16 3420   4.763   3.465   3.100 -1.6876  0.8989  2.2459
  149DG     C17 3421   5.074   3.605   3.349 -0.0869 -0.2425 -0.2409
  149DG     C18 3422   4.952   3.467   3.188 -0.7832  0.1497  0.8699
  149DG     O19 3423   5.060   3.555   3.216 -0.8571  0.1555 -0.2576
  149DG     H20 3424   5.085   3.517   3.413  1.3290  0.8656  1.1106
  149DG     H21 3425   5.170   3.656   3.345 -1.1657  1.7858 -1.9968
  149DG     H22 3426   4.908   3.437   3.284 -0.4043  0.1976  1.0591
  149DG     H23 3427   4.995   3.380   3.139 -1.3631  0.8828 -1.0148
  150DG      C1 3428   0.248   2.654   5.369 -0.4119 -0.1433 -0.0272
  150DG      C2 3429  -0.002   2.636   6.051 -0.4698 -0.0635 -0.6130
  150DG      H3 3430   0.221   2.759   5.366 -0.8920  0.0129  3.9309
  150DG      H4 3431   0.224   2.603   5.276 -1.4556  0.2777  0.0001
  150DG      H5 3432   0.354   2.647   5.392 -0.1524  0.6142 -0.9410
  150DG      H6 3433  -0.086   2.601   6.111  0.6141 -2.5532 -0.4386
  150DG      H7 3434   0.051   2.548   6.016 -0.6061  0.4031 -2.0605
  150DG      H8 3435   0.064   2.692   6.118 -0.6375  1.5019 -1.7075
  150DG      O9 3436   0.175   2.602   5.474  0.2403  0.1820  0.6229
  150DG     O10 3437  -0.038   2.729   5.958  0.1174 -0.2484  0.4206
  150DG     C11 3438   0.219   2.654   5.604  0.0674 -0.4569 -0.2022
  150DG     C12 3439  -0.141   2.695   5.871 -0.3501  0.2848 -0.3841
  150DG     H13 3440   0.237   2.762   5.606  1.9571 -0.7175 -0.9507
  150DG     H14 3441   0.315   2.608   5.627  0.3251 -0.1255 -0.5944
  150DG     H15 3442  -0.185   2.787   5.833 -0.8447  0.4202  0.4773
  150DG     H16 3443  -0.223   2.646   5.923  0.2373  0.7559  1.0412
  150DG     C17 3444   0.119   2.602   5.709 -0.1288 -0.8218 -0.2757
  150DG     C18 3445  -0.108   2.607   5.746  0.1344 -0.4616 -0.1822
  150DG     O19 3446  -0.001   2.665   5.678 -0.3645  0.8700  0.0298
  150DG     H20 3447   0.152   2.651   5.800  0.4530  0.4080 -1.1255
  150DG     H21 3448   0.127   2.494   5.715 -0.6952 -0.8544 -0.0558
  150DG     H22 3449  -0.084   2.506   5.781  0.4607 -0.7608 -1.2232
  150DG     H23 3450  -0.193   2.597   5.679  0.3137 -0.6919 -0.3794
  151DG      C1 3451   2.707   2.927   5.009  0.4852  0.5812 -0.2573
  151DG      C2 3452   2.765   2.910   5.670  0.3497  0.1537 -0.6369
  151DG      H3 3453   2.611   2.875   5.012  1.1030 -0.5903 -0.0174
  151DG      H4 3454   2.788   2.857   5.033 -1.1133 -1.2487  0.1297
  151DG      H5 3455   2.727   2.958   4.907 -1.3810  0.2290 -0.7674
  151DG      H6 3456   2.710   2.821   5.640  1.6458 -0.7014 -0.5821
  151DG      H7 3457   2.867   2.880   5.697  0.5741  1.5074  0.1297
  151DG      H8 3458   2.714   2.943   5.761 -0.5090 -1.8623 -0.3256
  151DG      O9 3459   2.705   3.033   5.104 -0.1797  0.1175  0.9188
  151DG     O10 3460   2.767   3.000   5.561  0.0311  0.5922  0.1782
  151DG     C11 3461   2.824   3.105   5.108  0.0458 -0.7336 -0.7712
  151DG     C12 3462   2.831   3.120   5.582 -0.0471  0.2916 -0.7336
  151DG     H13 3463   2.829   3.162   5.016  1.5867 -0.9103 -0.8228
  151DG     H14 3464   2.914   3.044   5.121  0.5861  0.3941  1.1254
  151DG     H15 3465   2.939   3.108   5.594 -0.0959  1.0919  0.7900
  151DG     H16 3466   2.796   3.176   5.669  0.9450 -0.5107  0.2131
  151DG     C17 3467   2.819   3.205   5.220  0.5549 -0.4864 -0.0646
  151DG     C18 3468   2.808   3.207   5.455 -0.1550 -0.1579 -0.0327
  151DG     O19 3469   2.828   3.128   5.336  0.7343 -0.0490  0.2376
  151DG     H20 3470   2.739   3.279   5.213  1.3826  0.5342  0.9357
  151DG     H21 3471   2.907   3.269   5.220  1.5769 -1.8466 -0.2140
  151DG     H22 3472   2.706   3.246   5.459 -0.5498 -1.1909  0.7333
  151DG     H23 3473   2.883   3.286   5.461  0.0015 -0.4060  2.6546
  152DG      C1 3474   1.239   2.948   4.634  0.3287  0.0201 -0.2360
  152DG      C2 3475   1.639   2.825   5.166 -0.8689  0.7741  0.2395
  152DG      H3 3476   1.159   2.985   4.698  0.8768  0.0358  0.4461
  152DG      H4 3477   1.237   2.839   4.628  1.2756  0.0218 -0.8134
  152DG      H5 3478   1.210   2.972   4.532 -0.5599 -2.0151 -0.5246
  152DG      H6 3479   1.728   2.852   5.223  0.6384 -0.8903 -1.1957
  152DG      H7 3480   1.553   2.845   5.229 -0.4440 -0.2076  1.1793
  152DG      H8 3481   1.641   2.716   5.156  0.9233  0.9062 -1.2591
  152DG      O9 3482   1.363   3.001   4.678 -0.1546  0.0129 -0.0403
  152DG     O10 3483   1.633   2.883   5.036  0.1775  0.0395  0.6830
  152DG     C11 3484   1.465   2.992   4.579 -1.0345 -0.1652 -0.3176
  152DG     C12 3485   1.761   2.863   4.968 -0.4004 -0.4128  0.5116
  152DG     H13 3486   1.442   3.058   4.495 -2.0945 -1.2978 -0.9361
  152DG     H14 3487   1.481   2.891   4.541  0.4624  0.2093 -0.7681
  152DG     H15 3488   1.772   2.760   4.935 -0.5689  0.5139 -2.7498
  152DG     H16 3489   1.849   2.885   5.029 -0.0957 -2.2904  0.7994
  152DG     C17 3490   1.597   3.019   4.657  0.5087 -0.5203  0.0953
  152DG     C18 3491   1.739   2.952   4.840 -0.0621  0.1794 -0.0985
  152DG     O19 3492   1.616   2.928   4.774 -0.4285 -0.1876  0.5209
  152DG     H20 3493   1.600   3.119   4.700  0.5665 -1.7632  3.2877
  152DG     H21 3494   1.681   3.004   4.590  1.0269 -0.5481  0.7356
  152DG     H22 3495   1.736   3.059   4.860  0.4305  0.7321 -2.6784
  152DG     H23 3496   1.819   2.924   4.771 -0.6751  1.4674 -1.3698
  153DG      C1 3497   3.830   4.848   0.491 -0.1096  0.3522 -0.6930
  153DG      C2 3498   4.431   4.820   0.224 -0.3542  0.2220 -0.4999
  153DG      H3 3499   3.736   4.903   0.484 -0.2826  0.2036  0.2796
  153DG      H4 3500   3.846   4.818   0.595 -2.2693  1.0621 -0.0981
  153DG      H5 3501   3.832   4.754   0.436 -0.1274  0.4471 -0.8561
  153DG      H6 3502   4.398   4.740   0.158  1.5312 -1.4163  0.4284
  153DG      H7 3503   4.506   4.866   0.159  1.9365 -1.4821  0.7647
  153DG      H8 3504   4.495   4.784   0.305 -0.3983 -0.5675 -0.8134
  153DG      O9 3505   3.946   4.918   0.454  0.6232 -0.3597  0.0420
  153DG     O10 3506   4.336   4.915   0.269 -0.0729 -0.5242  0.1555
  153DG     C11 3507   3.961   5.030   0.535 -0.0479 -0.3472 -0.2889
  153DG     C12 3508   4.384   5.032   0.327  0.0921 -0.2067  0.2753
  153DG     H13 3509   4.002   5.000   0.631 -0.1436 -3.5663 -1.1151
  153DG     H14 3510   3.867   5.079   0.558 -0.9915 -1.4869 -1.5634
  153DG     H15 3511   4.461   5.081   0.267 -0.7339  1.1862  0.2961
  153DG     H16 3512   4.427   4.992   0.419 -1.7997 -1.8569  0.4951
  153DG     C17 3513   4.058   5.122   0.462  0.2088  0.4519 -0.4762
  153DG     C18 3514   4.257   5.114   0.353  0.1077 -0.1442  0.6905
  153DG     O19 3515   4.159   5.038   0.415 -0.4703  0.1623 -0.2743
  153DG     H20 3516   4.106   5.189   0.534 -0.2723  0.7469 -0.4298
  153DG     H21 3517   4.011   5.190   0.391 -1.5239  0.4934  0.6606
  153DG     H22 3518   4.278   5.203   0.412 -0.7882  2.1580 -2.1866
  153DG     H23 3519   4.214   5.156   0.262  0.0121  0.8952  1.1977
  154DG      C1 3520   0.511   0.120   5.039 -0.2380 -0.1693  0.3421
  154DG      C2 3521   0.731  -0.249   5.413  0.4447 -0.5179  0.3829
  154DG      H3 3522   0.437   0.199   5.053  0.6127  0.9309 -1.1047
  154DG      H4 3523   0.499   0.077   4.939 -0.8346 -0.5506  0.5726
  154DG      H5 3524   0.613   0.158   5.042 -0.3646  0.2377 -0.3072
  154DG      H6 3525   0.731  -0.250   5.522  1.1366 -0.8933  0.3868
  154DG      H7 3526   0.832  -0.255   5.373  0.6647 -2.8301  1.1492
  154DG      H8 3527   0.704  -0.150   5.378 -0.7633 -1.3830 -1.2798
  154DG      O9 3528   0.482   0.009   5.116 -0.2210  0.4659 -0.2421
  154DG     O10 3529   0.644  -0.340   5.355  0.4514 -0.2831  0.5237
  154DG     C11 3530   0.351  -0.044   5.115  0.1631 -0.5520 -0.3549
  154DG     C12 3531   0.518  -0.350   5.417 -0.5618 -0.5748 -0.1284
  154DG     H13 3532   0.328  -0.071   5.012  1.8561 -2.4804 -0.2829
  154DG     H14 3533   0.278   0.036   5.133  0.4622 -0.5007  0.6493
  154DG     H15 3534   0.494  -0.263   5.479 -2.7241  0.4987 -2.3198
  154DG     H16 3535   0.507  -0.442   5.474 -0.6231 -1.5584 -1.6673
  154DG     C17 3536   0.332  -0.148   5.220 -0.2889 -0.0206 -0.6145
  154DG     C18 3537   0.415  -0.356   5.314  0.1614 -0.9203  0.0138
  154DG     O19 3538   0.432  -0.247   5.208  0.2820 -0.0176  0.0724
  154DG     H20 3539   0.230  -0.183   5.204 -1.3078  3.0618 -1.5848
  154DG     H21 3540   0.333  -0.106   5.321  0.1257 -1.5211  0.0242
  154DG     H22 3541   0.427  -0.439   5.244  1.5687 -0.2873 -0.5320
  154DG     H23 3542   0.314  -0.350   5.355  1.1219  3.6912  2.3089
  155DG      C1 3543   2.607   5.231   1.849  0.2797 -0.0077  0.2552
  155DG      C2 3544   2.378   4.789   1.457 -0.2719  0.5948  0.2439
  155DG      H3 3545   2.644   5.279   1.939 -0.2182  1.0077 -0.0742
  155DG      H4 3546   2.501   5.255   1.843 -0.0654 -1.0141  1.6103
  155DG      H5 3547   2.664   5.271   1.765 -0.1827 -0.8565 -0.4827
  155DG      H6 3548   2.401   4.737   1.364 -1.7360 -1.5354  1.0040
  155DG      H7 3549   2.274   4.763   1.476 -0.3049  0.7813  0.3161
  155DG      H8 3550   2.389   4.893   1.427  1.5142  0.5287  0.5286
  155DG      O9 3551   2.620   5.092   1.868 -0.3901  0.3376  0.0410
  155DG     O10 3552   2.466   4.768   1.568  0.3000  0.3512 -0.3272
  155DG     C11 3553   2.760   5.058   1.870  0.2817  0.1365 -0.0614
  155DG     C12 3554   2.600   4.762   1.531  0.1954  0.8495  0.5443
  155DG     H13 3555   2.801   5.069   1.971 -0.8569 -0.8297  0.5381
  155DG     H14 3556   2.821   5.125   1.809  1.1439  1.0041  1.6707
  155DG     H15 3557   2.620   4.842   1.461 -0.3080 -1.7312 -2.8313
  155DG     H16 3558   2.621   4.667   1.480 -0.6644  1.3197 -0.7286
  155DG     C17 3559   2.775   4.915   1.815 -0.4961 -0.4686 -0.2351
  155DG     C18 3560   2.695   4.775   1.653  0.5616  0.7886 -0.0725
  155DG     O19 3561   2.666   4.897   1.720 -0.3053  0.6647 -0.0402
  155DG     H20 3562   2.763   4.842   1.895 -1.0626  1.0652  1.1344
  155DG     H21 3563   2.876   4.916   1.774 -1.0663  0.9789 -1.7170
  155DG     H22 3564   2.671   4.699   1.726 -0.3100  0.8988 -0.2354
  155DG     H23 3565   2.798   4.771   1.616  0.4363 -1.8515 -0.2847
  156DG      C1 3566   3.552   1.014   4.152 -0.4027  0.0901  0.3466
  156DG      C2 3567   2.870   1.175   4.042  0.2116  0.2766 -0.1098
  156DG      H3 3568   3.644   1.041   4.202  0.7469 -0.1122 -1.5653
  156DG      H4 3569   3.578   0.952   4.066  1.3192  0.5399  0.5233
  156DG      H5 3570   3.491   0.954   4.220 -0.2445 -0.6480 -0.1433
  156DG      H6 3571   2.810   1.122   4.116 -0.7803  0.6240 -0.6446
  156DG      H7 3572   2.819   1.270   4.023 -0.9351 -0.3160 -0.0477
  156DG      H8 3573   2.863   1.110   3.956  1.9229  0.1622 -0.1917
  156DG      O9 3574   3.473   1.119   4.099 -0.0320  0.2177 -0.2640
  156DG     O10 3575   3.003   1.209   4.066 -0.2559 -0.1342 -0.5072
  156DG     C11 3576   3.477   1.227   4.198  0.3415 -0.6249 -0.3755
  156DG     C12 3577   3.027   1.310   4.167 -0.2408 -0.1870  0.5855
  156DG     H13 3578   3.580   1.261   4.207  0.7606 -2.2742  2.2588
  156DG     H14 3579   3.467   1.176   4.294 -0.4821 -1.4851 -0.8948
  156DG     H15 3580   3.031   1.258   4.262  0.5236  0.0862  0.7073
  156DG     H16 3581   2.947   1.385   4.161 -1.2329 -1.2739 -0.3813
  156DG     C17 3582   3.385   1.347   4.165 -0.8954  0.2945 -0.6951
  156DG     C18 3583   3.160   1.389   4.155  0.4478 -0.4476 -0.3972
  156DG     O19 3584   3.266   1.290   4.151  0.0048 -0.2522 -0.9084
  156DG     H20 3585   3.413   1.400   4.074 -0.0950  1.2315  0.0779
  156DG     H21 3586   3.383   1.419   4.247 -1.5493 -2.6819  2.1233
  156DG     H22 3587   3.154   1.456   4.070  0.3321  0.2820  0.1720
  156DG     H23 3588   3.154   1.457   4.240  0.2701  2.1106 -2.3232
  157DG      C1 3589   2.475   5.227   0.626  0.2574  0.5137 -0.1048
  157DG      C2 3590   1.784   5.503   0.514 -0.0282  0.7209  0.0713
  157DG      H3 3591   2.566   5.174   0.654 -0.9405 -0.9523  1.1874
  157DG      H4 3592   2.508   5.323   0.665  0.0644  0.8190 -0.6854
  157DG      H5 3593   2.454   5.223   0.519  2.2407 -1.5728 -0.4950
  157DG      H6 3594   1.849   5.586   0.542  1.3481  0.1729 -1.3370
  157DG      H7 3595   1.749   5.508   0.412  0.9352 -0.2599 -0.3303
  157DG      H8 3596   1.697   5.509   0.580  0.5282  0.8660  0.8102
  157DG      O9 3597   2.350   5.190   0.688 -0.3306  0.1553 -0.3314
  157DG     O10 3598   1.867   5.395   0.548 -0.1220  0.6531 -0.0795
  157DG     C11 3599   2.275   5.077   0.654 -0.1287  0.0098  0.0046
  157DG     C12 3600   1.992   5.402   0.487  0.3763 -0.0825 -0.3940
  157DG     H13 3601   2.308   5.006   0.730  1.5602  0.9082  0.1813
  157DG     H14 3602   2.294   5.044   0.552 -2.0350  1.4716 -0.8967
  157DG     H15 3603   2.031   5.503   0.489  0.7188 -0.2032 -0.8265
  157DG     H16 3604   1.986   5.361   0.386 -0.3445 -0.2998 -0.2682
  157DG     C17 3605   2.120   5.097   0.666 -0.8573  0.0919  0.7130
  157DG     C18 3606   2.090   5.319   0.563  0.4521 -0.1655  0.0964
  157DG     O19 3607   2.068   5.178   0.558 -0.1013  0.1188 -0.0593
  157DG     H20 3608   2.085   5.138   0.761 -0.6690  2.2457 -0.0780
  157DG     H21 3609   2.072   5.001   0.646  0.7172 -0.4293 -0.7968
  157DG     H22 3610   2.192   5.322   0.525  0.0916 -0.3630 -0.9180
  157DG     H23 3611   2.093   5.356   0.665 -1.2019  0.5346 -0.0780
  158DG      C1 3612   5.168   0.295   3.970 -0.2469  0.0664  0.0924
  158DG      C2 3613   5.483   0.445   4.706 -0.5931  0.1624 -0.4564
  158DG      H3 3614   5.103   0.209   3.957  1.1932 -0.8293 -1.9216
  158DG      H4 3615   5.273   0.264   3.965 -0.3209 -0.1386 -0.2080
  158DG      H5 3616   5.144   0.363   3.888 -1.6888 -0.9986 -0.3902
  158DG      H6 3617   5.449   0.531   4.764  0.1741  0.3752 -0.3089
  158DG      H7 3618   5.513   0.370   4.779  2.6249  1.8050  0.0774
  158DG      H8 3619   5.570   0.473   4.647  0.7402 -2.3689  0.1669
  158DG      O9 3620   5.152   0.355   4.097  0.0351 -0.1542  0.0257
  158DG     O10 3621   5.378   0.404   4.618  0.2826 -0.5420  0.0590
  158DG     C11 3622   5.130   0.262   4.202 -0.7622 -0.1900 -0.3724
  158DG     C12 3623   5.402   0.282   4.555  0.0637 -0.2925  0.7340
  158DG     H13 3624   5.210   0.187   4.206 -2.1711 -1.7478 -0.2231
  158DG     H14 3625   5.054   0.191   4.169  1.8782 -2.6689 -1.5427
  158DG     H15 3626   5.408   0.207   4.633 -0.9641  1.5788  2.7246
  158DG     H16 3627   5.488   0.284   4.489  0.2436 -0.7652  0.9559
  158DG     C17 3628   5.101   0.337   4.326  0.1074  0.3115 -0.7513
  158DG     C18 3629   5.271   0.251   4.475  0.3735 -0.0645  0.5475
  158DG     O19 3630   5.230   0.359   4.388 -0.0588  0.3300 -0.5338
  158DG     H20 3631   5.032   0.280   4.387 -2.4329  2.1612 -1.7368
  158DG     H21 3632   5.060   0.437   4.314  3.2698  1.7019 -1.1089
  158DG     H22 3633   5.293   0.164   4.413  0.7524  0.0740  0.4800
  158DG     H23 3634   5.191   0.226   4.543  0.1774  0.0391  0.3574
  159DG      C1 3635   0.323   0.497   0.657 -0.0048  0.7978 -0.0053
  159DG      C2 3636   0.739   0.031   0.234 -0.1286  0.4953  0.2118
  159DG      H3 3637   0.241   0.568   0.649 -1.8165 -1.3425 -2.2469
  159DG      H4 3638   0.382   0.490   0.566 -0.1925 -0.3673 -0.0530
  159DG      H5 3639   0.381   0.540   0.739 -2.3900  4.0392  0.1585
  159DG      H6 3640   0.758  -0.037   0.151  1.0960 -0.7177  1.4493
  159DG      H7 3641   0.762   0.132   0.199  0.3357 -0.2230 -1.6410
  159DG      H8 3642   0.804   0.001   0.315 -2.0245 -0.9345  1.2928
  159DG      O9 3643   0.280   0.369   0.701  0.5153  0.6739  0.6988
  159DG     O10 3644   0.601   0.028   0.264  0.3856  0.0411  0.4752
  159DG     C11 3645   0.193   0.302   0.604 -0.5148 -0.8829 -0.0460
  159DG     C12 3646   0.548   0.120   0.361 -0.4591 -0.3831 -0.4407
  159DG     H13 3647   0.145   0.367   0.531 -0.0515  1.8264  1.8891
  159DG     H14 3648   0.104   0.265   0.655 -1.6064 -0.2602 -1.4443
  159DG     H15 3649   0.570   0.222   0.329  0.8362 -1.2043 -2.3807
  159DG     H16 3650   0.592   0.107   0.460 -0.2166  0.1976 -0.4690
  159DG     C17 3651   0.252   0.174   0.549 -0.5448 -0.6902 -0.2322
  159DG     C18 3652   0.394   0.111   0.373  0.1549 -0.4511 -0.1520
  159DG     O19 3653   0.378   0.189   0.494  0.2354 -0.1884  0.1333
  159DG     H20 3654   0.179   0.130   0.482  0.8176  0.2591 -2.4542
  159DG     H21 3655   0.290   0.099   0.618  0.4022  0.9325  1.0833
  159DG     H22 3656   0.333   0.146   0.290 -0.9001 -0.7344  0.4825
  159DG     H23 3657   0.364   0.008   0.393 -0.1362 -0.1174  1.2595
  160DG      C1 3658   1.598   2.738   0.249  0.1099 -0.2177  0.5823
  160DG      C2 3659   1.404   3.019   0.841 -0.0943  0.2800  0.0403
  160DG      H3 3660   1.567   2.831   0.201  1.4029 -0.5613 -1.0080
  160DG      H4 3661   1.507   2.690   0.285  0.3900 -1.2439 -0.0226
  160DG      H5 3662   1.653   2.676   0.178 -0.2280  0.7439 -0.5370
  160DG      H6 3663   1.407   3.041   0.948 -1.2628  1.7389 -0.1863
  160DG      H7 3664   1.384   3.110   0.784 -0.1810  0.0318 -0.3288
  160DG      H8 3665   1.327   2.943   0.828  0.5740 -0.3243 -0.4777
  160DG      O9 3666   1.683   2.778   0.357 -0.1916 -0.3962 -0.4225
  160DG     O10 3667   1.533   2.980   0.799 -0.2808 -0.5567  0.2462
  160DG     C11 3668   1.718   2.675   0.445 -0.5308  0.1862 -0.1202
  160DG     C12 3669   1.591   2.876   0.874  0.1179  0.2553  0.2992
  160DG     H13 3670   1.792   2.617   0.391 -1.1655  1.6822 -2.7889
  160DG     H14 3671   1.637   2.607   0.471  1.6189 -1.8813  1.6469
  160DG     H15 3672   1.511   2.802   0.863  0.0203  0.6243 -1.9236
  160DG     H16 3673   1.605   2.898   0.980  0.3640 -1.7406  0.7291
  160DG     C17 3674   1.769   2.722   0.588 -0.4426 -0.7013 -0.3749
  160DG     C18 3675   1.706   2.816   0.796 -0.1071 -1.1996  0.5577
  160DG     O19 3676   1.675   2.802   0.653  0.1401  0.0610 -0.6722
  160DG     H20 3677   1.868   2.767   0.582 -1.3539  1.2831 -1.6664
  160DG     H21 3678   1.781   2.627   0.641  2.2679 -0.8982 -1.1675
  160DG     H22 3679   1.801   2.869   0.805 -0.6521  0.5688 -2.7124
  160DG     H23 3680   1.713   2.715   0.836 -0.1774 -2.1882 -1.7748
  161DG      C1 3681   4.786   0.034   4.124  0.2275  0.3330  0.2893
  161DG      C2 3682   4.300  -0.134   4.592  0.0945  0.0745 -0.2834
  161DG      H3 3683   4.881   0.011   4.171  1.7252 -1.1123 -3.0933
  161DG      H4 3684   4.821   0.074   4.029  0.9936 -2.0568 -0.5171
  161DG      H5 3685   4.734  -0.058   4.097  1.5213 -0.0673 -0.9743
  161DG      H6 3686   4.255  -0.223   4.548 -0.3059 -0.9094  1.9683
  161DG      H7 3687   4.382  -0.183   4.645 -1.1361  0.1354  1.8162
  161DG      H8 3688   4.231  -0.102   4.670  0.2447 -1.2885  0.4568
  161DG      O9 3689   4.695   0.117   4.201 -0.2988  0.7956 -0.2419
  161DG     O10 3690   4.353  -0.034   4.505 -0.4740  0.2727  0.3571
  161DG     C11 3691   4.596   0.186   4.126 -0.7868  0.3286  0.4117
  161DG     C12 3692   4.262   0.059   4.449  0.2662 -1.0007  0.7686
  161DG     H13 3693   4.543   0.116   4.061 -0.4270  0.7587 -0.3644
  161DG     H14 3694   4.650   0.263   4.071 -0.2447  0.2885  0.8856
  161DG     H15 3695   4.195   0.086   4.531  0.6750 -0.5245  0.9497
  161DG     H16 3696   4.206   0.020   4.364 -1.1114  2.0491  0.1490
  161DG     C17 3697   4.496   0.247   4.224  0.2843  0.5683 -0.6305
  161DG     C18 3698   4.329   0.182   4.385 -0.5452 -0.3335  0.3188
  161DG     O19 3699   4.448   0.144   4.309 -0.0993 -0.0950  0.3008
  161DG     H20 3700   4.410   0.289   4.171 -0.1168 -0.1968 -0.6061
  161DG     H21 3701   4.541   0.316   4.295 -1.2131 -1.0947  2.1078
  161DG     H22 3702   4.261   0.231   4.315  0.1064  1.5023  0.9191
  161DG     H23 3703   4.368   0.252   4.458 -0.5744  0.9509 -0.8604
  162DG      C1 3704   4.209   3.163   2.418  0.3095 -0.1952 -0.0647
  162DG      C2 3705   4.461   3.766   2.775  0.3019 -0.7765 -0.4002
  162DG      H3 3706   4.207   3.118   2.318 -0.7211 -4.1093  1.5171
  162DG      H4 3707   4.112   3.143   2.465  0.5368 -1.0433  0.0628
  162DG      H5 3708   4.283   3.102   2.469 -0.7936 -0.8047  0.8725
  162DG      H6 3709   4.433   3.776   2.880 -0.3907 -1.8170 -0.4623
  162DG      H7 3710   4.525   3.849   2.747  1.1481 -1.1099  0.4906
  162DG      H8 3711   4.366   3.776   2.723 -0.2806 -1.2196  0.5526
  162DG      O9 3712   4.265   3.293   2.417  0.0667 -0.0569  0.1519
  162DG     O10 3713   4.521   3.637   2.755 -0.0492 -0.1330  0.3377
  162DG     C11 3714   4.265   3.349   2.545 -0.3190 -0.0991 -0.3445
  162DG     C12 3715   4.600   3.617   2.638 -0.2442 -0.6176  0.7501
  162DG     H13 3716   4.329   3.295   2.615  1.4409  1.6703 -0.4955
  162DG     H14 3717   4.167   3.353   2.592 -1.2310 -1.4281 -2.0166
  162DG     H15 3718   4.649   3.520   2.641 -0.7838 -0.8899  0.9891
  162DG     H16 3719   4.674   3.694   2.619 -1.3567  0.2289 -0.3797
  162DG     C17 3720   4.323   3.487   2.527  0.5792 -0.1606  0.4952
  162DG     C18 3721   4.512   3.619   2.509 -0.2813  0.4595  0.0353
  162DG     O19 3722   4.454   3.485   2.488  0.0533 -0.7865 -1.0939
  162DG     H20 3723   4.312   3.535   2.625 -0.2040 -1.6961  1.1957
  162DG     H21 3724   4.275   3.533   2.440  2.1337  0.6255  0.0222
  162DG     H22 3725   4.444   3.704   2.520  1.8949  2.5235 -1.4295
  162DG     H23 3726   4.583   3.639   2.428  3.1955 -3.0658  1.8676
  163DG      C1 3727   0.842   0.173   4.010  0.1034 -0.7755 -0.5030
  163DG      C2 3728   1.253   0.450   4.414  0.2353  0.0756  0.1860
  163DG      H3 3729   0.799   0.217   4.100  0.0512 -0.1297 -0.8402
  163DG      H4 3730   0.792   0.082   3.977 -1.5659 -0.3230  0.6142
  163DG      H5 3731   0.816   0.241   3.930 -0.5355 -0.9074 -0.4167
  163DG      H6 3732   1.344   0.451   4.474  0.6801 -2.5146 -0.3191
  163DG      H7 3733   1.250   0.539   4.352  1.0667  1.3374  1.8742
  163DG      H8 3734   1.163   0.452   4.477 -0.4490  0.2170 -0.7755
  163DG      O9 3735   0.978   0.153   4.046  0.4997 -0.4020 -0.0600
  163DG     O10 3736   1.256   0.333   4.328  0.1908 -0.2615  0.5257
  163DG     C11 3737   1.070   0.145   3.944 -0.4454 -0.1546 -0.3673
  163DG     C12 3738   1.371   0.331   4.240  0.6676  0.2058 -0.2454
  163DG     H13 3739   1.071   0.231   3.877  1.5452  0.5211  0.4707
  163DG     H14 3740   1.052   0.058   3.880  0.4219 -1.9672  1.7442
  163DG     H15 3741   1.463   0.326   4.299  1.3695 -0.3925 -1.3508
  163DG     H16 3742   1.374   0.414   4.171  2.2108 -1.9163 -2.9383
  163DG     C17 3743   1.207   0.111   4.008  0.1622 -0.7687 -0.9100
  163DG     C18 3744   1.358   0.202   4.157  0.2670 -0.1674 -0.1265
  163DG     O19 3745   1.242   0.222   4.085  0.2264 -0.5831  0.1858
  163DG     H20 3746   1.288   0.095   3.936  1.6795 -3.0101  1.1307
  163DG     H21 3747   1.209   0.016   4.062  0.1397 -1.9575 -2.9230
  163DG     H22 3748   1.438   0.196   4.083 -1.9226  1.7446 -2.8641
  163DG     H23 3749   1.361   0.114   4.220 -0.3689 -0.5288 -0.5913
  164DG      C1 3750   0.329   3.815   5.339  0.4496 -0.1611  0.0285
  164DG      C2 3751   0.880   3.671   5.801 -0.1357 -0.3145 -0.0790
  164DG      H3 3752   0.259   3.735   5.318  0.6064 -0.3710  0.3059
  164DG      H4 3753   0.395   3.831   5.253 -1.3592 -0.3676 -1.4533
  164DG      H5 3754   0.270   3.907   5.349 -0.0548 -0.6108  1.3235
  164DG      H6 3755   0.935   3.672   5.706  1.0495 -2.0515  0.5497
  164DG      H7 3756   0.943   3.687   5.889 -0.6352  0.2858  0.1744
  164DG      H8 3757   0.831   3.575   5.814  1.3668 -0.8501  2.2488
  164DG      O9 3758   0.404   3.803   5.461  0.6469  0.7505 -0.1696
  164DG     O10 3759   0.777   3.769   5.792  0.0620 -0.4096 -0.0397
  164DG     C11 3760   0.496   3.910   5.477 -0.0447 -0.0608 -0.1230
  164DG     C12 3761   0.834   3.899   5.767 -0.2298 -0.2563  0.0849
  164DG     H13 3762   0.450   4.004   5.448  1.0664  0.8426  0.9665
  164DG     H14 3763   0.579   3.878   5.415  2.6457 -0.0454  3.1973
  164DG     H15 3764   0.899   3.892   5.680  1.0387 -2.6906  1.1387
  164DG     H16 3765   0.905   3.911   5.848  1.0746 -1.6184 -0.8124
  164DG     C17 3766   0.549   3.922   5.615 -0.4271  0.5512 -0.1227
  164DG     C18 3767   0.722   4.011   5.760 -0.3559 -0.4068  0.1031
  164DG     O19 3768   0.654   4.017   5.638  0.4623  0.4904 -0.0083
  164DG     H20 3769   0.585   3.822   5.640 -1.2323 -0.3695 -2.3926
  164DG     H21 3770   0.460   3.955   5.669  0.1785 -0.3090  1.4803
  164DG     H22 3771   0.649   4.023   5.840  0.1042  1.5195  0.2741
  164DG     H23 3772   0.786   4.098   5.769 -0.0852 -0.1335 -3.0496
  165DG      C1 3773   4.680   2.277   0.138 -0.0905  0.1400  0.6215
  165DG      C2 3774   5.085   2.477   0.591  0.4635 -0.6180  0.4278
  165DG      H3 3775   4.606   2.290   0.060  0.0312  1.9651  0.7623
  165DG      H4 3776   4.660   2.194   0.205 -1.6019 -0.3269 -0.3585
  165DG      H5 3777   4.778   2.252   0.097  0.1438  1.4037  0.3561
  165DG      H6 3778   5.120   2.382   0.630  2.7274  0.1672  0.4458
  165DG      H7 3779   5.124   2.487   0.490 -1.8757  1.0666 -0.4182
  165DG      H8 3780   5.136   2.554   0.649 -1.4354  0.7889  0.3432
  165DG      O9 3781   4.690   2.399   0.208 -0.0841 -0.0740 -0.1006
  165DG     O10 3782   4.946   2.502   0.606 -0.1927  0.2315 -0.0794
  165DG     C11 3783   4.573   2.453   0.267  0.0910  0.5717 -0.6010
  165DG     C12 3784   4.871   2.400   0.539  0.2973  0.2374 -0.3363
  165DG     H13 3785   4.525   2.363   0.306  3.2753 -0.9479  0.1434
  165DG     H14 3786   4.507   2.498   0.194  0.8015 -0.7984 -2.1424
  165DG     H15 3787   4.872   2.313   0.604 -0.1293  1.9801  2.1434
  165DG     H16 3788   4.908   2.368   0.442  1.3057  1.4298 -0.3735
  165DG     C17 3789   4.609   2.560   0.369  0.5142 -0.2080 -0.4764
  165DG     C18 3790   4.724   2.427   0.528 -0.4066 -0.4359  0.6907
  165DG     O19 3791   4.723   2.548   0.449  0.3000  0.1440  0.1042
  165DG     H20 3792   4.526   2.583   0.436 -0.3452  0.0880 -1.6221
  165DG     H21 3793   4.629   2.653   0.316 -1.3070 -0.0945 -1.0470
  165DG     H22 3794   4.673   2.342   0.483 -0.5563  0.0792 -0.1305
  165DG     H23 3795   4.683   2.459   0.624  0.6852  1.3961  0.6056
  166DG      C1 3796   3.519   2.191   0.955  0.2392  1.1627  0.1901
  166DG      C2 3797   3.602   1.963   0.261 -0.2083 -0.0610  0.0243
  166DG      H3 3798   3.517   2.276   1.023  0.4043 -0.9436  2.9789
  166DG      H4 3799   3.618   2.146   0.944 -0.4560 -0.1610 -0.8645
  166DG      H5 3800   3.447   2.116   0.987 -0.0142  1.2047 -0.2649
  166DG      H6 3801   3.711   1.960   0.255 -0.1647 -0.4445  0.9025
  166DG      H7 3802   3.583   1.883   0.332 -1.5794  0.5633  0.3821
  166DG      H8 3803   3.567   1.934   0.162  1.5975 -0.3804 -0.5575
  166DG      O9 3804   3.478   2.208   0.818 -0.7566 -0.0527  0.7857
  166DG     O10 3805   3.564   2.092   0.303  0.7977  0.0948  0.4269
  166DG     C11 3806   3.538   2.326   0.756  0.6212  0.1377 -0.3820
  166DG     C12 3807   3.429   2.106   0.341 -0.3027  0.3913  0.6352
  166DG     H13 3808   3.644   2.301   0.753  0.2691 -1.3845 -1.3881
  166DG     H14 3809   3.509   2.419   0.804 -1.6848 -0.4025 -0.5808
  166DG     H15 3810   3.393   2.027   0.407  2.1001 -1.0079  0.3889
  166DG     H16 3811   3.361   2.104   0.256  0.1565 -0.0513  0.2722
  166DG     C17 3812   3.487   2.349   0.608  0.2327  0.2402 -1.0303
  166DG     C18 3813   3.410   2.231   0.419  0.2313 -0.5134  0.1928
  166DG     O19 3814   3.499   2.231   0.530 -0.0017  0.0939  0.0712
  166DG     H20 3815   3.544   2.421   0.550 -1.2557  3.4206  1.1480
  166DG     H21 3816   3.384   2.384   0.610  0.0307 -0.3651 -0.2879
  166DG     H22 3817   3.434   2.311   0.348 -0.1422  0.5155  1.2111
  166DG     H23 3818   3.308   2.233   0.457  0.7215  0.7290  1.5127
  167DG      C1 3819   2.021   4.633   1.367 -0.4697  0.1804  0.5213
  167DG      C2 3820   1.732   4.108   1.568 -0.1389 -0.6109 -0.2619
  167DG      H3 3821   2.114   4.577   1.378 -0.8293 -0.4316  0.4658
  167DG      H4 3822   2.028   4.725   1.309 -2.2937 -1.4866 -2.5710
  167DG      H5 3823   1.961   4.561   1.312 -0.8217  1.4839 -0.8747
  167DG      H6 3824   1.817   4.046   1.539  0.4543 -0.2357  0.6301
  167DG      H7 3825   1.745   4.119   1.676  5.0821  1.4014 -0.8091
  167DG      H8 3826   1.646   4.049   1.536 -0.8686  1.0430 -1.4744
  167DG      O9 3827   1.971   4.656   1.497  0.2259  0.0913 -0.3061
  167DG     O10 3828   1.735   4.234   1.518 -0.6504 -0.2370 -0.1391
  167DG     C11 3829   1.835   4.709   1.498  0.2945  0.3470  0.0373
  167DG     C12 3830   1.610   4.307   1.537  0.0429  0.7631  0.2957
  167DG     H13 3831   1.827   4.799   1.438 -1.0632  1.6183  2.0027
  167DG     H14 3832   1.812   4.741   1.599  1.1356  1.1213 -0.0098
  167DG     H15 3833   1.602   4.317   1.645  0.3226  1.7382  0.2376
  167DG     H16 3834   1.524   4.245   1.514  0.2493  0.5763  0.0028
  167DG     C17 3835   1.725   4.622   1.431  0.1632  0.3222  0.5703
  167DG     C18 3836   1.603   4.438   1.468  0.1357 -0.4860 -0.7778
  167DG     O19 3837   1.727   4.495   1.492 -0.2178 -0.2229 -0.0930
  167DG     H20 3838   1.753   4.604   1.327  0.2520 -0.2294  0.6866
  167DG     H21 3839   1.634   4.681   1.435  0.5377  0.9468  0.1622
  167DG     H22 3840   1.590   4.420   1.362 -0.0752 -0.1464 -0.8108
  167DG     H23 3841   1.513   4.492   1.497  0.0350 -0.2288 -1.5410
  168DG      C1 3842   3.991   0.611   3.930 -0.0824 -0.0400 -0.5056
  168DG      C2 3843   3.462   0.693   3.494  0.2887 -0.2483 -0.0150
  168DG      H3 3844   4.095   0.641   3.941  0.8712 -2.7192 -1.2530
  168DG      H4 3845   4.005   0.522   3.869  1.2376 -2.8218  3.4393
  168DG      H5 3846   3.956   0.578   4.028  0.6728 -0.1767 -0.2794
  168DG      H6 3847   3.505   0.596   3.469  0.2347 -0.5390  0.9975
  168DG      H7 3848   3.366   0.683   3.544  0.1952  1.0774  0.1226
  168DG      H8 3849   3.448   0.753   3.404  0.7817 -0.0613  0.0304
  168DG      O9 3850   3.907   0.703   3.865 -0.1099  0.0575  0.3706
  168DG     O10 3851   3.554   0.757   3.581 -0.6713  0.1638  0.1420
  168DG     C11 3852   3.865   0.815   3.942  0.3323  0.0356  0.2949
  168DG     C12 3853   3.504   0.885   3.611 -0.3937  0.1440 -0.0366
  168DG     H13 3854   3.943   0.870   3.995  2.1956  1.7440 -3.7554
  168DG     H14 3855   3.797   0.776   4.018 -0.0872 -0.4673 -0.3303
  168DG     H15 3856   3.401   0.874   3.646 -0.9801  0.4446 -1.5594
  168DG     H16 3857   3.494   0.946   3.521 -0.3573  0.3294  0.0858
  168DG     C17 3858   3.784   0.928   3.862  0.2840  0.8925  0.0273
  168DG     C18 3859   3.593   0.960   3.709 -0.1729  0.3657 -0.6443
  168DG     O19 3860   3.680   0.868   3.784  0.2282  0.4263  0.4545
  168DG     H20 3861   3.845   0.980   3.788 -0.1404 -1.1119 -1.8224
  168DG     H21 3862   3.749   1.011   3.924 -0.0843  1.5117 -0.9834
  168DG     H22 3863   3.647   1.038   3.655 -0.9199  2.4717  1.4845
  168DG     H23 3864   3.523   1.012   3.774 -1.0352 -0.9248 -0.5134
  169DG      C1 3865   2.881   3.248   4.623  0.2630  0.4480  0.3948
  169DG      C2 3866   2.844   3.732   4.465 -0.3428  0.8828  0.6124
  169DG      H3 3867   2.896   3.142   4.643  0.9314  0.8107  1.9611
  169DG      H4 3868   2.925   3.292   4.712 -1.1429 -1.2914  2.0522
  169DG      H5 3869   2.937   3.276   4.534  0.1561  2.5707  0.9327
  169DG      H6 3870   2.937   3.709   4.412  0.5831  0.0170  2.5170
  169DG      H7 3871   2.805   3.819   4.413 -0.4272  0.4232 -0.1255
  169DG      H8 3872   2.875   3.771   4.561 -1.3141 -0.8050  1.6618
  169DG      O9 3873   2.732   3.264   4.623 -0.1426 -0.0656 -0.4481
  169DG     O10 3874   2.763   3.617   4.454  0.0142 -0.9632  0.1084
  169DG     C11 3875   2.662   3.207   4.516  0.0212  0.2106  0.6557
  169DG     C12 3876   2.725   3.588   4.323 -0.1185 -0.1299  1.5171
  169DG     H13 3877   2.557   3.192   4.542 -0.1263 -0.4225 -0.2344
  169DG     H14 3878   2.704   3.112   4.482  0.4341  0.3550  0.7606
  169DG     H15 3879   2.809   3.544   4.271 -0.3455 -0.2634  1.2579
  169DG     H16 3880   2.713   3.679   4.264 -0.4520 -0.9508  0.2672
  169DG     C17 3881   2.660   3.300   4.395 -0.5720 -0.3367  0.5278
  169DG     C18 3882   2.592   3.518   4.322 -0.0571  0.4164  0.1091
  169DG     O19 3883   2.582   3.419   4.422  0.2277 -0.6253  0.4109
  169DG     H20 3884   2.620   3.252   4.306 -1.0940  0.8984  0.0641
  169DG     H21 3885   2.763   3.326   4.368 -0.8089  0.1532  0.0919
  169DG     H22 3886   2.509   3.584   4.347 -0.6946  0.2414 -1.4512
  169DG     H23 3887   2.564   3.472   4.227  0.1221 -0.0288  0.2693
  170DG      C1 3888   3.359   2.871   5.089  0.2636  0.0843 -0.6037
  170DG      C2 3889   3.991   3.070   5.167 -0.8981 -0.2018 -0.2594
  170DG      H3 3890   3.414   2.813   5.015  0.4173  0.9304 -1.1605
  170DG      H4 3891   3.257   2.890   5.058  1.2880  1.6666 -3.2864
  170DG      H5 3892   3.355   2.806   5.177 -2.4165  1.9038  0.7687
  170DG      H6 3893   3.992   2.972   5.215  0.1022 -0.6250 -1.0976
  170DG      H7 3894   4.015   3.058   5.061 -0.2808  0.2547 -0.1775
  170DG      H8 3895   4.076   3.125   5.208  0.0754  0.0504 -2.4753
  170DG      O9 3896   3.425   2.992   5.112  0.2233  0.0952  0.3259
  170DG     O10 3897   3.866   3.134   5.182  0.7303 -0.0338 -0.2231
  170DG     C11 3898   3.376   3.065   5.221 -0.3574  0.6352 -0.9434
  170DG     C12 3899   3.839   3.153   5.319 -0.5151  0.2174  0.2187
  170DG     H13 3900   3.366   3.009   5.314  0.4333  0.1171 -1.1603
  170DG     H14 3901   3.273   3.096   5.206 -0.0327  3.8350  1.9780
  170DG     H15 3902   3.912   3.222   5.361  1.9892 -0.8031 -2.1776
  170DG     H16 3903   3.854   3.064   5.381 -2.0770 -0.4808 -0.3491
  170DG     C17 3904   3.476   3.173   5.255  0.8925  0.0045 -0.2481
  170DG     C18 3905   3.699   3.214   5.329 -0.3794  0.4597  0.3683
  170DG     O19 3906   3.603   3.121   5.273  0.0232  0.4069  0.2907
  170DG     H20 3907   3.437   3.221   5.345  1.1527 -0.7824  0.3009
  170DG     H21 3908   3.478   3.250   5.178  1.9807 -0.6855 -0.9366
  170DG     H22 3909   3.673   3.225   5.434 -1.9802  1.9891 -0.1341
  170DG     H23 3910   3.691   3.312   5.282 -0.1925 -0.3226 -1.3768
  171DG      C1 3911   4.543   4.154   5.086 -0.0045 -0.0506 -0.3856
  171DG      C2 3912   4.684   3.501   5.625  0.2275  0.0815  0.9465
  171DG      H3 3913   4.462   4.107   5.030 -0.5579 -0.8586  1.0406
  171DG      H4 3914   4.632   4.157   5.023  0.9075 -0.5401  0.8468
  171DG      H5 3915   4.511   4.255   5.110 -0.1935 -0.1827 -0.0784
  171DG      H6 3916   4.789   3.506   5.656  0.5881 -1.5610  0.0817
  171DG      H7 3917   4.639   3.431   5.695  0.7961 -1.0137  0.2388
  171DG      H8 3918   4.693   3.444   5.533  0.0318 -2.1684  2.2374
  171DG      O9 3919   4.553   4.085   5.207  0.8090  0.2364 -0.6218
  171DG     O10 3920   4.614   3.622   5.622 -0.0562 -0.0991  0.7656
  171DG     C11 3921   4.656   4.119   5.302  0.0683  0.1308  0.3131
  171DG     C12 3922   4.667   3.709   5.528  0.8552  0.3675  0.2203
  171DG     H13 3923   4.680   4.225   5.310  0.4228 -0.0114  1.2822
  171DG     H14 3924   4.744   4.068   5.263  1.0355 -0.2261  2.7859
  171DG     H15 3925   4.654   3.664   5.430  1.8671  0.5530 -0.0109
  171DG     H16 3926   4.774   3.725   5.541  0.5180  1.2236  2.2914
  171DG     C17 3927   4.626   4.058   5.441  0.6267  0.5335 -0.9018
  171DG     C18 3928   4.596   3.841   5.540  0.0431 -0.5983 -0.0333
  171DG     O19 3929   4.646   3.920   5.434 -0.3497  0.4367 -0.4156
  171DG     H20 3930   4.530   4.094   5.476  1.4306  0.6195  1.4314
  171DG     H21 3931   4.704   4.095   5.508  0.6044  0.0741 -0.6185
  171DG     H22 3932   4.488   3.843   5.556  0.2693  2.2909  1.8675
  171DG     H23 3933   4.625   3.887   5.635  0.9861  0.0375 -0.6114
  172DG      C1 3934   0.037   2.839   1.149  0.3976  0.0913  0.1485
  172DG      C2 3935   0.660   2.725   1.215  0.1897 -0.0661 -0.5312
  172DG      H3 3936   0.094   2.926   1.118  1.3074  0.8231  3.4976
  172DG      H4 3937  -0.034   2.865   1.227 -1.3030  1.9370 -1.8958
  172DG      H5 3938  -0.017   2.783   1.073 -1.2367  1.4319  0.2605
  172DG      H6 3939   0.721   2.646   1.173 -1.0449 -2.5663  2.0696
  172DG      H7 3940   0.654   2.804   1.139 -0.2402 -1.4099 -1.9509
  172DG      H8 3941   0.717   2.758   1.302  0.1415 -0.6614 -0.2692
  172DG      O9 3942   0.133   2.755   1.210 -0.0348 -0.2481 -0.3445
  172DG     O10 3943   0.536   2.682   1.254  0.1656 -0.3553 -0.0365
  172DG     C11 3944   0.078   2.635   1.258  0.1657  0.0938  0.3537
  172DG     C12 3945   0.532   2.564   1.333 -0.3711  0.1627 -0.2451
  172DG     H13 3946   0.075   2.561   1.178 -0.8874  0.1176  0.3593
  172DG     H14 3947  -0.023   2.656   1.292  0.8952 -0.0154  2.7449
  172DG     H15 3948   0.606   2.560   1.412 -2.1055  0.3365  1.4641
  172DG     H16 3949   0.537   2.476   1.269  2.9097 -0.1760  0.3216
  172DG     C17 3950   0.166   2.586   1.368 -0.0332 -0.0482  0.2875
  172DG     C18 3951   0.397   2.559   1.411 -0.6912  0.3166  0.2220
  172DG     O19 3952   0.300   2.581   1.312 -0.0553 -0.5467  0.3662
  172DG     H20 3953   0.126   2.494   1.410 -1.2383  0.1722 -0.3486
  172DG     H21 3954   0.170   2.657   1.451 -0.9441  2.2241 -1.4945
  172DG     H22 3955   0.384   2.466   1.468  1.3149  0.4987  1.0646
  172DG     H23 3956   0.396   2.644   1.479 -3.2280 -0.2896  1.0442
  173DG      C1 3957   3.130   4.640   2.630 -0.5858  0.5373  0.0348
  173DG      C2 3958   2.723   4.167   2.905 -0.5890  1.2587 -0.2320
  173DG      H3 3959   3.157   4.745   2.617  0.3359  0.8123  3.2068
  173DG      H4 3960   3.118   4.582   2.539 -0.4872  1.4020 -0.5447
  173DG      H5 3961   3.206   4.595   2.694 -0.9713  0.6917  0.6111
  173DG      H6 3962   2.714   4.130   2.803  2.2091 -0.2795 -0.0038
  173DG      H7 3963   2.807   4.120   2.956 -0.2050 -1.3900 -3.0445
  173DG      H8 3964   2.631   4.120   2.940 -0.9079 -1.9138 -4.5198
  173DG      O9 3965   3.013   4.630   2.704 -0.1273  0.0825  0.0508
  173DG     O10 3966   2.734   4.311   2.910  0.1362 -0.0695  0.7022
  173DG     C11 3967   3.008   4.707   2.825  0.3313 -0.0775 -0.2143
  173DG     C12 3968   2.705   4.375   3.034  0.1865  0.1725  0.3951
  173DG     H13 3969   3.032   4.811   2.802  3.1268 -0.6550 -0.2257
  173DG     H14 3970   3.087   4.667   2.888 -0.2754 -0.8309  0.0857
  173DG     H15 3971   2.771   4.332   3.109 -0.9998  1.9972  2.6052
  173DG     H16 3972   2.604   4.347   3.064  0.3522 -1.6539 -0.5973
  173DG     C17 3973   2.880   4.686   2.907  0.4067 -0.0416  0.4828
  173DG     C18 3974   2.731   4.527   3.007  0.0649 -0.6079 -0.4478
  173DG     O19 3975   2.859   4.550   2.947 -0.2081 -0.4494  0.2849
  173DG     H20 3976   2.787   4.712   2.856  2.3309  1.2204 -2.6871
  173DG     H21 3977   2.881   4.748   2.996 -0.3680  2.3139 -1.0532
  173DG     H22 3978   2.648   4.561   2.946 -0.4871  0.8296  1.0255
  173DG     H23 3979   2.724   4.580   3.102  0.5910  0.8705 -1.2030
  174DG      C1 3980   0.559   4.111   3.442 -0.1584  0.1875 -0.2568
  174DG      C2 3981   0.786   4.729   2.944  0.7227 -0.1069 -0.0974
  174DG      H3 3982   0.516   4.193   3.500 -1.3891 -0.3938 -0.3237
  174DG      H4 3983   0.634   4.057   3.500 -1.2055 -0.7195  0.2746
  174DG      H5 3984   0.475   4.044   3.426 -0.6143  0.8029 -0.4841
  174DG      H6 3985   0.700   4.782   2.984  1.8610  0.8011  1.2188
  174DG      H7 3986   0.874   4.741   3.007  1.2456 -2.0130 -0.4053
  174DG      H8 3987   0.818   4.782   2.854  2.4831  1.1913  1.2194
  174DG      O9 3988   0.598   4.156   3.311 -0.3990  0.1725  0.1558
  174DG     O10 3989   0.755   4.591   2.920 -0.2581 -0.0358  0.4074
  174DG     C11 3990   0.697   4.080   3.243  0.1205  0.0362  0.2356
  174DG     C12 3991   0.722   4.522   3.042 -0.0446 -0.2599  0.1314
  174DG     H13 3992   0.665   3.980   3.214  2.2768  0.4157 -4.2503
  174DG     H14 3993   0.784   4.076   3.309  0.0782  1.3581  0.3918
  174DG     H15 3994   0.627   4.559   3.078 -1.3484 -1.4214 -1.9075
  174DG     H16 3995   0.800   4.545   3.115 -0.5982 -1.8992  1.2924
  174DG     C17 3996   0.726   4.150   3.111 -1.0703 -1.1936  0.7550
  174DG     C18 3997   0.724   4.373   3.011 -0.1902  0.6620  0.1921
  174DG     O19 3998   0.729   4.292   3.131  0.2051  0.2890 -0.4400
  174DG     H20 3999   0.654   4.124   3.033 -0.7079 -1.8110  0.6152
  174DG     H21 4000   0.827   4.130   3.074 -0.6709  1.4474  0.2261
  174DG     H22 4001   0.647   4.339   2.942  0.4609  0.3482 -0.3939
  174DG     H23 4002   0.817   4.343   2.962 -0.8373 -1.6268  0.2274
  175DG      C1 4003   3.063   1.774   0.505 -0.4834 -0.1465  0.1054
  175DG      C2 4004   2.797   2.129   1.063 -0.1285  0.2302  0.0847
  175DG      H3 4005   3.103   1.675   0.484 -0.9791 -0.8546  2.2679
  175DG      H4 4006   3.149   1.842   0.507 -0.4298 -0.2211  0.3721
  175DG      H5 4007   3.000   1.813   0.425 -0.1693  0.1918  0.0202
  175DG      H6 4008   2.851   2.105   1.155  0.3211  3.8011  0.8991
  175DG      H7 4009   2.850   2.217   1.026 -1.2950  0.4250 -1.2315
  175DG      H8 4010   2.700   2.158   1.103  0.3336  0.1441  1.3252
  175DG      O9 4011   2.994   1.773   0.624 -0.3790  0.2033 -0.6706
  175DG     O10 4012   2.789   2.020   0.963 -0.3769 -0.1174  0.0995
  175DG     C11 4013   2.865   1.711   0.616 -0.5031 -0.1866 -0.0422
  175DG     C12 4014   2.691   1.927   1.000 -0.0785 -0.3755  0.1632
  175DG     H13 4015   2.872   1.626   0.549 -2.7436 -0.6099  0.1536
  175DG     H14 4016   2.802   1.786   0.567  1.5813  1.2856 -0.6109
  175DG     H15 4017   2.596   1.980   1.005  0.5069  0.5751  1.7722
  175DG     H16 4018   2.704   1.898   1.104  0.2066  0.6283  0.4101
  175DG     C17 4019   2.794   1.678   0.747  0.0596  0.3996 -0.3613
  175DG     C18 4020   2.687   1.787   0.926 -0.2737  0.1531  0.6886
  175DG     O19 4021   2.760   1.802   0.803 -0.1613 -0.6915  0.1660
  175DG     H20 4022   2.857   1.627   0.821  0.0506 -0.5146 -0.9642
  175DG     H21 4023   2.705   1.617   0.730  0.5022 -1.1465  2.1476
  175DG     H22 4024   2.717   1.705   0.990 -0.8454  0.9477  2.0200
  175DG     H23 4025   2.584   1.765   0.897 -1.1699  3.5468  0.8139
  176DG      C1 4026   4.815   3.961   2.867 -0.5433 -0.7816 -0.4825
  176DG      C2 4027   5.314   4.333   2.903 -0.8875 -0.4379  0.3846
  176DG      H3 4028   4.883   3.929   2.788 -1.3377 -0.5354 -1.2870
  176DG      H4 4029   4.715   3.917   2.854  0.0350 -2.3898  0.2069
  176DG      H5 4030   4.862   3.923   2.958 -1.5143  0.4305  0.5513
  176DG      H6 4031   5.364   4.249   2.856  0.9564  0.0776  1.3207
  176DG      H7 4032   5.357   4.425   2.864 -1.3201 -0.9468 -1.3608
  176DG      H8 4033   5.344   4.315   3.006  0.5570  2.3437  0.5522
  176DG      O9 4034   4.809   4.102   2.881 -0.4985 -0.2044  0.1122
  176DG     O10 4035   5.174   4.351   2.897 -0.2502  0.7818  0.1352
  176DG     C11 4036   4.761   4.165   2.767  0.1607  0.3489 -0.5876
  176DG     C12 4037   5.124   4.446   2.809 -0.0227  0.0854 -0.3250
  176DG     H13 4038   4.654   4.155   2.782  0.3181 -1.5329 -0.4245
  176DG     H14 4039   4.785   4.123   2.669 -1.4443 -2.7627  0.1944
  176DG     H15 4040   5.153   4.418   2.708 -1.8978 -0.9816 -0.6194
  176DG     H16 4041   5.168   4.545   2.819 -0.7623  0.4294 -0.3558
  176DG     C17 4042   4.792   4.315   2.767  0.0359  0.0122 -0.4751
  176DG     C18 4043   4.971   4.463   2.821  1.1200  0.2296  0.0895
  176DG     O19 4044   4.926   4.327   2.786 -0.0268 -0.7248 -0.2695
  176DG     H20 4045   4.748   4.369   2.851  0.0033  1.1509 -1.1954
  176DG     H21 4046   4.747   4.368   2.682  1.4273  0.9033 -0.6826
  176DG     H22 4047   4.931   4.501   2.916  3.6612 -0.6320  1.6001
  176DG     H23 4048   4.933   4.528   2.742 -1.1556 -1.6445 -0.4887
  177DG      C1 4049   0.905   1.244   4.628  0.9365  0.4718  0.2793
  177DG      C2 4050   0.382   1.063   4.992  0.0712 -0.1381 -0.2682
  177DG      H3 4051   0.998   1.300   4.628  0.0197  2.1034 -0.8952
  177DG      H4 4052   0.867   1.224   4.527  1.4936  0.8732 -0.0110
  177DG      H5 4053   0.916   1.152   4.686  0.5067 -0.9363 -1.7461
  177DG      H6 4054   0.290   1.014   4.963  0.0811  0.5175 -1.4788
  177DG      H7 4055   0.450   0.984   5.023 -1.0165 -0.4885  1.3536
  177DG      H8 4056   0.367   1.119   5.084 -3.8468  0.3123 -1.0243
  177DG      O9 4057   0.807   1.298   4.717 -0.0072  0.4342 -0.0788
  177DG     O10 4058   0.437   1.146   4.891 -0.4684  0.0910 -0.5381
  177DG     C11 4059   0.750   1.424   4.673 -0.2693  0.5769  0.2981
  177DG     C12 4060   0.358   1.255   4.854 -0.0969  0.4051 -0.0927
  177DG     H13 4061   0.816   1.476   4.603 -0.0713 -1.4918 -1.1575
  177DG     H14 4062   0.746   1.486   4.762 -0.0158  0.8353  0.1322
  177DG     H15 4063   0.369   1.331   4.930  1.1690 -0.2705  0.4291
  177DG     H16 4064   0.251   1.237   4.839 -0.1425  1.5874 -1.4038
  177DG     C17 4065   0.612   1.387   4.634 -0.3832  0.1952  0.3139
  177DG     C18 4066   0.415   1.312   4.722  0.9406  0.2809 -0.1507
  177DG     O19 4067   0.546   1.351   4.752  0.6866  0.2969  0.2542
  177DG     H20 4068   0.598   1.315   4.553  0.4951  0.3224  0.0428
  177DG     H21 4069   0.562   1.475   4.594 -1.7763  0.0122  1.5644
  177DG     H22 4070   0.410   1.229   4.651 -0.1891  0.8632 -0.7853
  177DG     H23 4071   0.363   1.401   4.685  3.0494  1.4471 -0.4347
  178DG      C1 4072   3.045   0.968   2.888 -0.1706  0.5145 -0.3594
  178DG      C2 4073   3.208   0.931   3.356  0.0426 -0.5150  0.2160
  178DG      H3 4074   3.137   0.937   2.937  0.9633  1.8027 -1.5870
  178DG      H4 4075   3.040   0.929   2.786  0.6621  0.9459 -0.5705
  178DG      H5 4076   2.963   0.917   2.939  1.2403 -1.3645  0.1486
  178DG      H6 4077   3.224   0.878   3.262  1.7403  0.3766 -0.0381
  178DG      H7 4078   3.272   0.900   3.439 -1.3446 -1.7880  0.8667
  178DG      H8 4079   3.103   0.913   3.380  0.1568 -1.5351 -0.0213
  178DG      O9 4080   3.039   1.108   2.900 -0.5889 -0.2621  0.1584
  178DG     O10 4081   3.214   1.074   3.329  0.2619 -0.7583  0.3393
  178DG     C11 4082   3.147   1.171   2.824  0.1247  0.1929  0.0929
  178DG     C12 4083   3.339   1.118   3.278  0.8244  0.4409  0.1402
  178DG     H13 4084   3.098   1.255   2.775 -1.4109  0.1680  1.4747
  178DG     H14 4085   3.195   1.119   2.741 -1.1127 -1.6147  0.4478
  178DG     H15 4086   3.423   1.068   3.326  0.8524  0.4358  0.0863
  178DG     H16 4087   3.350   1.221   3.313  0.3179  0.9416 -1.1122
  178DG     C17 4088   3.257   1.213   2.921 -0.3456 -0.0863  0.7277
  178DG     C18 4089   3.347   1.122   3.123 -0.9652 -0.2975  0.1637
  178DG     O19 4090   3.233   1.185   3.059 -0.3696 -0.6899 -0.1173
  178DG     H20 4091   3.271   1.318   2.896 -2.4875 -0.2156 -1.3586
  178DG     H21 4092   3.346   1.157   2.893  0.5450  1.0865  1.1298
  178DG     H22 4093   3.446   1.163   3.103 -0.5679  0.1054  2.6124
  178DG     H23 4094   3.350   1.023   3.077  0.4772 -1.0148  1.6801
  179DG      C1 4095   3.969   2.403   0.737  0.1546 -0.3309 -0.4347
  179DG      C2 4096   4.230   2.483   0.099  0.2002  0.2167 -0.0863
  179DG      H3 4097   3.866   2.435   0.756 -0.0464 -1.1440 -0.0802
  179DG      H4 4098   4.029   2.491   0.756  0.5453 -0.8920  1.0786
  179DG      H5 4099   3.986   2.329   0.816 -1.4362  0.8016  1.0555
  179DG      H6 4100   4.329   2.463   0.057  0.6527 -0.8319  1.3877
  179DG      H7 4101   4.154   2.480   0.021 -2.1155  1.2656  1.9959
  179DG      H8 4102   4.235   2.585   0.135 -1.6449 -0.2040  1.5161
  179DG      O9 4103   3.983   2.357   0.605  0.2254  0.2106  0.8118
  179DG     O10 4104   4.195   2.405   0.213  0.1490 -0.3029 -0.1685
  179DG     C11 4105   3.926   2.228   0.582 -0.1679  0.5939 -0.1160
  179DG     C12 4106   4.211   2.263   0.193 -0.8472  0.7473 -0.2818
  179DG     H13 4107   3.828   2.225   0.535 -0.7625 -0.8786  1.1562
  179DG     H14 4108   3.916   2.161   0.667 -0.3039 -0.5327 -0.9931
  179DG     H15 4109   4.317   2.239   0.178 -1.2485 -1.3508 -0.0129
  179DG     H16 4110   4.164   2.226   0.102  0.0018  1.3619 -0.9974
  179DG     C17 4111   4.024   2.156   0.488 -1.0439  0.0569  0.5625
  179DG     C18 4112   4.180   2.180   0.319 -0.2823 -0.6060  0.5754
  179DG     O19 4113   4.050   2.221   0.369 -0.3938 -0.1977  0.4333
  179DG     H20 4114   3.996   2.052   0.470  0.8741 -0.2344 -1.2029
  179DG     H21 4115   4.119   2.148   0.541  0.4852 -1.9467 -2.1699
  179DG     H22 4116   4.187   2.074   0.297 -2.1069 -1.0115  1.7472
  179DG     H23 4117   4.251   2.207   0.397  1.2384  0.7197 -1.1731
  180DG      C1 4118   2.420   1.533   1.714  0.0059 -0.2474  0.5768
  180DG      C2 4119   2.480   1.469   0.930  0.2970 -0.7205  0.3263
  180DG      H3 4120   2.462   1.558   1.812  0.3511  1.3150  0.0568
  180DG      H4 4121   2.316   1.512   1.740  0.0730 -0.1544  0.9249
  180DG      H5 4122   2.421   1.623   1.653 -2.7050 -0.9088 -0.5888
  180DG      H6 4123   2.463   1.547   0.856 -3.0689 -1.2585  0.3755
  180DG      H7 4124   2.546   1.386   0.901 -0.4728 -1.7348  1.3764
  180DG      H8 4125   2.390   1.412   0.951 -0.0237 -1.3537 -2.2984
  180DG      O9 4126   2.485   1.424   1.655  0.1249 -0.0518 -0.6669
  180DG     O10 4127   2.540   1.525   1.041 -0.1042 -0.2480  0.2884
  180DG     C11 4128   2.625   1.440   1.626 -0.9843 -0.3448 -0.0563
  180DG     C12 4129   2.532   1.442   1.160 -0.2168  0.3248  0.0743
  180DG     H13 4130   2.669   1.341   1.616  2.9226  1.2538 -0.2386
  180DG     H14 4131   2.683   1.481   1.708  0.7448  1.2396 -1.9666
  180DG     H15 4132   2.594   1.352   1.159  1.0805  1.1644  1.1157
  180DG     H16 4133   2.426   1.421   1.178 -0.5611  0.3361 -1.7507
  180DG     C17 4134   2.653   1.521   1.500  0.5947 -0.2405  0.8169
  180DG     C18 4135   2.586   1.524   1.276  0.1967 -0.1139 -0.7151
  180DG     O19 4136   2.593   1.446   1.396  0.2989  0.3443  0.3898
  180DG     H20 4137   2.757   1.538   1.473  0.3664  1.3217  0.8213
  180DG     H21 4138   2.604   1.617   1.517  0.3996 -0.3156  0.6908
  180DG     H22 4139   2.687   1.551   1.245  0.1725  1.8471  0.7107
  180DG     H23 4140   2.525   1.614   1.278 -0.7700 -0.7609 -0.6775
  181DG      C1 4141   3.235   3.908   4.542  0.4030 -0.4366  0.0384
  181DG      C2 4142   3.672   3.935   5.046 -0.7209  0.6662  0.4280
  181DG      H3 4143   3.127   3.901   4.550  0.2808  0.8936 -0.1901
  181DG      H4 4144   3.280   3.811   4.566  1.4622 -0.1458 -0.6873
  181DG      H5 4145   3.259   3.938   4.440 -1.6467 -0.3614 -0.4586
  181DG      H6 4146   3.670   3.826   5.037  0.2032  0.8242 -3.5996
  181DG      H7 4147   3.745   3.959   4.969  1.3986  1.8582  2.6903
  181DG      H8 4148   3.715   3.969   5.141  2.8190 -0.6105 -0.5578
  181DG      O9 4149   3.306   4.006   4.631 -0.6343  0.1916 -0.3136
  181DG     O10 4150   3.556   3.998   5.006  0.2324 -0.3341  0.0930
  181DG     C11 4151   3.237   4.129   4.642  0.0309 -0.1843 -0.1717
  181DG     C12 4152   3.567   4.143   4.984  0.5356  0.5926  0.1870
  181DG     H13 4153   3.132   4.124   4.615 -0.0931  1.1957 -0.0352
  181DG     H14 4154   3.301   4.191   4.579  1.2805  0.9320  2.0551
  181DG     H15 4155   3.640   4.164   4.905 -0.2928  0.7313 -0.5538
  181DG     H16 4156   3.590   4.193   5.078 -1.2444  0.1480  0.8809
  181DG     C17 4157   3.261   4.174   4.786 -0.5570 -0.1728  0.3915
  181DG     C18 4158   3.422   4.181   4.957 -0.5183 -0.7376  0.4376
  181DG     O19 4159   3.396   4.155   4.820  0.6091 -0.0145 -0.8512
  181DG     H20 4160   3.197   4.115   4.852 -0.4681 -0.1558  0.4940
  181DG     H21 4161   3.236   4.280   4.793  3.4432  0.8748  1.3047
  181DG     H22 4162   3.349   4.134   5.023 -0.8894 -1.6422 -0.5804
  181DG     H23 4163   3.426   4.288   4.976 -1.8301 -0.2705 -1.5040
  182DG      C1 4164   1.498   0.684   3.921 -0.0895 -0.1788 -0.2751
  182DG      C2 4165   2.030   1.051   4.139 -0.1979 -0.1996  0.3374
  182DG      H3 4166   1.524   0.686   3.815  0.4204  0.8552 -0.1403
  182DG      H4 4167   1.391   0.662   3.923  0.0097 -0.8193 -1.3717
  182DG      H5 4168   1.556   0.606   3.970 -0.3518 -0.6283 -0.6695
  182DG      H6 4169   2.089   1.135   4.176 -1.7572  2.8493 -3.4140
  182DG      H7 4170   2.039   0.969   4.210  1.9407 -0.3297 -0.0149
  182DG      H8 4171   2.075   1.013   4.047 -0.1248 -0.8027  0.6121
  182DG      O9 4172   1.534   0.805   3.983  0.2861 -0.1871  0.0960
  182DG     O10 4173   1.897   1.076   4.121 -0.3924 -0.3835  0.7338
  182DG     C11 4174   1.496   0.808   4.116 -0.3540 -0.4623 -0.0790
  182DG     C12 4175   1.834   1.130   4.236  0.4904  0.1812  0.7941
  182DG     H13 4176   1.551   0.734   4.175 -1.1592 -0.8608  0.1852
  182DG     H14 4177   1.390   0.785   4.118 -0.4655  0.0797  0.6999
  182DG     H15 4178   1.851   1.238   4.243  1.7745 -0.0175  0.8260
  182DG     H16 4179   1.872   1.086   4.328 -0.1719 -2.2419 -0.0214
  182DG     C17 4180   1.512   0.945   4.179 -0.0607 -0.1839 -0.5886
  182DG     C18 4181   1.680   1.105   4.221  0.5432  0.4766 -0.2353
  182DG     O19 4182   1.654   0.977   4.176  0.3838  0.0719  0.5472
  182DG     H20 4183   1.464   0.950   4.276  0.6004 -1.4011 -0.1767
  182DG     H21 4184   1.460   1.011   4.110 -2.1441 -2.1301 -0.9789
  182DG     H22 4185   1.636   1.124   4.319  0.4203  2.5184 -0.6476
  182DG     H23 4186   1.644   1.181   4.152 -0.3950  1.1052  0.9197
  183DG      C1 4187   2.306   3.195   2.473  0.3302  0.1131  0.8833
  183DG      C2 4188   1.859   3.469   1.844 -0.3405 -0.1401  0.1209
  183DG      H3 4189   2.369   3.284   2.469 -3.1754  2.7841  0.9161
  183DG      H4 4190   2.368   3.105   2.484 -0.3808 -0.4679  0.2397
  183DG      H5 4191   2.236   3.184   2.556 -1.3017 -2.7265 -0.7153
  183DG      H6 4192   1.859   3.499   1.739 -2.3506  1.3058  0.4774
  183DG      H7 4193   1.754   3.445   1.859 -0.7223  0.0283 -1.9392
  183DG      H8 4194   1.894   3.551   1.906  0.8824 -0.5916  0.0490
  183DG      O9 4195   2.240   3.186   2.346 -0.0854 -0.0335 -0.1391
  183DG     O10 4196   1.934   3.350   1.865  0.4778 -0.5652  0.0816
  183DG     C11 4197   2.160   3.074   2.328  0.7458  0.8008  0.4109
  183DG     C12 4198   1.926   3.310   1.998 -0.0110  0.0837  0.6939
  183DG     H13 4199   2.080   3.072   2.402  1.8513  1.2683  1.6728
  183DG     H14 4200   2.214   2.981   2.348  2.0355  1.7692  1.6411
  183DG     H15 4201   1.822   3.279   2.013 -0.2725  0.0799 -0.9704
  183DG     H16 4202   1.954   3.382   2.075 -0.1495 -0.2332  1.0478
  183DG     C17 4203   2.111   3.053   2.185  0.1388  0.0657  0.4758
  183DG     C18 4204   2.023   3.192   2.010  0.3176  0.1379 -0.0572
  183DG     O19 4205   2.020   3.156   2.151 -0.1389  0.5184  0.2292
  183DG     H20 4206   2.075   2.952   2.164 -1.1473  0.7108 -0.5448
  183DG     H21 4207   2.202   3.061   2.124  0.2861  0.1450  0.7052
  183DG     H22 4208   1.986   3.106   1.953  1.6826 -0.5169  0.0127
  183DG     H23 4209   2.122   3.225   1.979  0.7064 -0.6593  0.2941
  184DG      C1 4210   4.401   0.169   0.836 -0.1065 -0.0353  0.0475
  184DG      C2 4211   4.117   0.537   1.308  0.3656 -0.0661 -0.1284
  184DG      H3 4212   4.499   0.216   0.850 -0.3589  0.4779  0.1385
  184DG      H4 4213   4.332   0.216   0.765 -0.0142 -0.0411 -0.0465
  184DG      H5 4214   4.426   0.068   0.805 -0.1788 -0.4268  1.2327
  184DG      H6 4215   4.182   0.499   1.386 -0.9656 -0.3887  0.8473
  184DG      H7 4216   4.181   0.590   1.237 -0.8837  0.8445 -0.6087
  184DG      H8 4217   4.046   0.609   1.349  1.0046  0.1920  0.5420
  184DG      O9 4218   4.336   0.159   0.961  0.4604 -0.4705 -0.3733
  184DG     O10 4219   4.065   0.414   1.251  0.3583  0.1313  0.2672
  184DG     C11 4220   4.234   0.062   0.973 -0.1812  0.3765 -0.3160
  184DG     C12 4221   3.994   0.436   1.127  0.7604  0.4876  0.0045
  184DG     H13 4222   4.247   0.006   1.066 -0.2627  1.0454  0.1078
  184DG     H14 4223   4.249  -0.003   0.887  1.3625  2.1104 -1.4099
  184DG     H15 4224   4.048   0.501   1.059  0.3486  0.7683 -0.0611
  184DG     H16 4225   3.899   0.485   1.151  1.9292  2.4921  0.7464
  184DG     C17 4226   4.093   0.122   0.961 -0.4245 -0.0970  0.2790
  184DG     C18 4227   3.973   0.304   1.046 -0.0076  0.6430  1.0556
  184DG     O19 4228   4.099   0.236   1.048  0.2422 -0.0221 -0.5535
  184DG     H20 4229   4.018   0.050   0.994 -0.0256 -0.8363 -0.4048
  184DG     H21 4230   4.076   0.156   0.859 -0.5404 -0.9966 -0.0107
  184DG     H22 4231   3.898   0.245   1.099  0.9363  1.9698  4.0970
  184DG     H23 4232   3.935   0.340   0.951  1.7274 -0.1666  0.0157
  185DG      C1 4233   4.271   2.724   4.369 -0.0154  0.3099 -0.1232
  185DG      C2 4234   4.272   2.613   5.187  0.0694  0.3009 -0.1658
  185DG      H3 4235   4.374   2.694   4.382 -0.4955 -0.9478  0.9186
  185DG      H4 4236   4.263   2.802   4.292  1.3969  1.2592  0.6420
  185DG      H5 4237   4.224   2.630   4.340  1.9893 -1.4663  2.1004
  185DG      H6 4238   4.324   2.703   5.155 -0.4570 -0.9239 -5.4086
  185DG      H7 4239   4.239   2.631   5.290  0.1103  3.2253 -0.5742
  185DG      H8 4240   4.334   2.524   5.184 -1.6490 -0.9890  0.9432
  185DG      O9 4241   4.216   2.761   4.499 -0.2844 -0.8510 -0.0476
  185DG     O10 4242   4.162   2.583   5.109  0.2499  0.1315  0.2403
  185DG     C11 4243   4.310   2.833   4.578  0.5808  0.0141  0.2663
  185DG     C12 4244   4.176   2.599   4.970  0.5077  0.0500  0.3468
  185DG     H13 4245   4.331   2.927   4.528  0.8543  0.2202  0.7531
  185DG     H14 4246   4.397   2.770   4.598 -0.1262 -0.8559  0.6552
  185DG     H15 4247   4.083   2.553   4.935 -0.6748  2.7366 -0.3205
  185DG     H16 4248   4.263   2.537   4.948  0.9664  1.6464 -2.8501
  185DG     C17 4249   4.238   2.876   4.710 -0.2016  0.5280 -0.4166
  185DG     C18 4250   4.185   2.747   4.920 -0.1939  0.1702 -0.7389
  185DG     O19 4251   4.243   2.747   4.787 -0.4234 -0.0715 -0.2986
  185DG     H20 4252   4.134   2.904   4.703 -1.3714 -2.8569  1.1200
  185DG     H21 4253   4.294   2.950   4.768 -0.9540  0.6624  0.1420
  185DG     H22 4254   4.090   2.799   4.912 -1.0222 -1.4917 -2.5963
  185DG     H23 4255   4.252   2.813   4.975  0.1077  0.3518 -1.3084
  186DG      C1 4256   3.199   2.530   2.189  0.2871  0.5457  0.0359
  186DG      C2 4257   3.198   1.908   1.838 -0.1553 -0.1171  0.0418
  186DG      H3 4258   3.095   2.532   2.154 -0.6161 -2.2879  2.1341
  186DG      H4 4259   3.231   2.625   2.230  1.1114  0.4244 -0.3174
  186DG      H5 4260   3.189   2.458   2.270  2.3024 -0.5553 -0.6114
  186DG      H6 4261   3.210   1.822   1.904 -0.9616  1.1195  1.8954
  186DG      H7 4262   3.089   1.916   1.831 -0.1885 -0.2367  0.4264
  186DG      H8 4263   3.229   1.865   1.743  0.4129  2.2417 -0.8932
  186DG      O9 4264   3.286   2.468   2.092 -0.5510 -0.7264 -0.3666
  186DG     O10 4265   3.263   2.033   1.884  1.0558  0.2794  0.5299
  186DG     C11 4266   3.412   2.428   2.155 -0.0628 -0.2136  0.6841
  186DG     C12 4267   3.405   2.014   1.896  0.1169 -0.2574  0.4176
  186DG     H13 4268   3.388   2.376   2.248 -0.8255  0.0517  0.6461
  186DG     H14 4269   3.459   2.523   2.177  1.4403 -0.7427 -0.0995
  186DG     H15 4270   3.440   1.958   1.810 -1.3805 -1.4099  0.5026
  186DG     H16 4271   3.436   1.949   1.978  1.3225  0.3340  0.4395
  186DG     C17 4272   3.498   2.346   2.054  0.2771 -0.1000  0.0747
  186DG     C18 4273   3.486   2.139   1.922  0.3105 -0.2819  0.5693
  186DG     O19 4274   3.447   2.215   2.040 -0.0468 -0.5553 -0.5497
  186DG     H20 4275   3.601   2.332   2.087 -0.0211 -2.1837  0.2520
  186DG     H21 4276   3.503   2.390   1.954 -0.8469 -0.0004  0.0486
  186DG     H22 4277   3.591   2.117   1.936 -0.1385 -1.1927  3.0331
  186DG     H23 4278   3.486   2.199   1.831 -0.1404 -1.2359 -0.0810
  187DG      C1 4279   4.412   5.135   2.784 -0.5174 -0.2084  0.7104
  187DG      C2 4280   4.198   5.478   3.377  0.3104  0.2542 -0.6778
  187DG      H3 4281   4.436   5.210   2.709 -0.4678  0.1691  1.0985
  187DG      H4 4282   4.392   5.041   2.733 -0.2009  0.1588 -0.1006
  187DG      H5 4283   4.496   5.116   2.851 -1.0688  0.6921  1.6842
  187DG      H6 4284   4.223   5.581   3.351 -0.6304  0.8779  0.7148
  187DG      H7 4285   4.101   5.479   3.427 -0.6866  2.1352 -2.5146
  187DG      H8 4286   4.278   5.432   3.435  0.1282  1.4577  0.5796
  187DG      O9 4287   4.309   5.172   2.874  0.4096  0.8583  0.0536
  187DG     O10 4288   4.168   5.400   3.260  0.1057 -0.2260 -0.1448
  187DG     C11 4289   4.184   5.194   2.804  0.0972 -0.5560  0.0885
  187DG     C12 4290   4.063   5.456   3.181 -0.0209  0.4903  0.6353
  187DG     H13 4291   4.165   5.112   2.736  1.3284  1.5973 -3.1054
  187DG     H14 4292   4.201   5.287   2.749 -3.0166  0.1340  0.1175
  187DG     H15 4293   4.087   5.549   3.129  1.6956 -0.8026 -1.0461
  187DG     H16 4294   3.969   5.468   3.234 -1.4839 -1.2136 -1.3940
  187DG     C17 4295   4.072   5.218   2.901  0.4456 -0.1091 -0.0262
  187DG     C18 4296   4.006   5.362   3.069  0.3038 -0.3503  0.1919
  187DG     O19 4297   4.114   5.322   2.990 -0.0759  0.7050 -0.3117
  187DG     H20 4298   4.040   5.131   2.959 -1.0830  0.3236 -0.1708
  187DG     H21 4299   3.987   5.247   2.840 -0.9830 -3.2545  0.2564
  187DG     H22 4300   3.957   5.279   3.121  0.1842 -0.5934 -0.3006
  187DG     H23 4301   3.937   5.418   3.006  1.8693 -1.0645 -2.3198
  188DG      C1 4302   0.420   2.590   4.169 -0.9686  0.2165 -0.1387
  188DG      C2 4303   1.075   2.420   4.404  0.2527 -0.1461 -0.6865
  188DG      H3 4304   0.439   2.659   4.088 -0.4018 -0.5147 -0.6428
  188DG      H4 4305   0.319   2.610   4.203 -0.7454  1.8579 -0.3950
  188DG      H5 4306   0.422   2.492   4.121  3.0165 -0.0725  0.2218
  188DG      H6 4307   1.106   2.436   4.301  2.2153 -2.8489 -0.6198
  188DG      H7 4308   1.146   2.459   4.477 -2.4231 -1.1274  2.6921
  188DG      H8 4309   1.060   2.312   4.413  1.6393 -0.3602 -0.7141
  188DG      O9 4310   0.504   2.588   4.281  0.4255  0.1157 -0.1413
  188DG     O10 4311   0.952   2.485   4.423 -0.3559 -0.3779 -0.0491
  188DG     C11 4312   0.510   2.722   4.336 -0.7237 -0.2730 -0.6741
  188DG     C12 4313   0.963   2.626   4.402 -0.2281 -0.6366 -0.0974
  188DG     H13 4314   0.414   2.766   4.365 -1.3079  0.1067 -2.9737
  188DG     H14 4315   0.541   2.793   4.259 -0.5765  1.2769  0.7473
  188DG     H15 4316   0.965   2.653   4.296 -0.5166 -0.1376  0.0233
  188DG     H16 4317   1.063   2.651   4.437  0.2793  0.7826 -2.3256
  188DG     C17 4318   0.618   2.734   4.443 -0.0737 -0.2041  0.1962
  188DG     C18 4319   0.850   2.718   4.459 -0.4619 -0.3693  0.3825
  188DG     O19 4320   0.735   2.690   4.382  0.1492 -0.2352  0.0097
  188DG     H20 4321   0.595   2.675   4.532 -1.2321  0.3218  0.2637
  188DG     H21 4322   0.622   2.842   4.460  0.1551  0.1429 -1.8336
  188DG     H22 4323   0.832   2.691   4.563 -0.1306 -0.2678  0.4680
  188DG     H23 4324   0.873   2.824   4.458  1.2632 -0.7136  0.2138
  189DG      C1 4325   2.439   2.936   5.331  0.0946 -0.3340 -0.1714
  189DG      C2 4326   3.068   2.844   5.324 -0.5120 -0.3656 -0.1519
  189DG      H3 4327   2.397   2.948   5.431  1.2891  1.0537  0.1952
  189DG      H4 4328   2.352   2.950   5.266  1.1408  0.4104 -1.4718
  189DG      H5 4329   2.499   3.025   5.313  0.3114 -0.7845 -1.8844
  189DG      H6 4330   3.161   2.807   5.282 -0.0028 -0.5051  1.0798
  189DG      H7 4331   3.071   2.952   5.319 -2.8022 -0.2232  0.2109
  189DG      H8 4332   3.072   2.832   5.432 -2.5530  0.7924  0.1082
  189DG      O9 4333   2.517   2.820   5.306  0.1579  0.0256  0.3890
  189DG     O10 4334   2.959   2.781   5.275  0.4334 -0.3709  0.0823
  189DG     C11 4335   2.469   2.694   5.356 -0.0466  0.5249 -0.4998
  189DG     C12 4336   2.949   2.643   5.291  0.3175 -0.2380 -0.0597
  189DG     H13 4337   2.375   2.664   5.309 -0.2035 -0.1994  0.2563
  189DG     H14 4338   2.448   2.692   5.463  0.0342 -1.4161 -0.4751
  189DG     H15 4339   2.956   2.614   5.396 -0.1352  1.3676  0.4423
  189DG     H16 4340   3.021   2.588   5.231  1.1697 -0.5235  1.1818
  189DG     C17 4341   2.589   2.602   5.325  0.0540  0.1045  0.2716
  189DG     C18 4342   2.812   2.601   5.244 -0.1402 -0.2874  0.0792
  189DG     O19 4343   2.715   2.677   5.313  0.0826  0.7133  0.3636
  189DG     H20 4344   2.564   2.552   5.231 -1.5935 -1.3893  1.4300
  189DG     H21 4345   2.600   2.517   5.393  1.0712  1.8277  2.4103
  189DG     H22 4346   2.787   2.615   5.139 -1.9397 -0.4691  0.4424
  189DG     H23 4347   2.797   2.493   5.252  0.4270 -0.5220 -1.6421
  190DG      C1 4348   2.700   1.850   4.577 -0.0013 -0.2653  0.1424
  190DG      C2 4349   2.180   2.166   4.708  0.5514 -0.2392 -0.3899
  190DG      H3 4350   2.804   1.818   4.576 -0.4511 -1.8252  0.2764
  190DG      H4 4351   2.660   1.857   4.476 -0.5143  3.3372  0.4641
  190DG      H5 4352   2.634   1.784   4.634  0.3247 -1.8288 -1.2364
  190DG      H6 4353   2.141   2.065   4.716 -1.6049  0.5721 -0.0986
  190DG      H7 4354   2.177   2.228   4.797 -2.0248  0.0731 -0.6191
  190DG      H8 4355   2.122   2.214   4.630  0.5302  0.1861 -0.1182
  190DG      O9 4356   2.697   1.984   4.634 -0.9509  0.1106 -0.2311
  190DG     O10 4357   2.317   2.170   4.684  0.3463  0.2017  0.6217
  190DG     C11 4358   2.760   2.081   4.549 -0.2431 -1.2840 -0.1779
  190DG     C12 4359   2.341   2.311   4.649  0.5109  0.3318  0.4884
  190DG     H13 4360   2.742   2.077   4.441  2.0338  2.6380 -0.8739
  190DG     H14 4361   2.866   2.055   4.558 -0.4250 -2.5967 -1.3915
  190DG     H15 4362   2.307   2.374   4.731 -0.7432  0.3645 -0.0253
  190DG     H16 4363   2.292   2.353   4.560  1.8964 -0.0451 -0.4755
  190DG     C17 4364   2.703   2.212   4.601 -0.3987 -0.4447 -0.5334
  190DG     C18 4365   2.495   2.319   4.658 -0.2726  0.1132 -0.0608
  190DG     O19 4366   2.562   2.205   4.593  0.4816 -0.0548  0.3546
  190DG     H20 4367   2.725   2.301   4.541 -1.8890  0.6647  0.4759
  190DG     H21 4368   2.732   2.239   4.703 -2.7567 -3.2741  1.0474
  190DG     H22 4369   2.526   2.411   4.607  3.9134 -0.0291  1.8195
  190DG     H23 4370   2.525   2.336   4.762 -0.5202 -0.8833  0.1775
  191DG      C1 4371   1.243   3.186   4.911  0.6660  0.1879 -0.1445
  191DG      C2 4372   1.467   2.545   4.837 -0.3683 -0.4113 -0.2101
  191DG      H3 4373   1.134   3.192   4.915  0.6949  0.3656  0.5091
  191DG      H4 4374   1.281   3.201   4.810  1.1149  1.7000  0.2117
  191DG      H5 4375   1.287   3.267   4.969 -0.0959  0.4667  0.0595
  191DG      H6 4376   1.405   2.468   4.791 -0.8940  1.0203 -2.0676
  191DG      H7 4377   1.512   2.597   4.753 -1.0263  0.5099 -0.0110
  191DG      H8 4378   1.539   2.484   4.891 -0.2125  0.3036  0.4022
  191DG      O9 4379   1.279   3.055   4.961  0.6107 -0.1277 -0.6005
  191DG     O10 4380   1.422   2.633   4.933  0.0236 -0.8193  0.1437
  191DG     C11 4381   1.244   3.042   5.099  0.0320  0.2787 -0.9307
  191DG     C12 4382   1.348   2.574   5.040  0.4731  0.9343  0.9009
  191DG     H13 4383   1.165   3.111   5.131  0.5856  1.8751 -2.8171
  191DG     H14 4384   1.327   3.065   5.166  0.2049  1.9078 -1.6646
  191DG     H15 4385   1.410   2.519   5.110 -2.0825 -1.5576  1.4181
  191DG     H16 4386   1.282   2.499   4.995  3.1715 -0.7979 -0.4344
  191DG     C17 4387   1.202   2.895   5.144 -0.8275 -0.6285  0.1355
  191DG     C18 4388   1.264   2.671   5.120  0.1677  0.5166 -0.2440
  191DG     O19 4389   1.297   2.802   5.088 -0.6789 -0.3879 -0.3419
  191DG     H20 4390   1.110   2.863   5.095 -0.9637  0.9108 -0.6772
  191DG     H21 4391   1.192   2.886   5.252 -1.2295 -2.3931 -0.0226
  191DG     H22 4392   1.158   2.646   5.109 -0.0404  0.7098  1.1256
  191DG     H23 4393   1.279   2.663   5.228 -1.8299 -1.5808 -0.0222
  192DG      C1 4394   0.466   2.775   3.262  0.3872  0.0118 -0.1798
  192DG      C2 4395   1.297   2.678   3.376  0.0846 -0.1980  0.5229
  192DG      H3 4396   0.372   2.723   3.245  0.0091  1.1608 -1.9708
  192DG      H4 4397   0.517   2.791   3.166  2.1693  2.7474  1.0891
  192DG      H5 4398   0.436   2.869   3.307 -0.9253 -1.8282  3.0672
  192DG      H6 4399   1.313   2.782   3.405  0.0065  0.4324 -1.4944
  192DG      H7 4400   1.364   2.615   3.435  1.6125  2.3717  1.6937
  192DG      H8 4401   1.321   2.678   3.269  2.1477  0.7938  0.9468
  192DG      O9 4402   0.551   2.705   3.355 -0.2710  0.1301  0.1853
  192DG     O10 4403   1.160   2.645   3.394  0.5127  0.1629 -0.0532
  192DG     C11 4404   0.683   2.746   3.353  0.2433  0.1657  0.1589
  192DG     C12 4405   1.121   2.674   3.530 -0.2610  0.3081  0.6334
  192DG     H13 4406   0.695   2.853   3.373 -2.5106  0.7149 -0.8094
  192DG     H14 4407   0.731   2.743   3.255 -0.2934  0.2001 -0.1068
  192DG     H15 4408   1.121   2.782   3.540 -0.8306  0.4479 -0.7298
  192DG     H16 4409   1.187   2.632   3.605  0.6912 -2.4318 -1.5600
  192DG     C17 4410   0.762   2.662   3.454  0.3593  0.3174 -0.3619
  192DG     C18 4411   0.980   2.624   3.544  0.2669 -0.0029  0.2841
  192DG     O19 4412   0.899   2.700   3.452  0.8243 -0.3129 -0.7520
  192DG     H20 4413   0.758   2.558   3.422 -0.8761 -0.5524  2.3084
  192DG     H21 4414   0.714   2.668   3.551  0.0818  0.4466 -0.5049
  192DG     H22 4415   0.978   2.516   3.528 -0.8790 -0.4447  2.8761
  192DG     H23 4416   0.946   2.646   3.645  3.4589 -1.2607  1.7482
  193DG      C1 4417   4.786   2.275   1.513 -0.1715 -0.2214  0.0638
  193DG      C2 4418   5.395   1.835   1.542 -0.4348 -0.2399 -0.2595
  193DG      H3 4419   4.787   2.274   1.404 -1.9880  0.4113  0.0099
  193DG      H4 4420   4.834   2.371   1.532 -0.3059  0.3289 -2.1336
  193DG      H5 4421   4.691   2.287   1.565  0.4690  1.5168  0.9111
  193DG      H6 4422   5.431   1.936   1.521  2.6472 -1.0802  0.4763
  193DG      H7 4423   5.464   1.784   1.609 -0.2979  0.8218  0.4406
  193DG      H8 4424   5.382   1.786   1.446 -3.3834 -0.7643  0.3120
  193DG      O9 4425   4.877   2.171   1.557 -0.1064  0.2852 -0.1993
  193DG     O10 4426   5.263   1.841   1.596  0.0425 -1.0181 -0.2030
  193DG     C11 4427   4.913   2.190   1.690  0.4372  0.0476 -0.4608
  193DG     C12 4428   5.260   1.869   1.734 -0.3453 -0.2279  0.1525
  193DG     H13 4429   4.844   2.253   1.746  0.5228  2.6325 -3.0172
  193DG     H14 4430   4.996   2.260   1.692 -0.6675  1.4388 -1.3342
  193DG     H15 4431   5.309   1.964   1.758  1.2824 -0.9037 -0.3684
  193DG     H16 4432   5.301   1.800   1.807 -2.5060  0.3014  1.9656
  193DG     C17 4433   4.952   2.057   1.768 -0.3530  0.2037  0.1286
  193DG     C18 4434   5.119   1.896   1.782 -0.0927 -0.3791 -0.2953
  193DG     O19 4435   5.073   2.014   1.713  0.0590 -0.2819  0.1655
  193DG     H20 4436   4.864   1.992   1.764  0.4280 -0.8293 -2.4288
  193DG     H21 4437   4.960   2.090   1.872  1.5475  1.1781 -0.2792
  193DG     H22 4438   5.055   1.808   1.771 -0.4530 -0.1645  0.0741
  193DG     H23 4439   5.129   1.924   1.887  2.3982 -2.6446  0.1838
  194DG      C1 4440   1.919   0.880   0.761  0.1537 -0.6119  0.0259
  194DG      C2 4441   1.419   0.868   1.265  0.1713 -0.3521 -0.4492
  194DG      H3 4442   1.979   0.851   0.848  1.5157  0.3347 -0.5543
  194DG      H4 4443   1.958   0.982   0.751 -1.0324 -0.2826 -1.4562
  194DG      H5 4444   1.949   0.815   0.679  0.3030 -2.1354  1.2218
  194DG      H6 4445   1.427   0.967   1.310  0.1305 -1.1932  1.5344
  194DG      H7 4446   1.322   0.830   1.298 -0.1094  1.0938  0.5058
  194DG      H8 4447   1.493   0.807   1.318 -0.6513 -0.4557  0.6223
  194DG      O9 4448   1.781   0.873   0.802  0.2745  0.0763  0.9811
  194DG     O10 4449   1.439   0.873   1.125  0.4650 -0.0457 -0.2902
  194DG     C11 4450   1.686   0.931   0.708 -0.2965 -0.1160  0.1194
  194DG     C12 4451   1.346   0.960   1.069 -0.8057 -0.0423 -0.2098
  194DG     H13 4452   1.700   0.892   0.607  1.3351  1.4388 -0.2921
  194DG     H14 4453   1.702   1.038   0.700 -1.1255 -0.0167 -0.4305
  194DG     H15 4454   1.363   1.058   1.113 -0.2030 -0.3489  0.2497
  194DG     H16 4455   1.242   0.936   1.092 -1.5830  3.5938  0.6764
  194DG     C17 4456   1.536   0.926   0.746 -0.2655  0.8117  0.5459
  194DG     C18 4457   1.367   0.963   0.913 -1.0595 -0.0456  0.3872
  194DG     O19 4458   1.509   0.970   0.877 -0.3523 -0.9501  0.4019
  194DG     H20 4459   1.496   0.825   0.734  0.1981  0.6168  0.6199
  194DG     H21 4460   1.481   0.980   0.669  0.2666 -1.1261 -1.2968
  194DG     H22 4461   1.318   0.875   0.872 -1.4121  1.0404 -1.6651
  194DG     H23 4462   1.309   1.049   0.879 -1.2241 -0.8257 -1.3902
  195DG      C1 4463   4.278   1.873   1.841 -0.7819 -0.0304 -0.1237
  195DG      C2 4464   4.097   2.495   1.574  0.1810 -0.2263 -0.3968
  195DG      H3 4465   4.330   1.778   1.826 -1.8229 -0.6585  0.1783
  195DG      H4 4466   4.175   1.840   1.853 -0.5792 -0.3858  0.6932
  195DG      H5 4467   4.323   1.916   1.930 -0.9626  0.9534 -0.4906
  195DG      H6 4468   4.173   2.573   1.578 -0.6291  0.7098 -2.0403
  195DG      H7 4469   4.046   2.526   1.483 -0.5293 -0.0102  0.0688
  195DG      H8 4470   4.027   2.503   1.657 -0.2909 -0.0036 -0.8145
  195DG      O9 4471   4.284   1.959   1.729 -0.3313 -0.2393  0.3369
  195DG     O10 4472   4.142   2.364   1.568  0.4587  0.2959  0.0083
  195DG     C11 4473   4.415   1.999   1.701 -0.4068  0.4586  0.5246
  195DG     C12 4474   4.214   2.337   1.448  0.1447 -0.0974  0.5443
  195DG     H13 4475   4.480   1.911   1.702 -1.6564 -0.9438 -5.0285
  195DG     H14 4476   4.454   2.068   1.775  1.0138  1.2196 -0.8784
  195DG     H15 4477   4.299   2.401   1.428  0.5831 -0.4329  1.3057
  195DG     H16 4478   4.147   2.350   1.363  1.3166 -1.3645 -0.6350
  195DG     C17 4479   4.417   2.053   1.561  0.6705  0.3408 -0.0904
  195DG     C18 4480   4.272   2.196   1.445  0.4691 -0.3637  0.2864
  195DG     O19 4481   4.342   2.177   1.569 -0.2171 -0.2873 -0.0022
  195DG     H20 4482   4.376   1.982   1.491  0.5321  0.1107  0.2218
  195DG     H21 4483   4.519   2.078   1.531  0.8752 -1.5061 -1.0404
  195DG     H22 4484   4.190   2.124   1.438 -1.5347  1.7775  0.3778
  195DG     H23 4485   4.337   2.192   1.357 -0.6049  0.9799 -0.6071
  196DG      C1 4486   0.132   4.678   3.397  0.6322  0.1894  0.5390
  196DG      C2 4487   0.159   5.185   2.800 -0.2232 -0.1788  0.1341
  196DG      H3 4488   0.160   4.784   3.398  1.5015  0.0303 -1.9449
  196DG      H4 4489   0.223   4.621   3.415  0.8795  0.6329  0.7178
  196DG      H5 4490   0.056   4.661   3.474 -0.9752  0.4697 -0.9191
  196DG      H6 4491   0.158   5.144   2.698  0.4500 -3.3229  1.2716
  196DG      H7 4492   0.130   5.290   2.797 -0.1904 -0.1644 -2.2847
  196DG      H8 4493   0.260   5.180   2.842  1.0090 -0.3525 -2.5968
  196DG      O9 4494   0.081   4.658   3.269 -0.2189  0.1789  0.3974
  196DG     O10 4495   0.075   5.112   2.885 -0.2443 -0.4657 -0.3686
  196DG     C11 4496  -0.038   4.727   3.234 -0.2776 -0.3367 -0.5945
  196DG     C12 4497   0.096   4.973   2.883 -0.6064 -0.0671  0.9245
  196DG     H13 4498  -0.023   4.830   3.267  0.4335 -1.4125  2.8366
  196DG     H14 4499  -0.119   4.683   3.292 -1.4196  1.4051 -0.7856
  196DG     H15 4500   0.202   4.956   2.901  0.0041  0.4221 -1.8486
  196DG     H16 4501   0.061   4.930   2.789  0.6301  0.3831  0.2429
  196DG     C17 4502  -0.082   4.714   3.089 -0.4410  0.2968  0.9937
  196DG     C18 4503   0.001   4.931   2.998 -0.5850 -0.1023 -0.4164
  196DG     O19 4504   0.010   4.783   2.998 -0.0056 -0.1224 -0.4688
  196DG     H20 4505  -0.181   4.755   3.073 -0.7904 -0.1894  1.8444
  196DG     H21 4506  -0.093   4.610   3.058 -0.5922 -0.1215  2.4115
  196DG     H22 4507   0.027   4.978   3.093  1.2084 -1.8593  0.0492
  196DG     H23 4508  -0.101   4.955   2.971 -1.0965 -0.9381  0.6768
  197DG      C1 4509   0.665   3.045   0.244 -0.6152 -0.0102  0.6001
  197DG      C2 4510   0.859   3.198  -0.381 -0.3447  0.0630  1.0209
  197DG      H3 4511   0.566   3.066   0.286 -0.4396  1.2485  0.4441
  197DG      H4 4512   0.722   3.137   0.256 -0.6708  0.3357 -1.4903
  197DG      H5 4513   0.717   2.972   0.305 -1.7686 -2.0184 -0.7305
  197DG      H6 4514   0.896   3.155  -0.475 -1.2525  2.2233 -0.4058
  197DG      H7 4515   0.770   3.255  -0.404 -0.8058 -0.8118  0.5905
  197DG      H8 4516   0.943   3.256  -0.342  0.4959  0.2801 -0.9836
  197DG      O9 4517   0.650   3.005   0.106 -0.3563  0.0179 -0.7410
  197DG     O10 4518   0.821   3.092  -0.297  0.0513 -0.0345  0.3114
  197DG     C11 4519   0.620   2.864   0.095  0.0909  0.1758  0.4169
  197DG     C12 4520   0.724   3.004  -0.358 -0.5808 -0.8747 -0.3830
  197DG     H13 4521   0.511   2.864   0.091 -0.1462  5.4332  0.0087
  197DG     H14 4522   0.668   2.796   0.166  0.7340 -1.0158 -1.0980
  197DG     H15 4523   0.760   2.978  -0.457 -1.0834 -0.0913 -0.7817
  197DG     H16 4524   0.628   3.056  -0.368 -0.0564  0.0175 -0.9124
  197DG     C17 4525   0.665   2.814  -0.041 -0.0769  0.1315 -0.7234
  197DG     C18 4526   0.707   2.879  -0.271  0.1619 -0.5583 -0.8881
  197DG     O19 4527   0.669   2.920  -0.145 -0.0366  0.4127  0.1239
  197DG     H20 4528   0.586   2.743  -0.067 -2.6491  1.2262  3.1444
  197DG     H21 4529   0.761   2.764  -0.030 -0.5810 -0.4272  1.3961
  197DG     H22 4530   0.627   2.815  -0.308 -2.0593  1.2485  0.5231
  197DG     H23 4531   0.794   2.814  -0.265 -0.6919 -1.6947 -0.3871
  198DG      C1 4532   0.990   4.354   2.128 -0.5452 -0.6704  1.0807
  198DG      C2 4533   1.240   3.785   2.205  0.0919 -0.5827 -0.4730
  198DG      H3 4534   0.993   4.294   2.037 -0.1596  0.1717  0.5316
  198DG      H4 4535   0.997   4.460   2.107 -1.1649 -0.7345  0.5380
  198DG      H5 4536   0.896   4.340   2.182  0.3952 -1.8785  2.4944
  198DG      H6 4537   1.284   3.718   2.279 -1.0803 -0.2095  0.5992
  198DG      H7 4538   1.134   3.759   2.207  0.1773 -1.1266  2.3759
  198DG      H8 4539   1.280   3.764   2.106  1.2236  0.3932 -0.2465
  198DG      O9 4540   1.096   4.292   2.201 -0.2669  0.1483 -0.3443
  198DG     O10 4541   1.269   3.919   2.239 -0.3609  0.0705 -0.4316
  198DG     C11 4542   1.121   4.343   2.329 -0.4934 -0.3549 -0.5696
  198DG     C12 4543   1.336   3.934   2.369 -0.0389 -0.3354  0.0030
  198DG     H13 4544   1.035   4.312   2.388 -0.7749  0.8790 -0.2976
  198DG     H14 4545   1.122   4.452   2.321 -1.9866 -0.2864 -0.1745
  198DG     H15 4546   1.423   3.871   2.384 -0.4658 -0.4171  2.7303
  198DG     H16 4547   1.268   3.896   2.446 -0.7103 -0.2729 -0.5471
  198DG     C17 4548   1.256   4.281   2.380  0.3400 -0.3193  1.3124
  198DG     C18 4549   1.357   4.081   2.398 -0.5967  0.1323  0.1168
  198DG     O19 4550   1.245   4.146   2.348  0.6831 -0.2584  0.2162
  198DG     H20 4551   1.259   4.294   2.489 -1.6434 -0.2217  1.4016
  198DG     H21 4552   1.345   4.321   2.332  1.2647 -0.4618  2.8340
  198DG     H22 4553   1.378   4.094   2.504  0.9984 -1.4903  0.0463
  198DG     H23 4554   1.441   4.114   2.337 -1.2593  0.2806 -0.7407
  199DG      C1 4555   3.555   5.142   2.067 -0.0944 -0.6234 -0.7332
  199DG      C2 4556   3.551   5.531   1.271  0.5832  1.0675  0.3950
  199DG      H3 4557   3.487   5.071   2.114  0.3628  0.0313  0.9924
  199DG      H4 4558   3.572   5.229   2.130 -0.0437  1.4475 -3.3811
  199DG      H5 4559   3.649   5.092   2.048 -0.7047 -2.5263  0.9731
  199DG      H6 4560   3.607   5.475   1.196 -0.3026  1.2102 -0.3889
  199DG      H7 4561   3.484   5.590   1.210  1.6581  0.6464 -1.2615
  199DG      H8 4562   3.622   5.597   1.321  3.0241 -0.8367 -0.3208
  199DG      O9 4563   3.502   5.177   1.934  0.5538  0.5073 -0.2511
  199DG     O10 4564   3.474   5.450   1.359 -0.3546  0.1401 -0.2238
  199DG     C11 4565   3.505   5.075   1.833  0.1547  0.9441  0.5100
  199DG     C12 4566   3.549   5.356   1.435 -0.2263  0.4553 -0.1011
  199DG     H13 4567   3.456   4.990   1.880 -0.0067  1.1217  0.6659
  199DG     H14 4568   3.605   5.030   1.829 -0.4222 -0.3598  0.1856
  199DG     H15 4569   3.608   5.419   1.502 -0.4146  0.3436  0.1703
  199DG     H16 4570   3.625   5.299   1.381  0.5631  1.9761 -0.6507
  199DG     C17 4571   3.450   5.108   1.699  0.1040  0.0793 -0.4379
  199DG     C18 4572   3.461   5.253   1.507  0.2871  0.1557 -0.8112
  199DG     O19 4573   3.525   5.201   1.625 -0.1828 -0.8824 -0.5039
  199DG     H20 4574   3.354   5.153   1.724 -0.2646  0.4029 -2.2844
  199DG     H21 4575   3.443   5.020   1.635 -0.6510 -0.3190  0.1800
  199DG     H22 4576   3.376   5.312   1.542  1.4377  1.3598  0.0139
  199DG     H23 4577   3.424   5.174   1.441 -1.5271 -0.4740  0.8493
  200DG      C1 4578   1.226   4.725   0.476  0.8093  0.1075 -0.5058
  200DG      C2 4579   1.391   5.351   0.405  0.0088  0.0012 -0.4905
  200DG      H3 4580   1.311   4.657   0.472  0.1597 -0.8639  1.0564
  200DG      H4 4581   1.137   4.662   0.465  1.5184 -0.9914 -0.1123
  200DG      H5 4582   1.225   4.769   0.575  3.6850  0.4433 -0.5419
  200DG      H6 4583   1.478   5.365   0.341  1.6475 -2.0519  1.1289
  200DG      H7 4584   1.328   5.439   0.418  1.6477  0.9442  1.7526
  200DG      H8 4585   1.426   5.331   0.506 -1.0694  0.3637 -0.0326
  200DG      O9 4586   1.234   4.825   0.379  0.1770  0.3863 -0.0836
  200DG     O10 4587   1.325   5.237   0.342 -0.2074  0.3001  0.8282
  200DG     C11 4588   1.202   4.793   0.248  0.1990  0.5860 -0.8943
  200DG     C12 4589   1.267   5.266   0.212 -0.0054 -0.0928 -0.2313
  200DG     H13 4590   1.122   4.719   0.245  1.1566 -0.4960 -0.3930
  200DG     H14 4591   1.298   4.758   0.211  0.7102  0.8799  0.1165
  200DG     H15 4592   1.352   5.290   0.147  0.8927  0.9414  1.2696
  200DG     H16 4593   1.206   5.356   0.212  1.2497  0.8688 -2.8780
  200DG     C17 4594   1.148   4.914   0.177  0.2641  0.1837  0.0928
  200DG     C18 4595   1.179   5.147   0.169 -0.3263 -0.2078  0.3497
  200DG     O19 4596   1.229   5.023   0.220  0.1454  0.7503  0.3829
  200DG     H20 4597   1.043   4.928   0.200  0.5918  0.1204  1.7642
  200DG     H21 4598   1.147   4.900   0.069 -0.0332  0.7288  0.0192
  200DG     H22 4599   1.081   5.168   0.211 -0.0497 -0.1647  0.9944
  200DG     H23 4600   1.179   5.147   0.060  0.6960  2.3565  0.2742
  201DG      C1 4601   2.878   5.492   2.098 -0.2729  0.5335 -0.5465
  201DG      C2 4602   3.134   5.491   1.322 -0.0653  0.0172  0.1797
  201DG      H3 4603   2.867   5.398   2.152  1.4069  0.1536 -0.8148
  201DG      H4 4604   2.802   5.509   2.022  1.1944  0.5595 -2.0596
  201DG      H5 4605   2.870   5.581   2.161 -0.3550 -0.1346  0.4223
  201DG      H6 4606   3.219   5.431   1.290 -2.1661 -1.9077 -2.1519
  201DG      H7 4607   3.075   5.518   1.235  2.2708  1.4314 -1.0668
  201DG      H8 4608   3.175   5.584   1.362 -1.0348  0.1202  0.9744
  201DG      O9 4609   2.996   5.492   2.021  0.0271 -0.2403 -0.3760
  201DG     O10 4610   3.045   5.426   1.413  0.2093  0.0600 -1.2285
  201DG     C11 4611   2.996   5.400   1.908  0.3417 -0.5158 -0.0021
  201DG     C12 4612   2.953   5.518   1.479  0.0068  0.5357  0.1370
  201DG     H13 4613   2.911   5.333   1.916  0.6322 -0.7396  1.3198
  201DG     H14 4614   3.084   5.336   1.907  1.5152  1.0359 -0.2013
  201DG     H15 4615   2.890   5.574   1.409 -1.1620 -0.4884  0.3459
  201DG     H16 4616   3.005   5.599   1.529 -0.0590  0.8638 -0.3123
  201DG     C17 4617   2.981   5.481   1.777 -0.5798 -0.8289 -0.0579
  201DG     C18 4618   2.871   5.436   1.576  0.3231  0.1015  0.3898
  201DG     O19 4619   2.951   5.386   1.673  0.2166 -0.3019  0.4800
  201DG     H20 4620   3.070   5.537   1.752 -1.6434  0.4487 -1.0981
  201DG     H21 4621   2.908   5.561   1.791 -1.3055 -1.2432 -1.3280
  201DG     H22 4622   2.788   5.496   1.614 -0.8070 -0.8096 -0.5351
  201DG     H23 4623   2.818   5.355   1.524  0.8668 -0.9142  1.3739
  202DG      C1 4624   0.597   4.889   1.608  0.4230 -0.2247  0.6909
  202DG      C2 4625   0.499   4.550   1.979  0.4825 -0.4394  0.0539
  202DG      H3 4626   0.565   4.969   1.541 -0.4380  0.7520  2.2087
  202DG      H4 4627   0.704   4.872   1.602  0.3565 -0.3078 -0.5459
  202DG      H5 4628   0.579   4.920   1.711 -0.5806 -0.9553  0.7497
  202DG      H6 4629   0.484   4.517   2.082  0.2095 -2.0755 -0.4812
  202DG      H7 4630   0.600   4.523   1.949  0.4836  0.6733 -0.9904
  202DG      H8 4631   0.486   4.656   1.958 -2.2986 -0.6030  0.5039
  202DG      O9 4632   0.508   4.780   1.574  0.1443  0.1980 -0.4030
  202DG     O10 4633   0.410   4.476   1.893  0.1881  0.7070 -0.4829
  202DG     C11 4634   0.374   4.825   1.572 -0.2636  0.3390 -0.5519
  202DG     C12 4635   0.268   4.499   1.912  0.1580 -0.2277 -0.1786
  202DG     H13 4636   0.320   4.774   1.493  0.5476 -1.7970  0.1697
  202DG     H14 4637   0.363   4.930   1.547 -2.1413  0.5556  0.9256
  202DG     H15 4638   0.247   4.504   2.019 -1.3874  0.8448 -0.5048
  202DG     H16 4639   0.208   4.416   1.875 -0.3068 -0.4894  1.1080
  202DG     C17 4640   0.309   4.791   1.701 -0.3357  0.8682 -0.6084
  202DG     C18 4641   0.227   4.630   1.849  0.0279 -0.2727 -0.8178
  202DG     O19 4642   0.304   4.655   1.741 -0.1899  0.0706  0.5200
  202DG     H20 4643   0.208   4.831   1.706 -1.8941 -2.7778  0.5471
  202DG     H21 4644   0.358   4.844   1.783 -1.5890 -0.1954  0.8853
  202DG     H22 4645   0.121   4.634   1.824 -0.6678 -1.1476  1.6213
  202DG     H23 4646   0.241   4.713   1.919  0.9940 -0.7587 -0.4198
  203DG      C1 4647   3.143   2.705   4.436  0.1039  0.3382  0.6214
  203DG      C2 4648   3.058   2.157   4.956 -0.0289 -0.2552 -0.2565
  203DG      H3 4649   3.163   2.812   4.434 -1.5483  0.6650 -0.3178
  203DG      H4 4650   3.037   2.698   4.412  0.3808 -0.3161 -0.4545
  203DG      H5 4651   3.202   2.666   4.354  0.6411 -0.0291  1.1712
  203DG      H6 4652   3.085   2.113   5.052 -0.2692 -0.6912 -0.3832
  203DG      H7 4653   2.952   2.133   4.944 -0.1052  0.3383 -0.8135
  203DG      H8 4654   3.119   2.118   4.874 -0.5764  0.2018 -0.8907
  203DG      O9 4655   3.186   2.645   4.560  0.3982  0.5720  0.3963
  203DG     O10 4656   3.072   2.295   4.971 -0.0548 -0.0026  0.4144
  203DG     C11 4657   3.108   2.684   4.667  0.4937 -0.6018 -1.4092
  203DG     C12 4658   3.209   2.331   4.982  0.4556  0.3953  0.1474
  203DG     H13 4659   3.011   2.637   4.656  0.3728 -1.1702  1.4728
  203DG     H14 4660   3.097   2.792   4.660  0.8408 -0.6059 -2.2330
  203DG     H15 4661   3.275   2.294   4.904 -0.1251  0.0165 -0.1653
  203DG     H16 4662   3.256   2.300   5.076 -1.0886 -3.8687 -0.2642
  203DG     C17 4663   3.161   2.652   4.814 -0.1021  1.0928 -0.4493
  203DG     C18 4664   3.226   2.479   4.974 -0.1247 -0.3015  1.3245
  203DG     O19 4665   3.183   2.515   4.839 -0.1019  0.5987  0.0147
  203DG     H20 4666   3.095   2.702   4.885 -0.4438 -0.2576  0.2232
  203DG     H21 4667   3.257   2.702   4.827  1.2768 -1.9906  3.2183
  203DG     H22 4668   3.161   2.529   5.046  0.2469 -0.4457  1.7687
  203DG     H23 4669   3.330   2.508   4.988  0.2375 -1.8220  2.0310
  204DG      C1 4670   4.727   5.162   0.302 -0.9304 -0.2574 -0.0194
  204DG      C2 4671   4.633   5.687   0.087  0.9878  0.1214 -0.5318
  204DG      H3 4672   4.827   5.136   0.337 -0.6863  0.5310 -0.1031
  204DG      H4 4673   4.714   5.135   0.198 -1.3833 -0.6529  0.1339
  204DG      H5 4674   4.659   5.101   0.362 -3.1863  2.5088  0.4640
  204DG      H6 4675   4.546   5.741   0.049 -1.0941 -1.9408  1.0624
  204DG      H7 4676   4.717   5.717   0.024  1.2228  3.2164  1.0869
  204DG      H8 4677   4.623   5.578   0.082  2.4122 -0.1546  1.5669
  204DG      O9 4678   4.681   5.299   0.321 -0.6549  0.5401  0.1798
  204DG     O10 4679   4.663   5.733   0.214 -0.0028 -0.3861  0.0512
  204DG     C11 4680   4.681   5.337   0.457 -0.1333  0.1609  0.5003
  204DG     C12 4681   4.556   5.732   0.302  0.0101 -0.2901  0.0014
  204DG     H13 4682   4.788   5.352   0.474  0.6805 -3.6962 -0.1437
  204DG     H14 4683   4.651   5.253   0.520 -2.8152  0.4431 -0.2992
  204DG     H15 4684   4.490   5.649   0.278  1.2788 -1.2165 -0.3971
  204DG     H16 4685   4.488   5.816   0.315 -0.8673 -1.3523  3.4682
  204DG     C17 4686   4.600   5.467   0.480  0.1500 -0.0484 -0.4045
  204DG     C18 4687   4.607   5.708   0.445  0.9421  1.0459  0.1911
  204DG     O19 4688   4.676   5.581   0.449  0.1574 -0.3360  0.1190
  204DG     H20 4689   4.569   5.471   0.585 -2.2198 -0.1199 -1.0608
  204DG     H21 4690   4.506   5.473   0.427 -0.7577 -0.4012  1.0967
  204DG     H22 4691   4.666   5.798   0.457  1.2265  1.5572 -3.6083
  204DG     H23 4692   4.530   5.700   0.521  0.4058 -1.5033 -0.5143
  205DG      C1 4693   0.657   4.822   4.591 -0.0690 -0.0651 -0.1732
  205DG      C2 4694   0.533   4.851   5.095 -0.0918 -0.1801  0.1119
  205DG      H3 4695   0.706   4.760   4.666  0.3239 -1.8821 -1.8280
  205DG      H4 4696   0.719   4.910   4.580 -1.3597  0.7548 -1.2539
  205DG      H5 4697   0.657   4.769   4.495 -0.4309  0.2595 -0.3543
  205DG      H6 4698   0.615   4.895   5.152 -0.2806  0.6973 -0.2813
  205DG      H7 4699   0.527   4.895   4.996 -1.2960 -0.0548  0.2186
  205DG      H8 4700   0.447   4.876   5.158  0.2093  0.1906  0.3878
  205DG      O9 4701   0.520   4.854   4.621 -0.0582  0.3039  0.3302
  205DG     O10 4702   0.513   4.716   5.074 -0.3721  0.3469  0.2734
  205DG     C11 4703   0.431   4.740   4.627 -0.2082 -0.4436  0.2237
  205DG     C12 4704   0.633   4.653   5.025 -0.0038  0.1081 -0.1770
  205DG     H13 4705   0.451   4.661   4.555 -1.0621 -1.1250  0.7183
  205DG     H14 4706   0.332   4.772   4.595  0.9715  1.5815 -1.6959
  205DG     H15 4707   0.672   4.584   5.100  1.1152  1.2789  0.3670
  205DG     H16 4708   0.722   4.715   5.013  1.1683 -1.2576  1.0505
  205DG     C17 4709   0.433   4.683   4.772  0.1137  0.1937  0.5649
  205DG     C18 4710   0.603   4.562   4.902 -0.3148 -0.8316  0.4325
  205DG     O19 4711   0.566   4.631   4.782  0.2304  0.1604  0.6107
  205DG     H20 4712   0.364   4.598   4.773 -0.1515  0.4028  0.3075
  205DG     H21 4713   0.398   4.751   4.850 -0.4238  0.1105  0.4045
  205DG     H22 4714   0.682   4.489   4.886 -0.1093 -0.2430 -1.5327
  205DG     H23 4715   0.524   4.493   4.932 -0.2875  0.2259  3.2638
  206DG      C1 4716   2.891   4.939   4.392  0.6991 -0.0534  0.1038
  206DG      C2 4717   3.071   4.379   4.121 -0.7877  0.3631 -0.3607
  206DG      H3 4718   2.815   4.963   4.318  1.7227  1.9862 -0.3391
  206DG      H4 4719   2.987   4.968   4.350 -0.1317  0.9083 -1.2128
  206DG      H5 4720   2.870   4.982   4.490 -2.6181 -0.0576 -0.5062
  206DG      H6 4721   3.033   4.290   4.071 -1.9947  1.1676 -0.9250
  206DG      H7 4722   3.097   4.447   4.041  1.5707 -0.6968 -0.5788
  206DG      H8 4723   3.148   4.347   4.192 -0.8283  2.4939  0.6990
  206DG      O9 4724   2.891   4.796   4.419  0.3879  0.3975  0.6330
  206DG     O10 4725   2.968   4.425   4.195 -0.0120 -0.2602  0.0967
  206DG     C11 4726   2.771   4.746   4.470 -0.2478 -0.0627 -0.1427
  206DG     C12 4727   2.881   4.324   4.248 -0.6193 -0.4892  0.0337
  206DG     H13 4728   2.681   4.764   4.411  0.2172 -0.8807 -1.1319
  206DG     H14 4729   2.763   4.785   4.572  1.5807  1.3406 -0.4776
  206DG     H15 4730   2.937   4.232   4.268 -1.5313 -1.4345 -1.5540
  206DG     H16 4731   2.805   4.291   4.177 -2.1846  1.7541  0.5675
  206DG     C17 4732   2.776   4.594   4.486 -0.2508  0.6554 -0.1213
  206DG     C18 4733   2.828   4.385   4.382  0.4310 -0.5255  0.1996
  206DG     O19 4734   2.811   4.520   4.365 -0.2614  0.5217  0.0129
  206DG     H20 4735   2.679   4.553   4.514  0.4362 -1.1296 -0.1877
  206DG     H21 4736   2.853   4.566   4.558  0.0107 -0.2728 -0.7295
  206DG     H22 4737   2.738   4.332   4.412  0.7010  0.1070  2.2332
  206DG     H23 4738   2.909   4.369   4.453  0.2679  0.9733  0.7686
  207DG      C1 4739   3.761   1.849   3.620 -0.0690  0.1357 -0.4839
  207DG      C2 4740   3.071   1.955   3.778 -0.2101 -0.2384  1.2174
  207DG      H3 4741   3.763   1.763   3.554  1.4495  1.6229 -2.4785
  207DG      H4 4742   3.854   1.870   3.672 -0.9057 -1.5863  1.8893
  207DG      H5 4743   3.734   1.924   3.546  2.4620  1.1430 -0.4883
  207DG      H6 4744   3.020   2.012   3.855  1.2621 -1.1609  2.9412
  207DG      H7 4745   3.071   2.018   3.689 -1.3540 -4.5124 -2.1795
  207DG      H8 4746   3.015   1.872   3.734 -1.2156  0.9759  0.1410
  207DG      O9 4747   3.662   1.855   3.717 -0.0812  0.1607 -0.8492
  207DG     O10 4748   3.205   1.918   3.809 -0.5095 -0.3667  0.1927
  207DG     C11 4749   3.667   1.733   3.787  0.4591 -0.0622 -0.1739
  207DG     C12 4750   3.209   1.818   3.906 -0.2277  0.5900  0.3852
  207DG     H13 4751   3.770   1.715   3.816  0.7942 -1.9303 -2.3046
  207DG     H14 4752   3.645   1.649   3.722  2.6416 -0.9122  0.1074
  207DG     H15 4753   3.177   1.724   3.863 -0.9242  1.2773 -0.6367
  207DG     H16 4754   3.131   1.836   3.981 -0.5520 -0.6158  0.3607
  207DG     C17 4755   3.569   1.741   3.900  0.1801 -0.6721 -0.5373
  207DG     C18 4756   3.347   1.799   3.967  0.3648  0.1828 -0.1913
  207DG     O19 4757   3.435   1.771   3.860  0.3428 -0.0135  0.3414
  207DG     H20 4758   3.600   1.827   3.959  2.0880 -0.7405 -1.3799
  207DG     H21 4759   3.578   1.660   3.973  3.7536  1.3182  1.4951
  207DG     H22 4760   3.375   1.893   4.014 -0.5266  0.1662  0.3965
  207DG     H23 4761   3.350   1.718   4.040 -2.8047  0.3873  0.3226
  208DG      C1 4762   3.218   2.085   1.335  0.6233 -0.7435 -0.5485
  208DG      C2 4763   3.203   2.692   1.649  0.2370  0.7096  0.0968
  208DG      H3 4764   3.121   2.048   1.370  1.1725 -0.4325  1.4461
  208DG      H4 4765   3.266   1.988   1.338 -0.3821 -1.2541  2.4729
  208DG      H5 4766   3.205   2.129   1.236  0.9446  1.2205  0.2329
  208DG      H6 4767   3.163   2.686   1.750  0.6569  0.0474  0.2302
  208DG      H7 4768   3.262   2.783   1.662 -0.9929  1.4025  1.0529
  208DG      H8 4769   3.120   2.701   1.579  1.9855  1.5361 -1.9836
  208DG      O9 4770   3.296   2.169   1.424 -0.7291 -0.2851  0.3480
  208DG     O10 4771   3.277   2.577   1.614 -1.0097 -0.3257  0.2453
  208DG     C11 4772   3.433   2.190   1.377 -0.0702  0.0332  0.4884
  208DG     C12 4773   3.405   2.580   1.675 -0.4344  0.9890  0.6916
  208DG     H13 4774   3.435   2.223   1.273  1.9576 -1.1875  0.0748
  208DG     H14 4775   3.480   2.092   1.370 -1.6188 -0.8786  2.1177
  208DG     H15 4776   3.390   2.593   1.782  1.1923 -1.1519  1.2553
  208DG     H16 4777   3.453   2.672   1.644  3.2361 -1.4079 -1.5727
  208DG     C17 4778   3.502   2.277   1.484 -0.0505 -0.0324  0.7730
  208DG     C18 4779   3.491   2.461   1.634 -0.1654 -0.3045 -0.4427
  208DG     O19 4780   3.437   2.397   1.521 -0.0773 -0.3859  0.5157
  208DG     H20 4781   3.598   2.306   1.442 -1.0207 -0.0550 -1.6548
  208DG     H21 4782   3.518   2.213   1.570 -0.5345 -0.9101  0.2292
  208DG     H22 4783   3.597   2.485   1.628 -0.0217 -0.9771 -0.6998
  208DG     H23 4784   3.482   2.396   1.722 -2.0108  2.0642  1.2626
  209DG      C1 4785   5.244   3.053   5.043  0.0926 -0.3927 -0.7022
  209DG      C2 4786   5.779   3.436   5.115  0.1662  0.4146  0.3586
  209DG      H3 4787   5.250   3.115   4.954 -0.1200  1.0720  0.2696
  209DG      H4 4788   5.177   3.114   5.104  1.5141 -1.1661  1.8065
  209DG      H5 4789   5.198   2.956   5.024  1.1182 -1.0060 -0.1384
  209DG      H6 4790   5.786   3.510   5.195  0.5478 -0.2970  0.9933
  209DG      H7 4791   5.850   3.457   5.035 -0.0182 -0.9044 -0.1765
  209DG      H8 4792   5.678   3.444   5.074 -0.2680 -3.0761  0.5107
  209DG      O9 4793   5.368   3.042   5.109 -0.1543 -0.0989 -0.4505
  209DG     O10 4794   5.786   3.309   5.174 -0.3149 -0.1504 -0.5535
  209DG     C11 4795   5.463   2.975   5.019  0.2000 -0.6780  0.5378
  209DG     C12 4796   5.848   3.217   5.096 -0.1850 -0.0254 -0.0435
  209DG     H13 4797   5.494   3.033   4.931  0.1488 -0.2603  0.7916
  209DG     H14 4798   5.428   2.884   4.971  1.5413 -0.3004 -1.2937
  209DG     H15 4799   5.956   3.231   5.105 -0.3673  1.5058 -0.0728
  209DG     H16 4800   5.824   3.228   4.990  1.4491 -0.2624 -0.4742
  209DG     C17 4801   5.590   2.953   5.114  0.0100 -0.0831 -0.1348
  209DG     C18 4802   5.799   3.071   5.121 -0.9305 -0.4921 -0.0623
  209DG     O19 4803   5.657   3.078   5.125  0.2972 -0.3817 -0.1905
  209DG     H20 4804   5.652   2.876   5.067 -1.2365 -1.2126 -0.0014
  209DG     H21 4805   5.563   2.910   5.211 -0.9893 -2.3436 -1.3430
  209DG     H22 4806   5.824   3.006   5.037 -0.6822  1.3700 -1.4808
  209DG     H23 4807   5.836   3.028   5.214 -2.7300 -1.4722  0.2508
  210DG      C1 4808   0.028   3.107   0.425 -0.3245  0.1199  0.2890
  210DG      C2 4809   0.588   2.512   0.669 -0.0906  0.0465  0.0053
  210DG      H3 4810  -0.010   3.201   0.386 -0.1599  0.2235  0.3755
  210DG      H4 4811   0.014   3.103   0.533  0.3193 -1.0872  0.3539
  210DG      H5 4812  -0.038   3.038   0.372 -1.0467 -0.1510  1.4894
  210DG      H6 4813   0.505   2.442   0.679 -1.0063  1.0323 -0.4242
  210DG      H7 4814   0.670   2.460   0.620  0.4360 -0.9732  1.8958
  210DG      H8 4815   0.631   2.543   0.764  1.6948  0.2612 -0.8331
  210DG      O9 4816   0.163   3.081   0.384  0.2262  0.4669 -0.0065
  210DG     O10 4817   0.546   2.615   0.588  0.4812  0.0830 -0.0018
  210DG     C11 4818   0.211   2.979   0.468 -0.2958  0.1446  0.9948
  210DG     C12 4819   0.490   2.563   0.472  0.0825 -0.2370  0.1966
  210DG     H13 4820   0.140   2.906   0.506 -0.8471  0.1748  0.0553
  210DG     H14 4821   0.272   3.027   0.545  1.4866  1.0593 -0.8804
  210DG     H15 4822   0.397   2.508   0.491 -0.8017  0.5969 -1.5338
  210DG     H16 4823   0.562   2.510   0.410  0.7617  1.6791 -0.7099
  210DG     C17 4824   0.323   2.904   0.393  0.4948  0.7343 -0.0414
  210DG     C18 4825   0.450   2.691   0.397  0.2319 -0.0153 -0.2146
  210DG     O19 4826   0.354   2.775   0.462  0.6810 -0.2092  0.5057
  210DG     H20 4827   0.406   2.974   0.393 -0.0231  1.3855  1.4248
  210DG     H21 4828   0.287   2.878   0.294  0.0299 -3.6362  1.0601
  210DG     H22 4829   0.544   2.744   0.381  1.8681 -3.0321 -1.5339
  210DG     H23 4830   0.418   2.667   0.296  1.2745 -0.9702 -0.3431
  211DG      C1 4831   4.247   0.139   2.024 -0.0829  0.3285  0.4233
  211DG      C2 4832   4.478   0.250   2.634  0.1615  0.2978 -0.3073
  211DG      H3 4833   4.155   0.198   2.024  0.4940  1.2601  1.1525
  211DG      H4 4834   4.221   0.049   2.079  0.1886  1.2647  2.1323
  211DG      H5 4835   4.253   0.112   1.918 -1.7369  0.6313  0.2135
  211DG      H6 4836   4.463   0.142   2.622  0.3403  0.3665 -1.2743
  211DG      H7 4837   4.549   0.275   2.712 -0.1323  4.3686 -1.1275
  211DG      H8 4838   4.385   0.306   2.646 -0.4032 -0.5597 -0.5749
  211DG      O9 4839   4.355   0.207   2.082  0.1656 -0.5857  0.2726
  211DG     O10 4840   4.538   0.286   2.508  0.4487  0.3504  0.7273
  211DG     C11 4841   4.487   0.160   2.055 -0.2206 -0.7021  0.1712
  211DG     C12 4842   4.673   0.234   2.480 -0.3697 -0.2569  0.4856
  211DG     H13 4843   4.499   0.159   1.947  0.1677 -2.0853  0.1967
  211DG     H14 4844   4.479   0.054   2.082 -4.1939 -1.1282 -2.0049
  211DG     H15 4845   4.668   0.128   2.506  0.3031 -0.5680 -0.5926
  211DG     H16 4846   4.751   0.281   2.540  0.2934 -0.5418 -0.1451
  211DG     C17 4847   4.593   0.243   2.128  0.5366 -0.1145 -0.2919
  211DG     C18 4848   4.705   0.253   2.332  0.7626  0.1389  0.2093
  211DG     O19 4849   4.595   0.187   2.262  0.0242  0.0718 -0.8130
  211DG     H20 4850   4.572   0.350   2.130  1.9324  0.1920  2.2107
  211DG     H21 4851   4.692   0.235   2.085  1.2584  1.4871  0.9736
  211DG     H22 4852   4.708   0.359   2.306 -0.9518  0.3979  0.9562
  211DG     H23 4853   4.799   0.201   2.312 -0.3135 -1.5111 -0.7182
  212DG      C1 4854   4.687   4.068   4.521  0.4775 -0.2294 -0.1079
  212DG      C2 4855   3.972   4.158   4.943  0.2629 -0.5372 -0.2191
  212DG      H3 4856   4.736   3.971   4.514  2.0382  0.5608 -0.5708
  212DG      H4 4857   4.753   4.150   4.495 -0.2231  0.1132 -0.8819
  212DG      H5 4858   4.611   4.064   4.443 -0.8188 -1.1461  1.1470
  212DG      H6 4859   4.005   4.255   4.981 -0.8371  0.0977 -0.8376
  212DG      H7 4860   3.875   4.167   4.894 -1.4360 -1.8874  2.6165
  212DG      H8 4861   3.967   4.107   5.039  0.3252  0.5263  0.3635
  212DG      O9 4862   4.620   4.094   4.642  0.2187  0.3989 -0.2279
  212DG     O10 4863   4.062   4.097   4.857  0.4074 -0.0802 -0.4350
  212DG     C11 4864   4.531   3.995   4.691 -0.0658 -0.1768 -0.3910
  212DG     C12 4865   4.074   4.179   4.735 -0.6217 -0.1468 -0.2101
  212DG     H13 4866   4.519   4.016   4.797 -0.2378  0.3099 -0.5006
  212DG     H14 4867   4.578   3.897   4.700 -0.9349 -0.5109  0.7231
  212DG     H15 4868   4.109   4.281   4.750 -0.8747 -0.1128  0.1619
  212DG     H16 4869   3.978   4.191   4.685 -0.7166 -0.8570 -0.2105
  212DG     C17 4870   4.392   3.998   4.625  0.3162  0.3446 -0.0547
  212DG     C18 4871   4.171   4.102   4.641 -0.9067 -0.0847 -0.1597
  212DG     O19 4872   4.299   4.081   4.700 -0.2903 -0.1670 -0.3886
  212DG     H20 4873   4.349   3.898   4.627  0.2778  0.3503 -0.5764
  212DG     H21 4874   4.393   4.027   4.520  1.1563 -1.3776 -0.5682
  212DG     H22 4875   4.126   4.007   4.613  1.7036 -0.6485 -3.1279
  212DG     H23 4876   4.187   4.153   4.546  0.1838  0.9030  0.5245
  213DG      C1 4877   3.489   2.972   2.659 -0.6549  0.7675 -0.0089
  213DG      C2 4878   3.133   2.623   3.023 -0.0907 -0.4611  0.0663
  213DG      H3 4879   3.518   3.070   2.622  0.1934  0.8053  0.7072
  213DG      H4 4880   3.434   2.922   2.580 -0.2839 -1.8385  1.2442
  213DG      H5 4881   3.582   2.919   2.680 -0.3409  2.0388  2.1278
  213DG      H6 4882   3.164   2.547   3.094  3.9856  0.5802 -0.3697
  213DG      H7 4883   3.041   2.660   3.069  0.3862 -0.3480  0.9473
  213DG      H8 4884   3.118   2.579   2.925 -1.6324 -1.1389  0.5844
  213DG      O9 4885   3.414   2.981   2.786  0.4670  0.7444  0.0944
  213DG     O10 4886   3.225   2.724   3.010 -0.2692 -0.4993 -0.4864
  213DG     C11 4887   3.475   3.067   2.879  0.0189  0.7730 -0.3372
  213DG     C12 4888   3.253   2.787   3.133 -0.0920 -0.0227 -0.8463
  213DG     H13 4889   3.499   3.161   2.829 -0.9809  0.9391 -0.5305
  213DG     H14 4890   3.570   3.020   2.907 -0.3059 -0.3082 -1.0128
  213DG     H15 4891   3.315   2.717   3.190  0.1539  0.1531 -0.8970
  213DG     H16 4892   3.163   2.812   3.189  0.2404  0.8413 -0.6931
  213DG     C17 4893   3.380   3.105   2.994  0.1141  0.1062 -0.3687
  213DG     C18 4894   3.350   2.905   3.121  0.3061 -0.0156  0.3094
  213DG     O19 4895   3.293   3.002   3.031 -0.5438  0.5531  0.2667
  213DG     H20 4896   3.319   3.182   2.948  0.2552  0.4048 -0.0597
  213DG     H21 4897   3.423   3.146   3.086  1.9102 -0.7128 -0.7986
  213DG     H22 4898   3.361   2.946   3.222 -0.9740  1.0188  0.0564
  213DG     H23 4899   3.449   2.879   3.084  1.4042  2.0497  1.5840
  214DG      C1 4900   3.440   4.496   1.889 -0.1309 -0.2647  0.1457
  214DG      C2 4901   3.797   4.730   2.529 -0.2147 -0.6989 -0.6675
  214DG      H3 4902   3.380   4.461   1.973  0.3955  0.7697  0.9727
  214DG      H4 4903   3.535   4.442   1.888 -0.8957 -1.7346  1.5010
  214DG      H5 4904   3.379   4.469   1.803 -1.5205 -1.4737  1.4404
  214DG      H6 4905   3.875   4.714   2.455 -1.1522  0.4772 -1.9536
  214DG      H7 4906   3.804   4.834   2.561  1.1055 -0.3862 -1.8667
  214DG      H8 4907   3.810   4.678   2.624 -1.0451  1.9886  1.0367
  214DG      O9 4908   3.465   4.645   1.887 -0.1636  0.1096  0.5891
  214DG     O10 4909   3.666   4.710   2.480 -0.1054  0.3408 -0.2180
  214DG     C11 4910   3.520   4.687   2.006  0.0201 -0.3275 -0.3196
  214DG     C12 4911   3.623   4.789   2.371 -0.3381 -0.4311 -0.3830
  214DG     H13 4912   3.571   4.779   1.979  0.2880 -0.6600 -0.9638
  214DG     H14 4913   3.586   4.617   2.058 -0.2101 -0.5235 -0.2898
  214DG     H15 4914   3.700   4.792   2.294 -0.5344  1.0107 -0.5480
  214DG     H16 4915   3.604   4.893   2.398  0.2298  0.0678 -1.7909
  214DG     C17 4916   3.399   4.725   2.097 -0.1549  0.2298 -0.0855
  214DG     C18 4917   3.495   4.722   2.311  0.7946 -0.4982 -0.4032
  214DG     O19 4918   3.454   4.800   2.204  0.2849  0.3934  0.1713
  214DG     H20 4919   3.349   4.634   2.130 -3.0583  2.1523  1.2066
  214DG     H21 4920   3.326   4.791   2.050  0.0430 -0.3232 -1.1996
  214DG     H22 4921   3.512   4.620   2.278 -2.9623 -0.9602 -1.2796
  214DG     H23 4922   3.415   4.727   2.385  1.0578  2.5072 -0.1869
  215DG      C1 4923   0.904   0.191   4.532  0.5900  0.3595  0.4851
  215DG      C2 4924   1.116   0.521   3.947  0.2548 -0.6061  0.5215
  215DG      H3 4925   0.996   0.166   4.584  0.4560 -0.6035  0.2789
  215DG      H4 4926   0.873   0.120   4.456  0.8429  0.2521  0.4801
  215DG      H5 4927   0.831   0.193   4.614  1.9575 -3.4449  2.0276
  215DG      H6 4928   1.034   0.504   3.877 -0.4520  1.0311  0.9102
  215DG      H7 4929   1.162   0.611   3.907 -1.0558  0.3764  1.1476
  215DG      H8 4930   1.201   0.452   3.952 -1.1624 -2.5578 -0.8162
  215DG      O9 4931   0.929   0.317   4.462  0.3077 -0.3176  0.6499
  215DG     O10 4932   1.051   0.534   4.070  0.3005  0.5727 -0.6304
  215DG     C11 4933   0.806   0.390   4.447  0.4666 -0.3014 -0.3500
  215DG     C12 4934   0.952   0.642   4.078 -0.2798 -0.0181  0.3996
  215DG     H13 4935   0.746   0.391   4.538  0.8692 -0.4673 -0.0791
  215DG     H14 4936   0.743   0.340   4.374  0.5948  0.3088 -0.8847
  215DG     H15 4937   0.862   0.619   4.021 -0.5199 -0.1395  0.8241
  215DG     H16 4938   0.982   0.735   4.029 -3.6732  0.9103 -0.1336
  215DG     C17 4939   0.819   0.529   4.402  0.2101 -0.0797  0.1629
  215DG     C18 4940   0.912   0.657   4.220  0.4208  0.0152 -1.0211
  215DG     O19 4941   0.878   0.529   4.272  0.1005  0.8241  0.6876
  215DG     H20 4942   0.882   0.575   4.478  0.7853 -2.7920  1.4811
  215DG     H21 4943   0.721   0.576   4.413  1.2661  2.4100 -0.4226
  215DG     H22 4944   0.994   0.693   4.281 -2.0834  0.1232  2.5966
  215DG     H23 4945   0.836   0.732   4.237 -0.0489 -0.6186 -0.2522
  216DG      C1 4946   1.181   1.413   1.313 -0.0618 -0.1999 -0.0022
  216DG      C2 4947   1.714   1.179   1.944  0.1327 -0.3825  0.7276
  216DG      H3 4948   1.085   1.404   1.262 -0.5397  2.3417  0.3222
  216DG      H4 4949   1.270   1.394   1.252 -1.4439  2.1853 -3.0487
  216DG      H5 4950   1.186   1.521   1.322 -1.4954  0.0132 -1.3690
  216DG      H6 4951   1.738   1.285   1.953  0.8219 -0.4619 -0.0709
  216DG      H7 4952   1.732   1.139   2.043 -1.4590  1.0243  1.6362
  216DG      H8 4953   1.789   1.138   1.876  1.1880 -0.1801  1.7465
  216DG      O9 4954   1.187   1.362   1.446  0.3268 -0.9062  0.6796
  216DG     O10 4955   1.583   1.149   1.915  0.3962 -0.3866  0.0153
  216DG     C11 4956   1.239   1.231   1.440  0.1808 -0.0976 -0.0037
  216DG     C12 4957   1.555   1.193   1.784  0.6588 -0.0871  0.1840
  216DG     H13 4958   1.340   1.224   1.400  0.3403 -2.5946  0.6521
  216DG     H14 4959   1.171   1.170   1.381  1.9929 -3.4378  1.0791
  216DG     H15 4960   1.621   1.153   1.707  0.7417  1.8758 -0.8333
  216DG     H16 4961   1.563   1.301   1.768 -1.6926  0.0466 -0.4437
  216DG     C17 4962   1.250   1.178   1.578  1.0543  0.3214 -0.3203
  216DG     C18 4963   1.408   1.153   1.750 -0.4266  0.6670  0.3378
  216DG     O19 4964   1.385   1.186   1.619 -0.6653 -0.0580  1.0203
  216DG     H20 4965   1.229   1.073   1.558  0.0703  0.4418  0.0452
  216DG     H21 4966   1.166   1.206   1.641  0.2561 -1.2927 -0.6179
  216DG     H22 4967   1.398   1.048   1.776  0.8826  0.2116 -0.8473
  216DG     H23 4968   1.333   1.207   1.807  0.0927 -1.7608  3.5420
  217DG      C1 4969   1.109   5.059   0.537  0.0465 -0.1451  0.1597
  217DG      C2 4970   1.633   5.034   0.257  0.5014 -0.6181  0.8760
  217DG      H3 4971   1.031   5.002   0.587 -0.5404 -0.6632 -1.2710
  217DG      H4 4972   1.092   5.041   0.430  0.7113 -0.8458  0.1632
  217DG      H5 4973   1.063   5.154   0.561  1.2601  0.2882  0.8624
  217DG      H6 4974   1.598   5.136   0.242  0.4170 -0.5868  1.2647
  217DG      H7 4975   1.734   5.021   0.218  0.4111  0.7584  0.1152
  217DG      H8 4976   1.564   4.974   0.199  0.6384 -0.3130  0.3971
  217DG      O9 4977   1.243   5.037   0.586  0.4608  0.1528  0.3803
  217DG     O10 4978   1.627   5.002   0.396  0.4485 -0.1027  0.6538
  217DG     C11 4979   1.273   5.125   0.690  0.1334 -0.0009  0.8902
  217DG     C12 4980   1.700   5.083   0.491  0.0019  0.3064 -0.2204
  217DG     H13 4981   1.206   5.114   0.776 -0.5957  2.0611  0.6427
  217DG     H14 4982   1.259   5.224   0.648  0.6573 -0.3093 -0.0278
  217DG     H15 4983   1.698   5.187   0.459 -2.0296  0.0825 -0.9561
  217DG     H16 4984   1.805   5.052   0.487 -0.0535 -0.0423  0.6956
  217DG     C17 4985   1.423   5.114   0.736 -0.0790 -0.1656 -0.0707
  217DG     C18 4986   1.640   5.075   0.630 -0.0735 -0.2336  0.0368
  217DG     O19 4987   1.504   5.103   0.612  0.3153  0.6871 -0.0035
  217DG     H20 4988   1.441   5.018   0.784 -0.0435  0.9580  2.3149
  217DG     H21 4989   1.450   5.196   0.803  1.0882 -1.1764  0.7268
  217DG     H22 4990   1.639   4.977   0.676 -3.3005  0.6433  2.1773
  217DG     H23 4991   1.698   5.144   0.692  0.1988 -0.2689 -0.1807
  218DG      C1 4992   3.433   0.015   4.905  0.3605 -0.1962 -0.3249
  218DG      C2 4993   4.032   0.232   5.185 -0.2911  0.4795 -0.1903
  218DG      H3 4994   3.342  -0.013   4.958  1.5303 -3.3601  0.2182
  218DG      H4 4995   3.442  -0.058   4.825  0.6366 -1.6375  0.9677
  218DG      H5 4996   3.424   0.115   4.861 -2.7297 -0.3355 -0.1742
  218DG      H6 4997   4.087   0.279   5.103  2.0764  0.1301  1.1260
  218DG      H7 4998   3.960   0.306   5.220 -2.1275 -0.9010 -0.9001
  218DG      H8 4999   4.101   0.194   5.260 -0.4789  0.0807 -0.2171
  218DG      O9 5000   3.553  -0.002   4.979  0.1842  0.0142 -0.1216
  218DG     O10 5001   3.945   0.134   5.124 -0.5531 -0.4130 -0.1102
  218DG     C11 5002   3.558  -0.130   5.052 -0.3674  0.4819 -0.1968
  218DG     C12 5003   4.009   0.009   5.116  0.3405 -0.5174  0.2420
  218DG     H13 5004   3.559  -0.212   4.979  0.9321 -0.3675  0.7347
  218DG     H14 5005   3.468  -0.148   5.111  1.1959 -2.4466  1.5464
  218DG     H15 5006   4.089  -0.002   5.190  0.0038 -1.3460  0.4881
  218DG     H16 5007   4.055   0.004   5.017 -2.3584  1.9212 -1.2705
  218DG     C17 5008   3.686  -0.151   5.126  0.9657  0.5351 -0.4218
  218DG     C18 5009   3.909  -0.103   5.154 -0.1366  0.4705 -0.5770
  218DG     O19 5010   3.793  -0.072   5.084 -0.1851 -0.0289  0.1043
  218DG     H20 5011   3.722  -0.253   5.115 -1.4272 -0.8189  2.5786
  218DG     H21 5012   3.660  -0.141   5.231 -3.3039 -1.6604 -1.0467
  218DG     H22 5013   3.941  -0.204   5.130 -1.5904  0.4768 -2.8705
  218DG     H23 5014   3.900  -0.098   5.262  3.1435  0.8108 -0.2455
  219DG      C1 5015   5.345   0.585   2.049  0.3683 -0.2301 -0.5468
  219DG      C2 5016   5.037   0.347   1.525  0.3314 -0.1614  0.4521
  219DG      H3 5017   5.393   0.543   2.138 -1.2838 -1.3745 -0.1365
  219DG      H4 5018   5.316   0.685   2.079  1.5641 -0.5036  1.7121
  219DG      H5 5019   5.414   0.583   1.965 -0.5741  1.6530 -1.4291
  219DG      H6 5020   4.981   0.411   1.457  1.3952  1.2510  0.8566
  219DG      H7 5021   5.141   0.366   1.499 -0.0057  0.4798 -0.4634
  219DG      H8 5022   5.012   0.241   1.529 -1.7168  0.2464 -0.4159
  219DG      O9 5023   5.236   0.504   2.009 -0.4598  0.3339  0.6710
  219DG     O10 5024   5.022   0.400   1.654 -0.2094 -0.1160  0.5402
  219DG     C11 5025   5.131   0.507   2.107  0.2826  0.6993 -0.2182
  219DG     C12 5026   4.891   0.381   1.707 -0.9235  0.2448  0.2127
  219DG     H13 5027   5.083   0.603   2.126 -0.4305  0.3187 -0.0832
  219DG     H14 5028   5.181   0.479   2.200 -1.3893  2.3970  1.2833
  219DG     H15 5029   4.838   0.294   1.668  1.7340 -1.1105 -0.5773
  219DG     H16 5030   4.834   0.474   1.698  0.0475  0.7099 -1.7129
  219DG     C17 5031   5.022   0.412   2.055 -0.4605 -0.0781  0.0746
  219DG     C18 5032   4.909   0.357   1.863 -0.2080  0.0861 -1.0513
  219DG     O19 5033   4.988   0.453   1.920 -0.2101  0.7018  0.1308
  219DG     H20 5034   4.937   0.395   2.121  0.0615  0.0785  0.7952
  219DG     H21 5035   5.069   0.314   2.058  1.4102  0.7922  0.7962
  219DG     H22 5036   4.815   0.361   1.917  0.6283  0.9034  0.4035
  219DG     H23 5037   4.946   0.257   1.883  1.6918  0.8625 -0.4137
  220DG      C1 5038   4.722   0.825   0.921 -0.7211 -0.2296 -0.0270
  220DG      C2 5039   5.333   0.565   1.249  0.5819  0.3002 -0.2527
  220DG      H3 5040   4.687   0.922   0.885 -1.7553 -0.9906 -1.1385
  220DG      H4 5041   4.732   0.820   1.029  1.6950  0.0388 -0.1903
  220DG      H5 5042   4.649   0.753   0.883 -1.7150 -0.2328  1.7961
  220DG      H6 5043   5.299   0.579   1.352  1.3712  2.2866 -0.2203
  220DG      H7 5044   5.318   0.460   1.227 -0.0519  0.3614 -0.1216
  220DG      H8 5045   5.439   0.586   1.267  0.4575  0.3816  0.4417
  220DG      O9 5046   4.858   0.796   0.875  0.0849  0.8666 -0.4189
  220DG     O10 5047   5.284   0.660   1.163  0.2618  0.1010  0.6276
  220DG     C11 5048   4.953   0.900   0.890 -0.4214  0.2863 -0.0589
  220DG     C12 5049   5.341   0.646   1.031 -0.1909  0.0156  0.7214
  220DG     H13 5050   4.949   0.921   0.997 -2.4338  0.2694 -0.0984
  220DG     H14 5051   4.922   0.986   0.831 -0.6369 -0.4423 -1.0426
  220DG     H15 5052   5.322   0.547   0.990  2.1551 -1.0858  2.0583
  220DG     H16 5053   5.449   0.656   1.044  0.4802 -1.1545 -2.8476
  220DG     C17 5054   5.100   0.856   0.850 -0.1569  0.1624 -0.0415
  220DG     C18 5055   5.296   0.768   0.952 -0.1117  0.6367 -0.2393
  220DG     O19 5056   5.155   0.783   0.959 -0.2767  0.2220  0.2100
  220DG     H20 5057   5.162   0.941   0.821  0.9625 -0.4507  0.4846
  220DG     H21 5058   5.100   0.790   0.763 -0.0850  0.4323 -0.2499
  220DG     H22 5059   5.363   0.849   0.981  2.6175 -1.9290  1.1834
  220DG     H23 5060   5.325   0.745   0.850  1.1258 -2.6427  0.7116
  221DG      C1 5061   3.721   3.347   4.985  0.1219 -0.0741  0.0126
  221DG      C2 5062   3.661   2.674   5.135  0.2822 -0.2581  0.0154
  221DG      H3 5063   3.628   3.365   5.038  0.5531  2.8693 -0.0603
  221DG      H4 5064   3.714   3.433   4.918 -4.6992 -1.2193 -1.3131
  221DG      H5 5065   3.807   3.369   5.048 -0.1501  1.0417  0.0120
  221DG      H6 5066   3.648   2.733   5.226  0.1482 -0.0736 -0.1210
  221DG      H7 5067   3.576   2.615   5.102  2.2954 -0.9926 -4.7234
  221DG      H8 5068   3.746   2.606   5.140  0.2739 -0.2708 -0.0114
  221DG      O9 5069   3.721   3.220   4.921  0.2669 -0.5622 -0.4394
  221DG     O10 5070   3.692   2.769   5.035 -0.6928 -1.2984 -0.5976
  221DG     C11 5071   3.850   3.201   4.855  0.3261  0.8755  0.1134
  221DG     C12 5072   3.769   2.724   4.923 -0.6161 -0.0947 -0.0291
  221DG     H13 5073   3.931   3.204   4.927 -0.7943 -2.1074  1.6688
  221DG     H14 5074   3.862   3.278   4.779  1.8151  0.8383  0.2880
  221DG     H15 5075   3.748   2.633   4.868 -1.5489  0.3158 -0.3627
  221DG     H16 5076   3.867   2.700   4.966 -1.8670 -1.9025  1.9650
  221DG     C17 5077   3.846   3.058   4.787 -0.0738 -0.3237  0.2155
  221DG     C18 5078   3.784   2.837   4.820  0.4644  0.3810  0.1954
  221DG     O19 5079   3.807   2.956   4.879  0.0896 -0.7208 -0.1380
  221DG     H20 5080   3.935   3.031   4.731  1.1267 -1.2501  2.4526
  221DG     H21 5081   3.762   3.068   4.718  1.4432  1.3348 -1.5037
  221DG     H22 5082   3.863   2.806   4.752 -0.7848  0.8546 -1.5274
  221DG     H23 5083   3.696   2.842   4.757  1.3950 -1.7315 -1.4197
  222DG      C1 5084   0.717   4.263   1.146  0.4474  0.6234 -0.0615
  222DG      C2 5085   0.174   4.080   0.563  0.2200 -0.4178 -0.3768
  222DG      H3 5086   0.733   4.155   1.138  0.5222  0.5548  0.8845
  222DG      H4 5087   0.624   4.273   1.201  1.4766 -0.3732  2.0172
  222DG      H5 5088   0.799   4.313   1.197  0.6509  0.2602 -0.0247
  222DG      H6 5089   0.224   4.087   0.466  0.7993 -0.0131 -0.0579
  222DG      H7 5090   0.199   3.983   0.606 -3.1341 -0.6319  1.4235
  222DG      H8 5091   0.067   4.092   0.549  0.4121  1.3222 -0.5282
  222DG      O9 5092   0.699   4.310   1.012  0.1279  0.9231  0.0869
  222DG     O10 5093   0.234   4.191   0.632  0.7960  0.4158  0.1347
  222DG     C11 5094   0.589   4.238   0.943 -0.6857 -0.0342 -0.1480
  222DG     C12 5095   0.176   4.220   0.759  0.1042  0.7150  0.2871
  222DG     H13 5096   0.572   4.139   0.986  0.1579 -0.9728 -1.8506
  222DG     H14 5097   0.634   4.231   0.844 -0.1146 -1.0242  0.1558
  222DG     H15 5098   0.149   4.127   0.808  0.3255  0.6506  0.2881
  222DG     H16 5099   0.082   4.269   0.735 -0.5049 -1.0003 -1.1213
  222DG     C17 5100   0.466   4.325   0.943  1.0423  0.1346 -0.8180
  222DG     C18 5101   0.261   4.309   0.843 -0.1881  0.5948  0.1962
  222DG     O19 5102   0.389   4.247   0.852 -0.0507 -0.7564 -0.0223
  222DG     H20 5103   0.480   4.422   0.895 -0.4946  0.8001  0.0129
  222DG     H21 5104   0.422   4.329   1.042 -0.0265  0.0128 -1.2791
  222DG     H22 5105   0.260   4.413   0.808 -3.4792  1.7151  3.0672
  222DG     H23 5106   0.210   4.314   0.939  2.5763 -0.3257  1.8292
  223DG      C1 5107   5.135   0.941   5.117 -0.6503 -0.3241  0.3876
  223DG      C2 5108   5.171   1.760   5.174  0.3298 -0.2297 -0.9871
  223DG      H3 5109   5.184   0.849   5.085  0.8788  1.2094 -2.0947
  223DG      H4 5110   5.051   0.924   5.184 -0.0528  1.3366  1.6131
  223DG      H5 5111   5.206   1.007   5.166 -3.6625  2.7173  1.0482
  223DG      H6 5112   5.065   1.784   5.186  0.1989 -0.8306 -0.9289
  223DG      H7 5113   5.222   1.766   5.270 -1.0751  0.7332 -0.2598
  223DG      H8 5114   5.213   1.837   5.110  1.4878  2.1772  2.3341
  223DG      O9 5115   5.081   1.006   4.998  0.0135  0.1523  0.3124
  223DG     O10 5116   5.192   1.630   5.130 -0.1052  0.4656  0.1395
  223DG     C11 5117   5.057   1.147   5.030  0.0415  0.0528  0.4784
  223DG     C12 5118   5.174   1.616   4.990 -0.2475  0.3278  0.2659
  223DG     H13 5119   5.055   1.169   5.137 -1.5479 -1.6657  0.8523
  223DG     H14 5120   4.956   1.161   4.992  0.3892 -0.0679 -0.5298
  223DG     H15 5121   5.244   1.685   4.943 -0.9417  1.5087  0.9096
  223DG     H16 5122   5.073   1.636   4.955  0.2009 -1.8580 -2.6425
  223DG     C17 5123   5.147   1.247   4.949 -0.1793  0.2626 -0.8317
  223DG     C18 5124   5.211   1.470   4.959  0.1345 -0.3236 -0.0878
  223DG     O19 5125   5.111   1.377   5.001 -0.5962 -0.1381  0.1958
  223DG     H20 5126   5.131   1.230   4.843 -1.0816  1.6765 -0.9381
  223DG     H21 5127   5.255   1.236   4.961 -0.0436  0.0248 -2.1359
  223DG     H22 5128   5.225   1.474   4.850  2.0222  5.1096  0.0629
  223DG     H23 5129   5.302   1.445   5.013  0.5846  1.9830  0.2998
  224DG      C1 5130   1.303   4.086   3.571  0.1994 -1.3320 -0.1061
  224DG      C2 5131   1.362   4.569   3.040 -0.8011  0.0971 -0.0594
  224DG      H3 5132   1.376   4.016   3.612  1.5777 -1.2195 -2.2165
  224DG      H4 5133   1.239   4.025   3.507  0.7621  0.1136 -2.1409
  224DG      H5 5134   1.242   4.140   3.643  1.2078  1.0157 -0.9209
  224DG      H6 5135   1.401   4.667   3.013  1.3873 -0.8346 -0.4773
  224DG      H7 5136   1.403   4.488   2.981  1.1372  0.1977  1.0676
  224DG      H8 5137   1.255   4.571   3.022 -0.7281  0.2566 -0.4993
  224DG      O9 5138   1.372   4.177   3.494 -0.1798 -0.1959 -0.1199
  224DG     O10 5139   1.390   4.541   3.178 -0.1514 -0.2042 -0.0594
  224DG     C11 5140   1.500   4.205   3.549 -0.0480 -0.4272 -0.1875
  224DG     C12 5141   1.516   4.587   3.229 -1.0065  0.4768  0.4416
  224DG     H13 5142   1.579   4.142   3.509 -0.1290 -1.6537  1.4645
  224DG     H14 5143   1.497   4.183   3.656  2.5768  2.6887  0.6761
  224DG     H15 5144   1.517   4.696   3.237 -1.5665  0.7511 -2.4714
  224DG     H16 5145   1.599   4.551   3.168 -1.6980  0.7025 -0.6489
  224DG     C17 5146   1.523   4.356   3.535 -0.4531  0.1584 -0.1085
  224DG     C18 5147   1.524   4.539   3.375 -0.7335 -0.3793  0.1921
  224DG     O19 5148   1.495   4.399   3.398  0.3305 -0.4498  0.0773
  224DG     H20 5149   1.619   4.403   3.554  0.4628 -1.4123 -0.6980
  224DG     H21 5150   1.452   4.400   3.606  0.2299  2.5335 -0.8024
  224DG     H22 5151   1.613   4.575   3.426 -1.0013 -1.5719  1.5768
  224DG     H23 5152   1.444   4.588   3.430  0.4023 -0.6211  2.1607
  225DG      C1 5153   5.264   2.191   1.432  0.4639  0.0918  0.1784
  225DG      C2 5154   4.703   1.794   1.599 -0.9064  0.4879 -0.0721
  225DG      H3 5155   5.314   2.252   1.356  1.3409 -1.4862 -0.5770
  225DG      H4 5156   5.340   2.114   1.444 -0.6944 -1.8378 -3.3305
  225DG      H5 5157   5.250   2.239   1.529  1.3838  0.8845 -0.0584
  225DG      H6 5158   4.673   1.896   1.622  0.8731  0.6001  2.1486
  225DG      H7 5159   4.611   1.740   1.577 -1.2477  1.2219 -0.4835
  225DG      H8 5160   4.760   1.753   1.683 -0.4167  0.9591 -0.1673
  225DG      O9 5161   5.148   2.107   1.391 -0.5833 -0.0148 -0.0189
  225DG     O10 5162   4.787   1.797   1.483  0.5647 -0.6869 -0.0737
  225DG     C11 5163   5.062   2.182   1.301 -0.7976 -0.2621 -0.4286
  225DG     C12 5164   4.713   1.856   1.371 -0.3289 -0.5006  0.8054
  225DG     H13 5165   5.120   2.238   1.228 -2.3017 -0.2648 -1.6831
  225DG     H14 5166   5.014   2.270   1.343 -1.2825 -0.0217 -1.4608
  225DG     H15 5167   4.671   1.946   1.415 -2.1524 -0.5944 -0.6168
  225DG     H16 5168   4.642   1.781   1.336 -0.1288 -1.1530  1.7487
  225DG     C17 5169   4.957   2.090   1.234  0.5104 -0.0932  0.4330
  225DG     C18 5170   4.804   1.913   1.261  0.0340 -0.1823 -0.0144
  225DG     O19 5171   4.881   2.012   1.323  0.0027 -0.2651 -0.0064
  225DG     H20 5172   5.012   2.021   1.168  0.8119 -0.5663  1.1640
  225DG     H21 5173   4.898   2.147   1.163 -1.2109 -1.6695  0.5183
  225DG     H22 5174   4.879   1.845   1.222 -0.6773 -0.8357 -0.2778
  225DG     H23 5175   4.745   1.950   1.177  0.5413 -0.9699 -0.7296
  226DG      C1 5176   3.170   2.007   0.789 -0.1480 -0.0471  0.4881
  226DG      C2 5177   2.539   2.102   0.618  0.7979 -0.2026  0.1357
  226DG      H3 5178   3.226   2.015   0.696 -0.7137 -0.8321  0.0720
  226DG      H4 5179   3.140   1.903   0.801  0.5593 -0.2641  0.4394
  226DG      H5 5180   3.238   2.024   0.873 -0.0364 -0.6260  0.5164
  226DG      H6 5181   2.450   2.163   0.602  2.1542  1.6354 -0.7877
  226DG      H7 5182   2.575   2.065   0.521 -0.8097  0.0385 -0.5810
  226DG      H8 5183   2.513   2.014   0.677  0.6890 -0.6806 -0.6106
  226DG      O9 5184   3.067   2.100   0.791  0.7921 -0.0361  0.7184
  226DG     O10 5185   2.637   2.171   0.687 -0.8809 -0.0684  0.1461
  226DG     C11 5186   3.120   2.222   0.744  0.0004  0.3772 -0.1416
  226DG     C12 5187   2.663   2.306   0.633  0.2359 -0.4850 -0.1781
  226DG     H13 5188   3.161   2.211   0.643  0.0419 -2.0579  0.0929
  226DG     H14 5189   3.186   2.259   0.822  2.3783 -0.1715 -1.7733
  226DG     H15 5190   2.583   2.376   0.658 -1.6272 -2.9000  0.9416
  226DG     H16 5191   2.674   2.294   0.525 -3.5310  0.2289 -0.7688
  226DG     C17 5192   3.011   2.327   0.746 -0.3861 -0.0122  0.5235
  226DG     C18 5193   2.791   2.350   0.699  0.3730  0.0757  0.1259
  226DG     O19 5194   2.900   2.269   0.683  0.0200  0.1157 -0.9977
  226DG     H20 5195   3.048   2.422   0.708 -0.7746 -0.1653 -0.2507
  226DG     H21 5196   2.977   2.346   0.848 -0.3013  2.0274  0.2137
  226DG     H22 5197   2.813   2.451   0.662 -0.6316  0.1716 -0.2269
  226DG     H23 5198   2.759   2.357   0.803 -0.1860  0.4253 -0.0630
  227DG      C1 5199   1.549   1.787   0.439 -0.0703  0.0594 -0.8494
  227DG      C2 5200   1.580   1.535   1.053  0.3114  0.0275 -0.3166
  227DG      H3 5201   1.655   1.803   0.459 -0.2435  0.3774 -0.1726
  227DG      H4 5202   1.517   1.847   0.354 -0.1100  1.2626 -0.0018
  227DG      H5 5203   1.531   1.682   0.413 -0.1355  0.0437 -0.7389
  227DG      H6 5204   1.645   1.621   1.036 -1.6427  1.4498 -1.0393
  227DG      H7 5205   1.630   1.447   1.091 -0.6883 -0.5048 -0.1920
  227DG      H8 5206   1.538   1.495   0.960  0.9087 -0.1988 -0.4910
  227DG      O9 5207   1.473   1.840   0.551  0.0669  0.2834  0.3368
  227DG     O10 5208   1.469   1.555   1.134 -0.1465  0.4711  0.2548
  227DG     C11 5209   1.512   1.775   0.669 -0.1405  0.0225 -0.6203
  227DG     C12 5210   1.421   1.689   1.128 -0.0760  0.0162  0.0401
  227DG     H13 5211   1.606   1.813   0.706 -0.8733  1.7930 -0.4840
  227DG     H14 5212   1.522   1.666   0.662 -2.6395 -0.2588 -1.0418
  227DG     H15 5213   1.506   1.747   1.163 -1.9178  1.9876  1.5022
  227DG     H16 5214   1.347   1.699   1.207 -0.0790  2.1214 -0.1799
  227DG     C17 5215   1.398   1.795   0.773 -0.2031 -0.6852 -0.6665
  227DG     C18 5216   1.353   1.733   0.995 -0.1227  0.4707  0.0523
  227DG     O19 5217   1.456   1.761   0.901  0.0454  0.7102  0.0679
  227DG     H20 5218   1.315   1.732   0.740  0.1881 -0.6368 -1.7620
  227DG     H21 5219   1.366   1.898   0.784 -0.6923 -0.9273  0.3534
  227DG     H22 5220   1.274   1.664   0.964 -1.9784  1.9644  1.2392
  227DG     H23 5221   1.301   1.826   1.017  0.8560  0.7617  1.2576
  228DG      C1 5222   3.012   3.410   0.222  0.7450 -0.4350  0.0564
  228DG      C2 5223   2.689   2.769   0.540  1.1708 -0.1415  0.2798
  228DG      H3 5224   2.911   3.423   0.183  1.3766  1.6107 -1.0851
  228DG      H4 5225   3.096   3.403   0.152  0.1021  2.9122 -1.2477
  228DG      H5 5226   3.042   3.493   0.286  1.0004 -0.1410 -0.4354
  228DG      H6 5227   2.748   2.773   0.449  2.7567  4.2456  1.2802
  228DG      H7 5228   2.687   2.665   0.575  0.8657  0.0017  0.7106
  228DG      H8 5229   2.583   2.793   0.531  1.2226  0.3038  0.8033
  228DG      O9 5230   2.999   3.282   0.281 -0.4663  0.5995 -0.6130
  228DG     O10 5231   2.762   2.832   0.645 -0.3313  0.4881  0.4337
  228DG     C11 5232   3.113   3.241   0.360 -0.1822 -0.0156 -0.5294
  228DG     C12 5233   2.807   2.963   0.610 -0.0892  0.2895  0.1656
  228DG     H13 5234   3.117   3.309   0.445  0.1150  0.0040 -0.5586
  228DG     H14 5235   3.208   3.237   0.306 -0.1369 -1.3227 -0.3781
  228DG     H15 5236   2.832   3.024   0.697  0.2782  1.5032 -0.7674
  228DG     H16 5237   2.726   3.013   0.557  0.4448 -0.3978 -1.3785
  228DG     C17 5238   3.080   3.092   0.411  0.4695 -0.5188 -0.1181
  228DG     C18 5239   2.936   2.955   0.521 -0.8442  0.3598  0.5561
  228DG     O19 5240   2.953   3.083   0.472  0.2837  0.3021  0.1824
  228DG     H20 5241   3.160   3.066   0.481  0.2289 -1.1702 -0.0714
  228DG     H21 5242   3.080   3.028   0.323  0.3906  1.5990 -1.7067
  228DG     H22 5243   3.016   2.918   0.585 -1.1968  0.3071  0.9722
  228DG     H23 5244   2.925   2.881   0.442  0.6943 -0.4428  1.0532
  229DG      C1 5245   1.199   0.586   0.928 -0.4849  0.0357  0.1121
  229DG      C2 5246   0.694   0.329   0.611 -0.1741 -0.0121  0.7345
  229DG      H3 5247   1.260   0.510   0.880  0.7032  1.6771 -1.0856
  229DG      H4 5248   1.150   0.551   1.019 -0.4121  0.6182  0.3797
  229DG      H5 5249   1.269   0.664   0.957 -2.9598  1.1602  3.8154
  229DG      H6 5250   0.587   0.340   0.627  0.0272  2.5510  0.7752
  229DG      H7 5251   0.718   0.318   0.505  1.5896  1.3218  0.9291
  229DG      H8 5252   0.731   0.238   0.659  0.1358 -0.4689 -0.3521
  229DG      O9 5253   1.109   0.640   0.833 -0.4509 -0.3666  0.4117
  229DG     O10 5254   0.770   0.448   0.653 -0.2949  0.2678 -0.4813
  229DG     C11 5255   1.030   0.735   0.907  0.4601 -0.4312 -0.1452
  229DG     C12 5256   0.723   0.575   0.605  0.9031  0.9094  0.0679
  229DG     H13 5257   1.090   0.813   0.954 -1.0135  0.4055  0.4181
  229DG     H14 5258   0.966   0.686   0.979  0.2727  0.6719  0.4678
  229DG     H15 5259   0.629   0.598   0.654  1.5222  1.8746  0.8375
  229DG     H16 5260   0.712   0.565   0.497  0.9779  0.3054  0.1136
  229DG     C17 5261   0.940   0.809   0.797 -0.7592  0.0700  0.0179
  229DG     C18 5262   0.824   0.692   0.624 -0.0220 -0.5962  0.5017
  229DG     O19 5263   0.834   0.717   0.762  0.3783  0.3668 -0.4576
  229DG     H20 5264   0.997   0.845   0.710 -0.9066 -0.1394 -0.1656
  229DG     H21 5265   0.893   0.901   0.832 -0.1265  0.3444  0.1681
  229DG     H22 5266   0.922   0.672   0.582 -0.3248 -0.2269 -0.3963
  229DG     H23 5267   0.782   0.782   0.580 -0.3773 -0.9136  0.1866
  230DG      C1 5268   1.577   3.209   5.094  0.0328  0.3608 -0.5596
  230DG      C2 5269   2.305   2.998   4.914 -0.5308  0.4930 -0.2678
  230DG      H3 5270   1.548   3.104   5.096 -0.1641  0.3288  3.3396
  230DG      H4 5271   1.568   3.245   4.992  2.5327  1.0153 -0.6260
  230DG      H5 5272   1.514   3.275   5.154 -2.0808 -2.8541  1.0311
  230DG      H6 5273   2.230   2.961   4.844  2.2254 -3.5700 -1.4046
  230DG      H7 5274   2.384   3.048   4.858 -0.0571 -1.0791 -1.0512
  230DG      H8 5275   2.345   2.910   4.963  0.5015  1.4795  0.7091
  230DG      O9 5276   1.712   3.218   5.139 -0.0995 -0.9024  0.0944
  230DG     O10 5277   2.249   3.081   5.008  0.0271 -0.9834 -0.6479
  230DG     C11 5278   1.730   3.170   5.279  0.7616  0.4827 -0.2974
  230DG     C12 5279   2.123   3.035   5.069 -0.3046  0.5708  0.0168
  230DG     H13 5280   1.696   3.067   5.288 -1.0661  0.8191 -2.3959
  230DG     H14 5281   1.679   3.235   5.350 -1.2570 -1.6233  0.3048
  230DG     H15 5282   2.132   2.940   5.121  2.0299  1.3295  1.1029
  230DG     H16 5283   2.048   3.031   4.990  1.9061 -0.1490 -2.1690
  230DG     C17 5284   1.881   3.172   5.299 -0.0652  0.3411  0.8835
  230DG     C18 5285   2.070   3.136   5.164 -0.0595 -0.7999  0.0872
  230DG     O19 5286   1.935   3.095   5.194 -0.0970 -0.0880 -0.8738
  230DG     H20 5287   1.916   3.133   5.395  2.1235 -3.6436 -1.2598
  230DG     H21 5288   1.922   3.273   5.294 -1.5194  0.9087 -0.0284
  230DG     H22 5289   2.137   3.142   5.250 -0.3009  2.4011  0.1556
  230DG     H23 5290   2.068   3.238   5.127 -1.0929 -1.8942 -3.2908
  231DG      C1 5291   3.068   3.365   3.944  0.1952  0.2750  0.2121
  231DG      C2 5292   3.175   3.227   3.317 -0.1163 -0.7445  0.3939
  231DG      H3 5293   3.048   3.258   3.946 -2.6361  0.7343  1.8699
  231DG      H4 5294   2.971   3.412   3.954 -0.0612  0.4163 -2.4729
  231DG      H5 5295   3.131   3.394   4.029  0.5587  0.7976 -0.2310
  231DG      H6 5296   3.230   3.242   3.224 -0.8835  1.0560  0.2025
  231DG      H7 5297   3.191   3.124   3.350  2.8761 -0.4106  0.2650
  231DG      H8 5298   3.068   3.239   3.308 -0.2387 -1.3033  0.9915
  231DG      O9 5299   3.116   3.408   3.813 -0.0102 -1.0374  0.1106
  231DG     O10 5300   3.244   3.307   3.413  0.0961  0.6928 -0.1615
  231DG     C11 5301   3.129   3.549   3.813 -0.3078  0.3603 -0.0532
  231DG     C12 5302   3.279   3.437   3.371 -0.1701 -0.5801 -0.3402
  231DG     H13 5303   3.142   3.604   3.906  1.4849 -0.5547  0.2603
  231DG     H14 5304   3.024   3.576   3.797 -0.4860  2.6077  3.6949
  231DG     H15 5305   3.186   3.479   3.332 -0.1703  1.0872  1.3021
  231DG     H16 5306   3.360   3.433   3.299  0.1906  1.4196 -0.1009
  231DG     C17 5307   3.231   3.592   3.707  0.3815 -0.8791  0.4543
  231DG     C18 5308   3.328   3.517   3.497  0.3253  0.2394  0.4243
  231DG     O19 5309   3.226   3.500   3.596  0.1920  0.2295  0.2611
  231DG     H20 5310   3.330   3.586   3.752  1.8825 -1.5224 -2.6798
  231DG     H21 5311   3.214   3.694   3.671  1.0247 -1.0017 -0.2223
  231DG     H22 5312   3.422   3.484   3.540  0.4611  0.6067  0.4169
  231DG     H23 5313   3.341   3.623   3.473 -0.2661 -0.2095 -2.1799
  232DG      C1 5314   0.690   0.669   3.709  0.0206 -0.8532 -0.3430
  232DG      C2 5315   1.415   0.332   3.756 -0.6972  0.5599  0.1227
  232DG      H3 5316   0.596   0.659   3.654  1.2818  0.0846 -2.7552
  232DG      H4 5317   0.719   0.770   3.737  3.5655 -1.8469  0.0822
  232DG      H5 5318   0.672   0.626   3.808 -0.5164  2.2103  1.0217
  232DG      H6 5319   1.422   0.300   3.860 -1.1522  0.1999  0.0434
  232DG      H7 5320   1.486   0.275   3.696  0.0861  0.3319  1.2425
  232DG      H8 5321   1.442   0.438   3.756  2.1900 -0.0974 -0.5459
  232DG      O9 5322   0.805   0.612   3.653  0.3864  0.6516  0.1827
  232DG     O10 5323   1.289   0.301   3.688  0.4612 -0.4277 -0.8185
  232DG     C11 5324   0.793   0.470   3.624  0.3646 -0.5241 -0.7604
  232DG     C12 5325   1.277   0.383   3.578 -1.4057 -0.3158  0.3666
  232DG     H13 5326   0.699   0.447   3.575  0.2635 -4.1353  0.8458
  232DG     H14 5327   0.777   0.416   3.717 -0.0343  3.6245  1.8376
  232DG     H15 5328   1.350   0.354   3.502 -0.0344  0.3484  1.3923
  232DG     H16 5329   1.294   0.488   3.597 -1.3392  0.1173 -1.7832
  232DG     C17 5330   0.916   0.417   3.545 -0.1066  0.4600 -0.4999
  232DG     C18 5331   1.138   0.383   3.522 -0.0980 -0.1895  0.0905
  232DG     O19 5332   1.041   0.443   3.605 -0.6163 -0.2501 -0.4302
  232DG     H20 5333   0.908   0.465   3.448 -1.4775 -0.5464 -0.9122
  232DG     H21 5334   0.912   0.309   3.537 -1.3121  0.3597  0.9198
  232DG     H22 5335   1.147   0.433   3.425  4.7874 -1.2389 -0.2482
  232DG     H23 5336   1.121   0.280   3.490  2.7961 -0.3672 -1.1028
  233DG      C1 5337   4.622   2.289   2.076  0.1491 -0.3912  0.0403
  233DG      C2 5338   3.878   2.275   1.920 -0.6205  0.4270  0.5987
  233DG      H3 5339   4.638   2.183   2.056 -2.8071 -0.6750 -1.3411
  233DG      H4 5340   4.628   2.313   2.182 -1.6659 -0.2335  0.1427
  233DG      H5 5341   4.709   2.336   2.030 -0.5875  1.5134  0.5000
  233DG      H6 5342   3.816   2.325   1.994 -1.0633 -0.4247  0.8189
  233DG      H7 5343   3.831   2.292   1.823 -2.5056 -0.4431  1.3069
  233DG      H8 5344   3.879   2.170   1.948  0.7535  0.1881 -0.2743
  233DG      O9 5345   4.502   2.336   2.024 -0.6664 -0.3176 -0.0150
  233DG     O10 5346   4.007   2.319   1.904  0.1074  0.9440  0.3678
  233DG     C11 5347   4.510   2.350   1.878  0.1608 -0.0695 -0.3514
  233DG     C12 5348   4.093   2.319   2.017 -0.1879 -0.5141 -0.3236
  233DG     H13 5349   4.529   2.252   1.832  0.6997  0.0597 -0.4148
  233DG     H14 5350   4.603   2.396   1.844 -0.4037  0.0733 -1.8045
  233DG     H15 5351   4.117   2.218   2.049  1.4230  0.1086  0.5160
  233DG     H16 5352   4.040   2.364   2.101 -0.1414 -2.2209  0.6570
  233DG     C17 5353   4.390   2.437   1.831 -0.1729 -0.0638  0.2946
  233DG     C18 5354   4.212   2.403   1.980  0.3453 -0.4343 -0.4313
  233DG     O19 5355   4.270   2.366   1.854 -0.1314 -0.4123 -0.4162
  233DG     H20 5356   4.390   2.452   1.723  3.7530 -0.8743  0.0325
  233DG     H21 5357   4.400   2.535   1.877  0.6691  0.8692 -1.7364
  233DG     H22 5358   4.182   2.508   1.978  0.3267 -0.4107  0.5836
  233DG     H23 5359   4.277   2.400   2.068 -0.5732  3.0818  0.5247
  234DG      C1 5360   4.011   3.426   3.979 -0.2754 -0.4180 -0.1310
  234DG      C2 5361   4.775   3.171   3.520 -0.8180 -0.2124 -0.0964
  234DG      H3 5362   3.941   3.424   3.896 -0.6584  2.4454  0.0271
  234DG      H4 5363   3.970   3.498   4.051  0.7479  2.8092 -2.5464
  234DG      H5 5364   4.000   3.331   4.032 -0.8597 -0.0874  0.3579
  234DG      H6 5365   4.754   3.066   3.538 -1.7817  0.4038  3.0618
  234DG      H7 5366   4.742   3.208   3.423 -0.9930 -3.7522 -1.5296
  234DG      H8 5367   4.884   3.176   3.522 -0.7161 -1.5551 -1.0347
  234DG      O9 5368   4.146   3.459   3.953 -0.2380 -0.3684  0.3653
  234DG     O10 5369   4.729   3.262   3.612  0.2953 -0.4144 -0.0033
  234DG     C11 5370   4.190   3.394   3.837 -0.9599  0.7476  0.0258
  234DG     C12 5371   4.588   3.252   3.630  0.3356  0.9413  0.1372
  234DG     H13 5372   4.129   3.420   3.751 -0.7855  3.2312  0.5626
  234DG     H14 5373   4.183   3.285   3.844  2.1768  0.5255  1.6562
  234DG     H15 5374   4.562   3.154   3.671  0.8962  1.9590  3.1896
  234DG     H16 5375   4.544   3.257   3.530 -0.2884 -0.4585  0.3140
  234DG     C17 5376   4.329   3.430   3.816  0.6333  0.0473  0.3477
  234DG     C18 5377   4.531   3.362   3.709  0.2237 -0.3653  0.2395
  234DG     O19 5378   4.386   3.350   3.711  0.2149 -0.2742 -0.7031
  234DG     H20 5379   4.376   3.398   3.909  0.1958 -3.8022 -0.6076
  234DG     H21 5380   4.350   3.535   3.794  0.0794 -0.2482 -1.8342
  234DG     H22 5381   4.581   3.358   3.806 -0.5976 -0.8928  0.6546
  234DG     H23 5382   4.570   3.454   3.666  0.9037 -0.9283 -0.3641
  235DG      C1 5383   0.672   3.382   0.892  0.3528 -0.1060  0.6531
  235DG      C2 5384   0.489   3.887   1.441  0.0490 -0.0773 -0.0234
  235DG      H3 5385   0.578   3.390   0.837  0.1991  0.1648  0.9493
  235DG      H4 5386   0.705   3.279   0.899 -0.4854 -0.4532 -0.2959
  235DG      H5 5387   0.745   3.453   0.853  0.4796 -0.2118  0.6970
  235DG      H6 5388   0.542   3.946   1.516  1.9815 -1.1683 -0.4401
  235DG      H7 5389   0.502   3.950   1.353  0.5510  0.4855  0.4446
  235DG      H8 5390   0.383   3.884   1.466 -0.1021  0.5015 -0.5871
  235DG      O9 5391   0.653   3.429   1.030 -0.0538  0.2048 -0.0655
  235DG     O10 5392   0.539   3.749   1.429 -0.5569  0.0674 -0.1788
  235DG     C11 5393   0.782   3.434   1.092 -0.3829 -0.4862  0.2491
  235DG     C12 5394   0.520   3.693   1.304 -0.5619  0.1351  0.1415
  235DG     H13 5395   0.827   3.528   1.060  1.6667 -1.6016 -0.3640
  235DG     H14 5396   0.851   3.357   1.058  1.7134  2.0089 -1.5798
  235DG     H15 5397   0.584   3.743   1.231  0.8101  0.7339  1.7124
  235DG     H16 5398   0.421   3.699   1.258 -0.6051 -2.2785 -0.2350
  235DG     C17 5399   0.762   3.428   1.240 -0.1790  0.4495  0.3748
  235DG     C18 5400   0.556   3.547   1.300 -0.8834 -0.2130  0.3411
  235DG     O19 5401   0.698   3.545   1.284  0.2650 -0.0721  0.0627
  235DG     H20 5402   0.865   3.437   1.274  0.3151 -1.5250 -0.4571
  235DG     H21 5403   0.730   3.327   1.264 -0.1067  0.3371  0.0097
  235DG     H22 5404   0.523   3.501   1.393  1.1780  1.6917  2.1426
  235DG     H23 5405   0.505   3.503   1.215 -1.1714  0.6260  0.0696
  236DG      C1 5406   3.733   4.176   0.658  0.1764 -0.3424  0.3875
  236DG      C2 5407   3.114   4.396   0.794 -0.2437  0.1775 -0.2868
  236DG      H3 5408   3.723   4.218   0.558 -0.6746 -1.3627  0.0222
  236DG      H4 5409   3.765   4.072   0.656 -1.6373 -0.9971  2.3421
  236DG      H5 5410   3.817   4.233   0.699  0.9747 -1.3491  0.1711
  236DG      H6 5411   3.044   4.461   0.846  1.3019  2.6096 -1.0496
  236DG      H7 5412   3.091   4.405   0.688 -0.1071  0.3610 -0.3025
  236DG      H8 5413   3.103   4.293   0.826 -0.9573  0.5579  0.7230
  236DG      O9 5414   3.618   4.185   0.734  0.1616 -0.0975  0.2002
  236DG     O10 5415   3.235   4.459   0.814  0.7091 -0.4933  0.4285
  236DG     C11 5416   3.657   4.192   0.866  0.1010 -0.1267 -0.5749
  236DG     C12 5417   3.276   4.468   0.950 -0.0703 -0.2299  0.3338
  236DG     H13 5418   3.721   4.276   0.890  1.4086 -0.8776 -1.3058
  236DG     H14 5419   3.714   4.104   0.897  1.9511  1.7418  1.7112
  236DG     H15 5420   3.206   4.503   1.026  0.8996  0.0847  1.0949
  236DG     H16 5421   3.348   4.548   0.960  1.0323 -1.4167  2.4702
  236DG     C17 5422   3.522   4.196   0.937 -0.4101 -0.2048 -0.4546
  236DG     C18 5423   3.339   4.338   0.991  0.2945  1.2381  0.4259
  236DG     O19 5424   3.438   4.305   0.892  0.0394  0.3087  0.2675
  236DG     H20 5425   3.543   4.181   1.043 -2.3368  1.1744  0.1848
  236DG     H21 5426   3.469   4.101   0.927  3.5406 -2.5195 -1.9560
  236DG     H22 5427   3.378   4.348   1.092 -1.0712 -0.2228  1.1420
  236DG     H23 5428   3.261   4.261   0.986  0.1925  1.1912  2.1382
  237DG      C1 5429   3.942   1.506   2.302  0.1501  0.0505  0.1509
  237DG      C2 5430   3.918   2.174   2.345 -0.4636  0.1199 -0.1873
  237DG      H3 5431   4.040   1.535   2.339 -0.1865  1.1200  0.2536
  237DG      H4 5432   3.954   1.453   2.207 -2.7833 -2.0274  0.7954
  237DG      H5 5433   3.890   1.449   2.378 -0.6456 -0.3772 -0.6939
  237DG      H6 5434   3.856   2.215   2.424 -0.2388  1.1634 -0.5386
  237DG      H7 5435   4.013   2.155   2.395  0.7488  1.3812 -1.8856
  237DG      H8 5436   3.944   2.251   2.272  0.2911  0.0211 -0.0304
  237DG      O9 5437   3.861   1.623   2.270  0.3150 -0.2331  0.2119
  237DG     O10 5438   3.856   2.056   2.294  0.2785  0.5785  0.2274
  237DG     C11 5439   3.721   1.593   2.243 -0.3984  0.4825  0.6470
  237DG     C12 5440   3.716   2.081   2.263 -0.1058 -0.2042  0.2853
  237DG     H13 5441   3.682   1.562   2.340  0.3643 -0.1065  0.7740
  237DG     H14 5442   3.705   1.511   2.173 -1.1428  2.2905 -1.4377
  237DG     H15 5443   3.721   2.167   2.196  2.6974 -0.0439  0.5851
  237DG     H16 5444   3.662   2.112   2.353  0.1547 -0.0002  0.3706
  237DG     C17 5445   3.656   1.717   2.174  0.1042 -0.4631  0.3361
  237DG     C18 5446   3.649   1.959   2.197  0.1922 -0.0381  0.4214
  237DG     O19 5447   3.694   1.838   2.250 -0.0885  0.6750  0.3923
  237DG     H20 5448   3.547   1.714   2.166  0.1587 -0.1540 -0.6879
  237DG     H21 5449   3.700   1.725   2.074 -0.2231  0.8763  0.2771
  237DG     H22 5450   3.542   1.964   2.215 -0.1945  2.2976 -1.9519
  237DG     H23 5451   3.675   1.958   2.091 -0.7460 -1.4547  0.1866
  238DG      C1 5452   2.354   3.427   4.732 -0.1159 -0.6838  0.3246
  238DG      C2 5453   2.934   3.446   4.929 -0.6530  0.1090  0.7929
  238DG      H3 5454   2.373   3.320   4.716  0.4639 -0.3989 -1.0478
  238DG      H4 5455   2.248   3.447   4.714  0.1423  0.2147 -0.2301
  238DG      H5 5456   2.378   3.449   4.836  2.0409  1.6465 -0.5935
  238DG      H6 5457   2.947   3.339   4.915 -0.2116  0.3360 -0.6422
  238DG      H7 5458   3.026   3.496   4.900 -0.3383 -0.3547  0.9703
  238DG      H8 5459   2.911   3.466   5.034 -1.0777  1.9960  0.3828
  238DG      O9 5460   2.431   3.511   4.642  0.3881 -0.3194 -0.3623
  238DG     O10 5461   2.832   3.510   4.851 -0.0933 -0.2454 -0.4491
  238DG     C11 5462   2.402   3.652   4.673  0.4181 -0.4338  0.7952
  238DG     C12 5463   2.819   3.652   4.884 -0.3515 -0.1950 -0.3780
  238DG     H13 5464   2.296   3.674   4.665  0.7495  0.6221 -1.3959
  238DG     H14 5465   2.455   3.716   4.603  0.0575  1.0909  1.8810
  238DG     H15 5466   2.849   3.716   4.801  2.3290  1.0706  1.4219
  238DG     H16 5467   2.878   3.688   4.968 -0.0381 -1.4619 -0.0325
  238DG     C17 5468   2.463   3.701   4.802  0.5330  0.0258 -0.6288
  238DG     C18 5469   2.677   3.701   4.903 -0.3226 -0.9077 -0.4550
  238DG     O19 5470   2.597   3.655   4.797  0.5318  0.1910 -0.4939
  238DG     H20 5471   2.406   3.665   4.887 -1.8865  0.0228 -2.1711
  238DG     H21 5472   2.453   3.810   4.804  1.2740  0.1111  1.7913
  238DG     H22 5473   2.646   3.662   5.000  1.8578  0.0302  0.6701
  238DG     H23 5474   2.679   3.809   4.915  0.5861 -0.8101 -1.3896
  239DG      C1 5475   4.245   0.716   5.075 -0.0907  0.0123  0.3352
  239DG      C2 5476   3.410   0.798   5.090  0.0804 -0.5195 -0.6355
  239DG      H3 5477   4.218   0.751   4.975  2.1185 -0.7447 -0.6036
  239DG      H4 5478   4.282   0.614   5.062 -0.9754 -0.6101  2.2521
  239DG      H5 5479   4.331   0.764   5.122  0.4461 -0.5787 -0.0281
  239DG      H6 5480   3.344   0.722   5.132 -0.8285  1.0434  0.9057
  239DG      H7 5481   3.385   0.876   5.162  0.0238 -1.9988  1.0421
  239DG      H8 5482   3.374   0.825   4.991  0.7353 -1.2061 -1.0686
  239DG      O9 5483   4.137   0.720   5.163 -0.5943  0.3061  0.1087
  239DG     O10 5484   3.548   0.759   5.108 -0.5951  0.4353  0.1351
  239DG     C11 5485   4.022   0.658   5.110  0.0775  0.5733 -0.5082
  239DG     C12 5486   3.631   0.847   5.031 -1.3162 -0.2411 -0.0745
  239DG     H13 5487   3.960   0.619   5.191  3.1610 -0.7856  1.3878
  239DG     H14 5488   4.029   0.567   5.052  3.3945 -0.2775  0.9976
  239DG     H15 5489   3.678   0.906   5.110 -2.0477  1.0047 -0.5502
  239DG     H16 5490   3.579   0.924   4.976  0.9205  1.7021  0.3645
  239DG     C17 5491   3.935   0.751   5.027 -0.4710  0.1355  0.0199
  239DG     C18 5492   3.722   0.771   4.932  0.0305  0.6728  0.6201
  239DG     O19 5493   3.815   0.683   4.997 -0.2607  0.0834 -0.4949
  239DG     H20 5494   3.977   0.769   4.928 -0.3482 -3.0943 -0.6057
  239DG     H21 5495   3.911   0.846   5.075 -0.9351 -0.3665  0.8151
  239DG     H22 5496   3.656   0.705   4.876  0.5126 -0.2213  1.0788
  239DG     H23 5497   3.775   0.832   4.858  2.0034 -1.1673  0.4109
  240DG      C1 5498   1.463   3.174   0.363 -0.5693 -0.4544  0.1110
  240DG      C2 5499   1.726   3.818   0.326  0.5404  0.1926 -0.1345
  240DG      H3 5500   1.383   3.108   0.330 -0.1384 -1.8993  1.8038
  240DG      H4 5501   1.439   3.210   0.463 -1.7330 -0.9266  0.0128
  240DG      H5 5502   1.551   3.111   0.355 -1.5954 -1.7060 -2.0847
  240DG      H6 5503   1.651   3.865   0.389  1.6789 -0.3541  1.7199
  240DG      H7 5504   1.795   3.758   0.386 -0.5546  0.1719  1.1428
  240DG      H8 5505   1.782   3.899   0.279 -1.2600  1.1855 -0.6641
  240DG      O9 5506   1.480   3.290   0.285  0.0096  0.0860 -0.0022
  240DG     O10 5507   1.650   3.735   0.238 -0.3187  0.0055 -0.5541
  240DG     C11 5508   1.515   3.258   0.152 -0.0632  0.0843 -0.4047
  240DG     C12 5509   1.721   3.674   0.126  1.1850 -0.2564 -0.0549
  240DG     H13 5510   1.437   3.197   0.105 -0.9255  3.9625 -4.8661
  240DG     H14 5511   1.606   3.200   0.136 -0.2069 -0.2342 -0.0830
  240DG     H15 5512   1.811   3.621   0.160  0.2116 -2.5603 -0.8791
  240DG     H16 5513   1.746   3.755   0.057 -1.9872  1.1397  0.2689
  240DG     C17 5514   1.510   3.382   0.072  0.1196 -0.2792  0.5076
  240DG     C18 5515   1.634   3.584   0.047  0.4488 -0.0993 -1.0705
  240DG     O19 5516   1.589   3.481   0.133 -0.0354 -0.5637 -0.3449
  240DG     H20 5517   1.408   3.420   0.073 -0.6574 -2.1661 -1.1537
  240DG     H21 5518   1.532   3.361  -0.032 -1.7859 -0.8430  0.1843
  240DG     H22 5519   1.553   3.645   0.007  0.8374  1.1058 -0.0927
  240DG     H23 5520   1.695   3.535  -0.030  1.2241 -1.2203  0.2187
  241DG      C1 5521   3.716   0.323   3.347  0.2210 -0.0961  0.4196
  241DG      C2 5522   3.497   0.069   2.657 -0.5485 -0.2423 -0.7890
  241DG      H3 5523   3.699   0.253   3.428 -1.1290  0.0300  0.2660
  241DG      H4 5524   3.621   0.368   3.317 -0.1354 -1.2396 -0.2109
  241DG      H5 5525   3.779   0.394   3.401 -0.6558 -0.7493  2.4011
  241DG      H6 5526   3.492   0.012   2.750 -0.3154  0.5851 -0.2524
  241DG      H7 5527   3.397   0.102   2.629 -0.5936 -0.6835 -1.1598
  241DG      H8 5528   3.550   0.014   2.579  2.0733  0.0233  0.6794
  241DG      O9 5529   3.772   0.253   3.239 -0.1817 -0.4656  0.2224
  241DG     O10 5530   3.586   0.175   2.692  0.5694 -0.6721 -0.2080
  241DG     C11 5531   3.845   0.320   3.134 -0.7465  0.0569  0.1646
  241DG     C12 5532   3.716   0.131   2.737  0.5044 -0.6398  0.3401
  241DG     H13 5533   3.913   0.245   3.094  1.4760  2.4369 -0.8508
  241DG     H14 5534   3.912   0.394   3.178  0.9988  0.0316 -2.2420
  241DG     H15 5535   3.773   0.129   2.644 -1.0423  0.7102 -0.6934
  241DG     H16 5536   3.709   0.032   2.781 -1.7770  0.0384  1.7042
  241DG     C17 5537   3.739   0.379   3.032 -0.6190 -0.1922 -0.0572
  241DG     C18 5538   3.780   0.237   2.841  0.7496  0.1149  0.7363
  241DG     O19 5539   3.692   0.271   2.943 -0.4438 -0.3491 -0.5129
  241DG     H20 5540   3.778   0.469   2.984 -1.7880  0.9415  1.0066
  241DG     H21 5541   3.651   0.418   3.084 -1.3875  2.3170 -2.9429
  241DG     H22 5542   3.875   0.190   2.868 -0.6707 -3.1254  0.6319
  241DG     H23 5543   3.786   0.319   2.769 -0.8788  1.2770  1.8561
  242DG      C1 5544   3.647   1.550   0.907 -0.5173  1.0302  0.0830
  242DG      C2 5545   4.017   1.222   0.518 -0.4082  0.2513  0.7234
  242DG      H3 5546   3.593   1.460   0.879  0.3824  0.2457  0.8316
  242DG      H4 5547   3.596   1.631   0.853 -2.3749 -0.5716 -0.7151
  242DG      H5 5548   3.637   1.564   1.014  0.8869  0.8703  0.2502
  242DG      H6 5549   3.929   1.227   0.453 -0.4976 -1.1019  0.7000
  242DG      H7 5550   4.104   1.189   0.462 -1.5892  0.7687 -1.5338
  242DG      H8 5551   4.005   1.149   0.598  1.2212 -1.5815 -0.6129
  242DG      O9 5552   3.774   1.538   0.851  0.2912 -0.1147  0.2147
  242DG     O10 5553   4.050   1.346   0.574  0.2149 -0.6878 -0.2378
  242DG     C11 5554   3.870   1.615   0.919 -0.3290  0.2901 -0.0701
  242DG     C12 5555   4.174   1.359   0.639  0.2238  0.4072  0.1767
  242DG     H13 5556   3.893   1.587   1.022  0.0045  1.1616  0.0995
  242DG     H14 5557   3.838   1.719   0.907 -0.0011  0.3882 -0.0966
  242DG     H15 5558   4.252   1.381   0.566  2.4013 -1.6225  1.7403
  242DG     H16 5559   4.201   1.265   0.688  2.8669  1.2623  0.5398
  242DG     C17 5560   4.006   1.614   0.839 -0.3714  0.1223  0.2557
  242DG     C18 5561   4.173   1.469   0.748  0.3569 -0.4038  0.1947
  242DG     O19 5562   4.038   1.485   0.794 -0.2032 -0.1457  0.4727
  242DG     H20 5563   4.085   1.645   0.907  1.4440 -2.1144 -0.6853
  242DG     H21 5564   4.013   1.673   0.748 -1.1872 -1.2451 -0.7444
  242DG     H22 5565   4.234   1.447   0.836  0.8027  3.1580  0.9569
  242DG     H23 5566   4.202   1.559   0.693 -0.6143 -0.8215 -1.0371
  243DG      C1 5567   3.423   0.932   1.658 -0.1163  0.2327  0.1140
  243DG      C2 5568   3.789   0.392   1.444 -0.1480  0.0914  0.9194
  243DG      H3 5569   3.357   0.942   1.571  1.7720  1.3986 -1.2588
  243DG      H4 5570   3.513   0.993   1.657  0.5065 -0.6214  1.5337
  243DG      H5 5571   3.370   0.990   1.732 -1.1913  1.4933 -1.5750
  243DG      H6 5572   3.789   0.283   1.438 -1.6533  0.1515 -1.3168
  243DG      H7 5573   3.740   0.434   1.356  0.3147  1.1391  1.1408
  243DG      H8 5574   3.886   0.442   1.436  0.6442 -1.3537  1.1429
  243DG      O9 5575   3.469   0.800   1.679  0.2678 -0.0590 -0.0264
  243DG     O10 5576   3.723   0.445   1.559  0.4713  0.5267 -0.4578
  243DG     C11 5577   3.497   0.779   1.818  0.5924 -0.6960 -0.4707
  243DG     C12 5578   3.801   0.440   1.681 -0.1928  0.0170  0.3010
  243DG     H13 5579   3.426   0.829   1.882 -0.5232  0.7315 -2.6900
  243DG     H14 5580   3.588   0.836   1.836  0.2751 -0.4700  0.4230
  243DG     H15 5581   3.878   0.517   1.674  0.4554 -0.7365 -1.9345
  243DG     H16 5582   3.858   0.349   1.703 -1.8161 -1.5247 -1.4634
  243DG     C17 5583   3.532   0.631   1.850 -0.1643 -0.7037 -0.0847
  243DG     C18 5584   3.712   0.480   1.800 -0.2570 -0.0259  0.4815
  243DG     O19 5585   3.621   0.579   1.751 -0.1429  0.0481 -0.0161
  243DG     H20 5586   3.437   0.579   1.861 -0.7647  0.7100  1.7807
  243DG     H21 5587   3.581   0.645   1.947 -0.0219  2.5014 -0.5227
  243DG     H22 5588   3.665   0.397   1.852  0.8871 -0.8252  0.2865
  243DG     H23 5589   3.778   0.529   1.871  1.4019  0.8052 -1.5254
  244DG      C1 5590   4.994   3.235   1.904  0.0225 -0.2826  0.1363
  244DG      C2 5591   4.922   2.888   1.279  0.3747  0.1445  0.0392
  244DG      H3 5592   5.066   3.291   1.964 -1.0511  2.7927 -1.1878
  244DG      H4 5593   4.965   3.143   1.956 -0.4440  0.1456  0.6622
  244DG      H5 5594   4.911   3.306   1.898  0.2128 -0.0283  0.4459
  244DG      H6 5595   4.846   2.925   1.211  0.1643  2.1374  1.2941
  244DG      H7 5596   4.974   2.799   1.242  0.2640 -0.4091  1.1432
  244DG      H8 5597   4.856   2.858   1.361  1.1791  0.2064  0.7210
  244DG      O9 5598   5.049   3.208   1.785  0.0118 -0.3861 -0.0899
  244DG     O10 5599   5.019   2.983   1.303  0.4272 -0.3164  0.4008
  244DG     C11 5600   5.163   3.127   1.790 -0.6622  0.1611 -0.3677
  244DG     C12 5601   5.142   2.930   1.349  0.4030 -0.2265 -0.4932
  244DG     H13 5602   5.138   3.031   1.836 -0.9512 -0.0204 -0.8947
  244DG     H14 5603   5.237   3.173   1.855 -1.0641  0.2675  0.0258
  244DG     H15 5604   5.211   2.893   1.272 -0.3993 -1.9980 -0.4135
  244DG     H16 5605   5.128   2.848   1.420  2.5356 -0.4349 -0.2499
  244DG     C17 5606   5.229   3.111   1.646 -0.0589 -0.2064 -0.8803
  244DG     C18 5607   5.211   3.041   1.422  0.5107  0.2283 -0.7252
  244DG     O19 5608   5.153   3.049   1.547 -0.1837  0.4591 -0.3529
  244DG     H20 5609   5.325   3.060   1.651  0.3754  0.5614 -1.1682
  244DG     H21 5610   5.243   3.216   1.618 -0.7599 -0.3035 -1.6279
  244DG     H22 5611   5.317   3.016   1.419  0.4891  0.2046 -1.3765
  244DG     H23 5612   5.200   3.136   1.370 -2.4522  0.6384  0.4801
  245DG      C1 5613   1.848   3.091   0.332  0.7008  0.1941  0.1592
  245DG      C2 5614   1.411   3.605   0.443  0.5803 -0.5839 -0.1187
  245DG      H3 5615   1.925   3.030   0.378 -0.1875  0.7728  2.5379
  245DG      H4 5616   1.904   3.153   0.262  1.5936  0.6602  1.2561
  245DG      H5 5617   1.775   3.027   0.283  1.2445 -1.8108  1.8270
  245DG      H6 5618   1.389   3.703   0.484  0.4003 -0.4117 -0.6115
  245DG      H7 5619   1.435   3.607   0.336  1.2138 -2.8056 -0.0654
  245DG      H8 5620   1.316   3.550   0.448  1.5668 -2.2631  1.0414
  245DG      O9 5621   1.787   3.175   0.426  0.5896 -0.0550 -0.6036
  245DG     O10 5622   1.523   3.547   0.521  0.1650 -0.0581  0.0806
  245DG     C11 5623   1.752   3.107   0.546 -0.7553 -0.3461  0.7759
  245DG     C12 5624   1.469   3.498   0.641  0.4654 -0.2133 -0.3420
  245DG     H13 5625   1.838   3.054   0.588  0.2478  0.5587 -0.0919
  245DG     H14 5626   1.678   3.029   0.527 -0.6918 -0.4909  1.1007
  245DG     H15 5627   1.390   3.427   0.616  0.4432  0.5448 -2.6784
  245DG     H16 5628   1.438   3.574   0.712 -1.0491 -0.1571 -1.0300
  245DG     C17 5629   1.713   3.213   0.659  0.0918 -0.4861  0.2110
  245DG     C18 5630   1.589   3.411   0.700  0.3621 -0.4659  0.0350
  245DG     O19 5631   1.616   3.301   0.608 -0.1118  0.2778 -0.4474
  245DG     H20 5632   1.809   3.260   0.681  0.2479 -0.7231  0.0361
  245DG     H21 5633   1.688   3.161   0.751 -1.3929  1.2627  0.8557
  245DG     H22 5634   1.675   3.479   0.693 -0.6191  0.7270 -0.8937
  245DG     H23 5635   1.566   3.386   0.804  2.9996  3.0343  1.7215
  246DG      C1 5636   3.503   4.999   4.240  0.1806  0.8481 -0.6550
  246DG      C2 5637   4.212   5.005   4.254 -0.8083  0.2945  0.3778
  246DG      H3 5638   3.500   4.966   4.137 -1.4209 -1.8273  0.1431
  246DG      H4 5639   3.407   5.039   4.274 -1.6151 -2.8543 -0.9376
  246DG      H5 5640   3.503   4.902   4.291  0.6679  1.3070  0.2536
  246DG      H6 5641   4.269   5.042   4.169 -1.7952 -2.4210 -1.6001
  246DG      H7 5642   4.273   4.992   4.342 -0.6118 -2.1144 -0.0625
  246DG      H8 5643   4.180   4.907   4.218  0.4753  0.0051 -0.0061
  246DG      O9 5644   3.612   5.075   4.270  0.2378 -0.5874  0.1462
  246DG     O10 5645   4.092   5.083   4.285  0.0620 -0.4006 -0.0706
  246DG     C11 5646   3.607   5.197   4.197 -0.3637  0.4742  0.5360
  246DG     C12 5647   4.097   5.201   4.210  1.0133 -0.3322 -0.6639
  246DG     H13 5648   3.520   5.250   4.235 -0.3529  0.2751  0.8445
  246DG     H14 5649   3.614   5.190   4.088  0.5407 -0.1163  0.6257
  246DG     H15 5650   4.089   5.177   4.104 -2.4950 -0.2941 -0.5030
  246DG     H16 5651   4.188   5.258   4.229  2.3542 -3.0904  2.3467
  246DG     C17 5652   3.725   5.287   4.241 -0.3814  0.4389  0.0423
  246DG     C18 5653   3.977   5.293   4.248  0.2631 -0.3352 -0.0626
  246DG     O19 5654   3.851   5.220   4.216  0.0791 -0.6752  0.3812
  246DG     H20 5655   3.709   5.315   4.345 -1.2501  3.0998 -0.7042
  246DG     H21 5656   3.718   5.381   4.186  0.7159 -0.1265 -1.1098
  246DG     H22 5657   3.977   5.327   4.351  1.3150 -2.2594  0.6162
  246DG     H23 5658   3.979   5.390   4.198 -1.0883  1.0600  2.4254
  247DG      C1 5659   4.088   1.461   3.357  0.8693 -0.8448 -0.6406
  247DG      C2 5660   4.430   2.041   3.374  0.0753 -0.2006  0.4126
  247DG      H3 5661   4.155   1.444   3.273  1.9771 -0.5071  0.1468
  247DG      H4 5662   3.987   1.473   3.317  1.1422 -2.1527 -1.8076
  247DG      H5 5663   4.075   1.369   3.414  0.1253 -1.1444 -1.2681
  247DG      H6 5664   4.484   2.076   3.461 -0.6218 -1.3509  1.3456
  247DG      H7 5665   4.499   1.986   3.310  0.2424  0.6101 -0.1237
  247DG      H8 5666   4.400   2.126   3.313  0.7514 -0.7640 -0.7479
  247DG      O9 5667   4.113   1.576   3.432 -0.2734 -0.0542  0.1785
  247DG     O10 5668   4.318   1.962   3.416 -0.8579  0.1509 -0.4041
  247DG     C11 5669   4.043   1.594   3.553  0.2987 -0.0125  0.3092
  247DG     C12 5670   4.210   2.036   3.472  0.4353 -0.1907 -0.5170
  247DG     H13 5671   4.059   1.507   3.617  1.5886 -1.0565 -1.3175
  247DG     H14 5672   3.936   1.598   3.535  0.4999 -0.5145 -1.1454
  247DG     H15 5673   4.140   2.064   3.393  1.4703  0.9927 -1.0524
  247DG     H16 5674   4.245   2.129   3.517 -3.5537  1.3788 -0.2983
  247DG     C17 5675   4.096   1.720   3.623  0.3401 -0.2796  0.1948
  247DG     C18 5676   4.166   1.938   3.583 -0.2864  0.0093 -0.6498
  247DG     O19 5677   4.117   1.821   3.520 -0.1265  0.8111 -0.0415
  247DG     H20 5678   4.192   1.707   3.673  0.1460  0.1805  0.6873
  247DG     H21 5679   4.039   1.753   3.710  0.5397  1.0648 -0.1631
  247DG     H22 5680   4.252   1.912   3.644 -0.7915  0.8902  0.4646
  247DG     H23 5681   4.090   1.981   3.647 -1.4993  0.9610 -2.6083
  248DG      C1 5682   2.036   4.236   1.276 -0.4844  0.4206 -0.2724
  248DG      C2 5683   1.782   4.424   1.861  0.1324  0.5556 -0.4533
  248DG      H3 5684   2.140   4.223   1.246  0.5799  0.6271  2.9372
  248DG      H4 5685   2.005   4.334   1.241 -1.3103  0.2066 -0.1510
  248DG      H5 5686   1.975   4.161   1.226 -0.5123  0.6441 -0.5774
  248DG      H6 5687   1.706   4.492   1.822 -1.0797 -1.6957 -2.2520
  248DG      H7 5688   1.739   4.326   1.840  0.4106  0.4421 -0.4931
  248DG      H8 5689   1.781   4.457   1.965 -0.8827  2.2474 -0.9672
  248DG      O9 5690   2.042   4.241   1.411 -0.0545  0.5927 -0.1642
  248DG     O10 5691   1.911   4.430   1.804  0.2137 -0.3821 -0.0252
  248DG     C11 5692   2.112   4.134   1.473 -0.3972  0.2912  0.4808
  248DG     C12 5693   2.010   4.351   1.874  0.1071  0.0705  0.1414
  248DG     H13 5694   2.159   4.059   1.409 -1.4813  0.3516 -0.4102
  248DG     H14 5695   2.042   4.067   1.523 -0.7882 -0.2030 -0.7057
  248DG     H15 5696   1.982   4.251   1.907  1.6020 -0.9036 -1.3903
  248DG     H16 5697   2.027   4.398   1.971 -3.4528 -0.6503  1.3068
  248DG     C17 5698   2.196   4.194   1.591  0.2223  0.0792 -0.3100
  248DG     C18 5699   2.133   4.321   1.788  0.9015 -0.4514  0.0662
  248DG     O19 5700   2.094   4.247   1.674  0.3128  0.9492 -0.1921
  248DG     H20 5701   2.257   4.273   1.546 -0.9542  2.8812  2.6412
  248DG     H21 5702   2.261   4.131   1.652 -0.1307  1.3875  1.4791
  248DG     H22 5703   2.197   4.406   1.764  1.5877 -0.6181  1.2380
  248DG     H23 5704   2.209   4.264   1.842  4.1726  2.8535 -0.6317
  249DG      C1 5705   3.558   0.012   4.497  0.7696 -0.1438  0.7325
  249DG      C2 5706   3.156  -0.864   4.544  0.1877 -0.3149 -0.2768
  249DG      H3 5707   3.581   0.109   4.542 -2.5297  1.0587  0.0767
  249DG      H4 5708   3.535   0.025   4.391 -0.6672  0.8092  1.1302
  249DG      H5 5709   3.653  -0.041   4.496  1.4462  1.0129  0.8699
  249DG      H6 5710   3.117  -0.877   4.443  2.5881 -1.4066 -1.1419
  249DG      H7 5711   3.254  -0.912   4.542 -0.6583 -2.3803 -4.8417
  249DG      H8 5712   3.091  -0.918   4.613 -0.1113 -0.3006 -0.5480
  249DG      O9 5713   3.466  -0.067   4.565  0.2381 -0.1922  0.1757
  249DG     O10 5714   3.157  -0.725   4.590  0.4952  0.5922  1.0048
  249DG     C11 5715   3.429  -0.181   4.493 -0.1040 -0.3446  0.0267
  249DG     C12 5716   3.259  -0.639   4.531 -0.2388  0.4727  0.0500
  249DG     H13 5717   3.518  -0.242   4.475  0.6312  1.2812 -2.2706
  249DG     H14 5718   3.378  -0.156   4.401 -0.7660 -1.9062 -0.0682
  249DG     H15 5719   3.250  -0.657   4.424 -0.6548 -1.9538  0.4462
  249DG     H16 5720   3.358  -0.673   4.561 -0.5794 -0.2833  0.3306
  249DG     C17 5721   3.342  -0.279   4.569  0.6982  0.0944 -0.4477
  249DG     C18 5722   3.242  -0.496   4.569  0.2928  0.6947  0.5890
  249DG     O19 5723   3.349  -0.417   4.517 -0.3130 -0.4223  0.9313
  249DG     H20 5724   3.239  -0.244   4.581  0.1762 -1.3427 -0.5326
  249DG     H21 5725   3.392  -0.261   4.664  1.9864  1.3876 -1.3335
  249DG     H22 5726   3.148  -0.458   4.531 -0.1001  0.9178  1.7328
  249DG     H23 5727   3.242  -0.484   4.678  0.2240 -2.2329  0.9756
  250DG      C1 5728   2.247   0.563   1.703 -0.2292 -0.0332  0.4483
  250DG      C2 5729   2.791   0.497   2.121 -0.3985  0.0124 -0.3278
  250DG      H3 5730   2.144   0.600   1.699  0.3670  1.5814 -1.6710
  250DG      H4 5731   2.260   0.460   1.670  1.4168  0.4170 -0.3857
  250DG      H5 5732   2.307   0.620   1.632 -2.1347  1.2862 -0.1740
  250DG      H6 5733   2.856   0.570   2.073 -1.8032  1.5563  0.0641
  250DG      H7 5734   2.750   0.544   2.210  1.5002  0.5728  0.3184
  250DG      H8 5735   2.857   0.423   2.167  0.0279  2.7970  4.0929
  250DG      O9 5736   2.305   0.577   1.832  0.5749  0.1555  0.5316
  250DG     O10 5737   2.694   0.438   2.035  0.0230  0.6089 -0.2289
  250DG     C11 5738   2.250   0.492   1.931  0.1686  0.0157 -0.0769
  250DG     C12 5739   2.645   0.310   2.080  1.0648  0.3414 -0.2500
  250DG     H13 5740   2.143   0.491   1.910 -0.1364  0.8740  1.2902
  250DG     H14 5741   2.272   0.558   2.015  0.1142  1.1715 -0.9588
  250DG     H15 5742   2.594   0.329   2.174  2.3782  1.4977  0.2591
  250DG     H16 5743   2.720   0.233   2.097 -0.8304 -1.8025 -1.1852
  250DG     C17 5744   2.319   0.356   1.943  0.3110 -0.7022 -0.3284
  250DG     C18 5745   2.539   0.266   1.978  0.2324 -0.6435  0.6974
  250DG     O19 5746   2.449   0.380   1.973 -0.1401  0.6067  0.5388
  250DG     H20 5747   2.314   0.299   1.850  2.6853  0.7146 -1.4301
  250DG     H21 5748   2.270   0.297   2.021 -0.8731 -1.1614 -1.3881
  250DG     H22 5749   2.576   0.238   1.879 -0.3485 -1.7105  0.7593
  250DG     H23 5750   2.485   0.176   2.007 -0.2708 -0.0323  1.7312
  251DG      C1 5751   2.281   2.947   2.787  0.2301  0.0071 -0.7572
  251DG      C2 5752   1.593   2.667   3.038 -0.4711  0.3097 -0.5282
  251DG      H3 5753   2.358   3.018   2.816  1.0986 -0.9365 -0.7040
  251DG      H4 5754   2.267   2.956   2.680  0.7338  1.2255 -0.7346
  251DG      H5 5755   2.323   2.852   2.821  0.6301  0.4487  0.0050
  251DG      H6 5756   1.498   2.705   3.075 -1.0054 -1.1972 -0.2663
  251DG      H7 5757   1.585   2.636   2.934  0.4855  0.4730 -0.6607
  251DG      H8 5758   1.612   2.582   3.103 -1.7720  0.6970  0.4024
  251DG      O9 5759   2.153   2.964   2.847 -0.3509 -0.0066  0.3361
  251DG     O10 5760   1.691   2.770   3.063 -0.4490  0.4135  0.4684
  251DG     C11 5761   2.146   2.971   2.981  0.2094 -0.0208 -1.3301
  251DG     C12 5762   1.678   2.897   2.983 -0.2640  0.9618 -0.1294
  251DG     H13 5763   2.233   3.025   3.018 -0.7036 -0.6078  2.0758
  251DG     H14 5764   2.147   2.866   3.011  1.5735  0.1844 -0.5840
  251DG     H15 5765   1.579   2.933   3.012  1.1774  3.3751  2.2280
  251DG     H16 5766   1.696   2.881   2.877  1.3231  1.3671  0.0559
  251DG     C17 5767   2.015   3.037   3.028 -0.1450  0.0528  0.0088
  251DG     C18 5768   1.786   2.997   3.030  1.3017 -0.2714  0.2069
  251DG     O19 5769   1.905   2.970   2.970 -0.7452 -0.2405  0.3488
  251DG     H20 5770   1.998   3.142   3.002  0.6264 -0.0850 -1.1338
  251DG     H21 5771   2.007   3.031   3.137 -1.4742  1.0919 -0.0140
  251DG     H22 5772   1.765   3.101   3.006 -2.1352 -1.0848 -0.8387
  251DG     H23 5773   1.768   3.000   3.138 -2.5011 -0.0642 -0.3037
  252DG      C1 5774   1.619   1.818   3.432  0.4479  0.3335  0.4542
  252DG      C2 5775   1.729   1.666   2.615  0.1905  0.3242  0.4380
  252DG      H3 5776   1.717   1.810   3.480  1.0219  0.3800 -0.6561
  252DG      H4 5777   1.547   1.771   3.498  0.1031 -0.9329 -0.7663
  252DG      H5 5778   1.590   1.922   3.417 -3.8716 -1.0531 -3.0184
  252DG      H6 5779   1.771   1.684   2.516 -1.9410  1.1735 -0.3683
  252DG      H7 5780   1.813   1.620   2.667  1.9298  2.9741  0.1553
  252DG      H8 5781   1.639   1.605   2.610 -0.5959  1.3643  1.3765
  252DG      O9 5782   1.615   1.759   3.306  0.5186  0.0005 -0.3779
  252DG     O10 5783   1.685   1.781   2.683 -0.1857 -0.3342 -0.7656
  252DG     C11 5784   1.484   1.783   3.237 -0.1377  0.7120  0.1310
  252DG     C12 5785   1.678   1.752   2.830 -0.6146 -0.8230 -0.4327
  252DG     H13 5786   1.456   1.885   3.261 -1.0832  0.5908 -0.4154
  252DG     H14 5787   1.430   1.706   3.292  2.2254 -1.9707 -1.0118
  252DG     H15 5788   1.775   1.742   2.878 -0.8159  0.3194  0.2537
  252DG     H16 5789   1.619   1.662   2.847  2.0038 -2.4396  0.5972
  252DG     C17 5790   1.493   1.762   3.083  0.6004 -0.0254  0.0716
  252DG     C18 5791   1.596   1.865   2.901  0.1207  0.2531  0.0275
  252DG     O19 5792   1.602   1.838   3.041 -0.0653  0.2140  0.1810
  252DG     H20 5793   1.395   1.786   3.040  1.1335  3.6711  0.5481
  252DG     H21 5794   1.507   1.656   3.065 -0.6217 -0.5224  1.8778
  252DG     H22 5795   1.652   1.957   2.883  0.2232  0.1718 -0.0704
  252DG     H23 5796   1.493   1.873   2.864  0.6506  0.0290 -1.5947
  253DG      C1 5797   0.256   0.204   5.411  0.7573 -0.1412 -0.2155
  253DG      C2 5798   0.670   0.689   5.230 -0.4546  0.1398 -0.2027
  253DG      H3 5799   0.211   0.188   5.509  1.0213 -0.6014 -0.1674
  253DG      H4 5800   0.229   0.110   5.364  1.6941 -2.5377  3.5782
  253DG      H5 5801   0.196   0.284   5.368 -0.1348 -0.4168  0.4686
  253DG      H6 5802   0.663   0.782   5.286  0.4563 -0.0011  0.1601
  253DG      H7 5803   0.749   0.700   5.155 -1.1866 -0.4312 -1.0835
  253DG      H8 5804   0.581   0.674   5.168 -1.5585 -0.6172  1.5159
  253DG      O9 5805   0.388   0.250   5.417  0.7715  0.0190  0.3451
  253DG     O10 5806   0.674   0.573   5.306 -0.9581  0.8694 -0.2593
  253DG     C11 5807   0.479   0.183   5.490 -0.6677  0.8712 -0.1082
  253DG     C12 5808   0.723   0.470   5.223 -0.1968 -0.0233 -0.8426
  253DG     H13 5809   0.445   0.080   5.498  0.6104  0.0962 -3.2155
  253DG     H14 5810   0.496   0.225   5.589 -1.2189 -0.7235  0.6956
  253DG     H15 5811   0.826   0.478   5.187  0.6426 -0.1513  1.3659
  253DG     H16 5812   0.665   0.456   5.132  0.3906  0.1435 -1.2507
  253DG     C17 5813   0.610   0.186   5.408  0.6083  0.0647  0.4851
  253DG     C18 5814   0.746   0.345   5.306  1.0427 -0.4125 -0.0500
  253DG     O19 5815   0.616   0.314   5.349  0.2214 -0.0972 -0.1544
  253DG     H20 5816   0.604   0.105   5.335 -0.1081 -0.4149  1.0626
  253DG     H21 5817   0.687   0.165   5.482  0.7068  0.7690  0.5939
  253DG     H22 5818   0.786   0.267   5.241  0.6402 -0.4610 -0.2424
  253DG     H23 5819   0.814   0.356   5.391 -0.3628  1.4205  0.8998
  254DG      C1 5820   0.369   3.193   1.847  0.5273  0.3311  0.7905
  254DG      C2 5821   0.338   2.727   2.322  0.0363  0.1291 -0.2062
  254DG      H3 5822   0.394   3.100   1.796 -1.5449 -0.2771  0.7858
  254DG      H4 5823   0.416   3.272   1.789 -1.0906  0.2326 -0.7123
  254DG      H5 5824   0.264   3.212   1.825  0.4778  0.6614  1.2674
  254DG      H6 5825   0.311   2.671   2.232 -0.8949 -0.1913  0.2580
  254DG      H7 5826   0.426   2.674   2.361 -1.6319 -1.6248  1.3767
  254DG      H8 5827   0.260   2.726   2.397  0.7449 -1.5074  0.5805
  254DG      O9 5828   0.398   3.171   1.981 -0.5316  0.0935  0.4139
  254DG     O10 5829   0.382   2.856   2.289 -0.1478  0.5007  0.2805
  254DG     C11 5830   0.372   3.279   2.064  0.4266 -0.1512 -0.3156
  254DG     C12 5831   0.365   2.944   2.405  0.0364 -0.4438  0.2193
  254DG     H13 5832   0.270   3.313   2.078  0.3362 -0.4273 -0.3143
  254DG     H14 5833   0.422   3.366   2.022  0.2643 -0.4133 -1.0548
  254DG     H15 5834   0.393   2.893   2.498 -0.6573 -0.4410  0.4341
  254DG     H16 5835   0.260   2.959   2.427  0.4017  0.0595  1.7784
  254DG     C17 5836   0.430   3.248   2.205 -0.1833 -0.4189  0.2578
  254DG     C18 5837   0.425   3.082   2.371  0.6615  0.4940  0.5413
  254DG     O19 5838   0.384   3.123   2.245  0.0685 -0.1238 -0.1710
  254DG     H20 5839   0.417   3.316   2.289 -0.6192  0.0431 -0.1837
  254DG     H21 5840   0.539   3.248   2.198 -0.0809  2.3212  0.7006
  254DG     H22 5841   0.394   3.161   2.440  2.0651  0.9667  0.6565
  254DG     H23 5842   0.533   3.072   2.372  0.6521  0.2498  2.1031
  255DG      C1 5843   1.845   1.238   3.801  0.0435  0.3454  0.9240
  255DG      C2 5844   1.813   0.660   4.177 -0.1130  0.0453  1.0452
  255DG      H3 5845   1.921   1.294   3.746  0.0455 -1.7740 -1.4015
  255DG      H4 5846   1.865   1.235   3.909  2.4250  2.6601  0.6561
  255DG      H5 5847   1.746   1.275   3.777 -0.8774 -0.6988  2.8650
  255DG      H6 5848   1.881   0.579   4.206  0.0592 -1.1325 -2.2528
  255DG      H7 5849   1.794   0.738   4.251  2.1609  1.5087  0.1837
  255DG      H8 5850   1.725   0.598   4.158  0.9827 -0.7678 -1.9180
  255DG      O9 5851   1.845   1.110   3.746  0.0118  0.5885  0.2442
  255DG     O10 5852   1.841   0.723   4.052 -0.5139 -0.4964 -0.1288
  255DG     C11 5853   1.972   1.065   3.747 -0.3782 -0.4804  0.6729
  255DG     C12 5854   1.896   0.640   3.952 -0.3594 -0.8629  0.0770
  255DG     H13 5855   2.032   1.103   3.830 -1.6710  2.5975  0.3470
  255DG     H14 5856   2.017   1.106   3.657 -1.6889  1.0598  0.6672
  255DG     H15 5857   1.844   0.544   3.957 -0.3000 -0.8270  2.1361
  255DG     H16 5858   2.001   0.639   3.982 -0.4506  0.0138  0.4406
  255DG     C17 5859   1.967   0.915   3.729  0.1628 -0.4572  0.0245
  255DG     C18 5860   1.882   0.707   3.816  0.3641 -0.1584  0.3497
  255DG     O19 5861   1.899   0.851   3.834  0.0041  0.4076 -0.2873
  255DG     H20 5862   2.067   0.878   3.709  0.4549 -0.1285  0.8497
  255DG     H21 5863   1.902   0.902   3.642  0.2161 -1.2686  0.0980
  255DG     H22 5864   1.954   0.664   3.746  0.9700 -1.1398  1.5207
  255DG     H23 5865   1.784   0.691   3.773  0.9901 -1.4526 -0.6856
  256DG      C1 5866   5.329   3.039   4.144 -0.3066 -0.4611  0.2403
  256DG      C2 5867   5.745   3.496   4.455  0.4316 -0.5686 -0.2600
  256DG      H3 5868   5.417   3.080   4.194 -0.2601  0.8138 -0.8221
  256DG      H4 5869   5.335   3.075   4.041  3.0193 -1.4721 -0.0389
  256DG      H5 5870   5.330   2.931   4.155 -0.7531 -0.3549  1.5094
  256DG      H6 5871   5.813   3.511   4.371  3.0496 -1.8338  1.4838
  256DG      H7 5872   5.775   3.564   4.536  0.0454  1.5276 -1.7819
  256DG      H8 5873   5.753   3.392   4.487 -0.8056 -0.1830  1.4952
  256DG      O9 5874   5.217   3.081   4.211  0.1342  0.6255  0.0952
  256DG     O10 5875   5.612   3.524   4.407  0.1813  0.1020 -0.3039
  256DG     C11 5876   5.168   3.202   4.158 -0.2205  0.7046 -0.4000
  256DG     C12 5877   5.557   3.438   4.308  0.5791 -0.1212  0.3412
  256DG     H13 5878   5.060   3.201   4.165 -0.1103  0.2430  1.8471
  256DG     H14 5879   5.185   3.223   4.052  0.5014 -2.2268 -0.9607
  256DG     H15 5880   5.588   3.336   4.330 -2.4613 -1.4876 -0.9773
  256DG     H16 5881   5.603   3.467   4.213  0.8318 -0.9897  0.1923
  256DG     C17 5882   5.213   3.296   4.258 -0.5049  0.6238  0.5558
  256DG     C18 5883   5.406   3.436   4.309  0.7214  0.3727  1.5305
  256DG     O19 5884   5.358   3.312   4.257 -0.2092  0.0953  0.0900
  256DG     H20 5885   5.194   3.254   4.356 -0.5657 -0.1815  0.2025
  256DG     H21 5886   5.166   3.394   4.255  0.1674  0.9495  0.3734
  256DG     H22 5887   5.377   3.435   4.414 -0.2431 -1.9960  1.2917
  256DG     H23 5888   5.369   3.526   4.260  1.0686 -1.7944 -3.1951
  257DG      C1 5889   2.804   0.038   0.022  0.1142 -0.6153 -0.4526
  257DG      C2 5890   2.300  -0.471  -0.239  0.4335  0.6993 -0.2452
  257DG      H3 5891   2.751   0.123   0.068 -0.7902 -1.5191  0.2372
  257DG      H4 5892   2.786   0.030  -0.085 -1.1926  1.3099 -0.4415
  257DG      H5 5893   2.911   0.047   0.041  0.0223  0.3541 -0.3453
  257DG      H6 5894   2.281  -0.569  -0.194 -3.6270 -0.3731 -3.6690
  257DG      H7 5895   2.202  -0.426  -0.255 -0.8242 -1.1811  1.6055
  257DG      H8 5896   2.353  -0.493  -0.331  0.1783 -0.7431 -0.0659
  257DG      O9 5897   2.754  -0.082   0.079 -1.1135 -0.1472 -0.1708
  257DG     O10 5898   2.373  -0.384  -0.156  0.6138 -0.3621 -0.0368
  257DG     C11 5899   2.828  -0.198   0.047  0.4196 -0.2415 -0.4415
  257DG     C12 5900   2.489  -0.439  -0.106 -0.1002  0.1831 -0.3710
  257DG     H13 5901   2.924  -0.169   0.091 -0.4308  2.2667 -0.0585
  257DG     H14 5902   2.826  -0.202  -0.062 -1.1737  0.2531 -0.4507
  257DG     H15 5903   2.552  -0.489  -0.180 -0.0308 -0.5867  0.2020
  257DG     H16 5904   2.451  -0.518  -0.043 -3.5211  0.5237 -1.7726
  257DG     C17 5905   2.773  -0.324   0.111  0.0467 -0.5125  0.5033
  257DG     C18 5906   2.573  -0.339  -0.026 -0.1590 -0.0888 -0.1267
  257DG     O19 5907   2.691  -0.404   0.019 -0.1056  0.1427 -0.2375
  257DG     H20 5908   2.718  -0.305   0.203 -0.7603 -0.2303 -0.0231
  257DG     H21 5909   2.862  -0.381   0.137 -0.3537 -0.9309  1.0003
  257DG     H22 5910   2.600  -0.261  -0.096  0.4749 -1.1194 -1.0611
  257DG     H23 5911   2.530  -0.300   0.067  2.5249 -1.5982  1.9003
  258DG      C1 5912   3.619   1.537   4.701  0.2831 -0.4348 -0.0294
  258DG      C2 5913   3.062   1.813   4.922  0.4011 -0.2520 -0.9651
  258DG      H3 5914   3.659   1.605   4.776  1.4791 -0.9671 -0.1605
  258DG      H4 5915   3.692   1.529   4.621  0.1651  2.5596 -0.5526
  258DG      H5 5916   3.608   1.445   4.759 -1.4525  0.7129  1.6043
  258DG      H6 5917   3.146   1.864   4.969  0.9982 -2.1879  0.1501
  258DG      H7 5918   2.984   1.889   4.910  0.7072  0.6616  2.0339
  258DG      H8 5919   3.029   1.735   4.990 -0.9484  1.0986 -0.0104
  258DG      O9 5920   3.498   1.585   4.651  0.0539  0.5719  0.4636
  258DG     O10 5921   3.123   1.778   4.795  0.0889 -0.1805 -0.3483
  258DG     C11 5922   3.445   1.480   4.571 -0.2783 -0.4633 -0.3255
  258DG     C12 5923   3.048   1.678   4.726  0.9205 -0.0004  0.5001
  258DG     H13 5924   3.417   1.389   4.625 -1.9813 -0.0125 -0.3977
  258DG     H14 5925   3.517   1.459   4.492  0.3527  0.4773 -0.0221
  258DG     H15 5926   2.960   1.723   4.679  1.2200 -0.7247 -0.8012
  258DG     H16 5927   3.031   1.589   4.787 -1.9623  0.3101  0.2731
  258DG     C17 5928   3.322   1.543   4.517 -0.1293 -0.4111  0.4264
  258DG     C18 5929   3.118   1.644   4.596 -0.0903  0.0753 -0.1721
  258DG     O19 5930   3.251   1.595   4.625 -0.1587 -0.6626 -0.5987
  258DG     H20 5931   3.265   1.488   4.442  1.4636 -2.8011  0.8451
  258DG     H21 5932   3.361   1.623   4.455 -1.7292  0.6750  0.7709
  258DG     H22 5933   3.065   1.561   4.550  0.3724  0.0850 -0.7235
  258DG     H23 5934   3.134   1.730   4.531  2.5835  0.0328  0.3017
  259DG      C1 5935   5.309   0.997   4.665 -0.5704  0.3821  0.2722
  259DG      C2 5936   5.483   0.467   4.180  0.6874  0.1693 -0.1726
  259DG      H3 5937   5.228   1.033   4.602  0.8004 -1.1880 -2.5911
  259DG      H4 5938   5.368   1.088   4.673 -1.0009  1.0191 -2.7448
  259DG      H5 5939   5.260   0.970   4.759 -0.2696  0.9975  0.6103
  259DG      H6 5940   5.408   0.505   4.110 -0.1326 -0.0640  0.5620
  259DG      H7 5941   5.571   0.445   4.121  0.6805 -1.7104  0.4606
  259DG      H8 5942   5.433   0.381   4.225 -0.0100  1.4986  1.7154
  259DG      O9 5943   5.399   0.896   4.613 -0.8654  0.0509 -0.1781
  259DG     O10 5944   5.510   0.572   4.272  0.3636  0.4589  0.2158
  259DG     C11 5945   5.504   0.859   4.706  0.5986  0.3577  0.2147
  259DG     C12 5946   5.627   0.551   4.355 -0.0678 -0.8035 -0.6471
  259DG     H13 5947   5.466   0.780   4.770  2.3546  0.1465  1.0538
  259DG     H14 5948   5.536   0.935   4.778  1.6975 -1.5571  1.8386
  259DG     H15 5949   5.708   0.525   4.287  0.0224  0.4325 -1.0321
  259DG     H16 5950   5.614   0.461   4.415 -0.5796 -0.9366 -0.9521
  259DG     C17 5951   5.624   0.802   4.628  0.2246 -0.0934 -0.0961
  259DG     C18 5952   5.680   0.667   4.438 -0.6534 -0.3420  0.5017
  259DG     O19 5953   5.584   0.698   4.536  0.1776  0.5144 -0.5803
  259DG     H20 5954   5.697   0.757   4.695  0.5363  2.0788  1.1221
  259DG     H21 5955   5.657   0.887   4.568  0.8348 -0.3988 -0.1913
  259DG     H22 5956   5.774   0.630   4.479 -0.5230  0.7622  1.2718
  259DG     H23 5957   5.702   0.752   4.373 -0.5111 -1.0700 -0.4132
  260DG      C1 5958   2.602   0.491   2.782  0.9972  0.3114 -0.3344
  260DG      C2 5959   2.275   0.086   3.244 -0.1367 -0.3723  0.5211
  260DG      H3 5960   2.683   0.522   2.847 -0.6082 -0.2870  2.1061
  260DG      H4 5961   2.512   0.540   2.820 -0.5184 -1.0878 -1.9265
  260DG      H5 5962   2.615   0.524   2.679  0.7323  1.6721  0.0605
  260DG      H6 5963   2.194   0.119   3.310  0.1500 -0.7198  1.0537
  260DG      H7 5964   2.286  -0.022   3.250  0.1723 -0.6543 -3.2102
  260DG      H8 5965   2.368   0.134   3.272  0.2375 -0.6539 -0.2254
  260DG      O9 5966   2.585   0.349   2.788  0.4624 -0.0600  0.2309
  260DG     O10 5967   2.245   0.132   3.109 -0.0993 -0.0008 -0.7755
  260DG     C11 5968   2.476   0.302   2.701 -0.1077 -0.1981 -0.2841
  260DG     C12 5969   2.311   0.052   3.006  0.5982 -0.5898 -0.3093
  260DG     H13 5970   2.492   0.195   2.685  2.2845  0.0968 -0.1144
  260DG     H14 5971   2.476   0.340   2.599 -4.4498  1.9519  0.2853
  260DG     H15 5972   2.278  -0.051   3.019 -2.9108 -0.0513 -3.3415
  260DG     H16 5973   2.420   0.052   3.017  0.7142  1.4664 -0.9558
  260DG     C17 5974   2.330   0.326   2.762  0.2824  0.5283 -0.5666
  260DG     C18 5975   2.278   0.110   2.870  0.6618 -0.0703 -0.1665
  260DG     O19 5976   2.316   0.248   2.885  0.9150 -0.1624  0.4237
  260DG     H20 5977   2.248   0.305   2.693 -0.4357  1.2298  0.0449
  260DG     H21 5978   2.310   0.431   2.783 -2.9408 -0.4100  2.0624
  260DG     H22 5979   2.336   0.057   2.794 -1.7781 -0.9951 -1.5297
  260DG     H23 5980   2.171   0.116   2.848  0.8569  1.1330 -0.8668
  261DG      C1 5981   1.762   0.255   0.881 -0.2595 -0.3761  0.6260
  261DG      C2 5982   2.188   0.002   1.410 -0.4052 -0.3482  0.5296
  261DG      H3 5983   1.677   0.223   0.941  0.5709 -3.0290  0.5319
  261DG      H4 5984   1.764   0.170   0.813 -0.3494  0.3955 -0.3651
  261DG      H5 5985   1.753   0.343   0.817 -0.5035 -0.3980  0.6290
  261DG      H6 5986   2.218  -0.100   1.388 -3.1753 -1.1544  0.1121
  261DG      H7 5987   2.265   0.043   1.475  0.9201 -2.0867  0.1218
  261DG      H8 5988   2.095  -0.002   1.469  0.7044 -0.5553  2.3495
  261DG      O9 5989   1.873   0.261   0.971  0.3029  0.3468 -0.1227
  261DG     O10 5990   2.167   0.091   1.300  0.5319 -0.2565 -0.0232
  261DG     C11 5991   1.981   0.320   0.903 -0.6780  0.4631  0.0867
  261DG     C12 5992   2.283   0.101   1.210  0.0754 -0.1270 -0.0256
  261DG     H13 5993   1.945   0.410   0.852 -0.1354 -0.6054 -2.3231
  261DG     H14 5994   1.998   0.254   0.818 -0.3712  1.1501 -0.3948
  261DG     H15 5995   2.280   0.016   1.142 -0.5748 -0.0987 -0.0382
  261DG     H16 5996   2.377   0.099   1.265  0.4209 -0.8199 -0.6247
  261DG     C17 5997   2.106   0.336   0.990  0.0703 -0.4605 -0.6187
  261DG     C18 5998   2.262   0.229   1.126 -1.2614 -0.1377  0.5859
  261DG     O19 5999   2.138   0.216   1.059  0.1707  0.3690 -0.1714
  261DG     H20 6000   2.101   0.420   1.059  1.8966 -0.5779 -0.2953
  261DG     H21 6001   2.193   0.365   0.931 -0.8559  5.0882  0.2095
  261DG     H22 6002   2.271   0.308   1.200 -0.7281  0.1624  0.2033
  261DG     H23 6003   2.337   0.228   1.047 -0.6573 -3.4943  1.0504
  262DG      C1 6004   5.332   0.877   4.265 -0.2809 -0.2992  0.2152
  262DG      C2 6005   5.121   0.455   4.808 -0.8055 -0.1921  0.4587
  262DG      H3 6006   5.284   0.933   4.345 -0.0321  0.0267  0.1422
  262DG      H4 6007   5.315   0.911   4.163 -0.2699  0.5559  0.4939
  262DG      H5 6008   5.441   0.879   4.278 -0.4170 -2.1156  2.2469
  262DG      H6 6009   5.113   0.348   4.787 -1.1073  0.3724 -2.9324
  262DG      H7 6010   5.216   0.464   4.860 -0.3754  0.0365 -0.3402
  262DG      H8 6011   5.059   0.485   4.892 -1.0737 -0.0536  0.2160
  262DG      O9 6012   5.303   0.737   4.262  0.5778 -0.2265 -0.0435
  262DG     O10 6013   5.111   0.525   4.683  0.0941  0.0671 -0.1706
  262DG     C11 6014   5.173   0.718   4.217 -0.0679  0.2351  0.4036
  262DG     C12 6015   5.101   0.667   4.700 -0.2459  0.1426  0.2680
  262DG     H13 6016   5.154   0.619   4.176 -0.3910  0.8785 -1.0434
  262DG     H14 6017   5.142   0.773   4.129 -0.0969  1.1861  0.9963
  262DG     H15 6018   5.202   0.701   4.723  0.5845 -0.5168 -2.1102
  262DG     H16 6019   5.047   0.690   4.792  0.4898 -1.2799  1.0981
  262DG     C17 6020   5.074   0.741   4.335  0.2219  0.0074  0.9127
  262DG     C18 6021   5.059   0.741   4.574  0.4735  0.2163  0.0016
  262DG     O19 6022   5.127   0.686   4.458 -0.2195 -0.2847 -0.1245
  262DG     H20 6023   4.973   0.703   4.314 -0.2032  1.6393 -0.1634
  262DG     H21 6024   5.050   0.846   4.349 -0.9323 -0.1576  0.2838
  262DG     H22 6025   4.950   0.733   4.569  0.5545 -0.3632 -1.1696
  262DG     H23 6026   5.089   0.845   4.585 -1.0332  0.9208 -1.8837
  263DG      C1 6027   3.347   4.931   2.736  0.5366  0.6429 -0.0257
  263DG      C2 6028   3.400   5.243   3.313 -0.1028  0.4933  0.2888
  263DG      H3 6029   3.386   4.838   2.694 -1.9314 -0.3002 -0.3826
  263DG      H4 6030   3.441   4.977   2.769  0.1236  1.1910  0.3944
  263DG      H5 6031   3.296   4.997   2.666 -1.1191 -0.7834 -0.2464
  263DG      H6 6032   3.387   5.349   3.291  2.2380  0.5696 -1.0476
  263DG      H7 6033   3.408   5.231   3.421  0.6801 -0.5462  0.1330
  263DG      H8 6034   3.496   5.212   3.273  0.6913  2.1759  0.7916
  263DG      O9 6035   3.263   4.906   2.840 -0.1029  0.7031 -0.0835
  263DG     O10 6036   3.294   5.161   3.261  0.0842 -0.0088  0.4532
  263DG     C11 6037   3.238   5.029   2.922 -0.8445  0.9405  0.3950
  263DG     C12 6038   3.325   5.028   3.301 -0.2411 -0.1118 -0.8066
  263DG     H13 6039   3.181   5.098   2.860 -2.1413 -0.9632 -0.6364
  263DG     H14 6040   3.327   5.085   2.953  1.0605 -0.4988 -2.1496
  263DG     H15 6041   3.342   5.024   3.409 -1.6454  0.5000 -0.5404
  263DG     H16 6042   3.422   5.006   3.256 -0.7909  2.0973 -3.3251
  263DG     C17 6043   3.159   4.992   3.043  0.4470 -0.3680  0.0390
  263DG     C18 6044   3.218   4.927   3.259 -0.2343 -0.1665 -0.7608
  263DG     O19 6045   3.239   4.910   3.119  0.2556  0.1079  0.6119
  263DG     H20 6046   3.070   4.937   3.013  0.4397  1.7057 -4.4229
  263DG     H21 6047   3.121   5.076   3.102  2.5659 -0.2320  1.3319
  263DG     H22 6048   3.240   4.835   3.314  0.9378  0.5653  0.0299
  263DG     H23 6049   3.120   4.954   3.300  0.5847 -0.9250  1.8993
  264DG      C1 6050   0.652   3.834   2.960 -0.1199  0.4184  0.3801
  264DG      C2 6051   1.102   3.380   3.092  0.5307 -0.1942  0.1859
  264DG      H3 6052   0.588   3.861   2.876  1.6670  2.9745 -0.2634
  264DG      H4 6053   0.748   3.879   2.933 -0.6511  0.9777 -0.6207
  264DG      H5 6054   0.612   3.879   3.051 -0.9184 -0.7968  0.6533
  264DG      H6 6055   1.167   3.419   3.013 -0.5361  1.4695  0.0904
  264DG      H7 6056   1.118   3.429   3.188 -2.2668 -2.0253  1.7253
  264DG      H8 6057   1.128   3.275   3.102  2.2678  0.0875 -0.8326
  264DG      O9 6058   0.656   3.694   2.973  0.3385  0.1910 -0.5733
  264DG     O10 6059   0.963   3.401   3.062 -0.0307 -0.1800 -0.1204
  264DG     C11 6060   0.537   3.619   2.991 -0.6455  0.0558 -0.4875
  264DG     C12 6061   0.876   3.307   3.128 -0.0194  0.2405  0.5343
  264DG     H13 6062   0.475   3.633   2.903  0.0746  0.6869 -0.8979
  264DG     H14 6063   0.479   3.639   3.082  0.0788  0.6304 -0.1434
  264DG     H15 6064   0.857   3.336   3.231 -2.6043 -1.1281  0.5308
  264DG     H16 6065   0.910   3.204   3.122 -0.4597  0.1478 -1.0228
  264DG     C17 6066   0.576   3.472   2.991 -0.2007 -0.4680 -0.0186
  264DG     C18 6067   0.749   3.315   3.045  0.8803  0.1886  0.1384
  264DG     O19 6068   0.696   3.446   3.070 -0.6631  0.1261  0.0680
  264DG     H20 6069   0.596   3.446   2.887  0.4719 -0.6493  0.1517
  264DG     H21 6070   0.495   3.406   3.023 -0.8297  0.4590  0.3549
  264DG     H22 6071   0.768   3.303   2.939 -1.2597 -1.3872 -0.1427
  264DG     H23 6072   0.673   3.242   3.071 -0.0782  1.7175  1.9011
  265DG      C1 6073   2.185   0.862   3.449 -0.7422  0.3047 -0.7444
  265DG      C2 6074   1.597   0.679   3.469 -0.4542  0.0973 -0.2622
  265DG      H3 6075   2.284   0.836   3.411 -0.8014 -2.3585  0.7232
  265DG      H4 6076   2.198   0.881   3.555 -1.7713 -0.6042 -0.4448
  265DG      H5 6077   2.153   0.955   3.402 -0.9178  1.5672  1.7084
  265DG      H6 6078   1.508   0.623   3.441 -1.2511  0.3405  1.6460
  265DG      H7 6079   1.564   0.779   3.495  0.5863  0.1227  1.0234
  265DG      H8 6080   1.670   0.683   3.388 -0.1919 -1.7212 -0.1654
  265DG      O9 6081   2.080   0.774   3.427 -0.2728 -0.2776 -0.3489
  265DG     O10 6082   1.637   0.641   3.601 -0.1291  0.1193 -0.4441
  265DG     C11 6083   2.106   0.645   3.481  0.5374  0.4310  0.3035
  265DG     C12 6084   1.661   0.501   3.607  0.3362 -0.5044  0.0375
  265DG     H13 6085   2.117   0.641   3.589  2.7337  0.5395  0.1244
  265DG     H14 6086   2.194   0.607   3.429 -1.4687 -3.5293 -0.5748
  265DG     H15 6087   1.578   0.442   3.568 -0.2825 -0.1960  0.8625
  265DG     H16 6088   1.674   0.465   3.709 -0.9159  0.8244  0.7011
  265DG     C17 6089   1.992   0.550   3.437 -0.3297 -0.6350  0.4431
  265DG     C18 6090   1.778   0.470   3.510  0.3528  0.0308 -0.4455
  265DG     O19 6091   1.873   0.573   3.508 -0.0956 -0.4566 -0.1455
  265DG     H20 6092   2.020   0.447   3.460 -0.4625 -0.6845  0.3797
  265DG     H21 6093   1.969   0.557   3.331  2.1815 -1.1554 -0.2146
  265DG     H22 6094   1.823   0.374   3.538  1.2894 -0.1466 -2.3458
  265DG     H23 6095   1.740   0.460   3.408  2.4873  0.8142 -1.3774
  266DG      C1 6096   0.252   1.327   3.330  0.2424 -0.2706  0.3623
  266DG      C2 6097   0.661   1.122   3.298 -0.1852  0.0720 -0.3148
  266DG      H3 6098   0.336   1.379   3.284  0.4821 -0.8746  0.1115
  266DG      H4 6099   0.199   1.391   3.401 -0.3771 -0.4868  0.0974
  266DG      H5 6100   0.189   1.293   3.249 -1.6496  0.4781  1.4567
  266DG      H6 6101   0.724   1.210   3.284 -0.4641  0.5040  1.0097
  266DG      H7 6102   0.713   1.051   3.233 -1.0265 -1.5328  0.6926
  266DG      H8 6103   0.560   1.140   3.262 -1.2847 -2.2536  1.3629
  266DG      O9 6104   0.316   1.221   3.400  0.5234 -0.3844 -0.5653
  266DG     O10 6105   0.666   1.088   3.438  0.4513 -0.0089 -0.6468
  266DG     C11 6106   0.221   1.120   3.430 -0.4282 -0.3106  1.0773
  266DG     C12 6107   0.619   0.967   3.481  0.6355  0.6113 -0.7059
  266DG     H13 6108   0.225   1.047   3.350 -0.3376 -0.8540  1.5682
  266DG     H14 6109   0.116   1.148   3.440 -0.7169 -0.7709 -0.3667
  266DG     H15 6110   0.644   0.956   3.586 -0.5038 -1.1697 -0.5861
  266DG     H16 6111   0.681   0.891   3.435 -0.0117 -1.8893  2.2395
  266DG     C17 6112   0.268   1.052   3.559  0.2269  0.2323 -0.0535
  266DG     C18 6113   0.464   0.957   3.476  0.8324  0.3392 -0.2311
  266DG     O19 6114   0.409   1.052   3.565 -0.1855  0.5641 -0.4906
  266DG     H20 6115   0.224   0.953   3.561  0.5281  0.0660 -1.0744
  266DG     H21 6116   0.237   1.116   3.641  1.1596 -1.5425  1.7516
  266DG     H22 6117   0.424   0.961   3.375  0.5637 -0.2014 -0.1471
  266DG     H23 6118   0.424   0.868   3.525  1.1372  1.0243  1.3166
  267DG      C1 6119   2.625   0.324   5.164 -0.1869  0.2555  0.2587
  267DG      C2 6120   2.661   1.221   5.175 -0.9389  0.6405 -0.1967
  267DG      H3 6121   2.624   0.254   5.248 -1.4379 -1.9785 -1.5133
  267DG      H4 6122   2.663   0.273   5.075  0.8272  0.3738  0.6117
  267DG      H5 6123   2.520   0.345   5.148 -0.1437 -0.3480 -0.9815
  267DG      H6 6124   2.568   1.226   5.119 -0.7927 -1.3989 -0.6975
  267DG      H7 6125   2.659   1.271   5.272  3.0470 -1.3947  1.1663
  267DG      H8 6126   2.735   1.277   5.117 -1.1329  0.9761 -0.1256
  267DG      O9 6127   2.697   0.440   5.195 -0.4764 -0.1524 -0.5812
  267DG     O10 6128   2.692   1.089   5.203 -0.0690 -0.1155 -0.6442
  267DG     C11 6129   2.701   0.546   5.100  0.4286  0.4397 -0.7591
  267DG     C12 6130   2.680   0.996   5.096 -0.6829  0.0169 -0.4137
  267DG     H13 6131   2.705   0.506   4.999 -0.5190  0.7178 -0.9178
  267DG     H14 6132   2.790   0.607   5.112  0.9588 -0.3716 -0.5184
  267DG     H15 6133   2.759   1.003   5.022 -1.5451 -0.6694 -1.4371
  267DG     H16 6134   2.577   1.009   5.063 -1.7953 -0.6967  2.5000
  267DG     C17 6135   2.576   0.640   5.119 -0.2821 -0.6817 -0.5874
  267DG     C18 6136   2.680   0.853   5.154 -0.3486 -0.3306 -0.2687
  267DG     O19 6137   2.614   0.766   5.062  0.0161  0.0285  0.1971
  267DG     H20 6138   2.535   0.634   5.220 -3.2158  1.3891 -1.5351
  267DG     H21 6139   2.498   0.599   5.055  0.1814 -0.9482 -0.9925
  267DG     H22 6140   2.788   0.836   5.162 -0.1795  0.0725 -1.4207
  267DG     H23 6141   2.627   0.852   5.249  0.4159 -1.2941  0.1657
  268DG      C1 6142   3.883   1.184   2.501  0.5007  0.2201 -0.5566
  268DG      C2 6143   3.375   0.788   2.542  0.4275  0.1777  0.1475
  268DG      H3 6144   3.950   1.268   2.481  1.5288 -0.4036  0.1407
  268DG      H4 6145   3.926   1.127   2.584 -1.0794 -0.3702 -0.1146
  268DG      H5 6146   3.783   1.222   2.523 -0.6076 -2.5246 -0.4773
  268DG      H6 6147   3.305   0.718   2.496 -1.1801  2.0132 -0.3749
  268DG      H7 6148   3.421   0.766   2.638  2.3731  1.4256 -0.4431
  268DG      H8 6149   3.323   0.884   2.544  1.7712  0.9262  2.7766
  268DG      O9 6150   3.870   1.091   2.397 -0.4777 -0.1650 -0.1273
  268DG     O10 6151   3.479   0.812   2.452  0.0051  0.4856 -0.3799
  268DG     C11 6152   3.819   1.135   2.274  0.5949  0.1859 -0.0909
  268DG     C12 6153   3.443   0.846   2.315  0.6258  0.2655 -0.6953
  268DG     H13 6154   3.902   1.162   2.209 -0.1308  0.8912 -0.7359
  268DG     H14 6155   3.746   1.216   2.280 -2.6303 -2.4625 -0.6726
  268DG     H15 6156   3.383   0.937   2.324  0.0521 -0.1140 -0.6198
  268DG     H16 6157   3.374   0.777   2.267  1.6597 -0.6005 -0.9597
  268DG     C17 6158   3.746   1.016   2.202  0.0335  0.5494 -0.2026
  268DG     C18 6159   3.557   0.872   2.216  1.3956  0.6359  0.6787
  268DG     O19 6160   3.631   0.975   2.279  0.0002  0.5000  0.7087
  268DG     H20 6161   3.804   0.924   2.199 -0.1293  0.4519 -3.2757
  268DG     H21 6162   3.715   1.038   2.100 -0.1216 -1.4086 -0.6216
  268DG     H22 6163   3.608   0.777   2.200 -0.2970 -0.1287 -0.6005
  268DG     H23 6164   3.522   0.910   2.119 -0.3660  1.4651  1.5926
  269DG      C1 6165   4.583   4.514   1.507  0.2528 -0.3772 -0.1783
  269DG      C2 6166   5.105   4.314   0.733 -0.1487  0.2066  0.1150
  269DG      H3 6167   4.484   4.484   1.474 -1.3774  3.6084  0.4456
  269DG      H4 6168   4.569   4.602   1.570  0.1308  0.3226 -1.1569
  269DG      H5 6169   4.628   4.425   1.550  1.3774  0.5159  0.5726
  269DG      H6 6170   5.021   4.274   0.676  1.6097 -0.3130 -2.2836
  269DG      H7 6171   5.179   4.357   0.666  0.2703 -1.8691 -0.8269
  269DG      H8 6172   5.156   4.229   0.778 -0.6554 -1.6577 -2.5940
  269DG      O9 6173   4.666   4.565   1.402  0.0301 -0.2951 -0.2509
  269DG     O10 6174   5.066   4.411   0.832  0.0431  0.0872  0.0694
  269DG     C11 6175   4.670   4.477   1.294 -0.2273 -0.5443 -0.2938
  269DG     C12 6176   4.949   4.377   0.908 -0.3057 -0.4602 -0.1567
  269DG     H13 6177   4.572   4.472   1.247 -0.6396 -2.7250  0.7107
  269DG     H14 6178   4.701   4.378   1.326  0.4614  0.4822  2.5293
  269DG     H15 6179   4.969   4.275   0.940 -0.7087  0.0235  1.7621
  269DG     H16 6180   4.870   4.374   0.833 -0.5714  0.3336  0.0850
  269DG     C17 6181   4.780   4.537   1.195  0.4588  0.1282 -0.6694
  269DG     C18 6182   4.919   4.485   1.012  0.3865  0.3065  0.3135
  269DG     O19 6183   4.794   4.461   1.079  0.5984 -0.5253  0.2948
  269DG     H20 6184   4.877   4.542   1.244 -0.0965  1.1029  0.3616
  269DG     H21 6185   4.774   4.641   1.162  1.0324 -0.1911 -1.8236
  269DG     H22 6186   5.007   4.493   1.076  1.4968 -1.6893 -0.8812
  269DG     H23 6187   4.919   4.582   0.964 -0.3395  0.0075 -0.3108
  270DG      C1 6188   1.535   2.418   0.753 -0.0984 -0.0697 -0.3252
  270DG      C2 6189   1.883   1.792   0.983 -0.3901  0.1988  0.0669
  270DG      H3 6190   1.527   2.361   0.660 -2.1979  0.3258 -0.4291
  270DG      H4 6191   1.517   2.525   0.747 -2.2160 -0.3314  0.5409
  270DG      H5 6192   1.470   2.371   0.827  0.8502 -0.7934  0.0765
  270DG      H6 6193   1.977   1.760   1.029 -0.3535 -1.6630 -1.2051
  270DG      H7 6194   1.798   1.751   1.038 -1.3174  1.5692 -0.3057
  270DG      H8 6195   1.865   1.746   0.886 -1.9356  0.3064  0.2844
  270DG      O9 6196   1.665   2.405   0.806 -0.1834  0.4401 -0.6135
  270DG     O10 6197   1.868   1.932   0.989  0.3982 -0.1398 -0.5472
  270DG     C11 6198   1.682   2.427   0.948 -0.2749  0.0197 -0.6738
  270DG     C12 6199   1.758   1.983   0.913 -0.5712 -0.2610 -0.3231
  270DG     H13 6200   1.590   2.397   0.998  0.5850 -1.6765 -0.0134
  270DG     H14 6201   1.697   2.533   0.968  1.7573 -0.4033  0.3446
  270DG     H15 6202   1.666   1.947   0.958 -0.1172 -0.5187  0.4123
  270DG     H16 6203   1.763   1.929   0.818 -1.4429  0.0589 -0.5596
  270DG     C17 6204   1.782   2.340   1.027  0.0330  0.9626  0.9599
  270DG     C18 6205   1.764   2.131   0.897  0.6626  0.5308 -0.7984
  270DG     O19 6206   1.761   2.193   1.025 -0.1027 -0.1812 -0.1198
  270DG     H20 6207   1.770   2.373   1.130 -1.3627  1.9271  0.5135
  270DG     H21 6208   1.881   2.365   0.990  0.0591 -0.1977  0.1952
  270DG     H22 6209   1.837   2.184   0.836 -0.6064  0.6713 -2.2820
  270DG     H23 6210   1.669   2.156   0.849  1.2372 -2.5357 -3.9832
  271DG      C1 6211   0.473   1.810   5.045 -0.0253  0.3505 -0.4511
  271DG      C2 6212  -0.100   1.797   4.639 -0.2025  0.2258 -0.0468
  271DG      H3 6213   0.558   1.741   5.046  1.8490  2.5334 -1.0701
  271DG      H4 6214   0.400   1.772   5.117 -0.1542  1.4826  0.0364
  271DG      H5 6215   0.502   1.909   5.080 -0.8845  0.0146  1.3256
  271DG      H6 6216  -0.126   1.706   4.692 -0.4001  1.4143  2.0168
  271DG      H7 6217  -0.152   1.875   4.696 -0.6741 -0.3630  0.3415
  271DG      H8 6218  -0.148   1.804   4.541 -0.1448  0.2643 -0.0725
  271DG      O9 6219   0.414   1.811   4.916 -0.0527 -0.6154 -0.3194
  271DG     O10 6220   0.037   1.823   4.648 -0.0714 -0.2007  0.1229
  271DG     C11 6221   0.479   1.885   4.811 -0.2522 -0.4041 -0.6521
  271DG     C12 6222   0.081   1.932   4.578  0.1620 -0.5806 -0.7431
  271DG     H13 6223   0.587   1.873   4.819 -0.3829 -2.8592 -1.6474
  271DG     H14 6224   0.463   1.992   4.823  1.1376 -0.1713 -0.7789
  271DG     H15 6225   0.056   2.020   4.637  0.6706 -2.5669  2.7348
  271DG     H16 6226   0.031   1.951   4.483 -1.3909  2.4610  0.5282
  271DG     C17 6227   0.418   1.855   4.675 -0.1891  0.1963  0.4256
  271DG     C18 6228   0.231   1.931   4.550 -0.0475 -0.1085  0.3093
  271DG     O19 6229   0.294   1.918   4.677  0.4675 -0.7302  0.1274
  271DG     H20 6230   0.415   1.749   4.649  1.9655 -0.2033  1.5179
  271DG     H21 6231   0.479   1.899   4.597 -1.3731 -2.0290 -1.9046
  271DG     H22 6232   0.267   1.852   4.484  0.4864  0.4108 -0.0321
  271DG     H23 6233   0.259   2.026   4.504  0.0009 -0.2183  0.1127
  272DG      C1 6234   4.978   2.092   2.915  0.1187 -0.0740  0.3682
  272DG      C2 6235   5.018   1.568   2.450 -0.0819 -0.1111  0.3379
  272DG      H3 6236   4.980   2.063   3.020  1.2241 -1.5075 -0.0099
  272DG      H4 6237   4.932   2.188   2.894  0.8580  0.1451 -0.3054
  272DG      H5 6238   5.079   2.117   2.882 -0.1569  0.0768 -0.3881
  272DG      H6 6239   5.097   1.514   2.503  2.2461 -0.6121 -3.2580
  272DG      H7 6240   4.977   1.494   2.380  2.5654 -0.9941 -0.4311
  272DG      H8 6241   5.072   1.643   2.392  0.9774 -0.1178  1.2766
  272DG      O9 6242   4.926   1.978   2.847  0.0554  0.1091  0.6712
  272DG     O10 6243   4.920   1.623   2.541 -0.0619  0.0635 -0.4564
  272DG     C11 6244   4.783   1.967   2.860 -0.0946 -0.2776  0.0898
  272DG     C12 6245   4.789   1.663   2.500 -0.5832 -0.4055 -0.2267
  272DG     H13 6246   4.730   2.054   2.820  0.1794  0.9496  2.2573
  272DG     H14 6247   4.759   1.969   2.966 -1.0714  1.2732 -0.1269
  272DG     H15 6248   4.747   1.581   2.443  1.1186 -1.4878  0.0214
  272DG     H16 6249   4.793   1.737   2.420  0.0598 -1.5966 -1.3110
  272DG     C17 6250   4.717   1.836   2.810  0.0508  0.0555  0.2061
  272DG     C18 6251   4.700   1.702   2.615  0.1021  0.3925 -0.1053
  272DG     O19 6252   4.771   1.810   2.685  0.1574 -0.1318 -0.3395
  272DG     H20 6253   4.608   1.844   2.801  0.1676 -0.1337 -1.6825
  272DG     H21 6254   4.745   1.747   2.866  0.4876 -0.0055 -0.1071
  272DG     H22 6255   4.602   1.732   2.579  0.1961 -0.6424 -1.2818
  272DG     H23 6256   4.695   1.614   2.679  0.9651  1.0669  0.9185
  273DG      C1 6257   1.298   5.263   5.256  0.4458  0.1795 -0.2089
  273DG      C2 6258   2.004   5.276   5.096 -0.0603 -0.3639 -0.7052
  273DG      H3 6259   1.248   5.264   5.159 -1.1499 -1.8293  0.5147
  273DG      H4 6260   1.320   5.363   5.293 -1.8990  1.0955 -1.1233
  273DG      H5 6261   1.245   5.197   5.325  3.3234 -0.7250  1.3027
  273DG      H6 6262   2.049   5.212   5.020  2.1502  0.1965  0.0743
  273DG      H7 6263   1.975   5.363   5.036 -0.1210 -0.3358 -0.6352
  273DG      H8 6264   2.078   5.320   5.163  0.2890  1.7185 -2.3358
  273DG      O9 6265   1.425   5.213   5.223  0.7261  0.3336 -0.0935
  273DG     O10 6266   1.888   5.227   5.157  0.5940  0.1745 -0.2745
  273DG     C11 6267   1.422   5.078   5.253 -0.2430  0.5916 -0.2291
  273DG     C12 6268   1.914   5.104   5.222 -0.0140 -0.2293 -0.0842
  273DG     H13 6269   1.342   5.018   5.208 -3.0346  2.8822  1.3381
  273DG     H14 6270   1.413   5.064   5.361 -0.8812 -0.0873 -0.3592
  273DG     H15 6271   1.936   5.125   5.326 -0.5143  0.7276 -0.1522
  273DG     H16 6272   2.000   5.049   5.186 -0.3264 -0.1091 -1.0606
  273DG     C17 6273   1.546   5.013   5.204 -0.2643  0.4195  0.0821
  273DG     C18 6274   1.784   5.016   5.214 -0.5762 -0.2315 -0.6518
  273DG     O19 6275   1.663   5.077   5.248 -0.2277 -0.5094  0.1280
  273DG     H20 6276   1.552   5.014   5.095  1.5927  1.3466  0.1543
  273DG     H21 6277   1.546   4.911   5.242 -0.0500  0.1932 -0.4999
  273DG     H22 6278   1.783   4.984   5.109  1.7482  0.6982 -1.0056
  273DG     H23 6279   1.791   4.925   5.274  1.6314  0.2723 -0.0847
  274DG      C1 6280   4.313   0.363   3.839 -0.0258 -0.2808 -0.1737
  274DG      C2 6281   3.673  -0.002   3.595  0.3634  0.1184  0.5159
  274DG      H3 6282   4.415   0.383   3.807  0.5727 -1.5715  0.8459
  274DG      H4 6283   4.327   0.289   3.918  1.0696 -0.4595 -0.5213
  274DG      H5 6284   4.262   0.446   3.888 -0.2601 -1.4840  1.7033
  274DG      H6 6285   3.640   0.100   3.616 -1.0476 -0.4650  1.2831
  274DG      H7 6286   3.660  -0.024   3.489  0.1601 -2.0272  0.9258
  274DG      H8 6287   3.610  -0.076   3.646 -0.5965  1.1471  0.8502
  274DG      O9 6288   4.220   0.325   3.735  0.2266 -0.0276 -0.4127
  274DG     O10 6289   3.811  -0.011   3.636  0.3091 -0.0927  0.0716
  274DG     C11 6290   4.247   0.188   3.683  0.6355  0.1943 -0.1468
  274DG     C12 6291   3.825   0.007   3.778 -0.1220  0.8431  0.2842
  274DG     H13 6292   4.354   0.170   3.674  0.6614  0.6550 -0.8174
  274DG     H14 6293   4.221   0.170   3.579 -2.0311 -0.4585  0.5507
  274DG     H15 6294   3.783  -0.075   3.837 -1.3770  2.8039  2.3081
  274DG     H16 6295   3.765   0.092   3.811 -1.6266  0.0781 -0.3938
  274DG     C17 6296   4.187   0.085   3.781  0.7535  0.2082  0.4504
  274DG     C18 6297   3.969   0.004   3.827 -0.2287 -0.2037 -0.2819
  274DG     O19 6298   4.048   0.089   3.752 -0.6650 -0.3635 -1.0151
  274DG     H20 6299   4.200   0.114   3.885  0.4620  1.8947  0.0475
  274DG     H21 6300   4.212  -0.020   3.762  0.1262  0.5030 -2.4744
  274DG     H22 6301   3.982   0.026   3.933 -3.3922  1.0106 -0.0468
  274DG     H23 6302   4.002  -0.098   3.809 -0.5147 -0.4757  0.6733
  275DG      C1 6303   4.254   1.606   5.192  0.6508  0.4816  0.2551
  275DG      C2 6304   4.604   0.999   5.057  1.1614  0.1954  0.6267
  275DG      H3 6305   4.208   1.512   5.225  0.1201  0.9924  0.9955
  275DG      H4 6306   4.166   1.670   5.191  1.9850  2.4811  1.9180
  275DG      H5 6307   4.305   1.639   5.282  2.6259  0.2128 -0.7155
  275DG      H6 6308   4.567   0.898   5.039  0.5711  0.4178  0.5538
  275DG      H7 6309   4.713   1.006   5.052  1.0734  1.5919  0.0799
  275DG      H8 6310   4.573   1.001   5.161 -3.9206  0.3451 -0.6292
  275DG      O9 6311   4.330   1.607   5.066  0.1688 -0.2516  0.1926
  275DG     O10 6312   4.541   1.106   4.994  0.2307 -0.3085  0.2306
  275DG     C11 6313   4.269   1.533   4.955 -0.0028 -0.2617  0.0525
  275DG     C12 6314   4.601   1.235   5.022 -0.1143 -0.1040 -0.1302
  275DG     H13 6315   4.314   1.568   4.862  1.9818 -0.8891  0.7457
  275DG     H14 6316   4.174   1.587   4.963  0.4640  0.3466  2.0260
  275DG     H15 6317   4.693   1.256   4.967 -1.1357 -1.5567 -2.5460
  275DG     H16 6318   4.626   1.244   5.127  1.8160 -2.0136 -0.3394
  275DG     C17 6319   4.265   1.379   4.963 -0.2107 -0.4280 -0.8094
  275DG     C18 6320   4.500   1.339   4.981 -0.5937  0.4767  0.3065
  275DG     O19 6321   4.370   1.317   5.030 -0.2183  0.0105 -0.7152
  275DG     H20 6322   4.270   1.347   4.859  0.2892  0.4068 -1.0497
  275DG     H21 6323   4.173   1.349   5.013  0.4495  1.4012  1.7525
  275DG     H22 6324   4.537   1.432   5.024 -0.1359 -0.0203  1.0014
  275DG     H23 6325   4.499   1.343   4.872  2.1477  2.1094  0.2265
  276DG      C1 6326   2.604   4.671   4.150 -0.2053  0.1791  0.4829
  276DG      C2 6327   3.276   4.674   4.162 -0.1378 -0.2319 -0.1333
  276DG      H3 6328   2.655   4.599   4.215  1.6712  1.1501  0.1696
  276DG      H4 6329   2.578   4.618   4.058 -1.3191 -0.1160  0.9634
  276DG      H5 6330   2.505   4.706   4.177 -0.1238  1.9895 -1.3413
  276DG      H6 6331   3.264   4.608   4.247 -3.8368  0.3351 -0.0732
  276DG      H7 6332   3.305   4.613   4.077 -1.2751  0.1458 -0.8073
  276DG      H8 6333   3.351   4.740   4.207 -0.3511 -1.1665  1.6668
  276DG      O9 6334   2.708   4.762   4.110 -0.3654  0.2147 -0.3225
  276DG     O10 6335   3.154   4.739   4.135 -0.0996  0.6491  0.4819
  276DG     C11 6336   2.700   4.848   3.998  0.6413 -0.3605  0.1290
  276DG     C12 6337   3.175   4.835   4.032  0.0564  0.4963 -0.2207
  276DG     H13 6338   2.617   4.918   4.004  0.4921 -0.5806  0.6462
  276DG     H14 6339   2.699   4.785   3.909 -1.0136  1.0451 -0.9093
  276DG     H15 6340   3.195   4.784   3.938 -2.0604 -1.5148  0.3325
  276DG     H16 6341   3.260   4.901   4.045  0.2499  0.3041 -0.5099
  276DG     C17 6342   2.830   4.925   4.004 -0.1237 -0.5844  0.4574
  276DG     C18 6343   3.057   4.924   4.014 -0.1098 -0.0971  0.5149
  276DG     O19 6344   2.944   4.843   4.012 -0.1095 -0.0991 -0.8205
  276DG     H20 6345   2.826   4.989   4.092 -1.2501  0.8367 -0.5729
  276DG     H21 6346   2.832   4.990   3.916 -0.9853 -0.9457  0.1616
  276DG     H22 6347   3.053   4.998   4.095  1.7407  1.5358 -0.7964
  276DG     H23 6348   3.061   4.991   3.928  0.5140  1.8492  1.9765
  277DG      C1 6349   4.511   3.887   2.317  0.1757  0.5759  0.0045
  277DG      C2 6350   3.625   3.827   2.253 -0.0783  0.0362 -0.8739
  277DG      H3 6351   4.576   3.858   2.399 -0.5851 -0.3374  0.3016
  277DG      H4 6352   4.524   3.994   2.299  0.5480  0.4734 -0.3765
  277DG      H5 6353   4.553   3.842   2.227 -1.7560  0.4520 -0.8838
  277DG      H6 6354   3.572   3.743   2.298  0.0346  0.2192 -0.3994
  277DG      H7 6355   3.666   3.886   2.334  0.0992 -0.9610 -0.2173
  277DG      H8 6356   3.547   3.890   2.211  0.6630  2.0726  0.6887
  277DG      O9 6357   4.379   3.849   2.336  0.1162 -0.3292 -0.2672
  277DG     O10 6358   3.717   3.792   2.153 -0.0711  0.1366  0.2777
  277DG     C11 6359   4.287   3.893   2.236 -1.0648  0.3016 -0.0103
  277DG     C12 6360   3.830   3.877   2.123  0.0291 -0.0154 -0.1948
  277DG     H13 6361   4.294   3.834   2.145  0.1299  0.0415  0.2380
  277DG     H14 6362   4.303   3.997   2.208 -0.3688  0.3505  0.5474
  277DG     H15 6363   3.798   3.975   2.087  1.1805  0.2514 -0.5360
  277DG     H16 6364   3.890   3.826   2.048 -0.0931  0.4385 -0.6089
  277DG     C17 6365   4.151   3.886   2.306  0.2653  0.1369  0.1105
  277DG     C18 6366   3.916   3.904   2.247 -0.1783 -0.0526 -1.9314
  277DG     O19 6367   4.054   3.924   2.214 -0.3565 -0.3232  0.6420
  277DG     H20 6368   4.135   3.933   2.403 -2.8715 -1.9465  0.7253
  277DG     H21 6369   4.132   3.781   2.324 -2.1071 -0.4328 -4.3758
  277DG     H22 6370   3.874   3.988   2.302  1.0617 -2.2851  2.9326
  277DG     H23 6371   3.906   3.811   2.302  2.8483  0.4998 -0.1983
  278DG      C1 6372   2.648   5.371   3.449 -0.4095 -0.2733 -0.2221
  278DG      C2 6373   2.933   5.998   3.332 -0.7397  0.4097 -0.1190
  278DG      H3 6374   2.693   5.281   3.407  1.2724  0.8010 -0.7911
  278DG      H4 6375   2.542   5.352   3.431 -0.4916  0.4870 -0.5431
  278DG      H5 6376   2.672   5.375   3.555  0.3670  0.2726 -0.4165
  278DG      H6 6377   3.013   6.040   3.271  1.9445 -0.2003  2.7475
  278DG      H7 6378   2.833   6.038   3.315 -1.3583 -1.0501 -0.0505
  278DG      H8 6379   2.955   6.011   3.438 -1.5825 -0.8700  0.2379
  278DG      O9 6380   2.681   5.495   3.383  0.4976  0.1602  0.3081
  278DG     O10 6381   2.930   5.851   3.313 -0.4324 -0.1996  0.2211
  278DG     C11 6382   2.635   5.499   3.251 -1.0077 -0.3664  0.0419
  278DG     C12 6383   2.971   5.815   3.181  0.1468  0.1816 -0.0964
  278DG     H13 6384   2.530   5.477   3.231 -0.7979  0.6353 -2.6428
  278DG     H14 6385   2.685   5.419   3.198 -0.0455  0.0213  0.3400
  278DG     H15 6386   3.031   5.725   3.191 -0.6919 -0.4470 -0.5908
  278DG     H16 6387   3.027   5.890   3.125  1.5829  0.5206  1.7382
  278DG     C17 6388   2.657   5.637   3.179  0.3236 -0.1614 -0.0424
  278DG     C18 6389   2.845   5.783   3.106 -0.2277  1.0446 -0.3534
  278DG     O19 6390   2.795   5.676   3.188  0.6078  0.6290  0.1616
  278DG     H20 6391   2.603   5.721   3.222 -1.6115  0.3356 -3.1044
  278DG     H21 6392   2.605   5.637   3.083  1.3401  0.0185 -0.6067
  278DG     H22 6393   2.781   5.870   3.098  0.5528  1.6019 -0.6481
  278DG     H23 6394   2.868   5.750   3.005 -1.3144 -2.4658  0.3816
  279DG      C1 6395   3.945   3.053   3.953  0.7700  0.1668  0.0065
  279DG      C2 6396   3.546   2.494   4.128 -0.5463 -0.0095  0.3467
  279DG      H3 6397   3.863   3.124   3.954  0.3227 -0.3298 -0.6160
  279DG      H4 6398   4.030   3.088   3.893  0.8477 -0.0779 -0.0264
  279DG      H5 6399   3.968   3.033   4.057 -1.3771 -1.6685  0.1993
  279DG      H6 6400   3.447   2.469   4.090 -0.4401  1.3625 -0.9140
  279DG      H7 6401   3.588   2.398   4.160  2.1478  1.2141  0.7911
  279DG      H8 6402   3.513   2.558   4.209  1.0739 -1.1327  1.9642
  279DG      O9 6403   3.893   2.937   3.904 -0.5048  0.3228 -0.0052
  279DG     O10 6404   3.616   2.573   4.032 -0.4861 -0.1558  0.1212
  279DG     C11 6405   3.851   2.928   3.766 -0.1698 -0.6591 -0.2212
  279DG     C12 6406   3.619   2.513   3.909  0.9172  0.5271  0.2531
  279DG     H13 6407   3.929   2.962   3.698 -0.8597  1.1848 -0.1473
  279DG     H14 6408   3.777   2.997   3.725  1.6440 -0.5812 -3.7544
  279DG     H15 6409   3.526   2.529   3.855  0.2411  1.5871  1.6444
  279DG     H16 6410   3.639   2.406   3.919 -1.1671 -0.0104 -0.8223
  279DG     C17 6411   3.817   2.778   3.723  0.2688 -0.3340 -0.3820
  279DG     C18 6412   3.734   2.568   3.812  0.5742 -0.4468  0.0453
  279DG     O19 6413   3.724   2.714   3.812 -0.8028 -0.0400  0.0759
  279DG     H20 6414   3.909   2.721   3.729  0.8515  0.6905  1.2793
  279DG     H21 6415   3.787   2.756   3.621  0.7744 -0.4969 -0.4970
  279DG     H22 6416   3.836   2.543   3.844  0.7191  0.4524  0.3138
  279DG     H23 6417   3.721   2.531   3.711 -1.6682  2.2802 -0.7718
  280DG      C1 6418   0.257   4.336   4.963  0.6148  0.1417  0.1534
  280DG      C2 6419   0.287   4.347   5.647 -0.0543 -0.9022 -0.4165
  280DG      H3 6420   0.155   4.363   4.935  0.7595  0.7236  0.1766
  280DG      H4 6421   0.262   4.227   4.958 -2.8628 -0.0885 -1.1048
  280DG      H5 6422   0.322   4.383   4.889  0.5982 -1.4171 -0.9105
  280DG      H6 6423   0.259   4.396   5.740  1.2706 -0.8529 -0.0235
  280DG      H7 6424   0.215   4.385   5.574 -0.0015  2.6775  1.2076
  280DG      H8 6425   0.286   4.239   5.667 -2.7646 -0.9113 -0.1507
  280DG      O9 6426   0.272   4.375   5.094  0.3025 -0.0183 -0.2043
  280DG     O10 6427   0.420   4.398   5.623 -0.4550 -0.4463 -0.4940
  280DG     C11 6428   0.249   4.509   5.128  0.4369 -0.2569  0.0138
  280DG     C12 6429   0.473   4.356   5.501 -0.8495 -0.5110  0.0048
  280DG     H13 6430   0.164   4.554   5.077  0.2779  0.1431  0.6210
  280DG     H14 6431   0.339   4.565   5.101 -0.8098  2.0043  0.3001
  280DG     H15 6432   0.458   4.249   5.482  1.2491 -0.7986 -0.3057
  280DG     H16 6433   0.577   4.364   5.533 -1.3591 -0.5142  1.7722
  280DG     C17 6434   0.224   4.521   5.279 -0.8014  0.5172 -0.5521
  280DG     C18 6435   0.438   4.449   5.381  0.9381 -0.0433 -0.1826
  280DG     O19 6436   0.298   4.424   5.357 -0.0294 -0.1624  0.2305
  280DG     H20 6437   0.122   4.493   5.308 -0.6072  0.0745 -0.2803
  280DG     H21 6438   0.238   4.624   5.310  3.3331  0.0884 -0.4145
  280DG     H22 6439   0.467   4.551   5.404  0.8640 -0.2543  0.9140
  280DG     H23 6440   0.498   4.420   5.295  0.3898  0.2286 -0.6653
  281DG      C1 6441   3.596   0.012   3.136 -0.4703 -0.7503 -0.4764
  281DG      C2 6442   3.280   0.445   2.713  0.7501 -0.5813  0.1278
  281DG      H3 6443   3.619  -0.093   3.153 -3.5569 -1.3042  0.8885
  281DG      H4 6444   3.558   0.040   3.234  1.3989  0.2438  0.0111
  281DG      H5 6445   3.688   0.065   3.110  1.1292 -1.4043  3.2367
  281DG      H6 6446   3.215   0.452   2.625 -2.1720 -1.3805  2.0908
  281DG      H7 6447   3.231   0.519   2.776  3.2972  0.0667  1.4909
  281DG      H8 6448   3.376   0.484   2.678  0.6100 -0.1580  0.2142
  281DG      O9 6449   3.500   0.030   3.032  0.4220 -0.0168 -0.5167
  281DG     O10 6450   3.273   0.318   2.762  0.1737  0.4142 -0.4358
  281DG     C11 6451   3.375  -0.043   3.058  0.1200  0.2423 -0.0140
  281DG     C12 6452   3.141   0.264   2.779  1.1062  0.2084  0.2734
  281DG     H13 6453   3.334   0.008   3.145  0.3050 -0.0738  0.2630
  281DG     H14 6454   3.408  -0.146   3.077 -0.3536 -0.2417 -1.6414
  281DG     H15 6455   3.068   0.272   2.699  2.0010  0.5255 -0.5352
  281DG     H16 6456   3.095   0.329   2.854 -2.1527  0.3509 -1.7154
  281DG     C17 6457   3.278  -0.042   2.939 -0.8681  0.3930 -0.6519
  281DG     C18 6458   3.152   0.110   2.815 -0.2128  0.6030  0.0963
  281DG     O19 6459   3.262   0.088   2.901 -0.6019 -0.2396  0.3501
  281DG     H20 6460   3.180  -0.086   2.958 -1.2332  0.7106 -1.7528
  281DG     H21 6461   3.330  -0.095   2.859  1.1774  1.0070  0.2147
  281DG     H22 6462   3.061   0.072   2.861  1.1212  0.4722  2.8422
  281DG     H23 6463   3.168   0.044   2.729 -1.1568 -1.4660  1.4460
  282DG      C1 6464   0.943   0.214   1.432 -0.0367  0.6094  0.1538
  282DG      C2 6465   0.611   0.363   1.958  0.1077  0.5116  0.4337
  282DG      H3 6466   0.988   0.312   1.450  0.7099 -0.1919  3.3728
  282DG      H4 6467   0.968   0.172   1.335  0.1889 -3.1841  1.6734
  282DG      H5 6468   1.000   0.145   1.494 -0.4975  0.0978  0.0138
  282DG      H6 6469   0.550   0.435   2.012  0.5088  1.2169 -0.0355
  282DG      H7 6470   0.615   0.267   2.009  0.9045  0.2104 -0.1667
  282DG      H8 6471   0.708   0.413   1.968 -0.3712  2.0138 -1.5216
  282DG      O9 6472   0.802   0.217   1.452  0.3674  0.3741 -0.8927
  282DG     O10 6473   0.563   0.333   1.826  0.1111  0.3117  0.0140
  282DG     C11 6474   0.729   0.302   1.368  0.9584  1.0271  0.0725
  282DG     C12 6475   0.520   0.457   1.758 -0.2182  0.1217 -0.4342
  282DG     H13 6476   0.716   0.240   1.279  1.3659  1.6060 -0.3916
  282DG     H14 6477   0.788   0.387   1.336 -1.5611  1.3715 -4.5510
  282DG     H15 6478   0.598   0.533   1.771  1.1658 -0.8307 -2.6374
  282DG     H16 6479   0.428   0.482   1.810 -0.6661  0.9797 -1.6140
  282DG     C17 6480   0.594   0.345   1.419 -0.2979 -0.0438  0.6139
  282DG     C18 6481   0.489   0.435   1.614 -0.4489  0.1339 -0.3951
  282DG     O19 6482   0.606   0.374   1.560 -0.2232 -0.8045 -0.5307
  282DG     H20 6483   0.523   0.265   1.403  0.6834 -0.3776 -2.8016
  282DG     H21 6484   0.562   0.432   1.361  1.0778  0.2517  0.2563
  282DG     H22 6485   0.405   0.367   1.600  2.0192 -3.0893 -0.7688
  282DG     H23 6486   0.458   0.528   1.567 -0.5021 -0.6904 -2.0510
  283DG      C1 6487   3.692   4.093   4.605 -0.5669 -0.0806  0.3348
  283DG      C2 6488   3.244   3.777   4.920 -0.0158  0.1430 -0.2316
  283DG      H3 6489   3.595   4.136   4.632  0.0897  1.8187 -0.1364
  283DG      H4 6490   3.718   4.121   4.503  0.3015 -0.8834  0.3247
  283DG      H5 6491   3.766   4.153   4.659 -1.7730  1.7342  0.0610
  283DG      H6 6492   3.303   3.808   5.006  2.6937 -2.6207 -0.9245
  283DG      H7 6493   3.172   3.851   4.886 -0.2914  0.2886  0.6402
  283DG      H8 6494   3.188   3.688   4.953 -0.7841  0.9624  0.7494
  283DG      O9 6495   3.695   3.951   4.628  0.3269 -0.3740  0.0232
  283DG     O10 6496   3.313   3.738   4.802 -0.2800 -0.4554 -0.1158
  283DG     C11 6497   3.654   3.887   4.513  0.1163  0.0796  0.0670
  283DG     C12 6498   3.415   3.646   4.826 -0.0544  0.0408  0.7194
  283DG     H13 6499   3.719   3.899   4.427 -0.5729 -0.6419 -0.5703
  283DG     H14 6500   3.558   3.922   4.475  0.7444  1.2352 -0.4866
  283DG     H15 6501   3.373   3.549   4.853  1.5699 -0.3975  1.8124
  283DG     H16 6502   3.474   3.682   4.911  0.1682  0.0200  0.5754
  283DG     C17 6503   3.635   3.743   4.560  0.4452  0.2068 -0.4016
  283DG     C18 6504   3.498   3.625   4.696 -0.2399  0.3877 -0.5617
  283DG     O19 6505   3.560   3.744   4.677 -0.2785  0.5565 -0.5838
  283DG     H20 6506   3.722   3.687   4.594 -0.1761 -1.7925 -1.9482
  283DG     H21 6507   3.601   3.681   4.478  0.2778  0.0981 -0.2511
  283DG     H22 6508   3.578   3.551   4.705 -1.3022 -1.0818 -2.4686
  283DG     H23 6509   3.432   3.595   4.615  0.2799  0.3819 -0.9894
  284DG      C1 6510   4.802   3.251   4.909 -0.1398 -0.1351  0.3546
  284DG      C2 6511   5.383   3.749   4.542  0.1321  0.2318 -0.3221
  284DG      H3 6512   4.741   3.280   4.994 -1.1535 -1.7018  0.2170
  284DG      H4 6513   4.862   3.167   4.943  0.0605 -0.0347  0.2467
  284DG      H5 6514   4.731   3.213   4.834  0.3207  0.1522 -0.2328
  284DG      H6 6515   5.387   3.832   4.471 -0.0200 -0.8601 -1.6419
  284DG      H7 6516   5.485   3.731   4.575 -0.0196 -1.1305 -0.5130
  284DG      H8 6517   5.345   3.661   4.490  1.0805 -0.2280 -0.2621
  284DG      O9 6518   4.887   3.349   4.849 -0.0453 -0.4856 -0.2566
  284DG     O10 6519   5.320   3.784   4.660  0.2776  0.2886 -0.1347
  284DG     C11 6520   4.975   3.415   4.947  0.5628  0.6226  1.0743
  284DG     C12 6521   5.283   3.675   4.738  0.2474  0.1945 -0.3095
  284DG     H13 6522   5.054   3.343   4.967 -0.5188 -0.1634  2.6440
  284DG     H14 6523   4.912   3.435   5.034 -1.6971 -1.4618  0.0647
  284DG     H15 6524   5.257   3.721   4.833  1.1526 -0.5750  0.3384
  284DG     H16 6525   5.365   3.604   4.752  1.0546  1.0010 -0.8605
  284DG     C17 6526   5.034   3.545   4.886 -0.9079  0.3602 -0.1340
  284DG     C18 6527   5.145   3.614   4.691  0.0780  0.4428 -0.0122
  284DG     O19 6528   5.105   3.508   4.769 -0.1136 -0.1667  0.2648
  284DG     H20 6529   5.102   3.586   4.961 -0.3431 -1.5207  0.4546
  284DG     H21 6530   4.959   3.622   4.874 -0.2572  1.1853  0.8536
  284DG     H22 6531   5.062   3.683   4.672 -0.6185 -0.8638 -2.0010
  284DG     H23 6532   5.164   3.582   4.589  1.7395  0.3924  0.2734
  285DG      C1 6533   3.847   0.657   2.365 -0.1707 -0.0755  0.4722
  285DG      C2 6534   3.686   1.102   2.795 -0.1510 -0.2682 -0.6549
  285DG      H3 6535   3.842   0.717   2.274  0.7813 -0.3274  0.2406
  285DG      H4 6536   3.859   0.558   2.321 -0.5372 -0.3773  1.0346
  285DG      H5 6537   3.921   0.696   2.435 -0.0070  0.9198 -0.2443
  285DG      H6 6538   3.577   1.106   2.790 -0.1708 -1.5256 -2.1036
  285DG      H7 6539   3.715   1.130   2.896  0.5289 -1.0424 -0.6265
  285DG      H8 6540   3.742   1.168   2.729  2.0260 -0.0518  1.2525
  285DG      O9 6541   3.725   0.685   2.428 -0.0005 -0.3336  0.0974
  285DG     O10 6542   3.714   0.964   2.764 -0.1225 -1.0293 -0.2253
  285DG     C11 6543   3.677   0.586   2.515  0.4816 -0.4309 -0.1132
  285DG     C12 6544   3.720   0.876   2.876  0.9900 -0.9105  0.6762
  285DG     H13 6545   3.678   0.484   2.475  0.3582 -1.0183  1.3337
  285DG     H14 6546   3.570   0.591   2.534  0.5934 -2.8691  1.7021
  285DG     H15 6547   3.622   0.874   2.923  0.1981 -3.2014 -0.8993
  285DG     H16 6548   3.796   0.917   2.942  2.0788  0.7973 -1.4971
  285DG     C17 6549   3.753   0.587   2.648 -0.0392  0.1768  0.1567
  285DG     C18 6550   3.758   0.735   2.835  0.5224  0.4349  0.1113
  285DG     O19 6551   3.723   0.716   2.696 -0.4235  0.1110  0.0074
  285DG     H20 6552   3.860   0.566   2.639  0.8342  3.6571  1.1890
  285DG     H21 6553   3.705   0.515   2.715 -1.8471  1.1641 -0.0327
  285DG     H22 6554   3.866   0.723   2.844  0.2397 -1.3798  1.5606
  285DG     H23 6555   3.704   0.656   2.887 -0.8343  0.1082 -1.7024
  286DG      C1 6556   3.689   0.392   3.759  1.0201 -0.0861 -0.9152
  286DG      C2 6557   3.792   0.854   3.289 -0.2835 -0.1411 -0.9598
  286DG      H3 6558   3.629   0.465   3.814 -0.0918 -0.2783 -1.8535
  286DG      H4 6559   3.716   0.307   3.823 -1.0089  0.3855  0.6774
  286DG      H5 6560   3.618   0.356   3.685 -0.3546 -0.8954  0.7267
  286DG      H6 6561   3.707   0.903   3.336 -0.8988 -1.3375 -0.7811
  286DG      H7 6562   3.858   0.932   3.250  1.8204 -0.9028  0.8574
  286DG      H8 6563   3.756   0.779   3.219 -0.7387 -1.2803  0.4566
  286DG      O9 6564   3.800   0.455   3.708 -0.4858  0.1092  0.2279
  286DG     O10 6565   3.869   0.779   3.387 -0.6702 -0.2266  0.3688
  286DG     C11 6566   3.903   0.376   3.656  0.0630 -0.0557  0.0414
  286DG     C12 6567   3.967   0.699   3.317 -0.3104  0.0204 -0.1537
  286DG     H13 6568   3.873   0.295   3.590  2.4017  0.2222 -1.4682
  286DG     H14 6569   3.952   0.322   3.737 -0.2719  1.5993  1.3993
  286DG     H15 6570   4.045   0.753   3.264 -0.7682  0.8034 -0.0537
  286DG     H16 6571   3.932   0.629   3.241  0.8346  1.0708 -1.7248
  286DG     C17 6572   4.010   0.459   3.588 -0.0482 -0.5472 -0.8256
  286DG     C18 6573   4.040   0.622   3.424  0.2247  0.6463 -0.6447
  286DG     O19 6574   3.946   0.557   3.506 -0.5069  0.5675 -0.4224
  286DG     H20 6575   4.079   0.398   3.529  0.0458 -1.3103  0.0499
  286DG     H21 6576   4.076   0.514   3.655 -1.6482  0.6494 -0.1639
  286DG     H22 6577   4.109   0.561   3.366 -1.7177 -1.2089 -1.1389
  286DG     H23 6578   4.099   0.689   3.485  0.4097 -0.2950  0.2224
  287DG      C1 6579   5.094   0.657   2.759  0.0898  0.1349 -0.0866
  287DG      C2 6580   4.511   0.922   2.792 -0.2918 -0.0734 -0.6954
  287DG      H3 6581   5.157   0.674   2.671 -1.7003  1.2360 -1.2161
  287DG      H4 6582   5.032   0.567   2.753 -0.3279  0.3645  0.6565
  287DG      H5 6583   5.150   0.653   2.852  0.2905  3.0607  0.0221
  287DG      H6 6584   4.449   1.007   2.821  0.5625  0.0058  1.0047
  287DG      H7 6585   4.457   0.828   2.806  0.3884 -0.6445 -1.8186
  287DG      H8 6586   4.591   0.909   2.864 -1.3164 -0.5979  0.3932
  287DG      O9 6587   5.007   0.765   2.764 -0.5042 -0.0868  0.2099
  287DG     O10 6588   4.570   0.928   2.664 -0.0974  0.1275  0.0231
  287DG     C11 6589   5.069   0.894   2.756  0.2377  0.2234  0.4509
  287DG     C12 6590   4.626   1.052   2.617  0.1118  0.1742  0.0690
  287DG     H13 6591   5.127   0.898   2.664  1.0005 -2.2397  0.7664
  287DG     H14 6592   5.134   0.912   2.842 -0.8052  2.0370  0.9151
  287DG     H15 6593   4.541   1.121   2.614 -0.9491 -1.1044 -0.3651
  287DG     H16 6594   4.658   1.035   2.515  0.1593 -2.1069  0.4047
  287DG     C17 6595   4.962   0.999   2.775  0.2396  0.2365  0.0544
  287DG     C18 6596   4.752   1.085   2.700  0.0688  0.1547 -0.1926
  287DG     O19 6597   4.851   0.982   2.685  1.0396 -0.3082 -0.3888
  287DG     H20 6598   5.003   1.099   2.760 -1.0457  0.5718 -1.5479
  287DG     H21 6599   4.933   1.002   2.881 -0.0405  0.5246 -0.0289
  287DG     H22 6600   4.789   1.184   2.675 -2.7098  2.1188  2.5985
  287DG     H23 6601   4.726   1.099   2.805  0.0412 -2.4167  0.1933
  288DG      C1 6602   2.911   1.459   2.857  0.2708  0.1776  0.4368
  288DG      C2 6603   2.870   0.850   3.202  0.4730  0.8138 -0.2107
  288DG      H3 6604   3.018   1.453   2.834 -0.1444 -1.1725 -1.4002
  288DG      H4 6605   2.862   1.555   2.873 -1.1742 -0.2911 -0.8635
  288DG      H5 6606   2.877   1.424   2.759 -1.3300  2.3209  0.1520
  288DG      H6 6607   2.857   0.820   3.306  0.7711 -0.1434 -0.4432
  288DG      H7 6608   2.795   0.795   3.146 -0.3470  0.4869  1.1541
  288DG      H8 6609   2.973   0.829   3.174  0.9179 -0.4989  2.1947
  288DG      O9 6610   2.879   1.371   2.959 -0.5460  0.5079 -0.1208
  288DG     O10 6611   2.839   0.989   3.208 -0.6949 -0.7131  0.9123
  288DG     C11 6612   2.739   1.355   2.955  0.6916  0.1125  0.7274
  288DG     C12 6613   2.710   1.022   3.256  0.2679  1.0979  0.2477
  288DG     H13 6614   2.705   1.339   2.853  1.0354  0.6925  0.5143
  288DG     H14 6615   2.694   1.445   2.996 -1.6904 -1.1596  1.0935
  288DG     H15 6616   2.685   0.964   3.344 -0.1707 -1.7882 -1.6454
  288DG     H16 6617   2.638   0.982   3.184  0.5254 -0.9417  1.0755
  288DG     C17 6618   2.700   1.232   3.033  0.2049 -0.3351  0.5787
  288DG     C18 6619   2.700   1.176   3.267 -0.3610  0.2732 -0.4184
  288DG     O19 6620   2.761   1.245   3.158 -0.2957 -0.0647  0.0033
  288DG     H20 6621   2.728   1.135   2.991  3.0457  1.1771 -1.4312
  288DG     H21 6622   2.593   1.214   3.038  0.3746 -1.1826  1.5075
  288DG     H22 6623   2.606   1.218   3.303 -0.1030 -0.3567  1.0304
  288DG     H23 6624   2.766   1.185   3.353 -0.9489  1.3993 -0.0629
  289DG      C1 6625   4.152   4.585   4.971  0.6033  0.3516  0.0847
  289DG      C2 6626   4.423   4.825   5.260 -0.0040 -0.5570  0.6741
  289DG      H3 6627   4.172   4.663   4.897  0.1656  0.0730 -0.3288
  289DG      H4 6628   4.111   4.636   5.058 -1.1147  0.1981 -0.6002
  289DG      H5 6629   4.070   4.521   4.939  0.6775  0.9607 -1.4177
  289DG      H6 6630   4.406   4.885   5.170 -1.9083 -2.0751 -0.0619
  289DG      H7 6631   4.337   4.788   5.315  0.1169 -1.5526  0.2273
  289DG      H8 6632   4.485   4.885   5.326 -0.4950  0.3877  0.2974
  289DG      O9 6633   4.267   4.509   4.999  0.3222  0.2192 -0.4086
  289DG     O10 6634   4.500   4.715   5.217 -0.1085 -0.1233  0.1834
  289DG     C11 6635   4.236   4.414   5.095 -0.5593 -0.0453  0.0796
  289DG     C12 6636   4.551   4.625   5.321  0.7567  0.0734 -0.5141
  289DG     H13 6637   4.245   4.312   5.057 -0.0880 -0.8000  2.0999
  289DG     H14 6638   4.130   4.410   5.121 -0.4260 -1.3048  0.5085
  289DG     H15 6639   4.475   4.612   5.399  1.7282  0.6061  0.5509
  289DG     H16 6640   4.628   4.662   5.388  0.5126  1.2715 -0.8738
  289DG     C17 6641   4.320   4.430   5.222 -0.0253  0.0557  0.3431
  289DG     C18 6642   4.559   4.484   5.258  0.3475 -0.0187 -0.1329
  289DG     O19 6643   4.451   4.471   5.170 -0.5048  0.5975 -0.1555
  289DG     H20 6644   4.328   4.334   5.273 -0.9581 -0.3484 -0.2264
  289DG     H21 6645   4.271   4.495   5.295  1.2670 -0.4715  1.7280
  289DG     H22 6646   4.650   4.486   5.198 -0.7317 -1.6503 -1.9590
  289DG     H23 6647   4.576   4.402   5.327  1.0449  1.6533  1.7747
  290DG      C1 6648   0.053   1.509   4.798 -0.1265 -0.9972  0.2744
  290DG      C2 6649   0.305   2.142   5.068  0.4184 -0.3624 -0.9296
  290DG      H3 6650   0.058   1.406   4.833  0.7888 -0.3626  2.1737
  290DG      H4 6651   0.143   1.536   4.743 -0.2977 -0.1780  0.3828
  290DG      H5 6652  -0.030   1.532   4.732 -1.4521 -0.4831  2.0200
  290DG      H6 6653   0.265   2.217   5.137  1.3916 -0.6369 -0.0478
  290DG      H7 6654   0.400   2.117   5.114  0.0618  0.4578  0.3284
  290DG      H8 6655   0.314   2.188   4.970 -1.7567 -2.5396 -2.2694
  290DG      O9 6656   0.045   1.596   4.909 -0.0977 -0.2555 -0.4955
  290DG     O10 6657   0.228   2.022   5.068  0.1471  0.5747  0.3650
  290DG     C11 6658   0.141   1.571   5.000  0.1024 -0.3067 -0.4639
  290DG     C12 6659   0.188   1.982   5.198  0.3749 -0.0103  0.1357
  290DG     H13 6660   0.240   1.587   4.958  0.4751 -2.6345 -0.5800
  290DG     H14 6661   0.135   1.466   5.028 -0.6977  0.2729  1.7334
  290DG     H15 6662   0.153   2.073   5.247 -0.1315 -0.0827 -0.0884
  290DG     H16 6663   0.272   1.942   5.255  0.9425 -0.9642 -1.3210
  290DG     C17 6664   0.105   1.652   5.127  0.4399 -0.0065  0.0600
  290DG     C18 6665   0.078   1.874   5.198 -0.2331 -0.4231 -0.5221
  290DG     O19 6666   0.082   1.787   5.088 -0.3687  0.3207  0.1011
  290DG     H20 6667   0.194   1.669   5.187  1.7648  0.0971 -1.8247
  290DG     H21 6668   0.017   1.607   5.173 -0.5889  1.1849 -0.7014
  290DG     H22 6669   0.081   1.820   5.293 -0.2425  1.1819  0.4181
  290DG     H23 6670  -0.015   1.929   5.191  0.7232  1.3326 -0.0532
  291DG      C1 6671   1.663   2.161   2.667  0.4231  0.4617 -0.2923
  291DG      C2 6672   1.991   2.642   2.935 -0.8585  0.3814  0.1934
  291DG      H3 6673   1.633   2.059   2.643 -0.9654  0.6942  0.4132
  291DG      H4 6674   1.581   2.227   2.640 -1.2270 -2.2408 -2.3623
  291DG      H5 6675   1.663   2.169   2.776 -0.3236  0.4196 -0.2847
  291DG      H6 6676   1.968   2.697   3.026  0.1906  2.8754 -0.9820
  291DG      H7 6677   2.074   2.694   2.888 -0.9364  2.5604  2.2779
  291DG      H8 6678   1.904   2.662   2.872  0.7048  2.6688 -1.3831
  291DG      O9 6679   1.789   2.190   2.612  0.3575 -0.0701 -0.0339
  291DG     O10 6680   2.012   2.497   2.941 -0.2495  0.3959  0.2406
  291DG     C11 6681   1.880   2.090   2.640  0.2339  0.0994 -0.1376
  291DG     C12 6682   1.910   2.419   2.994 -0.1096 -0.3947  0.2128
  291DG     H13 6683   1.965   2.102   2.574 -0.7508  0.4115 -1.3905
  291DG     H14 6684   1.845   1.987   2.625 -0.0215  0.3653 -1.4634
  291DG     H15 6685   1.821   2.459   2.945 -0.4670 -1.6366 -0.2028
  291DG     H16 6686   1.892   2.423   3.101 -2.8317  0.1630 -0.1966
  291DG     C17 6687   1.930   2.110   2.781  0.2407 -0.0092 -0.2395
  291DG     C18 6688   1.917   2.273   2.952  0.1360  0.0135  0.8904
  291DG     O19 6689   1.925   2.246   2.813  0.1831 -0.0086 -0.3634
  291DG     H20 6690   2.031   2.077   2.804 -0.1736  0.2604  2.2489
  291DG     H21 6691   1.861   2.058   2.847 -0.0762  0.8920  0.1600
  291DG     H22 6692   2.000   2.228   3.007 -0.8424 -3.0180  0.0469
  291DG     H23 6693   1.823   2.233   2.990  2.8452 -3.7592  4.4886
  292DG      C1 6694   0.442   5.390   2.284  0.0193  0.3056  0.7149
  292DG      C2 6695  -0.298   5.258   2.486  0.1257  0.2832  0.4446
  292DG      H3 6696   0.509   5.375   2.368  1.6243 -1.8574 -0.8431
  292DG      H4 6697   0.461   5.472   2.215 -0.6477  0.3024  0.5153
  292DG      H5 6698   0.419   5.296   2.234 -2.8130  1.7187 -0.9371
  292DG      H6 6699  -0.325   5.362   2.471 -0.0675  0.8903  4.0369
  292DG      H7 6700  -0.358   5.194   2.421 -0.5284  3.5651 -2.4780
  292DG      H8 6701  -0.315   5.226   2.589  0.8351  3.6617  1.7490
  292DG      O9 6702   0.312   5.430   2.341 -0.0932 -0.1305  0.2352
  292DG     O10 6703  -0.163   5.241   2.448  0.3616 -0.5282  0.0762
  292DG     C11 6704   0.316   5.527   2.437 -0.1768  0.4475 -0.6899
  292DG     C12 6705  -0.076   5.351   2.496 -0.1552 -0.0814  0.0317
  292DG     H13 6706   0.344   5.622   2.391  1.6983  0.1614 -0.2612
  292DG     H14 6707   0.384   5.497   2.517 -1.3147 -1.9324 -0.5254
  292DG     H15 6708  -0.090   5.359   2.604  1.7096  2.4070  0.1727
  292DG     H16 6709  -0.096   5.454   2.466  0.7793  0.6300  1.6963
  292DG     C17 6710   0.187   5.533   2.518 -0.0095 -0.6962  0.3878
  292DG     C18 6711   0.072   5.316   2.474 -0.6527  0.3829 -0.9262
  292DG     O19 6712   0.149   5.396   2.558 -0.0690  0.1333 -0.1439
  292DG     H20 6713   0.109   5.575   2.454  0.7615 -0.6541 -0.5607
  292DG     H21 6714   0.202   5.589   2.610  1.0797 -1.2133  0.5454
  292DG     H22 6715   0.080   5.212   2.508 -1.8360  0.8592  0.9818
  292DG     H23 6716   0.099   5.327   2.369  2.9073  0.7037 -0.0913
  293DG      C1 6717   0.742   3.432   3.732 -0.3947  0.0867 -0.6931
  293DG      C2 6718   1.090   3.096   4.275 -0.0131 -0.4342  0.1760
  293DG      H3 6719   0.842   3.466   3.708  0.5759 -2.7852 -1.1414
  293DG      H4 6720   0.700   3.505   3.801 -0.0747  1.0919 -1.5361
  293DG      H5 6721   0.678   3.427   3.644  1.4879  2.3523 -2.3221
  293DG      H6 6722   1.097   3.000   4.326  0.6491 -0.1379  0.6669
  293DG      H7 6723   1.186   3.092   4.222 -0.8902  2.5385 -1.9408
  293DG      H8 6724   1.086   3.179   4.345 -0.5386 -0.0028 -0.3583
  293DG      O9 6725   0.758   3.308   3.807 -0.3410  0.3594 -0.6218
  293DG     O10 6726   0.983   3.108   4.170 -0.4645 -0.6154  0.6729
  293DG     C11 6727   0.638   3.239   3.833  0.1089  0.6446 -0.6608
  293DG     C12 6728   0.863   3.040   4.209 -0.2700 -1.0747  0.2113
  293DG     H13 6729   0.605   3.196   3.738 -1.3575  0.3772 -0.0584
  293DG     H14 6730   0.558   3.293   3.884  0.0953 -1.1317  1.3517
  293DG     H15 6731   0.804   3.101   4.277  1.3858 -0.9590  1.6246
  293DG     H16 6732   0.881   2.939   4.246 -1.7747 -2.1523 -1.7694
  293DG     C17 6733   0.660   3.106   3.915 -0.1028 -0.0389  0.5585
  293DG     C18 6734   0.774   3.015   4.090  0.6908 -0.5752  0.4600
  293DG     O19 6735   0.737   3.135   4.032 -0.5772 -0.3324  0.3607
  293DG     H20 6736   0.698   3.034   3.842 -2.5025 -0.4399 -0.3882
  293DG     H21 6737   0.569   3.059   3.953  0.3125  0.4379  2.1996
  293DG     H22 6738   0.827   2.948   4.022  1.8603  1.1674 -0.4242
  293DG     H23 6739   0.688   2.961   4.130  0.5050  1.6905  3.4322
  294DG      C1 6740   0.521   2.709   1.969  0.0543  0.2300  0.0442
  294DG      C2 6741   0.051   3.152   2.201  0.6850 -0.4398 -0.8031
  294DG      H3 6742   0.528   2.611   1.922  1.0560 -0.0894  0.8252
  294DG      H4 6743   0.544   2.682   2.072  0.1802 -0.2504 -0.1114
  294DG      H5 6744   0.595   2.771   1.919  0.8549 -1.6614 -1.2085
  294DG      H6 6745   0.068   3.248   2.151 -3.3834  1.0809  0.3414
  294DG      H7 6746  -0.050   3.159   2.242  0.9428  0.0188 -0.2281
  294DG      H8 6747   0.129   3.141   2.276  0.0727 -1.1064 -0.2503
  294DG      O9 6748   0.387   2.753   1.957  0.3424 -0.2719  0.2088
  294DG     O10 6749   0.071   3.035   2.117 -0.1729  0.2192  0.1695
  294DG     C11 6750   0.337   2.771   1.819 -0.2665  0.4990  0.3291
  294DG     C12 6751  -0.029   3.026   2.016 -0.2608  0.4722 -0.2750
  294DG     H13 6752   0.375   2.692   1.754  1.8809  1.3270  0.4802
  294DG     H14 6753   0.395   2.848   1.767  1.2891 -1.2596 -0.6614
  294DG     H15 6754  -0.017   3.112   1.950 -2.2502  0.1422 -1.1183
  294DG     H16 6755  -0.132   3.025   2.050 -0.6251  1.7453 -1.2578
  294DG     C17 6756   0.184   2.795   1.807 -0.8238  0.0218  0.5157
  294DG     C18 6757   0.005   2.906   1.928 -0.3184 -0.4162 -0.0023
  294DG     O19 6758   0.147   2.891   1.905  0.6412 -0.1972  0.1118
  294DG     H20 6759   0.130   2.702   1.825 -1.5415  0.2808 -0.2170
  294DG     H21 6760   0.152   2.846   1.716 -1.1109 -0.0565  0.5703
  294DG     H22 6761  -0.028   2.815   1.977  0.2394 -0.2454  0.7156
  294DG     H23 6762  -0.052   2.915   1.836  0.1952 -1.2216 -0.4098
  295DG      C1 6763   5.373   0.413   0.739 -0.4198  0.1567  0.4844
  295DG      C2 6764   4.766   0.355   0.938 -0.2961 -0.3069 -0.8750
  295DG      H3 6765   5.370   0.519   0.714 -0.7750 -0.2171 -1.1541
  295DG      H4 6766   5.367   0.358   0.645 -1.2227  1.0252  0.0072
  295DG      H5 6767   5.472   0.391   0.781 -0.6965 -0.5095  0.8036
  295DG      H6 6768   4.708   0.444   0.917 -1.1977 -1.2901 -2.8810
  295DG      H7 6769   4.796   0.309   0.844  3.0255 -0.3578  0.0867
  295DG      H8 6770   4.697   0.288   0.990 -0.8999  0.3587 -0.8000
  295DG      O9 6771   5.271   0.376   0.827 -0.6637 -0.5290 -0.9626
  295DG     O10 6772   4.876   0.379   1.017 -0.5381 -0.2524 -0.2721
  295DG     C11 6773   5.296   0.257   0.896 -0.2635 -0.0678  0.4563
  295DG     C12 6774   4.911   0.276   1.107 -0.0718 -0.1488 -0.1725
  295DG     H13 6775   5.373   0.258   0.974  0.3748 -1.0187 -0.1351
  295DG     H14 6776   5.321   0.176   0.827  0.0678 -0.8166  1.4444
  295DG     H15 6777   4.907   0.177   1.061  1.8763 -0.0352 -0.7078
  295DG     H16 6778   4.844   0.290   1.192  1.4115  1.8449  0.7596
  295DG     C17 6779   5.171   0.212   0.977 -0.1844  0.4248 -0.2275
  295DG     C18 6780   5.055   0.297   1.164 -0.4726 -0.1785  0.2990
  295DG     O19 6781   5.143   0.327   1.055 -0.1073  0.4215 -0.5730
  295DG     H20 6782   5.170   0.122   1.039 -1.2922  2.1569  2.4328
  295DG     H21 6783   5.086   0.193   0.911 -0.9546 -0.7162  1.0481
  295DG     H22 6784   5.050   0.383   1.230 -0.6424  3.6633 -4.2223
  295DG     H23 6785   5.084   0.203   1.212  1.3147  0.4386  0.5014
  296DG      C1 6786   3.443   2.195   2.558  0.4178  0.0092 -0.7832
  296DG      C2 6787   2.819   1.930   2.564  0.3047 -0.3140 -0.5998
  296DG      H3 6788   3.542   2.180   2.600 -0.1915 -1.0450  0.3941
  296DG      H4 6789   3.430   2.292   2.512  0.1221  0.6584  0.6052
  296DG      H5 6790   3.430   2.121   2.479  0.7050  1.7047 -2.4886
  296DG      H6 6791   2.843   1.824   2.557  0.8458 -0.2114 -0.4068
  296DG      H7 6792   2.713   1.933   2.589  0.0185  0.4608 -1.8094
  296DG      H8 6793   2.840   1.985   2.472 -1.8373 -2.9079 -2.7817
  296DG      O9 6794   3.341   2.159   2.651 -0.4144 -0.2530 -0.5312
  296DG     O10 6795   2.893   1.990   2.671  0.2890 -0.1424 -0.1781
  296DG     C11 6796   3.306   2.273   2.728  0.0701  0.0689 -0.4223
  296DG     C12 6797   2.856   2.124   2.706 -0.2780  0.1593  0.6589
  296DG     H13 6798   3.271   2.352   2.661  0.3959  0.4729 -0.1232
  296DG     H14 6799   3.387   2.316   2.787 -1.2460  0.1824  1.3816
  296DG     H15 6800   2.766   2.116   2.767  0.9371 -2.6784  2.2678
  296DG     H16 6801   2.841   2.182   2.615 -0.8977 -1.1255 -0.0820
  296DG     C17 6802   3.189   2.238   2.821 -1.1755 -0.4121  0.0843
  296DG     C18 6803   2.958   2.182   2.805 -0.1034  0.1050  0.2835
  296DG     O19 6804   3.086   2.176   2.746 -0.2824  0.8981 -0.0988
  296DG     H20 6805   3.153   2.333   2.859 -2.3022 -1.0140  0.5776
  296DG     H21 6806   3.215   2.170   2.902  0.1256  2.0750  1.8574
  296DG     H22 6807   2.924   2.283   2.826 -2.0337 -0.2453 -0.8933
  296DG     H23 6808   2.961   2.125   2.898  1.1289  1.7092  1.2783
  297DG      C1 6809   1.747   2.611   2.575  0.2200 -0.7085 -0.2979
  297DG      C2 6810   2.294   2.287   2.799  0.0967  0.1781  0.4154
  297DG      H3 6811   1.702   2.632   2.478  1.3535 -0.1298 -0.7180
  297DG      H4 6812   1.721   2.686   2.650 -0.9849  0.2677 -1.6541
  297DG      H5 6813   1.718   2.516   2.619  0.4954  0.3899  2.4961
  297DG      H6 6814   2.264   2.305   2.902 -3.5092  1.0534 -0.6250
  297DG      H7 6815   2.269   2.187   2.763  0.0384 -0.2721  1.6547
  297DG      H8 6816   2.402   2.281   2.808  0.1570  1.9150  1.0758
  297DG      O9 6817   1.886   2.619   2.565  0.8880 -0.1648 -0.2847
  297DG     O10 6818   2.245   2.390   2.713  0.2064  0.2562  0.2929
  297DG     C11 6819   1.947   2.742   2.534  0.4468 -0.1427  0.2642
  297DG     C12 6820   2.325   2.510   2.724  0.4789  0.0607  1.1596
  297DG     H13 6821   1.927   2.806   2.620 -0.6787  0.0195 -0.1021
  297DG     H14 6822   1.891   2.795   2.457 -1.0370  1.1098  2.1087
  297DG     H15 6823   2.429   2.487   2.701  0.4605  0.6872  0.4009
  297DG     H16 6824   2.307   2.561   2.819 -2.8301  2.5210 -0.5913
  297DG     C17 6825   2.094   2.718   2.516  0.4662 -0.5423  0.9901
  297DG     C18 6826   2.281   2.610   2.616 -0.3691  0.1771 -0.4836
  297DG     O19 6827   2.142   2.638   2.624  0.5470  0.2752  0.0399
  297DG     H20 6828   2.150   2.811   2.523  0.2485 -0.5135  2.7230
  297DG     H21 6829   2.103   2.677   2.415 -1.9334  0.5229  0.2775
  297DG     H22 6830   2.349   2.694   2.628 -0.8451  0.6045 -0.7544
  297DG     H23 6831   2.304   2.564   2.519  0.3097 -0.3523 -0.0840
  298DG      C1 6832   5.080   0.761   3.136  0.4023 -0.6917 -0.4893
  298DG      C2 6833   5.251   0.630   3.848  0.5507 -0.4280  0.7761
  298DG      H3 6834   5.164   0.698   3.107 -0.1466 -2.2923  1.2140
  298DG      H4 6835   5.081   0.852   3.075  2.3172 -1.3340 -1.4939
  298DG      H5 6836   4.982   0.713   3.133  0.5103 -0.8829 -1.1719
  298DG      H6 6837   5.321   0.692   3.904 -2.6005  3.4487  0.9029
  298DG      H7 6838   5.176   0.586   3.915  3.0752 -3.0186  2.1127
  298DG      H8 6839   5.312   0.548   3.811  2.6589  1.7055 -0.7621
  298DG      O9 6840   5.112   0.795   3.273 -0.4439  0.1982  0.2324
  298DG     O10 6841   5.210   0.707   3.735  0.4308  0.1046 -0.2116
  298DG     C11 6842   5.021   0.894   3.325 -0.2294 -0.0968 -0.5429
  298DG     C12 6843   5.139   0.828   3.787 -0.1122 -0.6012  1.1440
  298DG     H13 6844   4.923   0.850   3.339 -0.4480 -0.2801 -2.4461
  298DG     H14 6845   5.021   0.974   3.251  1.5508  0.0748 -0.3963
  298DG     H15 6846   5.190   0.868   3.874  0.3620 -3.3621  2.2264
  298DG     H16 6847   5.033   0.807   3.802 -0.9296  0.2556 -2.3107
  298DG     C17 6848   5.075   0.972   3.446 -0.2842  0.1265 -0.6953
  298DG     C18 6849   5.148   0.928   3.667 -0.7617  0.0035  0.0371
  298DG     O19 6850   5.092   0.871   3.552  0.0991  0.6687  0.1018
  298DG     H20 6851   5.021   1.057   3.486 -1.2236 -0.4506 -0.7063
  298DG     H21 6852   5.171   1.009   3.410 -0.1222  0.1689 -0.2228
  298DG     H22 6853   5.101   1.020   3.702  1.4132  0.5267  1.8126
  298DG     H23 6854   5.252   0.958   3.654 -0.8711  1.0629  1.2860
  299DG      C1 6855   4.165   3.017   0.399  0.3214  0.2467 -0.4108
  299DG      C2 6856   4.079   3.665   0.493  0.0553  0.0597  0.1500
  299DG      H3 6857   4.145   2.928   0.340  2.1987  0.4174 -1.3951
  299DG      H4 6858   4.250   2.992   0.463 -0.5072  1.4000  1.2388
  299DG      H5 6859   4.206   3.090   0.329  0.2521  1.4911  0.7932
  299DG      H6 6860   4.135   3.734   0.430  0.1474  0.9610  1.2029
  299DG      H7 6861   3.980   3.703   0.516  0.2070  0.6843 -0.2128
  299DG      H8 6862   4.127   3.646   0.589 -0.3695 -3.2869 -0.1787
  299DG      O9 6863   4.052   3.072   0.476  0.3087  0.1546 -0.1116
  299DG     O10 6864   4.081   3.534   0.435  0.1666 -0.0152  0.1342
  299DG     C11 6865   3.926   3.064   0.414 -0.3211 -0.1233  0.5372
  299DG     C12 6866   3.996   3.536   0.319  0.5763 -0.1419 -0.3311
  299DG     H13 6867   3.851   3.101   0.484  0.1224 -0.9010  1.4377
  299DG     H14 6868   3.897   2.962   0.389 -1.4037  0.0791  0.8913
  299DG     H15 6869   4.036   3.607   0.246 -2.2321  1.1322 -0.7707
  299DG     H16 6870   3.894   3.572   0.332  0.4645  0.3151 -2.1150
  299DG     C17 6871   3.923   3.164   0.295  0.0935  0.7435 -0.0837
  299DG     C18 6872   3.994   3.395   0.253 -0.4894  0.1721  0.3968
  299DG     O19 6873   3.950   3.292   0.345  0.5433  0.1792 -0.1485
  299DG     H20 6874   3.828   3.163   0.242 -0.7163  1.1424  1.3119
  299DG     H21 6875   4.001   3.138   0.223 -0.2754  0.3553 -0.3477
  299DG     H22 6876   3.935   3.384   0.162 -2.2919  2.4803  1.1837
  299DG     H23 6877   4.097   3.364   0.234 -1.1143 -1.1399 -1.2280
  300DG      C1 6878   1.915   5.425   0.920  0.3132  0.6415  0.1840
  300DG      C2 6879   1.968   5.794   1.447 -0.5210 -0.2462 -0.4688
  300DG      H3 6880   2.004   5.481   0.890  0.2593 -0.0652 -1.4400
  300DG      H4 6881   1.869   5.363   0.843  0.3753  1.2095 -0.3194
  300DG      H5 6882   1.960   5.346   0.980  0.0420  0.6679  0.4221
  300DG      H6 6883   1.948   5.901   1.454  2.6204  0.4969 -1.3039
  300DG      H7 6884   1.963   5.753   1.548 -3.0474  3.2663  1.0680
  300DG      H8 6885   2.065   5.802   1.397 -0.7105  3.6294 -0.5220
  300DG      O9 6886   1.832   5.494   1.005  0.3500  0.2039  0.6032
  300DG     O10 6887   1.876   5.739   1.355  0.5572  0.4157 -0.3179
  300DG     C11 6888   1.714   5.427   1.047 -0.2121 -0.0045  0.6197
  300DG     C12 6889   1.762   5.695   1.433 -1.1682  0.2301 -0.5707
  300DG     H13 6890   1.743   5.333   1.095 -0.6076  0.7760  2.4672
  300DG     H14 6891   1.649   5.417   0.960 -0.3170  2.1493  0.3963
  300DG     H15 6892   1.714   5.765   1.502  0.2670 -0.2987  1.0379
  300DG     H16 6893   1.793   5.613   1.498  0.3606 -1.7567 -3.5755
  300DG     C17 6894   1.626   5.512   1.147 -0.5881  0.3389 -0.1526
  300DG     C18 6895   1.664   5.655   1.327  0.5129  0.3085 -0.2872
  300DG     O19 6896   1.719   5.551   1.251 -0.5849  0.1165 -0.0347
  300DG     H20 6897   1.534   5.459   1.173  1.2035 -1.4613  3.1540
  300DG     H21 6898   1.594   5.594   1.083 -0.0549  0.3417 -0.4206
  300DG     H22 6899   1.568   5.627   1.369  0.0878 -1.2847 -2.1473
  300DG     H23 6900   1.640   5.738   1.261 -0.7897 -1.0207 -1.5541
  301THF     O1 6901   4.772   0.875   4.632  0.3291 -0.0101  0.9180
  301THF     C2 6902   4.637   0.911   4.604 -0.3871  1.3693 -0.1343
  301THF     C3 6903   4.832   1.000   4.678  0.5347  0.4312 -0.3151
  301THF     H4 6904   4.562   0.904   4.683 -0.0554 -2.9382  0.0510
  301THF     H5 6905   4.618   0.829   4.534  4.5493  1.0331 -1.4704
  301THF     H6 6906   4.859   0.989   4.783  1.7715 -2.0537 -0.8240
  301THF     H7 6907   4.928   1.005   4.626  1.0398  1.1630  0.6662
  301THF     C8 6908   4.740   1.117   4.648  0.5643  0.0197  0.3252
  301THF     C9 6909   4.643   1.052   4.551  0.1647 -0.4561  0.6483
  301THF    H10 6910   4.795   1.197   4.599  0.6215 -0.8286 -1.0285
  301THF    H11 6911   4.686   1.146   4.738 -0.3647 -0.6977  0.0149
  301THF    H12 6912   4.541   1.092   4.554 -0.1527 -1.1822 -0.1421
  301THF    H13 6913   4.678   1.057   4.448  1.9799  1.2487  1.2800
  302THF     O1 6914   3.579   3.163   0.961 -0.4356 -0.1143  0.5568
  302THF     C2 6915   3.562   3.021   0.948 -0.1971 -0.5448 -0.2197
  302THF     C3 6916   3.509   3.209   0.846 -0.4728  0.6144  0.6334
  302THF     H4 6917   3.463   3.001   0.990 -0.2353  0.1170  0.0207
  302THF     H5 6918   3.637   2.977   1.014 -0.5456  1.9350  1.9952
  302THF     H6 6919   3.404   3.190   0.870  0.0828  0.2284  2.9955
  302THF     H7 6920   3.530   3.314   0.825  1.4123  0.1000 -0.2966
  302THF     C8 6921   3.553   3.109   0.733  0.5066 -0.1150  0.1546
  302THF     C9 6922   3.581   2.981   0.805 -0.3257 -0.5326  1.1094
  302THF    H10 6923   3.639   3.151   0.679  0.0984 -0.6755 -0.9759
  302THF    H11 6924   3.475   3.102   0.657  2.6591 -1.2485 -2.1470
  302THF    H12 6925   3.513   2.903   0.770  0.6913 -0.5163 -1.0480
  302THF    H13 6926   3.684   2.955   0.781 -0.3079 -0.2213  0.8387
  303THF     O1 6927   3.996   3.520   1.215 -0.7609  0.3428  0.0868
  303THF     C2 6928   3.993   3.379   1.239 -0.0245 -0.0491  0.5946
  303THF     C3 6929   3.863   3.565   1.192 -0.0552  0.1802 -0.1421
  303THF     H4 6930   4.084   3.359   1.296 -0.9393 -0.1405  2.0685
  303THF     H5 6931   3.994   3.336   1.139  1.0426 -2.2307  1.4827
  303THF     H6 6932   3.850   3.672   1.201  1.7178  0.3050  1.8152
  303THF     H7 6933   3.830   3.535   1.092  1.8477 -1.0669 -0.4478
  303THF     C8 6934   3.776   3.481   1.285 -0.6046 -0.3386 -0.2400
  303THF     C9 6935   3.863   3.360   1.323 -0.5646  0.1182  0.5177
  303THF    H10 6936   3.679   3.451   1.246 -0.9679 -0.1515  0.5048
  303THF    H11 6937   3.755   3.537   1.376  0.5749  0.0777 -0.2023
  303THF    H12 6938   3.885   3.359   1.430  0.0106 -1.0651  0.4026
  303THF    H13 6939   3.807   3.269   1.301  0.2065 -0.0134 -1.0250
  304THF     O1 6940   2.492   4.377   2.609  0.1578  0.2447 -0.6346
  304THF     C2 6941   2.383   4.352   2.703  0.6079  0.8285  0.1439
  304THF     C3 6942   2.447   4.388   2.479 -0.1224 -0.6267 -0.0959
  304THF     H4 6943   2.357   4.445   2.754 -0.0262 -0.2499  1.8706
  304THF     H5 6944   2.419   4.289   2.784 -0.7105 -1.3915 -0.8880
  304THF     H6 6945   2.402   4.483   2.447 -0.7417 -0.8984 -0.0465
  304THF     H7 6946   2.536   4.380   2.416  0.4101 -3.8331  0.9027
  304THF     C8 6947   2.348   4.278   2.474 -0.1291  0.2686 -0.0557
  304THF     C9 6948   2.273   4.292   2.609 -0.4869  0.2554  0.4630
  304THF    H10 6949   2.413   4.191   2.460 -0.8718 -0.3285  0.1130
  304THF    H11 6950   2.271   4.280   2.396 -1.3227 -5.0518  0.5988
  304THF    H12 6951   2.200   4.371   2.593  1.3849  1.7089 -1.7197
  304THF    H13 6952   2.219   4.208   2.650 -1.6648  0.7248 -0.0876
  305THF     O1 6953   0.834   4.585   4.413  0.0138  0.4517 -0.2235
  305THF     C2 6954   0.885   4.540   4.542 -0.5631 -0.2259 -0.2933
  305THF     C3 6955   0.745   4.483   4.364  0.0624 -0.2508  0.3512
  305THF     H4 6956   0.814   4.553   4.624 -0.9929 -1.9932 -0.3375
  305THF     H5 6957   0.984   4.584   4.546 -0.9254  0.9002 -2.4198
  305THF     H6 6958   0.648   4.482   4.415 -0.8075 -0.5006 -1.2426
  305THF     H7 6959   0.731   4.495   4.256  2.4697  1.7609  0.1815
  305THF     C8 6960   0.818   4.352   4.404  1.1851  0.0964 -0.5188
  305THF     C9 6961   0.907   4.388   4.523 -0.4404  0.7487  0.6759
  305THF    H10 6962   0.880   4.314   4.323 -2.4660 -3.5061 -1.9515
  305THF    H11 6963   0.752   4.267   4.421  1.2905  0.1058 -0.0193
  305THF    H12 6964   0.865   4.331   4.606  0.5040 -0.7421  0.1899
  305THF    H13 6965   1.011   4.355   4.522 -0.5709  0.2740  1.5422
  306THF     O1 6966   4.065   1.030   3.186  0.1742 -0.3555  0.1103
  306THF     C2 6967   4.100   0.978   3.060  0.2732 -0.0779  0.8436
  306THF     C3 6968   4.106   1.165   3.178 -0.6455 -0.9010 -0.3330
  306THF     H4 6969   4.049   0.883   3.045 -0.5764 -0.0803  3.2420
  306THF     H5 6970   4.207   0.962   3.047  0.0620 -0.3165 -0.7919
  306THF     H6 6971   4.073   1.217   3.267  0.2176  2.2385 -1.6954
  306THF     H7 6972   4.213   1.176   3.157 -1.1200  0.8345 -2.1660
  306THF     C8 6973   4.035   1.215   3.051 -0.3214 -0.3196 -0.0794
  306THF     C9 6974   4.042   1.090   2.966 -0.1423 -0.0607 -0.0038
  306THF    H10 6975   4.088   1.303   3.015  0.4593  1.3102  4.3476
  306THF    H11 6976   3.930   1.237   3.067 -0.7400 -1.5165 -1.0300
  306THF    H12 6977   3.943   1.074   2.924 -0.1902  0.7072 -0.1959
  306THF    H13 6978   4.106   1.110   2.880 -0.7984  2.7389  0.0561
  307THF     O1 6979   5.212   1.500   2.174 -0.3320  0.0191 -0.0690
  307THF     C2 6980   5.098   1.548   2.108 -0.7022 -0.0879 -0.1811
  307THF     C3 6981   5.254   1.377   2.109  0.3837  0.4046 -0.0824
  307THF     H4 6982   5.095   1.652   2.141 -0.1700 -0.3033  0.5776
  307THF     H5 6983   5.009   1.489   2.130  0.2931 -1.3713  0.5467
  307THF     H6 6984   5.362   1.392   2.108  0.7538 -1.7822 -2.1951
  307THF     H7 6985   5.221   1.285   2.156  2.1310  0.3017  1.0690
  307THF     C8 6986   5.210   1.396   1.966  0.0518  0.2413  0.4519
  307THF     C9 6987   5.134   1.525   1.961  0.3583 -0.0488  0.0970
  307THF    H10 6988   5.146   1.313   1.936  0.9623 -0.3444  0.0894
  307THF    H11 6989   5.287   1.388   1.889 -2.1441 -0.6876 -1.8266
  307THF    H12 6990   5.185   1.610   1.916  2.1607 -0.2570  1.5985
  307THF    H13 6991   5.037   1.523   1.913 -0.9994  2.1562  2.5107
  308THF     O1 6992   3.074   0.992   4.186  0.5913 -0.0741 -0.4607
  308THF     C2 6993   2.991   0.879   4.187 -0.6410 -0.5387  0.0697
  308THF     C3 6994   3.132   1.008   4.315 -0.2982 -0.1928 -0.2311
  308THF     H4 6995   2.970   0.852   4.084  0.3519 -0.9151 -0.0473
  308THF     H5 6996   2.897   0.907   4.235  0.1551  1.1270  0.7120
  308THF     H6 6997   3.229   1.056   4.312 -0.1433 -0.5506 -1.1051
  308THF     H7 6998   3.076   1.081   4.375  2.2327 -0.4820  2.7082
  308THF     C8 6999   3.146   0.868   4.373  0.0439  0.0912  0.0691
  308THF     C9 7000   3.080   0.782   4.266 -0.1883  0.0538  0.4973
  308THF    H10 7001   3.091   0.878   4.466  1.4475 -0.3517  0.9709
  308THF    H11 7002   3.246   0.832   4.399  0.0484  0.7735  1.0185
  308THF    H12 7003   3.148   0.746   4.189 -2.0873 -0.4634 -1.0180
  308THF    H13 7004   3.030   0.697   4.313 -0.3169 -1.3443 -2.0070
  309THF     O1 7005   3.989   1.806   3.212 -0.4147  0.4945 -0.2531
  309THF     C2 7006   3.925   1.715   3.125 -0.2505  0.0464  1.1352
  309THF     C3 7007   3.906   1.911   3.229  1.1208  0.0305 -0.0357
  309THF     H4 7008   3.854   1.651   3.178  0.6335 -1.2265  0.8280
  309THF     H5 7009   3.999   1.655   3.073 -0.9349 -0.3501  0.5980
  309THF     H6 7010   3.827   1.882   3.299  0.7943 -0.1975 -0.4934
  309THF     H7 7011   3.956   1.996   3.276  0.0462  0.1365  0.9713
  309THF     C8 7012   3.864   1.945   3.084 -0.9755 -0.3798  0.4194
  309THF     C9 7013   3.841   1.802   3.028 -0.5298 -0.2234 -0.3813
  309THF    H10 7014   3.945   1.986   3.024  0.2505 -3.7912 -0.5003
  309THF    H11 7015   3.778   2.012   3.081 -0.9391 -0.2914 -2.8922
  309THF    H12 7016   3.734   1.780   3.019 -0.5397 -0.5172  0.3426
  309THF    H13 7017   3.873   1.795   2.925 -3.2968 -1.4524 -1.2625
  310THF     O1 7018   2.574   4.265   1.457 -0.3767  0.3635 -0.2175
  310THF     C2 7019   2.610   4.355   1.568  0.3263 -0.3563 -0.0002
  310THF     C3 7020   2.645   4.141   1.472  0.2049 -0.2052 -0.0990
  310THF     H4 7021   2.530   4.365   1.641  0.4131 -1.2233  0.2296
  310THF     H5 7022   2.623   4.454   1.524 -0.5683 -0.3338 -0.2328
  310THF     H6 7023   2.583   4.080   1.537 -1.0215  1.0743 -0.0180
  310THF     H7 7024   2.652   4.082   1.380  0.0747 -0.2386 -0.0879
  310THF     C8 7025   2.775   4.188   1.545 -0.1117  0.3764  0.0564
  310THF     C9 7026   2.733   4.298   1.642  0.2562 -0.1026  0.1221
  310THF    H10 7027   2.849   4.234   1.479  2.6844 -1.7812  1.4661
  310THF    H11 7028   2.821   4.098   1.585 -1.1233 -0.1168  0.1316
  310THF    H12 7029   2.702   4.271   1.743 -1.0401  1.2625  0.1355
  310THF    H13 7030   2.809   4.376   1.647 -0.3252  0.7892 -2.7944
  311THF     O1 7031   5.357   4.560   5.221 -0.5291  0.4630 -0.8138
  311THF     C2 7032   5.232   4.573   5.165  0.1106 -1.0732  0.2649
  311THF     C3 7033   5.417   4.688   5.232 -0.2933 -0.8125  1.0182
  311THF     H4 7034   5.180   4.478   5.168  1.2324 -1.6755  1.3717
  311THF     H5 7035   5.245   4.613   5.064  1.3823 -0.4841  0.6436
  311THF     H6 7036   5.507   4.694   5.293  1.1959  0.6635 -1.2163
  311THF     H7 7037   5.427   4.739   5.137 -1.7661  0.4797  1.5026
  311THF     C8 7038   5.303   4.766   5.296 -0.5876 -0.2832 -0.4558
  311THF     C9 7039   5.180   4.683   5.266  0.2710  0.7209  0.4578
  311THF    H10 7040   5.293   4.864   5.249 -2.0046  0.7871  1.9196
  311THF    H11 7041   5.317   4.770   5.404 -1.2838  0.8353 -0.3841
  311THF    H12 7042   5.144   4.635   5.357  1.8065 -2.1501 -0.3028
  311THF    H13 7043   5.098   4.732   5.214 -1.0062  0.3981  2.0910
  312THF     O1 7044   2.233   2.298   0.649 -0.5313  0.1932 -0.0927
  312THF     C2 7045   2.150   2.368   0.747  0.6398 -0.0116  0.2859
  312THF     C3 7046   2.187   2.329   0.519 -0.0919 -0.0756  0.0175
  312THF     H4 7047   2.200   2.459   0.782  2.1864 -1.2624  1.5548
  312THF     H5 7048   2.122   2.314   0.838 -1.0778  0.1758 -0.1037
  312THF     H6 7049   2.237   2.417   0.479 -1.8236  1.2721  0.6450
  312THF     H7 7050   2.207   2.246   0.452 -0.7204 -1.4323  1.4309
  312THF     C8 7051   2.030   2.356   0.541 -0.1797  0.2634 -0.5397
  312THF     C9 7052   2.025   2.416   0.682  0.3996  0.4995 -0.0410
  312THF    H10 7053   1.980   2.259   0.546 -0.4076  0.4037 -0.0031
  312THF    H11 7054   1.979   2.411   0.462 -2.2577  0.1313  0.6194
  312THF    H12 7055   2.024   2.525   0.680  1.4479  0.5274  0.3019
  312THF    H13 7056   1.941   2.381   0.742  0.9797 -0.1940  0.3863
  313THF     O1 7057   0.275   0.800   3.800 -1.1176 -0.0037  0.0962
  313THF     C2 7058   0.143   0.794   3.848 -0.8710 -0.5343 -0.3733
  313THF     C3 7059   0.352   0.691   3.839  0.2830  0.2018 -0.2051
  313THF     H4 7060   0.087   0.732   3.778 -0.7195 -0.3438 -0.6606
  313THF     H5 7061   0.105   0.896   3.854 -0.0310 -0.2862  2.5815
  313THF     H6 7062   0.374   0.611   3.768 -0.5573  0.1337 -0.3966
  313THF     H7 7063   0.451   0.719   3.877 -1.3772  1.5513  3.6062
  313THF     C8 7064   0.280   0.631   3.961 -0.3057  0.0092  0.1768
  313THF     C9 7065   0.177   0.738   3.984  0.1437  0.5186  0.2311
  313THF    H10 7066   0.351   0.618   4.043  0.3377 -1.3729 -0.5525
  313THF    H11 7067   0.228   0.536   3.945  0.0623 -0.4803  1.7158
  313THF    H12 7068   0.087   0.698   4.031 -1.0537 -0.0475 -2.3665
  313THF    H13 7069   0.211   0.826   4.040  0.2376 -0.4767  1.8001
  314THF     O1 7070   2.063   1.604   1.266 -0.0541  0.4789  0.0559
  314THF     C2 7071   2.064   1.470   1.204 -0.1515  0.7233 -0.7393
  314THF     C3 7072   2.184   1.611   1.347  0.2430 -0.2231  0.2917
  314THF     H4 7073   2.142   1.470   1.128  0.7661  0.7436  0.1710
  314THF     H5 7074   1.967   1.436   1.169 -1.2249  2.0684  0.7653
  314THF     H6 7075   2.274   1.627   1.288 -0.9703 -1.9757 -2.2309
  314THF     H7 7076   2.173   1.692   1.419 -1.2898 -0.3509  0.2417
  314THF     C8 7077   2.190   1.484   1.418 -0.6103  0.3046 -0.2014
  314THF     C9 7078   2.106   1.391   1.323 -0.0028  0.5522 -0.5077
  314THF    H10 7079   2.147   1.503   1.517  1.3529  1.6450  0.4643
  314THF    H11 7080   2.290   1.452   1.446 -0.2480  1.1805 -0.4434
  314THF    H12 7081   2.154   1.305   1.277 -2.2996 -1.1517  0.1040
  314THF    H13 7082   2.011   1.354   1.364  0.0576  2.6495  1.8175
  315THF     O1 7083   3.467   5.068   0.479  0.7457  0.3752  0.6173
  315THF     C2 7084   3.531   5.157   0.393  0.0241 -0.1151  0.9929
  315THF     C3 7085   3.438   5.132   0.603  0.5057  0.2929  0.2742
  315THF     H4 7086   3.475   5.192   0.307  2.0073 -0.4536 -0.5196
  315THF     H5 7087   3.628   5.123   0.355  0.0816  0.5611  0.5130
  315THF     H6 7088   3.343   5.097   0.641 -0.5911  1.6399 -1.1105
  315THF     H7 7089   3.513   5.101   0.676  1.1535  0.2411 -0.3891
  315THF     C8 7090   3.437   5.282   0.576  0.2149 -0.1594  0.3282
  315THF     C9 7091   3.549   5.287   0.474  0.0392 -0.1729 -0.0342
  315THF    H10 7092   3.438   5.338   0.669  0.6853 -0.5467  0.5576
  315THF    H11 7093   3.347   5.314   0.523  0.9410  0.5887 -0.4730
  315THF    H12 7094   3.535   5.371   0.406 -1.8786 -0.5662 -0.1908
  315THF    H13 7095   3.648   5.294   0.518  0.0105  0.3904 -0.0551
  316THF     O1 7096   1.122   4.047   5.337 -0.5971  0.2331  0.4599
  316THF     C2 7097   1.035   3.958   5.270 -0.1656  0.3623 -0.5111
  316THF     C3 7098   1.063   4.104   5.458 -0.1184 -0.4098  0.4529
  316THF     H4 7099   1.075   3.857   5.257  1.0755  1.0459 -2.3565
  316THF     H5 7100   1.018   4.005   5.174 -1.0521  0.0166 -0.5299
  316THF     H6 7101   1.076   4.045   5.548 -2.6202  0.5818  1.5659
  316THF     H7 7102   1.104   4.204   5.472  2.0059 -0.6946 -2.6673
  316THF     C8 7103   0.916   4.102   5.420 -0.1059 -0.0473  0.2219
  316THF     C9 7104   0.909   3.968   5.352 -0.1432  0.7039  0.4494
  316THF    H10 7105   0.884   4.189   5.362  2.7492  0.3289 -0.9875
  316THF    H11 7106   0.853   4.111   5.508  0.3022  0.0301  0.5118
  316THF    H12 7107   0.890   3.886   5.421 -0.9887  0.7186  0.2370
  316THF    H13 7108   0.824   3.966   5.284 -0.4171 -1.0141  0.8077
  317THF     O1 7109   3.088   3.796   4.083 -0.1313 -0.8194  0.1759
  317THF     C2 7110   3.045   3.933   4.065 -0.2795 -0.3569  0.3036
  317THF     C3 7111   3.231   3.801   4.097 -0.6596  0.3410 -0.1306
  317THF     H4 7112   3.058   3.986   4.159  0.9049  0.9848 -0.5649
  317THF     H5 7113   2.940   3.940   4.036 -0.5780  1.9162  1.6860
  317THF     H6 7114   3.260   3.816   4.201 -1.3087 -1.9422  0.4389
  317THF     H7 7115   3.277   3.711   4.056 -1.7185 -0.0272 -0.5652
  317THF     C8 7116   3.278   3.922   4.012  0.6600 -1.5145 -0.5138
  317THF     C9 7117   3.144   3.987   3.965 -0.1781 -0.4634 -0.2594
  317THF    H10 7118   3.328   3.894   3.920 -2.7248 -1.1178 -2.6363
  317THF    H11 7119   3.327   3.998   4.074 -1.9864  2.2947 -2.6224
  317THF    H12 7120   3.151   4.095   3.955  0.0543 -0.6512 -2.7988
  317THF    H13 7121   3.121   3.950   3.866 -0.6555  0.5875 -0.5583
  318THF     O1 7122   0.992   3.849   1.520 -0.2687  0.1825 -0.4122
  318THF     C2 7123   1.099   3.860   1.430 -0.1746  0.3076 -0.0824
  318THF     C3 7124   0.869   3.881   1.455 -0.0607  0.4787 -0.5221
  318THF     H4 7125   1.149   3.765   1.411  0.0473  0.2556  0.6983
  318THF     H5 7126   1.176   3.926   1.470 -0.3784 -0.0257  0.9025
  318THF     H6 7127   0.779   3.833   1.493 -0.2106  2.1052  1.3940
  318THF     H7 7128   0.858   3.987   1.477 -0.5824  0.1519  0.9690
  318THF     C8 7129   0.893   3.846   1.311  0.1474 -0.0452  0.1237
  318THF     C9 7130   1.036   3.906   1.301  0.3812  0.8498  0.0217
  318THF    H10 7131   0.816   3.902   1.258 -1.1777 -2.2899 -0.4613
  318THF    H11 7132   0.886   3.737   1.303 -1.4708  0.0640 -0.3842
  318THF    H12 7133   1.097   3.867   1.219 -1.8035 -1.5355 -0.5999
  318THF    H13 7134   1.028   4.015   1.303 -5.2189  0.7509 -0.5303
  319THF     O1 7135   4.912   2.693   4.291  0.1575 -0.4996 -0.0088
  319THF     C2 7136   4.997   2.805   4.307  0.0778 -0.5616  0.0924
  319THF     C3 7137   4.785   2.737   4.257  0.4244 -0.0227  0.5212
  319THF     H4 7138   5.048   2.842   4.219 -0.5642 -0.8964 -0.4264
  319THF     H5 7139   5.078   2.787   4.378  0.6582  0.8469 -0.1814
  319THF     H6 7140   4.767   2.725   4.150  0.2199  1.0679  0.4227
  319THF     H7 7141   4.721   2.669   4.312 -0.9363  0.1603 -0.7655
  319THF     C8 7142   4.774   2.891   4.278 -0.3145 -0.1456 -0.3505
  319THF     C9 7143   4.891   2.907   4.368 -0.4771 -0.0916  0.8524
  319THF    H10 7144   4.675   2.913   4.318 -0.5955  0.3732 -1.2962
  319THF    H11 7145   4.798   2.948   4.188 -0.9509 -1.1099 -1.1488
  319THF    H12 7146   4.924   3.011   4.362  2.1318 -0.8877 -4.2531
  319THF    H13 7147   4.874   2.878   4.471  2.3806 -0.8357  1.1979
  320THF     O1 7148   4.795   0.654   5.194 -0.1597  0.0664 -0.3362
  320THF     C2 7149   4.654   0.615   5.212 -1.5305 -1.0417  0.3221
  320THF     C3 7150   4.821   0.693   5.061 -0.4641  0.7843  0.5036
  320THF     H4 7151   4.586   0.698   5.229  0.7135  0.8864  0.3336
  320THF     H5 7152   4.649   0.556   5.304 -0.0606  0.8617  1.6849
  320THF     H6 7153   4.806   0.797   5.032 -1.7001  1.2169  2.4444
  320THF     H7 7154   4.923   0.668   5.035 -0.7072  1.3122 -1.0735
  320THF     C8 7155   4.732   0.601   4.983 -0.5452  0.0839 -0.0424
  320THF     C9 7156   4.645   0.525   5.082 -0.9953 -0.3077 -0.0171
  320THF    H10 7157   4.790   0.542   4.913 -2.4843  1.2209 -2.7784
  320THF    H11 7158   4.650   0.652   4.931 -2.3270 -3.9077 -1.5653
  320THF    H12 7159   4.544   0.509   5.046 -1.1925 -0.3969  0.5569
  320THF    H13 7160   4.701   0.435   5.107 -1.4850 -0.2200  1.5179
  321THF     O1 7161   5.479   2.527   0.953 -0.3767 -0.3706  0.4776
  321THF     C2 7162   5.359   2.487   1.012 -0.3489  0.6296  0.0926
  321THF     C3 7163   5.537   2.413   0.888  0.1536  0.0501  0.8478
  321THF     H4 7164   5.294   2.573   1.029 -2.1791 -0.9868  1.7876
  321THF     H5 7165   5.369   2.436   1.108  0.2765  1.8522  0.7054
  321THF     H6 7166   5.614   2.434   0.814 -0.8223  0.3546 -0.0915
  321THF     H7 7167   5.575   2.341   0.961  1.5948  0.2384  0.3200
  321THF     C8 7168   5.420   2.351   0.816  0.6378 -0.5087  0.0155
  321THF     C9 7169   5.298   2.386   0.901 -0.4627 -0.6295 -0.4091
  321THF    H10 7170   5.441   2.247   0.790  0.8291 -0.1374 -1.4077
  321THF    H11 7171   5.411   2.406   0.723 -1.0656  0.6990  0.8535
  321THF    H12 7172   5.207   2.423   0.855 -1.2661 -2.2956 -0.2280
  321THF    H13 7173   5.256   2.296   0.946 -1.4898 -0.4867 -1.0693
  322THF     O1 7174   0.389   3.950   2.945  0.1437 -0.6322 -0.5423
  322THF     C2 7175   0.368   4.069   2.864 -0.0978 -0.0724  0.2821
  322THF     C3 7176   0.296   3.948   3.053 -0.4690  0.5016 -0.5693
  322THF     H4 7177   0.364   4.022   2.766 -0.9936  0.0654  0.2394
  322THF     H5 7178   0.459   4.128   2.860  1.6405 -2.6669 -2.6177
  322THF     H6 7179   0.281   3.849   3.095  0.8486  0.8554  0.8290
  322THF     H7 7180   0.335   4.012   3.132  0.0085  2.4072 -2.2555
  322THF     C8 7181   0.170   4.020   3.002 -0.0168  0.7052  0.6504
  322THF     C9 7182   0.230   4.121   2.916  0.0124  0.1842  0.6129
  322THF    H10 7183   0.105   4.056   3.081 -0.4547  0.5750  0.3523
  322THF    H11 7184   0.113   3.950   2.941  1.2704  0.7660 -0.6908
  322THF    H12 7185   0.165   4.161   2.837 -1.1406 -2.2035  0.2860
  322THF    H13 7186   0.268   4.209   2.967  0.3476 -0.3593  1.3080
  323THF     O1 7187   0.033   3.592   1.209  0.1280 -0.5980  0.2347
  323THF     C2 7188   0.128   3.490   1.238  0.3437 -0.5058 -0.1730
  323THF     C3 7189   0.098   3.712   1.254  0.2796  0.1722 -0.6535
  323THF     H4 7190   0.209   3.495   1.166  0.7875 -2.1388  0.1513
  323THF     H5 7191   0.089   3.389   1.222 -0.1186 -0.6652  1.6899
  323THF     H6 7192   0.176   3.741   1.183  1.1767  0.0106  0.2373
  323THF     H7 7193   0.030   3.796   1.272  0.8330  0.6688 -0.8460
  323THF     C8 7194   0.159   3.673   1.387  0.6201  0.4989  0.0440
  323THF     C9 7195   0.172   3.521   1.384 -0.0454  0.5888  0.5011
  323THF    H10 7196   0.082   3.712   1.454 -0.4643  2.8849 -2.3987
  323THF    H11 7197   0.252   3.727   1.410  0.0117  1.7202 -0.2652
  323THF    H12 7198   0.274   3.487   1.396  0.1469  0.8229 -0.4570
  323THF    H13 7199   0.108   3.465   1.453 -0.5326  0.2032 -0.2490
  324THF     O1 7200   0.093   2.455   4.292  0.5446  0.3153  0.4269
  324THF     C2 7201   0.067   2.390   4.168 -0.2168 -0.4013  0.7338
  324THF     C3 7202   0.062   2.354   4.386  0.4386 -0.2290 -0.7421
  324THF     H4 7203   0.139   2.309   4.151 -1.0997 -1.3946  1.6011
  324THF     H5 7204   0.065   2.465   4.089 -1.5688 -1.0980  0.0825
  324THF     H6 7205   0.142   2.282   4.401  0.1046 -0.1060  1.9844
  324THF     H7 7206   0.058   2.406   4.481  2.3255  0.8497 -1.2018
  324THF     C8 7207  -0.076   2.310   4.341 -0.1470 -0.6189 -0.6633
  324THF     C9 7208  -0.062   2.324   4.188 -0.0874 -0.7278  0.0221
  324THF    H10 7209  -0.160   2.363   4.386  0.2298 -1.1093  0.6637
  324THF    H11 7210  -0.093   2.209   4.380  0.8480 -0.3803  0.4629
  324THF    H12 7211  -0.080   2.238   4.124  0.3307 -3.1634  2.9566
  324THF    H13 7212  -0.134   2.396   4.149  1.9350  1.1533 -0.5023
  325THF     O1 7213   2.306   1.887   4.540 -0.2767  0.0533 -0.3919
  325THF     C2 7214   2.340   1.928   4.411 -0.3151 -0.0488 -0.0863
  325THF     C3 7215   2.177   1.818   4.526  0.0421 -0.4828  1.5955
  325THF     H4 7216   2.387   1.848   4.354 -0.8829 -1.2844  1.1079
  325THF     H5 7217   2.422   1.999   4.413  0.8840 -1.3392 -1.2442
  325THF     H6 7218   2.194   1.719   4.482 -0.1955 -0.6395  1.8502
  325THF     H7 7219   2.132   1.807   4.625  0.2556 -1.9974  1.5595
  325THF     C8 7220   2.097   1.910   4.430 -0.4743 -0.6771 -1.1006
  325THF     C9 7221   2.209   1.978   4.350 -0.1327  0.0472 -0.3391
  325THF    H10 7222   2.053   1.997   4.479  2.0788  0.6350 -0.9151
  325THF    H11 7223   2.011   1.864   4.384 -0.7137 -2.0438  0.6128
  325THF    H12 7224   2.204   1.946   4.246 -0.9977 -3.1113  0.5847
  325THF    H13 7225   2.201   2.087   4.354  0.0777  0.0418  0.2177
  326THF     O1 7226   1.978   5.046   0.060  0.1635  0.3505 -0.1569
  326THF     C2 7227   2.006   4.909   0.098 -0.9978  0.4339 -0.1634
  326THF     C3 7228   2.025   5.126   0.172  0.3382 -0.4084  0.5385
  326THF     H4 7229   2.044   4.859   0.009 -0.8994 -0.4730  0.3775
  326THF     H5 7230   1.920   4.851   0.129  0.5057 -1.7365  0.1623
  326THF     H6 7231   2.044   5.226   0.135 -0.0507 -0.7230 -0.5364
  326THF     H7 7232   1.947   5.127   0.248  1.1133 -1.5939  1.3873
  326THF     C8 7233   2.154   5.056   0.216  0.3695  0.2877 -0.2411
  326THF     C9 7234   2.122   4.910   0.203  0.1879 -0.1181 -0.5178
  326THF    H10 7235   2.183   5.082   0.318  1.1070 -1.8749  0.1588
  326THF    H11 7236   2.237   5.075   0.147 -0.3316  1.9834 -0.6513
  326THF    H12 7237   2.204   4.842   0.180 -1.0319 -1.2680 -1.6616
  326THF    H13 7238   2.078   4.876   0.297 -1.7610 -1.9099 -1.9987
  327THF     O1 7239   1.613   3.190   1.747  0.3471  0.7425  0.3440
  327THF     C2 7240   1.493   3.206   1.661  0.3004  0.2061  0.0425
  327THF     C3 7241   1.584   3.135   1.870 -0.1042  0.3077  0.2534
  327THF     H4 7242   1.520   3.171   1.561 -1.4888  2.5922 -1.4136
  327THF     H5 7243   1.470   3.313   1.655  1.2640  0.4087 -0.3193
  327THF     H6 7244   1.670   3.082   1.911 -0.1101 -0.2665 -0.4708
  327THF     H7 7245   1.532   3.200   1.940  0.2090  0.4887  0.3222
  327THF     C8 7246   1.477   3.037   1.822  0.3587 -0.2551 -0.2302
  327THF     C9 7247   1.393   3.109   1.717 -0.1898 -0.1298 -0.3598
  327THF    H10 7248   1.407   2.991   1.891  1.7688  0.4941  1.7921
  327THF    H11 7249   1.522   2.948   1.777 -0.4854 -0.2235 -1.1804
  327THF    H12 7250   1.346   3.045   1.641 -2.3664  1.6430 -0.6171
  327THF    H13 7251   1.318   3.162   1.775 -0.7741  0.2178 -1.4034
  328THF     O1 7252   2.135   1.341   3.568  0.4457  0.2244 -0.0449
  328THF     C2 7253   2.230   1.253   3.512  0.7101 -0.1335  0.7664
  328THF     C3 7254   2.195   1.381   3.697  0.8337 -0.8265 -0.1907
  328THF     H4 7255   2.234   1.239   3.404  3.1581  0.1833  0.7634
  328THF     H5 7256   2.217   1.151   3.547  1.7549 -0.5406  0.0204
  328THF     H6 7257   2.145   1.476   3.718  0.8464 -0.8319 -0.1348
  328THF     H7 7258   2.190   1.302   3.772  0.2947 -1.3863 -0.8052
  328THF     C8 7259   2.342   1.397   3.680 -0.2577  0.3123 -0.5438
  328THF     C9 7260   2.367   1.298   3.565  0.1857 -0.7834  0.0195
  328THF    H10 7261   2.387   1.361   3.772 -0.1168 -1.0159 -1.1035
  328THF    H11 7262   2.370   1.498   3.649  0.2702  0.3282 -0.0070
  328THF    H12 7263   2.424   1.350   3.488  0.6532  0.2149  0.9969
  328THF    H13 7264   2.422   1.209   3.596 -1.4313 -1.2307  1.8026
  329THF     O1 7265   3.414   4.545   3.457  0.8647  0.6804 -0.3421
  329THF     C2 7266   3.421   4.660   3.554 -0.4540  0.6619  0.3976
  329THF     C3 7267   3.539   4.563   3.388  0.1217  1.0406 -0.8290
  329THF     H4 7268   3.343   4.639   3.627 -0.5050 -0.0677  0.1319
  329THF     H5 7269   3.398   4.755   3.507  0.2364  2.1440  2.8396
  329THF     H6 7270   3.574   4.468   3.349  1.6040  0.5651  1.4704
  329THF     H7 7271   3.531   4.631   3.303 -2.9075  0.1796 -1.3760
  329THF     C8 7272   3.644   4.605   3.495  0.7330  0.1927 -0.1848
  329THF     C9 7273   3.564   4.655   3.614  0.7277  0.9119  0.8019
  329THF    H10 7274   3.703   4.687   3.454  0.6897 -0.1656 -0.9818
  329THF    H11 7275   3.715   4.523   3.512 -0.3010 -0.3974  1.5697
  329THF    H12 7276   3.555   4.574   3.687 -1.4904  0.9464  0.6178
  329THF    H13 7277   3.600   4.739   3.674  0.7595  1.7231 -0.3391
  330THF     O1 7278   4.637   4.626   2.853 -0.4415  0.0097  0.9419
  330THF     C2 7279   4.677   4.682   2.981  0.6753 -0.5379  0.7121
  330THF     C3 7280   4.516   4.677   2.817  0.6614 -0.0912 -0.5550
  330THF     H4 7281   4.765   4.744   2.961  0.8264 -0.5975  1.1741
  330THF     H5 7282   4.711   4.609   3.055  1.1124 -0.6361  0.4146
  330THF     H6 7283   4.517   4.697   2.709  1.4428  1.4213 -0.2993
  330THF     H7 7284   4.444   4.599   2.842 -0.1261  0.6006 -0.6156
  330THF     C8 7285   4.485   4.803   2.897 -0.6450  0.4199 -1.1632
  330THF     C9 7286   4.553   4.762   3.028  0.0990 -0.7434 -0.3875
  330THF    H10 7287   4.379   4.826   2.907 -0.6497 -0.1669  0.4291
  330THF    H11 7288   4.539   4.887   2.853 -0.6386  1.3804  0.5911
  330THF    H12 7289   4.590   4.849   3.082 -0.8685 -0.8567  0.4885
  330THF    H13 7290   4.494   4.700   3.095 -0.6555  0.2112 -0.1368
  331THF     O1 7291   2.168   3.034   4.429 -0.0908 -0.0364 -0.2083
  331THF     C2 7292   2.303   3.068   4.465 -0.0464 -0.1941 -0.2899
  331THF     C3 7293   2.186   2.904   4.369 -0.3263  0.7570  1.1663
  331THF     H4 7294   2.304   3.144   4.542  0.9721 -0.6381  0.1528
  331THF     H5 7295   2.351   3.105   4.374  1.2571 -1.2531 -0.0667
  331THF     H6 7296   2.102   2.836   4.386  0.5458 -0.3024  1.3314
  331THF     H7 7297   2.213   2.924   4.265  3.0849 -1.4240  1.4987
  331THF     C8 7298   2.314   2.837   4.432 -0.2064 -0.2745  0.0563
  331THF     C9 7299   2.379   2.945   4.518 -0.0597 -1.0329  0.5697
  331THF    H10 7300   2.386   2.804   4.357  2.5214 -0.9588  2.7669
  331THF    H11 7301   2.290   2.750   4.495  0.3685 -0.9386 -0.6224
  331THF    H12 7302   2.372   2.916   4.623  6.5250 -2.7941  0.9941
  331THF    H13 7303   2.485   2.966   4.501  0.4825 -3.5404  0.3915
  332THF     O1 7304   2.845   1.272   4.691 -0.3485  0.6315 -0.0958
  332THF     C2 7305   2.884   1.268   4.556 -0.0143  0.3686  0.1680
  332THF     C3 7306   2.749   1.376   4.718  1.0616 -0.4231 -0.7380
  332THF     H4 7307   2.915   1.169   4.521 -0.0098  0.9432 -1.5234
  332THF     H5 7308   2.970   1.334   4.540  0.8239 -1.0340 -1.4294
  332THF     H6 7309   2.665   1.318   4.754  1.2101 -0.6083 -0.6882
  332THF     H7 7310   2.772   1.438   4.805  0.2628 -1.2232  0.0566
  332THF     C8 7311   2.719   1.440   4.586 -0.4507 -0.7416 -0.2274
  332THF     C9 7312   2.764   1.329   4.490 -0.4052  0.0207 -0.3040
  332THF    H10 7313   2.773   1.535   4.580 -1.9850  0.1216 -1.0824
  332THF    H11 7314   2.610   1.447   4.594 -0.4165 -1.4011  0.9968
  332THF    H12 7315   2.692   1.249   4.477  0.3674 -0.8842  0.7620
  332THF    H13 7316   2.797   1.367   4.393  1.5508 -2.6748 -0.8222
  333THF     O1 7317   2.237   2.684   0.429 -0.4598 -0.2211 -0.4939
  333THF     C2 7318   2.344   2.753   0.355 -0.1046 -0.1027 -0.1077
  333THF     C3 7319   2.236   2.740   0.558  0.5191 -0.0341 -0.7439
  333THF     H4 7320   2.325   2.750   0.248  0.2883  0.0371 -0.1852
  333THF     H5 7321   2.441   2.711   0.383  0.2065  0.3093 -0.5349
  333THF     H6 7322   2.142   2.710   0.603  0.8347  0.4163  0.2288
  333THF     H7 7323   2.318   2.694   0.614  1.1048  0.0404 -1.5165
  333THF     C8 7324   2.256   2.887   0.538 -0.0066 -0.7242 -0.2545
  333THF     C9 7325   2.333   2.895   0.407  0.3053  0.6214  0.1793
  333THF    H10 7326   2.314   2.929   0.620 -1.5730  1.2316 -0.0729
  333THF    H11 7327   2.159   2.937   0.532  0.5511  0.3565 -0.3943
  333THF    H12 7328   2.281   2.965   0.341  0.3763  0.6493  0.1539
  333THF    H13 7329   2.425   2.942   0.440  1.0560  0.1752 -1.2287
  334THF     O1 7330   2.005   3.978   0.034  0.5192 -0.1553 -0.3359
  334THF     C2 7331   2.104   3.967   0.136 -0.0043  0.3998  0.1125
  334THF     C3 7332   2.037   3.880  -0.066  0.1914 -0.0769 -0.3388
  334THF     H4 7333   2.065   4.008   0.228 -1.0017  1.8862 -0.9208
  334THF     H5 7334   2.195   4.023   0.111 -1.8754  2.6266 -2.4622
  334THF     H6 7335   1.942   3.857  -0.114 -0.0493 -1.2241  0.6476
  334THF     H7 7336   2.110   3.932  -0.127  0.9352  1.0140  1.4234
  334THF     C8 7337   2.092   3.760   0.009  0.4043  0.4192 -0.3210
  334THF     C9 7338   2.127   3.815   0.149 -0.6147  0.0900  0.5445
  334THF    H10 7339   2.178   3.729  -0.050  0.4781  0.2789 -0.1425
  334THF    H11 7340   2.026   3.674   0.019  3.9791 -2.4868  0.3716
  334THF    H12 7341   2.052   3.773   0.215 -0.6422 -0.9183 -0.1133
  334THF    H13 7342   2.225   3.781   0.183 -0.5279  0.6445  0.8643
  335THF     O1 7343   3.237   4.076   5.239 -0.3673 -0.0352  0.1701
  335THF     C2 7344   3.104   4.019   5.235 -0.8257  0.2410  0.2067
  335THF     C3 7345   3.314   4.019   5.351  0.1438 -0.4772 -0.1611
  335THF     H4 7346   3.117   3.922   5.186  2.6768  0.9090 -0.4298
  335THF     H5 7347   3.030   4.079   5.183 -0.7717 -0.7323 -1.0392
  335THF     H6 7348   3.386   3.940   5.330 -0.3001 -0.9330 -0.0202
  335THF     H7 7349   3.366   4.102   5.397 -0.7459 -0.6230  1.1836
  335THF     C8 7350   3.213   3.951   5.440  0.4394 -0.7156  0.4462
  335THF     C9 7351   3.076   4.004   5.384  0.1850  0.2265 -0.1451
  335THF    H10 7352   3.219   3.976   5.546  0.7909  0.0538  0.2502
  335THF    H11 7353   3.210   3.842   5.435 -1.6090 -0.8218  2.5638
  335THF    H12 7354   2.998   3.933   5.408 -0.5468  0.7002 -1.0690
  335THF    H13 7355   3.046   4.100   5.425  1.1993  0.9417 -1.0024
  336THF     O1 7356   1.094   1.797   0.345 -0.2125 -0.2800 -1.0163
  336THF     C2 7357   1.199   1.713   0.352 -0.0007  0.1269 -0.2804
  336THF     C3 7358   1.052   1.799   0.208  0.0363  0.5054 -0.5454
  336THF     H4 7359   1.211   1.659   0.446 -1.1950 -0.7140 -0.5902
  336THF     H5 7360   1.292   1.758   0.318  1.2260 -0.3325  2.2140
  336THF     H6 7361   0.944   1.815   0.212 -0.0229 -0.0827  2.6863
  336THF     H7 7362   1.097   1.888   0.164 -0.5564  1.6608  1.0829
  336THF     C8 7363   1.097   1.670   0.142  0.2293 -0.1603  0.4596
  336THF     C9 7364   1.163   1.601   0.257  0.0246 -0.3519  0.0579
  336THF    H10 7365   1.167   1.676   0.059 -0.0206  1.3970  0.3425
  336THF    H11 7366   1.010   1.615   0.104  1.3237 -1.1826 -0.6519
  336THF    H12 7367   1.105   1.527   0.314  0.3257 -2.1498 -1.8744
  336THF    H13 7368   1.253   1.549   0.224 -0.1235 -0.8014  0.3476
  337THF     O1 7369   2.082   5.006   3.183  0.0702 -0.9077  0.5609
  337THF     C2 7370   1.989   5.112   3.213 -0.3197  0.4369  0.1282
  337THF     C3 7371   2.210   5.057   3.232 -0.1625  0.5686 -0.0109
  337THF     H4 7372   1.887   5.077   3.201  0.2975 -1.4999  0.2230
  337THF     H5 7373   1.993   5.196   3.143 -0.7817  0.1311 -0.2732
  337THF     H6 7374   2.270   4.981   3.283 -0.3694  1.8807  2.3305
  337THF     H7 7375   2.268   5.092   3.147 -1.2063 -0.2933 -1.1208
  337THF     C8 7376   2.172   5.157   3.345 -0.2047  0.0961 -0.0258
  337THF     C9 7377   2.022   5.163   3.353 -0.0300 -0.1850 -0.3708
  337THF    H10 7378   2.199   5.262   3.332 -0.6904  0.2050 -0.1764
  337THF    H11 7379   2.195   5.117   3.444 -2.5572 -0.4556  0.3500
  337THF    H12 7380   1.985   5.113   3.442  1.0882  0.0133  0.2300
  337THF    H13 7381   1.992   5.265   3.380  0.4912 -0.4503  1.3583
  338THF     O1 7382   5.424   1.146   3.693  0.9229  0.0496 -0.4696
  338THF     C2 7383   5.481   1.274   3.666 -0.5245 -0.0826  0.0418
  338THF     C3 7384   5.423   1.132   3.834 -0.9657  0.2995 -0.0732
  338THF     H4 7385   5.463   1.314   3.566 -0.1344  0.9587  0.3687
  338THF     H5 7386   5.589   1.269   3.683 -0.2495  0.2103 -1.4039
  338THF     H6 7387   5.347   1.059   3.865 -1.4429  0.1790 -1.4389
  338THF     H7 7388   5.519   1.099   3.874 -1.3184 -1.1797 -0.3783
  338THF     C8 7389   5.397   1.274   3.890  0.0258  0.0828  0.5178
  338THF     C9 7390   5.419   1.364   3.776 -0.3053  0.2926  0.1132
  338THF    H10 7391   5.464   1.309   3.969  1.0762 -0.7003  0.0101
  338THF    H11 7392   5.296   1.278   3.930 -0.0938  0.4375  0.1858
  338THF    H12 7393   5.325   1.413   3.749  0.2088  0.6284 -1.1082
  338THF    H13 7394   5.478   1.451   3.804 -1.1334  1.1584 -0.7673
  339THF     O1 7395   4.410   1.665   3.377  0.3870  0.0670  1.2597
  339THF     C2 7396   4.473   1.679   3.506  0.3025 -0.0857  0.2909
  339THF     C3 7397   4.462   1.551   3.317 -0.0597 -0.4722  0.3204
  339THF     H4 7398   4.402   1.741   3.562 -0.2197 -0.9583  0.6215
  339THF     H5 7399   4.570   1.726   3.490  1.2602 -2.2172 -0.5672
  339THF     H6 7400   4.424   1.500   3.228  0.9128  0.4461 -0.6414
  339THF     H7 7401   4.566   1.566   3.288 -0.2297 -1.4128 -0.8357
  339THF     C8 7402   4.471   1.446   3.430  0.6837 -0.2670 -0.0622
  339THF     C9 7403   4.498   1.535   3.554  0.5797 -0.3858  0.4207
  339THF    H10 7404   4.546   1.374   3.397 -0.1387 -0.4902 -1.5474
  339THF    H11 7405   4.372   1.403   3.439  0.2115  1.0610  1.3594
  339THF    H12 7406   4.422   1.513   3.629  0.2498  1.8632  0.8378
  339THF    H13 7407   4.596   1.520   3.601  0.4083  2.1515  1.7522
  340THF     O1 7408   4.920   0.072   4.890 -0.1144 -0.6321  0.6728
  340THF     C2 7409   5.025   0.021   4.976 -0.4829  0.0998 -1.1332
  340THF     C3 7410   4.844   0.159   4.966 -0.0012 -0.0728 -0.1762
  340THF     H4 7411   5.101   0.099   4.983  0.0915 -0.5464  0.2807
  340THF     H5 7412   5.084  -0.056   4.928  1.6605  1.0127 -0.0755
  340THF     H6 7413   4.866   0.264   4.947  0.5591 -0.1096  0.2584
  340THF     H7 7414   4.740   0.144   4.935  0.5121 -1.4827 -1.3025
  340THF     C8 7415   4.855   0.119   5.110  0.2619  0.4464 -0.0003
  340THF     C9 7416   4.955   0.003   5.110 -0.1380  0.3243 -0.2755
  340THF    H10 7417   4.754   0.101   5.145  0.3238 -1.1029 -0.5368
  340THF    H11 7418   4.907   0.196   5.168  0.7312  0.7322 -0.7737
  340THF    H12 7419   5.034   0.007   5.185 -2.0207 -1.0648  1.9081
  340THF    H13 7420   4.895  -0.088   5.114 -1.4329  1.1835  0.3672
  341THF     O1 7421   3.257   4.396   3.753  0.3902  0.0450 -0.1965
  341THF     C2 7422   3.328   4.329   3.855 -0.3967  0.1175 -0.7410
  341THF     C3 7423   3.256   4.304   3.642 -0.3960  0.4155 -0.0817
  341THF     H4 7424   3.277   4.268   3.929 -0.0360  0.5539 -0.1247
  341THF     H5 7425   3.369   4.403   3.923 -1.6258 -2.3398  2.9467
  341THF     H6 7426   3.190   4.218   3.648 -0.8235  0.7164 -0.4061
  341THF     H7 7427   3.224   4.358   3.553 -0.2260 -0.8453 -0.9300
  341THF     C8 7428   3.409   4.270   3.645 -0.0419  0.0809  0.0588
  341THF     C9 7429   3.439   4.243   3.794  0.4953 -0.4643 -0.1801
  341THF    H10 7430   3.471   4.355   3.616 -1.8668  1.4681  0.0921
  341THF    H11 7431   3.416   4.185   3.577  2.3811  0.1323  0.1622
  341THF    H12 7432   3.434   4.137   3.816 -0.8669 -0.1496  1.1622
  341THF    H13 7433   3.537   4.278   3.827 -0.1988  3.9144 -2.0160
  342THF     O1 7434   4.499   0.945   3.418  0.0210  0.3298 -0.2161
  342THF     C2 7435   4.400   0.979   3.324 -0.6805  0.6934 -0.0665
  342THF     C3 7436   4.620   0.963   3.352 -0.1572  0.2646  0.4134
  342THF     H4 7437   4.387   1.087   3.317 -0.1066  0.6825 -2.0473
  342THF     H5 7438   4.307   0.940   3.363 -0.0924  0.9344  1.6539
  342THF     H6 7439   4.628   1.069   3.330 -1.5455  0.9268  2.7449
  342THF     H7 7440   4.704   0.932   3.414  0.4258 -0.3043 -0.6356
  342THF     C8 7441   4.590   0.886   3.221  0.4676 -0.5613 -0.1317
  342THF     C9 7442   4.451   0.916   3.196 -0.1343  0.3482  0.4640
  342THF    H10 7443   4.613   0.780   3.222  1.7406 -0.3986 -2.9779
  342THF    H11 7444   4.643   0.918   3.131  0.0532  0.3233 -0.0718
  342THF    H12 7445   4.411   0.961   3.106  1.8225  1.2135 -0.0149
  342THF    H13 7446   4.398   0.821   3.210 -1.0951  0.9854  1.2824
  343THF     O1 7447   4.896   5.302   0.928 -0.4559 -0.2271 -0.6008
  343THF     C2 7448   5.023   5.322   1.003  0.0020 -0.0622  0.1162
  343THF     C3 7449   4.910   5.287   0.797 -0.0584  0.2325  0.8037
  343THF     H4 7450   5.051   5.221   1.033  1.0603 -0.0890 -0.8936
  343THF     H5 7451   5.015   5.393   1.086  1.7885  3.0238 -2.1355
  343THF     H6 7452   4.858   5.199   0.758 -1.2737  1.1346  0.3176
  343THF     H7 7453   4.870   5.372   0.741  1.6594 -0.1503 -1.1512
  343THF     C8 7454   5.061   5.287   0.780 -0.0435 -0.7276  0.0662
  343THF     C9 7455   5.112   5.373   0.894  0.2164 -0.6105 -0.2507
  343THF    H10 7456   5.084   5.317   0.678  0.5332 -1.9154 -0.1749
  343THF    H11 7457   5.113   5.191   0.787  0.5589 -0.3732  0.4727
  343THF    H12 7458   5.220   5.365   0.907  0.0670  0.8377  2.5148
  343THF    H13 7459   5.089   5.477   0.868  0.7885 -1.0290 -2.7591
  344THF     O1 7460   1.858   0.667   1.643  0.4569  0.0384 -0.2190
  344THF     C2 7461   1.815   0.726   1.768  0.2716 -0.3569 -0.5140
  344THF     C3 7462   1.734   0.644   1.573 -0.4456 -0.2182 -0.2621
  344THF     H4 7463   1.802   0.832   1.748  2.1695  0.2204  0.9788
  344THF     H5 7464   1.890   0.722   1.847  1.2917 -1.1732 -1.4863
  344THF     H6 7465   1.695   0.730   1.517 -0.3431  0.6922  1.0354
  344THF     H7 7466   1.743   0.576   1.488 -1.3178 -0.2169 -0.3679
  344THF     C8 7467   1.631   0.617   1.673  0.0606 -0.0317 -0.5757
  344THF     C9 7468   1.693   0.648   1.809  0.1550  0.5459  0.3823
  344THF    H10 7469   1.614   0.509   1.663  0.0571  0.1974 -5.6443
  344THF    H11 7470   1.539   0.671   1.653  0.0397  0.6858  1.2823
  344THF    H12 7471   1.619   0.699   1.872 -1.0364 -1.4470  0.6678
  344THF    H13 7472   1.726   0.561   1.865 -1.3087  0.1447  0.6789
  345THF     O1 7473   2.949   3.794   3.164 -0.2034  0.7937  0.0968
  345THF     C2 7474   2.980   3.878   3.055  0.1743  0.5085 -0.7458
  345THF     C3 7475   2.932   3.667   3.113  0.5086 -0.1087  0.0581
  345THF     H4 7476   3.073   3.847   3.008 -0.8552  0.1907 -2.6868
  345THF     H5 7477   2.962   3.982   3.084 -0.4414 -0.1759  1.5187
  345THF     H6 7478   3.025   3.625   3.076 -1.0200 -1.6441 -2.3311
  345THF     H7 7479   2.906   3.596   3.192 -0.7635 -0.1482 -0.3609
  345THF     C8 7480   2.840   3.684   2.989 -0.1825 -0.9479 -0.3180
  345THF     C9 7481   2.867   3.833   2.961 -0.8750 -0.7130 -0.5050
  345THF    H10 7482   2.734   3.663   3.007  0.2790 -3.6356 -0.3563
  345THF    H11 7483   2.869   3.624   2.903  0.4561  0.8280 -1.3822
  345THF    H12 7484   2.896   3.840   2.856  0.7556 -0.0656 -0.0495
  345THF    H13 7485   2.772   3.886   2.963  0.8727  2.7374  0.8302
  346THF     O1 7486   3.916   2.903   1.036 -0.1430  0.0274  0.8789
  346THF     C2 7487   3.960   3.012   0.955  0.0055  0.2648 -0.5054
  346THF     C3 7488   3.969   2.782   0.975 -0.0100  0.0696  0.2460
  346THF     H4 7489   4.043   3.064   1.001 -0.7436  0.3348  0.8211
  346THF     H5 7490   3.880   3.087   0.952  1.1597  1.5256 -0.9093
  346THF     H6 7491   4.069   2.766   1.015 -0.0795  0.7541  0.7198
  346THF     H7 7492   3.908   2.697   1.002 -2.5049  2.0062  1.0871
  346THF     C8 7493   3.968   2.810   0.826 -0.4626  0.4870 -0.5390
  346THF     C9 7494   4.002   2.961   0.820 -0.0615  0.7059  0.1681
  346THF    H10 7495   3.864   2.797   0.794 -0.7083  1.7889 -0.3122
  346THF    H11 7496   4.043   2.743   0.783 -0.5220  0.4158 -0.5329
  346THF    H12 7497   4.109   2.973   0.802 -0.0860 -0.8230 -1.1245
  346THF    H13 7498   3.960   3.012   0.734  1.3216  0.6157 -0.5869
  347THF     O1 7499   2.630   5.492   2.262 -0.4374  0.2906 -0.5266
  347THF     C2 7500   2.508   5.540   2.319  0.5961  0.0266  0.2348
  347THF     C3 7501   2.621   5.349   2.258 -0.3106  0.2460 -0.1514
  347THF     H4 7502   2.431   5.542   2.242 -1.1106  2.1599  1.8821
  347THF     H5 7503   2.508   5.639   2.364 -0.7402 -0.7679  2.1299
  347THF     H6 7504   2.602   5.323   2.154  2.2838  3.2742 -1.5645
  347THF     H7 7505   2.720   5.315   2.290 -0.6538 -0.1454  0.5030
  347THF     C8 7506   2.520   5.297   2.358 -0.7122  0.0551 -0.1943
  347THF     C9 7507   2.477   5.428   2.421  0.8856 -0.8026 -0.1752
  347THF    H10 7508   2.542   5.212   2.422 -1.4502  0.7684  1.0382
  347THF    H11 7509   2.432   5.259   2.306 -0.9277  0.0792  0.1561
  347THF    H12 7510   2.370   5.420   2.444  0.9301 -3.1267 -0.5427
  347THF    H13 7511   2.531   5.445   2.514 -0.2993 -1.1105  0.5971
  348THF     O1 7512   4.082   1.400   1.104  0.4105 -0.2947  0.1902
  348THF     C2 7513   3.994   1.311   1.034 -0.0140  0.2170 -0.0477
  348THF     C3 7514   4.064   1.365   1.244  0.6648  0.1264  0.3216
  348THF     H4 7515   4.021   1.288   0.931 -1.9177 -0.7175 -0.3606
  348THF     H5 7516   3.893   1.350   1.048  0.4718  0.8230  2.2832
  348THF     H6 7517   4.149   1.399   1.303  0.1549  0.4364  0.8884
  348THF     H7 7518   3.977   1.422   1.278 -0.7493 -0.8401 -1.4643
  348THF     C8 7519   4.035   1.216   1.248 -0.6032 -0.3056 -0.3472
  348THF     C9 7520   4.005   1.177   1.110  0.1486  0.2924  0.1797
  348THF    H10 7521   3.948   1.197   1.310 -1.3853 -0.7249 -1.5254
  348THF    H11 7522   4.120   1.155   1.279  1.8541  2.0420 -2.0241
  348THF    H12 7523   4.089   1.122   1.069  0.2695 -0.2421  1.1078
  348THF    H13 7524   3.926   1.102   1.104  2.4779 -2.5923  2.5101
  349THF     O1 7525   2.067   3.656   2.252 -0.5829 -0.4970 -0.3094
  349THF     C2 7526   1.925   3.635   2.239 -0.9948 -0.3781  0.1915
  349THF     C3 7527   2.125   3.537   2.302 -0.4927  0.0919  0.6709
  349THF     H4 7528   1.903   3.585   2.145  0.7553  0.2909 -0.6168
  349THF     H5 7529   1.871   3.729   2.249  0.1346  0.2551  0.5103
  349THF     H6 7530   2.127   3.453   2.233  0.1438  1.9532 -1.7042
  349THF     H7 7531   2.227   3.544   2.340 -0.1073 -0.4323 -0.2456
  349THF     C8 7532   2.036   3.499   2.412  0.1411 -0.4956 -0.2471
  349THF     C9 7533   1.900   3.551   2.357  0.0857  1.0024 -0.2950
  349THF    H10 7534   2.059   3.549   2.507 -1.4847 -1.9327  0.9688
  349THF    H11 7535   2.029   3.394   2.440 -0.9225  0.3697  3.3041
  349THF    H12 7536   1.842   3.466   2.321  1.9826 -0.6465  0.3311
  349THF    H13 7537   1.855   3.608   2.438  2.1354  0.4732  1.3095
  350THF     O1 7538   4.657   1.301   3.054 -0.3760  0.0298  0.1911
  350THF     C2 7539   4.707   1.436   3.022 -0.1990  0.0631 -0.1338
  350THF     C3 7540   4.766   1.216   3.083 -0.3423 -0.2511  0.1034
  350THF     H4 7541   4.720   1.480   3.121 -1.3217 -1.0737  0.5427
  350THF     H5 7542   4.644   1.491   2.953  0.2386 -2.2757 -2.5728
  350THF     H6 7543   4.764   1.202   3.191  0.3413  0.8613  0.2800
  350THF     H7 7544   4.769   1.117   3.036  1.7915 -0.8224  1.2889
  350THF     C8 7545   4.889   1.297   3.041 -0.0711  0.1497 -0.1014
  350THF     C9 7546   4.841   1.409   2.953 -0.2128  0.4766 -0.2640
  350THF    H10 7547   4.956   1.231   2.988 -2.1634 -0.3936 -2.2225
  350THF    H11 7548   4.931   1.347   3.129 -3.4206  0.3870  1.5314
  350THF    H12 7549   4.905   1.497   2.964 -0.9992  1.0426 -0.0374
  350THF    H13 7550   4.828   1.375   2.851 -1.0715 -2.0090  0.6008
  351THF     O1 7551   0.933   4.835   5.434 -0.0184  0.5740  0.7375
  351THF     C2 7552   0.930   4.697   5.472  0.1505  0.6221 -0.1160
  351THF     C3 7553   0.821   4.900   5.491 -0.2010  0.5499  0.1548
  351THF     H4 7554   0.966   4.695   5.575  4.0090  2.3523 -1.2394
  351THF     H5 7555   0.994   4.626   5.420 -0.1210 -0.1146  0.5219
  351THF     H6 7556   0.840   4.912   5.598 -0.2665  1.7352  0.0520
  351THF     H7 7557   0.817   5.000   5.447  0.1895  0.1143 -0.9156
  351THF     C8 7558   0.707   4.810   5.466 -0.4961 -0.7791 -0.3813
  351THF     C9 7559   0.782   4.670   5.450  0.9023  0.0077  0.1471
  351THF    H10 7560   0.661   4.846   5.374  0.4863 -0.6334 -0.8360
  351THF    H11 7561   0.634   4.817   5.547 -0.2841  1.3852 -0.3143
  351THF    H12 7562   0.740   4.593   5.515 -0.9814 -1.0244 -2.1441
  351THF    H13 7563   0.765   4.628   5.351  1.1744 -2.1873  0.9690
  352THF     O1 7564   1.340   3.673   3.698 -0.0577 -0.6679 -0.2880
  352THF     C2 7565   1.468   3.657   3.638 -0.2513 -0.7797 -0.7509
  352THF     C3 7566   1.239   3.653   3.601  0.1721 -0.1680  0.2783
  352THF     H4 7567   1.537   3.628   3.717  0.2504 -1.4044 -1.4059
  352THF     H5 7568   1.507   3.751   3.600 -1.1330 -0.2914 -0.4754
  352THF     H6 7569   1.136   3.633   3.633 -0.6088 -0.9207 -2.4809
  352THF     H7 7570   1.243   3.745   3.544 -1.5090 -0.4973 -0.4320
  352THF     C8 7571   1.304   3.555   3.502 -0.0596  0.7275 -0.0361
  352THF     C9 7572   1.458   3.551   3.523  0.6553 -0.5556  0.6675
  352THF    H10 7573   1.276   3.576   3.399 -0.5915 -0.9122 -0.2487
  352THF    H11 7574   1.268   3.456   3.530  0.8454  1.1424  2.9153
  352THF    H12 7575   1.485   3.451   3.558 -0.6294 -0.7498  1.1483
  352THF    H13 7576   1.520   3.579   3.437 -0.8791 -2.7003 -1.2794
  353THF     O1 7577   3.881   4.044   2.630  0.0303  0.0721  0.0049
  353THF     C2 7578   3.919   4.069   2.761 -0.0697  0.3082 -0.4235
  353THF     C3 7579   3.916   4.152   2.546  0.8700  0.4566 -0.2242
  353THF     H4 7580   4.027   4.055   2.766 -0.1932 -0.7769 -0.6398
  353THF     H5 7581   3.871   4.007   2.837  0.0099  0.9118  0.1347
  353THF     H6 7582   4.001   4.130   2.483  0.0261  2.3572 -2.1641
  353THF     H7 7583   3.837   4.166   2.472 -1.1106  0.2042  1.7033
  353THF     C8 7584   3.927   4.270   2.644 -0.2725 -0.1320 -0.1884
  353THF     C9 7585   3.872   4.211   2.772  0.1270 -0.5458  0.1412
  353THF    H10 7586   3.875   4.360   2.612 -2.2186 -0.2933  2.2349
  353THF    H11 7587   4.033   4.294   2.650 -0.5122  0.5774  2.1437
  353THF    H12 7588   3.898   4.274   2.858 -1.0321  0.8113 -0.4651
  353THF    H13 7589   3.764   4.211   2.762  0.0935 -2.0020  0.3410
  354THF     O1 7590   1.867   0.522   4.520  0.6464 -0.5410  0.5147
  354THF     C2 7591   1.897   0.438   4.633 -0.5085 -0.2844 -0.3530
  354THF     C3 7592   1.745   0.474   4.470 -0.4284  0.2891  0.1167
  354THF     H4 7593   1.965   0.478   4.707 -1.0135  0.4944 -0.2910
  354THF     H5 7594   1.933   0.345   4.588 -1.9467 -0.8071 -0.4850
  354THF     H6 7595   1.689   0.538   4.401  1.0177  2.8491  1.2015
  354THF     H7 7596   1.769   0.384   4.413 -0.2949 -0.1600  0.8805
  354THF     C8 7597   1.662   0.452   4.592 -0.1792  0.0243  0.2984
  354THF     C9 7598   1.761   0.417   4.701 -0.0525 -0.1192 -0.4793
  354THF    H10 7599   1.586   0.376   4.571  0.4545 -0.8565  1.1448
  354THF    H11 7600   1.617   0.550   4.610 -0.3891  0.4595 -2.2230
  354THF    H12 7601   1.742   0.476   4.790 -1.7975 -1.8236  0.3329
  354THF    H13 7602   1.751   0.313   4.732  1.3838 -0.1356  0.0370
  355THF     O1 7603   2.793   0.960   1.262 -0.0976  0.2241  0.2304
  355THF     C2 7604   2.720   1.088   1.244  1.1724  0.4587  0.1497
  355THF     C3 7605   2.763   0.868   1.149 -0.3801 -0.2619  0.3419
  355THF     H4 7606   2.783   1.159   1.190  0.7861  1.2343  0.7028
  355THF     H5 7607   2.699   1.121   1.345  1.3357 -2.0180  1.0531
  355THF     H6 7608   2.850   0.846   1.087 -1.2874  1.7997 -1.8004
  355THF     H7 7609   2.739   0.769   1.188 -3.4612  0.8654  1.6037
  355THF     C8 7610   2.653   0.932   1.073  0.0408  0.0364  0.3282
  355THF     C9 7611   2.598   1.043   1.164  0.3309  0.3793 -0.2434
  355THF    H10 7612   2.574   0.863   1.045  0.7889 -0.4638 -0.6269
  355THF    H11 7613   2.695   0.965   0.978  1.0004 -1.2230  0.2917
  355THF    H12 7614   2.548   1.125   1.113  0.7135  1.1349  0.5829
  355THF    H13 7615   2.534   1.006   1.244  1.3997  0.8193  0.8271
  356THF     O1 7616   0.953   2.849   2.922  0.2492  0.2873 -0.5694
  356THF     C2 7617   0.906   2.731   2.988  0.5658 -0.7066  0.0732
  356THF     C3 7618   1.007   2.937   3.020  0.2109  0.0882 -0.4611
  356THF     H4 7619   0.903   2.647   2.918  1.8242 -1.7574  1.2145
  356THF     H5 7620   0.804   2.740   3.025  1.0957 -0.5889  1.6059
  356THF     H6 7621   1.077   3.006   2.972 -0.9500  0.2320 -2.0398
  356THF     H7 7622   0.924   2.989   3.068  0.0605 -1.2319  0.7672
  356THF     C8 7623   1.091   2.832   3.100  0.7344 -0.6159  1.1670
  356THF     C9 7624   1.004   2.709   3.093 -0.6348  0.1893 -0.5154
  356THF    H10 7625   1.114   2.863   3.202 -0.1302 -0.2881  1.2693
  356THF    H11 7626   1.184   2.821   3.045  1.4813  2.8616  1.4956
  356THF    H12 7627   1.059   2.614   3.093  0.4381  0.7437  1.5954
  356THF    H13 7628   0.952   2.703   3.188 -2.4466 -0.1791 -1.4819
  357THF     O1 7629   2.222   0.600   3.854 -0.2945 -0.2839 -0.5129
  357THF     C2 7630   2.194   0.464   3.901  0.1348 -0.1131 -0.2725
  357THF     C3 7631   2.352   0.600   3.779 -0.2377  0.1192  0.2253
  357THF     H4 7632   2.097   0.427   3.868  0.8741  0.4284 -3.3916
  357THF     H5 7633   2.193   0.466   4.010 -2.5812  0.9490 -0.2530
  357THF     H6 7634   2.356   0.683   3.708 -1.0401 -0.0625 -0.0488
  357THF     H7 7635   2.429   0.621   3.852  0.3709  0.2958 -0.4578
  357THF     C8 7636   2.357   0.454   3.728 -0.1625 -0.2372  0.5859
  357THF     C9 7637   2.306   0.375   3.849  0.3065  0.0935  0.0923
  357THF    H10 7638   2.455   0.424   3.690  0.1264  2.5503 -1.1340
  357THF    H11 7639   2.284   0.434   3.649 -1.5524 -0.8809  1.9685
  357THF    H12 7640   2.270   0.273   3.833 -0.8046 -0.1188  3.2377
  357THF    H13 7641   2.385   0.373   3.924  0.4109 -1.0676 -0.0269
  358THF     O1 7642   3.375   0.187   3.920 -0.2946 -0.2364 -0.2360
  358THF     C2 7643   3.417   0.052   3.919  0.1166 -0.0037 -0.3755
  358THF     C3 7644   3.445   0.263   4.015 -0.0435  0.2501 -0.0858
  358THF     H4 7645   3.489   0.029   3.840  1.4848  0.6310  0.6426
  358THF     H5 7646   3.338  -0.019   3.895  0.2872 -0.2382 -0.2419
  358THF     H6 7647   3.543   0.283   3.972 -0.7819  3.9915 -0.3451
  358THF     H7 7648   3.404   0.353   4.061  0.5542  0.5022 -0.0346
  358THF     C8 7649   3.452   0.157   4.124  0.6497 -0.0987 -0.0831
  358THF     C9 7650   3.484   0.031   4.055 -0.3977  0.7036  0.2180
  358THF    H10 7651   3.350   0.146   4.162  0.4074  1.5497 -0.1722
  358THF    H11 7652   3.516   0.179   4.209  3.0072 -1.0280 -1.5425
  358THF    H12 7653   3.590   0.013   4.041 -0.3878  0.2559  0.8209
  358THF    H13 7654   3.437  -0.052   4.107 -0.5416  0.7608  0.1799
  359THF     O1 7655   1.245   2.101   5.387 -0.1229  0.1640 -0.2684
  359THF     C2 7656   1.146   2.180   5.324  0.2201  0.0549 -0.1415
  359THF     C3 7657   1.238   1.973   5.344 -0.3060  0.2557  0.3846
  359THF     H4 7658   1.171   2.204   5.221 -0.2694  3.1252  0.3684
  359THF     H5 7659   1.149   2.268   5.388  0.8874  1.4950 -2.0487
  359THF     H6 7660   1.303   1.955   5.259  0.1729  1.2861  0.5219
  359THF     H7 7661   1.260   1.906   5.427 -2.0077  1.5521  1.9895
  359THF     C8 7662   1.084   1.954   5.304  0.2383 -0.1387 -0.5506
  359THF     C9 7663   1.026   2.089   5.328 -0.1133  0.3214 -0.1809
  359THF    H10 7664   1.044   1.882   5.375 -0.4552  0.4683 -0.3149
  359THF    H11 7665   1.054   1.911   5.208 -1.1100 -0.2761 -0.0925
  359THF    H12 7666   0.947   2.104   5.255 -1.5091 -1.5669  0.8447
  359THF    H13 7667   0.969   2.107   5.419 -0.5071 -2.1032  0.1340
  360THF     O1 7668   2.424   3.831   2.217  0.0287 -0.4622  0.0804
  360THF     C2 7669   2.511   3.772   2.125 -0.4619 -0.1036  0.4417
  360THF     C3 7670   2.464   3.964   2.236 -0.3648  0.6047 -0.5245
  360THF     H4 7671   2.479   3.777   2.021 -0.0155  0.8761  0.3403
  360THF     H5 7672   2.542   3.670   2.148  0.0243 -0.1908 -0.5307
  360THF     H6 7673   2.441   4.019   2.144  0.0057  0.0758 -0.9427
  360THF     H7 7674   2.418   4.005   2.326  0.9138 -0.1496  0.5075
  360THF     C8 7675   2.614   3.945   2.251 -0.9136  0.1971  0.0310
  360THF     C9 7676   2.638   3.849   2.135  0.2776 -0.3628  0.1560
  360THF    H10 7677   2.637   3.895   2.345  0.0126 -3.3815 -1.9128
  360THF    H11 7678   2.674   4.036   2.241 -1.9271  1.0278  1.1782
  360THF    H12 7679   2.641   3.911   2.046 -1.3282 -0.0906  0.2643
  360THF    H13 7680   2.718   3.778   2.157 -0.9525 -2.2878 -1.3122
  361THF     O1 7681   4.096   3.066   1.883  0.8779  0.1423 -0.0086
  361THF     C2 7682   4.178   3.054   1.994 -0.8918 -0.2256 -0.9742
  361THF     C3 7683   4.177   3.076   1.767  0.3022 -0.6123  1.3772
  361THF     H4 7684   4.132   3.010   2.083  1.0298 -3.6170 -1.4760
  361THF     H5 7685   4.209   3.151   2.034  0.5889 -0.7209 -0.8568
  361THF     H6 7686   4.123   3.054   1.675 -2.1180  1.1813  2.2578
  361THF     H7 7687   4.229   3.172   1.761  1.2807 -1.2300 -0.4741
  361THF     C8 7688   4.276   2.962   1.795 -0.3384  0.1855  0.5123
  361THF     C9 7689   4.300   2.976   1.942 -0.1685  0.6994  0.1085
  361THF    H10 7690   4.366   2.992   1.742 -0.4344  1.0843  0.8374
  361THF    H11 7691   4.250   2.861   1.763  0.8765 -0.2092  0.7176
  361THF    H12 7692   4.309   2.873   1.977  3.5292  0.7942 -0.1713
  361THF    H13 7693   4.395   3.025   1.965 -0.2215  2.2555 -2.5410
  362THF     O1 7694   4.357   3.709   1.590 -0.4291 -0.5048 -0.2247
  362THF     C2 7695   4.359   3.574   1.560  0.1948 -0.3102 -0.7951
  362THF     C3 7696   4.226   3.739   1.638  0.1942  0.1734 -0.1087
  362THF     H4 7697   4.460   3.535   1.547  0.5166  1.0537 -3.0310
  362THF     H5 7698   4.307   3.556   1.465 -1.7098 -0.8867  0.3085
  362THF     H6 7699   4.209   3.823   1.705 -1.0066  1.0150 -1.4148
  362THF     H7 7700   4.174   3.765   1.546  0.0055 -3.1880 -1.0972
  362THF     C8 7701   4.169   3.613   1.700  0.7247  0.1524 -0.3657
  362THF     C9 7702   4.277   3.513   1.676 -0.5007 -0.0045 -0.3029
  362THF    H10 7703   4.072   3.583   1.661 -0.2490  0.8294  1.4260
  362THF    H11 7704   4.150   3.633   1.805 -0.2969  1.5162 -0.7754
  362THF    H12 7705   4.334   3.499   1.767 -0.5702 -0.2648 -0.2977
  362THF    H13 7706   4.238   3.413   1.652 -0.8572  0.1383 -0.3261
  363THF     O1 7707   2.022   3.859   1.315  0.0943  0.0353 -0.1592
  363THF     C2 7708   1.947   3.741   1.324 -0.2933  1.0077 -0.4443
  363THF     C3 7709   2.071   3.869   1.181  0.3617 -0.5761 -0.5098
  363THF     H4 7710   1.848   3.762   1.284  0.2337  0.3267 -2.1807
  363THF     H5 7711   1.936   3.714   1.429 -1.2431 -1.9540 -1.2172
  363THF     H6 7712   1.985   3.899   1.121 -0.3244  1.4461  1.3667
  363THF     H7 7713   2.151   3.940   1.165  0.8571 -1.2235 -0.9539
  363THF     C8 7714   2.114   3.719   1.152  0.0114  0.7755  0.1081
  363THF     C9 7715   2.014   3.642   1.237  0.3483 -0.6697 -0.3414
  363THF    H10 7716   2.221   3.705   1.171 -0.1513 -0.5088  0.1125
  363THF    H11 7717   2.093   3.714   1.045 -1.4137  0.9871  0.3557
  363THF    H12 7718   1.937   3.594   1.176 -0.9320  0.7324  0.0957
  363THF    H13 7719   2.065   3.567   1.297 -1.9357 -1.6615  0.4869
  364THF     O1 7720   3.881   3.593   1.933  0.2025 -0.1327 -0.6806
  364THF     C2 7721   3.807   3.476   1.932 -0.4081 -0.4804  0.0382
  364THF     C3 7722   3.980   3.582   2.034  0.4005 -0.1949 -0.3488
  364THF     H4 7723   3.743   3.457   1.846 -0.2709 -0.8983  0.0241
  364THF     H5 7724   3.745   3.491   2.020 -0.8362  3.4920 -0.7848
  364THF     H6 7725   4.053   3.663   2.034  1.0768 -0.7525  1.3260
  364THF     H7 7726   3.914   3.581   2.122 -1.6110 -1.4377 -1.7689
  364THF     C8 7727   4.036   3.441   2.018  0.0619  0.0917  0.0161
  364THF     C9 7728   3.914   3.371   1.953 -0.7398 -0.5352 -0.2602
  364THF    H10 7729   4.069   3.397   2.112 -2.0662  0.9707  1.2525
  364THF    H11 7730   4.112   3.441   1.940 -0.1539  0.3956 -0.1988
  364THF    H12 7731   3.937   3.315   1.862  2.1468 -2.9443  1.7554
  364THF    H13 7732   3.876   3.288   2.011  0.6669 -0.0937  1.3609
  365THF     O1 7733   5.042   3.516   0.447 -0.6766 -0.0796 -0.1915
  365THF     C2 7734   4.900   3.511   0.454 -0.2908  0.2151  0.0201
  365THF     C3 7735   5.093   3.422   0.531  0.8216 -0.3128  0.6051
  365THF     H4 7736   4.859   3.562   0.367  0.2509  0.8355  0.1156
  365THF     H5 7737   4.870   3.564   0.545 -0.4093  1.1496 -0.5492
  365THF     H6 7738   5.198   3.403   0.513  0.9086 -1.5443  2.2172
  365THF     H7 7739   5.090   3.473   0.628  0.7665  4.1751 -1.4845
  365THF     C8 7740   5.009   3.304   0.495  0.3974  0.3414 -0.7885
  365THF     C9 7741   4.871   3.363   0.462 -0.2743 -0.0758  0.1278
  365THF    H10 7742   5.011   3.221   0.565 -1.7928  3.4052  3.3449
  365THF    H11 7743   5.054   3.266   0.403  2.2707  0.6900 -0.0461
  365THF    H12 7744   4.840   3.320   0.368 -0.4925  0.4595 -0.0476
  365THF    H13 7745   4.804   3.342   0.545  0.7038  2.0350  1.5449
  366THF     O1 7746   1.790   2.020   0.387  0.0151 -0.6080  0.1040
  366THF     C2 7747   1.731   2.140   0.451 -0.2548 -0.3589 -0.1004
  366THF     C3 7748   1.863   2.055   0.270  0.5032 -0.6869  0.4283
  366THF     H4 7749   1.772   2.164   0.549 -2.4410 -1.9824  1.3144
  366THF     H5 7750   1.626   2.124   0.475 -0.9314  1.4920 -1.6093
  366THF     H6 7751   1.967   2.024   0.273  0.5989 -0.9145 -2.7204
  366THF     H7 7752   1.819   2.002   0.186  1.5225  2.6331 -2.4502
  366THF     C8 7753   1.850   2.201   0.253  0.0138  0.1387  0.6714
  366THF     C9 7754   1.743   2.253   0.352 -0.5017  0.4332 -0.2090
  366THF    H10 7755   1.833   2.233   0.151  0.6230  1.7031  1.0370
  366THF    H11 7756   1.946   2.249   0.276 -0.8447  2.2432  0.0724
  366THF    H12 7757   1.785   2.349   0.385  3.1925 -0.5911 -1.3602
  366THF    H13 7758   1.649   2.271   0.301  0.4730 -2.8144 -3.6342
  367THF     O1 7759   4.025   2.720   1.309  0.3140  0.5294 -0.2303
  367THF     C2 7760   4.148   2.794   1.333 -0.4706 -0.2089 -0.5213
  367THF     C3 7761   3.905   2.800   1.335 -0.2820  0.2960 -0.3877
  367THF     H4 7762   4.224   2.769   1.260  0.2422  0.4725 -0.0337
  367THF     H5 7763   4.194   2.775   1.431 -1.1259  0.6447 -0.0253
  367THF     H6 7764   3.841   2.802   1.246 -0.2646 -1.1253 -0.4608
  367THF     H7 7765   3.849   2.744   1.410 -0.7121  0.5518 -0.5086
  367THF     C8 7766   3.954   2.937   1.372  0.2049 -0.0043  0.1591
  367THF     C9 7767   4.099   2.937   1.326 -0.0454 -0.0532  0.4079
  367THF    H10 7768   3.950   2.947   1.481  0.4992 -1.0224  0.2712
  367THF    H11 7769   3.898   3.018   1.326  1.8266 -0.2569 -2.4016
  367THF    H12 7770   4.104   2.956   1.219 -2.0500 -0.0186  0.2971
  367THF    H13 7771   4.171   3.001   1.378  0.5843 -1.8504  1.8992
  368THF     O1 7772   4.246   2.377   3.532  0.1329  0.0373  0.4137
  368THF     C2 7773   4.236   2.471   3.428 -0.4148  0.4046 -0.7874
  368THF     C3 7774   4.376   2.378   3.590 -0.2764 -0.0848 -0.6046
  368THF     H4 7775   4.225   2.574   3.461  5.2343  1.0221  0.1625
  368THF     H5 7776   4.147   2.430   3.380 -1.4993  0.4803  1.0337
  368THF     H6 7777   4.381   2.463   3.658 -0.9741  0.0639 -0.7354
  368THF     H7 7778   4.408   2.288   3.643  1.2720  0.8382  0.0929
  368THF     C8 7779   4.463   2.410   3.465 -0.0096  0.1526 -0.2246
  368THF     C9 7780   4.368   2.442   3.351 -0.2907 -0.7378 -0.6007
  368THF    H10 7781   4.525   2.328   3.427  0.4257  0.5436 -0.3661
  368THF    H11 7782   4.515   2.500   3.496 -2.7018  1.4136  0.8598
  368THF    H12 7783   4.412   2.516   3.284 -0.2248  0.3167  0.5668
  368THF    H13 7784   4.353   2.350   3.295  0.7792 -0.7757 -0.8396
  369THF     O1 7785   0.904   4.176   2.713 -0.2155  0.0425 -0.3999
  369THF     C2 7786   0.770   4.198   2.669  0.7304  0.1655  1.0811
  369THF     C3 7787   0.959   4.065   2.636 -0.3465  0.0093  0.4595
  369THF     H4 7788   0.774   4.285   2.604 -1.0256 -0.6949 -0.2684
  369THF     H5 7789   0.704   4.217   2.753 -0.1939 -0.4958  0.5266
  369THF     H6 7790   1.059   4.100   2.608 -1.1202  0.7813 -1.5384
  369THF     H7 7791   0.960   3.982   2.707  0.2179 -1.1601 -0.8797
  369THF     C8 7792   0.858   4.030   2.523 -0.6139 -0.2179  0.0530
  369THF     C9 7793   0.738   4.065   2.598  0.3448 -0.2391 -1.0339
  369THF    H10 7794   0.868   3.926   2.492  0.8086 -0.3179  0.7338
  369THF    H11 7795   0.879   4.102   2.444  0.6478  2.4527  2.6162
  369THF    H12 7796   0.664   4.074   2.518 -0.5223  1.5020 -0.0842
  369THF    H13 7797   0.712   3.984   2.666  2.4188  0.5445  0.8246
  370THF     O1 7798   4.083   0.875   3.644  0.1650  0.0924  0.2292
  370THF     C2 7799   4.193   0.919   3.729 -0.1898  0.8479 -0.8348
  370THF     C3 7800   4.043   0.984   3.561  0.0191 -0.2530  0.2898
  370THF     H4 7801   4.280   0.863   3.695 -1.3530 -1.1304 -0.7215
  370THF     H5 7802   4.171   0.884   3.830 -0.4838 -0.8491 -1.4517
  370THF     H6 7803   4.085   0.965   3.462  1.6724 -0.4184  0.9945
  370THF     H7 7804   3.936   0.977   3.544  0.2925 -0.1202 -1.7499
  370THF     C8 7805   4.093   1.112   3.632  0.4506 -0.2096 -0.0778
  370THF     C9 7806   4.214   1.070   3.711  0.0716  0.1404 -1.0855
  370THF    H10 7807   4.011   1.145   3.695  1.1002  0.2692  0.5263
  370THF    H11 7808   4.105   1.196   3.564 -0.8546  0.6600  0.7411
  370THF    H12 7809   4.300   1.076   3.644 -1.8587  0.9810 -3.6558
  370THF    H13 7810   4.226   1.120   3.807  2.1134 -0.2942 -1.0698
  371THF     O1 7811   1.548   2.467   5.307  0.4633 -0.2948  0.2954
  371THF     C2 7812   1.654   2.419   5.228 -0.0619 -0.1135 -0.2550
  371THF     C3 7813   1.467   2.355   5.342 -0.3573 -0.3161 -0.3486
  371THF     H4 7814   1.750   2.467   5.246 -1.1833  1.8842  0.6878
  371THF     H5 7815   1.636   2.440   5.122  2.9228  0.5843 -0.7352
  371THF     H6 7816   1.407   2.362   5.433  1.4172 -0.0759  0.8591
  371THF     H7 7817   1.413   2.327   5.251 -0.1320 -1.8849 -0.0197
  371THF     C8 7818   1.571   2.242   5.361  0.4363 -0.6090  0.0389
  371THF     C9 7819   1.663   2.265   5.242  0.0781  0.1833 -0.4882
  371THF    H10 7820   1.527   2.143   5.363  0.9980 -0.8990 -1.1883
  371THF    H11 7821   1.626   2.268   5.452  1.0592 -0.4317 -0.3805
  371THF    H12 7822   1.760   2.222   5.266 -0.0300 -1.2372 -2.3902
  371THF    H13 7823   1.629   2.223   5.147 -0.0952 -1.2489  0.1877
  372THF     O1 7824   2.712   4.529   0.562 -0.3985  0.6301  0.5619
  372THF     C2 7825   2.709   4.453   0.679  0.3266  0.4279  0.1921
  372THF     C3 7826   2.838   4.515   0.496 -0.4127 -0.1008  0.1658
  372THF     H4 7827   2.606   4.425   0.704  0.0711 -0.8064 -1.9703
  372THF     H5 7828   2.752   4.502   0.767  0.1142 -1.7461  1.6047
  372THF     H6 7829   2.816   4.536   0.391  0.1427  3.0894  0.5763
  372THF     H7 7830   2.911   4.580   0.544  2.6431 -1.6817 -1.9918
  372THF     C8 7831   2.861   4.369   0.511 -0.3336  0.1330 -0.5078
  372THF     C9 7832   2.806   4.333   0.646  0.7711  0.0783  0.4406
  372THF    H10 7833   2.966   4.345   0.497 -0.0094  0.6789  0.7967
  372THF    H11 7834   2.807   4.313   0.435  0.1317 -0.0253 -0.7232
  372THF    H12 7835   2.743   4.245   0.656 -2.2478  1.5688 -3.2193
  372THF    H13 7836   2.888   4.328   0.717  0.7745  0.4224  0.4653
  373THF     O1 7837   1.583   3.441   1.150 -0.0172  0.2024 -0.4720
  373THF     C2 7838   1.520   3.362   1.246  0.0303  0.4072 -0.2818
  373THF     C3 7839   1.683   3.364   1.091 -0.6429  0.0329  0.5300
  373THF     H4 7840   1.433   3.411   1.289  1.0065 -0.3748  2.8294
  373THF     H5 7841   1.585   3.351   1.333  1.0102  0.6185 -0.9720
  373THF     H6 7842   1.728   3.401   0.999  0.2474 -0.4457  0.7678
  373THF     H7 7843   1.759   3.358   1.169 -0.5137 -0.1670  0.3899
  373THF     C8 7844   1.608   3.234   1.070  0.2276  0.3095 -0.3376
  373THF     C9 7845   1.489   3.237   1.171  0.4008 -0.0498 -0.1047
  373THF    H10 7846   1.677   3.152   1.085  1.8231  1.5734 -0.5236
  373THF    H11 7847   1.561   3.231   0.971  2.3713  0.8082 -1.4377
  373THF    H12 7848   1.396   3.252   1.117  0.9266  1.2279 -0.7233
  373THF    H13 7849   1.481   3.148   1.233  0.1093  2.7558  4.3766
  374THF     O1 7850   4.094   3.930   5.369 -0.4470 -0.4171 -0.7228
  374THF     C2 7851   4.218   3.958   5.443 -0.3222 -0.0274 -0.0565
  374THF     C3 7852   4.013   4.040   5.400 -0.2789 -0.1752  0.0609
  374THF     H4 7853   4.297   3.893   5.404 -0.5047  0.0162 -0.5083
  374THF     H5 7854   4.208   3.942   5.550 -0.7945 -0.7318 -0.1953
  374THF     H6 7855   3.924   4.067   5.343  0.9562  4.4915  0.0053
  374THF     H7 7856   3.977   4.015   5.499  1.4745 -0.5720  0.6465
  374THF     C8 7857   4.100   4.161   5.410  0.0441 -0.0059 -0.0769
  374THF     C9 7858   4.240   4.111   5.434 -0.2817 -0.5173 -0.2082
  374THF    H10 7859   4.059   4.223   5.490 -0.0559 -1.4038  1.0084
  374THF    H11 7860   4.098   4.226   5.323  1.3443  0.8861  0.5282
  374THF    H12 7861   4.303   4.129   5.347  0.3635  1.5977  0.6297
  374THF    H13 7862   4.284   4.162   5.520 -0.3185  0.9690 -1.0486
  375THF     O1 7863   1.832   3.443   3.878 -0.0436 -0.0471  0.2769
  375THF     C2 7864   1.781   3.431   4.009 -0.8944  0.1692 -0.1136
  375THF     C3 7865   1.760   3.351   3.803  0.5626  0.7314 -0.3860
  375THF     H4 7866   1.797   3.523   4.065 -1.4596  1.1035 -1.4458
  375THF     H5 7867   1.810   3.342   4.064  1.2284  2.9134  3.7252
  375THF     H6 7868   1.749   3.385   3.700  0.4294  1.1425 -0.2404
  375THF     H7 7869   1.793   3.247   3.802 -1.9896 -0.1362 -0.5014
  375THF     C8 7870   1.616   3.348   3.858  0.1518 -0.9489 -0.5646
  375THF     C9 7871   1.627   3.425   3.979 -0.5102  0.3373 -0.0259
  375THF    H10 7872   1.582   3.248   3.887 -1.7244  0.5716  3.3346
  375THF    H11 7873   1.543   3.381   3.784  0.1965  0.0521 -0.1872
  375THF    H12 7874   1.579   3.521   3.960 -0.6207  0.3321  0.2163
  375THF    H13 7875   1.576   3.377   4.063  0.5225  1.7907  1.4967
  376THF     O1 7876   2.431   4.877   1.977  0.0772  0.2302  0.3248
  376THF     C2 7877   2.317   4.923   2.043  0.2537 -0.2677 -0.0513
  376THF     C3 7878   2.507   4.812   2.079  0.0075  0.2625  0.3657
  376THF     H4 7879   2.252   4.836   2.047 -0.4181  0.1940 -0.5821
  376THF     H5 7880   2.276   5.005   1.983 -0.5536 -1.1500 -0.7396
  376THF     H6 7881   2.482   4.708   2.098  1.4122 -0.2990 -0.6701
  376THF     H7 7882   2.613   4.805   2.057  0.1911  2.2086  0.4537
  376THF     C8 7883   2.495   4.908   2.202 -0.1048 -0.6486 -0.4469
  376THF     C9 7884   2.360   4.968   2.180  0.4835 -0.0749  0.2077
  376THF    H10 7885   2.569   4.987   2.192 -0.5523 -0.3549 -1.6350
  376THF    H11 7886   2.507   4.854   2.295 -0.3893  0.1775  0.0803
  376THF    H12 7887   2.287   4.945   2.257 -1.9914  2.9034 -1.0051
  376THF    H13 7888   2.375   5.075   2.190  0.7343 -0.2195  1.5008
  377THF     O1 7889   4.153   0.425   5.400 -0.6000 -0.0342 -0.0661
  377THF     C2 7890   4.091   0.420   5.528 -0.8549  0.1578  0.3146
  377THF     C3 7891   4.236   0.538   5.392  0.0902  0.0327 -0.1017
  377THF     H4 7892   4.061   0.320   5.560  0.3433 -0.7959 -1.4024
  377THF     H5 7893   4.004   0.486   5.536 -0.4163  0.9446 -1.0413
  377THF     H6 7894   4.302   0.533   5.305 -0.1042  0.7109 -0.2912
  377THF     H7 7895   4.185   0.634   5.391  0.9424  0.5784  2.4057
  377THF     C8 7896   4.307   0.533   5.520 -0.0662  0.4708 -0.1904
  377THF     C9 7897   4.206   0.468   5.612  0.2580  0.9954 -0.3212
  377THF    H10 7898   4.345   0.627   5.559  1.5296 -0.0901 -0.3324
  377THF    H11 7899   4.398   0.475   5.514  1.2229  2.4383 -0.7236
  377THF    H12 7900   4.254   0.384   5.662  1.2012  0.8662 -1.4190
  377THF    H13 7901   4.168   0.530   5.694  3.2923 -1.6338  3.3892
  378THF     O1 7902   2.250   4.677   2.913 -0.2510  0.2057 -0.0103
  378THF     C2 7903   2.351   4.757   2.986  0.0543  0.3155 -0.0529
  378THF     C3 7904   2.169   4.612   3.003  0.4590  0.2064 -0.2867
  378THF     H4 7905   2.304   4.855   2.987  0.0547  0.3427 -1.2505
  378THF     H5 7906   2.449   4.764   2.938  0.4453  1.0076  0.8097
  378THF     H6 7907   2.082   4.662   3.047 -0.7464 -2.4947  0.6664
  378THF     H7 7908   2.129   4.524   2.951 -0.9638  2.7379 -3.9164
  378THF     C8 7909   2.253   4.570   3.115  0.5136 -0.2036 -0.6489
  378THF     C9 7910   2.362   4.674   3.115 -0.1304 -0.1917  0.3826
  378THF    H10 7911   2.293   4.470   3.099 -0.1232 -0.6026  0.2215
  378THF    H11 7912   2.202   4.573   3.211  0.8881 -1.2193 -0.4043
  378THF    H12 7913   2.340   4.739   3.200 -2.5416  0.9372 -1.0136
  378THF    H13 7914   2.457   4.626   3.141 -1.6835 -2.3303  2.5488
  379THF     O1 7915   3.277   0.178   1.713  0.6129 -0.1366 -0.1640
  379THF     C2 7916   3.367   0.075   1.687  0.2106 -0.6334  0.0864
  379THF     C3 7917   3.285   0.201   1.852 -0.2396 -0.1262  0.2857
  379THF     H4 7918   3.412   0.074   1.587 -0.3339 -1.6715 -0.1654
  379THF     H5 7919   3.323  -0.023   1.704  1.4252 -0.9419  1.7540
  379THF     H6 7920   3.264   0.305   1.878 -1.7740 -0.5813  0.9252
  379THF     H7 7921   3.218   0.140   1.913  2.4400 -1.5504  2.0182
  379THF     C8 7922   3.427   0.180   1.897 -0.1448 -0.4323 -0.4814
  379THF     C9 7923   3.477   0.077   1.795  0.7385  0.7818 -0.0007
  379THF    H10 7924   3.435   0.166   2.005 -0.0538  0.5200 -0.3572
  379THF    H11 7925   3.479   0.275   1.880 -0.6434  0.3612  1.9785
  379THF    H12 7926   3.572   0.106   1.750 -0.0337  1.1286 -1.4856
  379THF    H13 7927   3.497  -0.021   1.837  1.6376 -0.1078 -2.3209
  380THF     O1 7928   0.793   5.422   4.956  0.2429  0.1851  0.1984
  380THF     C2 7929   0.823   5.489   4.834 -0.0270  0.5318 -0.5001
  380THF     C3 7930   0.885   5.465   5.060 -0.5888  0.2223  0.7554
  380THF     H4 7931   0.783   5.588   4.857 -3.3525 -0.9899  0.9178
  380THF     H5 7932   0.773   5.423   4.763 -0.2166 -0.4543  0.5081
  380THF     H6 7933   0.855   5.564   5.096 -1.6403 -0.1368  0.9231
  380THF     H7 7934   0.880   5.391   5.140  1.2357 -1.4805 -0.6280
  380THF     C8 7935   1.018   5.459   4.981 -0.3561  0.0647  0.1102
  380THF     C9 7936   0.977   5.492   4.840  0.0037  0.2252  0.5161
  380THF    H10 7937   1.049   5.357   5.008  3.5350  1.0920  0.1738
  380THF    H11 7938   1.092   5.523   5.028 -0.9430  0.9070 -0.0993
  380THF    H12 7939   1.017   5.590   4.814  1.1602  0.0472  1.5342
  380THF    H13 7940   1.017   5.407   4.785 -2.0878 -1.0551  0.8234
  381THF     O1 7941   1.506   2.196   2.999  0.0656  0.5112  0.2327
  381THF     C2 7942   1.500   2.258   3.123  0.4232 -0.0917 -0.3608
  381THF     C3 7943   1.380   2.136   2.974 -0.4166  0.2768 -0.3155
  381THF     H4 7944   1.583   2.327   3.141  2.7181 -1.7181 -3.6145
  381THF     H5 7945   1.510   2.182   3.201  2.2884 -0.1100 -0.5520
  381THF     H6 7946   1.376   2.102   2.871  0.3041  1.2729 -0.6783
  381THF     H7 7947   1.360   2.050   3.039 -1.6322  0.7681 -0.0028
  381THF     C8 7948   1.287   2.253   3.007 -0.2964 -0.8666  0.4253
  381THF     C9 7949   1.366   2.329   3.116  0.4881 -0.2188  0.0809
  381THF    H10 7950   1.182   2.231   3.031 -0.8154  1.5116  0.6114
  381THF    H11 7951   1.286   2.322   2.923 -3.4994  1.6541  2.2743
  381THF    H12 7952   1.390   2.431   3.085  0.4957 -0.6973 -1.5976
  381THF    H13 7953   1.317   2.337   3.213 -0.7551 -1.0394 -0.4554
  382THF     O1 7954   2.167   4.247   4.376 -0.1736  0.3624  0.0098
  382THF     C2 7955   2.271   4.339   4.333  0.2559 -0.1181 -0.9183
  382THF     C3 7956   2.065   4.240   4.273  0.1699  0.2250 -0.0152
  382THF     H4 7957   2.368   4.322   4.380 -0.6769 -2.1789  0.3710
  382THF     H5 7958   2.235   4.438   4.361  1.2859 -0.9984  4.6587
  382THF     H6 7959   1.995   4.158   4.286 -0.2333  0.7941  1.6616
  382THF     H7 7960   2.004   4.331   4.269 -3.4188 -1.9963 -0.0575
  382THF     C8 7961   2.154   4.235   4.150 -0.2752 -0.2423 -0.3006
  382THF     C9 7962   2.273   4.317   4.181 -0.0490 -0.4882 -0.0172
  382THF    H10 7963   2.108   4.260   4.054  0.2144 -1.2631 -0.8240
  382THF    H11 7964   2.189   4.133   4.134  0.1457 -0.3728  1.3069
  382THF    H12 7965   2.356   4.265   4.133  0.5550  2.2636 -2.2649
  382THF    H13 7966   2.262   4.412   4.128  1.1059 -0.2706  0.1031
  383THF     O1 7967   5.413   4.079   1.399  0.1941  0.2418  0.0844
  383THF     C2 7968   5.361   4.165   1.495  0.5081  0.3351 -0.3567
  383THF     C3 7969   5.306   3.987   1.365  0.1269 -0.2634  0.7820
  383THF     H4 7970   5.415   4.258   1.510 -0.5373  0.9961 -0.5410
  383THF     H5 7971   5.356   4.104   1.585  0.1339  0.0559 -0.5631
  383THF     H6 7972   5.329   3.939   1.271 -1.4666  0.5087 -0.0410
  383THF     H7 7973   5.280   3.920   1.447  0.0091  0.1946  1.1306
  383THF     C8 7974   5.196   4.086   1.351 -0.2883  0.0604  0.9214
  383THF     C9 7975   5.214   4.185   1.459 -0.1312 -0.1550  0.7092
  383THF    H10 7976   5.093   4.050   1.357 -0.7088  1.4307  3.1632
  383THF    H11 7977   5.205   4.142   1.258  0.9309  0.5996  1.3492
  383THF    H12 7978   5.195   4.283   1.415  0.3376 -0.7302 -0.8652
  383THF    H13 7979   5.156   4.159   1.547 -0.0423  0.6502  1.0110
  384THF     O1 7980   4.271   5.106   1.574 -0.1597  0.1706 -0.2458
  384THF     C2 7981   4.325   5.095   1.705  0.1746  0.1409  0.1783
  384THF     C3 7982   4.351   5.037   1.482 -0.1838  0.7346  0.2022
  384THF     H4 7983   4.243   5.109   1.775  1.2487 -1.9653  1.9578
  384THF     H5 7984   4.390   5.178   1.735 -0.0597 -0.1189  1.4129
  384THF     H6 7985   4.307   5.010   1.386  2.4081  0.5204 -1.0335
  384THF     H7 7986   4.442   5.094   1.463 -0.2143  0.6381 -0.2388
  384THF     C8 7987   4.383   4.909   1.560  0.5387 -0.4729 -0.4571
  384THF     C9 7988   4.398   4.953   1.711  0.1119 -0.0388 -0.0797
  384THF    H10 7989   4.468   4.846   1.534  0.8532 -0.3241  0.2056
  384THF    H11 7990   4.289   4.853   1.556  0.2662 -0.1982  1.4128
  384THF    H12 7991   4.348   4.889   1.783  0.0373 -0.3162 -0.3765
  384THF    H13 7992   4.501   4.969   1.741 -0.0595 -0.0207  0.5083
  385THF     O1 7993   4.441   4.757   4.096 -0.0708 -0.0279 -0.3454
  385THF     C2 7994   4.392   4.672   4.198  0.1402  0.0366 -0.0536
  385THF     C3 7995   4.577   4.715   4.084  0.2721 -0.6653  0.3573
  385THF     H4 7996   4.371   4.577   4.149 -1.7453 -0.5776  1.7922
  385THF     H5 7997   4.303   4.718   4.241  1.2694  2.2639  0.0145
  385THF     H6 7998   4.587   4.619   4.035  2.0023 -0.6884  0.7071
  385THF     H7 7999   4.646   4.787   4.040  2.5600 -1.3830  2.5343
  385THF     C8 8000   4.626   4.683   4.223 -0.9179 -0.3932  0.1951
  385THF     C9 8001   4.499   4.655   4.305 -0.4488  0.0865  0.0872
  385THF    H10 8002   4.681   4.771   4.258 -1.4498 -0.7930  2.1772
  385THF    H11 8003   4.705   4.610   4.215 -0.3436  0.2084  0.2672
  385THF    H12 8004   4.505   4.552   4.340 -1.4201 -0.0404 -0.1190
  385THF    H13 8005   4.503   4.718   4.394 -0.0785  0.0177  0.1240
  386THF     O1 8006   5.217   0.022   3.327  0.2548  0.3351 -0.0016
  386THF     C2 8007   5.290  -0.100   3.350  0.1226  0.1660 -0.1357
  386THF     C3 8008   5.092  -0.009   3.277  0.1342  0.0748 -0.0519
  386THF     H4 8009   5.305  -0.119   3.456 -0.8026  0.4924  0.0692
  386THF     H5 8010   5.388  -0.091   3.304  0.8682 -1.1956  1.1031
  386THF     H6 8011   5.019  -0.032   3.354 -0.9111  1.2854 -0.6449
  386THF     H7 8012   5.054   0.066   3.208  0.4858  1.0287  0.7752
  386THF     C8 8013   5.113  -0.136   3.193 -0.5586 -0.1246 -0.1410
  386THF     C9 8014   5.222  -0.205   3.271  0.2029 -0.1152  0.6436
  386THF    H10 8015   5.152  -0.103   3.097  0.7539  1.9398  1.0336
  386THF    H11 8016   5.021  -0.195   3.186 -0.5900 -0.1845  0.7441
  386THF    H12 8017   5.181  -0.280   3.339 -3.4863 -0.4022 -1.6003
  386THF    H13 8018   5.284  -0.275   3.215 -1.9950 -1.6669  0.0007
  387THF     O1 8019   1.390   3.998   4.035  0.0665  0.0719  0.5027
  387THF     C2 8020   1.481   3.944   4.124 -0.4077 -0.4742  0.0037
  387THF     C3 8021   1.335   3.890   3.955 -0.0664  0.0286  0.0484
  387THF     H4 8022   1.475   3.989   4.223 -0.5117 -0.6534  0.0795
  387THF     H5 8023   1.582   3.966   4.088 -0.8957  1.2362 -0.4113
  387THF     H6 8024   1.243   3.928   3.912 -0.6969 -0.1238  1.2175
  387THF     H7 8025   1.392   3.855   3.869 -0.3220  0.8666 -0.4744
  387THF     C8 8026   1.325   3.775   4.058  0.1286 -0.2261 -0.5120
  387THF     C9 8027   1.451   3.798   4.137 -0.2794 -0.2248 -0.6326
  387THF    H10 8028   1.317   3.676   4.011  1.1337 -1.0642  0.9956
  387THF    H11 8029   1.235   3.789   4.116  0.2976 -1.5019  0.0989
  387THF    H12 8030   1.447   3.754   4.237  1.4216  0.8239 -0.0631
  387THF    H13 8031   1.533   3.756   4.080  0.5580  2.0130 -1.1736
  388THF     O1 8032   0.769   3.025   0.691 -0.1264 -0.0089  0.3047
  388THF     C2 8033   0.871   3.044   0.781  0.1650 -0.5965 -0.0085
  388THF     C3 8034   0.738   2.886   0.696 -0.8981 -0.3714  0.3345
  388THF     H4 8035   0.836   3.023   0.881  2.5456 -0.3344  0.9513
  388THF     H5 8036   0.918   3.143   0.782 -0.8644 -0.0870  2.4281
  388THF     H6 8037   0.670   2.864   0.778 -2.0020  0.6749 -0.2678
  388THF     H7 8038   0.687   2.847   0.608  1.7923 -1.8806 -0.6611
  388THF     C8 8039   0.873   2.809   0.714  0.2338  0.5912 -0.4250
  388THF     C9 8040   0.967   2.928   0.733 -0.2008 -0.0013 -0.3843
  388THF    H10 8041   0.896   2.762   0.619 -1.6665 -0.1570 -0.5548
  388THF    H11 8042   0.854   2.747   0.801  0.8168  1.5005  0.3714
  388THF    H12 8043   1.044   2.926   0.810  0.2886  0.6346 -0.8536
  388THF    H13 8044   1.028   2.944   0.645  1.3601  1.5967  0.9231
  389THF     O1 8045   5.153   3.819   0.902 -0.1666 -0.0511 -0.4442
  389THF     C2 8046   5.281   3.771   0.901  0.1139  0.7666 -0.1208
  389THF     C3 8047   5.153   3.933   0.832  0.0996 -0.1910  0.2388
  389THF     H4 8048   5.309   3.740   0.801  2.2011 -0.4745  0.7746
  389THF     H5 8049   5.285   3.689   0.973  1.7175  0.5356 -0.4487
  389THF     H6 8050   5.152   3.917   0.724 -3.1486 -0.6140  0.2461
  389THF     H7 8051   5.061   3.988   0.849 -1.3616 -2.4211  0.0279
  389THF     C8 8052   5.270   4.006   0.902 -0.6076  0.3527 -0.0749
  389THF     C9 8053   5.356   3.895   0.951 -0.5358  0.4952  0.0896
  389THF    H10 8054   5.240   4.056   0.994  0.4379  0.3729  0.2702
  389THF    H11 8055   5.306   4.068   0.820 -3.3408 -0.2776 -1.8961
  389THF    H12 8056   5.455   3.893   0.906 -0.1779 -0.7216  0.8708
  389THF    H13 8057   5.364   3.891   1.059 -0.9661  2.1678  0.2108
  390THF     O1 8058   1.422   4.686   0.755 -0.2946  0.2516 -0.4729
  390THF     C2 8059   1.438   4.548   0.729  0.1216 -0.7648  0.6159
  390THF     C3 8060   1.315   4.706   0.848 -0.2847  0.1141  0.3195
  390THF     H4 8061   1.545   4.525   0.723  0.1821 -0.2656 -0.6757
  390THF     H5 8062   1.383   4.520   0.639 -1.9594  1.2106  1.1900
  390THF     H6 8063   1.325   4.812   0.872  1.5116  0.8371 -3.0981
  390THF     H7 8064   1.219   4.690   0.799  0.1079  1.1514 -0.8697
  390THF     C8 8065   1.351   4.596   0.948  0.7864 -0.3453 -0.1503
  390THF     C9 8066   1.386   4.481   0.853 -1.0331 -0.1538 -0.6333
  390THF    H10 8067   1.263   4.571   1.008  1.4984 -2.4602  0.0957
  390THF    H11 8068   1.438   4.621   1.009  0.1245 -0.7228  0.9819
  390THF    H12 8069   1.455   4.413   0.902 -0.1140  0.0358 -1.6155
  390THF    H13 8070   1.299   4.422   0.824  0.5335 -2.8242 -0.2190
  391THF     O1 8071   1.779   0.724   2.133 -0.5378  0.3570  0.1080
  391THF     C2 8072   1.755   0.589   2.157  0.3154  0.0452 -0.1132
  391THF     C3 8073   1.696   0.803   2.221  0.2544 -0.8284  0.2679
  391THF     H4 8074   1.817   0.560   2.241  0.6702 -0.1741 -0.4477
  391THF     H5 8075   1.766   0.529   2.066  0.7256  0.6562 -0.4745
  391THF     H6 8076   1.743   0.812   2.318 -0.6525 -2.0467  0.8513
  391THF     H7 8077   1.667   0.901   2.183 -0.1089 -0.9305  0.2724
  391THF     C8 8078   1.570   0.722   2.232 -0.1594  0.6013  0.1619
  391THF     C9 8079   1.603   0.582   2.196  0.1692  0.1440 -0.2988
  391THF    H10 8080   1.485   0.754   2.172 -2.2322 -1.9132  1.5484
  391THF    H11 8081   1.535   0.743   2.333 -1.6283 -1.2268  0.0958
  391THF    H12 8082   1.578   0.531   2.289  0.4851  0.0083 -0.2892
  391THF    H13 8083   1.537   0.540   2.120  0.1736 -0.7803  0.1907
  392THF     O1 8084   4.753   4.152   0.688 -0.2878  0.2175 -0.6526
  392THF     C2 8085   4.726   4.016   0.650  0.8580 -0.3635 -0.0047
  392THF     C3 8086   4.742   4.231   0.572 -0.6508 -0.2870  0.3541
  392THF     H4 8087   4.618   4.013   0.645  0.7673  1.0864  0.6244
  392THF     H5 8088   4.763   3.952   0.729  1.4739 -0.6476 -0.5037
  392THF     H6 8089   4.636   4.253   0.556 -0.5111  0.5741  0.5939
  392THF     H7 8090   4.796   4.325   0.578  0.6700 -1.0891  1.4778
  392THF     C8 8091   4.795   4.141   0.463 -0.0120 -0.6274 -0.1009
  392THF     C9 8092   4.792   3.999   0.513  0.0417 -0.4373  1.2387
  392THF    H10 8093   4.890   4.184   0.431  0.0480  0.5194  1.4987
  392THF    H11 8094   4.731   4.154   0.375 -0.4220 -0.2721  0.2498
  392THF    H12 8095   4.739   3.940   0.438  0.8407 -0.4625  0.6806
  392THF    H13 8096   4.893   3.959   0.506  0.2378  0.0639  1.2343
  393THF     O1 8097   3.205   0.986   5.478 -0.7306 -0.9094 -0.2161
  393THF     C2 8098   3.130   0.879   5.407 -0.1496  0.0047 -0.2330
  393THF     C3 8099   3.188   1.113   5.419 -0.2062 -0.0894  0.6699
  393THF     H4 8100   3.073   0.817   5.476  0.5542 -1.7120 -1.1264
  393THF     H5 8101   3.190   0.805   5.353  0.5081  1.3004 -1.3447
  393THF     H6 8102   3.192   1.201   5.483 -1.5338  0.4844  0.0006
  393THF     H7 8103   3.248   1.123   5.328 -2.7724 -1.0366 -1.2362
  393THF     C8 8104   3.039   1.102   5.374 -0.1903 -0.7006  0.2309
  393THF     C9 8105   3.042   0.961   5.314  0.0499 -0.1897 -0.3425
  393THF    H10 8106   3.012   1.174   5.297  1.4005  0.7828  0.9856
  393THF    H11 8107   2.974   1.102   5.462 -0.9103 -0.7977 -0.2870
  393THF    H12 8108   2.949   0.905   5.306  0.2006 -0.4838 -0.0115
  393THF    H13 8109   3.091   0.959   5.217  1.1204  0.4836  0.1689
  394THF     O1 8110   2.982   3.581   0.700  0.3478  0.2365  0.2422
  394THF     C2 8111   3.119   3.590   0.666 -0.2642  0.0175  0.4890
  394THF     C3 8112   2.965   3.499   0.817 -0.0913  0.7933  0.0922
  394THF     H4 8113   3.162   3.669   0.728  0.2668  0.2715 -0.1966
  394THF     H5 8114   3.145   3.602   0.561  1.7948  0.0068  0.9508
  394THF     H6 8115   2.992   3.557   0.905 -0.7998 -1.1557  1.6825
  394THF     H7 8116   2.868   3.454   0.838  0.2331  0.8127  1.7676
  394THF     C8 8117   3.076   3.392   0.800  0.2975  0.2657 -0.1117
  394THF     C9 8118   3.184   3.460   0.711  0.5589  0.0657  0.1733
  394THF    H10 8119   3.042   3.302   0.749 -1.1104  1.3740 -1.2321
  394THF    H11 8120   3.108   3.363   0.900 -0.2035 -1.8530 -0.5215
  394THF    H12 8121   3.278   3.468   0.764  1.0950 -1.3930 -0.5209
  394THF    H13 8122   3.204   3.397   0.624  2.3202  1.6891 -0.6699
  395THF     O1 8123   0.256   3.966   4.895 -0.3461  0.4953  0.4265
  395THF     C2 8124   0.134   3.937   4.960 -0.1115 -0.4412  0.1442
  395THF     C3 8125   0.310   3.839   4.856  0.2276 -0.0325 -0.2482
  395THF     H4 8126   0.084   4.034   4.966  0.5449 -0.0365 -0.8181
  395THF     H5 8127   0.143   3.878   5.052 -1.3146 -2.1002 -0.7472
  395THF     H6 8128   0.400   3.847   4.796  1.3680 -0.5977  1.3366
  395THF     H7 8129   0.337   3.801   4.954 -4.0350 -1.2084  0.7065
  395THF     C8 8130   0.188   3.771   4.796 -0.2498  0.4239 -0.2001
  395THF     C9 8131   0.070   3.838   4.871  1.1204  0.1330 -0.5296
  395THF    H10 8132   0.192   3.664   4.816 -1.6536  0.6423  1.4943
  395THF    H11 8133   0.179   3.793   4.690 -0.0347  1.3926 -0.0232
  395THF    H12 8134   0.008   3.890   4.798  0.2173  0.3662  0.3841
  395THF    H13 8135   0.004   3.770   4.925  0.9576  0.0787 -0.7928
  396THF     O1 8136   1.390   1.150   5.379  0.4077  0.0800 -0.0156
  396THF     C2 8137   1.385   1.235   5.264  0.7017  0.6308  0.3364
  396THF     C3 8138   1.405   1.016   5.339 -0.6582  0.5271  0.6776
  396THF     H4 8139   1.474   1.294   5.244 -0.7005  2.3027 -1.3785
  396THF     H5 8140   1.293   1.293   5.273 -1.2444 -2.1567 -0.2079
  396THF     H6 8141   1.512   1.016   5.317 -0.1587  1.0139  2.7976
  396THF     H7 8142   1.388   0.938   5.414 -0.6480 -0.9196 -0.7851
  396THF     C8 8143   1.329   1.003   5.203 -0.4399 -0.1064 -0.1053
  396THF     C9 8144   1.355   1.145   5.142 -0.3707 -0.5602  0.5708
  396THF    H10 8145   1.224   0.987   5.227 -0.3090  0.0887  0.6211
  396THF    H11 8146   1.360   0.916   5.144 -0.0317  0.8793 -1.3783
  396THF    H12 8147   1.440   1.145   5.074 -0.8863  0.0032 -0.1079
  396THF    H13 8148   1.272   1.182   5.081  1.4214  0.1198 -1.6136
  397THF     O1 8149   5.025   1.835   0.762 -0.2900 -0.1566 -0.0400
  397THF     C2 8150   5.094   1.914   0.669 -0.2557 -0.6293 -0.6578
  397THF     C3 8151   5.038   1.897   0.891  0.8619  0.8578  0.4556
  397THF     H4 8152   5.038   1.903   0.576 -0.0692  0.7940 -0.9736
  397THF     H5 8153   5.200   1.891   0.663 -0.6590 -2.6611 -0.5526
  397THF     H6 8154   4.946   1.880   0.946 -1.2834  1.8659 -2.5929
  397THF     H7 8155   5.117   1.840   0.941  0.6645  1.5331  1.5582
  397THF     C8 8156   5.077   2.037   0.881  0.0736  0.3079  0.0538
  397THF     C9 8157   5.088   2.058   0.728  0.5981 -0.3140  0.0074
  397THF    H10 8158   5.175   2.051   0.927  0.3647 -0.9721 -0.1365
  397THF    H11 8159   5.008   2.101   0.935 -0.9775 -1.1628  0.5137
  397THF    H12 8160   4.992   2.109   0.716  1.3544  2.3096  3.5772
  397THF    H13 8161   5.164   2.131   0.702  0.5844 -0.7752 -1.4416
  398THF     O1 8162   2.764   2.320   0.161  0.0209  0.3037  1.0887
  398THF     C2 8163   2.836   2.297   0.043  0.4727  0.1929  1.1715
  398THF     C3 8164   2.628   2.354   0.122 -0.2209  0.5835  0.3260
  398THF     H4 8165   2.913   2.222   0.062  0.1679 -0.8130 -1.2693
  398THF     H5 8166   2.889   2.382   0.001  0.2236 -0.3052 -0.1898
  398THF     H6 8167   2.552   2.337   0.198  0.4836  2.1801  1.4563
  398THF     H7 8168   2.627   2.461   0.102 -2.3925  0.6319  0.4526
  398THF     C8 8169   2.603   2.254   0.007 -0.3499 -0.8901 -0.9851
  398THF     C9 8170   2.739   2.250  -0.061 -0.4131 -0.0431 -0.3424
  398THF    H10 8171   2.526   2.290  -0.061  1.0724  0.8578 -1.7463
  398THF    H11 8172   2.589   2.159   0.060 -1.8026  0.0953  0.4790
  398THF    H12 8173   2.773   2.147  -0.070  3.4124  1.0030  0.4579
  398THF    H13 8174   2.745   2.295  -0.160  0.7391 -0.0066 -0.2661
  399THF     O1 8175   5.107   5.459   1.319 -0.1231 -0.2646 -0.4959
  399THF     C2 8176   5.202   5.364   1.369  0.1014  0.2778 -0.4610
  399THF     C3 8177   4.997   5.461   1.401  0.0448  0.0429  0.1806
  399THF     H4 8178   5.275   5.391   1.445 -0.1451 -1.7857  0.5784
  399THF     H5 8179   5.249   5.323   1.280 -1.5113 -1.5068 -0.5661
  399THF     H6 8180   5.040   5.506   1.490 -0.4054 -0.3405  0.5967
  399THF     H7 8181   4.918   5.524   1.361  0.3055  0.6693  0.6487
  399THF     C8 8182   4.976   5.311   1.406  0.1525 -0.2629  0.1318
  399THF     C9 8183   5.114   5.250   1.411  0.0379 -0.2915 -0.0341
  399THF    H10 8184   4.920   5.276   1.319  0.0874 -2.4132  0.9754
  399THF    H11 8185   4.927   5.284   1.500  1.3470 -1.6288  0.4034
  399THF    H12 8186   5.149   5.216   1.508 -2.5725 -1.4976  0.5656
  399THF    H13 8187   5.121   5.166   1.342  1.8492  0.3576 -0.7174
  400THF     O1 8188   1.955   0.177   1.832  0.0198 -0.1260 -0.3694
  400THF     C2 8189   2.002   0.050   1.863 -0.4181 -0.1514 -0.1972
  400THF     C3 8190   1.944   0.248   1.953  0.3584 -0.4849  0.3169
  400THF     H4 8191   2.098   0.067   1.912 -1.2859 -0.5242  1.7109
  400THF     H5 8192   2.010  -0.016   1.776  0.2722 -0.8817  0.3984
  400THF     H6 8193   2.039   0.281   1.996 -0.4928 -0.1319  2.0276
  400THF     H7 8194   1.876   0.331   1.935  1.7005  0.4554 -0.6089
  400THF     C8 8195   1.879   0.144   2.038 -0.2789 -0.3465 -0.0222
  400THF     C9 8196   1.897   0.005   1.965 -0.7409 -0.4178  0.0355
  400THF    H10 8197   1.774   0.165   2.060 -0.1202  0.7049 -0.2191
  400THF    H11 8198   1.937   0.135   2.130 -1.5628 -3.0081  0.6634
  400THF    H12 8199   1.937  -0.076   2.027 -0.6623  0.2137  0.8305
  400THF    H13 8200   1.806  -0.021   1.911  0.4425 -0.3091 -2.1074
  401THF     O1 8201   2.727   3.271   1.122 -0.2827  0.1644  0.8157
  401THF     C2 8202   2.847   3.191   1.122 -0.8858  0.5827 -0.3962
  401THF     C3 8203   2.623   3.191   1.181 -0.4353 -0.0163 -0.4187
  401THF     H4 8204   2.895   3.179   1.219  1.1626 -2.2673 -1.6284
  401THF     H5 8205   2.921   3.216   1.046 -1.5882 -2.0337 -2.0638
  401THF     H6 8206   2.613   3.211   1.288 -1.2038  0.3963 -0.5584
  401THF     H7 8207   2.522   3.214   1.146 -0.8041 -2.6924 -1.3376
  401THF     C8 8208   2.659   3.052   1.140 -0.0828  0.1898 -0.8855
  401THF     C9 8209   2.794   3.057   1.066  0.9223 -0.5782 -0.7695
  401THF    H10 8210   2.586   3.011   1.071 -0.0047 -1.6175  0.0334
  401THF    H11 8211   2.658   2.988   1.228 -2.6774  1.1003 -0.1682
  401THF    H12 8212   2.866   2.977   1.081  0.9096 -0.8927 -2.2119
  401THF    H13 8213   2.764   3.069   0.962  1.8275 -3.6246 -1.4912
  402THF     O1 8214   2.973   0.031   0.555  0.5032 -0.0732 -0.2177
  402THF     C2 8215   2.856   0.098   0.529 -0.5546 -0.5975 -0.1552
  402THF     C3 8216   3.066   0.062   0.451 -0.0577  0.3847 -0.2291
  402THF     H4 8217   2.853   0.205   0.549  1.0694 -0.6873  0.7621
  402THF     H5 8218   2.758   0.071   0.567 -1.6469  2.5777 -0.3802
  402THF     H6 8219   3.112   0.159   0.469 -2.3854  1.3651  0.8249
  402THF     H7 8220   3.145  -0.013   0.456 -2.4832 -2.2162  2.0086
  402THF     C8 8221   2.978   0.052   0.325 -0.8378 -0.1826  0.4293
  402THF     C9 8222   2.838   0.071   0.376  0.1310 -0.0274 -0.4940
  402THF    H10 8223   2.984  -0.047   0.280 -0.3137 -0.0417  0.1740
  402THF    H11 8224   3.009   0.129   0.254  0.2520  0.4270  1.5393
  402THF    H12 8225   2.796   0.153   0.317 -0.0364  1.2698  1.3392
  402THF    H13 8226   2.779  -0.017   0.350  0.7808 -0.5804 -0.1356
  403THF     O1 8227   3.512   3.853   1.560 -0.4182  0.4781  0.1717
  403THF     C2 8228   3.463   3.731   1.506 -0.0141  0.1528  0.0249
  403THF     C3 8229   3.534   3.841   1.698  0.9086 -0.3904 -0.0630
  403THF     H4 8230   3.494   3.726   1.402  2.2452  0.1133  0.6492
  403THF     H5 8231   3.355   3.726   1.514 -0.2892  1.7279 -1.7573
  403THF     H6 8232   3.616   3.906   1.730  0.7025  0.0007 -0.3282
  403THF     H7 8233   3.449   3.862   1.763  1.2641 -1.1236  0.6580
  403THF     C8 8234   3.554   3.697   1.721  0.9503 -0.5941 -0.0566
  403THF     C9 8235   3.547   3.633   1.588  0.1922  0.1953  0.1596
  403THF    H10 8236   3.482   3.659   1.795  0.6486  0.3648  0.1601
  403THF    H11 8237   3.648   3.690   1.775 -0.0786  0.1675  1.9542
  403THF    H12 8238   3.648   3.629   1.547 -0.0638  0.2713 -0.4922
  403THF    H13 8239   3.523   3.527   1.586  1.0844 -0.0133 -0.1395
  404THF     O1 8240   1.736   2.337   1.903  0.0408  0.3630  0.2158
  404THF     C2 8241   1.606   2.311   1.846  0.2664 -0.2398  0.3955
  404THF     C3 8242   1.831   2.335   1.797 -0.6819 -0.0921 -0.1552
  404THF     H4 8243   1.529   2.327   1.921  0.4651  0.5397  0.4384
  404THF     H5 8244   1.611   2.207   1.814  3.6352  0.4544 -1.9567
  404THF     H6 8245   1.914   2.404   1.809 -1.4157  1.4195 -3.0069
  404THF     H7 8246   1.867   2.232   1.788 -0.0966  0.2130 -1.6077
  404THF     C8 8247   1.746   2.359   1.671 -0.0812  0.0477  0.0777
  404THF     C9 8248   1.612   2.395   1.719 -0.4997  0.0075  0.3171
  404THF    H10 8249   1.745   2.261   1.624 -0.2693 -0.4170  1.0237
  404THF    H11 8250   1.779   2.436   1.602  4.5333 -2.2542 -0.6755
  404THF    H12 8251   1.597   2.502   1.738 -1.7205 -0.5111  2.7350
  404THF    H13 8252   1.542   2.360   1.643  0.1347 -0.5728 -0.0041
  405THF     O1 8253   2.361   1.030   4.045  0.1092 -0.0721  0.3114
  405THF     C2 8254   2.330   0.948   3.934 -0.3177  0.1428 -0.3240
  405THF     C3 8255   2.461   1.137   4.005 -0.2777 -0.2319  0.1075
  405THF     H4 8256   2.223   0.936   3.917 -0.5998  0.2682  1.1875
  405THF     H5 8257   2.371   0.850   3.959  1.6404  1.2494  1.0746
  405THF     H6 8258   2.421   1.235   3.982  1.4173  0.2557 -0.9231
  405THF     H7 8259   2.530   1.137   4.089  0.3574 -0.9838 -0.3952
  405THF     C8 8260   2.521   1.078   3.876  0.1332 -0.1809 -0.6171
  405THF     C9 8261   2.400   1.006   3.812  0.7418  0.5952 -0.4715
  405THF    H10 8262   2.607   1.015   3.900  1.4066  1.3317 -1.0735
  405THF    H11 8263   2.551   1.165   3.817  0.3924 -0.1185 -0.3985
  405THF    H12 8264   2.331   1.083   3.777 -1.1035 -0.1991  1.2327
  405THF    H13 8265   2.425   0.926   3.743  1.1736 -2.0517  2.5318
  406THF     O1 8266   0.946   4.592   4.936 -0.2062 -0.0709 -0.1733
  406THF     C2 8267   0.986   4.496   5.028  0.0415  0.3224 -0.1392
  406THF     C3 8268   1.039   4.699   4.936  0.1536  0.8837  0.4587
  406THF     H4 8269   1.078   4.451   4.991 -0.4102  0.6601 -1.7584
  406THF     H5 8270   0.906   4.428   5.060 -1.5721  1.5749 -1.3428
  406THF     H6 8271   1.114   4.707   4.858  1.4971 -1.8834  1.3341
  406THF     H7 8272   0.972   4.783   4.918  1.7521  2.4948  1.7568
  406THF     C8 8273   1.100   4.701   5.072  0.5716 -0.5834  0.4479
  406THF     C9 8274   1.031   4.578   5.143  0.1385 -0.3521 -0.0401
  406THF    H10 8275   1.073   4.793   5.125 -2.6652 -1.1300 -0.0128
  406THF    H11 8276   1.208   4.691   5.066  0.6790 -0.9214  2.3553
  406THF    H12 8277   1.104   4.529   5.207  0.7571 -1.0559 -1.2442
  406THF    H13 8278   0.945   4.611   5.201 -1.0660 -0.5062 -1.6515
  407THF     O1 8279   4.325   4.867   2.593  0.1526 -0.5767 -0.4680
  407THF     C2 8280   4.196   4.889   2.552  0.7075  0.2819 -0.3979
  407THF     C3 8281   4.392   4.842   2.471  0.2580 -0.7600  0.0576
  407THF     H4 8282   4.177   4.988   2.509 -0.3231  0.1491 -0.2793
  407THF     H5 8283   4.128   4.877   2.636  2.7776 -0.0617  1.2971
  407THF     H6 8284   4.395   4.933   2.411  0.6954 -0.8419 -0.0459
  407THF     H7 8285   4.496   4.812   2.479  0.0935 -0.9478  1.9556
  407THF     C8 8286   4.304   4.738   2.409 -0.0942  0.0677  0.4165
  407THF     C9 8287   4.164   4.771   2.460  0.2449 -0.0459  0.0266
  407THF    H10 8288   4.329   4.638   2.446  0.7943  0.6994  1.6095
  407THF    H11 8289   4.308   4.725   2.301 -1.7204  0.5881  0.2658
  407THF    H12 8290   4.097   4.795   2.378  0.3743 -1.3679 -0.4933
  407THF    H13 8291   4.117   4.689   2.514  0.0297 -0.1013 -0.2440
  408THF     O1 8292   3.252   2.268   4.333  0.1840  0.1940 -0.6613
  408THF     C2 8293   3.211   2.342   4.445 -0.0082 -0.4028  0.1081
  408THF     C3 8294   3.140   2.215   4.267 -0.4495 -0.1441  0.7498
  408THF     H4 8295   3.181   2.444   4.422  0.3765 -0.1377  0.7748
  408THF     H5 8296   3.292   2.352   4.517  0.7942  1.6162 -1.0256
  408THF     H6 8297   3.127   2.258   4.168  0.0694 -1.9421 -0.1379
  408THF     H7 8298   3.163   2.109   4.267  1.5413  0.2535  0.9932
  408THF     C8 8299   3.021   2.250   4.354  0.3434 -0.0248 -0.0532
  408THF     C9 8300   3.076   2.268   4.490 -0.7501  0.3886 -0.4711
  408THF    H10 8301   2.946   2.170   4.357 -1.6155  1.7060 -0.4877
  408THF    H11 8302   2.966   2.339   4.324 -1.1824 -0.6176  0.8299
  408THF    H12 8303   3.019   2.328   4.561 -1.7902 -0.5186 -0.5091
  408THF    H13 8304   3.099   2.174   4.540  0.6926  1.2928  0.6425
  409THF     O1 8305   1.263   3.235   2.548  0.1499 -0.1272  0.0642
  409THF     C2 8306   1.260   3.187   2.683  0.0551 -0.3601 -0.0147
  409THF     C3 8307   1.257   3.370   2.549 -0.5597  0.5215 -0.2818
  409THF     H4 8308   1.350   3.131   2.707  0.6329  1.4256  2.4837
  409THF     H5 8309   1.174   3.122   2.698  3.1798 -5.3184 -1.0566
  409THF     H6 8310   1.329   3.390   2.470 -0.4392  0.7514 -0.1166
  409THF     H7 8311   1.160   3.411   2.520 -1.2974 -0.2432  0.9717
  409THF     C8 8312   1.304   3.421   2.679 -0.2101  0.8289  0.3683
  409THF     C9 8313   1.263   3.310   2.768  0.5653 -0.3941  0.1168
  409THF    H10 8314   1.249   3.511   2.706 -0.4799  0.4818  1.0074
  409THF    H11 8315   1.413   3.428   2.687 -0.0083  0.6855 -1.8197
  409THF    H12 8316   1.321   3.292   2.858 -0.0951  1.5985  1.0171
  409THF    H13 8317   1.161   3.322   2.805 -0.3328 -2.9697 -1.3032
  410THF     O1 8318   3.245   2.995   4.811  1.0941  0.1927 -0.2964
  410THF     C2 8319   3.159   3.095   4.759  0.1823  0.3389 -0.5689
  410THF     C3 8320   3.374   3.021   4.772 -0.3854 -0.3103 -0.4736
  410THF     H4 8321   3.062   3.081   4.806 -0.1291  0.3299 -1.2056
  410THF     H5 8322   3.148   3.065   4.655  0.1810 -3.3402  0.3427
  410THF     H6 8323   3.445   2.983   4.846  0.3158  0.8679 -0.5219
  410THF     H7 8324   3.400   2.979   4.675 -0.8162 -0.0739 -0.6932
  410THF     C8 8325   3.378   3.177   4.782  0.3461  0.0375  0.6422
  410THF     C9 8326   3.237   3.224   4.786 -0.0728  0.2468 -0.2008
  410THF    H10 8327   3.430   3.234   4.706 -1.5389 -0.3309 -0.9950
  410THF    H11 8328   3.431   3.208   4.872  2.2481  2.1425 -1.1139
  410THF    H12 8329   3.218   3.257   4.889  1.4072 -0.1517  0.2192
  410THF    H13 8330   3.218   3.304   4.716 -2.3115  0.1892  0.2607
  411THF     O1 8331   1.494   2.685   1.410  0.1465  0.0559  0.7245
  411THF     C2 8332   1.637   2.668   1.380 -0.2216  0.1443  0.4266
  411THF     C3 8333   1.456   2.822   1.406 -0.3963  0.4337  0.2621
  411THF     H4 8334   1.657   2.577   1.323  0.2098 -0.9958  2.2691
  411THF     H5 8335   1.697   2.679   1.471  0.6655  1.9750 -0.3370
  411THF     H6 8336   1.356   2.842   1.369 -0.1574  0.9997 -0.1026
  411THF     H7 8337   1.470   2.868   1.504 -0.5145  0.0227  0.4724
  411THF     C8 8338   1.552   2.886   1.308 -0.2720  0.4676  0.0713
  411THF     C9 8339   1.663   2.785   1.286  0.6041 -0.0563  0.1466
  411THF    H10 8340   1.590   2.984   1.333 -1.6299  1.6329 -2.0972
  411THF    H11 8341   1.496   2.898   1.215  0.1351  0.7473 -0.1411
  411THF    H12 8342   1.671   2.739   1.187  1.5858 -1.4086  0.8069
  411THF    H13 8343   1.759   2.836   1.296  0.6333  0.4899 -2.2433
  412THF     O1 8344   5.120   4.121   3.676 -0.6950 -0.8627  0.4520
  412THF     C2 8345   5.117   4.139   3.815 -0.1128  0.0782  0.1261
  412THF     C3 8346   5.226   4.026   3.645  0.4655  0.3373 -0.2059
  412THF     H4 8347   5.059   4.059   3.861 -0.4975 -0.0096 -0.4929
  412THF     H5 8348   5.063   4.231   3.835 -0.0120  0.4939 -1.3550
  412THF     H6 8349   5.198   3.921   3.658  0.6806  0.3755  0.6179
  412THF     H7 8350   5.256   4.035   3.540  1.5722 -1.1809 -0.0520
  412THF     C8 8351   5.332   4.066   3.745  0.0906  0.0431  0.4900
  412THF     C9 8352   5.267   4.149   3.850 -0.2433  0.1048 -0.2212
  412THF    H10 8353   5.410   4.123   3.695 -1.3430  0.9343 -0.8339
  412THF    H11 8354   5.381   3.976   3.780  1.3959 -0.1454 -1.6371
  412THF    H12 8355   5.292   4.118   3.952 -2.6997  1.1988  0.8102
  412THF    H13 8356   5.314   4.244   3.828 -1.0906  0.2391 -1.5235
  413THF     O1 8357   0.625   5.209   3.678  0.2014 -0.1690  0.2014
  413THF     C2 8358   0.744   5.201   3.608  0.5317 -0.3031 -0.8010
  413THF     C3 8359   0.669   5.187   3.816 -0.0424  0.0206  0.4812
  413THF     H4 8360   0.734   5.231   3.504 -1.7424 -0.5394 -0.6970
  413THF     H5 8361   0.766   5.094   3.605 -0.3805 -0.4932 -1.1665
  413THF     H6 8362   0.600   5.223   3.892 -1.0657  2.2857 -1.4022
  413THF     H7 8363   0.681   5.079   3.829 -5.1296 -1.0253 -1.2370
  413THF     C8 8364   0.801   5.273   3.831  0.4454 -0.0154  0.7314
  413THF     C9 8365   0.842   5.290   3.688  0.1026  0.2115  0.0154
  413THF    H10 8366   0.866   5.224   3.903 -1.1260 -2.2173  0.7680
  413THF    H11 8367   0.772   5.368   3.875 -1.5229  0.0018 -0.4769
  413THF    H12 8368   0.836   5.390   3.645 -3.7452  0.2029  0.2460
  413THF    H13 8369   0.940   5.244   3.674  0.1556 -0.0607  1.1520
  414THF     O1 8370   5.279   4.835   1.036 -0.0363  0.7330 -0.1479
  414THF     C2 8371   5.296   4.919   0.928 -0.0219  0.7071 -0.0849
  414THF     C3 8372   5.140   4.817   1.056 -0.0603  0.0726  0.0976
  414THF     H4 8373   5.396   4.905   0.885 -0.8614 -1.1511 -1.6013
  414THF     H5 8374   5.282   5.023   0.956  0.5346  0.8167 -0.1991
  414THF     H6 8375   5.138   4.737   1.130  0.3095  1.0672  1.2166
  414THF     H7 8376   5.092   4.907   1.095  1.4963  0.7373  0.5441
  414THF     C8 8377   5.098   4.784   0.921  0.4403  0.6014 -0.2201
  414THF     C9 8378   5.181   4.879   0.829 -0.7440 -0.4631 -0.5885
  414THF    H10 8379   4.991   4.805   0.915  0.6408  1.4846 -1.2686
  414THF    H11 8380   5.128   4.686   0.885  0.3153  0.5173 -0.0943
  414THF    H12 8381   5.218   4.851   0.730 -0.6583 -1.0984 -0.3828
  414THF    H13 8382   5.123   4.968   0.803  0.0415 -0.2780 -1.8096
  415THF     O1 8383   0.621   3.362   5.428  0.5776  0.3394  0.2207
  415THF     C2 8384   0.667   3.483   5.371  0.3120  0.1358  0.4758
  415THF     C3 8385   0.532   3.397   5.538 -0.6685  0.1519 -0.5830
  415THF     H4 8386   0.604   3.508   5.286  0.7301 -0.6709 -0.0794
  415THF     H5 8387   0.767   3.469   5.330  0.2151  2.1502 -0.5567
  415THF     H6 8388   0.440   3.440   5.497 -0.9390 -2.0661 -2.5470
  415THF     H7 8389   0.512   3.318   5.610 -0.4458  0.4255 -0.2161
  415THF     C8 8390   0.632   3.495   5.608  0.5018  0.3391 -0.1546
  415THF     C9 8391   0.680   3.576   5.491 -0.1347 -0.3015  0.3890
  415THF    H10 8392   0.710   3.431   5.651  0.7730  0.5617 -0.3134
  415THF    H11 8393   0.585   3.554   5.687  1.3931  2.5724 -1.2098
  415THF    H12 8394   0.626   3.668   5.471  0.1799 -0.1279  0.3372
  415THF    H13 8395   0.782   3.607   5.512 -0.1075 -0.6831  0.8523
  416THF     O1 8396   4.518   2.543   4.571 -0.5219 -0.3517 -0.1748
  416THF     C2 8397   4.659   2.561   4.606 -0.2145 -0.5987 -0.4292
  416THF     C3 8398   4.463   2.439   4.654 -0.7269 -0.2494  0.9191
  416THF     H4 8399   4.687   2.622   4.691 -0.6917  0.1400 -0.7918
  416THF     H5 8400   4.719   2.584   4.517  0.6033  2.5502  0.8020
  416THF     H6 8401   4.375   2.481   4.702  0.4774  2.1046  1.1845
  416THF     H7 8402   4.428   2.357   4.591  0.4784 -0.7460  0.8582
  416THF     C8 8403   4.577   2.388   4.733 -0.5816 -0.0899 -0.1592
  416THF     C9 8404   4.703   2.427   4.660 -0.0071  0.0591  0.9085
  416THF    H10 8405   4.568   2.279   4.739  2.1512 -0.3666  0.3432
  416THF    H11 8406   4.564   2.432   4.831 -0.3009  0.2774 -0.2845
  416THF    H12 8407   4.795   2.432   4.718  0.5200  0.8051  0.0265
  416THF    H13 8408   4.714   2.351   4.582  2.7606 -0.6607  1.8995
  417THF     O1 8409   2.270   0.076   0.566  0.7928  0.3147  0.1882
  417THF     C2 8410   2.335   0.168   0.483 -1.1486  0.2086  0.1860
  417THF     C3 8411   2.276   0.118   0.692 -0.4474 -0.5754 -0.5353
  417THF     H4 8412   2.265   0.248   0.458 -0.4460  0.3384 -1.5061
  417THF     H5 8413   2.358   0.103   0.398  0.8082 -1.0799  1.6126
  417THF     H6 8414   2.200   0.196   0.695  1.2755  1.1426  0.5373
  417THF     H7 8415   2.251   0.050   0.774 -0.4701  1.7284  1.4768
  417THF     C8 8416   2.410   0.190   0.707  0.4802  0.2866  0.2421
  417THF     C9 8417   2.456   0.213   0.567  0.6100  0.5384  0.2994
  417THF    H10 8418   2.487   0.131   0.755  2.5570  3.1190  0.6785
  417THF    H11 8419   2.394   0.286   0.756 -0.2127  1.3970 -1.9785
  417THF    H12 8420   2.490   0.313   0.539  1.2450  0.7654  1.7504
  417THF    H13 8421   2.534   0.143   0.539 -0.4783 -0.6031  0.0631
  418THF     O1 8422   3.373   1.062   0.320 -0.5718 -0.0034  0.4640
  418THF     C2 8423   3.270   1.149   0.268 -0.0189  0.2783  0.1945
  418THF     C3 8424   3.330   0.998   0.441 -0.0134  0.4122 -0.6500
  418THF     H4 8425   3.198   1.105   0.199 -1.6948  1.7269  0.9446
  418THF     H5 8426   3.329   1.226   0.218  0.6458 -1.0438 -1.1218
  418THF     H6 8427   3.293   0.898   0.418  0.8753 -0.2697  0.7564
  418THF     H7 8428   3.411   0.990   0.513 -1.2666  1.1597  0.9095
  418THF     C8 8429   3.213   1.074   0.497  0.9329  0.1350  0.6623
  418THF     C9 8430   3.197   1.193   0.398 -0.4034  0.2410  0.3574
  418THF    H10 8431   3.234   1.111   0.598  1.6872  0.2959  0.4448
  418THF    H11 8432   3.133   1.000   0.500  1.1928 -0.1547  0.3635
  418THF    H12 8433   3.096   1.226   0.374 -0.4239 -0.7360 -1.0056
  418THF    H13 8434   3.253   1.277   0.440  2.2763 -0.6328 -1.2479
  419THF     O1 8435   5.158   3.505   1.546 -0.0919  0.5422 -0.2152
  419THF     C2 8436   5.059   3.429   1.475  0.1707  0.4657 -0.1490
  419THF     C3 8437   5.263   3.520   1.456 -0.4507 -0.3579 -0.2851
  419THF     H4 8438   4.972   3.441   1.539  0.8298  2.2067  0.4990
  419THF     H5 8439   5.077   3.321   1.477  0.3991  0.4811 -1.1683
  419THF     H6 8440   5.311   3.613   1.487 -2.1283  0.5490 -0.2710
  419THF     H7 8441   5.336   3.441   1.471 -1.7553 -1.2687  1.6010
  419THF     C8 8442   5.210   3.519   1.313 -0.1389  0.2714 -0.7016
  419THF     C9 8443   5.067   3.493   1.341  0.5851  0.4916  0.6209
  419THF    H10 8444   5.253   3.438   1.254 -1.0418  0.1425 -1.1957
  419THF    H11 8445   5.228   3.610   1.256  0.4371  0.9137  0.4693
  419THF    H12 8446   5.005   3.583   1.344 -2.0056 -1.2212  1.1477
  419THF    H13 8447   5.031   3.432   1.258  0.7623 -0.6940  1.3952
  420THF     O1 8448   4.199   3.947   1.363 -0.4007 -0.5151  0.3653
  420THF     C2 8449   4.330   3.993   1.381  0.3207 -0.2343  0.4686
  420THF     C3 8450   4.189   3.875   1.242  0.0281 -0.4892  0.0436
  420THF     H4 8451   4.387   3.915   1.431  1.0459  0.4895  0.7888
  420THF     H5 8452   4.324   4.080   1.446 -0.0193  1.0114 -1.1596
  420THF     H6 8453   4.239   3.779   1.254  1.7377  0.4906  1.2448
  420THF     H7 8454   4.087   3.850   1.213 -0.2441 -0.1507  0.6594
  420THF     C8 8455   4.264   3.966   1.145  0.6605  1.1963 -0.0789
  420THF     C9 8456   4.370   4.027   1.240 -0.2352 -0.1819  0.5911
  420THF    H10 8457   4.193   4.041   1.112  0.2495  1.0875  0.5394
  420THF    H11 8458   4.309   3.911   1.063 -0.9219  1.1360 -0.9332
  420THF    H12 8459   4.471   3.993   1.219 -0.2209  0.1264  0.1561
  420THF    H13 8460   4.368   4.135   1.228 -0.0831 -0.2583 -0.1453
  421THF     O1 8461   2.242   2.235   1.162  0.1300 -0.2792 -0.6231
  421THF     C2 8462   2.343   2.322   1.105 -0.6783 -0.3037 -0.4877
  421THF     C3 8463   2.199   2.154   1.053  0.4355 -0.1722  0.0961
  421THF     H4 8464   2.423   2.337   1.178  0.2417 -0.9435 -1.3355
  421THF     H5 8465   2.303   2.419   1.079 -1.0144  0.2056  1.7226
  421THF     H6 8466   2.139   2.068   1.081  0.9483 -0.0312  1.6954
  421THF     H7 8467   2.123   2.215   1.004  1.0927  0.4141 -0.2270
  421THF     C8 8468   2.316   2.124   0.957  0.7979  0.3394 -0.0383
  421THF     C9 8469   2.414   2.236   0.993 -0.7541  0.4707 -0.1129
  421THF    H10 8470   2.300   2.132   0.849  2.1670 -1.6820 -0.4532
  421THF    H11 8471   2.355   2.023   0.973  1.2766  0.7483  1.5308
  421THF    H12 8472   2.504   2.192   1.036 -1.1459  1.2946  1.6510
  421THF    H13 8473   2.435   2.307   0.913 -1.2655  0.5467 -0.1850
  422THF     O1 8474   5.177   2.605   1.461  0.1263  0.0208  0.9291
  422THF     C2 8475   5.090   2.580   1.565  0.2974  0.4845  0.6998
  422THF     C3 8476   5.302   2.638   1.516 -0.2496 -0.0736  0.2861
  422THF     H4 8477   5.115   2.482   1.605  0.1492 -0.2745 -0.9963
  422THF     H5 8478   4.987   2.587   1.533  0.3099  0.1334  0.5768
  422THF     H6 8479   5.360   2.550   1.545  0.8922  0.7598  0.6239
  422THF     H7 8480   5.362   2.709   1.458 -0.6043  1.5172  1.7679
  422THF     C8 8481   5.265   2.718   1.633  0.5659 -0.6074 -0.4598
  422THF     C9 8482   5.126   2.682   1.665  0.3222 -0.2137 -0.1862
  422THF    H10 8483   5.266   2.825   1.611 -1.6250 -0.7010 -1.2905
  422THF    H11 8484   5.328   2.695   1.719  0.1936  2.3113  0.7290
  422THF    H12 8485   5.116   2.640   1.765  1.9192 -0.0723  0.0453
  422THF    H13 8486   5.078   2.779   1.651 -0.2065 -0.3792  0.4198
  423THF     O1 8487   2.864   4.325   1.049 -0.1122  0.2049  0.1160
  423THF     C2 8488   2.858   4.451   1.106 -0.2638 -0.2192 -0.3203
  423THF     C3 8489   2.938   4.235   1.144  0.0986 -0.4201  0.8262
  423THF     H4 8490   2.770   4.516   1.097  1.0971  1.6726 -0.5369
  423THF     H5 8491   2.942   4.492   1.052 -1.3983  1.9974 -0.5288
  423THF     H6 8492   2.867   4.164   1.187 -3.0278  1.1659 -1.3259
  423THF     H7 8493   3.009   4.176   1.087  2.1045  0.8945  1.8452
  423THF     C8 8494   2.999   4.324   1.240 -0.4592  0.3259  0.7847
  423THF     C9 8495   2.909   4.446   1.248 -0.4112  0.2920  0.3610
  423THF    H10 8496   3.091   4.364   1.198  0.6479 -1.2225  1.6093
  423THF    H11 8497   3.024   4.271   1.332  0.5604  0.5129  0.6272
  423THF    H12 8498   2.833   4.427   1.324  0.6227 -0.8190  1.1441
  423THF    H13 8499   2.963   4.534   1.284  0.7885 -0.2587 -0.0438
  424THF     O1 8500   2.594   2.912   3.171  0.8600  0.4074  0.4595
  424THF     C2 8501   2.594   2.853   3.296  0.3176  0.3140  0.1941
  424THF     C3 8502   2.529   2.827   3.076  0.6103  0.8209 -0.1708
  424THF     H4 8503   2.583   2.922   3.380 -1.6181  0.6181 -0.2454
  424THF     H5 8504   2.688   2.799   3.292  2.0266  3.1133  0.3870
  424THF     H6 8505   2.492   2.887   2.992 -0.3222  0.5515  0.0289
  424THF     H7 8506   2.595   2.750   3.035 -1.4925 -1.4004  0.3764
  424THF     C8 8507   2.411   2.768   3.165 -0.0886 -0.1724 -0.7691
  424THF     C9 8508   2.477   2.753   3.304  0.3094 -0.3964 -0.4678
  424THF    H10 8509   2.382   2.675   3.116 -0.2306 -0.6587  0.2166
  424THF    H11 8510   2.326   2.832   3.190 -0.8379 -1.7682  1.0032
  424THF    H12 8511   2.404   2.789   3.377  0.4504  0.0871 -0.5629
  424THF    H13 8512   2.514   2.654   3.330  2.6755  0.8634  1.3612
  425THF     O1 8513   2.954   5.086   4.952  0.6967  0.4097 -0.2023
  425THF     C2 8514   2.858   5.108   4.850  0.0442 -1.0074  0.2247
  425THF     C3 8515   3.016   5.208   4.984 -0.0385  0.0527  0.1372
  425THF     H4 8516   2.767   5.144   4.899 -0.2586 -0.1036 -0.9593
  425THF     H5 8517   2.851   5.018   4.790 -0.7919 -0.8144  0.0134
  425THF     H6 8518   2.945   5.252   5.054 -1.5497 -0.9136 -0.7362
  425THF     H7 8519   3.107   5.193   5.042 -0.1494 -2.5797 -0.2544
  425THF     C8 8520   3.032   5.267   4.848 -0.7674 -0.0094 -0.0142
  425THF     C9 8521   2.904   5.234   4.783  0.0408  0.2643 -0.5458
  425THF    H10 8522   3.119   5.219   4.802 -1.7405 -1.0000 -0.8762
  425THF    H11 8523   3.056   5.373   4.852  0.6834 -0.3339  1.8279
  425THF    H12 8524   2.831   5.311   4.806 -0.7029 -0.2941 -0.9716
  425THF    H13 8525   2.913   5.220   4.675 -0.5397  0.8868 -0.6764
  426THF     O1 8526   1.433   4.864   3.719  0.4049  0.0069  0.0080
  426THF     C2 8527   1.319   4.791   3.674  0.0186 -0.2233 -0.5112
  426THF     C3 8528   1.521   4.772   3.779 -0.4522  1.0566  0.5039
  426THF     H4 8529   1.338   4.732   3.584  0.3331 -0.8103 -0.0663
  426THF     H5 8530   1.239   4.863   3.654  0.5512  0.4332 -0.2877
  426THF     H6 8531   1.571   4.733   3.691  0.0953  0.3729  1.1013
  426THF     H7 8532   1.602   4.813   3.839  3.4907 -1.1415 -2.8193
  426THF     C8 8533   1.438   4.677   3.860 -0.2721 -0.4285  0.2687
  426THF     C9 8534   1.301   4.700   3.787  0.3020  0.5326 -0.1730
  426THF    H10 8535   1.430   4.690   3.967 -0.6697 -1.2813  0.3458
  426THF    H11 8536   1.483   4.578   3.853 -0.1715 -0.4217  0.8043
  426THF    H12 8537   1.244   4.609   3.768 -0.3239  0.4039  2.0553
  426THF    H13 8538   1.241   4.753   3.861 -0.9258  0.5828 -1.1663
  427THF     O1 8539   2.549   1.484   4.015  0.0198  0.4125 -0.2237
  427THF     C2 8540   2.622   1.458   4.132  0.3501 -0.5516  0.3656
  427THF     C3 8541   2.517   1.623   3.998 -0.1052  0.2075 -0.4623
  427THF     H4 8542   2.724   1.495   4.120  0.3129 -0.1605  1.1389
  427THF     H5 8543   2.624   1.357   4.174  2.3817 -0.2447  1.1297
  427THF     H6 8544   2.605   1.676   3.961  0.4729 -1.4042 -1.5050
  427THF     H7 8545   2.431   1.624   3.931  0.4986  0.9131 -1.2527
  427THF     C8 8546   2.482   1.671   4.138 -0.0670  0.1943  0.3907
  427THF     C9 8547   2.545   1.556   4.224 -0.2298  0.0849  0.6403
  427THF    H10 8548   2.377   1.681   4.166 -0.7745 -1.8028 -1.3381
  427THF    H11 8549   2.541   1.759   4.164  0.6840 -0.4701  0.9844
  427THF    H12 8550   2.618   1.593   4.296 -0.7535 -1.1744  1.8617
  427THF    H13 8551   2.471   1.495   4.276  1.5874 -0.4338  2.7685
  428THF     O1 8552   3.886   0.632   4.511  0.0102  0.2974 -0.0846
  428THF     C2 8553   3.939   0.616   4.387 -0.9990  0.3709 -0.8755
  428THF     C3 8554   3.744   0.616   4.495 -0.3278  1.2303 -0.7846
  428THF     H4 8555   3.943   0.515   4.347  0.3798  0.4350 -0.9471
  428THF     H5 8556   4.041   0.654   4.387 -0.7979 -0.1432 -1.5158
  428THF     H6 8557   3.712   0.512   4.498 -3.1891  2.0504 -0.4583
  428THF     H7 8558   3.693   0.667   4.577  0.5584 -2.6326  2.5140
  428THF     C8 8559   3.707   0.656   4.358  0.1342 -0.6096  0.4928
  428THF     C9 8560   3.845   0.699   4.309 -0.1249  0.6935  0.2141
  428THF    H10 8561   3.650   0.749   4.347  1.9329  0.3484 -1.5189
  428THF    H11 8562   3.671   0.583   4.285  1.7608 -1.2170  0.2599
  428THF    H12 8563   3.866   0.678   4.204 -0.5066 -0.3162  0.3268
  428THF    H13 8564   3.863   0.805   4.325  1.5384  0.4448  0.0880
  429THF     O1 8565   4.793   4.825   0.634  0.1382  0.4412 -0.2515
  429THF     C2 8566   4.821   4.685   0.631  0.6487  0.1909 -0.1826
  429THF     C3 8567   4.652   4.833   0.617 -0.5603  0.1371 -0.1137
  429THF     H4 8568   4.913   4.652   0.678 -1.3243 -1.4466  2.8326
  429THF     H5 8569   4.831   4.660   0.525  1.3555  0.4916 -0.1920
  429THF     H6 8570   4.611   4.903   0.691 -2.6476 -1.7653  0.6488
  429THF     H7 8571   4.627   4.873   0.519 -0.8684  0.0351 -0.0797
  429THF     C8 8572   4.590   4.688   0.642  0.0485 -0.7923  0.3490
  429THF     C9 8573   4.707   4.621   0.713 -0.3782  0.2925  0.6222
  429THF    H10 8574   4.570   4.662   0.538 -0.7590 -4.4253  1.2778
  429THF    H11 8575   4.495   4.683   0.695 -1.0248  0.0769 -1.3995
  429THF    H12 8576   4.711   4.659   0.815  1.4781 -0.3428  0.8106
  429THF    H13 8577   4.711   4.512   0.713  0.0212  0.3050  0.8243
  430THF     O1 8578   2.884   2.002   1.942  0.2226  0.5712  0.1299
  430THF     C2 8579   2.858   2.101   2.047  1.0397  0.3900 -0.2409
  430THF     C3 8580   2.756   1.961   1.914  0.1538 -0.7634  0.1126
  430THF     H4 8581   2.952   2.151   2.069  1.5495 -0.8705  0.6101
  430THF     H5 8582   2.827   2.043   2.134  1.2049  1.4234  0.5270
  430THF     H6 8583   2.752   1.898   1.824 -2.5911 -1.9902  0.9845
  430THF     H7 8584   2.714   1.909   2.001 -0.9804  1.0618  0.7004
  430THF     C8 8585   2.681   2.094   1.899  0.0496  0.8189 -0.0007
  430THF     C9 8586   2.749   2.183   1.998 -0.0860 -0.3035  0.1920
  430THF    H10 8587   2.573   2.097   1.905  0.0901  1.1421  0.5542
  430THF    H11 8588   2.699   2.118   1.794 -2.8736  0.5186 -0.6631
  430THF    H12 8589   2.809   2.266   1.960  2.8849 -1.4665  2.0307
  430THF    H13 8590   2.688   2.222   2.079 -2.2835  1.6494 -2.2116
  431THF     O1 8591   3.160   0.234   5.087 -0.5678 -0.3882 -0.2458
  431THF     C2 8592   3.131   0.160   5.204  0.4090  0.3912  1.3358
  431THF     C3 8593   3.098   0.163   4.973 -0.1659  0.1559 -0.4753
  431THF     H4 8594   3.133   0.232   5.286  3.0657  0.7265  1.0665
  431THF     H5 8595   3.202   0.080   5.228 -1.1941 -1.9642 -1.1603
  431THF     H6 8596   3.096   0.242   4.897 -0.7213  1.0692  0.4756
  431THF     H7 8597   3.172   0.086   4.951 -1.3602 -1.4147  0.8204
  431THF     C8 8598   2.956   0.124   5.033 -0.2626 -0.7075 -0.0725
  431THF     C9 8599   2.990   0.097   5.187 -0.1215  0.3871  0.3851
  431THF    H10 8600   2.906   0.042   4.981 -0.3768  0.5451 -2.0687
  431THF    H11 8601   2.893   0.212   5.018 -0.0154 -0.5943 -0.4587
  431THF    H12 8602   2.908   0.133   5.249  0.1422  0.9386  0.4258
  431THF    H13 8603   2.999  -0.007   5.215  0.7626  0.6397  1.1042
  432THF     O1 8604   1.637   1.499   1.610 -0.5745 -0.2658  0.3620
  432THF     C2 8605   1.598   1.499   1.471 -0.2042  0.1636 -0.3548
  432THF     C3 8606   1.693   1.631   1.636  0.5949 -0.3440  0.2650
  432THF     H4 8607   1.503   1.548   1.452 -0.3221  0.5609  1.1077
  432THF     H5 8608   1.585   1.398   1.434  1.1365  0.4353 -1.6873
  432THF     H6 8609   1.610   1.684   1.682 -1.1147 -0.5375 -2.3636
  432THF     H7 8610   1.767   1.612   1.714 -0.9019 -1.3430  1.4852
  432THF     C8 8611   1.740   1.689   1.503 -0.1011  0.6208 -0.5150
  432THF     C9 8612   1.714   1.576   1.400  0.4143 -0.1392  0.5580
  432THF    H10 8613   1.843   1.724   1.499  0.0344  0.4798  1.1546
  432THF    H11 8614   1.678   1.773   1.474 -1.8344 -0.4425 -0.0208
  432THF    H12 8615   1.681   1.621   1.307  0.0422  0.5274  1.0000
  432THF    H13 8616   1.801   1.512   1.387  0.4098 -0.2677  1.1180
  433THF     O1 8617   4.645   0.324   4.733  0.1847 -0.0994 -0.1832
  433THF     C2 8618   4.555   0.426   4.696 -0.0761  0.4469 -0.6194
  433THF     C3 8619   4.738   0.316   4.624 -0.3077 -0.5261  0.4963
  433THF     H4 8620   4.520   0.482   4.783 -1.1378 -0.2826 -0.5570
  433THF     H5 8621   4.467   0.383   4.650  0.6290 -1.0772 -0.6209
  433THF     H6 8622   4.824   0.259   4.659  0.5834 -0.9519 -2.1678
  433THF     H7 8623   4.691   0.268   4.538 -1.8243 -1.3105  1.7049
  433THF     C8 8624   4.769   0.462   4.598 -0.2566 -0.2087  0.1788
  433THF     C9 8625   4.631   0.523   4.609  0.0477  0.1220  0.1728
  433THF    H10 8626   4.813   0.479   4.500 -0.3441  1.2221  0.3757
  433THF    H11 8627   4.841   0.504   4.668 -0.4786  1.0989 -0.3463
  433THF    H12 8628   4.627   0.619   4.661 -1.2803 -0.6144  1.4960
  433THF    H13 8629   4.580   0.536   4.514 -0.3991  0.9451  0.5167
  434THF     O1 8630   2.521   4.082   5.333 -0.0003 -0.2790  0.6379
  434THF     C2 8631   2.387   4.125   5.305  0.4396 -0.0649 -0.3268
  434THF     C3 8632   2.565   4.006   5.226 -0.3800 -0.5537  0.6743
  434THF     H4 8633   2.358   4.222   5.345  1.1150  0.1260 -0.2843
  434THF     H5 8634   2.317   4.054   5.347  0.8940  0.0095  0.5831
  434THF     H6 8635   2.673   4.000   5.212 -0.4150  0.0550  0.1397
  434THF     H7 8636   2.522   3.906   5.214 -0.2121 -0.6496  0.8447
  434THF     C8 8637   2.517   4.087   5.107  0.6222  0.0498 -0.3821
  434THF     C9 8638   2.377   4.123   5.148 -0.4884 -0.4922  0.1038
  434THF    H10 8639   2.504   4.034   5.012 -0.4472  1.8051 -1.2717
  434THF    H11 8640   2.583   4.169   5.078  0.5382 -0.6793 -2.8931
  434THF    H12 8641   2.343   4.213   5.095  3.8587  0.7999 -0.8840
  434THF    H13 8642   2.304   4.045   5.127 -2.6590  1.3630  0.2985
  435THF     O1 8643   2.269   3.119   3.613  0.8579  0.4151 -0.2875
  435THF     C2 8644   2.215   3.228   3.528  0.3529  0.3192 -0.6308
  435THF     C3 8645   2.336   3.034   3.520 -0.3823  0.4617 -0.7989
  435THF     H4 8646   2.273   3.318   3.549  2.9739 -1.4180  0.0735
  435THF     H5 8647   2.112   3.254   3.550 -0.0191 -2.4228  1.4062
  435THF     H6 8648   2.430   2.991   3.556 -1.2347 -1.1062 -0.3119
  435THF     H7 8649   2.265   2.952   3.504 -1.5523  1.1732  0.4896
  435THF     C8 8650   2.355   3.106   3.388  0.1209  0.4410  0.2518
  435THF     C9 8651   2.234   3.192   3.384 -0.3071  0.0845  0.5006
  435THF    H10 8652   2.369   3.036   3.305 -1.7326 -1.1676  1.2120
  435THF    H11 8653   2.446   3.164   3.401  0.7207 -0.5744  0.7148
  435THF    H12 8654   2.235   3.279   3.318 -0.8274 -0.6352 -0.4661
  435THF    H13 8655   2.152   3.126   3.355  0.9097 -0.8975 -0.7841
  436THF     O1 8656   3.397   4.059   2.550  0.5352 -0.3253 -0.3883
  436THF     C2 8657   3.323   3.991   2.655 -0.1542  0.1011  0.1360
  436THF     C3 8658   3.521   4.105   2.611  0.1570  0.3437  0.4543
  436THF     H4 8659   3.333   3.883   2.651  1.4309  0.2354 -0.4661
  436THF     H5 8660   3.221   4.028   2.646  0.4937  1.5301 -2.8833
  436THF     H6 8661   3.611   4.088   2.551 -0.3537 -0.3628 -0.1337
  436THF     H7 8662   3.523   4.213   2.621  1.2474  0.3229  0.6533
  436THF     C8 8663   3.538   4.020   2.740 -0.0535 -0.0696 -0.6749
  436THF     C9 8664   3.393   4.024   2.788 -0.5468 -0.0450 -0.5134
  436THF    H10 8665   3.597   4.069   2.818 -1.2230 -1.1533  0.9729
  436THF    H11 8666   3.576   3.922   2.713  0.7660  0.8992 -3.2503
  436THF    H12 8667   3.366   3.951   2.865  0.3815  0.2639  0.1296
  436THF    H13 8668   3.364   4.124   2.820 -1.6522 -0.9152  1.3954
  437THF     O1 8669   3.955   3.548   2.660 -0.2479 -0.1266  0.0617
  437THF     C2 8670   3.959   3.658   2.577  0.1065 -0.4216  0.0080
  437THF     C3 8671   3.829   3.485   2.646  0.2394 -0.5556 -0.0911
  437THF     H4 8672   3.981   3.629   2.474  0.2345  2.1374 -0.7779
  437THF     H5 8673   4.036   3.728   2.612 -0.6818  0.4253  0.0783
  437THF     H6 8674   3.835   3.400   2.578  1.6710  1.4860 -2.6808
  437THF     H7 8675   3.804   3.449   2.746  1.7407  0.5133  0.7179
  437THF     C8 8676   3.728   3.593   2.595 -0.6606 -0.7511 -0.6609
  437THF     C9 8677   3.812   3.715   2.567 -0.2129 -0.4669  0.2907
  437THF    H10 8678   3.639   3.610   2.656 -0.9039 -0.4167 -1.1028
  437THF    H11 8679   3.690   3.553   2.501 -0.8264 -0.9637 -0.5043
  437THF    H12 8680   3.806   3.749   2.463  0.2231 -0.5600  0.2328
  437THF    H13 8681   3.786   3.799   2.632 -2.4187 -1.3310  0.6179
  438THF     O1 8682   2.110   4.098   2.937 -0.1269  0.2804 -0.5383
  438THF     C2 8683   2.202   4.192   2.981  0.5801  0.3683 -0.2876
  438THF     C3 8684   2.126   3.986   3.026 -0.2665 -0.6608 -0.2304
  438THF     H4 8685   2.166   4.246   3.068 -0.4606  0.3165 -0.6735
  438THF     H5 8686   2.223   4.270   2.908  0.0083  1.0178  0.2326
  438THF     H6 8687   2.069   3.992   3.119  2.2616  0.3746  1.3558
  438THF     H7 8688   2.097   3.898   2.968 -1.5129 -0.0229 -0.6302
  438THF     C8 8689   2.272   3.980   3.057 -0.1733 -0.3821 -0.3934
  438THF     C9 8690   2.326   4.118   3.016  0.0853  0.1355  0.5687
  438THF    H10 8691   2.310   3.902   2.991 -0.2538 -2.0269  1.3977
  438THF    H11 8692   2.301   3.954   3.159  2.7551  0.3660 -0.9298
  438THF    H12 8693   2.390   4.167   3.090  0.2490  1.6164 -0.5031
  438THF    H13 8694   2.394   4.119   2.931  1.4013 -0.2548  1.5796
  439THF     O1 8695   3.829   0.329   2.260 -0.2356 -0.4267 -0.4488
  439THF     C2 8696   3.742   0.244   2.339 -0.6550 -0.8974  0.3416
  439THF     C3 8697   3.893   0.245   2.161  0.2969 -0.6568  0.2697
  439THF     H4 8698   3.661   0.288   2.396  1.0113  0.5370  1.7182
  439THF     H5 8699   3.813   0.193   2.404  0.3918 -1.9804 -1.5641
  439THF     H6 8700   3.928   0.307   2.079 -0.9737  0.0113  0.2093
  439THF     H7 8701   3.972   0.178   2.197  0.8155 -0.5672 -0.6780
  439THF     C8 8702   3.771   0.167   2.111 -0.4095  0.1502 -0.2262
  439THF     C9 8703   3.680   0.162   2.234  0.1725  0.0570 -0.3334
  439THF    H10 8704   3.788   0.065   2.080 -0.7606  0.2678 -0.8147
  439THF    H11 8705   3.717   0.220   2.032  2.7063  1.1626 -1.8340
  439THF    H12 8706   3.585   0.203   2.200  0.5227 -0.3862 -1.9348
  439THF    H13 8707   3.664   0.057   2.258  0.6702  0.3482  1.3504
  440THF     O1 8708   4.504   0.541   0.656 -0.3574  0.0267 -0.3776
  440THF     C2 8709   4.511   0.603   0.527 -0.0416  0.5505 -0.1789
  440THF     C3 8710   4.374   0.482   0.661  0.6869  0.4238  0.0252
  440THF     H4 8711   4.537   0.523   0.458  1.3961  0.4058  0.5059
  440THF     H5 8712   4.586   0.682   0.536 -0.7724  1.0491  2.7469
  440THF     H6 8713   4.366   0.388   0.606  3.3494  0.0372  0.1776
  440THF     H7 8714   4.351   0.464   0.766  0.8853  0.5319  0.0882
  440THF     C8 8715   4.279   0.581   0.594 -0.7125  0.0226  0.4039
  440THF     C9 8716   4.373   0.664   0.509  0.3341  0.1029 -0.6443
  440THF    H10 8717   4.241   0.644   0.675  0.2506  0.0218  0.8726
  440THF    H11 8718   4.202   0.539   0.530 -1.7668  0.0664  1.6063
  440THF    H12 8719   4.359   0.663   0.401 -0.5287 -0.0704 -0.5387
  440THF    H13 8720   4.375   0.768   0.545  4.0905 -0.7459  2.1999
  441THF     O1 8721   4.766   1.502   5.230 -0.8063 -0.1470  0.2985
  441THF     C2 8722   4.871   1.591   5.186  0.1460 -0.2003 -0.1437
  441THF     C3 8723   4.654   1.587   5.256 -0.0520  0.1230 -0.4980
  441THF     H4 8724   4.931   1.536   5.113 -0.4521  0.2695 -1.0066
  441THF     H5 8725   4.926   1.622   5.275  0.7763  3.7220 -1.7090
  441THF     H6 8726   4.571   1.520   5.279  1.9067 -1.2960  3.2363
  441THF     H7 8727   4.665   1.632   5.355 -0.7257  0.8435 -0.7402
  441THF     C8 8728   4.644   1.678   5.128 -0.0231 -0.1454 -0.6565
  441THF     C9 8729   4.798   1.708   5.126  0.2715 -0.4665 -0.0265
  441THF    H10 8730   4.585   1.769   5.130  1.1836  0.6489 -0.3260
  441THF    H11 8731   4.619   1.633   5.032 -1.0191 -1.6296  0.2668
  441THF    H12 8732   4.827   1.754   5.032 -2.1639 -0.6851 -0.9527
  441THF    H13 8733   4.808   1.785   5.203 -0.2151 -0.2403 -0.1847
  442THF     O1 8734   0.799   2.854   1.717 -0.0547  0.3914  0.0266
  442THF     C2 8735   0.889   2.814   1.826  0.6290  0.0628  0.3380
  442THF     C3 8736   0.743   2.982   1.721  0.5460 -0.2947  0.8874
  442THF     H4 8737   0.976   2.757   1.795  0.2144 -0.9299  0.9190
  442THF     H5 8738   0.833   2.763   1.905 -0.1804  1.3610  0.6328
  442THF     H6 8739   0.766   3.048   1.638  0.8751 -0.8988  0.4948
  442THF     H7 8740   0.634   2.977   1.714  0.5463  1.2042 -0.8726
  442THF     C8 8741   0.811   3.043   1.847 -0.2166  0.3719  0.6656
  442THF     C9 8742   0.925   2.949   1.882  0.1981 -0.1059 -0.3849
  442THF    H10 8743   0.739   3.055   1.929 -0.7510  1.1648  0.1042
  442THF    H11 8744   0.839   3.146   1.824 -1.2537  0.9062  1.6483
  442THF    H12 8745   1.007   2.996   1.827  0.1143 -0.1175 -0.5208
  442THF    H13 8746   0.955   2.934   1.986  0.7350  0.9650 -0.3671
  443THF     O1 8747   5.402   2.860   3.915 -0.4485 -0.0951  0.4064
  443THF     C2 8748   5.430   2.728   3.956  0.1995 -0.1940  0.0756
  443THF     C3 8749   5.285   2.862   3.844  1.0811 -0.4239  0.1818
  443THF     H4 8750   5.486   2.734   4.049  0.6330  1.3284 -0.2495
  443THF     H5 8751   5.491   2.679   3.879 -1.0934 -1.5498 -0.1393
  443THF     H6 8752   5.252   2.963   3.820  0.9622 -0.2733  0.9766
  443THF     H7 8753   5.302   2.805   3.752  1.1207  0.4123 -0.3461
  443THF     C8 8754   5.194   2.775   3.928  0.9351  0.0124  0.2134
  443THF     C9 8755   5.287   2.654   3.968  0.1465 -0.1922  0.0694
  443THF    H10 8756   5.117   2.736   3.861 -0.4988  1.3540  1.0064
  443THF    H11 8757   5.153   2.834   4.009 -1.3016 -0.0965 -0.7555
  443THF    H12 8758   5.268   2.604   4.063  0.7118 -2.9757 -1.1902
  443THF    H13 8759   5.278   2.574   3.894 -0.5360 -0.9832  0.9773
  444THF     O1 8760   0.873   0.312   4.941 -0.2031  0.7821 -0.2161
  444THF     C2 8761   0.808   0.408   4.863 -0.1944 -0.3014  0.6264
  444THF     C3 8762   1.012   0.339   4.935 -0.5642  0.0497  0.0588
  444THF     H4 8763   0.709   0.438   4.898 -0.2345 -0.0518  0.3041
  444THF     H5 8764   0.781   0.352   4.773  0.5026 -1.4120  1.0993
  444THF     H6 8765   1.072   0.293   5.014 -0.5088  0.7000  0.3983
  444THF     H7 8766   1.059   0.310   4.841  2.0406 -0.6907  1.5006
  444THF     C8 8767   1.011   0.493   4.928  0.0458  0.5204  0.2481
  444THF     C9 8768   0.901   0.531   4.838 -0.2651  0.3109 -0.5601
  444THF    H10 8769   1.109   0.513   4.886 -1.1968 -0.3363 -3.4222
  444THF    H11 8770   1.003   0.562   5.012 -0.4460  2.8929 -1.6510
  444THF    H12 8771   0.843   0.618   4.869  0.1657  1.2932 -2.3557
  444THF    H13 8772   0.929   0.542   4.733  1.0760 -0.4929 -0.3051
  445THF     O1 8773   4.403   4.839   0.976 -0.0927 -0.2121  0.0033
  445THF     C2 8774   4.274   4.795   1.005  0.3069  0.1840 -0.4047
  445THF     C3 8775   4.471   4.853   1.103  0.4812 -0.1378  0.7696
  445THF     H4 8776   4.226   4.754   0.916 -0.7359  0.2665  0.1111
  445THF     H5 8777   4.210   4.875   1.042  3.0590  1.5403  1.8088
  445THF     H6 8778   4.579   4.866   1.091  0.4906 -1.0739 -0.4025
  445THF     H7 8779   4.422   4.943   1.140  2.7528  2.1584 -1.4167
  445THF     C8 8780   4.425   4.725   1.177 -0.2069 -0.6855  0.0202
  445THF     C9 8781   4.292   4.695   1.117 -0.7979  0.6820 -0.0106
  445THF    H10 8782   4.423   4.749   1.283 -0.6092 -1.7216  0.2568
  445THF    H11 8783   4.486   4.637   1.159  0.1414 -0.1725 -1.4411
  445THF    H12 8784   4.293   4.588   1.096  3.1319  0.5215  0.2235
  445THF    H13 8785   4.214   4.712   1.191 -0.3600  0.8607  0.4181
  446THF     O1 8786   4.803   0.005   2.667 -0.2568 -0.3356 -0.3795
  446THF     C2 8787   4.947   0.005   2.667 -0.2301  0.2457 -0.4512
  446THF     C3 8788   4.755  -0.045   2.792  0.3588 -0.6182 -0.2442
  446THF     H4 8789   4.987   0.086   2.606 -0.0222 -0.3494 -1.1123
  446THF     H5 8790   4.981  -0.089   2.623  2.9315 -0.4082  2.8728
  446THF     H6 8791   4.681   0.030   2.819 -0.9875 -1.3068 -1.7839
  446THF     H7 8792   4.705  -0.142   2.784  0.8844 -0.8985 -0.1763
  446THF     C8 8793   4.878  -0.045   2.891  0.8436  0.0208 -0.5293
  446THF     C9 8794   4.987   0.020   2.807  0.3382 -0.0392 -0.1145
  446THF    H10 8795   4.901  -0.152   2.900 -3.7231 -1.3647 -2.2183
  446THF    H11 8796   4.864  -0.011   2.994  0.3982 -3.7854  0.8699
  446THF    H12 8797   5.001   0.127   2.817 -1.5155  0.3551 -1.2928
  446THF    H13 8798   5.083  -0.031   2.811  0.0548 -1.1633 -3.8093
  447THF     O1 8799   1.962   1.471   3.942 -0.1595 -0.1741 -0.3576
  447THF     C2 8800   1.856   1.542   3.996 -0.1210 -0.6627 -0.2538
  447THF     C3 8801   2.073   1.458   4.034 -0.2518 -0.8059 -0.1429
  447THF     H4 8802   1.772   1.485   4.035  1.7134 -3.4037 -0.0201
  447THF     H5 8803   1.816   1.612   3.923 -0.1656  0.0074  0.4027
  447THF     H6 8804   2.105   1.358   4.062 -0.2042 -0.6121  0.5139
  447THF     H7 8805   2.155   1.512   3.987  0.0542 -2.2040 -1.2603
  447THF     C8 8806   2.037   1.535   4.158  0.3897 -0.4649  0.7503
  447THF     C9 8807   1.922   1.624   4.109  0.5544 -0.7052 -0.1695
  447THF    H10 8808   2.131   1.580   4.192  0.2801  0.3620 -0.0050
  447THF    H11 8809   2.001   1.474   4.240  1.2230 -1.8754  0.0966
  447THF    H12 8810   1.861   1.651   4.196  1.0352  0.6283 -0.2218
  447THF    H13 8811   1.959   1.723   4.082 -0.2378 -0.5840 -0.8667
  448THF     O1 8812   0.709   2.140   1.008 -0.5124  0.7918 -0.1562
  448THF     C2 8813   0.783   2.219   0.912  0.0944 -0.3570  0.5125
  448THF     C3 8814   0.684   2.211   1.127 -0.1888 -0.2746  0.1275
  448THF     H4 8815   0.718   2.289   0.861  2.1145  0.1151 -1.5771
  448THF     H5 8816   0.844   2.157   0.846 -0.8645 -1.0570  0.2724
  448THF     H6 8817   0.595   2.268   1.103 -0.6028 -1.3971 -1.1260
  448THF     H7 8818   0.686   2.142   1.212 -0.6603 -0.3700  0.0632
  448THF     C8 8819   0.805   2.308   1.146 -0.2849  0.0346  0.1152
  448THF     C9 8820   0.878   2.294   1.007  0.5935  0.0562 -0.0651
  448THF    H10 8821   0.869   2.301   1.234 -0.6208  3.1979  0.7194
  448THF    H11 8822   0.767   2.410   1.154 -0.9722  0.0645 -2.6068
  448THF    H12 8823   0.909   2.390   0.966  2.6046  0.6057  2.4854
  448THF    H13 8824   0.959   2.223   1.023 -0.7963 -1.3082  1.1932
  449THF     O1 8825   3.915   1.434   4.917  0.3781  0.0762 -0.3442
  449THF     C2 8826   3.845   1.411   5.043 -0.1592  0.2680  0.8616
  449THF     C3 8827   3.892   1.322   4.837  0.1316  0.7598 -0.1935
  449THF     H4 8828   3.823   1.505   5.094 -2.1205 -0.9485  2.3928
  449THF     H5 8829   3.914   1.356   5.107  0.5998 -0.5353 -0.5907
  449THF     H6 8830   3.863   1.351   4.737 -2.0292 -2.5729 -0.6877
  449THF     H7 8831   3.983   1.262   4.824 -0.3863  0.1029 -0.8732
  449THF     C8 8832   3.803   1.223   4.918  0.1978 -0.2076  0.2628
  449THF     C9 8833   3.733   1.313   5.020 -0.2652  0.2834  0.5448
  449THF    H10 8834   3.863   1.153   4.977  1.3196 -0.4674 -1.1374
  449THF    H11 8835   3.732   1.169   4.856 -0.6870 -0.4375  1.4432
  449THF    H12 8836   3.647   1.364   4.977  0.9930  1.4128 -0.7012
  449THF    H13 8837   3.712   1.283   5.123 -0.4152  2.7077  1.2931
  450THF     O1 8838   0.657   0.950   4.250  0.5981 -0.4920  0.0804
  450THF     C2 8839   0.576   0.849   4.292 -0.2784  0.7353 -0.9831
  450THF     C3 8840   0.630   1.062   4.337 -0.2790 -0.1394 -0.5589
  450THF     H4 8841   0.619   0.754   4.258 -1.0696 -0.0453  0.1480
  450THF     H5 8842   0.471   0.859   4.267 -0.7832  1.6197  1.2856
  450THF     H6 8843   0.698   1.146   4.327 -3.4908  2.7811  0.1215
  450THF     H7 8844   0.534   1.106   4.309 -0.1059  0.8563  0.3534
  450THF     C8 8845   0.637   0.999   4.473  0.6039  0.8062 -0.1964
  450THF     C9 8846   0.598   0.856   4.442  0.3924 -0.1761 -0.5835
  450THF    H10 8847   0.576   1.044   4.552 -0.7773 -0.8971 -0.2590
  450THF    H11 8848   0.741   0.996   4.508  0.8461 -0.2951 -0.9669
  450THF    H12 8849   0.681   0.799   4.483  0.5785  1.0780  0.8611
  450THF    H13 8850   0.507   0.824   4.492  0.5207 -0.8855 -0.7907
  451THF     O1 8851   0.822   1.437   0.280 -0.3233 -0.1058 -0.8496
  451THF     C2 8852   0.708   1.487   0.220 -0.3222 -0.2985 -0.0667
  451THF     C3 8853   0.816   1.480   0.414 -0.7963  0.6162  0.2044
  451THF     H4 8854   0.618   1.430   0.242  0.4441 -0.7082  2.3174
  451THF     H5 8855   0.718   1.491   0.112 -0.3683  0.0273 -0.0598
  451THF     H6 8856   0.750   1.405   0.459  0.4102  0.1246  1.2123
  451THF     H7 8857   0.906   1.466   0.474 -1.1468 -0.3862  0.5178
  451THF     C8 8858   0.767   1.623   0.414  0.2894 -0.1886  0.0331
  451THF     C9 8859   0.700   1.629   0.277  0.0626  0.2054  0.0404
  451THF    H10 8860   0.845   1.699   0.423 -0.6851  1.1975 -2.2540
  451THF    H11 8861   0.692   1.627   0.492  0.1789 -1.2218 -0.0033
  451THF    H12 8862   0.596   1.659   0.285 -0.4725 -0.5308 -2.9636
  451THF    H13 8863   0.754   1.703   0.217 -1.1572  3.1275  2.3421
  452THF     O1 8864   4.557   1.058   1.091  0.1520 -0.3287 -0.0623
  452THF     C2 8865   4.488   1.164   1.015  0.2216 -0.2542  0.0597
  452THF     C3 8866   4.616   1.133   1.207  0.5894  0.8844  1.0883
  452THF     H4 8867   4.425   1.127   0.934 -0.6479  1.1378  0.0674
  452THF     H5 8868   4.568   1.229   0.979  2.5014 -2.2871  1.1803
  452THF     H6 8869   4.636   1.067   1.291  2.5067 -0.9433 -0.6834
  452THF     H7 8870   4.713   1.174   1.180  0.8431  0.6987  1.7126
  452THF     C8 8871   4.520   1.244   1.241 -0.7721 -0.1555  0.7848
  452THF     C9 8872   4.424   1.245   1.120 -0.1711 -0.0666  0.4095
  452THF    H10 8873   4.581   1.335   1.242 -0.8046 -0.0885 -0.7704
  452THF    H11 8874   4.471   1.223   1.335  0.6433 -1.0237  1.3663
  452THF    H12 8875   4.341   1.186   1.158 -0.0668 -0.5225 -0.0615
  452THF    H13 8876   4.398   1.345   1.085  2.1900  0.6206  0.4242
  453THF     O1 8877   4.352   1.098   0.051 -0.2255  0.4766 -0.0170
  453THF     C2 8878   4.251   1.177   0.106 -0.0860 -0.1200  0.9128
  453THF     C3 8879   4.339   1.102  -0.090  0.1805  0.5087  1.3326
  453THF     H4 8880   4.259   1.209   0.210  2.2467  0.8163  0.5011
  453THF     H5 8881   4.169   1.106   0.110  0.5205 -0.8191  1.3723
  453THF     H6 8882   4.431   1.083  -0.146 -1.4999 -1.7181 -0.9029
  453THF     H7 8883   4.275   1.018  -0.118  1.1175  0.9232 -2.6857
  453THF     C8 8884   4.286   1.240  -0.129 -0.6136  0.0572 -0.6968
  453THF     C9 8885   4.234   1.294   0.006  0.2509  0.4926  0.0496
  453THF    H10 8886   4.216   1.230  -0.212  0.7648 -4.5371 -1.5738
  453THF    H11 8887   4.371   1.298  -0.166 -0.4417  0.4992  0.3473
  453THF    H12 8888   4.288   1.385   0.035  0.7784  0.0900  0.3452
  453THF    H13 8889   4.128   1.318  -0.005  0.4876  0.8854 -1.7050
  454THF     O1 8890   1.540   2.826   3.810 -0.8880  0.3930 -0.8888
  454THF     C2 8891   1.623   2.941   3.815 -0.0105  0.6951  0.0685
  454THF     C3 8892   1.558   2.773   3.678  0.1680  0.0026  0.1642
  454THF     H4 8893   1.729   2.914   3.824  0.5501  2.3708 -1.0546
  454THF     H5 8894   1.589   2.993   3.904 -0.6051 -0.3717  0.4803
  454THF     H6 8895   1.660   2.735   3.668  0.2779  0.5913 -1.3555
  454THF     H7 8896   1.478   2.703   3.656 -1.9360  1.4778  2.5294
  454THF     C8 8897   1.536   2.894   3.595  0.1422 -0.1021  0.0658
  454THF     C9 8898   1.584   3.009   3.686 -0.2102 -0.2807  0.1194
  454THF    H10 8899   1.430   2.912   3.580  0.2380  0.3889 -0.0461
  454THF    H11 8900   1.582   2.888   3.496 -2.4512 -0.6682 -1.1739
  454THF    H12 8901   1.670   3.060   3.646  0.1488 -0.7453  0.2854
  454THF    H13 8902   1.500   3.078   3.689 -1.5529 -1.7812 -0.8120
  455THF     O1 8903   4.974   2.641   4.731 -0.0212 -0.2215 -0.3057
  455THF     C2 8904   5.086   2.641   4.823  0.5537 -0.6134  0.0016
  455THF     C3 8905   5.014   2.588   4.606 -0.4964 -0.5486 -0.3307
  455THF     H4 8906   5.044   2.649   4.923 -0.0707  0.3826 -0.3185
  455THF     H5 8907   5.147   2.731   4.816  0.4643 -0.4774  0.9359
  455THF     H6 8908   4.932   2.552   4.544 -0.0407 -1.4753 -0.4118
  455THF     H7 8909   5.067   2.671   4.558 -0.1312  0.8403  2.2393
  455THF     C8 8910   5.124   2.488   4.648  0.1840  0.1109  0.1482
  455THF     C9 8911   5.166   2.510   4.797  1.7160 -0.2207 -0.7532
  455THF    H10 8912   5.205   2.496   4.576  0.4817 -0.4588  0.4093
  455THF    H11 8913   5.087   2.385   4.640 -1.6416  0.5217  2.3160
  455THF    H12 8914   5.127   2.427   4.855  1.4321 -1.7532 -2.9897
  455THF    H13 8915   5.273   2.515   4.817  1.6182 -1.0091  0.0094
  456THF     O1 8916   3.527   1.764   1.215 -0.0837  0.2570 -0.1254
  456THF     C2 8917   3.652   1.741   1.283  0.6387 -0.5286  0.2114
  456THF     C3 8918   3.547   1.867   1.118  0.4678  0.4716  0.1626
  456THF     H4 8919   3.700   1.663   1.224  0.5795  0.4044 -1.1112
  456THF     H5 8920   3.656   1.719   1.390 -1.9314 -1.1303  0.2541
  456THF     H6 8921   3.529   1.823   1.019 -0.1203 -4.6361  2.2491
  456THF     H7 8922   3.479   1.950   1.136  1.0781  1.1796 -0.6696
  456THF     C8 8923   3.691   1.906   1.122 -0.7124 -0.4075 -0.2235
  456THF     C9 8924   3.732   1.859   1.255 -0.2992 -0.1314 -0.6180
  456THF    H10 8925   3.716   2.012   1.111  1.2159 -0.7836  0.2385
  456THF    H11 8926   3.750   1.850   1.050  0.2177 -0.8095  0.8148
  456THF    H12 8927   3.837   1.834   1.266  0.2082  2.0923  0.2204
  456THF    H13 8928   3.699   1.938   1.323 -0.5098  0.9161 -1.8755
  457THF     O1 8929   0.027   0.341   3.739 -0.0604  0.4740 -0.4964
  457THF     C2 8930   0.162   0.303   3.727 -0.9291  0.2687  0.4451
  457THF     C3 8931  -0.052   0.230   3.702  0.3158  0.2928  0.0389
  457THF     H4 8932   0.188   0.235   3.809  1.3747 -1.2342 -1.4060
  457THF     H5 8933   0.227   0.389   3.736 -0.5273 -0.1945  2.5718
  457THF     H6 8934  -0.064   0.155   3.779 -1.0156  0.4016 -0.0463
  457THF     H7 8935  -0.150   0.275   3.685  0.3453  1.0245  1.6309
  457THF     C8 8936   0.020   0.180   3.572  0.2617  0.4754  1.0224
  457THF     C9 8937   0.160   0.242   3.581  0.0717 -0.1632 -0.7463
  457THF    H10 8938  -0.021   0.223   3.480  2.0399  2.6795  1.1741
  457THF    H11 8939   0.021   0.072   3.565  0.0426  0.4688  1.1094
  457THF    H12 8940   0.228   0.158   3.566  0.3358  0.4005 -3.1702
  457THF    H13 8941   0.176   0.316   3.502  0.3964  2.0182  1.2553
  458THF     O1 8942   1.926   4.088   3.409  0.4952  0.2325  0.0977
  458THF     C2 8943   1.949   4.184   3.310  0.3744  0.0139 -1.1099
  458THF     C3 8944   1.981   4.134   3.531 -0.1273  0.1437  0.5623
  458THF     H4 8945   1.887   4.271   3.331  2.4185  1.4500 -0.7176
  458THF     H5 8946   1.930   4.150   3.208  3.2235  0.4389 -1.8645
  458THF     H6 8947   1.907   4.203   3.572 -1.9641 -0.3829 -1.6267
  458THF     H7 8948   1.989   4.061   3.611 -2.6746  0.8018  1.5199
  458THF     C8 8949   2.116   4.190   3.496 -0.3902  0.3741  0.3406
  458THF     C9 8950   2.095   4.216   3.345 -0.5314  0.5498  0.0249
  458THF    H10 8951   2.196   4.117   3.498  0.0200  0.8114  0.2332
  458THF    H11 8952   2.142   4.270   3.566  2.1806  1.4420 -1.6866
  458THF    H12 8953   2.116   4.321   3.325 -0.2792  0.8574  1.7732
  458THF    H13 8954   2.161   4.168   3.273 -1.1020  1.7641 -1.3614
  459THF     O1 8955   1.959   3.332   1.323 -0.2509  0.1541  0.2454
  459THF     C2 8956   1.936   3.358   1.460 -0.5596  0.9573 -0.3236
  459THF     C3 8957   1.967   3.189   1.313 -0.0926  0.0454  0.6210
  459THF     H4 8958   1.898   3.459   1.478 -1.2695  0.3461  1.9150
  459THF     H5 8959   2.035   3.351   1.505 -0.4038 -0.7223 -0.8554
  459THF     H6 8960   1.933   3.159   1.213 -0.9695  1.6118  0.4188
  459THF     H7 8961   2.069   3.153   1.323  0.1415 -0.0104 -1.4967
  459THF     C8 8962   1.875   3.126   1.421  0.5940 -0.0727  0.3835
  459THF     C9 8963   1.844   3.251   1.510  0.9211 -0.3586 -0.2527
  459THF    H10 8964   1.909   3.038   1.475  0.1218 -0.0102  0.7942
  459THF    H11 8965   1.781   3.090   1.381 -0.8251  2.8326  0.8444
  459THF    H12 8966   1.739   3.283   1.507  1.1653  0.4168 -1.2934
  459THF    H13 8967   1.860   3.238   1.617  0.0955  1.3954  0.1273
  460THF     O1 8968   2.794   0.179   4.663  0.5251 -0.8980 -0.1631
  460THF     C2 8969   2.889   0.129   4.577  0.4770  0.2937  0.0090
  460THF     C3 8970   2.803   0.328   4.665 -0.1316  0.6095 -0.3356
  460THF     H4 8971   2.873   0.027   4.542  1.4938  0.3694 -0.7278
  460THF     H5 8972   2.986   0.119   4.626 -0.0871 -1.1132  0.8815
  460THF     H6 8973   2.701   0.364   4.674 -1.3119 -1.3132 -4.0834
  460THF     H7 8974   2.876   0.364   4.738  1.8226  0.4305 -2.1120
  460THF     C8 8975   2.853   0.368   4.524 -0.4086  0.1966  0.2401
  460THF     C9 8976   2.892   0.232   4.459  0.3881  0.6011 -0.7745
  460THF    H10 8977   2.936   0.435   4.548  0.6286 -1.2985  0.9890
  460THF    H11 8978   2.777   0.418   4.463  0.7915  1.5499 -0.2067
  460THF    H12 8979   2.806   0.199   4.400 -0.5864 -0.4328  1.1038
  460THF    H13 8980   2.984   0.219   4.402  0.7069 -1.5272  0.1307
  461THF     O1 8981   1.081   5.178   1.555 -0.0175  0.4060 -0.3663
  461THF     C2 8982   1.051   5.118   1.679  0.2064 -0.0929  0.2695
  461THF     C3 8983   1.202   5.251   1.575  0.4327  0.1963  0.3494
  461THF     H4 8984   1.096   5.018   1.679  2.4176  0.8464  0.2491
  461THF     H5 8985   0.944   5.098   1.689 -0.0773 -0.2007 -2.2935
  461THF     H6 8986   1.293   5.192   1.587  0.2516 -0.2689 -0.5090
  461THF     H7 8987   1.230   5.315   1.490  0.7651  0.2847  0.5245
  461THF     C8 8988   1.190   5.319   1.712 -0.1441  0.1428 -0.0829
  461THF     C9 8989   1.112   5.216   1.784  0.3583  0.0620  0.1057
  461THF    H10 8990   1.130   5.409   1.715 -0.7346 -0.2482  2.6289
  461THF    H11 8991   1.293   5.328   1.747 -0.7087 -0.2772  1.8549
  461THF    H12 8992   1.180   5.170   1.856 -0.2182 -0.7880  0.1301
  461THF    H13 8993   1.035   5.272   1.838  1.0963  0.4980  0.7120
  462THF     O1 8994   1.070   2.195   3.972  0.9309  0.0900  0.8047
  462THF     C2 8995   1.176   2.277   4.027 -0.0130  0.3670 -0.9613
  462THF     C3 8996   1.108   2.057   3.959 -0.7614 -0.0580  0.3415
  462THF     H4 8997   1.128   2.350   4.093 -0.8135 -0.9138 -0.0704
  462THF     H5 8998   1.229   2.328   3.947  0.9120 -0.6518 -1.0175
  462THF     H6 8999   1.037   1.989   4.007 -0.7167 -1.7773 -1.8395
  462THF     H7 9000   1.109   2.028   3.854  0.1518 -0.7392  0.5256
  462THF     C8 9001   1.249   2.048   4.020 -0.3195 -0.0404  0.3946
  462THF     C9 9002   1.257   2.178   4.106  0.9344 -0.1747 -0.2529
  462THF    H10 9003   1.318   2.059   3.937  0.6475 -0.4166  1.1356
  462THF    H11 9004   1.275   1.965   4.086  0.4973 -1.0190 -1.0812
  462THF    H12 9005   1.216   2.175   4.207  2.1761 -0.1473  0.2758
  462THF    H13 9006   1.361   2.200   4.131  0.5592  0.2524  0.9839
  463THF     O1 9007   1.603   3.752   0.872  0.0644 -0.1321  0.1890
  463THF     C2 9008   1.707   3.797   0.954 -0.0026 -0.7579  0.8424
  463THF     C3 9009   1.618   3.837   0.749 -0.1358 -0.0056 -0.1947
  463THF     H4 9010   1.735   3.729   1.034  4.4414 -0.3772 -0.1362
  463THF     H5 9011   1.667   3.891   0.992  0.8773  0.3504 -0.8389
  463THF     H6 9012   1.578   3.797   0.656 -0.5167  1.2256 -0.5719
  463THF     H7 9013   1.559   3.928   0.760 -0.3020  0.0390 -1.3110
  463THF     C8 9014   1.768   3.884   0.746  0.7037 -0.8086 -0.0017
  463THF     C9 9015   1.827   3.806   0.853  0.7763 -0.1250 -0.2937
  463THF    H10 9016   1.769   3.989   0.774 -2.3409 -0.8096  0.3773
  463THF    H11 9017   1.818   3.887   0.649 -0.3283 -0.3803 -0.5298
  463THF    H12 9018   1.850   3.703   0.826 -3.0748 -1.5102  0.9844
  463THF    H13 9019   1.920   3.849   0.890  1.4978 -0.6387 -1.4491
  464THF     O1 9020   0.832   2.416   2.801  0.5885 -0.4990 -0.2572
  464THF     C2 9021   0.746   2.348   2.704 -0.2046 -0.2768  0.0846
  464THF     C3 9022   0.949   2.336   2.826  0.5630 -0.1122 -0.2030
  464THF     H4 9023   0.739   2.381   2.601 -0.2714 -0.9504 -0.1332
  464THF     H5 9024   0.645   2.363   2.743 -1.0862  2.0354 -2.7863
  464THF     H6 9025   1.020   2.363   2.747  0.3200 -2.1962 -1.1900
  464THF     H7 9026   0.977   2.341   2.931  0.6882  2.0764 -0.2912
  464THF     C8 9027   0.896   2.194   2.810  0.6180 -0.4890 -0.3464
  464THF     C9 9028   0.783   2.201   2.708  0.0556  0.1038  0.4361
  464THF    H10 9029   0.842   2.177   2.903 -1.7429  2.1034 -1.1177
  464THF    H11 9030   0.964   2.112   2.786 -1.5872 -2.1240 -1.3477
  464THF    H12 9031   0.826   2.173   2.612  2.3279 -0.6286  1.5655
  464THF    H13 9032   0.702   2.132   2.731  1.1874 -1.8019 -1.0055
  465THF     O1 9033   4.627   1.285   3.997  0.2615 -0.2330 -0.2532
  465THF     C2 9034   4.486   1.295   4.028 -0.2593  0.2137 -0.4817
  465THF     C3 9035   4.683   1.416   3.988  0.2036  0.1063 -0.3928
  465THF     H4 9036   4.461   1.325   4.130 -0.6855  1.0534 -0.8279
  465THF     H5 9037   4.449   1.198   3.996 -0.2356 -0.6362  1.8283
  465THF     H6 9038   4.740   1.458   4.071  0.3572 -0.2622 -0.3112
  465THF     H7 9039   4.750   1.395   3.904 -0.3756 -0.6849 -0.6626
  465THF     C8 9040   4.560   1.503   3.939 -0.2118 -0.3266  0.1480
  465THF     C9 9041   4.446   1.408   3.933  0.7270  0.0570 -0.9458
  465THF    H10 9042   4.574   1.549   3.842 -0.2534  0.8984  0.7127
  465THF    H11 9043   4.545   1.594   3.997  1.4306 -1.0891  1.8649
  465THF    H12 9044   4.351   1.461   3.942 -0.4302 -2.0458 -0.0615
  465THF    H13 9045   4.435   1.363   3.834 -0.6182  0.1552 -0.8666
  466THF     O1 9046   4.030   0.759   1.018  0.0874  0.4216 -0.2001
  466THF     C2 9047   4.146   0.819   0.959 -0.2155 -0.1370  0.2329
  466THF     C3 9048   3.921   0.751   0.927  0.2966  0.0864 -0.3942
  466THF     H4 9049   4.199   0.743   0.902  0.3998 -0.2137  0.8931
  466THF     H5 9050   4.213   0.873   1.026  0.0926  2.2651 -1.8475
  466THF     H6 9051   3.945   0.669   0.860  1.6771 -1.5592  1.9417
  466THF     H7 9052   3.827   0.722   0.974  0.2574 -0.5447 -0.8554
  466THF     C8 9053   3.938   0.890   0.860  0.6908 -0.2265  0.2519
  466THF     C9 9054   4.093   0.912   0.851  0.3200  0.0712  0.1486
  466THF    H10 9055   3.884   0.967   0.915  1.5284 -1.5659  3.1267
  466THF    H11 9056   3.903   0.904   0.757  1.4289 -2.1229 -0.2906
  466THF    H12 9057   4.137   0.892   0.753 -1.0886 -1.9885 -0.1199
  466THF    H13 9058   4.115   1.014   0.881  0.0275  1.1578 -3.0151
  467THF     O1 9059   2.761   3.857   1.295 -0.2319 -0.0926  0.6368
  467THF     C2 9060   2.899   3.858   1.277  0.4732  0.0570 -0.5736
  467THF     C3 9061   2.717   3.721   1.274  0.0762 -1.1747 -0.0846
  467THF     H4 9062   2.950   3.861   1.374  1.8846  1.9900 -1.3008
  467THF     H5 9063   2.942   3.941   1.221 -2.9686  2.2316 -0.2357
  467THF     H6 9064   2.712   3.665   1.368 -1.7858 -2.3921 -0.8566
  467THF     H7 9065   2.616   3.739   1.240  0.6639  1.8820 -0.4784
  467THF     C8 9066   2.813   3.652   1.176  0.1528 -0.4232 -0.7811
  467THF     C9 9067   2.942   3.730   1.206 -0.5280 -0.3976  0.0855
  467THF    H10 9068   2.780   3.670   1.074 -0.1127  0.5734 -0.5299
  467THF    H11 9069   2.826   3.545   1.192 -0.6655 -0.4484 -0.2105
  467THF    H12 9070   3.017   3.675   1.261  0.1769  0.9388  0.4957
  467THF    H13 9071   2.995   3.735   1.111  0.6755 -1.6849  0.6535
  468THF     O1 9072   3.639   4.551   1.460  0.0146 -0.4112  0.2894
  468THF     C2 9073   3.632   4.550   1.319  0.2584  0.7104 -0.5357
  468THF     C3 9074   3.654   4.687   1.503 -0.5028  0.1753 -0.3238
  468THF     H4 9075   3.607   4.453   1.276  0.4925 -0.0043  0.8686
  468THF     H5 9076   3.731   4.569   1.279  0.7161 -0.8465 -0.2224
  468THF     H6 9077   3.636   4.700   1.610 -0.2831 -1.7085 -0.0359
  468THF     H7 9078   3.753   4.723   1.472 -0.6199 -0.6317 -1.6979
  468THF     C8 9079   3.545   4.753   1.413 -0.3277  0.5803 -0.3555
  468THF     C9 9080   3.528   4.654   1.291 -0.4798 -0.1626  0.0589
  468THF    H10 9081   3.593   4.846   1.385  0.7730  0.3650  0.7476
  468THF    H11 9082   3.446   4.769   1.455 -0.4186  1.2823 -0.8274
  468THF    H12 9083   3.431   4.605   1.284 -0.2693 -1.0565  2.4828
  468THF    H13 9084   3.544   4.701   1.194 -1.5274 -1.8933 -1.0069
  469THF     O1 9085   4.897   3.128   3.997  0.1564 -0.8218 -0.1860
  469THF     C2 9086   4.947   3.062   3.888 -0.0190 -0.1057 -0.4516
  469THF     C3 9087   4.759   3.136   3.991  0.1680  0.3741  0.3433
  469THF     H4 9088   5.050   3.028   3.894  0.5481  1.3454 -1.5059
  469THF     H5 9089   4.948   3.120   3.796 -0.6078 -0.3044 -0.5933
  469THF     H6 9090   4.703   3.148   4.084 -0.8396 -0.0483 -0.1966
  469THF     H7 9091   4.720   3.225   3.941  0.3502  0.8226  0.9881
  469THF     C8 9092   4.714   3.006   3.914  0.0580 -0.2940 -0.2847
  469THF     C9 9093   4.844   2.949   3.868 -0.2143  0.2946 -0.2377
  469THF    H10 9094   4.646   3.026   3.831  0.7980 -0.8345 -1.0452
  469THF    H11 9095   4.668   2.936   3.983  0.1760 -0.0505  0.0410
  469THF    H12 9096   4.883   2.865   3.925 -1.1866 -0.1818 -0.2608
  469THF    H13 9097   4.846   2.924   3.762  2.9909 -1.3829  0.0908
  470THF     O1 9098   1.850   4.905   1.902  0.5031  0.4412 -0.7592
  470THF     C2 9099   1.787   4.778   1.934  0.3583 -0.1217  0.5919
  470THF     C3 9100   1.918   4.942   2.019 -0.4263  0.2490 -1.1133
  470THF     H4 9101   1.864   4.701   1.939  0.0712 -0.5722 -1.0869
  470THF     H5 9102   1.712   4.738   1.865 -0.6514 -1.1587  2.2147
  470THF     H6 9103   1.999   4.874   2.044 -1.6294 -0.2731  1.6895
  470THF     H7 9104   1.965   5.040   2.023 -0.0459  0.0308  1.1064
  470THF     C8 9105   1.810   4.922   2.126  0.1580  0.0328  0.6689
  470THF     C9 9106   1.727   4.799   2.076  0.2949 -0.2941 -0.0279
  470THF    H10 9107   1.754   5.015   2.131 -0.7290 -0.2850 -1.8305
  470THF    H11 9108   1.852   4.897   2.223  0.9438  1.7839  0.8163
  470THF    H12 9109   1.744   4.705   2.128 -0.4004 -0.1127  0.5514
  470THF    H13 9110   1.622   4.830   2.069  0.0956 -1.0927 -0.7602
  471THF     O1 9111   5.205   4.165   1.849 -0.2115  0.7001 -0.4632
  471THF     C2 9112   5.228   4.082   1.960  0.6014 -0.4181 -0.8172
  471THF     C3 9113   5.149   4.286   1.902  0.3123  0.6175  0.4194
  471THF     H4 9114   5.325   4.105   2.006  0.3500  0.1416 -0.5576
  471THF     H5 9115   5.239   3.977   1.933  0.2082 -0.2785 -1.5232
  471THF     H6 9116   5.227   4.362   1.910  1.4907 -0.3876 -0.9866
  471THF     H7 9117   5.078   4.335   1.835 -1.0071 -2.9926 -1.0910
  471THF     C8 9118   5.095   4.268   2.042  0.4232 -0.1723 -0.0237
  471THF     C9 9119   5.118   4.116   2.066  0.8099  0.1706  0.2155
  471THF    H10 9120   4.991   4.301   2.047  1.1083  2.4441 -1.4093
  471THF    H11 9121   5.140   4.338   2.111 -1.2410  1.6247 -0.6735
  471THF    H12 9122   5.146   4.107   2.171 -0.2942  0.3692  0.5415
  471THF    H13 9123   5.028   4.059   2.047  0.4516 -0.4435  3.2160
  472THF     O1 9124   2.344   5.241   4.525  0.3906  0.5652 -0.6103
  472THF     C2 9125   2.441   5.273   4.425  1.1777  0.3931 -0.8912
  472THF     C3 9126   2.395   5.292   4.643  0.2401 -0.2023  0.5273
  472THF     H4 9127   2.444   5.378   4.394  0.8531  1.0748  1.2539
  472THF     H5 9128   2.415   5.212   4.338  0.3632  0.0693 -0.4339
  472THF     H6 9129   2.358   5.393   4.664 -2.8546 -1.1261 -0.1220
  472THF     H7 9130   2.353   5.235   4.725 -2.8154  1.0434 -0.0560
  472THF     C8 9131   2.549   5.284   4.633 -0.4056  0.0407 -1.3242
  472THF     C9 9132   2.574   5.245   4.486  0.7436  0.0261  0.5937
  472THF    H10 9133   2.580   5.205   4.701  0.5576  0.7913 -0.8637
  472THF    H11 9134   2.600   5.375   4.664 -1.5850 -0.1051  1.3391
  472THF    H12 9135   2.651   5.306   4.440  0.9902  1.6449  2.9770
  472THF    H13 9136   2.591   5.138   4.477  0.9586  0.0133  1.1208
  473THF     O1 9137   5.471   0.955   5.227  0.6506  0.0849  0.3617
  473THF     C2 9138   5.501   1.098   5.252  0.5162 -0.4435 -0.2704
  473THF     C3 9139   5.521   0.933   5.096 -0.8815 -0.2283 -0.2539
  473THF     H4 9140   5.605   1.123   5.273  0.0177 -0.0652  1.9727
  473THF     H5 9141   5.447   1.142   5.336  1.0535 -0.5460  0.1381
  473THF     H6 9142   5.629   0.925   5.085 -0.8241  0.9983 -0.6997
  473THF     H7 9143   5.477   0.844   5.050  0.0940 -0.6887 -0.3224
  473THF     C8 9144   5.472   1.052   5.019 -0.0062 -0.0631 -0.3099
  473THF     C9 9145   5.462   1.162   5.120  1.2300 -0.0581 -0.2934
  473THF    H10 9146   5.372   1.039   4.977 -0.2032 -0.0070  0.1453
  473THF    H11 9147   5.552   1.087   4.953  1.0215  0.5534  1.2064
  473THF    H12 9148   5.513   1.254   5.089  1.0445  0.5610  1.1705
  473THF    H13 9149   5.362   1.203   5.136  1.2794 -0.3776  0.9022
  474THF     O1 9150   4.973   3.874   4.880 -0.3305 -0.2155  0.2346
  474THF     C2 9151   4.940   3.959   4.772 -0.6272  0.1497  0.6498
  474THF     C3 9152   5.037   3.959   4.978  0.0783 -0.5183  0.4376
  474THF     H4 9153   4.873   3.907   4.703  0.7322  0.0151 -0.6213
  474THF     H5 9154   5.034   3.973   4.720  0.5292 -0.2091  2.5319
  474THF     H6 9155   5.044   3.915   5.077  0.6447  0.4036  0.8167
  474THF     H7 9156   5.136   3.996   4.951  0.3180 -1.7759 -0.5470
  474THF     C8 9157   4.942   4.080   4.967  0.3458 -0.2616  0.1379
  474THF     C9 9158   4.879   4.086   4.833  0.4366  0.1094 -0.2952
  474THF    H10 9159   5.005   4.167   4.984 -1.0017  0.5978  0.9137
  474THF    H11 9160   4.868   4.075   5.047  1.1702 -1.3782  0.8797
  474THF    H12 9161   4.771   4.079   4.846  0.2965  0.8035 -1.0328
  474THF    H13 9162   4.907   4.166   4.766  0.2322  0.5513  0.1394
  475THF     O1 9163   4.608   3.549   5.089 -0.1021 -0.1463 -0.2811
  475THF     C2 9164   4.478   3.575   5.034 -0.0764  0.0348 -0.0575
  475THF     C3 9165   4.692   3.664   5.083  0.7208 -0.1398  0.3461
  475THF     H4 9166   4.415   3.494   5.071  0.5427 -0.3012  0.2712
  475THF     H5 9167   4.472   3.589   4.926  0.0356 -0.8278 -0.1808
  475THF     H6 9168   4.763   3.670   5.165 -0.2200 -0.7278  1.2223
  475THF     H7 9169   4.759   3.662   4.997  0.8849 -1.1465  0.4824
  475THF     C8 9170   4.595   3.782   5.096  0.6861 -0.8876 -0.4471
  475THF     C9 9171   4.463   3.709   5.105  0.3990 -0.5683  0.3814
  475THF    H10 9172   4.599   3.852   5.012  0.8086 -0.0932  0.1994
  475THF    H11 9173   4.611   3.838   5.189 -2.3932 -0.9134  0.2070
  475THF    H12 9174   4.458   3.682   5.210  1.6865 -1.2030  0.2953
  475THF    H13 9175   4.382   3.779   5.085  0.6822 -0.3061  0.1373
  476THF     O1 9176   1.329   4.428   4.110 -0.0034 -0.6507 -0.7096
  476THF     C2 9177   1.330   4.300   4.041  0.1317  0.6261 -0.0856
  476THF     C3 9178   1.198   4.489   4.104 -0.6136  0.3044  0.8370
  476THF     H4 9179   1.415   4.245   4.082  1.7609  1.1349 -2.5789
  476THF     H5 9180   1.334   4.307   3.932 -2.0125  1.4355 -0.1643
  476THF     H6 9181   1.182   4.570   4.175 -2.3150  1.1811 -0.4662
  476THF     H7 9182   1.180   4.525   4.003  0.9924  1.4776  0.9276
  476THF     C8 9183   1.111   4.366   4.141 -0.4815 -0.3304  0.0437
  476THF     C9 9184   1.189   4.249   4.080 -0.2930  0.1445  0.0324
  476THF    H10 9185   1.006   4.368   4.113 -0.6463 -0.0412  0.6657
  476THF    H11 9186   1.113   4.367   4.250  0.2413  1.3664  0.0435
  476THF    H12 9187   1.182   4.165   4.149 -3.1970  0.8516  0.7384
  476THF    H13 9188   1.138   4.220   3.988  0.1202  2.5807 -1.0500
  477THF     O1 9189   1.867   5.428   4.700  0.6115  0.4123 -0.0856
  477THF     C2 9190   1.973   5.520   4.740 -0.4730 -0.3781  0.3719
  477THF     C3 9191   1.876   5.407   4.560 -0.0407 -0.2016 -0.0116
  477THF     H4 9192   2.009   5.512   4.843  1.4572 -0.7785 -0.2961
  477THF     H5 9193   1.951   5.625   4.719  1.3852 -0.0885 -0.3116
  477THF     H6 9194   1.841   5.309   4.529  2.5098 -1.1608 -0.0062
  477THF     H7 9195   1.832   5.494   4.511  1.9909  1.4646  0.9882
  477THF     C8 9196   2.030   5.427   4.533  0.7851 -0.5249  0.1743
  477THF     C9 9197   2.094   5.480   4.653  0.4757 -0.4453  0.0351
  477THF    H10 9198   2.050   5.496   4.450  2.6570 -0.4225  0.6716
  477THF    H11 9199   2.085   5.337   4.507  2.6522  0.4773  0.4367
  477THF    H12 9200   2.143   5.397   4.703  1.8438  0.7516  0.7429
  477THF    H13 9201   2.167   5.560   4.641  0.6454 -0.8531 -2.0887
  478THF     O1 9202   0.985   3.908   4.352  0.7847  0.3340  0.1425
  478THF     C2 9203   0.965   4.011   4.446 -0.0935  0.4039  0.4671
  478THF     C3 9204   1.092   3.818   4.387  0.3019 -0.1542  0.2945
  478THF     H4 9205   0.867   4.005   4.493 -0.2634 -0.4696  0.0264
  478THF     H5 9206   0.969   4.109   4.399 -2.2676 -0.3934 -1.5639
  478THF     H6 9207   1.067   3.716   4.358 -0.9800  0.0402  0.6368
  478THF     H7 9208   1.179   3.859   4.336 -1.8619  1.7949 -2.1613
  478THF     C8 9209   1.101   3.840   4.528  0.7023  0.1771 -0.7058
  478THF     C9 9210   1.076   3.991   4.550 -0.2993  0.5817 -0.2888
  478THF    H10 9211   1.192   3.798   4.570 -0.5539 -0.5290  1.4902
  478THF    H11 9212   1.023   3.786   4.581  0.8112  0.2507 -0.4698
  478THF    H12 9213   1.048   4.013   4.653  0.4587  2.1446 -0.3915
  478THF    H13 9214   1.170   4.046   4.537  0.3715  0.0705  1.9117
  479THF     O1 9215   4.376   1.296   1.808  0.7199 -0.1100 -0.0077
  479THF     C2 9216   4.449   1.411   1.853  0.2687 -0.1155 -0.3049
  479THF     C3 9217   4.347   1.211   1.912  0.9574 -0.1771  0.5294
  479THF     H4 9218   4.399   1.503   1.820 -0.1199 -1.5407 -4.2072
  479THF     H5 9219   4.546   1.418   1.804  1.0981 -0.2026  1.2671
  479THF     H6 9220   4.251   1.164   1.890 -0.2513  1.6528  1.6702
  479THF     H7 9221   4.426   1.136   1.916 -1.3856 -2.9761 -1.4971
  479THF     C8 9222   4.341   1.304   2.035 -0.0126  0.1192 -0.1111
  479THF     C9 9223   4.451   1.399   2.007 -0.5852 -0.3531  0.4792
  479THF    H10 9224   4.356   1.252   2.130 -0.4305  0.5671  0.2091
  479THF    H11 9225   4.253   1.367   2.045  0.0233  0.2725 -0.7195
  479THF    H12 9226   4.447   1.497   2.056  4.6266 -0.7791  2.3515
  479THF    H13 9227   4.549   1.355   2.023 -0.1349 -0.4891 -2.2153
  480THF     O1 9228   4.772   4.241   3.139  0.0398  0.1248 -0.4971
  480THF     C2 9229   4.722   4.361   3.188 -0.1010  0.3144 -0.2030
  480THF     C3 9230   4.665   4.147   3.155 -0.3865  0.0203 -0.9380
  480THF     H4 9231   4.785   4.450   3.177 -0.6455  0.5428 -1.6709
  480THF     H5 9232   4.710   4.361   3.297 -1.3114  2.3967 -0.2722
  480THF     H6 9233   4.682   4.052   3.103  1.5866 -1.8794  2.7438
  480THF     H7 9234   4.660   4.121   3.261  0.9242 -0.1671 -0.8964
  480THF     C8 9235   4.545   4.217   3.094  0.6846  0.1392 -0.3860
  480THF     C9 9236   4.585   4.365   3.119 -0.0950 -0.2186 -0.0554
  480THF    H10 9237   4.449   4.195   3.141  0.4672 -0.0403 -0.9076
  480THF    H11 9238   4.532   4.202   2.987 -0.2352 -0.2516 -0.2281
  480THF    H12 9239   4.601   4.415   3.024  2.6449 -2.5138 -0.9561
  480THF    H13 9240   4.502   4.412   3.171 -0.3874 -0.5283 -0.2359
  481THF     O1 9241   0.696   2.359   4.513 -0.3318  0.6578  0.1407
  481THF     C2 9242   0.576   2.385   4.585  0.2226  0.4978  0.3900
  481THF     C3 9243   0.761   2.265   4.606 -0.1719  0.6805  0.1221
  481THF     H4 9244   0.504   2.425   4.514  2.3301  0.8762 -1.6145
  481THF     H5 9245   0.592   2.464   4.659  0.8431 -0.7354  1.6263
  481THF     H6 9246   0.834   2.203   4.553 -1.0284 -0.4932  0.2769
  481THF     H7 9247   0.784   2.296   4.708 -3.0162  1.0082  0.7389
  481THF     C8 9248   0.652   2.158   4.616  0.1504 -0.3928  0.3562
  481THF     C9 9249   0.534   2.246   4.634  0.1659 -0.0615 -0.0445
  481THF    H10 9250   0.663   2.089   4.699  0.0664 -0.8545 -0.0085
  481THF    H11 9251   0.643   2.095   4.527  0.3420 -0.0281  0.0786
  481THF    H12 9252   0.461   2.202   4.565 -1.2252 -2.6036  2.7905
  481THF    H13 9253   0.477   2.250   4.727 -0.0829 -0.2177 -0.1876
  482THF     O1 9254   2.785   1.315   0.713 -0.2515 -0.3532  0.2959
  482THF     C2 9255   2.877   1.227   0.646  0.3146 -0.0787 -0.1824
  482THF     C3 9256   2.846   1.333   0.843  0.5024 -0.1140 -0.5545
  482THF     H4 9257   2.961   1.279   0.599  0.7899 -0.2544  0.4591
  482THF     H5 9258   2.847   1.167   0.560  3.1560 -0.6761 -0.8677
  482THF     H6 9259   2.926   1.405   0.856 -0.6316  0.6579  3.8771
  482THF     H7 9260   2.769   1.371   0.910  0.3826  0.1445 -0.8355
  482THF     C8 9261   2.885   1.189   0.880  0.1781 -0.1202 -0.9334
  482THF     C9 9262   2.932   1.127   0.755 -0.6293  0.2479  0.5801
  482THF    H10 9263   2.787   1.145   0.899  0.7968 -1.8256 -1.5094
  482THF    H11 9264   2.954   1.179   0.965  0.0465 -0.1994 -0.8356
  482THF    H12 9265   3.040   1.117   0.753 -0.5445  1.2748 -0.3931
  482THF    H13 9266   2.894   1.027   0.734  1.0747 -0.1518 -0.7997
  483THF     O1 9267   2.869   2.806   2.301  0.4905  0.8452 -0.8760
  483THF     C2 9268   2.825   2.934   2.264  0.0742 -0.1058  0.6193
  483THF     C3 9269   2.873   2.724   2.188 -0.2799  0.3723 -0.1258
  483THF     H4 9270   2.918   2.978   2.228 -1.4888  1.0377 -2.4117
  483THF     H5 9271   2.785   2.997   2.343  0.9996 -0.2922  1.2528
  483THF     H6 9272   2.966   2.751   2.138  0.3714 -2.8822 -0.9467
  483THF     H7 9273   2.863   2.616   2.201 -1.8478  0.4766 -0.2791
  483THF     C8 9274   2.747   2.765   2.110  0.3032 -0.1412  0.2560
  483THF     C9 9275   2.718   2.910   2.152  0.4161 -0.0252  0.4681
  483THF    H10 9276   2.666   2.702   2.148  0.2752 -0.5887 -0.5091
  483THF    H11 9277   2.754   2.739   2.004  0.7359  1.1848 -0.0533
  483THF    H12 9278   2.715   2.974   2.064 -0.2552 -2.9435 -1.7913
  483THF    H13 9279   2.621   2.914   2.202  0.4797 -1.3423  0.7364
  484THF     O1 9280   2.332   3.215   0.923  0.5333  0.3171 -0.1360
  484THF     C2 9281   2.246   3.310   0.981  0.2800  0.3905 -0.7555
  484THF     C3 9282   2.248   3.133   0.849 -0.9155 -0.1239  0.4927
  484THF     H4 9283   2.301   3.403   0.998  0.9312  0.7843 -4.3296
  484THF     H5 9284   2.216   3.261   1.074 -0.6137  2.1724 -0.0552
  484THF     H6 9285   2.313   3.070   0.787 -2.2434 -0.6160 -0.4438
  484THF     H7 9286   2.197   3.058   0.908 -0.7484  0.0916  0.9124
  484THF     C8 9287   2.159   3.227   0.777  0.0457 -0.4594  0.2359
  484THF     C9 9288   2.122   3.331   0.884  0.8208  0.2320  0.2125
  484THF    H10 9289   2.065   3.180   0.748  0.1799 -1.2055  0.9972
  484THF    H11 9290   2.221   3.273   0.700  0.8624 -1.2910  0.3958
  484THF    H12 9291   2.107   3.433   0.848 -0.1877 -0.0768 -0.2826
  484THF    H13 9292   2.032   3.312   0.941 -0.5300 -0.2015 -1.9475
  485THF     O1 9293   3.129   0.211   3.468  0.3598  0.0847  0.3728
  485THF     C2 9294   3.259   0.170   3.429 -0.8946 -0.3587  0.7958
  485THF     C3 9295   3.148   0.287   3.591  0.2810 -0.2339  0.5567
  485THF     H4 9296   3.270   0.157   3.322 -0.2685  0.0809  0.7967
  485THF     H5 9297   3.282   0.075   3.478 -0.2669 -0.5767  0.0960
  485THF     H6 9298   3.090   0.379   3.584 -0.2843 -0.5698  0.8198
  485THF     H7 9299   3.116   0.236   3.682  1.0565 -0.8575  0.4945
  485THF     C8 9300   3.296   0.324   3.601 -0.3479 -0.1087  0.0276
  485THF     C9 9301   3.354   0.281   3.470  0.2326  0.1181 -0.2603
  485THF    H10 9302   3.331   0.255   3.679 -1.0538  0.6504  1.0396
  485THF    H11 9303   3.312   0.428   3.627  3.0089 -0.5622  0.2999
  485THF    H12 9304   3.363   0.361   3.396 -1.3187  1.0228  0.4746
  485THF    H13 9305   3.452   0.238   3.490  0.5262  1.2950  0.9527
  486THF     O1 9306   4.982   1.176   2.168  0.3363  0.2652 -0.3183
  486THF     C2 9307   4.856   1.213   2.130  0.0448 -0.7067 -0.0095
  486THF     C3 9308   4.996   1.185   2.313 -0.0147  0.0260  0.1860
  486THF     H4 9309   4.809   1.167   2.044  0.1161 -0.5928 -0.1113
  486THF     H5 9310   4.858   1.322   2.118  1.6524 -0.6329  0.5985
  486THF     H6 9311   5.027   1.092   2.361 -0.6474  0.4913  1.5563
  486THF     H7 9312   5.068   1.261   2.343  1.3188 -0.1802 -2.2360
  486THF     C8 9313   4.855   1.195   2.373  0.0093 -0.5086 -0.2999
  486THF     C9 9314   4.773   1.191   2.251  1.0157  0.1176  0.2379
  486THF    H10 9315   4.834   1.286   2.428 -0.7877 -0.0423 -1.3445
  486THF    H11 9316   4.848   1.112   2.444  0.4962 -1.8138 -1.7153
  486THF    H12 9317   4.726   1.093   2.242 -0.5113  0.9702 -2.2939
  486THF    H13 9318   4.685   1.255   2.260 -0.7345 -1.8695 -1.5366
  487THF     O1 9319   3.679   1.211   1.205 -0.5631 -0.9534 -0.1826
  487THF     C2 9320   3.538   1.233   1.167  0.4761  0.0701  0.5847
  487THF     C3 9321   3.698   1.263   1.335  0.4824  0.0204  0.3033
  487THF     H4 9322   3.484   1.139   1.175 -2.4570  1.4461 -1.4196
  487THF     H5 9323   3.535   1.249   1.059 -0.7096 -0.9207  0.4543
  487THF     H6 9324   3.694   1.189   1.414 -0.5849  0.5522  0.7710
  487THF     H7 9325   3.786   1.324   1.353 -1.4966  2.7698  1.3774
  487THF     C8 9326   3.579   1.345   1.379  0.2944  0.2814  0.6182
  487THF     C9 9327   3.482   1.340   1.266  0.4991  0.4482  0.2281
  487THF    H10 9328   3.604   1.451   1.380  0.4381  0.2591  0.0190
  487THF    H11 9329   3.547   1.316   1.479  0.1895  1.2993  0.8838
  487THF    H12 9330   3.378   1.315   1.287  0.5223  1.3637  1.5259
  487THF    H13 9331   3.479   1.432   1.207  1.4211 -0.8489 -1.9869
  488THF     O1 9332   2.857   2.386   4.035  0.0617  0.0495 -0.2784
  488THF     C2 9333   2.960   2.356   3.944 -0.0826  0.8254  0.3689
  488THF     C3 9334   2.819   2.524   4.015 -0.8310  0.1811 -0.4678
  488THF     H4 9335   2.932   2.316   3.847  1.0841  0.5387  0.1352
  488THF     H5 9336   3.015   2.276   3.994 -0.0462  0.9702  0.5642
  488THF     H6 9337   2.766   2.544   3.922 -1.3319  0.9297 -0.0294
  488THF     H7 9338   2.755   2.568   4.092  0.0532 -0.6291  0.7755
  488THF     C8 9339   2.963   2.576   4.020  0.1581 -0.3243  0.0681
  488THF     C9 9340   3.048   2.484   3.936  0.1524  0.0035  0.3988
  488THF    H10 9341   3.005   2.574   4.120 -2.3129 -0.7120  1.1722
  488THF    H11 9342   2.979   2.679   3.987 -2.5476 -0.2556 -1.2870
  488THF    H12 9343   3.048   2.527   3.836  0.5899  0.6436  0.6701
  488THF    H13 9344   3.149   2.461   3.968 -0.0648 -0.9203  0.4538
  489THF     O1 9345   0.450   3.552   4.119  0.7039 -0.8094 -0.4331
  489THF     C2 9346   0.481   3.651   4.019  0.6539 -0.1221  0.0778
  489THF     C3 9347   0.569   3.530   4.195  0.6304 -0.5073 -0.8498
  489THF     H4 9348   0.389   3.702   3.989 -0.1969 -0.7515  1.4953
  489THF     H5 9349   0.526   3.608   3.929  1.1082  1.3810 -0.4348
  489THF     H6 9350   0.542   3.482   4.289  0.1410 -0.7064 -1.0838
  489THF     H7 9351   0.624   3.457   4.135  2.5430 -0.0207  0.2411
  489THF     C8 9352   0.630   3.665   4.211 -0.3205  0.0391 -1.0758
  489THF     C9 9353   0.588   3.739   4.091 -0.6627 -0.1999 -0.1574
  489THF    H10 9354   0.734   3.673   4.243 -0.8897 -0.1557  0.9705
  489THF    H11 9355   0.564   3.714   4.282 -1.0339 -0.1284 -1.6145
  489THF    H12 9356   0.531   3.831   4.100 -1.5891 -0.7776  0.0143
  489THF    H13 9357   0.680   3.759   4.035  0.7653 -1.1389  1.7218
  490THF     O1 9358   0.327   3.277   3.456 -0.1179 -0.5456  0.4167
  490THF     C2 9359   0.452   3.332   3.513 -0.0325  0.4120  0.1192
  490THF     C3 9360   0.347   3.242   3.319  0.0420  0.6098  0.3233
  490THF     H4 9361   0.464   3.309   3.619  0.1943  0.4584  0.1052
  490THF     H5 9362   0.463   3.439   3.497 -1.2335  0.6479  0.7904
  490THF     H6 9363   0.311   3.141   3.304 -1.7242  1.1627  0.5983
  490THF     H7 9364   0.292   3.307   3.252 -4.0076 -0.6571  2.1289
  490THF     C8 9365   0.507   3.237   3.299  0.8452  0.3604  0.2675
  490THF     C9 9366   0.558   3.249   3.444 -0.3591 -0.0547  0.1422
  490THF    H10 9367   0.539   3.326   3.245 -1.7461  0.9537 -0.4402
  490THF    H11 9368   0.542   3.146   3.249  1.4351  1.3132 -1.1169
  490THF    H12 9369   0.560   3.147   3.482 -0.7062 -0.3815 -0.6889
  490THF    H13 9370   0.660   3.285   3.450 -0.7029  0.9618  0.0952
  491THF     O1 9371   4.672   2.895   1.860  0.4911  0.5147 -0.3210
  491THF     C2 9372   4.813   2.900   1.854  0.7147 -0.4774 -0.0788
  491THF     C3 9373   4.627   2.792   1.772 -0.2056  0.1846 -0.3983
  491THF     H4 9374   4.850   2.967   1.931  2.9222 -2.3068  0.5730
  491THF     H5 9375   4.848   2.938   1.758  0.4911 -0.1378 -0.0256
  491THF     H6 9376   4.519   2.779   1.779 -0.1176  0.4404  3.5165
  491THF     H7 9377   4.648   2.806   1.666  0.4854  1.0598 -0.1469
  491THF     C8 9378   4.706   2.674   1.837  0.1372  0.4560  0.2469
  491THF     C9 9379   4.823   2.754   1.898 -0.2490  0.9421  0.1878
  491THF    H10 9380   4.738   2.608   1.756  0.5510  2.7560 -1.5790
  491THF    H11 9381   4.645   2.624   1.912  1.2194 -0.7284  0.3923
  491THF    H12 9382   4.815   2.754   2.007  1.4046 -0.7442  0.3589
  491THF    H13 9383   4.922   2.709   1.892  0.2832  2.0508  0.3482
  492THF     O1 9384   4.898   4.006   1.220  0.2673  0.5094 -0.2734
  492THF     C2 9385   4.805   4.069   1.147  0.4479 -0.2268 -0.0569
  492THF     C3 9386   4.925   3.880   1.162  0.6547  0.5464 -0.2273
  492THF     H4 9387   4.845   4.164   1.111  3.2565 -2.1714 -2.7100
  492THF     H5 9388   4.715   4.087   1.205 -0.2251  2.2054 -1.6932
  492THF     H6 9389   5.011   3.883   1.096  0.5098  0.4145 -0.4219
  492THF     H7 9390   4.948   3.806   1.239  1.4871 -0.9854 -1.8888
  492THF     C8 9391   4.803   3.845   1.075  0.0160  0.1925 -0.8854
  492THF     C9 9392   4.769   3.984   1.024  0.1727  0.2982 -0.1557
  492THF    H10 9393   4.717   3.798   1.122  1.3828 -2.9751 -1.3209
  492THF    H11 9394   4.832   3.778   0.994 -1.5791  0.2438 -1.5329
  492THF    H12 9395   4.829   4.011   0.937 -0.2122 -0.4926 -0.6797
  492THF    H13 9396   4.663   3.991   1.002  0.2979  0.5197 -0.7139
  493THF     O1 9397   2.965   0.773   2.515 -0.1099 -0.1626  0.0648
  493THF     C2 9398   3.021   0.679   2.605  0.2795  0.1461 -0.1082
  493THF     C3 9399   2.877   0.708   2.420 -0.2069 -0.5501  0.1921
  493THF     H4 9400   3.057   0.733   2.693 -1.0027  1.6927 -0.4788
  493THF     H5 9401   3.102   0.628   2.554 -0.8366 -0.6963 -1.0848
  493THF     H6 9402   2.784   0.764   2.431  1.3181  2.2615 -0.2584
  493THF     H7 9403   2.913   0.712   2.317 -2.3019 -1.8027 -0.6550
  493THF     C8 9404   2.861   0.564   2.471 -0.6962  0.1823  0.5241
  493THF     C9 9405   2.916   0.569   2.615 -0.0905 -0.1659 -0.2628
  493THF    H10 9406   2.907   0.490   2.405  1.2050  1.9402 -0.2414
  493THF    H11 9407   2.753   0.546   2.468 -0.8523  1.1315  0.0067
  493THF    H12 9408   2.840   0.604   2.685  0.5230  1.2674 -0.2819
  493THF    H13 9409   2.960   0.473   2.643  3.3568  0.3544 -3.1119
  494THF     O1 9410   5.163   4.534   1.371 -0.1394  0.2014 -0.3412
  494THF     C2 9411   5.267   4.634   1.368 -0.0524  0.2776  0.2467
  494THF     C3 9412   5.105   4.529   1.506  0.1605 -0.5538 -0.2536
  494THF     H4 9413   5.233   4.737   1.352  1.5378  0.4901 -2.4735
  494THF     H5 9414   5.336   4.618   1.285  0.6186 -1.8571  1.1546
  494THF     H6 9415   5.027   4.605   1.508  1.2229  0.5669  0.3381
  494THF     H7 9416   5.058   4.434   1.529 -0.4432  0.4334  3.1943
  494THF     C8 9417   5.219   4.576   1.603 -1.1525  0.2284 -0.2945
  494THF     C9 9418   5.335   4.602   1.505  0.0574  0.1263  0.3931
  494THF    H10 9419   5.242   4.501   1.678 -0.0624  1.3295  0.5011
  494THF    H11 9420   5.194   4.675   1.641 -1.7788  0.3949 -1.1051
  494THF    H12 9421   5.391   4.684   1.549 -1.2071  1.2918 -0.1089
  494THF    H13 9422   5.400   4.515   1.496 -4.2404 -3.2653 -1.6771
  495THF     O1 9423   1.937   3.672   3.374  0.0186 -0.1607  0.8441
  495THF     C2 9424   1.905   3.781   3.288  0.6530  0.9973 -0.9840
  495THF     C3 9425   1.834   3.578   3.358 -0.4482  0.4332  0.1518
  495THF     H4 9426   1.989   3.848   3.267  0.2742  1.2894 -1.5934
  495THF     H5 9427   1.834   3.844   3.342 -1.1570 -0.7937 -1.1692
  495THF     H6 9428   1.876   3.477   3.362 -2.6642 -0.5381  0.2295
  495THF     H7 9429   1.748   3.585   3.425 -1.4270 -0.3028 -0.9960
  495THF     C8 9430   1.781   3.595   3.217  0.5469 -0.0289 -0.3619
  495THF     C9 9431   1.865   3.707   3.161 -0.4701 -0.6248 -0.1946
  495THF    H10 9432   1.673   3.609   3.211  0.3633 -1.1326  0.1158
  495THF    H11 9433   1.799   3.502   3.163  0.4599 -0.5645  0.5122
  495THF    H12 9434   1.959   3.666   3.122  1.3020  0.1234  2.9296
  495THF    H13 9435   1.829   3.772   3.081 -0.2783 -0.0004  0.2205
  496THF     O1 9436   3.155   3.463   4.426  0.3568  0.2121 -0.3999
  496THF     C2 9437   3.195   3.575   4.352 -0.4311 -0.4141  0.0621
  496THF     C3 9438   3.262   3.374   4.437 -0.0219  0.4881  0.0973
  496THF     H4 9439   3.207   3.656   4.424  0.4095  0.1955 -0.7519
  496THF     H5 9440   3.118   3.603   4.281 -0.3411  2.5254  0.9875
  496THF     H6 9441   3.330   3.387   4.522  0.9496 -0.3104 -0.5289
  496THF     H7 9442   3.221   3.274   4.450  1.7724 -0.6254 -2.0916
  496THF     C8 9443   3.327   3.387   4.305 -0.9345  0.6946  0.4186
  496THF     C9 9444   3.333   3.536   4.288 -0.3010 -0.4321  0.0255
  496THF    H10 9445   3.261   3.350   4.228 -1.0482  1.6666  0.0348
  496THF    H11 9446   3.425   3.339   4.302 -0.2546  1.9984  0.7458
  496THF    H12 9447   3.411   3.577   4.352 -1.0771  1.0458  0.0571
  496THF    H13 9448   3.351   3.553   4.182 -0.1322 -2.3969 -0.2968
  497THF     O1 9449   3.794   4.238   3.270  0.2317 -0.2865 -0.1134
  497THF     C2 9450   3.812   4.150   3.386  0.1858  0.4929 -0.1593
  497THF     C3 9451   3.906   4.215   3.186 -0.4622  0.0206  0.7008
  497THF     H4 9452   3.787   4.045   3.373 -0.2897  0.3777  1.5337
  497THF     H5 9453   3.754   4.190   3.468 -1.5215  0.0596 -1.1154
  497THF     H6 9454   3.900   4.124   3.125  1.4717 -0.3635  1.0055
  497THF     H7 9455   3.906   4.301   3.119 -1.3754 -0.4736  0.0309
  497THF     C8 9456   4.021   4.202   3.284  0.4471 -0.4508  0.4832
  497THF     C9 9457   3.962   4.149   3.413 -0.4411 -0.2788  0.4368
  497THF    H10 9458   4.065   4.300   3.305  1.6122 -0.8934  0.1970
  497THF    H11 9459   4.092   4.136   3.235  0.6197  0.6208 -0.7725
  497THF    H12 9460   4.006   4.055   3.445 -1.0821 -0.2892  1.3198
  497THF    H13 9461   3.993   4.217   3.492  0.0120 -0.1709  0.1701
  498THF     O1 9462   5.396   3.133   5.438 -0.6098  0.2753 -0.8737
  498THF     C2 9463   5.271   3.202   5.431  0.4905  0.0024  0.1011
  498THF     C3 9464   5.379   2.996   5.482  0.2631 -0.4789 -0.4534
  498THF     H4 9465   5.227   3.182   5.334  0.7539  3.3784 -0.8488
  498THF     H5 9466   5.274   3.311   5.432 -0.0102  0.0170  0.4840
  498THF     H6 9467   5.352   2.947   5.388  1.1779  0.1042 -1.0336
  498THF     H7 9468   5.461   2.937   5.521  1.3609  1.4420  0.2790
  498THF     C8 9469   5.255   3.015   5.575 -0.2181  0.4063 -0.5442
  498THF     C9 9470   5.180   3.141   5.536  0.1162  0.1254  0.0204
  498THF    H10 9471   5.295   3.029   5.676  1.5470 -0.4413 -1.0855
  498THF    H11 9472   5.191   2.927   5.570 -0.5260  0.6892 -1.9269
  498THF    H12 9473   5.075   3.133   5.506 -0.0135  1.0877  0.1829
  498THF    H13 9474   5.182   3.205   5.625 -0.8041  0.8248 -0.4371
  499THF     O1 9475   4.001   1.313   1.554 -0.5537 -0.1131 -0.1772
  499THF     C2 9476   4.090   1.270   1.658 -0.6535  0.0137  0.3246
  499THF     C3 9477   3.941   1.439   1.589 -1.0376 -0.7475  0.2234
  499THF     H4 9478   4.185   1.322   1.665  1.5700 -3.7833  0.9961
  499THF     H5 9479   4.094   1.162   1.655 -1.0388 -0.0360  1.2447
  499THF     H6 9480   4.010   1.517   1.558 -0.6837 -0.3189  2.0120
  499THF     H7 9481   3.848   1.471   1.544 -0.8271  1.6775  1.3451
  499THF     C8 9482   3.930   1.433   1.743  0.4730 -0.2490  0.4463
  499THF     C9 9483   4.005   1.307   1.783  0.0945  0.3465  0.1483
  499THF    H10 9484   3.825   1.420   1.767 -0.0479 -0.5506 -1.7450
  499THF    H11 9485   3.961   1.525   1.791 -1.0946  1.2880 -1.3147
  499THF    H12 9486   4.056   1.316   1.878  1.2195 -0.5195 -0.3462
  499THF    H13 9487   3.931   1.228   1.794 -0.4127  0.8648  0.5303
  500THF     O1 9488   5.497   3.961   5.253 -0.7077 -0.2391  0.1825
  500THF     C2 9489   5.459   3.945   5.387 -0.2277  0.2461  0.2709
  500THF     C3 9490   5.545   4.096   5.230 -0.1168 -0.2539 -0.4134
  500THF     H4 9491   5.477   3.841   5.417 -1.8524 -0.0907  0.1531
  500THF     H5 9492   5.352   3.964   5.394 -0.2324  0.5650 -0.6437
  500THF     H6 9493   5.647   4.090   5.192  1.1722  0.6748  2.5561
  500THF     H7 9494   5.492   4.155   5.155 -2.2929 -0.3219  1.0017
  500THF     C8 9495   5.544   4.165   5.365 -0.2815  0.5144 -0.5987
  500THF     C9 9496   5.539   4.051   5.465 -0.2130  0.1218 -0.7497
  500THF    H10 9497   5.462   4.237   5.375  0.3577  1.0939  0.8713
  500THF    H11 9498   5.639   4.219   5.366 -0.7719  1.5310 -2.8343
  500THF    H12 9499   5.639   4.007   5.472  0.4839  1.6803 -0.6681
  500THF    H13 9500   5.499   4.071   5.565  2.1156 -1.3675  0.5746
  501THF     O1 9501   1.062   0.839   1.648 -0.0040  0.0985  0.2697
  501THF     C2 9502   1.188   0.782   1.639  0.0652  0.0919  0.1208
  501THF     C3 9503   1.048   0.905   1.769  0.2961 -0.1145 -0.6350
  501THF     H4 9504   1.267   0.858   1.637  0.5239 -0.3650  0.5401
  501THF     H5 9505   1.203   0.712   1.557  1.2965  0.7328 -0.2358
  501THF     H6 9506   1.108   0.995   1.764  0.8950 -0.5339 -1.3677
  501THF     H7 9507   0.946   0.939   1.783  0.8253  1.5370 -0.6153
  501THF     C8 9508   1.109   0.809   1.868 -0.4959 -0.6841 -0.0689
  501THF     C9 9509   1.189   0.712   1.779  0.1488 -0.0182 -0.2121
  501THF    H10 9510   1.024   0.767   1.922 -0.5592  0.4094  0.7082
  501THF    H11 9511   1.161   0.848   1.954 -2.9603 -1.9625  2.1490
  501THF    H12 9512   1.290   0.712   1.820 -0.4856 -2.1921  1.5272
  501THF    H13 9513   1.145   0.613   1.767  0.5982 -0.1174 -1.1334
  502THF     O1 9514   5.419   1.836   3.357  0.0235  0.0704 -0.4379
  502THF     C2 9515   5.384   1.812   3.491  0.0845  0.1270 -0.1189
  502THF     C3 9516   5.394   1.717   3.284  0.0498 -0.1502  0.3303
  502THF     H4 9517   5.276   1.814   3.508  0.1664  2.8998  0.5383
  502THF     H5 9518   5.434   1.879   3.561 -0.4887  1.0179 -0.5498
  502THF     H6 9519   5.285   1.711   3.281 -0.0872  1.1030  1.6695
  502THF     H7 9520   5.443   1.709   3.187  0.9508  0.8095  0.6774
  502THF     C8 9521   5.446   1.612   3.370 -1.1300  0.8091  0.0414
  502THF     C9 9522   5.413   1.658   3.513 -1.2015  0.3699  0.0979
  502THF    H10 9523   5.554   1.600   3.361 -1.0303 -0.7433  2.5876
  502THF    H11 9524   5.416   1.515   3.330  2.3241  0.3744 -1.8550
  502THF    H12 9525   5.318   1.608   3.534 -1.0639  0.5237  1.1492
  502THF    H13 9526   5.489   1.643   3.590  2.0079 -0.1366 -2.9137
  503THF     O1 9527   0.847   3.585   2.782  0.0856 -0.5479  0.0799
  503THF     C2 9528   0.766   3.625   2.674  0.2982  0.2123 -0.4968
  503THF     C3 9529   0.912   3.471   2.739 -0.5257  0.1177 -0.4117
  503THF     H4 9530   0.813   3.706   2.617 -1.6563  0.9339 -1.1502
  503THF     H5 9531   0.675   3.661   2.722  0.2441 -0.7424  0.1280
  503THF     H6 9532   0.992   3.507   2.673  0.2311  2.4217  1.5978
  503THF     H7 9533   0.967   3.421   2.819  0.0154  2.1613  0.5776
  503THF     C8 9534   0.820   3.397   2.638  0.5808  0.5427  0.1292
  503THF     C9 9535   0.741   3.506   2.572 -0.1770  0.6129  0.0712
  503THF    H10 9536   0.751   3.330   2.688 -1.5101 -0.1543 -3.3419
  503THF    H11 9537   0.876   3.338   2.565 -0.9887 -1.2668  0.3097
  503THF    H12 9538   0.780   3.527   2.472  0.3467  0.0926  0.1604
  503THF    H13 9539   0.638   3.469   2.569  0.0519 -0.0415  0.1568
  504THF     O1 9540   5.161   4.988   4.973 -0.3492  0.2970  1.2845
  504THF     C2 9541   5.131   5.102   5.042  0.2898 -0.5831 -0.2507
  504THF     C3 9542   5.110   5.002   4.835 -0.3597  0.6526  0.2073
  504THF     H4 9543   5.190   5.186   5.006 -1.0914  0.7478  0.4745
  504THF     H5 9544   5.139   5.101   5.151 -1.6551  0.7443 -0.0362
  504THF     H6 9545   5.192   5.060   4.791  2.1348 -1.8972  1.1993
  504THF     H7 9546   5.111   4.908   4.780 -0.7096  1.0745 -0.5375
  504THF     C8 9547   4.977   5.072   4.854  0.2110 -0.3215  1.0947
  504THF     C9 9548   4.983   5.126   4.994  0.2922  0.1442 -0.5151
  504THF    H10 9549   4.901   4.995   4.844 -2.1940  1.9245  0.7725
  504THF    H11 9550   4.950   5.147   4.780  1.3571  1.0387  1.9967
  504THF    H12 9551   4.964   5.233   4.989 -0.1086  0.0630 -0.7937
  504THF    H13 9552   4.898   5.087   5.049  0.1972  0.4716 -0.4297
  505THF     O1 9553   2.153   4.033   4.900 -0.4488  0.1562  0.7677
  505THF     C2 9554   2.018   4.033   4.851 -0.3845  0.4128  0.1649
  505THF     C3 9555   2.234   4.088   4.805 -0.4627 -0.1045  0.9567
  505THF     H4 9556   1.959   4.057   4.940  0.0328 -0.0045  0.5612
  505THF     H5 9557   1.990   3.939   4.804 -0.2991  0.7312 -0.5410
  505THF     H6 9558   2.321   4.134   4.852 -1.0805  2.2490 -0.0491
  505THF     H7 9559   2.268   4.015   4.731 -0.9577  1.4190 -0.8636
  505THF     C8 9560   2.150   4.198   4.742 -0.9499  0.3779  0.0689
  505THF     C9 9561   2.012   4.141   4.739  0.4328  0.6407  0.4753
  505THF    H10 9562   2.183   4.226   4.642 -0.7504  2.7672  0.7340
  505THF    H11 9563   2.141   4.292   4.796  1.1548  0.9377 -0.4449
  505THF    H12 9564   1.928   4.208   4.757 -1.9063 -1.4589 -1.7661
  505THF    H13 9565   1.997   4.101   4.639  0.5700  0.7878  0.3967
  506THF     O1 9566   2.479   1.826   2.039 -0.3459 -0.0848  1.1614
  506THF     C2 9567   2.500   1.898   2.165  0.4412  0.0770  0.7474
  506THF     C3 9568   2.345   1.775   2.033 -0.2366 -0.5311 -0.3099
  506THF     H4 9569   2.446   1.992   2.159  0.1293 -0.2007 -2.1567
  506THF     H5 9570   2.601   1.910   2.203 -0.4374  3.0468  2.5381
  506THF     H6 9571   2.277   1.859   2.018  2.3348  1.8824  0.5880
  506THF     H7 9572   2.338   1.702   1.953  0.9106 -1.8340  0.7314
  506THF     C8 9573   2.332   1.717   2.173  0.3106  0.5183  0.3397
  506THF     C9 9574   2.430   1.800   2.255 -0.2675 -0.2931 -0.0414
  506THF    H10 9575   2.361   1.612   2.165  0.6791  0.5401  1.2026
  506THF    H11 9576   2.226   1.732   2.193  0.1622 -1.0322  0.8803
  506THF    H12 9577   2.364   1.853   2.324  0.8148 -0.4232  1.1086
  506THF    H13 9578   2.500   1.740   2.312 -1.9499 -1.7947  0.5335
  507THF     O1 9579   1.183   3.743   1.027  0.7823  0.3431  0.3383
  507THF     C2 9580   1.094   3.646   1.080 -0.1588 -1.5539 -0.6350
  507THF     C3 9581   1.308   3.676   1.022 -0.5292  0.1328 -0.1232
  507THF     H4 9582   0.993   3.673   1.048  0.2831  2.7946  0.8968
  507THF     H5 9583   1.111   3.649   1.188  1.9304  1.4248 -0.9011
  507THF     H6 9584   1.353   3.698   0.925 -1.0558 -0.5494 -0.5330
  507THF     H7 9585   1.368   3.707   1.107 -1.4124  1.7955 -0.0662
  507THF     C8 9586   1.286   3.528   1.035  0.6325 -0.1394 -0.0056
  507THF     C9 9587   1.132   3.517   1.015 -0.4653  0.2761 -0.2821
  507THF    H10 9588   1.297   3.488   1.136 -2.0379  0.1215  0.4656
  507THF    H11 9589   1.332   3.470   0.956  1.5139  1.1418 -0.4621
  507THF    H12 9590   1.115   3.527   0.907 -0.1182 -1.2189 -0.5013
  507THF    H13 9591   1.080   3.427   1.048  0.0762  0.6268  1.6244
  508THF     O1 9592   0.501   5.256   1.040 -0.5316 -0.2469  0.2051
  508THF     C2 9593   0.594   5.176   1.105 -0.3334 -0.2609 -0.1218
  508THF     C3 9594   0.393   5.277   1.117  0.1701  0.2425 -0.0296
  508THF     H4 9595   0.658   5.234   1.172  1.0742  1.4729 -2.8031
  508THF     H5 9596   0.663   5.128   1.036 -0.1359  1.3113 -1.0463
  508THF     H6 9597   0.419   5.339   1.203 -0.7511 -0.3459  0.6880
  508THF     H7 9598   0.303   5.316   1.068  0.8421 -0.1731 -1.6482
  508THF     C8 9599   0.375   5.132   1.176  0.6806 -0.6997  0.5169
  508THF     C9 9600   0.515   5.068   1.182  0.5711 -0.8482 -0.9115
  508THF    H10 9601   0.316   5.078   1.102 -0.5494  2.4156 -0.9605
  508THF    H11 9602   0.322   5.130   1.271 -1.8886 -0.9276 -0.8589
  508THF    H12 9603   0.548   5.072   1.286 -0.2930 -0.9522 -0.6307
  508THF    H13 9604   0.531   4.969   1.141  2.7468 -0.0918 -2.0681
  509THF     O1 9605   5.162   0.821   1.698  0.2136  0.2694  0.0123
  509THF     C2 9606   5.061   0.914   1.737 -0.2946  0.2073  0.3009
  509THF     C3 9607   5.233   0.784   1.822  0.4104 -0.5742 -0.0360
  509THF     H4 9608   4.979   0.852   1.773 -0.4676 -0.9439 -1.9201
  509THF     H5 9609   5.034   0.971   1.648 -0.9674  2.1664  1.6896
  509THF     H6 9610   5.161   0.713   1.864  1.0401 -0.6560  0.9301
  509THF     H7 9611   5.325   0.725   1.824  0.1572 -1.0106 -0.6761
  509THF     C8 9612   5.229   0.911   1.913  0.3681 -0.2281 -0.1077
  509THF     C9 9613   5.130   1.000   1.840 -0.6830 -0.7396 -0.1296
  509THF    H10 9614   5.325   0.958   1.932  0.7971 -1.3002  0.4811
  509THF    H11 9615   5.193   0.873   2.009 -1.7767 -0.1120 -0.8104
  509THF    H12 9616   5.066   1.049   1.912 -0.9839  1.7582 -1.9486
  509THF    H13 9617   5.184   1.085   1.796  1.9425 -1.0608  2.1835
  510THF     O1 9618   4.951   4.875   4.485 -0.0480 -0.0191 -0.3627
  510THF     C2 9619   4.866   4.777   4.553 -0.8454 -0.2393 -0.2822
  510THF     C3 9620   5.070   4.813   4.470  0.1137  0.2462 -0.6947
  510THF     H4 9621   4.763   4.809   4.541 -0.5469  0.1170 -2.3922
  510THF     H5 9622   4.908   4.773   4.653  4.1947  2.3432 -1.9378
  510THF     H6 9623   5.144   4.867   4.410 -0.8701  2.2151 -0.2410
  510THF     H7 9624   5.117   4.817   4.568  0.4901  0.9753 -0.8942
  510THF     C8 9625   5.027   4.678   4.421 -0.1448  0.1960  0.0507
  510THF     C9 9626   4.902   4.640   4.493 -0.5605 -0.3449  0.0176
  510THF    H10 9627   5.097   4.596   4.408 -1.1348 -0.3981 -1.8995
  510THF    H11 9628   4.997   4.698   4.318 -0.0134  2.6249  0.4062
  510THF    H12 9629   4.826   4.592   4.431 -2.6375  1.6519  0.8874
  510THF    H13 9630   4.930   4.570   4.572  1.0861  0.0138 -0.2064
  511THF     O1 9631   2.865   4.537   3.917  0.4382 -0.1014 -0.3392
  511THF     C2 9632   2.929   4.515   3.792 -0.0336  0.0477  0.5266
  511THF     C3 9633   2.757   4.443   3.926  0.1488 -0.8866 -0.2832
  511THF     H4 9634   3.028   4.562   3.793 -0.4332  0.9195  0.5371
  511THF     H5 9635   2.869   4.568   3.718 -1.0506 -0.1087  1.2070
  511THF     H6 9636   2.725   4.418   4.027 -0.6273 -0.6800 -0.4781
  511THF     H7 9637   2.669   4.483   3.877 -0.3576 -0.4539  0.9612
  511THF     C8 9638   2.803   4.315   3.852  0.1047  0.6223 -0.3546
  511THF     C9 9639   2.920   4.362   3.767 -0.0532  0.0241 -0.1063
  511THF    H10 9640   2.733   4.274   3.780  0.9717 -1.6837  0.0228
  511THF    H11 9641   2.830   4.246   3.932 -0.8482 -1.1786 -1.5306
  511THF    H12 9642   3.012   4.314   3.799  0.4349  0.5788 -0.6417
  511THF    H13 9643   2.899   4.333   3.664 -1.5292 -2.6036  0.8573
  512THF     O1 9644   0.976   1.453   0.992 -0.5230 -0.3109  0.3759
  512THF     C2 9645   0.863   1.425   0.918  0.8721 -0.5454  0.6608
  512THF     C3 9646   1.094   1.421   0.923  0.0677  0.8275  0.6420
  512THF     H4 9647   0.849   1.504   0.844  1.7866 -0.3512  0.6866
  512THF     H5 9648   0.774   1.422   0.981 -0.5156  0.3770 -1.1735
  512THF     H6 9649   1.122   1.492   0.844 -0.4999  0.4514  0.0981
  512THF     H7 9650   1.173   1.405   0.996  0.7568  0.7181 -0.1089
  512THF     C8 9651   1.053   1.292   0.855  0.9997  0.4376  0.2754
  512THF     C9 9652   0.902   1.302   0.837  0.3200  0.8989  0.3507
  512THF    H10 9653   1.086   1.209   0.917  1.1839 -0.4510 -0.9663
  512THF    H11 9654   1.099   1.255   0.763 -0.0654 -2.2241  0.7503
  512THF    H12 9655   0.880   1.316   0.731  0.0319 -1.3236  0.0731
  512THF    H13 9656   0.852   1.214   0.877 -1.0471  0.8038 -1.4500
  513THF     O1 9657   4.919   3.443   4.372  0.0016  0.4173  0.0093
  513THF     C2 9658   4.839   3.414   4.260 -0.0560  0.3156 -0.3257
  513THF     C3 9659   4.829   3.464   4.480 -0.2286  0.6601  0.3895
  513THF     H4 9660   4.905   3.377   4.181 -0.1318 -1.7953  0.5197
  513THF     H5 9661   4.794   3.504   4.218 -1.1081  0.3850  0.9102
  513THF     H6 9662   4.874   3.424   4.571  0.5804  2.4713  0.8334
  513THF     H7 9663   4.806   3.571   4.490 -1.6355  0.3672  0.5103
  513THF     C8 9664   4.705   3.382   4.451 -0.1796  0.3001  0.6794
  513THF     C9 9665   4.732   3.317   4.320 -0.4929 -0.6046  0.5400
  513THF    H10 9666   4.621   3.445   4.423 -0.1272 -0.4596 -1.3086
  513THF    H11 9667   4.678   3.304   4.522  2.6783 -1.2533  0.2277
  513THF    H12 9668   4.771   3.216   4.335  0.5382 -0.0588  1.6570
  513THF    H13 9669   4.649   3.306   4.250  0.9158 -2.0554 -0.9907
  514THF     O1 9670   2.755   1.453   0.321 -0.2998 -0.3281 -0.6906
  514THF     C2 9671   2.725   1.589   0.295 -0.3440 -0.2126 -0.0776
  514THF     C3 9672   2.859   1.413   0.235  0.4357  0.3445  0.3504
  514THF     H4 9673   2.810   1.647   0.330 -0.5331  0.9365 -1.4355
  514THF     H5 9674   2.634   1.626   0.344 -0.2271  2.0791 -1.4154
  514THF     H6 9675   2.951   1.463   0.265  1.6226 -1.4891 -0.0277
  514THF     H7 9676   2.870   1.304   0.233 -2.4912 -0.0395  0.0501
  514THF     C8 9677   2.811   1.468   0.100  0.1407 -0.3428 -0.1046
  514THF     C9 9678   2.733   1.596   0.143  0.3267 -0.0212 -0.1030
  514THF    H10 9679   2.744   1.396   0.055  1.3487 -0.2403 -2.2046
  514THF    H11 9680   2.887   1.482   0.022  0.1871  4.7242  0.5284
  514THF    H12 9681   2.774   1.695   0.130 -2.5873  1.2299 -0.6149
  514THF    H13 9682   2.630   1.586   0.107  0.2752 -0.8781  0.2537
  515THF     O1 9683   3.102   4.920   0.327 -0.3871  0.5156 -0.3137
  515THF     C2 9684   3.124   5.063   0.292 -0.2302  0.2530 -0.2762
  515THF     C3 9685   2.967   4.909   0.374 -0.1687  0.5406 -0.1304
  515THF     H4 9686   3.092   5.076   0.189  1.8195  1.5613 -0.7951
  515THF     H5 9687   3.230   5.080   0.305 -0.1756 -0.3401  0.1190
  515THF     H6 9688   2.896   4.913   0.292  0.1294 -1.2548 -0.5128
  515THF     H7 9689   2.952   4.815   0.428  1.1395  0.6761  0.5105
  515THF     C8 9690   2.942   5.036   0.453  0.0370 -0.2689  0.0668
  515THF     C9 9691   3.025   5.150   0.384  0.0435 -0.0414  0.9794
  515THF    H10 9692   2.988   5.014   0.549  0.2545 -2.0123 -0.3918
  515THF    H11 9693   2.838   5.066   0.451 -0.0324 -0.5221 -1.0275
  515THF    H12 9694   2.962   5.208   0.316  3.3474 -0.4845 -2.8106
  515THF    H13 9695   3.070   5.213   0.460 -0.8080  1.2000  0.4887
  516THF     O1 9696   3.052   4.783   0.708  1.0778 -0.0807  0.0138
  516THF     C2 9697   2.916   4.813   0.741  0.0596  0.1866  0.7806
  516THF     C3 9698   3.129   4.860   0.796  0.2680 -0.3811 -0.5766
  516THF     H4 9699   2.838   4.745   0.707 -0.4659  1.7689 -1.4168
  516THF     H5 9700   2.890   4.909   0.697 -0.0567 -0.0141  0.4139
  516THF     H6 9701   3.232   4.824   0.800 -0.3417 -2.4520 -2.1251
  516THF     H7 9702   3.139   4.961   0.755  2.2991 -0.2691  0.0413
  516THF     C8 9703   3.056   4.859   0.932 -0.3747  0.2828  0.0814
  516THF     C9 9704   2.918   4.811   0.894  0.7467  0.2760  0.1889
  516THF    H10 9705   3.064   4.955   0.983  0.3331 -0.2248  0.9679
  516THF    H11 9706   3.094   4.779   0.996 -0.0888  1.7021  1.7581
  516THF    H12 9707   2.903   4.708   0.926  2.3140 -0.1721 -0.4637
  516THF    H13 9708   2.834   4.877   0.919 -0.4948 -0.1154 -2.6279
  517THF     O1 9709   2.946   4.962   2.148  0.2562 -0.5782  1.0715
  517THF     C2 9710   3.032   5.060   2.191 -0.7297 -0.7675  0.1007
  517THF     C3 9711   3.012   4.837   2.161  0.1396 -0.0863 -0.0173
  517THF     H4 9712   2.981   5.152   2.215 -1.9467 -1.1898 -0.8021
  517THF     H5 9713   3.116   5.090   2.128 -0.4382  0.7409  1.1611
  517THF     H6 9714   2.933   4.762   2.164  0.8009 -0.8264 -0.5232
  517THF     H7 9715   3.074   4.832   2.071  0.9391 -1.3948  0.5844
  517THF     C8 9716   3.083   4.847   2.296  0.1978  0.0654  0.6170
  517THF     C9 9717   3.088   4.998   2.323 -0.6098  0.5458  0.6952
  517THF    H10 9718   3.184   4.808   2.283  0.1855 -0.2004  1.2782
  517THF    H11 9719   3.027   4.789   2.370  1.5531 -4.6007 -1.6223
  517THF    H12 9720   3.017   5.025   2.402 -0.3761  0.3883  0.9626
  517THF    H13 9721   3.190   5.032   2.341  0.3897 -1.4443 -0.9339
  518THF     O1 9722   1.156   4.331   3.336 -0.3605  0.0275 -0.1581
  518THF     C2 9723   1.030   4.261   3.344  0.2943  0.2770 -0.5529
  518THF     C3 9724   1.163   4.427   3.441 -0.7956  0.1047  0.2746
  518THF     H4 9725   1.033   4.172   3.406  0.9470  1.0627  0.5755
  518THF     H5 9726   1.000   4.225   3.245 -0.7460 -1.4062  0.3327
  518THF     H6 9727   1.175   4.385   3.541 -0.3377 -1.1310 -0.2707
  518THF     H7 9728   1.243   4.498   3.422  3.4888 -3.8635  1.6924
  518THF     C8 9729   1.020   4.472   3.423 -0.0138 -0.3336  0.1850
  518THF     C9 9730   0.930   4.359   3.403 -0.7479  0.5130 -0.1725
  518THF    H10 9731   1.008   4.538   3.337 -0.3456 -1.8402 -0.9669
  518THF    H11 9732   0.997   4.536   3.508  0.2003  0.9115 -0.6675
  518THF    H12 9733   0.882   4.326   3.495  1.0320  0.6298  0.8438
  518THF    H13 9734   0.863   4.383   3.320 -0.2566  2.3694 -0.0779
  519THF     O1 9735   5.467   3.753   3.455  0.0640 -0.2711  0.1303
  519THF     C2 9736   5.405   3.684   3.557 -0.5960 -0.3428 -0.7210
  519THF     C3 9737   5.600   3.708   3.457  0.4812 -0.2126 -0.0600
  519THF     H4 9738   5.301   3.711   3.572 -0.7647 -0.3901 -1.7271
  519THF     H5 9739   5.457   3.707   3.651  0.4840 -1.3048 -1.0593
  519THF     H6 9740   5.652   3.730   3.363 -0.3201 -0.1772 -0.4996
  519THF     H7 9741   5.654   3.759   3.536  0.6563 -0.6782  0.1263
  519THF     C8 9742   5.578   3.557   3.479 -0.0153  0.1256  0.0735
  519THF     C9 9743   5.435   3.541   3.528 -0.2953  0.0512 -0.7317
  519THF    H10 9744   5.655   3.498   3.531 -2.1257 -1.2229  1.8552
  519THF    H11 9745   5.577   3.504   3.384 -0.9370  1.5723 -0.7580
  519THF    H12 9746   5.365   3.510   3.450  1.8060 -2.0390 -1.9312
  519THF    H13 9747   5.441   3.478   3.617  1.3668 -1.4277 -1.8441
  520THF     O1 9748   3.697   5.225   2.982  0.1346  0.4339 -0.4022
  520THF     C2 9749   3.661   5.187   2.856  0.3600  0.4625  0.3599
  520THF     C3 9750   3.688   5.116   3.067  0.0342  0.8618  0.0477
  520THF     H4 9751   3.694   5.248   2.771  0.1314  0.5279  0.3156
  520THF     H5 9752   3.553   5.178   2.861  0.5060 -0.8316  1.6779
  520THF     H6 9753   3.757   5.132   3.151 -0.7635  1.6893  0.5586
  520THF     H7 9754   3.593   5.096   3.117  0.1632  0.7024  0.2327
  520THF     C8 9755   3.737   4.997   2.984  0.1293 -0.8087 -0.5168
  520THF     C9 9756   3.731   5.052   2.847 -0.2528  0.1480  0.2068
  520THF    H10 9757   3.664   4.921   3.010  0.0091 -0.2802  0.7593
  520THF    H11 9758   3.841   4.970   3.004  0.4708 -1.8447 -3.2902
  520THF    H12 9759   3.831   5.077   2.812  0.1918  0.1887  1.4744
  520THF    H13 9760   3.678   4.982   2.783  1.6415 -0.8282 -0.3630
  521THF     O1 9761   4.183   2.876   2.346  0.8361  0.6751 -0.6101
  521THF     C2 9762   4.089   2.768   2.352  0.2469 -0.0959 -0.7783
  521THF     C3 9763   4.316   2.827   2.315 -0.2906  0.6017 -0.1863
  521THF     H4 9764   3.986   2.794   2.329 -0.2298 -1.3155 -0.1344
  521THF     H5 9765   4.080   2.735   2.455  2.3036 -0.7203 -0.7609
  521THF     H6 9766   4.355   2.873   2.224  0.9463  0.0686  0.0613
  521THF     H7 9767   4.378   2.843   2.403 -0.6525 -0.0604  0.1984
  521THF     C8 9768   4.304   2.677   2.289  0.0460  0.5118  0.2519
  521THF     C9 9769   4.158   2.667   2.263 -0.3026 -1.3382  0.2212
  521THF    H10 9770   4.342   2.616   2.371  0.2489 -1.2090 -1.0733
  521THF    H11 9771   4.362   2.652   2.200 -2.5826  0.0362 -1.4265
  521THF    H12 9772   4.141   2.698   2.160  0.2938 -1.5106  0.0709
  521THF    H13 9773   4.119   2.566   2.272  1.8579 -2.2865 -0.5087
  522THF     O1 9774   2.527   4.132   0.962 -0.3007 -0.0388 -0.4938
  522THF     C2 9775   2.486   4.264   0.954  0.1106  0.3109 -0.1945
  522THF     C3 9776   2.506   4.083   1.090 -0.2910 -0.7584 -0.2042
  522THF     H4 9777   2.449   4.294   0.856 -0.4305 -3.5810 -1.3358
  522THF     H5 9778   2.569   4.333   0.972  0.7449 -0.2495 -0.9073
  522THF     H6 9779   2.511   3.974   1.094  0.7134 -0.6953  0.5264
  522THF     H7 9780   2.577   4.129   1.158  0.5476 -0.9702 -0.9256
  522THF     C8 9781   2.361   4.125   1.106 -0.2048  0.0984 -0.0309
  522THF     C9 9782   2.364   4.262   1.049  0.0846  0.3928 -0.2088
  522THF    H10 9783   2.321   4.106   1.205 -2.8690  1.5139 -0.7078
  522THF    H11 9784   2.305   4.067   1.032 -0.2261 -1.0477  0.8625
  522THF    H12 9785   2.270   4.289   1.000 -1.1921 -0.5314  1.6013
  522THF    H13 9786   2.388   4.338   1.124 -1.3135  0.4811  0.1850
  523THF     O1 9787   1.465   4.796   1.217 -1.0268  0.2149 -0.2492
  523THF     C2 9788   1.425   4.899   1.308  0.1954 -0.0282  0.2947
  523THF     C3 9789   1.554   4.853   1.123 -0.6805 -0.5452  0.2046
  523THF     H4 9790   1.502   4.921   1.383  1.3553 -3.2152  0.1641
  523THF     H5 9791   1.342   4.873   1.373 -0.6895 -1.7859 -1.4559
  523THF     H6 9792   1.651   4.855   1.174 -0.5651  2.6621  0.0715
  523THF     H7 9793   1.566   4.793   1.033 -1.1001 -0.2207 -0.0705
  523THF     C8 9794   1.496   5.001   1.104 -0.3320  0.0436 -0.0508
  523THF     C9 9795   1.408   5.021   1.220 -0.2658 -1.1408  0.8478
  523THF    H10 9796   1.454   4.999   1.004  1.6902  1.7850 -1.0144
  523THF    H11 9797   1.570   5.080   1.100  0.4242 -0.6582 -0.3140
  523THF    H12 9798   1.429   5.117   1.268 -0.5620  0.8666 -2.7089
  523THF    H13 9799   1.304   5.023   1.185 -0.5121 -0.1690  1.5637
  524THF     O1 9800   1.319   3.496   4.368 -0.2489  0.6976  0.1388
  524THF     C2 9801   1.238   3.462   4.482 -0.4305 -0.0861 -0.2386
  524THF     C3 9802   1.432   3.412   4.368  0.2135 -0.1201  0.0199
  524THF     H4 9803   1.138   3.419   4.470 -0.9808  0.3208  2.3025
  524THF     H5 9804   1.214   3.552   4.538  0.0888 -0.8956  1.3513
  524THF     H6 9805   1.409   3.329   4.300 -2.2069 -0.5274  1.2268
  524THF     H7 9806   1.525   3.458   4.333  0.9718 -2.3039 -1.0199
  524THF     C8 9807   1.451   3.383   4.515  0.8199 -0.1351 -0.5278
  524THF     C9 9808   1.312   3.359   4.569 -1.0116 -0.4108 -0.0725
  524THF    H10 9809   1.496   3.466   4.569  2.0307  0.0331 -1.7432
  524THF    H11 9810   1.515   3.299   4.541  1.4499  1.1149  2.2405
  524THF    H12 9811   1.280   3.260   4.536 -0.9575  0.2417 -2.2990
  524THF    H13 9812   1.297   3.365   4.677  0.8814 -1.6987  0.3015
  525THF     O1 9813   3.619   3.052   1.630  0.3656 -0.2549  0.9322
  525THF     C2 9814   3.519   3.128   1.553 -0.7439 -0.3086  0.3091
  525THF     C3 9815   3.553   3.028   1.754  1.4384 -0.5938  0.6412
  525THF     H4 9816   3.449   3.063   1.500  1.6748 -1.5003 -1.6392
  525THF     H5 9817   3.567   3.179   1.469 -0.5938 -0.5678  0.2374
  525THF     H6 9818   3.484   2.945   1.741  1.4938 -0.9301  2.2691
  525THF     H7 9819   3.619   2.996   1.834 -1.0286 -0.7031  2.7387
  525THF     C8 9820   3.468   3.153   1.784 -0.1375 -0.5944  0.3227
  525THF     C9 9821   3.430   3.216   1.644 -0.0941  0.4279 -0.1424
  525THF    H10 9822   3.532   3.233   1.822 -1.4692 -0.5295  2.6390
  525THF    H11 9823   3.381   3.142   1.850 -2.0165 -0.3655 -1.9685
  525THF    H12 9824   3.324   3.218   1.619  0.2355  0.3540 -1.6553
  525THF    H13 9825   3.456   3.322   1.643 -0.3879  0.5044  0.2584
  526THF     O1 9826   1.577   0.768   5.175 -0.2780 -0.0061  0.6157
  526THF     C2 9827   1.585   0.694   5.295  0.7207  1.0486 -0.2912
  526THF     C3 9828   1.652   0.700   5.067  0.5149  0.2569 -0.2333
  526THF     H4 9829   1.495   0.633   5.306  1.1010  0.4090 -0.6714
  526THF     H5 9830   1.591   0.768   5.375 -0.4886  1.4571 -0.5689
  526THF     H6 9831   1.595   0.686   4.975 -1.4758  3.6608  0.3138
  526THF     H7 9832   1.731   0.771   5.040 -0.6037  0.8820 -2.0619
  526THF     C8 9833   1.715   0.582   5.132  0.2691 -0.0983 -0.0833
  526THF     C9 9834   1.709   0.610   5.282  0.2114  1.0335 -0.9280
  526THF    H10 9835   1.815   0.563   5.095  0.5587  0.7604  0.2204
  526THF    H11 9836   1.655   0.498   5.096 -0.2132 -0.8509  2.2905
  526THF    H12 9837   1.710   0.519   5.342 -0.2942  1.7445  0.1912
  526THF    H13 9838   1.796   0.674   5.302 -0.6099  2.1437 -0.8063
  527THF     O1 9839   4.407   2.316   2.592  0.0876 -0.7818 -0.3686
  527THF     C2 9840   4.285   2.316   2.522  0.0126 -0.5032 -0.3423
  527THF     C3 9841   4.477   2.197   2.571  0.6556 -0.0957 -0.3721
  527THF     H4 9842   4.264   2.416   2.484  3.4049  1.5169  2.5355
  527THF     H5 9843   4.198   2.276   2.574 -0.6278  0.5095 -0.6002
  527THF     H6 9844   4.573   2.215   2.620  0.4276 -0.6991  0.3220
  527THF     H7 9845   4.417   2.118   2.617  1.4539 -1.6303 -1.8362
  527THF     C8 9846   4.466   2.174   2.421 -0.2817 -0.0546 -0.5446
  527THF     C9 9847   4.314   2.217   2.410  0.0309 -0.0285  0.3890
  527THF    H10 9848   4.486   2.078   2.374 -1.4470 -0.0814 -1.0292
  527THF    H11 9849   4.524   2.253   2.373 -0.5777  0.5838  0.1110
  527THF    H12 9850   4.294   2.280   2.324 -0.0763 -1.1516 -0.4436
  527THF    H13 9851   4.236   2.140   2.416  0.7356 -1.1252 -2.6482
  528THF     O1 9852   1.535   5.332   4.423 -0.0880 -0.1255 -0.1368
  528THF     C2 9853   1.571   5.428   4.327 -0.2279  0.6403  0.1304
  528THF     C3 9854   1.537   5.205   4.359 -0.3776  0.2273  0.2306
  528THF     H4 9855   1.634   5.493   4.388  0.2799 -1.5022  1.9969
  528THF     H5 9856   1.485   5.472   4.275  0.8952  2.1681 -0.5035
  528THF     H6 9857   1.534   5.129   4.437  0.3728  2.0227  2.0794
  528THF     H7 9858   1.444   5.191   4.303 -2.2108  2.5716  2.4585
  528THF     C8 9859   1.657   5.206   4.270 -0.1631 -0.4429  0.0221
  528THF     C9 9860   1.662   5.352   4.229  0.7168 -0.8795 -0.2453
  528THF    H10 9861   1.661   5.142   4.182 -0.5339  1.4503 -1.4119
  528THF    H11 9862   1.748   5.187   4.327  1.0749  0.8290 -1.4674
  528THF    H12 9863   1.766   5.381   4.243  0.7350 -2.0528  2.7232
  528THF    H13 9864   1.617   5.355   4.130 -0.4410  0.9646  0.2776
  529THF     O1 9865   0.503   0.241   3.585  0.4279 -0.4934  0.3476
  529THF     C2 9866   0.544   0.139   3.494 -0.0704 -0.4600 -0.3425
  529THF     C3 9867   0.507   0.185   3.717  0.7906 -0.3217  0.2372
  529THF     H4 9868   0.647   0.152   3.462  0.2636 -2.1508 -0.0393
  529THF     H5 9869   0.488   0.131   3.400 -0.3064  0.2840 -0.2724
  529THF     H6 9870   0.551   0.248   3.795 -1.1024  0.5213  0.6816
  529THF     H7 9871   0.408   0.169   3.761  0.4606 -1.2160 -0.7940
  529THF     C8 9872   0.584   0.052   3.706 -0.4990  0.5500 -0.0385
  529THF     C9 9873   0.545   0.004   3.563  0.2803 -0.5799 -0.0584
  529THF    H10 9874   0.555  -0.016   3.786  2.8859  1.2984  1.9756
  529THF    H11 9875   0.690   0.073   3.716 -0.0565 -1.1914 -0.6439
  529THF    H12 9876   0.619  -0.057   3.513 -0.1889  0.9657 -2.8214
  529THF    H13 9877   0.445  -0.037   3.564  0.2098 -0.4086  0.2522
  530THF     O1 9878   4.052   2.772   2.829  0.3778  0.1332  0.7149
  530THF     C2 9879   4.023   2.904   2.794 -0.2278  0.3939 -0.7014
  530THF     C3 9880   3.935   2.705   2.792 -0.0962  0.2392  0.9196
  530THF     H4 9881   4.062   2.914   2.692  0.6373 -3.0850 -0.8484
  530THF     H5 9882   4.072   2.966   2.869  2.2338 -3.1808  0.9317
  530THF     H6 9883   3.937   2.685   2.685  0.7816  0.2303  0.9271
  530THF     H7 9884   3.936   2.601   2.823  0.9870  0.2450  0.9579
  530THF     C8 9885   3.816   2.783   2.842 -0.1071  0.0717 -0.3115
  530THF     C9 9886   3.868   2.925   2.803 -0.2088  0.2170 -0.2953
  530THF    H10 9887   3.815   2.774   2.951  0.1048 -0.2760 -0.3370
  530THF    H11 9888   3.723   2.757   2.794  0.7097 -0.4994 -1.6334
  530THF    H12 9889   3.830   2.962   2.708 -0.6010  0.7415  0.0570
  530THF    H13 9890   3.852   2.995   2.885 -2.8541 -2.0714  1.3619
  531THF     O1 9891   4.277   0.821   1.414  0.2718 -0.3636  0.5050
  531THF     C2 9892   4.289   0.787   1.547  0.4299 -0.4406 -0.0338
  531THF     C3 9893   4.334   0.948   1.392 -0.8237  0.4994 -0.2898
  531THF     H4 9894   4.309   0.680   1.554  0.6828 -0.5631 -1.9618
  531THF     H5 9895   4.196   0.806   1.600  1.0601  2.8075  0.1405
  531THF     H6 9896   4.417   0.947   1.321  0.6845  1.3945  1.3693
  531THF     H7 9897   4.261   1.022   1.360 -1.7903  0.3473  1.4590
  531THF     C8 9898   4.391   1.003   1.525 -0.1996  0.1931  0.3898
  531THF     C9 9899   4.399   0.874   1.610 -0.5926  0.0318 -0.5018
  531THF    H10 9900   4.316   1.065   1.574 -2.8133 -1.3566 -1.4068
  531THF    H11 9901   4.489   1.048   1.511  0.8240 -1.7406  0.8449
  531THF    H12 9902   4.492   0.818   1.609 -0.3037  0.3576  1.8632
  531THF    H13 9903   4.371   0.878   1.716 -1.1153  0.9342 -0.6629
  532THF     O1 9904   3.125   2.478   0.410 -0.4633 -0.0660  0.5794
  532THF     C2 9905   3.194   2.582   0.347  0.1362  0.0215 -0.3719
  532THF     C3 9906   2.984   2.507   0.404  0.9332 -0.5458  1.2395
  532THF     H4 9907   3.285   2.546   0.300  0.2843 -0.6037  0.3677
  532THF     H5 9908   3.225   2.649   0.427 -3.3908  2.8704 -1.1036
  532THF     H6 9909   2.921   2.419   0.400 -1.5131  1.1334 -1.3524
  532THF     H7 9910   2.952   2.570   0.487  1.5584 -0.0759  1.1393
  532THF     C8 9911   2.964   2.589   0.274  0.4033 -0.1236  0.1563
  532THF     C9 9912   3.097   2.653   0.257 -0.3352 -0.2628  0.4709
  532THF    H10 9913   2.884   2.661   0.290 -0.0266 -1.0858  2.5748
  532THF    H11 9914   2.941   2.530   0.185  2.1093  2.7147 -2.3971
  532THF    H12 9915   3.130   2.655   0.154  1.1240 -1.1578  0.8949
  532THF    H13 9916   3.103   2.759   0.279  0.2970 -0.1772 -0.0795
  533THF     O1 9917   1.374   0.103   1.819 -0.6868 -0.2671 -0.2718
  533THF     C2 9918   1.330   0.199   1.727 -0.2222  0.3192 -0.0624
  533THF     C3 9919   1.507   0.136   1.854  0.2305  0.7080 -0.1365
  533THF     H4 9920   1.225   0.185   1.702  0.0174 -2.5666  0.2497
  533THF     H5 9921   1.376   0.187   1.629 -0.8377  0.2199 -0.3438
  533THF     H6 9922   1.535   0.088   1.947  4.4126  0.4992 -1.2837
  533THF     H7 9923   1.573   0.104   1.773  0.5360  0.1699  0.3157
  533THF     C8 9924   1.502   0.289   1.865 -0.0802 -0.1611 -0.7282
  533THF     C9 9925   1.375   0.335   1.784 -0.1783 -0.9838 -0.3781
  533THF    H10 9926   1.597   0.322   1.823  0.3756 -1.1519 -0.4940
  533THF    H11 9927   1.502   0.320   1.970 -0.8729 -0.9083 -0.5008
  533THF    H12 9928   1.303   0.382   1.851  1.1957 -1.2114  1.3352
  533THF    H13 9929   1.401   0.400   1.701  0.3403 -0.4978  0.1619
  534THF     O1 9930   1.992   3.289   2.694  0.4288  0.1861 -0.0249
  534THF     C2 9931   1.961   3.154   2.703  0.1081 -0.0245  0.1917
  534THF     C3 9932   1.869   3.353   2.735  0.1191 -0.5085 -0.1516
  534THF     H4 9933   1.956   3.108   2.801 -1.7405 -3.5858 -1.4130
  534THF     H5 9934   2.037   3.093   2.653 -1.1717 -2.2239  0.7974
  534THF     H6 9935   1.856   3.358   2.843 -2.5984  0.4728 -0.4396
  534THF     H7 9936   1.876   3.454   2.695  2.4338 -1.3127 -2.0007
  534THF     C8 9937   1.755   3.272   2.683  0.3126  0.1498 -0.2642
  534THF     C9 9938   1.817   3.140   2.649 -0.1710  0.0134  0.0292
  534THF    H10 9939   1.707   3.321   2.598 -1.8357  2.2403  1.9447
  534THF    H11 9940   1.677   3.265   2.760 -0.4017  0.5977 -0.9295
  534THF    H12 9941   1.765   3.055   2.694 -0.5402  0.5092  0.5457
  534THF    H13 9942   1.820   3.127   2.541 -3.7017  2.8400 -0.6098
  535THF     O1 9943   1.078   2.580   4.868 -0.4174  0.0495 -1.1339
  535THF     C2 9944   1.044   2.713   4.828 -0.2603 -0.4345  0.5649
  535THF     C3 9945   0.962   2.497   4.867  0.4415 -0.6053  0.1178
  535THF     H4 9946   1.028   2.712   4.720 -2.6933 -0.1118  0.8594
  535THF     H5 9947   1.111   2.795   4.855 -0.4978  0.9646 -2.6056
  535THF     H6 9948   0.959   2.426   4.785 -1.2490 -0.7850  0.2876
  535THF     H7 9949   0.974   2.441   4.960  2.1480  0.0981  0.3543
  535THF     C8 9950   0.846   2.597   4.858 -0.1844 -0.4184  0.4694
  535THF     C9 9951   0.907   2.731   4.882  0.1231 -0.5697 -0.2756
  535THF    H10 9952   0.768   2.591   4.934  1.0723 -1.2190  1.7440
  535THF    H11 9953   0.791   2.604   4.764 -0.6476  1.4023  0.8326
  535THF    H12 9954   0.853   2.817   4.843 -1.2466 -1.4561 -0.3786
  535THF    H13 9955   0.922   2.749   4.989  3.1843  0.4574 -0.7607
  536THF     O1 9956   2.442   3.518   3.431  0.4266  0.0908 -0.4742
  536THF     C2 9957   2.497   3.568   3.318 -0.5205 -0.7701 -0.5367
  536THF     C3 9958   2.371   3.618   3.499  0.2742 -0.4662  0.1131
  536THF     H4 9959   2.433   3.520   3.244 -1.9388  1.0998 -0.6071
  536THF     H5 9960   2.598   3.531   3.306 -0.4606 -1.8849  2.6143
  536THF     H6 9961   2.275   3.578   3.533 -0.3562  0.4337 -0.5611
  536THF     H7 9962   2.428   3.646   3.587  0.8896 -0.8072 -0.1724
  536THF     C8 9963   2.364   3.739   3.405  0.1608 -0.3152 -0.3443
  536THF     C9 9964   2.490   3.720   3.322  0.2487  0.8222  0.5281
  536THF    H10 9965   2.366   3.827   3.470  0.0111 -0.5537 -0.0144
  536THF    H11 9966   2.276   3.733   3.341  0.0711 -4.4729 -0.0921
  536THF    H12 9967   2.489   3.764   3.222  0.8990  1.4831  0.7975
  536THF    H13 9968   2.571   3.764   3.381  0.6985  0.1171  0.4536
  537THF     O1 9969   4.425   0.789   2.361 -0.2278  0.2025  0.3744
  537THF     C2 9970   4.381   0.921   2.368 -0.4790  0.3533 -0.4935
  537THF     C3 9971   4.376   0.735   2.480 -0.1722  0.2489  0.5353
  537THF     H4 9972   4.336   0.934   2.269 -3.5981 -2.7973  0.2975
  537THF     H5 9973   4.461   0.993   2.382 -0.4316  0.7386 -2.4581
  537THF     H6 9974   4.385   0.627   2.472  2.5983  0.5275 -1.7628
  537THF     H7 9975   4.438   0.757   2.567  0.2321  1.3075 -0.0017
  537THF     C8 9976   4.235   0.792   2.502 -0.1176 -0.7898  0.8088
  537THF     C9 9977   4.259   0.937   2.461  1.1041  0.1979  0.1365
  537THF    H10 9978   4.202   0.784   2.606 -1.0781  0.7525  0.6502
  537THF    H11 9979   4.158   0.744   2.442  0.8493 -1.0024 -0.3069
  537THF    H12 9980   4.175   0.985   2.410  0.9553 -0.0351  0.1593
  537THF    H13 9981   4.281   1.004   2.544  0.6404  0.7108 -0.1399
  538THF     O1 9982   0.402   3.030   4.108  1.1181  0.0706  0.3847
  538THF     C2 9983   0.270   2.995   4.156  0.7008 -0.1037  0.3957
  538THF     C3 9984   0.449   3.138   4.184  0.0205  0.3935  0.1046
  538THF     H4 9985   0.297   2.904   4.211  2.7729  0.9271  1.1557
  538THF     H5 9986   0.200   2.960   4.080 -0.4299 -1.7528  2.1016
  538THF     H6 9987   0.541   3.100   4.228 -1.9881 -1.4285  3.2011
  538THF     H7 9988   0.477   3.227   4.128  3.6015 -1.4732 -1.3465
  538THF     C8 9989   0.352   3.157   4.295  0.2157  0.7115 -0.3110
  538THF     C9 9990   0.222   3.108   4.238  0.1063  0.2217 -0.7543
  538THF    H10 9991   0.352   3.263   4.324  1.7762  0.4600  0.7174
  538THF    H11 9992   0.370   3.096   4.384  2.5230  1.1192 -0.4414
  538THF    H12 9993   0.156   3.084   4.321 -0.5942 -1.4414 -1.7313
  538THF    H13 9994   0.160   3.179   4.182 -1.2064 -1.7960 -1.9874
  539THF     O1 9995   0.243   2.766   3.675  0.0690 -0.0670  0.3890
  539THF     C2 9996   0.252   2.848   3.797  0.7220 -0.3944 -0.0348
  539THF     C3 9997   0.362   2.769   3.599  1.0604 -0.1356 -0.0506
  539THF     H4 9998   0.222   2.785   3.881 -2.7136  2.7356  1.3786
  539THF     H5 9999   0.180   2.930   3.798  1.5749  0.3730  0.1612
  539THF     H610000   0.426   2.681   3.607  2.4226  0.8172 -0.1742
  539THF     H710001   0.342   2.779   3.492  1.7627 -3.0136 -0.5284
  539THF     C810002   0.442   2.895   3.641  0.3821 -0.6725 -0.4819
  539THF     C910003   0.396   2.902   3.791 -0.3065  0.5395 -0.5329
  539THF    H1010004   0.423   2.988   3.588  0.3085  0.4213  1.3477
  539THF    H1110005   0.549   2.875   3.635  0.6936  0.4346  0.7048
  539THF    H1210006   0.448   2.831   3.855  1.0381  1.1443 -0.9152
  539THF    H1310007   0.399   2.998   3.843 -1.9260 -0.2530  1.1391
  540THF     O110008   3.984   3.573   4.909 -0.1829  0.5070  0.9590
  540THF     C210009   4.119   3.593   4.918  0.2707 -0.9418  0.2492
  540THF     C310010   3.933   3.689   4.836 -0.2403  0.3424 -0.3580
  540THF     H410011   4.167   3.505   4.960  2.7996  0.1360 -0.1300
  540THF     H510012   4.156   3.671   4.985  2.4897  0.4624 -2.3973
  540THF     H610013   3.826   3.678   4.816 -0.3570 -0.8747  0.7341
  540THF     H710014   3.943   3.775   4.901  1.9703 -1.4103  1.8300
  540THF     C810015   4.026   3.690   4.717 -0.1987  0.3094  0.0155
  540THF     C910016   4.157   3.638   4.776  0.2446  0.7756  0.1669
  540THF    H1010017   4.035   3.785   4.664 -0.8921 -0.1911 -1.0356
  540THF    H1110018   3.993   3.627   4.634 -0.0977  1.9454 -1.3275
  540THF    H1210019   4.200   3.559   4.714  1.3676  0.8197  0.8534
  540THF    H1310020   4.238   3.711   4.780  0.6706  0.4010 -1.1721
  541THF     O110021   0.986   3.212   1.310  0.9721  0.2578 -0.4478
  541THF     C210022   1.120   3.241   1.350  1.0324  0.1611  0.2926
  541THF     C310023   0.938   3.101   1.392  0.2850 -0.6122 -0.8591
  541THF     H410024   1.127   3.291   1.447 -3.5561  1.4981  0.1550
  541THF     H510025   1.169   3.305   1.277  1.7067  0.3756  0.9180
  541THF     H610026   0.896   3.152   1.479 -0.1962  0.0355 -1.4616
  541THF     H710027   0.863   3.043   1.339 -1.3171 -0.1624  0.8112
  541THF     C810028   1.067   3.027   1.413 -0.6324  0.2243 -0.0351
  541THF     C910029   1.180   3.106   1.354  0.5229  0.2051  0.1295
  541THF    H1010030   1.047   2.922   1.391 -1.0094  0.1262  0.7177
  541THF    H1110031   1.088   3.029   1.520 -2.5173 -2.7047  0.5232
  541THF    H1210032   1.276   3.115   1.404  0.3422  3.3909  0.0885
  541THF    H1310033   1.201   3.079   1.250  0.0564  2.0986 -0.4832
  542THF     O110034   5.282   0.436   5.381 -0.4340  0.2795 -0.4044
  542THF     C210035   5.401   0.466   5.310  0.8163  0.3090  0.4492
  542THF     C310036   5.184   0.436   5.274  0.9384  0.5439  0.0019
  542THF     H410037   5.487   0.466   5.378  0.0287 -0.4308  1.4708
  542THF     H510038   5.391   0.569   5.276  0.5231  0.3153  0.5562
  542THF     H610039   5.094   0.388   5.313  0.5462  1.5537  0.3738
  542THF     H710040   5.163   0.539   5.247 -0.2477  0.7472  1.5275
  542THF     C810041   5.249   0.352   5.165  0.1594 -0.2140  0.0150
  542THF     C910042   5.397   0.375   5.194 -0.6677  0.0816 -0.1125
  542THF    H1010043   5.218   0.382   5.064 -1.3544 -1.4052  0.0905
  542THF    H1110044   5.237   0.245   5.176 -2.3593 -0.2925 -2.3989
  542THF    H1210045   5.430   0.276   5.227 -1.2222  0.2130  0.8556
  542THF    H1310046   5.452   0.413   5.108 -0.6041  0.6211  0.1686
  543THF     O110047   4.268   4.336   4.280  0.4153  0.1533  0.0908
  543THF     C210048   4.380   4.253   4.261 -0.2589  0.1875 -0.3858
  543THF     C310049   4.197   4.341   4.159  0.1041  0.4582  0.2288
  543THF     H410050   4.372   4.149   4.293  4.7570 -0.3078  0.0835
  543THF     H510051   4.453   4.292   4.332 -0.2893  4.0709 -2.2480
  543THF     H610052   4.123   4.261   4.167 -1.5370  2.0247  1.8878
  543THF     H710053   4.153   4.439   4.142 -2.7472 -0.6306  0.7864
  543THF     C810054   4.292   4.306   4.044  0.7556 -0.1176 -0.5480
  543THF     C910055   4.412   4.250   4.112 -0.1846 -0.0492  0.1770
  543THF    H1010056   4.324   4.394   3.987  1.1073 -0.3597 -0.7293
  543THF    H1110057   4.241   4.235   3.978 -2.9359  2.0926 -0.3799
  543THF    H1210058   4.436   4.148   4.084  1.1910  0.4909 -0.7045
  543THF    H1310059   4.500   4.308   4.083 -1.0051 -0.0834 -2.6917
  544THF     O110060   0.811   5.479   3.343 -0.2025  0.3692 -0.0926
  544THF     C210061   0.945   5.527   3.384  0.6231 -0.0552  0.3746
  544THF     C310062   0.820   5.400   3.226  0.6231  0.7353  0.4104
  544THF     H410063   0.979   5.499   3.484 -1.8284  1.5446  1.7554
  544THF     H510064   0.939   5.635   3.391  1.0179 -0.0685  1.0329
  544THF     H610065   0.847   5.297   3.250 -1.6578  0.4592  2.1886
  544THF     H710066   0.728   5.398   3.168  2.7416  0.5584 -3.2293
  544THF     C810067   0.937   5.450   3.152 -0.6441 -0.5986 -0.2170
  544THF     C910068   1.034   5.484   3.269  0.7872 -0.3860  0.3450
  544THF    H1010069   0.905   5.539   3.098  1.5753 -1.5888 -3.4765
  544THF    H1110070   0.978   5.375   3.084  1.5236  0.3313 -0.0069
  544THF    H1210071   1.093   5.399   3.303  3.2811  1.0668 -0.1442
  544THF    H1310072   1.106   5.555   3.228  0.8787 -0.3264  0.6060
  545THF     O110073   2.126   2.250   3.331 -0.4813 -0.0469  0.3545
  545THF     C210074   2.184   2.351   3.251 -0.0824  0.3547  0.2596
  545THF     C310075   2.219   2.225   3.436 -0.0320  0.1343 -0.2111
  545THF     H410076   2.196   2.448   3.299  0.1502  0.3214  0.2685
  545THF     H510077   2.131   2.368   3.157 -0.2442  2.8967  0.7591
  545THF     H610078   2.207   2.310   3.503 -1.3671  1.6220 -2.2277
  545THF     H710079   2.197   2.137   3.496  2.4648 -0.5019 -0.1195
  545THF     C810080   2.364   2.230   3.367  0.1050  0.8968 -0.2531
  545THF     C910081   2.326   2.307   3.240 -0.7810  1.0689 -0.4759
  545THF    H1010082   2.406   2.131   3.344  0.9743  0.5424  2.4789
  545THF    H1110083   2.436   2.272   3.437  0.2276 -1.0732  0.9076
  545THF    H1210084   2.393   2.393   3.238 -1.9455  2.0224  0.1692
  545THF    H1310085   2.341   2.254   3.145 -0.7716 -0.1063  0.1625
  546THF     O110086   2.130   2.219   1.784  0.4115 -0.3329  0.5712
  546THF     C210087   2.185   2.277   1.903  0.0180  0.7953  0.1193
  546THF     C310088   2.181   2.092   1.759  0.3199 -0.7196  0.2502
  546THF     H410089   2.093   2.263   1.961  0.4798  0.6895  0.8334
  546THF     H510090   2.200   2.378   1.863 -0.8776  0.7076 -0.4640
  546THF     H610091   2.128   2.014   1.814  1.2704  0.0303  2.3065
  546THF     H710092   2.162   2.073   1.653 -3.9261 -0.9186  0.8636
  546THF     C810093   2.323   2.104   1.804  0.4534  0.3084 -0.4045
  546THF     C910094   2.307   2.182   1.929  0.4519 -0.9306 -0.0853
  546THF    H1010095   2.372   2.159   1.723 -1.2754  3.4807  0.5306
  546THF    H1110096   2.367   2.005   1.810  0.8676  0.4081 -1.5418
  546THF    H1210097   2.302   2.114   2.014  0.0284  1.1757  1.6750
  546THF    H1310098   2.397   2.240   1.952 -1.0097  1.8645 -0.9359
  547THF     O110099   4.915   4.806   1.714 -0.0717 -0.6198  0.2543
  547THF     C210100   4.987   4.914   1.652  0.0275 -0.0582 -0.2618
  547THF     C310101   4.794   4.860   1.760  0.8074  0.4285  0.0616
  547THF     H410102   4.954   4.931   1.550 -1.7523 -1.5836  0.0015
  547THF     H510103   5.095   4.903   1.651 -0.0956 -1.4385 -0.6008
  547THF     H610104   4.722   4.849   1.679 -0.9919  0.0459  1.6467
  547THF     H710105   4.751   4.793   1.834  0.7020  0.7421  0.2874
  547THF     C810106   4.819   5.003   1.796  0.1156  0.0778 -0.0036
  547THF     C910107   4.951   5.031   1.730  0.3385 -0.7745  0.0764
  547THF    H1010108   4.830   5.013   1.904 -1.5186  1.7865  0.0639
  547THF    H1110109   4.747   5.073   1.755 -1.4495 -0.4164  1.7236
  547THF    H1210110   4.958   5.127   1.680 -0.8185 -1.5783 -1.7361
  547THF    H1310111   5.026   5.029   1.809  0.3294 -1.3655  0.0744
  548THF     O110112   0.805   1.874   5.297  0.6197 -0.0973 -0.1603
  548THF     C210113   0.697   1.954   5.350 -0.3587 -0.2835  0.4949
  548THF     C310114   0.802   1.764   5.389  0.5575  0.5610  0.5802
  548THF     H410115   0.657   2.028   5.280 -1.5051 -0.2253  1.1808
  548THF     H510116   0.745   2.005   5.433 -0.9096 -1.9928  1.9236
  548THF     H610117   0.864   1.687   5.343 -0.9112 -0.3967  0.1558
  548THF     H710118   0.851   1.785   5.485 -0.6770 -0.3300  1.4322
  548THF     C810119   0.648   1.736   5.416 -1.0050 -0.5341  0.7124
  548THF     C910120   0.587   1.872   5.413  0.0415  0.6819  0.6002
  548THF    H1010121   0.636   1.682   5.509 -1.1534 -0.6702  0.6136
  548THF    H1110122   0.614   1.683   5.327 -1.6816  1.2694 -0.1455
  548THF    H1210123   0.495   1.884   5.356  0.3099  0.7829  0.1838
  548THF    H1310124   0.570   1.909   5.515 -3.3287  3.2371 -0.6785
  549THF     O110125   4.355   4.313   2.683 -0.0592  0.0917 -0.0154
  549THF     C210126   4.295   4.204   2.616  0.3205  0.3015 -0.1282
  549THF     C310127   4.403   4.399   2.581  0.1242  0.1010  0.1817
  549THF     H410128   4.216   4.242   2.551 -0.7705 -2.1862 -0.3768
  549THF     H510129   4.248   4.139   2.689 -1.7448  3.5501  1.6896
  549THF     H610130   4.321   4.453   2.533  0.3963 -1.0395 -1.6795
  549THF     H710131   4.476   4.467   2.624  2.4545 -2.0748 -0.1116
  549THF     C810132   4.469   4.298   2.483  0.1989  0.5986  0.3796
  549THF     C910133   4.395   4.166   2.513  0.1112  0.1073  0.8485
  549THF    H1010134   4.577   4.293   2.492  0.4781  4.4168  0.4406
  549THF    H1110135   4.442   4.340   2.387  1.5966  0.4146 -0.1142
  549THF    H1210136   4.338   4.132   2.427  0.3041  3.0373 -0.5773
  549THF    H1310137   4.453   4.082   2.551  2.0078  1.3144  0.7936
  550THF     O110138   0.596   0.815   0.370  0.6692 -0.0367 -0.4517
  550THF     C210139   0.539   0.900   0.465  0.5280 -0.3668  0.0280
  550THF     C310140   0.699   0.889   0.308  0.6081 -0.6067  0.4638
  550THF     H410141   0.594   0.890   0.559 -0.0487  0.2022  0.4325
  550THF     H510142   0.433   0.878   0.476  0.3065  0.8048  0.4272
  550THF     H610143   0.784   0.884   0.376 -1.0668  2.5158  3.0927
  550THF     H710144   0.717   0.840   0.213 -1.0303 -0.3870  0.0088
  550THF     C810145   0.632   1.023   0.289 -0.1403  0.8036 -0.3720
  550THF     C910146   0.553   1.045   0.412  0.1479 -0.0703 -0.3619
  550THF    H1010147   0.569   1.033   0.201 -1.1517  1.1759  0.3770
  550THF    H1110148   0.700   1.107   0.275 -0.2821  1.9413  4.1756
  550THF    H1210149   0.612   1.099   0.486 -0.3677 -2.4104  1.8980
  550THF    H1310150   0.452   1.083   0.402 -0.3797 -0.2415  3.0427
  551THF     O110151   4.082   3.982   3.717  0.0067 -0.3116  0.1156
  551THF     C210152   4.214   3.973   3.693  0.8318  0.1100  0.3082
  551THF     C310153   4.035   3.864   3.759 -0.2807  0.1276 -0.1638
  551THF     H410154   4.276   4.033   3.760  2.7404 -0.7007 -0.6554
  551THF     H510155   4.239   4.015   3.596  0.8132 -0.1501  0.1910
  551THF     H610156   4.060   3.873   3.865  1.1957 -1.5999 -0.3068
  551THF     H710157   3.927   3.856   3.752 -0.6164  1.4504  2.2991
  551THF     C810158   4.118   3.755   3.700  0.0545 -0.0422 -0.1894
  551THF     C910159   4.248   3.822   3.684 -0.8381  0.3285 -0.5331
  551THF    H1010160   4.079   3.724   3.603 -2.5727  0.2542  0.7023
  551THF    H1110161   4.115   3.679   3.778 -1.5368  1.4075  1.2448
  551THF    H1210162   4.313   3.798   3.769 -0.0024  0.2609 -1.1738
  551THF    H1310163   4.284   3.795   3.585 -0.4914  3.3216 -1.3193
  552THF     O110164   2.394   0.453   3.293  0.2339 -0.2138 -0.1655
  552THF     C210165   2.311   0.520   3.190  0.2988  0.5629 -0.0350
  552THF     C310166   2.513   0.528   3.305  0.0924  0.1416  0.2270
  552THF     H410167   2.267   0.612   3.227  0.9807  0.5454  0.8498
  552THF     H510168   2.230   0.453   3.163  1.0459 -0.1883 -0.4849
  552THF     H610169   2.512   0.605   3.382  1.0637  0.1348  0.2595
  552THF     H710170   2.591   0.459   3.337 -0.6091 -0.6870  0.1696
  552THF     C810171   2.546   0.582   3.160  0.3999  0.3426  0.2432
  552THF     C910172   2.417   0.549   3.089  0.3636  0.1697  0.0482
  552THF    H1010173   2.623   0.519   3.117 -0.4961 -0.1151 -0.7438
  552THF    H1110174   2.569   0.688   3.159 -0.5801  0.5846  0.9233
  552THF    H1210175   2.385   0.630   3.025  0.5268  0.2633  0.0846
  552THF    H1310176   2.443   0.460   3.031 -1.4208 -0.2193 -0.1963
  553THF     O110177   1.902   2.626   0.132  0.2178  0.2844  0.1572
  553THF     C210178   1.879   2.672  -0.001  0.1074  0.0792 -0.2612
  553THF     C310179   1.986   2.720   0.201  0.1852  0.0617  0.0190
  553THF     H410180   1.801   2.748  -0.005  0.4750  0.4083 -1.4816
  553THF     H510181   1.873   2.601  -0.083  1.9347  0.0933 -0.4484
  553THF     H610182   1.926   2.771   0.276 -1.2657 -1.8981  0.2795
  553THF     H710183   2.073   2.677   0.250  1.9459  2.6052 -0.6469
  553THF     C810184   2.037   2.818   0.092  0.4926  0.6045  0.2594
  553THF     C910185   2.008   2.748  -0.038  0.2763  0.4489  0.0565
  553THF    H1010186   2.144   2.837   0.102  0.4235  0.9724  0.2990
  553THF    H1110187   1.977   2.908   0.079  0.0310  0.1269 -1.0603
  553THF    H1210188   2.000   2.812  -0.126  1.3421  0.5266  0.0089
  553THF    H1310189   2.095   2.685  -0.052 -1.3481 -2.2749  1.3494
  554THF     O110190   5.415   5.195   5.344  0.2435 -1.1895  0.5548
  554THF     C210191   5.375   5.149   5.477 -0.3605 -0.1015  1.0812
  554THF     C310192   5.322   5.306   5.310 -0.4748  0.9254 -0.3804
  554THF     H410193   5.465   5.169   5.534 -0.0004  1.1590  0.1298
  554THF     H510194   5.352   5.043   5.489  2.2786 -0.7329  1.1238
  554THF     H610195   5.377   5.400   5.313 -0.2832  0.8457 -1.1073
  554THF     H710196   5.289   5.301   5.206 -1.6833  0.9928 -0.0230
  554THF     C810197   5.204   5.298   5.410 -0.8182  0.2923 -0.3680
  554THF     C910198   5.266   5.242   5.531 -0.2460 -0.8488  0.3064
  554THF    H1010199   5.131   5.221   5.383  0.4170 -0.9775 -0.2258
  554THF    H1110200   5.157   5.393   5.432  1.7621  1.1172  2.3355
  554THF    H1210201   5.300   5.333   5.581 -0.1271 -0.7488  0.0449
  554THF    H1310202   5.198   5.201   5.606 -0.0727 -1.0513  0.3538
  555THF     O110203   5.402   1.143   1.271 -0.3382 -0.0606 -0.1277
  555THF     C210204   5.388   1.212   1.151  0.1052  0.0220  0.3723
  555THF     C310205   5.269   1.116   1.314  0.3627 -0.0055 -0.3497
  555THF     H410206   5.482   1.204   1.097  0.9276  0.3772  1.6959
  555THF     H510207   5.381   1.309   1.200 -0.5940 -1.3358  3.1610
  555THF     H610208   5.262   1.035   1.388  0.0864  0.7824  0.5040
  555THF     H710209   5.242   1.208   1.365 -1.4491  0.0866 -1.3907
  555THF     C810210   5.183   1.095   1.192 -0.4476  0.1087  0.3647
  555THF     C910211   5.263   1.159   1.078 -0.1383 -0.1220 -0.4647
  555THF    H1010212   5.084   1.140   1.203 -0.6702 -0.5323  1.1449
  555THF    H1110213   5.181   0.988   1.171  4.9566 -0.0326 -0.8389
  555THF    H1210214   5.294   1.084   1.005  1.2644  2.3713 -2.6100
  555THF    H1310215   5.213   1.236   1.020 -0.8966 -0.0711  0.2451
  556THF     O110216   1.158   5.398   0.972  0.4055  0.3989 -0.2419
  556THF     C210217   1.166   5.447   1.105  0.3414 -0.6169 -0.5430
  556THF     C310218   1.081   5.277   0.987 -0.0939  0.0891 -0.1557
  556THF     H410219   1.211   5.546   1.102 -1.3919  0.1666 -1.4970
  556THF     H510220   1.234   5.391   1.171  1.5054 -1.2100 -2.1738
  556THF     H610221   1.051   5.233   0.892  1.7643 -1.5321 -0.0565
  556THF     H710222   1.132   5.197   1.041 -0.3555 -0.0040 -0.0474
  556THF     C810223   0.963   5.323   1.074 -0.1315  0.3970  0.3187
  556THF     C910224   1.019   5.435   1.153 -0.1726 -0.0301  0.4367
  556THF    H1010225   0.910   5.241   1.123  0.4211 -1.3186 -1.7529
  556THF    H1110226   0.893   5.352   0.995  0.8513 -1.8110 -1.4912
  556THF    H1210227   0.961   5.522   1.123 -1.3423 -1.4852 -1.8197
  556THF    H1310228   1.020   5.416   1.260 -1.1857  0.5835  0.5711
  557THF     O110229   0.279   1.634   4.402 -0.0550 -0.0436  0.5869
  557THF     C210230   0.154   1.624   4.347  0.0086 -0.5470 -0.2735
  557THF     C310231   0.364   1.625   4.285 -0.3528 -0.6493  0.1558
  557THF     H410232   0.084   1.653   4.426  0.2127 -1.1208  0.1312
  557THF     H510233   0.136   1.522   4.312  3.4403 -1.5284  0.4136
  557THF     H610234   0.469   1.653   4.290 -0.2112 -1.3960  2.5103
  557THF     H710235   0.369   1.525   4.242  1.3364 -0.2755 -0.5815
  557THF     C810236   0.301   1.720   4.183  0.1294 -0.0206 -0.3454
  557THF     C910237   0.158   1.722   4.229 -0.0472 -0.7526 -0.2274
  557THF    H1010238   0.316   1.677   4.084  0.0586  1.5174 -1.0531
  557THF    H1110239   0.354   1.815   4.193 -0.0702  0.0301  0.2933
  557THF    H1210240   0.132   1.822   4.266  1.3954 -1.0762  1.8484
  557THF    H1310241   0.102   1.683   4.144  0.7064  0.8825 -1.5309
  558THF     O110242   1.953   5.364   2.923  0.3354 -0.2539 -0.5497
  558THF     C210243   1.840   5.442   2.858 -0.9734 -0.0413 -0.5804
  558THF     C310244   1.988   5.250   2.845  0.0477 -0.6053 -0.0318
  558THF     H410245   1.871   5.526   2.795  1.5258  1.4641  2.3965
  558THF     H510246   1.779   5.490   2.934 -0.1312  1.8407 -1.0364
  558THF     H610247   2.093   5.245   2.817  0.6891  0.4570  1.9379
  558THF     H710248   1.976   5.164   2.912 -0.2896 -0.1562  0.4940
  558THF     C810249   1.877   5.241   2.739 -0.1988  0.7493  0.1483
  558THF     C910250   1.764   5.332   2.796 -0.5644 -0.0684 -0.2469
  558THF    H1010251   1.830   5.144   2.723  1.5169 -0.0793 -0.0632
  558THF    H1110252   1.922   5.275   2.646  2.2121 -0.3890  0.8278
  558THF    H1210253   1.703   5.354   2.708  0.3400  0.0244 -0.8620
  558THF    H1310254   1.703   5.287   2.874  0.9341  1.2552  1.7821
  559THF     O110255   5.085   1.721   1.364 -0.3395  0.1517 -0.5266
  559THF     C210256   5.143   1.752   1.242  0.6381 -0.1467  0.9215
  559THF     C310257   5.014   1.603   1.345 -0.2122  0.2520 -0.0285
  559THF     H410258   5.236   1.802   1.269  0.7159 -0.5929  1.5043
  559THF     H510259   5.083   1.810   1.171 -0.0106 -0.3797  1.2728
  559THF     H610260   5.023   1.543   1.436  0.3769  1.1125  0.4979
  559THF     H710261   4.910   1.612   1.317 -0.5268 -1.8249  0.2787
  559THF     C810262   5.074   1.515   1.230 -0.8780 -0.3501  0.1188
  559THF     C910263   5.174   1.612   1.169 -0.0313 -0.0373 -0.2669
  559THF    H1010264   5.005   1.474   1.156  0.1166 -0.1468 -0.9545
  559THF    H1110265   5.144   1.439   1.267  0.3754  0.8116  0.1921
  559THF    H1210266   5.273   1.572   1.191 -1.8125 -3.1785  3.1497
  559THF    H1310267   5.158   1.610   1.061  1.1387  2.0069 -0.5334
  560THF     O110268   2.222   5.397   3.591  0.2271 -1.1212 -0.1089
  560THF     C210269   2.321   5.325   3.654 -0.1009 -0.5308 -0.0278
  560THF     C310270   2.241   5.541   3.608  0.4188  0.1608  0.3738
  560THF     H410271   2.384   5.285   3.574  0.5389 -2.8129  1.5127
  560THF     H510272   2.269   5.255   3.719 -0.8377  0.4518  0.4741
  560THF     H610273   2.212   5.595   3.518 -1.8772 -0.3942  0.7218
  560THF     H710274   2.174   5.572   3.689  1.1905  0.7380  0.8060
  560THF     C810275   2.390   5.552   3.658  0.1215  0.5165  0.0921
  560THF     C910276   2.405   5.424   3.738 -0.6605 -0.0203 -0.2483
  560THF    H1010277   2.406   5.638   3.723  0.7326 -1.7553  3.1578
  560THF    H1110278   2.457   5.548   3.572  1.3934 -0.8585  1.1053
  560THF    H1210279   2.512   5.404   3.738 -0.2157  2.1927  0.6248
  560THF    H1310280   2.363   5.430   3.838  0.8634  3.0161  0.3098
  561THF     O110281   5.060   3.256   2.865 -0.1445  0.1592 -0.3012
  561THF     C210282   4.979   3.287   2.753 -0.1466  0.3943 -0.1341
  561THF     C310283   5.171   3.345   2.868  0.6598 -0.1288  0.6921
  561THF     H410284   4.873   3.263   2.762  0.4105 -1.5847  2.6769
  561THF     H510285   5.009   3.220   2.673  2.0133 -2.1533  2.5757
  561THF     H610286   5.205   3.346   2.971 -0.7620  0.5897  1.1865
  561THF     H710287   5.250   3.302   2.807 -0.3121  0.2238 -0.8854
  561THF     C810288   5.120   3.476   2.804  0.1711  0.1223 -0.2670
  561THF     C910289   5.015   3.423   2.699  0.1877  0.2793  0.4237
  561THF    H1010290   5.193   3.549   2.770  1.2780 -0.0656  1.5848
  561THF    H1110291   5.082   3.534   2.888  0.5247 -0.5306  0.3429
  561THF    H1210292   4.922   3.479   2.693 -1.7185 -2.6804 -0.0981
  561THF    H1310293   5.063   3.420   2.601 -0.2819 -2.3219  0.1981
  562THF     O110294   0.715   5.256   0.780  0.3484  0.4547 -0.3088
  562THF     C210295   0.814   5.290   0.685 -0.3901 -0.0126 -0.2545
  562THF     C310296   0.594   5.236   0.708 -0.0345 -0.6024 -0.2428
  562THF     H410297   0.835   5.196   0.634 -0.0996 -0.5253  0.7987
  562THF     H510298   0.902   5.332   0.733 -0.1682  1.5288 -1.9182
  562THF     H610299   0.593   5.135   0.667 -4.0611 -0.4523 -0.8771
  562THF     H710300   0.505   5.244   0.770 -0.2791  0.6870 -0.7204
  562THF     C810301   0.598   5.345   0.597 -0.7028  0.3121 -0.1112
  562THF     C910302   0.745   5.383   0.584 -0.1379  1.0066 -0.0162
  562THF    H1010303   0.543   5.432   0.632  0.1117  0.6868  0.2644
  562THF    H1110304   0.556   5.321   0.499  1.6816 -1.3485 -0.8235
  562THF    H1210305   0.776   5.356   0.483 -0.4033 -1.7346  0.5463
  562THF    H1310306   0.762   5.486   0.614  3.7671  0.9576 -1.5434
  563THF     O110307   2.956   2.424   3.610 -0.0728 -0.1419  0.5161
  563THF     C210308   2.813   2.408   3.570  0.1881 -0.0382  0.2685
  563THF     C310309   2.999   2.555   3.581  0.5608 -0.4727 -0.2275
  563THF     H410310   2.764   2.345   3.643 -0.5083  1.3242  1.0155
  563THF     H510311   2.806   2.365   3.470  1.1068  0.8372 -0.1883
  563THF     H610312   3.090   2.578   3.635 -0.1341  2.2346 -0.0972
  563THF     H710313   3.032   2.545   3.478 -0.1782 -0.7667 -0.4465
  563THF     C810314   2.883   2.654   3.589  0.4183  0.6031  0.0270
  563THF     C910315   2.766   2.557   3.565  0.4727  0.6868  0.4258
  563THF    H1010316   2.887   2.732   3.513  2.5762  1.9342  1.4214
  563THF    H1110317   2.880   2.701   3.687 -0.4501  0.4583  0.0772
  563THF    H1210318   2.702   2.578   3.651  0.5798  3.3689 -0.0410
  563THF    H1310319   2.723   2.584   3.468 -0.1440 -1.7881 -0.0519
  564THF     O110320   4.127   3.976   0.824  0.0711 -0.4021 -0.1893
  564THF     C210321   4.191   3.856   0.805  1.3652  0.1794 -0.3065
  564THF     C310322   3.985   3.956   0.810  0.3951  0.2744 -0.1287
  564THF     H410323   4.296   3.851   0.835  0.9774 -0.3832  1.0347
  564THF     H510324   4.189   3.819   0.702  0.7447 -1.0331  0.1185
  564THF     H610325   3.925   4.038   0.851  1.3851  0.0729  1.8812
  564THF     H710326   3.960   3.936   0.706  1.8114 -4.0309  0.1659
  564THF     C810327   3.967   3.829   0.889  0.4465  0.1206 -0.0286
  564THF     C910328   4.104   3.759   0.880  0.2558  0.3365  0.1580
  564THF    H1010329   3.878   3.774   0.856  0.4996  0.9145 -1.6021
  564THF    H1110330   3.959   3.854   0.995 -1.9098 -1.7822  0.3453
  564THF    H1210331   4.152   3.746   0.977  0.4161  0.7654  0.1374
  564THF    H1310332   4.102   3.658   0.840  0.4046 -0.2957  1.6854
  565THF     O110333   4.474   5.052   3.821 -0.0837 -0.2135 -0.4741
  565THF     C210334   4.335   5.028   3.855 -1.0757 -0.0808  0.3505
  565THF     C310335   4.482   5.141   3.717 -0.1128 -0.1185  0.0344
  565THF     H410336   4.329   5.001   3.960 -0.1477  0.2128  0.4877
  565THF     H510337   4.284   4.944   3.808 -4.0964 -0.5295  3.8849
  565THF     H610338   4.582   5.182   3.729  0.2363 -0.7378 -0.6994
  565THF     H710339   4.466   5.100   3.618 -0.7247 -1.3431  0.6227
  565THF     C810340   4.375   5.245   3.747 -0.2310 -0.7298  0.0369
  565THF     C910341   4.275   5.169   3.826  0.4281 -0.3619 -0.1006
  565THF    H1010342   4.326   5.293   3.662  1.6947  0.0112 -0.7088
  565THF    H1110343   4.404   5.329   3.809 -2.0743 -0.3421  0.4379
  565THF    H1210344   4.256   5.222   3.920 -1.2422  1.3147 -1.2995
  565THF    H1310345   4.178   5.161   3.776  1.1605 -1.9479 -1.3065
  566THF     O110346   4.959   0.997   4.175  0.5184  0.1072 -0.3894
  566THF     C210347   4.991   1.118   4.238 -0.3287  0.0671 -0.1613
  566THF     C310348   4.854   1.020   4.086 -0.0587  0.0267 -0.0567
  566THF     H410349   5.085   1.120   4.294 -1.7001 -1.0504  2.3820
  566THF     H510350   4.901   1.140   4.297 -2.1114 -1.3746 -2.1761
  566THF     H610351   4.842   0.926   4.032 -0.5661 -1.7871  2.9950
  566THF     H710352   4.757   1.047   4.128  0.5052  1.0204  0.6417
  566THF     C810353   4.911   1.146   4.014  0.1568 -0.4286 -0.4923
  566THF     C910354   4.992   1.211   4.123 -0.4889 -0.8376 -0.3748
  566THF    H1010355   4.828   1.202   3.971  1.4553  2.1316  0.1293
  566THF    H1110356   4.971   1.118   3.927  0.6742  1.2953 -0.7155
  566THF    H1210357   5.095   1.214   4.089 -0.0151  3.5292  0.8198
  566THF    H1310358   4.954   1.310   4.148 -1.3645 -0.7007 -2.1038
  567THF     O110359   0.943   4.776   1.317 -0.0123  0.2968 -0.0287
  567THF     C210360   1.070   4.837   1.280  0.5972 -0.3687 -0.3013
  567THF     C310361   0.836   4.870   1.303  0.0470  0.5157 -0.0360
  567THF     H410362   1.141   4.768   1.234 -0.3470 -0.9813 -0.8799
  567THF     H510363   1.120   4.874   1.369  1.0528 -0.0449 -0.6872
  567THF     H610364   0.774   4.841   1.218 -0.5803 -0.1960  0.6469
  567THF     H710365   0.773   4.866   1.391  0.0493 -1.2416 -0.0808
  567THF     C810366   0.907   5.003   1.284 -1.2562  0.3956 -0.2145
  567THF     C910367   1.030   4.962   1.199  0.1492 -0.1143 -0.1719
  567THF    H1010368   0.927   5.053   1.379  1.2215 -0.1159 -0.4134
  567THF    H1110369   0.836   5.075   1.242 -0.3809  1.5232  0.1721
  567THF    H1210370   1.012   4.928   1.097 -1.0074  2.5732 -0.9599
  567THF    H1310371   1.104   5.041   1.189 -1.0498  1.1183  0.4402
  568THF     O110372   5.122   5.100   4.147 -0.1624  0.5005  0.3363
  568THF     C210373   5.162   5.218   4.074 -0.6571  0.2833 -0.2308
  568THF     C310374   5.054   5.151   4.263  0.1920  0.8816 -0.0049
  568THF     H410375   5.079   5.231   4.004 -1.4360  2.2639  0.9709
  568THF     H510376   5.249   5.196   4.012  0.5728  0.6299  1.3353
  568THF     H610377   4.952   5.176   4.235  0.2146  1.0213  0.0351
  568THF     H710378   5.055   5.073   4.338 -0.8300 -0.9881 -1.8381
  568THF     C810379   5.123   5.283   4.299  0.0345  0.3722 -0.3959
  568THF     C910380   5.160   5.338   4.168  0.5726  0.2971  0.2584
  568THF    H1010381   5.215   5.269   4.357 -0.0639  1.5309  0.0767
  568THF    H1110382   5.064   5.351   4.360  2.3513  1.0100  1.2868
  568THF    H1210383   5.074   5.398   4.139 -0.6245 -1.9532 -1.0857
  568THF    H1310384   5.247   5.404   4.172  1.3755 -0.7414  0.3834
  569THF     O110385   0.439   0.651   3.332 -0.3269 -0.2773 -0.1242
  569THF     C210386   0.308   0.613   3.333  0.1656  0.4429 -0.0878
  569THF     C310387   0.519   0.537   3.369 -0.1908  0.5394 -0.2913
  569THF     H410388   0.255   0.688   3.275 -0.1955  0.4550  0.2544
  569THF     H510389   0.272   0.613   3.436  0.2005  3.7711  0.0371
  569THF     H610390   0.622   0.551   3.337  0.8170 -0.7129  2.2106
  569THF     H710391   0.516   0.548   3.477 -0.8771  0.6804 -0.3196
  569THF     C810392   0.433   0.416   3.316  0.1503 -0.2218 -0.4598
  569THF     C910393   0.306   0.476   3.261 -0.1064  0.1581  0.1710
  569THF    H1010394   0.406   0.366   3.409  0.6804  0.9990  0.3654
  569THF    H1110395   0.478   0.332   3.263 -2.7177 -0.9905 -1.9100
  569THF    H1210396   0.327   0.503   3.157  0.5517  1.2242  0.5686
  569THF    H1310397   0.210   0.427   3.277 -0.8225  1.5561  0.3118
  570THF     O110398   1.740   2.496   3.310  0.2180  0.2110 -0.8050
  570THF     C210399   1.827   2.406   3.378  0.1054  0.9024 -0.2956
  570THF     C310400   1.631   2.544   3.392 -0.2847 -0.3283  0.1080
  570THF     H410401   1.916   2.464   3.404 -0.2085  0.4166  2.1103
  570THF     H510402   1.849   2.317   3.320 -2.3378  0.5507 -0.7691
  570THF     H610403   1.678   2.631   3.439 -1.8392 -0.3592  1.8213
  570THF     H710404   1.547   2.583   3.333 -0.2340  0.6480  0.6518
  570THF     C810405   1.604   2.424   3.480 -0.0171 -0.0817 -0.2002
  570THF     C910406   1.747   2.363   3.498  0.4300 -0.3622  0.1561
  570THF    H1010407   1.542   2.354   3.423  1.2163 -0.8255 -0.6750
  570THF    H1110408   1.555   2.432   3.577 -0.5401 -1.6766 -0.2888
  570THF    H1210409   1.795   2.412   3.582 -0.2295  2.9331 -1.2248
  570THF    H1310410   1.740   2.254   3.499  0.5878 -0.4158  2.9377
  571THF     O110411   5.008   4.117   5.304 -0.2725  0.1832 -0.9462
  571THF     C210412   5.003   4.099   5.450  0.4668 -0.1161  0.3485
  571THF     C310413   5.049   4.249   5.283  0.1705  0.0943 -0.1724
  571THF     H410414   4.988   3.996   5.480 -2.2131 -0.5389 -1.9828
  571THF     H510415   4.921   4.162   5.484 -0.6653 -1.4814  0.2456
  571THF     H610416   5.113   4.243   5.195  0.0031 -1.9063 -0.2137
  571THF     H710417   4.954   4.294   5.256 -0.4948  0.3841  2.4175
  571THF     C810418   5.125   4.301   5.405  0.2431 -0.3778  0.2236
  571THF     C910419   5.122   4.182   5.504 -0.3467  0.7378  0.4929
  571THF    H1010420   5.079   4.391   5.446  0.9247  0.3009 -0.4515
  571THF    H1110421   5.228   4.333   5.383  0.0955 -0.3705 -0.4961
  571THF    H1210422   5.213   4.123   5.496 -0.6064  0.3800  0.1560
  571THF    H1310423   5.109   4.213   5.608 -1.5244 -0.1192  0.6240
  572THF     O110424   1.530   1.277   2.932  0.1607 -0.6525 -0.0402
  572THF     C210425   1.443   1.323   3.034 -0.3854  0.0417 -0.9173
  572THF     C310426   1.471   1.319   2.808 -1.0589 -0.0881 -0.3440
  572THF     H410427   1.492   1.401   3.093 -2.3638  0.1272  0.7522
  572THF     H510428   1.420   1.234   3.092  1.2580  0.2992  0.1738
  572THF     H610429   1.552   1.348   2.740 -1.1810 -2.8363 -1.8196
  572THF     H710430   1.425   1.226   2.772  0.0247 -0.2190 -1.4757
  572THF     C810431   1.366   1.420   2.835  0.0654  0.0987  0.2948
  572THF     C910432   1.321   1.381   2.973 -0.8558 -0.0534 -0.2531
  572THF    H1010433   1.283   1.413   2.764  1.7099 -2.2104 -1.5552
  572THF    H1110434   1.390   1.525   2.819 -3.0788  0.7088 -1.1468
  572THF    H1210435   1.288   1.470   3.026  3.0189  2.5815 -1.7912
  572THF    H1310436   1.250   1.300   2.958  0.1852 -0.9927 -0.2039
  573THF     O110437   4.985   2.391   0.998  0.6483 -0.0727 -0.2294
  573THF     C210438   4.951   2.482   1.099 -0.6850 -0.3287 -0.3136
  573THF     C310439   4.861   2.365   0.933 -0.5311  0.0881  0.2983
  573THF     H410440   5.033   2.537   1.144 -0.2436 -0.7874 -0.5385
  573THF     H510441   4.903   2.426   1.180 -0.2949  0.9975  0.8677
  573THF     H610442   4.875   2.310   0.840 -1.4332 -1.1804  0.8921
  573THF     H710443   4.805   2.307   1.006  2.7406 -0.5873  2.4740
  573THF     C810444   4.801   2.505   0.913 -0.1702 -0.4326 -0.4533
  573THF     C910445   4.857   2.584   1.029 -0.2280  1.0819 -1.1477
  573THF    H1010446   4.692   2.517   0.913 -0.0587  2.6130 -3.7007
  573THF    H1110447   4.839   2.542   0.817  0.1565  1.6083  0.4013
  573THF    H1210448   4.912   2.670   0.991  1.7488  2.5138  4.0507
  573THF    H1310449   4.778   2.621   1.095 -0.1679  0.8820 -0.9620
  574THF     O110450   2.469   1.309   2.566 -0.0364 -0.6668  0.0552
  574THF     C210451   2.363   1.288   2.656  0.3568 -0.1688 -0.0383
  574THF     C310452   2.462   1.442   2.504 -0.5285 -0.0744 -0.7000
  574THF     H410453   2.389   1.238   2.749 -1.0745 -0.4925  0.2160
  574THF     H510454   2.292   1.219   2.610 -0.1335 -1.1069  2.0132
  574THF     H610455   2.560   1.475   2.468 -1.3258  2.1008 -0.9637
  574THF     H710456   2.390   1.429   2.423 -0.8938  1.0366 -0.5595
  574THF     C810457   2.407   1.524   2.616 -0.1828  0.3249  0.2991
  574THF     C910458   2.316   1.428   2.683  0.0456  0.0703 -0.5249
  574THF    H1010459   2.348   1.600   2.565  0.7168 -0.5775 -2.2229
  574THF    H1110460   2.489   1.561   2.678  1.8331  2.0701 -3.0968
  574THF    H1210461   2.321   1.441   2.791 -0.8031 -2.4511 -0.1056
  574THF    H1310462   2.218   1.439   2.637 -0.7395  0.3777  1.1633
  575THF     O110463   3.219   4.128   3.099 -0.0026  0.3539  0.3562
  575THF     C210464   3.315   4.232   3.103  0.4341 -0.5159 -0.5090
  575THF     C310465   3.229   4.047   3.214  0.1362  0.8164 -0.2253
  575THF     H410466   3.268   4.312   3.045 -1.5372 -3.4546 -3.3321
  575THF     H510467   3.409   4.226   3.049  1.1130  1.6041  0.3532
  575THF     H610468   3.130   4.028   3.256  0.1464  1.5070  0.1119
  575THF     H710469   3.275   3.949   3.202  0.0834  0.5225  1.5801
  575THF     C810470   3.300   4.131   3.325  0.0076  0.5517  0.4582
  575THF     C910471   3.335   4.266   3.259 -0.0409 -0.3294  0.5332
  575THF    H1010472   3.384   4.076   3.367 -1.2743 -1.1270  0.9167
  575THF    H1110473   3.236   4.142   3.413 -0.8449 -1.4862  0.1391
  575THF    H1210474   3.263   4.342   3.288 -0.4091 -0.7091  0.6401
  575THF    H1310475   3.440   4.281   3.284  0.3937 -4.0714  1.5871
  576THF     O110476   1.730   4.906   4.368  0.2324  0.0290 -0.0734
  576THF     C210477   1.655   4.822   4.285 -0.6254 -0.0488 -0.0856
  576THF     C310478   1.696   4.876   4.502 -0.1713 -0.3992  0.0625
  576THF     H410479   1.697   4.721   4.283  0.8066  0.5310 -0.2589
  576THF     H510480   1.648   4.863   4.184  1.8160  4.5986  1.3625
  576THF     H610481   1.763   4.800   4.542  1.5264  1.3080  0.5954
  576THF     H710482   1.702   4.966   4.564  3.3212 -0.6788  0.3461
  576THF     C810483   1.554   4.816   4.504 -0.2255  0.1885 -0.5577
  576THF     C910484   1.517   4.827   4.356  0.5474  0.3932  0.1820
  576THF    H1010485   1.491   4.868   4.577 -0.2545 -0.7063  0.0669
  576THF    H1110486   1.566   4.714   4.539 -0.8105  1.5160  4.2660
  576THF    H1210487   1.436   4.757   4.336  0.7033  0.0996  0.5649
  576THF    H1310488   1.469   4.923   4.340 -1.3728 -0.7995 -1.9333
  577THF     O110489   5.154   3.464   3.754  0.1282  0.5124 -0.6203
  577THF     C210490   5.015   3.454   3.777 -0.3287  0.0449  0.5832
  577THF     C310491   5.208   3.563   3.839 -0.0014  0.5499 -0.0238
  577THF     H410492   4.996   3.382   3.856 -1.1862 -0.0439  0.3064
  577THF     H510493   4.966   3.430   3.683 -3.0008  1.4508  1.5084
  577THF     H610494   5.211   3.511   3.935  2.2518 -0.2639 -0.4854
  577THF     H710495   5.303   3.602   3.804  0.4833  0.1333  0.8005
  577THF     C810496   5.097   3.664   3.835  0.0359  0.0694 -0.0052
  577THF     C910497   4.962   3.590   3.829 -0.0485  1.1687 -0.2260
  577THF    H1010498   5.109   3.734   3.752  0.5487 -1.8661 -1.6635
  577THF    H1110499   5.098   3.723   3.926 -0.4795 -0.0715  0.0939
  577THF    H1210500   4.930   3.574   3.932 -0.9682 -0.9294 -0.7764
  577THF    H1310501   4.885   3.648   3.778 -2.2980 -0.7366  0.8182
  578THF     O110502   2.278   5.151   2.629  0.2466  0.0746  0.0641
  578THF     C210503   2.278   5.046   2.530 -0.1331 -0.2775  0.3881
  578THF     C310504   2.367   5.133   2.732 -0.7709  0.3646  0.4539
  578THF     H410505   2.287   5.094   2.432 -2.2461 -0.7930 -0.1072
  578THF     H510506   2.180   5.000   2.529 -1.5047  2.3753  1.8232
  578THF     H610507   2.453   5.199   2.722 -1.8573  1.9623  1.1707
  578THF     H710508   2.327   5.169   2.826  1.0849  3.0615  0.3239
  578THF     C810509   2.389   4.981   2.723 -0.3411 -0.6221  0.2941
  578THF     C910510   2.384   4.954   2.576  0.0742  0.2150  0.3659
  578THF    H1010511   2.299   4.941   2.770  0.0746 -0.4082  1.3090
  578THF    H1110512   2.485   4.953   2.766  0.2184 -1.0887 -1.1936
  578THF    H1210513   2.480   4.986   2.534 -1.2082  3.1211 -0.5951
  578THF    H1310514   2.357   4.849   2.561  0.4214  0.0547  0.8343
  579THF     O110515   4.190   2.848   3.687  0.0197  0.1458 -0.2546
  579THF     C210516   4.305   2.907   3.619  0.7357  0.0454 -0.4721
  579THF     C310517   4.233   2.738   3.767  0.7484  0.4678  0.1479
  579THF     H410518   4.295   3.012   3.594  0.5971  0.4679  1.1869
  579THF     H510519   4.331   2.847   3.532  0.6579 -1.1586  0.3026
  579THF     H610520   4.190   2.743   3.866 -1.7387  2.8667 -0.9441
  579THF     H710521   4.207   2.640   3.725 -0.8493  0.5155  0.9660
  579THF     C810522   4.385   2.751   3.770  0.4975 -1.4201 -0.6402
  579THF     C910523   4.419   2.888   3.717 -0.6287  0.5722  0.1011
  579THF    H1010524   4.429   2.672   3.709  1.5017 -0.8116 -0.7405
  579THF    H1110525   4.436   2.758   3.866 -0.6001  0.8600 -0.1501
  579THF    H1210526   4.405   2.967   3.791  4.1504  1.0109  0.8311
  579THF    H1310527   4.518   2.886   3.672 -0.1893 -1.6007  1.0224
  580THF     O110528   0.675   4.195   2.281 -0.7636  0.1034  0.1221
  580THF     C210529   0.632   4.320   2.323  0.8623 -0.1891  0.6877
  580THF     C310530   0.578   4.122   2.211  0.2362 -0.2494 -0.2742
  580THF     H410531   0.654   4.400   2.252 -0.1412 -0.7014 -0.2240
  580THF     H510532   0.676   4.343   2.420  3.1035 -1.6721  0.1128
  580THF     H610533   0.561   4.163   2.111  1.5530  0.0738 -0.3775
  580THF     H710534   0.593   4.015   2.200 -0.3483 -0.2073 -1.7615
  580THF     C810535   0.455   4.172   2.289 -0.3986 -0.1416 -1.0032
  580THF     C910536   0.479   4.314   2.313  0.0225  0.4756  0.6014
  580THF    H1010537   0.440   4.110   2.378  1.0152 -0.7371 -1.1690
  580THF    H1110538   0.363   4.169   2.230 -0.0785 -1.2272 -1.4672
  580THF    H1210539   0.444   4.375   2.230 -1.0603 -1.2720 -0.2877
  580THF    H1310540   0.427   4.347   2.403  2.8127 -2.9118  3.8066
  581THF     O110541   0.024   2.310   3.189 -0.2397 -0.3563 -0.4306
  581THF     C210542  -0.001   2.172   3.189  0.6855 -0.0464 -0.3216
  581THF     C310543  -0.051   2.356   3.075 -0.4113  0.1526 -0.4089
  581THF     H410544   0.043   2.124   3.277  1.4300  1.4977  0.1956
  581THF     H510545   0.051   2.117   3.111  2.2451  0.6145  0.2044
  581THF     H610546  -0.065   2.464   3.080 -0.9654  0.0296  1.2916
  581THF     H710547  -0.013   2.339   2.974 -0.9397  1.8266 -0.9100
  581THF     C810548  -0.187   2.299   3.113  0.7018  0.2959  0.3779
  581THF     C910549  -0.149   2.163   3.188 -0.1029 -0.8694  0.2505
  581THF    H1010550  -0.251   2.287   3.026  0.4240  0.9415  0.4821
  581THF    H1110551  -0.244   2.369   3.175 -0.2549 -1.0438  1.0728
  581THF    H1210552  -0.204   2.178   3.281  0.7654 -0.5471  0.7265
  581THF    H1310553  -0.184   2.074   3.136 -2.2965 -0.0452  0.2186
  582THF     O110554   3.633   3.750   3.559  0.3451 -0.1057 -0.0123
  582THF     C210555   3.734   3.665   3.508  0.4176  0.7277 -0.6708
  582THF     C310556   3.647   3.771   3.702 -0.1395 -0.0533 -0.4555
  582THF     H410557   3.816   3.735   3.493  3.1104 -1.6096  1.8517
  582THF     H510558   3.718   3.613   3.414  1.1343  1.0674 -0.9934
  582THF     H610559   3.718   3.853   3.716  1.2723 -1.6435  2.6964
  582THF     H710560   3.552   3.801   3.747 -0.5995  1.0838 -2.0864
  582THF     C810561   3.686   3.626   3.748  0.4184 -0.4655  1.1868
  582THF     C910562   3.772   3.581   3.631  0.3299  1.3392 -0.8977
  582THF    H1010563   3.587   3.581   3.748 -0.2515  0.8996 -0.3880
  582THF    H1110564   3.734   3.610   3.845  1.5630 -1.7230  0.4630
  582THF    H1210565   3.879   3.586   3.650  0.1602 -0.7176  1.0934
  582THF    H1310566   3.752   3.476   3.609 -0.8653  1.3426  0.1098
  583THF     O110567   3.648   4.688   4.704  0.3795 -0.0962  0.5162
  583THF     C210568   3.562   4.610   4.624 -0.5506 -0.3235  0.5638
  583THF     C310569   3.714   4.596   4.793  0.1171  0.5452 -0.0637
  583THF     H410570   3.607   4.555   4.542 -1.7166  2.1610 -1.9014
  583THF     H510571   3.505   4.691   4.577 -1.2812  0.6962  2.9844
  583THF     H610572   3.788   4.532   4.745  0.2839  2.7336 -2.9512
  583THF     H710573   3.750   4.648   4.882 -4.0168  0.7034  1.7581
  583THF     C810574   3.604   4.498   4.834  0.1132  0.3647  0.2525
  583THF     C910575   3.495   4.514   4.727 -0.4633  0.1513 -0.0222
  583THF    H1010576   3.562   4.530   4.929 -3.0236  0.7553 -1.1396
  583THF    H1110577   3.632   4.393   4.841  0.3507  0.2010 -2.4086
  583THF    H1210578   3.465   4.424   4.673  0.0246 -0.0161 -0.0150
  583THF    H1310579   3.399   4.550   4.766 -0.7703 -0.5262 -0.1247
  584THF     O110580   4.903   1.422   1.706 -0.1718 -0.1429 -0.1121
  584THF     C210581   4.847   1.308   1.763  0.5711  0.4292 -0.5818
  584THF     C310582   4.804   1.464   1.612  0.6520  0.0784  0.2679
  584THF     H410583   4.768   1.329   1.835  1.9502  0.6187  0.9430
  584THF     H510584   4.927   1.243   1.799 -0.2484  0.1392  0.7991
  584THF     H610585   4.714   1.491   1.667  0.9390  0.3703  0.5942
  584THF     H710586   4.837   1.550   1.555  3.0748 -0.6714  0.4473
  584THF     C810587   4.770   1.331   1.540 -0.3557  0.3245  0.4696
  584THF     C910588   4.772   1.230   1.656  0.1023  0.6462  0.1595
  584THF    H1010589   4.855   1.300   1.480 -0.2532 -2.9515  2.0964
  584THF    H1110590   4.683   1.326   1.474 -0.6882 -1.0912  0.9915
  584THF    H1210591   4.673   1.197   1.687  0.0451  0.3244 -0.3700
  584THF    H1310592   4.830   1.140   1.636 -0.9901 -0.7650  2.7426
  585THF     O110593   5.325   2.893   2.287 -0.2250 -0.0473 -0.0922
  585THF     C210594   5.216   2.803   2.281  0.3114 -0.5414  0.8095
  585THF     C310595   5.443   2.827   2.317 -0.7714  0.4388  0.0432
  585THF     H410596   5.218   2.743   2.190  1.4951  1.6446 -0.7088
  585THF     H510597   5.120   2.849   2.303  0.6421  1.1203 -0.9889
  585THF     H610598   5.479   2.784   2.224 -3.1086 -0.1350 -0.6712
  585THF     H710599   5.522   2.886   2.363 -0.9649  0.2288  0.6598
  585THF     C810600   5.403   2.691   2.389  0.0563  0.8963  0.2841
  585THF     C910601   5.252   2.714   2.400  0.0171  0.5491  0.5970
  585THF    H1010602   5.462   2.685   2.480 -0.4806 -2.1143  0.5342
  585THF    H1110603   5.431   2.602   2.332  1.3836  0.8912  0.9032
  585THF    H1210604   5.186   2.629   2.385 -1.2553  1.6110 -0.1318
  585THF    H1310605   5.222   2.753   2.498 -0.9564 -0.2614  0.6415
  586THF     O110606   0.369   3.865   3.665  0.3696 -0.1107  0.1593
  586THF     C210607   0.303   3.919   3.781 -0.4067  0.1394  0.6048
  586THF     C310608   0.506   3.853   3.690 -0.1464  0.0993 -1.0981
  586THF     H410609   0.300   3.848   3.863  0.6765 -2.8178 -1.7055
  586THF     H510610   0.205   3.951   3.747 -0.4615  2.2487  2.5553
  586THF     H610611   0.525   3.761   3.745 -1.7960  0.9202  0.9716
  586THF     H710612   0.559   3.847   3.594 -1.2887 -1.3637 -1.6726
  586THF     C810613   0.526   3.975   3.782 -0.5775  0.5639  0.2999
  586THF     C910614   0.391   4.034   3.818 -0.5814 -0.2997  0.3049
  586THF    H1010615   0.608   4.038   3.749 -0.2392  0.4673  0.9364
  586THF    H1110616   0.551   3.932   3.879  0.0614 -1.0586 -0.5488
  586THF    H1210617   0.377   4.065   3.921  2.5958 -0.1254  0.7920
  586THF    H1310618   0.364   4.122   3.758 -0.1560  0.6809  1.4969
  587THF     O110619   4.064   2.328   4.346  0.2392 -0.3283  0.4568
  587THF     C210620   3.983   2.216   4.380 -0.5938 -0.0959 -0.3229
  587THF     C310621   4.039   2.420   4.454  0.2029 -0.4053  0.0818
  587THF     H410622   4.022   2.126   4.333  0.8582 -0.1795  0.9339
  587THF     H510623   3.882   2.246   4.353 -0.3058  0.7189 -0.5581
  587THF     H610624   4.127   2.483   4.468 -0.7945  1.7493 -2.5096
  587THF     H710625   3.953   2.486   4.439  0.2017 -0.8094 -1.9510
  587THF     C810626   4.020   2.341   4.585  0.4534  0.4441  0.2294
  587THF     C910627   4.013   2.201   4.531 -0.4017  0.0747  0.1480
  587THF    H1010628   3.924   2.372   4.629  0.0505  0.8259 -0.8839
  587THF    H1110629   4.101   2.364   4.653  0.8002  1.6192 -0.5576
  587THF    H1210630   4.109   2.150   4.541  1.2474  2.0531 -3.5233
  587THF    H1310631   3.940   2.148   4.593 -1.3053  1.8034  0.6223
  588THF     O110632   5.421   0.263   3.007  0.1211 -0.2984 -0.0444
  588THF     C210633   5.557   0.263   2.962 -0.2091 -0.2811 -0.2890
  588THF     C310634   5.375   0.130   3.028 -0.3931 -0.6234 -0.2067
  588THF     H410635   5.604   0.357   2.988  0.3997 -0.2980 -1.2724
  588THF     H510636   5.559   0.265   2.853  0.0793  1.2540 -0.2732
  588THF     H610637   5.290   0.137   3.095  0.7507  0.6109  1.1951
  588THF     H710638   5.329   0.100   2.934  0.8190  0.1908 -1.1020
  588THF     C810639   5.503   0.053   3.081 -0.2666 -0.2072 -0.7108
  588THF     C910640   5.618   0.135   3.027  0.2976  0.0795  0.1426
  588THF    H1010641   5.503  -0.046   3.034  2.3036 -0.4519 -0.2922
  588THF    H1110642   5.511   0.035   3.188 -0.4725  0.4047 -0.5893
  588THF    H1210643   5.678   0.163   3.114  0.8336  0.0673 -0.2252
  588THF    H1310644   5.686   0.091   2.955 -1.6229  0.6942 -2.1774
  589THF     O110645   2.841   2.471   3.044  0.2621 -0.1392 -0.2937
  589THF     C210646   2.810   2.440   3.177 -0.3282 -0.1856 -0.2806
  589THF     C310647   2.719   2.471   2.976 -0.6508  0.8841 -0.1455
  589THF     H410648   2.770   2.531   3.223  2.0707 -0.1750  2.0014
  589THF     H510649   2.901   2.408   3.227 -0.4396  0.4938  0.3770
  589THF     H610650   2.667   2.566   2.982 -0.0770  1.2201 -0.3748
  589THF     H710651   2.746   2.450   2.872  0.0656 -2.3536  0.5866
  589THF     C810652   2.649   2.339   3.027  0.0381 -0.0458 -0.1513
  589THF     C910653   2.711   2.327   3.162  0.1149  0.1919 -0.3494
  589THF    H1010654   2.668   2.248   2.971  1.2654 -0.6524  1.1814
  589THF    H1110655   2.540   2.350   3.027 -0.0820 -0.8836  1.2682
  589THF    H1210656   2.640   2.330   3.245  1.2742 -0.9546  0.7454
  589THF    H1310657   2.748   2.227   3.184 -0.9969  0.0700  1.1644
  590THF     O110658   4.159   2.234   2.815  0.3168  0.1775 -0.5030
  590THF     C210659   4.038   2.293   2.878 -0.5088  0.6812 -0.2478
  590THF     C310660   4.261   2.221   2.915 -0.7691 -0.6014  0.0127
  590THF     H410661   3.948   2.234   2.899 -1.1217  0.9427 -1.9788
  590THF     H510662   4.005   2.369   2.807 -2.9477 -0.3658 -0.3534
  590THF     H610663   4.316   2.128   2.906  0.4193  0.1208 -0.5423
  590THF     H710664   4.326   2.307   2.898 -0.7590 -0.9451 -2.0118
  590THF     C810665   4.180   2.247   3.043 -0.4488 -0.0508 -0.1183
  590THF     C910666   4.082   2.360   3.001  0.0611  0.4266 -0.1476
  590THF    H1010667   4.258   2.285   3.110  0.5359  0.6865 -1.6105
  590THF    H1110668   4.127   2.162   3.085 -1.0881  1.1845  1.7048
  590THF    H1210669   3.995   2.364   3.067  0.1391  1.4754 -0.1002
  590THF    H1310670   4.119   2.461   2.987 -0.0033  0.5381  0.4579
  591THF     O110671   4.341   1.400   4.568  0.1905  0.1958  0.0290
  591THF     C210672   4.195   1.387   4.576 -0.3749 -0.3664  0.4316
  591THF     C310673   4.360   1.385   4.434 -0.7506  0.2821  0.3673
  591THF     H410674   4.156   1.423   4.671  2.3328  3.6168  0.2797
  591THF     H510675   4.165   1.282   4.566 -1.9379  0.2363 -2.0973
  591THF     H610676   4.462   1.403   4.399 -1.0785  0.0489 -0.7399
  591THF     H710677   4.332   1.282   4.414  0.2986  0.2855 -1.3271
  591THF     C810678   4.264   1.484   4.377  0.0694  0.3235  1.1042
  591THF     C910679   4.141   1.458   4.457 -0.8417 -0.0875  0.6407
  591THF    H1010680   4.246   1.463   4.272  1.7597  1.3490  0.5738
  591THF    H1110681   4.294   1.585   4.407  0.7112 -0.1667  2.1795
  591THF    H1210682   4.098   1.554   4.483 -0.7707  0.4008 -0.9188
  591THF    H1310683   4.070   1.393   4.406 -0.2893 -1.1157  1.1553
  592THF     O110684   4.540   1.768   0.818  0.3195 -0.5073 -0.2282
  592THF     C210685   4.680   1.755   0.843  0.1329 -0.0355  0.1321
  592THF     C310686   4.462   1.711   0.921 -0.6814  0.2995 -0.7437
  592THF     H410687   4.737   1.846   0.861 -0.9564  0.5005  1.0384
  592THF     H510688   4.715   1.709   0.751  1.2041  1.8842 -0.4785
  592THF     H610689   4.450   1.780   1.004  2.2247 -1.7890  1.6415
  592THF     H710690   4.360   1.691   0.889 -0.6890 -0.5630 -0.2252
  592THF     C810691   4.547   1.591   0.965  0.1788 -0.9696  0.2887
  592THF     C910692   4.687   1.648   0.959 -0.7250 -0.4597  0.2620
  592THF    H1010693   4.538   1.512   0.891 -1.8937 -0.6517  0.1268
  592THF    H1110694   4.517   1.556   1.064  0.1080 -0.6869  0.3687
  592THF    H1210695   4.700   1.693   1.058 -0.1297 -0.5576  0.2356
  592THF    H1310696   4.757   1.566   0.947  0.2361 -0.0590  2.5074
  593THF     O110697   3.305   1.891   2.781  0.1346  0.2491 -1.1823
  593THF     C210698   3.442   1.849   2.770 -0.5197 -0.6845 -0.4425
  593THF     C310699   3.277   1.892   2.920 -0.0092 -0.0895 -0.6620
  593THF     H410700   3.470   1.867   2.666 -3.5885  0.3862 -1.1989
  593THF     H510701   3.466   1.749   2.807  1.2385 -0.3909 -0.6970
  593THF     H610702   3.194   1.957   2.949  0.4495  0.3983 -0.4395
  593THF     H710703   3.241   1.795   2.956 -0.1761  0.5038  0.7944
  593THF     C810704   3.405   1.937   2.988 -0.1024  0.2881  0.2974
  593THF     C910705   3.506   1.940   2.875  0.2615  0.0674  0.5414
  593THF    H1010706   3.419   1.871   3.074 -0.0759  0.7332  0.6399
  593THF    H1110707   3.390   2.039   3.024 -0.5675  0.5475 -0.6114
  593THF    H1210708   3.519   2.038   2.828  0.2078  0.8944  2.1853
  593THF    H1310709   3.601   1.903   2.912 -0.9012 -2.8324  0.8959
  594THF     O110710   0.060   3.933   3.948 -0.0847 -0.1810  0.0420
  594THF     C210711   0.070   3.998   4.071  0.5217 -0.3807  0.7196
  594THF     C310712  -0.011   3.816   3.966 -0.0899 -0.0941 -0.2154
  594THF     H410713  -0.026   4.038   4.104  0.3233  0.2588 -0.5738
  594THF     H510714   0.141   4.080   4.074  0.1504  0.0672 -1.3894
  594THF     H610715  -0.116   3.839   3.981  0.4279  1.5730  1.2245
  594THF     H710716   0.011   3.755   3.879  0.5110  0.7509 -0.6654
  594THF     C810717   0.059   3.762   4.092 -0.1158 -0.2135  0.9649
  594THF     C910718   0.119   3.881   4.160  0.5123  0.1035 -0.0044
  594THF    H1010719   0.141   3.704   4.051  0.9470  2.1253 -0.3931
  594THF    H1110720  -0.005   3.704   4.159  1.5179 -1.7100  1.3079
  594THF    H1210721   0.085   3.898   4.262 -0.7819  0.8902 -0.5470
  594THF    H1310722   0.227   3.871   4.165  0.5380  0.3249 -0.0851
  595THF     O110723   0.115   2.208   1.301  0.4944  0.3168 -0.2085
  595THF     C210724   0.224   2.189   1.398  0.4714 -1.1550  0.3162
  595THF     C310725   0.160   2.181   1.171 -0.1714  0.3052  0.3801
  595THF     H410726   0.182   2.108   1.457 -2.4613 -1.2767 -1.7096
  595THF     H510727   0.237   2.274   1.464  0.7848 -1.3501  0.5110
  595THF     H610728   0.087   2.131   1.108  0.5480 -0.4831  0.1601
  595THF     H710729   0.183   2.281   1.133  0.6255 -0.0882 -0.1949
  595THF     C810730   0.288   2.094   1.189 -0.1924 -0.0142 -0.2350
  595THF     C910731   0.350   2.152   1.316  1.1454 -0.2003  0.5063
  595THF    H1010732   0.344   2.099   1.096 -1.0456  1.5418 -0.7016
  595THF    H1110733   0.265   1.990   1.214  1.5070 -0.8306 -1.8333
  595THF    H1210734   0.424   2.089   1.365  2.7501  2.4264  1.7291
  595THF    H1310735   0.410   2.240   1.291  2.2352 -0.7147  1.2383
  596THF     O110736   1.773   4.872   2.714 -0.2289 -0.2048  0.3276
  596THF     C210737   1.661   4.805   2.759 -0.4281  1.1508  0.1803
  596THF     C310738   1.876   4.842   2.810  0.4125  0.2547 -0.3695
  596THF     H410739   1.678   4.699   2.742  0.0644  1.3662 -0.7069
  596THF     H510740   1.570   4.835   2.706 -0.9803 -0.5841  0.1097
  596THF     H610741   1.928   4.747   2.795 -1.2460 -0.7499  0.0050
  596THF     H710742   1.956   4.916   2.806 -0.7509  1.7850  2.3424
  596THF     C810743   1.811   4.835   2.946  0.1959  0.0317 -0.4279
  596THF     C910744   1.660   4.829   2.914  0.3014  0.0667 -0.4470
  596THF    H1010745   1.818   4.923   3.011  2.2842  1.0847 -1.9646
  596THF    H1110746   1.837   4.744   3.000  0.4373 -0.1752 -0.8920
  596THF    H1210747   1.595   4.764   2.973 -0.3842  1.6314  0.5861
  596THF    H1310748   1.621   4.929   2.933  0.2878  0.2820 -1.5719
  597THF     O110749   5.267   2.937   0.775 -0.3249  0.8950 -0.0310
  597THF     C210750   5.202   2.981   0.894  0.7898 -0.2023  0.3001
  597THF     C310751   5.242   2.793   0.772 -0.0990  0.3956  0.0397
  597THF     H410752   5.174   3.085   0.879 -3.5788 -1.0447  1.2281
  597THF     H510753   5.263   2.966   0.983  0.2338  2.1487  1.1565
  597THF     H610754   5.225   2.753   0.672 -0.7800 -1.1650  0.7343
  597THF     H710755   5.328   2.744   0.817 -0.7881  0.0339  1.0136
  597THF     C810756   5.119   2.770   0.863  1.0000  0.0028  0.1704
  597THF     C910757   5.069   2.907   0.901 -0.1770  0.3686 -0.2804
  597THF    H1010758   5.150   2.724   0.957 -1.1605 -0.5501  0.6802
  597THF    H1110759   5.039   2.714   0.815 -0.5806  1.9944  0.3340
  597THF    H1210760   5.006   2.948   0.822  0.6263 -2.0404 -2.3045
  597THF    H1310761   5.009   2.908   0.992 -1.0683 -3.2325 -0.6708
  598THF     O110762   3.389   4.722   0.142  0.1880  0.1922  0.4355
  598THF     C210763   3.454   4.829   0.219 -1.1753 -1.0893  0.5057
  598THF     C310764   3.490   4.678   0.054  0.5445 -0.4186  0.4353
  598THF     H410765   3.514   4.784   0.297 -0.4577 -0.5718  0.2603
  598THF     H510766   3.392   4.906   0.267  2.0780  1.6915  0.6284
  598THF     H610767   3.568   4.615   0.098  0.6168  0.1143  1.0782
  598THF     H710768   3.445   4.615  -0.024  1.1913  0.7159 -0.9015
  598THF     C810769   3.552   4.800  -0.001 -0.7225 -0.9382  0.2184
  598THF     C910770   3.554   4.898   0.119 -0.6117 -0.3627  0.0769
  598THF    H1010771   3.487   4.836  -0.080 -0.8741  0.7815  1.0765
  598THF    H1110772   3.654   4.798  -0.039 -0.6206 -2.4512  0.4842
  598THF    H1210773   3.655   4.901   0.160 -1.2636  2.3669  1.7907
  598THF    H1310774   3.524   5.001   0.100 -0.3717 -0.0610  1.2387
  599THF     O110775   4.472   2.097   4.889 -0.1532  0.2089 -0.5344
  599THF     C210776   4.474   2.107   5.034 -0.0534 -0.5258 -0.3670
  599THF     C310777   4.333   2.108   4.860 -0.2654  0.5663 -0.3110
  599THF     H410778   4.574   2.112   5.078 -0.0600 -1.7980 -0.1721
  599THF     H510779   4.434   2.019   5.083  1.9613 -0.4397  1.5941
  599THF     H610780   4.332   2.138   4.755  1.8125  2.4673  0.1436
  599THF     H710781   4.270   2.021   4.875 -1.4411  1.5103  0.3612
  599THF     C810782   4.293   2.225   4.949  0.4560 -0.0470 -0.3156
  599THF     C910783   4.393   2.232   5.063  0.5015 -0.4286 -0.4701
  599THF    H1010784   4.190   2.218   4.983  0.4372  0.4544 -0.2579
  599THF    H1110785   4.293   2.317   4.890 -0.5571 -0.5239 -1.0902
  599THF    H1210786   4.455   2.322   5.060 -1.6490  1.1023 -0.8780
  599THF    H1310787   4.352   2.229   5.164  0.8556  1.4152 -0.2279
  600THF     O110788   0.340   2.189   5.396 -0.2168 -0.5602 -0.4049
  600THF     C210789   0.457   2.264   5.408  0.0119 -0.7917  0.1678
  600THF     C310790   0.247   2.253   5.484 -0.2824  0.1168  0.6311
  600THF     H410791   0.445   2.369   5.384  1.4864 -0.8916 -1.1819
  600THF     H510792   0.539   2.210   5.361 -0.8870 -1.5450 -0.5777
  600THF     H610793   0.222   2.346   5.434 -2.5532 -0.4904  0.5333
  600THF     H710794   0.150   2.206   5.500  0.3356 -1.3443  0.2614
  600THF     C810795   0.330   2.267   5.613  0.5323 -0.5820  0.9707
  600THF     C910796   0.476   2.269   5.560  0.2062 -0.2022  0.0618
  600THF    H1010797   0.313   2.187   5.684 -1.6242  0.2556  1.4962
  600THF    H1110798   0.295   2.353   5.670 -0.2865  1.1135 -1.8429
  600THF    H1210799   0.538   2.354   5.590  1.2765 -1.2415  0.9204
  600THF    H1310800   0.546   2.192   5.593 -0.4353 -0.6264  0.4450
  601THF     O110801   0.702   2.225   4.220  0.2909  0.4689  0.0378
  601THF     C210802   0.812   2.155   4.165 -0.5753 -0.0962 -0.0525
  601THF     C310803   0.589   2.176   4.162  0.4383 -0.3157 -0.1452
  601THF     H410804   0.900   2.160   4.229  0.0150  1.0676 -0.9285
  601THF     H510805   0.830   2.200   4.068  0.1451 -0.8542 -0.2801
  601THF     H610806   0.506   2.201   4.227 -0.0759  0.7834 -1.1791
  601THF     H710807   0.571   2.219   4.063  0.8874  0.7998  0.2398
  601THF     C810808   0.622   2.024   4.149  0.1315 -0.2826  0.3231
  601THF     C910809   0.768   2.012   4.157 -0.2263 -0.1355  0.2065
  601THF    H1010810   0.579   1.964   4.069 -1.7087 -1.2800  1.9729
  601THF    H1110811   0.573   1.987   4.239  1.5240  0.1484  1.2853
  601THF    H1210812   0.789   1.953   4.246 -1.3548  0.1603  0.6879
  601THF    H1310813   0.799   1.963   4.064  0.5130  0.5400  0.0925
  602THF     O110814   1.180   1.174   4.132  0.1172  0.4864  0.4169
  602THF     C210815   1.135   1.109   4.252  0.3814  0.0701  0.1041
  602THF     C310816   1.081   1.156   4.028 -0.1784 -0.1145  0.3040
  602THF     H410817   1.082   1.185   4.308  1.3123  1.7431 -1.2138
  602THF     H510818   1.211   1.080   4.324  0.2034  1.9140  1.0843
  602THF     H610819   1.021   1.247   4.031 -0.1868 -0.1255  0.4860
  602THF     H710820   1.134   1.142   3.934 -1.4899  1.6441 -0.7610
  602THF     C810821   0.997   1.035   4.069  0.4170  0.0564  0.1284
  602THF     C910822   1.056   0.987   4.202 -0.4871 -0.0408  0.4484
  602THF    H1010823   1.022   0.957   3.996  1.5310  0.9921 -0.5227
  602THF    H1110824   0.889   1.051   4.066  0.4817  1.3527  2.5663
  602THF    H1210825   0.982   0.941   4.268 -0.0035  2.2847  2.7953
  602THF    H1310826   1.133   0.912   4.182 -1.1956 -0.9276  0.9763
  603THF     O110827   4.068   4.505   3.072 -0.2484  0.5401  0.3420
  603THF     C210828   3.961   4.591   3.026 -0.6263 -0.0130  0.0980
  603THF     C310829   4.187   4.545   3.013 -0.8257  0.1899  0.5793
  603THF     H410830   3.967   4.690   3.071  0.3530  0.6459 -1.4255
  603THF     H510831   3.858   4.567   3.054 -0.3043 -1.0575  0.4418
  603THF     H610832   4.233   4.630   3.063 -0.0370 -0.1273  0.4030
  603THF     H710833   4.247   4.456   3.028 -3.5705 -1.7503  0.8243
  603THF     C810834   4.145   4.572   2.868  0.0364  0.0972  0.1118
  603THF     C910835   3.997   4.603   2.879 -0.3741 -0.0474  0.5164
  603THF    H1010836   4.161   4.479   2.814  3.1315 -0.4227  1.7297
  603THF    H1110837   4.208   4.647   2.820  1.5991 -0.4223  1.2548
  603THF    H1210838   3.966   4.694   2.828  0.3876  0.4633  0.9338
  603THF    H1310839   3.938   4.531   2.823 -1.0558  0.8219  0.0950
  604THF     O110840   0.078   3.460   3.933  0.1220 -0.5207  0.3738
  604THF     C210841   0.199   3.400   3.887  0.0214  0.1097 -0.2668
  604THF     C310842  -0.014   3.353   3.957 -0.4646 -0.4822  1.0185
  604THF     H410843   0.246   3.359   3.976  1.1474  3.4923  0.8467
  604THF     H510844   0.270   3.474   3.849 -0.3630  2.2660  2.8083
  604THF     H610845   0.002   3.311   4.056  1.0177  0.0764  1.0288
  604THF     H710846  -0.117   3.390   3.960 -0.9500 -1.5309 -0.7648
  604THF     C810847   0.009   3.248   3.848 -0.2779 -0.9040 -1.0774
  604THF     C910848   0.156   3.292   3.794  0.4178 -0.0035  0.3555
  604THF    H1010849  -0.069   3.272   3.777 -0.4662  1.6782 -0.1123
  604THF    H1110850   0.001   3.142   3.875  3.2238 -0.9419  0.3248
  604THF    H1210851   0.224   3.206   3.794  0.6769  0.1829  1.6664
  604THF    H1310852   0.149   3.332   3.693  1.2312 -2.2790 -0.6944
  605THF     O110853   0.326   2.145   0.742 -0.2279  0.1706 -0.0919
  605THF     C210854   0.449   2.105   0.690 -1.0143  1.3026  0.0526
  605THF     C310855   0.236   2.159   0.631  0.0513 -0.4168  0.0231
  605THF     H410856   0.519   2.061   0.760  1.7357  1.8731 -2.1475
  605THF     H510857   0.501   2.190   0.644 -0.8068  0.3697 -1.5137
  605THF     H610858   0.129   2.174   0.646  0.5885  2.8410  1.5143
  605THF     H710859   0.267   2.241   0.566 -1.0527  0.6382  0.7874
  605THF     C810860   0.263   2.030   0.559  0.3929 -0.5334  0.1385
  605THF     C910861   0.412   2.002   0.578 -1.2619 -0.1284 -0.2185
  605THF    H1010862   0.228   2.030   0.455 -0.2566  1.4903  0.3222
  605THF    H1110863   0.204   1.948   0.601 -0.9525 -1.0804 -2.5482
  605THF    H1210864   0.422   1.896   0.600  2.9728 -0.3765 -2.2331
  605THF    H1310865   0.465   2.020   0.484  0.7386 -1.1658  0.6311
  606THF     O110866   0.745   3.411   2.264  0.1752 -0.2632 -0.3557
  606THF     C210867   0.711   3.517   2.162 -0.1855  0.0886  0.2743
  606THF     C310868   0.872   3.359   2.236  0.7818 -0.5177  0.3039
  606THF     H410869   0.696   3.618   2.199  0.6318  0.1231  0.5162
  606THF     H510870   0.618   3.492   2.111 -0.1319  0.3454  0.0447
  606THF     H610871   0.921   3.368   2.333 -0.3290 -0.2259  0.8565
  606THF     H710872   0.883   3.254   2.211  2.1840  0.0176 -1.5693
  606THF     C810873   0.941   3.449   2.129  0.1764 -0.1271  0.6388
  606THF     C910874   0.818   3.513   2.056 -0.3829  0.2974 -0.1741
  606THF    H1010875   1.012   3.396   2.066  1.6708 -0.6860  2.6802
  606THF    H1110876   0.995   3.531   2.177 -0.0721  0.8809 -0.7389
  606THF    H1210877   0.848   3.600   1.998  2.1375  0.1757  0.8117
  606THF    H1310878   0.797   3.433   1.984 -0.9131  0.3406 -0.0663
  607THF     O110879   2.926   4.934   1.482  0.2470  0.4039 -0.2085
  607THF     C210880   2.883   4.913   1.346  0.4192 -0.0996  0.2979
  607THF     C310881   2.986   5.062   1.491  1.5609 -0.1054 -0.5736
  607THF     H410882   2.796   4.971   1.317  1.9287  1.5379 -1.2071
  607THF     H510883   2.856   4.808   1.338 -2.5551  0.5411  0.7168
  607THF     H610884   2.907   5.135   1.506 -1.5086 -2.6027 -3.0250
  607THF     H710885   3.056   5.076   1.572  1.1423  0.3430 -0.2875
  607THF     C810886   3.069   5.055   1.359 -0.7040 -0.3310  0.4864
  607THF     C910887   2.995   4.965   1.261 -0.5734  0.8501  0.9851
  607THF    H1010888   3.165   5.008   1.381  0.8075  1.6337 -1.3861
  607THF    H1110889   3.103   5.148   1.313  2.2091 -1.0215  1.0368
  607THF    H1210890   2.961   5.015   1.171  0.4606 -1.2152 -0.6572
  607THF    H1310891   3.056   4.885   1.220 -2.4159 -1.7127  2.8981
  608THF     O110892   0.170   5.325   3.245 -0.3298  0.7891 -0.1048
  608THF     C210893   0.279   5.355   3.335  0.2008 -0.0661  0.4213
  608THF     C310894   0.131   5.189   3.276  0.1603 -0.0153  0.1438
  608THF     H410895   0.303   5.461   3.335 -0.5796  0.1277  1.8573
  608THF     H510896   0.364   5.305   3.288 -1.1264  1.0159 -3.5660
  608THF     H610897   0.031   5.185   3.235  0.2817  1.5525 -0.3809
  608THF     H710898   0.200   5.126   3.221  0.3158  0.6052 -0.3821
  608THF     C810899   0.140   5.178   3.418 -0.3569  0.0696 -0.3503
  608THF     C910900   0.222   5.295   3.468 -0.2129  0.4652 -0.6102
  608THF    H1010901   0.203   5.093   3.447 -0.0397  1.2297  2.6892
  608THF    H1110902   0.047   5.167   3.474 -0.7897  0.9466 -0.8860
  608THF    H1210903   0.155   5.368   3.513  1.6207  0.0930  3.0712
  608THF    H1310904   0.296   5.274   3.545  0.3156 -2.1974 -1.7105
  609THF     O110905   1.067   1.911   0.773 -0.2751  0.0062 -0.0453
  609THF     C210906   1.036   1.823   0.670  0.3642 -0.5685  0.1660
  609THF     C310907   1.017   1.847   0.884  0.5100 -0.1964 -0.6090
  609THF     H410908   1.112   1.745   0.672  1.8067  0.5814 -2.8086
  609THF     H510909   1.052   1.873   0.574 -0.0032  0.1853  0.4864
  609THF     H610910   1.059   1.750   0.914  1.9734  0.0123 -1.8398
  609THF     H710911   1.019   1.924   0.961 -2.0492  0.9332 -1.5648
  609THF     C810912   0.875   1.827   0.831 -0.2468  0.2718 -0.7107
  609THF     C910913   0.896   1.780   0.694 -0.0951  0.3479  0.2755
  609THF    H1010914   0.815   1.917   0.827  0.8497  1.0311 -0.6109
  609THF    H1110915   0.826   1.756   0.898 -0.5977  0.7719 -0.4363
  609THF    H1210916   0.898   1.671   0.696 -0.0529  0.3285 -0.4722
  609THF    H1310917   0.817   1.816   0.629  0.0454 -0.7375 -0.5352
  610THF     O110918   4.803   2.404   2.865  0.3538 -0.3191  0.1497
  610THF     C210919   4.666   2.423   2.898 -0.5046  0.1464 -0.6311
  610THF     C310920   4.877   2.469   2.965 -0.2348  0.2491  0.1392
  610THF     H410921   4.594   2.358   2.847 -1.8339 -1.1057  2.5888
  610THF     H510922   4.632   2.524   2.880 -1.0388 -0.2183 -1.7885
  610THF     H610923   4.982   2.442   2.975 -0.5623 -0.5212  1.9767
  610THF     H710924   4.866   2.577   2.959 -0.3340  0.2929  0.9596
  610THF     C810925   4.810   2.430   3.084  0.4833 -0.1054  0.2886
  610THF     C910926   4.666   2.397   3.044 -0.0871 -0.9418 -0.1277
  610THF    H1010927   4.807   2.497   3.170 -0.5954  0.8463 -0.4706
  610THF    H1110928   4.856   2.337   3.118  0.1523  0.8683  3.8665
  610THF    H1210929   4.656   2.292   3.071 -0.3518 -1.0484 -0.6239
  610THF    H1310930   4.594   2.464   3.091  2.9175  1.0543  1.9731
  611THF     O110931   3.189   1.983   5.264  0.6145 -0.2279  0.3130
  611THF     C210932   3.319   2.043   5.252  0.3228 -0.3828 -0.1237
  611THF     C310933   3.187   1.911   5.388 -0.2531  0.2077 -0.5634
  611THF     H410934   3.305   2.150   5.268  2.7448 -0.0498  0.1242
  611THF     H510935   3.357   2.037   5.149 -0.7305  0.0491 -0.5467
  611THF     H610936   3.097   1.952   5.434  0.0186  1.2708 -0.9352
  611THF     H710937   3.193   1.804   5.374  0.8934  0.3522 -1.3064
  611THF     C810938   3.307   1.963   5.471  0.3948 -0.0954  0.6292
  611THF     C910939   3.409   1.993   5.365 -0.9453 -0.1361  0.7594
  611THF    H1010940   3.334   1.894   5.551 -2.4369  1.4750  3.1715
  611THF    H1110941   3.288   2.060   5.518  2.3106  0.8103 -0.3278
  611THF    H1210942   3.493   2.058   5.391  0.3651 -0.7213 -1.7306
  611THF    H1310943   3.464   1.903   5.335  1.3571  1.9106 -1.6608
  612THF     O110944   4.651   0.503   3.961 -0.8077  0.4800  0.7000
  612THF     C210945   4.721   0.483   3.833 -0.2557 -0.1203 -0.4911
  612THF     C310946   4.734   0.587   4.043 -0.0908 -0.0919 -0.0906
  612THF     H410947   4.707   0.561   3.759  3.4179  0.8366 -0.3568
  612THF     H510948   4.674   0.392   3.796  1.6331 -1.1181 -0.5565
  612THF     H610949   4.710   0.687   4.008  0.6471  0.1136 -0.0160
  612THF     H710950   4.713   0.576   4.149 -0.6127  0.0276 -0.1807
  612THF     C810951   4.880   0.544   4.009  0.6461 -0.2878  0.1581
  612THF     C910952   4.866   0.478   3.866  0.3264 -0.8371 -0.0377
  612THF    H1010953   4.912   0.461   4.072 -0.2409 -1.3458 -0.7234
  612THF    H1110954   4.945   0.631   4.005  2.7547 -1.8147 -1.3974
  612THF    H1210955   4.925   0.529   3.790  0.5153  0.0237  0.6648
  612THF    H1310956   4.900   0.374   3.868  2.3409 -0.2371  0.0481
  613THF     O110957   3.132   1.393   4.922 -0.3588 -0.2781  0.2677
  613THF     C210958   3.181   1.281   4.842  0.0850 -0.7782 -0.2122
  613THF     C310959   3.032   1.361   5.019  0.5446 -0.3468  0.1873
  613THF     H410960   3.290   1.290   4.840  0.1560 -0.9401  1.5259
  613THF     H510961   3.142   1.286   4.740  3.2100 -0.7947 -1.5336
  613THF     H610962   3.092   1.359   5.110  1.2766 -2.9049 -0.2801
  613THF     H710963   2.960   1.442   5.027  0.1649 -0.6660 -0.0089
  613THF     C810964   2.998   1.219   4.980 -0.7904  0.3149 -0.5109
  613THF     C910965   3.124   1.167   4.920 -0.0580  0.3006  0.3438
  613THF    H1010966   2.915   1.204   4.912  0.1111 -0.9018 -1.3897
  613THF    H1110967   2.978   1.164   5.072 -0.4675 -0.4810 -0.9067
  613THF    H1210968   3.200   1.135   4.992  0.1154 -1.5590 -0.6145
  613THF    H1310969   3.094   1.089   4.850  1.0296 -1.0224  1.2961
  614THF     O110970   4.286   1.455   2.359  0.2604  0.2625  0.2007
  614THF     C210971   4.426   1.458   2.357  0.1226 -0.1911 -0.0833
  614THF     C310972   4.229   1.419   2.485  0.0885  0.0531 -0.0186
  614THF     H410973   4.481   1.541   2.401  0.7488  0.0062 -1.2225
  614THF     H510974   4.472   1.444   2.260 -1.3400  1.5988 -1.1076
  614THF     H610975   4.207   1.505   2.548  0.5297 -1.3254  2.1146
  614THF     H710976   4.140   1.358   2.471  1.4603 -2.4059  1.2648
  614THF     C810977   4.338   1.341   2.557 -0.0156  0.1070 -0.4226
  614THF     C910978   4.449   1.337   2.447  0.5751  0.4680 -0.2696
  614THF    H1010979   4.304   1.241   2.582 -2.7915  1.4768  1.8994
  614THF    H1110980   4.362   1.392   2.651 -0.8510  2.6775 -1.5164
  614THF    H1210981   4.549   1.340   2.490  0.5216 -3.7855  0.5531
  614THF    H1310982   4.439   1.252   2.379  1.5455  0.1191  0.0013
  615THF     O110983   3.689   2.315   1.224 -0.2460 -0.3030  0.5286
  615THF     C210984   3.642   2.453   1.232 -0.8495  0.4901  0.3137
  615THF     C310985   3.834   2.321   1.221 -0.4612  0.0436 -0.0739
  615THF     H410986   3.659   2.480   1.336  0.2222  0.9636  0.0297
  615THF     H510987   3.535   2.466   1.223 -0.8973  1.5034  2.0158
  615THF     H610988   3.858   2.337   1.326 -0.3849  0.0865 -0.0977
  615THF     H710989   3.882   2.234   1.175  0.1737  0.8782 -1.0450
  615THF     C810990   3.868   2.441   1.150  0.0084  0.3103 -0.2480
  615THF     C910991   3.735   2.511   1.129  0.0159  0.6962 -0.1212
  615THF    H1010992   3.906   2.422   1.049  0.8998  0.1007  0.1141
  615THF    H1110993   3.944   2.499   1.202  1.8748 -1.7871 -0.4554
  615THF    H1210994   3.746   2.617   1.152 -1.7144  1.1786 -1.3020
  615THF    H1310995   3.695   2.504   1.028 -0.3728  2.3911 -0.1196
  616THF     O110996   0.328   5.049   0.638  1.0003 -0.5168  0.0718
  616THF     C210997   0.338   4.950   0.729  0.1650 -0.1525 -0.4702
  616THF     C310998   0.228   5.147   0.683 -0.6354 -0.4385  0.3359
  616THF     H410999   0.421   4.965   0.798 -0.2938  1.8443 -0.2754
  616THF     H511000   0.363   4.865   0.665  1.2262  0.5839 -1.0695
  616THF     H611001   0.270   5.243   0.711 -0.3423  0.2577 -2.2532
  616THF     H711002   0.150   5.155   0.607  1.7047 -2.0108 -2.4233
  616THF     C811003   0.167   5.076   0.802  0.1581 -0.3024 -0.3561
  616THF     C911004   0.204   4.930   0.793  0.0897  0.0874  0.4532
  616THF    H1011005   0.060   5.096   0.795  0.3095  0.4982 -0.5447
  616THF    H1111006   0.199   5.110   0.901 -1.3193 -1.1170  0.4356
  616THF    H1211007   0.217   4.870   0.883  0.8045 -1.4862 -0.6545
  616THF    H1311008   0.139   4.882   0.720  1.8211  0.7866 -1.6524
  617THF     O111009   2.460   1.447   3.236  0.5750  0.1607 -0.2558
  617THF     C211010   2.519   1.559   3.303 -0.1017 -0.1289  0.1499
  617THF     C311011   2.386   1.502   3.140  1.0035 -0.4848 -0.0101
  617THF     H411012   2.586   1.610   3.233  0.1364 -1.3155 -0.5174
  617THF     H511013   2.574   1.541   3.395  0.2983 -0.3229 -0.1238
  617THF     H611014   2.454   1.549   3.069  0.4438  0.5061  0.0962
  617THF     H711015   2.313   1.433   3.098 -1.3812  1.3375  0.9034
  617THF     C811016   2.294   1.610   3.218 -0.3981  0.0669  1.0623
  617THF     C911017   2.395   1.651   3.325  0.2489  0.7008  0.4505
  617THF    H1011018   2.223   1.551   3.275  1.1835 -2.3351  0.6775
  617THF    H1111019   2.250   1.693   3.162 -1.3539 -1.6900 -0.9877
  617THF    H1211020   2.422   1.756   3.310  1.6887  0.4449  1.0827
  617THF    H1311021   2.357   1.650   3.427 -0.3344  1.0479  0.2409
  618THF     O111022   1.927   4.640   0.916 -0.4093  0.0970  0.3491
  618THF     C211023   1.889   4.763   0.980 -0.4633  0.0813 -0.5444
  618THF     C311024   1.855   4.629   0.792 -0.0792  0.0814  0.4493
  618THF     H411025   1.978   4.790   1.037 -1.4245 -1.1939  1.6719
  618THF     H511026   1.803   4.743   1.043  1.6551 -1.9459  1.9583
  618THF     H611027   1.911   4.558   0.731  0.2339 -2.2237  3.1958
  618THF     H711028   1.756   4.589   0.817 -0.4658 -0.0725 -1.2451
  618THF     C811029   1.848   4.770   0.741  0.4468  0.0357 -0.1531
  618THF     C911030   1.850   4.858   0.864 -0.0429  0.4729 -0.4250
  618THF    H1011031   1.766   4.786   0.671  0.0660  0.9006  0.4801
  618THF    H1111032   1.932   4.792   0.675 -0.4917 -1.9032 -2.1443
  618THF    H1211033   1.916   4.943   0.845 -0.0136  0.3092 -1.0716
  618THF    H1311034   1.752   4.901   0.888 -1.6783 -2.9899 -0.3229
  619THF     O111035   0.404   3.287   2.628  0.6831  0.1655  0.0100
  619THF     C211036   0.454   3.188   2.711  0.0348  0.2171  0.2075
  619THF     C311037   0.344   3.374   2.723  0.0858 -0.1737 -0.4647
  619THF     H411038   0.549   3.223   2.752  0.3573  0.6560 -0.8708
  619THF     H511039   0.457   3.095   2.655 -0.7654  0.9074 -1.0441
  619THF     H611040   0.427   3.438   2.754  0.2729 -0.1619 -0.9805
  619THF     H711041   0.262   3.425   2.671  0.0194 -0.3666 -0.5496
  619THF     C811042   0.288   3.304   2.849  0.9181  0.7078 -0.3493
  619THF     C911043   0.356   3.171   2.833 -0.6131 -0.7166  0.2595
  619THF    H1011044   0.180   3.298   2.839  0.9493  0.5655 -0.5883
  619THF    H1111045   0.307   3.353   2.945  0.6173  1.3690 -0.6165
  619THF    H1211046   0.422   3.129   2.909  0.9050  1.4733  0.2682
  619THF    H1311047   0.292   3.089   2.801  0.1437 -1.9873  1.8743
  620THF     O111048   0.278   4.690   2.380 -0.7763 -0.4625  0.4690
  620THF     C211049   0.418   4.671   2.381  0.7524  0.3013 -1.2514
  620THF     C311050   0.251   4.825   2.414  1.1652  0.0792 -0.7014
  620THF     H411051   0.456   4.581   2.333  0.0958 -2.2727  2.5803
  620THF     H511052   0.446   4.652   2.485 -1.4038 -2.4046 -1.0552
  620THF     H611053   0.152   4.854   2.378  0.5466 -0.3800  0.5671
  620THF     H711054   0.248   4.836   2.522 -0.3983 -1.1423 -0.5830
  620THF     C811055   0.356   4.900   2.341  0.0560 -1.0484  0.0499
  620THF     C911056   0.475   4.798   2.328  0.5425  0.4299 -0.0285
  620THF    H1011057   0.385   4.989   2.397 -1.6501 -0.5394  0.1906
  620THF    H1111058   0.312   4.928   2.245  1.9477  1.0529 -0.2989
  620THF    H1211059   0.505   4.787   2.224  0.0327  0.0096 -0.1344
  620THF    H1311060   0.557   4.836   2.390  0.9818  0.3940 -0.5836
  621THF     O111061   3.201   0.365   4.485 -0.0024  0.0798  0.3363
  621THF     C211062   3.236   0.481   4.421  0.5795 -0.1468  0.1040
  621THF     C311063   3.323   0.298   4.521  0.3472 -0.0515  0.2403
  621THF     H411064   3.155   0.554   4.414 -0.3303 -1.1713 -0.4554
  621THF     H511065   3.282   0.470   4.323 -0.4405  2.1610 -0.7159
  621THF     H611066   3.293   0.247   4.613 -2.6627  0.2591 -0.4705
  621THF     H711067   3.349   0.242   4.431 -2.6631 -1.1911 -0.0231
  621THF     C811068   3.418   0.413   4.561 -0.1395  0.4427  0.4105
  621THF     C911069   3.350   0.537   4.495 -0.6745 -0.2668 -0.4322
  621THF    H1011070   3.515   0.398   4.514  0.5646  0.1441  1.8814
  621THF    H1111071   3.435   0.429   4.668  1.6641  2.6971 -0.1486
  621THF    H1211072   3.305   0.601   4.571 -1.5714 -1.5707  0.1696
  621THF    H1311073   3.419   0.591   4.430  1.7935 -3.2406 -0.5307
  622THF     O111074   2.456   5.364   5.007  0.0678  0.9196 -0.2157
  622THF     C211075   2.402   5.388   5.140 -0.5318 -0.0941  0.8460
  622THF     C311076   2.594   5.354   5.032 -0.0153 -0.1349 -0.0735
  622THF     H411077   2.410   5.298   5.202 -1.0346 -0.7622 -0.0230
  622THF     H511078   2.297   5.415   5.134 -1.0018 -1.7486  1.1194
  622THF     H611079   2.609   5.261   5.087 -0.0150 -1.0819 -1.5960
  622THF     H711080   2.631   5.355   4.930 -2.4969 -1.7564 -1.0868
  622THF     C811081   2.622   5.466   5.124  0.4920 -0.3214  0.3612
  622THF     C911082   2.497   5.495   5.196  0.1733  0.4947  0.6331
  622THF    H1011083   2.647   5.555   5.067  2.2346  0.3951  2.1274
  622THF    H1111084   2.705   5.443   5.191  2.5256 -0.3688 -2.0220
  622THF    H1211085   2.485   5.489   5.304  0.8437  0.6839  0.7215
  622THF    H1311086   2.462   5.597   5.179 -0.4564  0.3735  1.1711
  623THF     O111087   1.255   5.194   4.035  0.3190  0.1631  0.0294
  623THF     C211088   1.116   5.217   4.076 -0.4451  0.4027 -0.0736
  623THF     C311089   1.274   5.057   3.985  0.0082 -0.0565 -0.7154
  623THF     H411090   1.067   5.247   3.984  0.2114 -1.3975 -1.0432
  623THF     H511091   1.113   5.293   4.155  2.3033 -0.0478  0.5760
  623THF     H611092   1.243   5.057   3.880 -1.2415 -2.5103 -0.4262
  623THF     H711093   1.378   5.024   3.995  0.7797  2.0562 -1.2932
  623THF     C811094   1.162   4.981   4.064  0.2538 -0.5199  0.5433
  623THF     C911095   1.070   5.088   4.127  0.2985  0.2991 -0.3129
  623THF    H1011096   1.218   4.920   4.135 -1.6894 -1.1033  1.6255
  623THF    H1111097   1.106   4.920   3.993 -0.3705  0.0301  0.5657
  623THF    H1211098   0.962   5.078   4.115  0.1232  0.1126  1.2829
  623THF    H1311099   1.104   5.086   4.231  1.6242  1.3822 -0.6898
  624THF     O111100   3.897   4.303   2.245 -0.0631  0.1740 -0.1114
  624THF     C211101   4.000   4.277   2.151 -0.0180  0.0717  0.4876
  624THF     C311102   3.897   4.440   2.279 -0.4483  0.3183  0.8475
  624THF     H411103   3.954   4.281   2.052  0.2883  0.6919  0.3687
  624THF     H511104   4.048   4.180   2.166  0.0838 -0.1561 -1.1368
  624THF     H611105   3.856   4.496   2.195 -0.5054  0.3294  0.8821
  624THF     H711106   3.847   4.454   2.375 -0.0298  2.0499  0.8490
  624THF     C811107   4.044   4.476   2.283  0.3234 -0.5292 -0.4382
  624THF     C911108   4.104   4.393   2.173  0.2384 -0.0268 -0.3338
  624THF    H1011109   4.092   4.452   2.378  2.1837  0.9150 -0.9565
  624THF    H1111110   4.061   4.583   2.271 -3.5393  0.4631  1.3004
  624THF    H1211111   4.102   4.442   2.076  0.8126  0.4157 -0.1196
  624THF    H1311112   4.201   4.354   2.202  0.6938  0.5543 -1.0616
  625THF     O111113   4.471   3.060   4.208 -0.5475  0.1349 -0.2533
  625THF     C211114   4.411   3.170   4.263 -0.6466  0.5573 -0.0898
  625THF     C311115   4.404   3.020   4.082  0.2371  0.1266  0.6012
  625THF     H411116   4.435   3.267   4.220 -1.1508  0.6143 -0.2546
  625THF     H511117   4.426   3.172   4.371 -0.7803 -2.8410  0.0942
  625THF     H611118   4.452   3.058   3.991 -0.2953  1.8665  1.0096
  625THF     H711119   4.404   2.912   4.067  2.4591  0.0321  0.9047
  625THF     C811120   4.268   3.079   4.101  0.5490  0.0741 -0.3401
  625THF     C911121   4.268   3.150   4.231 -0.3856  0.4153  0.3969
  625THF    H1011122   4.194   2.999   4.091 -0.6142  1.1664 -0.7950
  625THF    H1111123   4.230   3.135   4.016  1.8737 -0.9749 -1.6721
  625THF    H1211124   4.194   3.230   4.225  0.8059  1.5260  0.0174
  625THF    H1311125   4.233   3.079   4.306  2.8316 -0.1306  1.5067
  626THF     O111126   4.448   0.836   4.300 -0.2419  0.0208  0.0158
  626THF     C211127   4.356   0.736   4.254  0.1720 -0.0928 -0.2295
  626THF     C311128   4.463   0.932   4.195 -0.3179  0.4763  0.2940
  626THF     H411129   4.302   0.686   4.335 -1.4340  0.8639 -0.6592
  626THF     H511130   4.400   0.651   4.202  0.0989 -0.1963 -0.1228
  626THF     H611131   4.498   1.028   4.233  2.7673  0.2536 -1.6357
  626THF     H711132   4.534   0.890   4.124  0.1731  1.5784  0.1008
  626THF     C811133   4.324   0.937   4.132 -0.4577 -0.6150 -0.1963
  626THF     C911134   4.256   0.811   4.169 -0.0830 -0.6069 -0.0830
  626THF    H1011135   4.311   0.950   4.025 -0.6088  1.8127  0.0552
  626THF    H1111136   4.266   1.014   4.184 -2.6367 -1.1377 -1.6967
  626THF    H1211137   4.163   0.825   4.225 -0.9385 -2.6213 -0.8957
  626THF    H1311138   4.215   0.753   4.087 -1.6158 -2.4359  1.8611
  627THF     O111139   1.532   1.039   3.832  0.5440 -0.2168 -0.2678
  627THF     C211140   1.556   0.982   3.705 -0.6894  0.2403  0.2430
  627THF     C311141   1.422   1.120   3.836  1.0167 -0.5124  0.1776
  627THF     H411142   1.485   0.900   3.695  0.6000 -0.6978 -1.6768
  627THF     H511143   1.652   0.942   3.670 -0.7026  1.0758 -0.7925
  627THF     H611144   1.329   1.062   3.835 -0.0633  1.1387 -0.5886
  627THF     H711145   1.413   1.195   3.914  0.2495  2.0005 -2.1727
  627THF     C811146   1.440   1.199   3.710 -0.6279  0.1517  0.5600
  627THF     C911147   1.523   1.103   3.620 -0.2831  0.4093 -0.0809
  627THF    H1011148   1.484   1.294   3.742  0.5882 -1.0702  2.7870
  627THF    H1111149   1.340   1.219   3.672 -1.0011  0.5516  1.7131
  627THF    H1211150   1.466   1.080   3.530 -1.5613  1.7496  0.3403
  627THF    H1311151   1.611   1.154   3.581  0.5170  0.4963  1.7363
  628THF     O111152   2.185   0.808   4.820  0.5282 -0.2653 -0.1001
  628THF     C211153   2.085   0.773   4.923  0.3570  0.2713  0.4182
  628THF     C311154   2.242   0.938   4.841  0.2214  0.0780 -0.4314
  628THF     H411155   2.118   0.689   4.983 -0.9378  1.0646  2.3702
  628THF     H511156   1.992   0.743   4.873  2.0061 -1.9837 -1.4866
  628THF     H611157   2.348   0.954   4.818 -0.8153  4.1826 -3.3275
  628THF     H711158   2.203   1.012   4.772 -0.9539 -0.3109 -0.1966
  628THF     C811159   2.212   0.976   4.990 -0.3600  0.3469  0.1886
  628THF     C911160   2.084   0.903   5.007 -0.3019  0.7507 -0.8466
  628THF    H1011161   2.198   1.081   5.017  0.5478 -0.2409  3.2593
  628THF    H1111162   2.298   0.949   5.050 -2.0230 -2.1739  1.6384
  628THF    H1211163   2.057   0.887   5.111  2.6428 -0.8850 -0.2285
  628THF    H1311164   1.999   0.951   4.958 -0.2970 -0.5989 -2.2671
  629THF     O111165   3.148   1.151   1.633 -0.0167  0.5957  0.0249
  629THF     C211166   3.063   1.038   1.653  0.0294  0.2587 -0.1593
  629THF     C311167   3.120   1.209   1.506  0.5537 -0.6345 -0.6695
  629THF     H411168   2.967   1.067   1.696 -0.0197 -0.1415  0.0143
  629THF     H511169   3.108   0.962   1.718 -1.6467  0.3920  1.2375
  629THF     H611170   3.092   1.314   1.514  1.4090 -0.3212 -1.5806
  629THF     H711171   3.216   1.207   1.454  0.3426 -2.6153 -1.0634
  629THF     C811172   3.014   1.123   1.440 -0.5919 -0.0911  0.5239
  629THF     C911173   3.029   0.986   1.512 -0.9945  0.4836 -0.1037
  629THF    H1011174   3.012   1.117   1.332 -2.0348 -0.0122  0.5306
  629THF    H1111175   2.925   1.175   1.476 -0.6268 -0.7432  1.4376
  629THF    H1211176   2.934   0.932   1.511 -0.7669  0.0789 -0.0058
  629THF    H1311177   3.116   0.932   1.475 -0.0700  1.0510  1.1506
  630THF     O111178   3.577   3.509   0.334 -0.4372 -0.2118  0.3502
  630THF     C211179   3.442   3.500   0.389  0.1193  0.1108  0.6150
  630THF     C311180   3.579   3.446   0.204  0.2200 -0.1270  0.7548
  630THF     H411181   3.430   3.550   0.485  1.6175 -1.7400  1.8303
  630THF     H511182   3.424   3.394   0.404 -0.8961  0.0676 -0.6829
  630THF     H611183   3.657   3.489   0.141  0.0015 -0.0959  0.5033
  630THF     H711184   3.586   3.338   0.210  1.7706 -0.0631  0.6825
  630THF     C811185   3.438   3.476   0.157 -0.3142 -0.1670  0.1800
  630THF     C911186   3.356   3.532   0.272 -0.0781 -1.0228  0.7188
  630THF    H1011187   3.383   3.390   0.120 -2.0006  1.0567 -0.3119
  630THF    H1111188   3.447   3.546   0.074  2.2689 -0.9014 -0.2507
  630THF    H1211189   3.348   3.640   0.259  1.1368 -1.0560 -0.5192
  630THF    H1311190   3.258   3.487   0.290  1.3562 -3.1762  4.0588
  631THF     O111191   5.200   4.727   2.605  0.2261  0.1547 -0.5106
  631THF     C211192   5.313   4.787   2.659  1.1500 -0.2118 -0.6281
  631THF     C311193   5.163   4.801   2.494  0.7919 -0.0159  0.3435
  631THF     H411194   5.400   4.721   2.650  0.8821 -0.6648  0.0166
  631THF     H511195   5.303   4.801   2.767 -1.2418 -0.3711 -0.7715
  631THF     H611196   5.143   4.741   2.406  1.9747  0.4874 -0.2889
  631THF     H711197   5.075   4.858   2.527  1.2330 -0.5608  2.6465
  631THF     C811198   5.283   4.887   2.451 -0.7797 -0.3831 -0.6113
  631THF     C911199   5.332   4.920   2.593 -0.1753  0.4740  0.6301
  631THF    H1011200   5.261   4.979   2.398 -1.2245  0.0582  0.3079
  631THF    H1111201   5.356   4.830   2.394 -1.5212 -1.0530 -0.9089
  631THF    H1211202   5.437   4.951   2.590 -0.5821  1.9793 -1.9068
  631THF    H1311203   5.268   4.998   2.634 -1.8057 -0.1485 -0.6284
  632THF     O111204   1.013   2.678   0.970 -0.5009 -0.2687 -0.3616
  632THF     C211205   1.128   2.592   0.954 -0.2425 -0.1763 -0.1765
  632THF     C311206   1.010   2.711   1.113 -0.2735  0.3369 -0.4359
  632THF     H411207   1.162   2.574   0.852  0.5764 -1.3877  0.2859
  632THF     H511208   1.110   2.499   1.008 -0.0926  0.3136  0.7397
  632THF     H611209   0.948   2.800   1.126 -1.8981 -0.5637 -1.5631
  632THF     H711210   0.972   2.627   1.171  0.5775 -0.1727 -0.6019
  632THF     C811211   1.164   2.734   1.146 -0.1498  0.5546 -0.1282
  632THF     C911212   1.239   2.671   1.030 -0.0381  0.3342 -0.1276
  632THF    H1011213   1.187   2.685   1.240 -0.2985 -0.4802 -0.6160
  632THF    H1111214   1.203   2.836   1.151  0.8227  0.1652  0.6694
  632THF    H1211215   1.266   2.758   0.971 -1.9495  1.3073  0.3290
  632THF    H1311216   1.326   2.609   1.051  0.9078  1.5952 -0.2198
  633THF     O111217   1.760   1.600   0.168 -0.3485  0.1839  0.3117
  633THF     C211218   1.849   1.712   0.140 -0.3012 -0.3165  0.1626
  633THF     C311219   1.840   1.505   0.246  0.0560 -0.2286  0.0420
  633THF     H411220   1.794   1.804   0.161  2.7970  1.8481 -0.6322
  633THF     H511221   1.893   1.717   0.040 -1.5522  1.3827 -0.3599
  633THF     H611222   1.796   1.512   0.346 -0.1024  2.1334 -0.1218
  633THF     H711223   1.831   1.408   0.198 -0.2916 -0.4711  0.5936
  633THF     C811224   1.981   1.559   0.256 -0.6937  0.4466 -0.0791
  633THF     C911225   1.953   1.709   0.250  0.4044 -0.6829 -0.4313
  633THF    H1011226   2.040   1.531   0.169 -0.1381  3.4408 -0.7891
  633THF    H1111227   2.044   1.520   0.337  0.1322  1.0563 -0.4104
  633THF    H1211228   1.911   1.741   0.346 -0.5698 -0.0221 -1.0619
  633THF    H1311229   2.038   1.773   0.228 -0.1610 -0.4204 -1.9255
  634THF     O111230   1.381   1.982   3.502  0.4105 -0.0198  0.4914
  634THF     C211231   1.405   2.111   3.536  0.0972 -0.7075 -0.0303
  634THF     C311232   1.249   1.981   3.446 -0.7343 -0.3044 -0.5096
  634THF     H411233   1.435   2.167   3.448  2.4979 -0.8193  0.6349
  634THF     H511234   1.491   2.121   3.602 -1.4656  0.5806  1.9311
  634THF     H611235   1.247   2.022   3.345 -0.4381  0.1448 -0.3366
  634THF     H711236   1.216   1.878   3.456 -1.2672  0.0879  3.1859
  634THF     C811237   1.165   2.076   3.540  0.1460  0.1460  1.0805
  634THF     C911238   1.280   2.155   3.609 -0.0145  0.4246 -0.2355
  634THF    H1011239   1.101   2.018   3.606 -1.8211  1.9697  0.8965
  634THF    H1111240   1.102   2.144   3.483  2.3120  0.7161 -0.7737
  634THF    H1211241   1.259   2.261   3.608 -1.4364  0.1627 -0.1168
  634THF    H1311242   1.279   2.114   3.710 -0.8365  0.6806 -0.1376
  635THF     O111243   3.182   0.413   2.371 -0.5392  0.2130 -0.1657
  635THF     C211244   3.168   0.518   2.275  0.0428  0.7443  0.5159
  635THF     C311245   3.313   0.370   2.355 -0.3153  0.3598 -0.4269
  635THF     H411246   3.210   0.612   2.311 -2.9604  1.7988  1.6246
  635THF     H511247   3.061   0.536   2.271  0.1762  1.6122  0.5932
  635THF     H611248   3.375   0.451   2.394 -0.3937  0.5061 -0.6019
  635THF     H711249   3.322   0.279   2.414 -2.5379  1.0619  1.1508
  635THF     C811250   3.321   0.351   2.205 -0.0876 -0.1043  1.4592
  635THF     C911251   3.235   0.469   2.145 -0.1580  0.4189  0.2775
  635THF    H1011252   3.295   0.250   2.172 -1.2319  0.5111  0.4266
  635THF    H1111253   3.423   0.336   2.171 -0.5894 -0.2267 -0.0448
  635THF    H1211254   3.296   0.546   2.098  1.9015 -1.4090 -0.1897
  635THF    H1311255   3.164   0.439   2.068  1.1435 -0.1660 -0.7342
  636THF     O111256   1.728   4.312   2.854 -0.4994 -0.3326 -0.3550
  636THF     C211257   1.823   4.215   2.812  0.1499 -0.2737 -0.1277
  636THF     C311258   1.787   4.435   2.854 -0.2699  0.0196 -0.4665
  636THF     H411259   1.765   4.124   2.800 -0.2286  0.1523 -1.7352
  636THF     H511260   1.905   4.206   2.884  1.9570 -0.9129 -2.1600
  636THF     H611261   1.720   4.520   2.848 -2.6505 -1.6000  1.1539
  636THF     H711262   1.840   4.440   2.949 -0.0436 -0.2357 -0.5768
  636THF     C811263   1.867   4.432   2.726  0.6302 -0.5880 -0.2890
  636THF     C911264   1.876   4.281   2.689 -0.3491 -0.3523  0.9311
  636THF    H1011265   1.963   4.481   2.743  0.7994  0.3143 -3.2731
  636THF    H1111266   1.817   4.483   2.643  1.7712 -0.5241 -0.9475
  636THF    H1211267   1.799   4.269   2.613  1.1309  1.5609 -0.9758
  636THF    H1311268   1.972   4.249   2.649 -3.1803 -4.5396 -3.7788
  637THF     O111269   0.221   4.422   2.828 -0.5519 -0.3818 -0.3791
  637THF     C211270   0.353   4.441   2.776 -0.0120 -0.6558 -0.6917
  637THF     C311271   0.146   4.540   2.825 -0.4285 -0.3700 -0.1583
  637THF     H411272   0.362   4.429   2.669  0.8674  1.0674 -0.8523
  637THF     H511273   0.424   4.382   2.835  1.6616  2.9449  1.3196
  637THF     H611274   0.081   4.531   2.738 -0.5229 -1.5747  0.0234
  637THF     H711275   0.078   4.550   2.910  0.0125  3.9878 -0.1210
  637THF     C811276   0.248   4.651   2.833 -0.0064  0.1217  0.3717
  637THF     C911277   0.385   4.584   2.826 -0.3439  0.1461  0.6213
  637THF    H1011278   0.248   4.715   2.922  0.2829  1.3746 -0.5042
  637THF    H1111279   0.231   4.703   2.738  0.2746 -4.3963 -2.4191
  637THF    H1211280   0.451   4.637   2.758 -1.0164  0.4108  0.1617
  637THF    H1311281   0.425   4.579   2.927 -0.2098  0.7686  0.6008
  638THF     O111282   0.463   5.109   2.696  0.3831 -0.3806  1.0951
  638THF     C211283   0.519   5.198   2.600  0.1503 -0.0276 -0.8155
  638THF     C311284   0.544   4.993   2.686 -0.0222  0.0198  0.8511
  638THF     H411285   0.478   5.294   2.629 -1.8934 -0.4321 -2.0827
  638THF     H511286   0.472   5.172   2.505 -3.0994  0.3784  0.5440
  638THF     H611287   0.545   4.941   2.782 -0.1482 -1.2264  0.1975
  638THF     H711288   0.504   4.920   2.616  0.2576 -0.8913  1.6257
  638THF     C811289   0.683   5.033   2.644  0.0104 -0.1485 -0.4928
  638THF     C911290   0.676   5.186   2.610 -0.7718  0.5255 -0.5810
  638THF    H1011291   0.706   4.976   2.554  0.6997 -1.0088  0.2228
  638THF    H1111292   0.756   5.010   2.721 -1.1403  0.4653  0.8179
  638THF    H1211293   0.713   5.247   2.692 -0.7852  0.9796 -0.9131
  638THF    H1311294   0.721   5.213   2.515 -0.4209  1.4222 -0.1640
  639THF     O111295   1.728   3.758   5.023 -0.1397  0.5807 -0.1355
  639THF     C211296   1.628   3.675   5.077 -0.5006  0.0853  0.1792
  639THF     C311297   1.705   3.892   5.069  0.4431  0.7644  0.1407
  639THF     H411298   1.683   3.581   5.069 -1.7112 -0.5123 -2.3804
  639THF     H511299   1.531   3.676   5.027  0.4757  1.1152 -1.8142
  639THF     H611300   1.799   3.946   5.074  0.4574  0.6861  0.9311
  639THF     H711301   1.630   3.930   5.000 -0.7865  0.3065  1.1785
  639THF     C811302   1.639   3.880   5.205  0.2729  0.5420 -0.1175
  639THF     C911303   1.601   3.732   5.219 -0.5559 -0.8377 -0.4579
  639THF    H1011304   1.556   3.950   5.206 -1.4200 -1.2985  3.0841
  639THF    H1111305   1.714   3.898   5.282  0.6033 -2.0259  0.2495
  639THF    H1211306   1.667   3.676   5.286 -0.2276  0.7532  0.6031
  639THF    H1311307   1.502   3.716   5.260 -0.9546  2.8155  0.3281
  640THF     O111308   1.824   1.386   2.339  0.2520 -0.2931 -0.3053
  640THF     C211309   1.959   1.385   2.297  0.2004  0.1308 -0.1232
  640THF     C311310   1.812   1.333   2.472  0.2935  0.7804 -0.8730
  640THF     H411311   1.980   1.452   2.214 -2.0236  1.7971  0.5538
  640THF     H511312   1.982   1.285   2.260  0.7519  0.7208 -1.4491
  640THF     H611313   1.737   1.392   2.525  0.3918 -1.2126  1.6901
  640THF     H711314   1.779   1.229   2.473  0.5258  0.7078 -0.4371
  640THF     C811315   1.948   1.353   2.535  0.3832  0.6997  0.2734
  640THF     C911316   2.035   1.419   2.431  0.1924  0.0253 -0.1325
  640THF    H1011317   1.983   1.259   2.577 -0.8024 -0.0872 -0.4620
  640THF    H1111318   1.925   1.427   2.611 -0.5675  2.3397 -1.5190
  640THF    H1211319   2.028   1.527   2.448 -0.0710 -0.3795  2.9619
  640THF    H1311320   2.141   1.394   2.429 -0.4869 -3.2810 -1.9055
  641THF     O111321   0.139   3.253   0.954 -0.2518  1.0049 -0.6371
  641THF     C211322   0.013   3.203   0.920 -0.6180  0.1939  0.0076
  641THF     C311323   0.173   3.340   0.850 -0.7619 -0.1905  0.2068
  641THF     H411324  -0.029   3.162   1.011  0.7087  1.6217  1.3354
  641THF     H511325   0.015   3.132   0.838  1.0418 -0.1650  0.3174
  641THF     H611326   0.259   3.405   0.867  1.5180 -2.5155 -1.5708
  641THF     H711327   0.186   3.279   0.760 -1.3731 -0.0892  0.0479
  641THF     C811328   0.045   3.428   0.828 -0.0764  0.5263  0.6658
  641THF     C911329  -0.060   3.339   0.882  0.0637  0.7634 -0.1991
  641THF    H1011330   0.029   3.458   0.724 -0.3482  0.3495  0.6536
  641THF    H1111331   0.049   3.524   0.879  1.2209  1.2382 -0.7083
  641THF    H1211332  -0.098   3.381   0.975  1.6325  0.7026  0.4943
  641THF    H1311333  -0.148   3.336   0.818 -1.0712 -1.6785  1.3278
  642THF     O111334   3.753   1.403   4.035  0.4952 -0.7797  0.2458
  642THF     C211335   3.891   1.441   4.033 -0.5435 -0.5658  0.7640
  642THF     C311336   3.710   1.356   3.907 -0.0452 -0.1623  0.3224
  642THF     H411337   3.950   1.399   4.114 -1.1210 -1.1312  0.9042
  642THF     H511338   3.897   1.548   4.018  0.7393 -0.7836 -0.4750
  642THF     H611339   3.647   1.268   3.900 -0.0961 -0.1128  0.1430
  642THF     H711340   3.651   1.434   3.858  0.2998 -0.7287 -1.0506
  642THF     C811341   3.828   1.353   3.816 -0.3881  0.2898 -0.3526
  642THF     C911342   3.944   1.371   3.907 -0.5270 -0.2937 -0.3870
  642THF    H1011343   3.824   1.434   3.743 -0.4111  0.6043 -0.0054
  642THF    H1111344   3.836   1.263   3.755  0.8391  0.6793 -0.7882
  642THF    H1211345   3.974   1.274   3.947  0.1510  0.0255 -0.1253
  642THF    H1311346   4.030   1.425   3.867  0.8010 -0.0489  2.5118
  643THF     O111347   0.687   4.785   0.943  0.1847  0.2738 -0.4242
  643THF     C211348   0.759   4.667   0.901 -0.3350  0.5077 -0.4155
  643THF     C311349   0.736   4.889   0.862 -0.0960  0.2312  0.6771
  643THF     H411350   0.729   4.642   0.799 -1.5519 -0.0248  0.0437
  643THF     H511351   0.741   4.579   0.962 -0.1818  1.3759  0.9125
  643THF     H611352   0.689   4.883   0.764  1.8391 -0.5995 -0.2682
  643THF     H711353   0.727   4.992   0.895 -0.6105 -0.1410  1.7456
  643THF     C811354   0.890   4.859   0.843 -0.1466 -0.7715  0.5672
  643THF     C911355   0.903   4.720   0.905 -0.1868 -0.4367 -0.2948
  643THF    H1011356   0.945   4.937   0.895 -0.5559 -0.7786  1.0143
  643THF    H1111357   0.920   4.853   0.738 -2.4986  0.1782 -0.2309
  643THF    H1211358   0.978   4.661   0.852 -1.5322 -0.5447 -2.1976
  643THF    H1311359   0.921   4.718   1.012 -2.8750 -1.9494  0.2155
  644THF     O111360   0.377   4.400   1.577 -0.5534  0.1820  0.1883
  644THF     C211361   0.294   4.456   1.479  0.7698  0.3609  0.5068
  644THF     C311362   0.341   4.265   1.592  0.7427  0.4346  0.1211
  644THF     H411363   0.335   4.549   1.440 -1.1560  1.1838  0.3076
  644THF     H511364   0.196   4.484   1.517 -0.0877 -1.8828  0.1160
  644THF     H611365   0.421   4.211   1.644  0.6156  0.5933  0.4870
  644THF     H711366   0.251   4.253   1.653  0.5816  2.3657  0.3051
  644THF     C811367   0.316   4.215   1.448  0.4780 -0.0321 -0.2476
  644THF     C911368   0.281   4.341   1.376  0.0107 -0.5551  0.3241
  644THF    H1011369   0.233   4.145   1.448  0.7371 -0.3556  0.7220
  644THF    H1111370   0.407   4.168   1.411  1.0425  0.4750  0.4598
  644THF    H1211371   0.349   4.345   1.291 -1.0595 -1.2202 -0.6043
  644THF    H1311372   0.182   4.345   1.332  0.5963 -0.8034 -1.0660
  645THF     O111373   4.860   2.210   4.275 -0.6966 -0.1269 -0.0525
  645THF     C211374   4.933   2.175   4.157 -0.0969  0.4479  1.0171
  645THF     C311375   4.895   2.348   4.310 -0.8452 -0.3789 -0.1317
  645THF     H411376   4.866   2.204   4.075 -0.0114  1.6653  1.3603
  645THF     H511377   4.942   2.067   4.144  0.8937  0.6210  0.1234
  645THF     H611378   4.808   2.408   4.283  0.4053  0.8101 -1.6651
  645THF     H711379   4.913   2.355   4.418 -0.4603  2.2265 -0.2855
  645THF     C811380   5.024   2.388   4.227  0.5240 -0.0795 -0.2077
  645THF     C911381   5.067   2.258   4.161 -0.1138  0.0882  0.2365
  645THF    H1011382   5.107   2.443   4.270  1.0948 -0.2816 -1.0393
  645THF    H1111383   5.002   2.461   4.150 -0.4483  0.8337  0.8851
  645THF    H1211384   5.109   2.272   4.061 -1.0530 -1.8609 -0.4934
  645THF    H1311385   5.145   2.205   4.216  1.8944  1.5039 -1.1077
  646THF     O111386   4.418   3.696   3.263  0.0744  0.2626 -0.1036
  646THF     C211387   4.442   3.830   3.308 -0.0090  0.1494 -0.4070
  646THF     C311388   4.423   3.618   3.375  1.2863 -0.5668  0.3402
  646THF     H411389   4.358   3.880   3.357 -0.3909 -2.3853  1.7623
  646THF     H511390   4.459   3.895   3.222 -0.3059  0.4862 -0.2149
  646THF     H611391   4.333   3.627   3.436  0.9121  0.1286 -0.2982
  646THF     H711392   4.437   3.510   3.361 -0.1963 -0.8904  1.1600
  646THF     C811393   4.543   3.670   3.453 -0.5725 -0.0411  0.1783
  646THF     C911394   4.555   3.814   3.411 -0.2131 -0.1214 -0.2058
  646THF    H1011395   4.632   3.610   3.436 -0.3882 -0.0829  1.2079
  646THF    H1111396   4.520   3.663   3.560 -0.5084  0.8786  0.2603
  646THF    H1211397   4.542   3.882   3.495  1.8690 -0.4247  0.4245
  646THF    H1311398   4.653   3.833   3.368  1.8886 -3.6379  2.5169
  647THF     O111399   1.307   4.905   2.750  0.5302 -0.3701  0.0678
  647THF     C211400   1.205   4.970   2.668  0.1845  0.0569  0.1890
  647THF     C311401   1.312   4.976   2.874  0.1351  0.9247  0.0236
  647THF     H411402   1.164   4.913   2.585 -0.9763  1.4521 -0.2332
  647THF     H511403   1.250   5.060   2.626 -0.9669  0.3147 -0.5449
  647THF     H611404   1.340   4.917   2.960  0.0120 -0.1030 -0.6282
  647THF     H711405   1.380   5.062   2.872  0.1169  1.0820  2.8846
  647THF     C811406   1.168   5.027   2.895  0.6261  0.7266  0.8193
  647THF     C911407   1.091   5.003   2.763 -0.6943  0.1856  0.3286
  647THF    H1011408   1.166   5.133   2.917  0.7695  0.7934  0.5166
  647THF    H1111409   1.118   4.968   2.972 -1.2789  0.0435 -0.8209
  647THF    H1211410   1.028   4.916   2.777 -0.3271 -0.3968 -1.3330
  647THF    H1311411   1.031   5.088   2.730 -0.1526  1.1553  1.7572
  648THF     O111412   3.908   5.036   5.080 -0.6027  0.0840  0.1085
  648THF     C211413   3.880   4.964   5.199 -0.5298  0.2288  0.5284
  648THF     C311414   3.999   4.961   4.997 -0.6770  0.1453  0.1331
  648THF     H411415   3.823   4.874   5.172  0.7403 -0.5139  0.2114
  648THF     H511416   3.827   5.004   5.285  1.8852  2.0115  1.2747
  648THF     H611417   3.945   4.874   4.961  0.6760 -1.3228  1.4780
  648THF     H711418   4.036   5.014   4.909 -0.8541 -0.4127 -0.2784
  648THF     C811419   4.105   4.932   5.102 -0.0087  1.3592 -0.7055
  648THF     C911420   4.022   4.932   5.238 -0.3786  0.6936  0.3437
  648THF    H1011421   4.176   5.008   5.134  0.2275 -0.1223  2.6882
  648THF    H1111422   4.164   4.841   5.092 -0.3740  0.3542  3.9983
  648THF    H1211423   4.035   4.833   5.282  1.9626  0.6076 -0.3806
  648THF    H1311424   4.064   5.003   5.309 -0.0007 -0.0514  0.8814
  649THF     O111425   2.021   5.169   2.274  1.0902  0.1649 -0.1017
  649THF     C211426   2.089   5.246   2.179  0.4271 -0.0582  0.2464
  649THF     C311427   1.934   5.259   2.348  0.4834 -0.5453 -0.4613
  649THF     H411428   2.017   5.263   2.099 -0.0064  2.6075  1.1191
  649THF     H511429   2.178   5.192   2.145  0.0092 -0.4912 -0.1748
  649THF     H611430   1.845   5.280   2.288 -0.5372  1.9085  1.7476
  649THF     H711431   1.898   5.224   2.444 -2.4391  1.9185 -0.5192
  649THF     C811432   2.028   5.377   2.374 -0.4363 -0.0209 -0.7347
  649THF     C911433   2.113   5.377   2.249 -0.8781 -0.1821  0.4234
  649THF    H1011434   2.084   5.351   2.463 -2.2078  2.3209  1.1812
  649THF    H1111435   1.979   5.474   2.389 -1.8758 -0.9407  0.7620
  649THF    H1211436   2.086   5.460   2.184 -1.1535 -1.2046 -0.7870
  649THF    H1311437   2.216   5.399   2.276 -0.5538 -0.1518 -0.8202
  650THF     O111438   1.230   2.244   0.404 -0.3121  0.3486  0.3570
  650THF     C211439   1.324   2.157   0.346 -0.2496 -0.1240  0.5322
  650THF     C311440   1.238   2.375   0.342 -0.0980 -0.0954 -0.1969
  650THF     H411441   1.291   2.055   0.367 -3.2343  0.0915 -2.2582
  650THF     H511442   1.424   2.188   0.378  0.3595 -0.9793 -0.4781
  650THF     H611443   1.143   2.425   0.364  1.6563  1.7289  4.4056
  650THF     H711444   1.323   2.435   0.375 -0.0724 -0.1790 -0.1142
  650THF     C811445   1.259   2.336   0.195  0.1586  0.2552 -0.2882
  650THF     C911446   1.308   2.189   0.194  0.0651 -0.2924  0.6975
  650THF    H1011447   1.334   2.396   0.144  1.2947 -2.2183 -1.7017
  650THF    H1111448   1.167   2.355   0.140 -0.0160  0.5980  0.1146
  650THF    H1211449   1.244   2.121   0.138  1.2686  1.7123 -3.5107
  650THF    H1311450   1.405   2.173   0.147 -0.7687 -1.9881 -0.5244
  651THF     O111451   3.202   3.505   2.176  0.0143  0.1830 -0.4705
  651THF     C211452   3.321   3.583   2.170  0.8053 -0.2674 -0.0393
  651THF     C311453   3.228   3.381   2.111  0.7908 -0.5761 -0.0573
  651THF     H411454   3.395   3.539   2.237 -0.2024 -1.0595  0.5983
  651THF     H511455   3.314   3.684   2.211 -0.3789 -0.6213  0.7147
  651THF     H611456   3.264   3.315   2.189  0.7459 -0.8996 -0.3108
  651THF     H711457   3.133   3.334   2.083  0.1311 -0.0400  1.2158
  651THF     C811458   3.332   3.407   2.009  0.2937 -0.6058  0.4723
  651THF     C911459   3.378   3.559   2.031  0.3474  0.7302 -0.6377
  651THF    H1011460   3.289   3.393   1.910 -1.5259  1.6021  0.8723
  651THF    H1111461   3.409   3.333   2.030 -0.9924 -2.2353 -0.3119
  651THF    H1211462   3.485   3.578   2.023  0.3744  1.4526  1.0549
  651THF    H1311463   3.324   3.620   1.959 -0.2923  0.9466  0.0124
  652THF     O111464   4.855   2.983   0.543 -0.0403 -0.0822  0.4453
  652THF     C211465   4.966   2.897   0.569  1.1478 -0.3763 -0.4859
  652THF     C311466   4.778   2.917   0.445  0.1453 -0.3235  0.3147
  652THF     H411467   4.947   2.820   0.644 -2.1935  0.6887 -0.0849
  652THF     H511468   5.048   2.959   0.605 -1.2464  3.2751 -0.8209
  652THF     H611469   4.703   2.848   0.485 -1.6571  1.9345  1.0766
  652THF     H711470   4.723   2.991   0.388  0.2539 -0.1537  0.4298
  652THF     C811471   4.880   2.841   0.358  0.0224 -0.4773 -0.2516
  652THF     C911472   4.999   2.835   0.441  0.0287  0.4749 -0.1555
  652THF    H1011473   4.909   2.902   0.272 -0.2015 -2.2983 -1.6803
  652THF    H1111474   4.842   2.747   0.320 -1.0383 -1.2096  2.3730
  652THF    H1211475   5.051   2.740   0.452  0.1125  0.7066  1.6561
  652THF    H1311476   5.067   2.900   0.385  0.9088 -2.8004 -3.2254
  653THF     O111477   0.988   3.838   3.945 -0.0314  0.6650 -0.2452
  653THF     C211478   0.964   3.969   3.992  0.7606 -0.8596 -0.4193
  653THF     C311479   0.920   3.815   3.818 -0.0352  0.5793 -0.1607
  653THF     H411480   1.053   3.995   4.049  0.5145 -1.9796  0.5317
  653THF     H511481   0.885   3.966   4.066 -1.5731 -0.1296 -2.7318
  653THF     H611482   0.953   3.744   3.742 -1.0135  1.4653 -1.4531
  653THF     H711483   0.817   3.796   3.847 -0.3028  3.3735  1.0535
  653THF     C811484   0.938   3.946   3.748  0.3558 -0.0781 -0.0077
  653THF     C911485   0.928   4.047   3.861 -0.2888 -0.6289 -0.1068
  653THF    H1011486   0.857   3.944   3.674 -0.6008  0.7382  0.9757
  653THF    H1111487   1.038   3.946   3.705  1.1145  0.8813  1.6467
  653THF    H1211488   0.977   4.144   3.854  2.7966 -2.0769 -0.3350
  653THF    H1311489   0.822   4.071   3.862 -0.1034  0.3242 -1.3364
  654THF     O111490   5.181   4.377   0.398  0.2309 -0.1104  0.3361
  654THF     C211491   5.101   4.493   0.353  0.1212  0.4980 -0.2966
  654THF     C311492   5.318   4.406   0.363 -0.1269  0.0907  0.2378
  654THF     H411493   5.006   4.500   0.405  0.5226 -0.7757  0.6660
  654THF     H511494   5.080   4.488   0.246 -0.8684 -0.6582 -0.0792
  654THF     H611495   5.377   4.370   0.448  0.9730  0.5173 -0.3280
  654THF     H711496   5.346   4.362   0.268 -0.9062 -1.1760  0.5742
  654THF     C811497   5.330   4.560   0.367  0.4901  0.4086 -0.1851
  654THF     C911498   5.189   4.613   0.400  0.1594 -0.6247 -0.2879
  654THF    H1011499   5.345   4.620   0.277  3.9285  0.4521  0.2523
  654THF    H1111500   5.409   4.596   0.434  0.4247 -0.5613  0.4289
  654THF    H1211501   5.175   4.646   0.503  1.0597 -0.5236 -0.1914
  654THF    H1311502   5.160   4.701   0.342 -1.4639 -1.0104 -0.1019
  655THF     O111503   0.884   1.349   5.459 -0.1958  0.2229  0.0146
  655THF     C211504   1.011   1.282   5.432  0.7956  0.0612  0.2227
  655THF     C311505   0.790   1.251   5.504 -0.0462 -0.7942 -0.1055
  655THF     H411506   1.077   1.280   5.519 -0.4152  0.2097  1.1844
  655THF     H511507   1.070   1.334   5.357  0.2364 -0.2902 -0.4683
  655THF     H611508   0.819   1.225   5.606 -1.1732  0.8016  0.6509
  655THF     H711509   0.687   1.286   5.497  0.1377  0.3571  2.0656
  655THF     C811510   0.820   1.137   5.403 -0.0802 -0.5429  0.0660
  655THF     C911511   0.971   1.134   5.393 -0.1477 -0.6705  0.4243
  655THF    H1011512   0.785   1.172   5.306 -0.4598  1.2196  0.8015
  655THF    H1111513   0.773   1.044   5.436 -1.1209  0.6412  2.1304
  655THF    H1211514   1.015   1.061   5.462 -1.2190 -0.7917  0.9996
  655THF    H1311515   1.001   1.123   5.289  2.6270  0.1566  1.0570
  656THF     O111516   4.987   0.486   0.719 -0.3774  0.3081 -0.2352
  656THF     C211517   4.894   0.570   0.648  0.6063 -0.3436  0.1138
  656THF     C311518   5.033   0.388   0.629  0.4034 -0.4185 -0.6431
  656THF     H411519   4.961   0.638   0.594  2.1862 -0.7972  1.4392
  656THF     H511520   4.827   0.617   0.720 -0.1273 -0.7560 -0.2807
  656THF     H611521   5.115   0.425   0.568  1.0696  1.1390  1.1003
  656THF     H711522   5.068   0.304   0.690  0.1672 -0.7468 -0.9533
  656THF     C811523   4.907   0.351   0.550 -0.2947  0.0451 -0.5501
  656THF     C911524   4.812   0.476   0.560  0.2244  0.5535  0.2553
  656THF    H1011525   4.856   0.259   0.579  0.0972 -0.2350 -0.7480
  656THF    H1111526   4.943   0.335   0.449  3.5423 -0.0764  0.6970
  656THF    H1211527   4.785   0.529   0.468  0.9424  0.8610  0.2188
  656THF    H1311528   4.718   0.451   0.609 -0.7782  3.4421 -0.0016
  657THF     O111529   4.302   5.218   0.908 -0.1230 -0.6394 -0.0094
  657THF     C211530   4.443   5.247   0.929 -0.4648  0.1923 -0.3702
  657THF     C311531   4.281   5.182   0.770 -0.0298  0.3558 -0.7592
  657THF     H411532   4.476   5.210   1.026 -1.9751  1.7915  0.8076
  657THF     H511533   4.453   5.355   0.936  2.1434 -0.0514  1.0559
  657THF     H611534   4.239   5.082   0.759  0.8382  0.0915 -1.8556
  657THF     H711535   4.207   5.251   0.728  1.3051  2.2384 -0.1416
  657THF     C811536   4.417   5.210   0.703 -0.7363  0.1376  0.5447
  657THF     C911537   4.516   5.190   0.816 -0.4819  0.6390 -0.3083
  657THF    H1011538   4.422   5.311   0.662  0.0136 -0.7478 -1.7224
  657THF    H1111539   4.449   5.155   0.614  1.2758  0.0709  1.2472
  657THF    H1211540   4.524   5.082   0.830 -3.4901  0.3692  0.1593
  657THF    H1311541   4.609   5.244   0.802 -0.3323  0.5328  0.2711
  658THF     O111542   3.070   1.398   3.244  0.4676 -0.1343  0.1577
  658THF     C211543   2.995   1.476   3.331  0.1268 -1.0782 -0.6864
  658THF     C311544   3.180   1.470   3.200 -0.2611 -0.8585 -0.2498
  658THF     H411545   3.033   1.451   3.430 -1.5546 -0.9006  0.0343
  658THF     H511546   2.892   1.445   3.313 -0.6057  1.9966 -2.5191
  658THF     H611547   3.251   1.462   3.282 -1.5636 -2.1824  0.7778
  658THF     H711548   3.220   1.423   3.110 -1.9627 -0.5810 -1.1869
  658THF     C811549   3.127   1.614   3.182  0.0118  0.5039  0.0260
  658THF     C911550   3.015   1.619   3.294  1.0787  0.1286  0.3148
  658THF    H1011551   3.091   1.636   3.081  0.9035  1.3068 -0.1331
  658THF    H1111552   3.208   1.680   3.213  1.7331 -2.1557  1.5928
  658THF    H1211553   3.048   1.677   3.380  3.1429 -0.3154 -0.1145
  658THF    H1311554   2.923   1.661   3.254  0.9076 -0.7723 -0.2853
  659THF     O111555   2.237   1.260   5.382  0.3876 -0.3736  0.3369
  659THF     C211556   2.310   1.273   5.257  0.2040  0.4249 -0.1042
  659THF     C311557   2.315   1.308   5.488  0.2029 -0.3079  0.1981
  659THF     H411558   2.243   1.270   5.170 -0.5081 -0.0036  0.4496
  659THF     H511559   2.385   1.194   5.253  1.0015  1.1789 -0.2107
  659THF     H611560   2.251   1.351   5.565 -1.1891  0.7718 -1.4978
  659THF     H711561   2.366   1.233   5.548 -1.6731 -1.1746  0.7720
  659THF     C811562   2.389   1.426   5.428  0.3313 -0.5858  0.3472
  659THF     C911563   2.376   1.406   5.273  0.3321 -0.3224 -0.5268
  659THF    H1011564   2.495   1.434   5.450  0.8005  2.2189 -2.0965
  659THF    H1111565   2.350   1.524   5.457 -0.7355 -0.5232 -1.1290
  659THF    H1211566   2.309   1.476   5.223 -0.1606  0.6021  1.3385
  659THF    H1311567   2.471   1.406   5.219 -0.1401 -1.6620 -1.3964
  660THF     O111568   5.444   4.279   2.412 -0.5580  0.1857  0.2636
  660THF     C211569   5.528   4.234   2.510  0.2981  0.7827 -0.4041
  660THF     C311570   5.469   4.420   2.411 -0.3821  0.8616 -0.1980
  660THF     H411571   5.538   4.126   2.508  2.5415  0.8532  1.7991
  660THF     H511572   5.495   4.248   2.613 -1.0949 -0.3507 -0.6563
  660THF     H611573   5.436   4.466   2.318  0.0805 -0.6887 -1.1637
  660THF     H711574   5.416   4.464   2.496 -0.1443 -0.6810  0.7936
  660THF     C811575   5.617   4.429   2.414  0.4208  0.0557  0.8588
  660THF     C911576   5.659   4.299   2.476 -0.0900 -0.3166  0.1311
  660THF    H1011577   5.650   4.515   2.472  2.5802  0.1760 -0.4732
  660THF    H1111578   5.651   4.440   2.311 -0.2441 -1.6473  0.4175
  660THF    H1211579   5.716   4.241   2.403  0.7522  1.4991 -0.6945
  660THF    H1311580   5.702   4.311   2.576 -0.3957 -3.4231  0.7607
  661THF     O111581   1.104   1.491   3.720  0.1476  0.4395 -0.3072
  661THF     C211582   1.029   1.614   3.732 -0.3684 -0.4927  0.0116
  661THF     C311583   1.153   1.472   3.851 -0.3723 -0.1024 -0.4350
  661THF     H411584   0.940   1.590   3.790  0.0565 -2.1136  0.0374
  661THF     H511585   1.005   1.640   3.628 -1.3132  0.5155  0.4630
  661THF     H611586   1.069   1.469   3.921  0.7737  1.7356  1.1148
  661THF     H711587   1.219   1.387   3.867 -0.6045 -0.5676 -1.8255
  661THF     C811588   1.206   1.609   3.891 -0.9366 -0.4512 -0.8354
  661THF     C911589   1.136   1.706   3.796 -0.0153 -0.4141 -0.1401
  661THF    H1011590   1.312   1.630   3.874 -0.9061  1.1040  0.9330
  661THF    H1111591   1.175   1.627   3.994 -1.4038  2.2795 -1.3574
  661THF    H1211592   1.095   1.795   3.843  0.8844  0.6904 -1.3816
  661THF    H1311593   1.207   1.750   3.725  1.4460  0.7468  1.9127
  662THF     O111594   1.660   3.233   4.344 -0.3899  0.3395  0.4108
  662THF     C211595   1.700   3.116   4.270 -0.1823  0.0546  0.1440
  662THF     C311596   1.779   3.296   4.387  0.5989 -0.0447  1.1058
  662THF     H411597   1.721   3.148   4.168 -2.3154  1.3824  0.0550
  662THF     H511598   1.628   3.035   4.263 -2.1590  1.6690  0.7289
  662THF     H611599   1.822   3.348   4.301  0.6504 -1.2759  0.3713
  662THF     H711600   1.762   3.385   4.447  4.7766  1.5156  0.2963
  662THF     C811601   1.867   3.176   4.445  0.8029 -0.3335 -0.0152
  662THF     C911602   1.826   3.070   4.354  0.2753  0.1410  0.3737
  662THF    H1011603   1.828   3.146   4.542  1.2918 -1.3673 -0.1269
  662THF    H1111604   1.976   3.183   4.447  0.8718 -0.3339 -2.0329
  662THF    H1211605   1.904   3.029   4.290  0.1178 -0.7547  0.7388
  662THF    H1311606   1.781   2.989   4.411 -3.2389  1.3472 -0.4508
  663THF     O111607   5.355   4.606   4.826  0.5090 -0.0949 -0.1485
  663THF     C211608   5.261   4.591   4.719  0.3420  0.2824  0.2847
  663THF     C311609   5.425   4.488   4.849 -0.0071 -0.1040  0.2142
  663THF     H411610   5.299   4.649   4.634 -0.7766  0.3173 -0.2118
  663THF     H511611   5.169   4.640   4.751  0.0607 -0.7390  1.0982
  663THF     H611612   5.505   4.487   4.775 -0.6822 -1.4620 -0.5247
  663THF     H711613   5.457   4.477   4.953  2.0504  0.2908 -0.3307
  663THF     C811614   5.319   4.382   4.820 -1.6271  0.0689  0.5172
  663THF     C911615   5.235   4.436   4.704  0.0242 -0.0428  0.5469
  663THF    H1011616   5.264   4.373   4.914  0.2472 -0.4389  1.6263
  663THF    H1111617   5.370   4.287   4.807 -0.0390  0.9388  0.0562
  663THF    H1211618   5.262   4.399   4.605  0.0342  0.6903  0.2633
  663THF    H1311619   5.130   4.418   4.727 -0.2001  0.0400 -0.3871
  664THF     O111620   4.546   0.955   3.827 -0.1386 -0.7454  0.6611
  664THF     C211621   4.622   1.051   3.748 -0.1019  0.4632 -0.0722
  664THF     C311622   4.563   0.826   3.769  0.1748  0.7417 -0.7172
  664THF     H411623   4.646   1.139   3.808  0.1534  1.8821 -2.1888
  664THF     H511624   4.577   1.082   3.654  0.2129 -0.6414 -0.6146
  664THF     H611625   4.547   0.749   3.844  3.4412  0.0404 -0.6071
  664THF     H711626   4.493   0.811   3.686  0.2421  2.6227 -1.1658
  664THF     C811627   4.712   0.827   3.737 -0.0863 -0.2326 -0.4795
  664THF     C911628   4.750   0.970   3.715  0.0722 -0.3893 -0.3389
  664THF    H1011629   4.718   0.762   3.649  1.9584  0.5021 -0.9493
  664THF    H1111630   4.771   0.782   3.817  0.5034  0.6990 -0.3610
  664THF    H1211631   4.821   0.993   3.794 -0.8216 -1.4821  0.8222
  664THF    H1311632   4.794   1.006   3.622  1.4794 -0.1692  0.3828
  665THF     O111633   0.159   1.729   0.058 -0.7310  0.0118  0.1404
  665THF     C211634   0.086   1.820   0.138 -0.3361  0.0548  0.3448
  665THF     C311635   0.294   1.761   0.045 -0.6213  0.7628  0.0893
  665THF     H411636   0.098   1.790   0.242  0.5779 -0.0437  0.2209
  665THF     H511637  -0.019   1.836   0.113 -0.6636 -0.3569  1.4376
  665THF     H611638   0.362   1.697   0.102 -0.3929 -0.2916 -1.3342
  665THF     H711639   0.316   1.757  -0.061 -2.9197  1.7138 -0.4808
  665THF     C811640   0.301   1.904   0.096  0.7315  0.6506 -0.1838
  665THF     C911641   0.157   1.953   0.096 -0.2469 -0.0792 -0.0040
  665THF    H1011642   0.368   1.979   0.053  0.3731  0.5270 -0.9709
  665THF    H1111643   0.332   1.899   0.200  0.4425  0.5856 -0.1018
  665THF    H1211644   0.123   2.031   0.164  0.0056 -0.4126  0.5161
  665THF    H1311645   0.113   1.981   0.000 -0.2943 -0.5042 -0.1086
  666THF     O111646   0.138   3.591   0.301  0.3314  0.1522  1.0340
  666THF     C211647   0.259   3.667   0.272 -0.0948 -0.4610  0.4547
  666THF     C311648   0.136   3.569   0.440 -0.3206 -1.1607  0.0875
  666THF     H411649   0.267   3.715   0.174  1.8740  3.0518  2.1307
  666THF     H511650   0.350   3.610   0.285 -0.5006 -0.9956  0.9813
  666THF     H611651   0.031   3.572   0.470 -0.9333  1.1694 -1.9053
  666THF     H711652   0.197   3.484   0.466  3.5050  1.0240 -0.9938
  666THF     C811653   0.207   3.697   0.484 -0.2676 -0.0820 -0.3381
  666THF     C911654   0.247   3.774   0.367 -0.2434 -0.1683  0.1757
  666THF    H1011655   0.290   3.667   0.547 -1.7820 -0.0801  1.7711
  666THF    H1111656   0.134   3.759   0.537  0.7736 -0.8226  2.1303
  666THF    H1211657   0.171   3.843   0.330 -0.5773 -0.4590  0.3079
  666THF    H1311658   0.341   3.827   0.382 -2.5273  4.3241  0.1208
  667THF     O111659   1.302   0.866   2.561  0.3483 -0.2965 -0.1077
  667THF     C211660   1.212   0.863   2.669 -0.1991 -0.0214  0.6269
  667THF     C311661   1.259   0.974   2.479 -0.3963  0.7911 -0.4043
  667THF     H411662   1.253   0.806   2.752 -2.8467 -0.0676  2.0282
  667THF     H511663   1.117   0.816   2.643 -1.3144  1.7378  1.3424
  667THF     H611664   1.324   1.004   2.396  1.5141  0.0304  0.7697
  667THF     H711665   1.161   0.948   2.440 -0.8447  2.7929 -0.7419
  667THF     C811666   1.249   1.083   2.584  0.4496 -0.1694 -0.3456
  667THF     C911667   1.192   1.016   2.699  0.1758 -0.4306 -0.4547
  667THF    H1011668   1.198   1.173   2.551  0.1772 -0.4286 -0.6431
  667THF    H1111669   1.354   1.108   2.601  0.9037 -2.1854  0.0533
  667THF    H1211670   1.236   1.054   2.791 -1.9403 -0.1582  0.5091
  667THF    H1311671   1.085   1.038   2.698  0.4354  1.3047  1.8261
  668THF     O111672   4.052   3.487   5.420  0.1180  0.2665 -0.6377
  668THF     C211673   4.161   3.560   5.490  0.0180 -0.2408 -0.1080
  668THF     C311674   4.047   3.532   5.282  0.0723  0.2553 -0.2319
  668THF     H411675   4.194   3.529   5.589  2.5226 -2.2163 -1.4220
  668THF     H511676   4.122   3.661   5.492 -2.0103 -0.9712 -0.4535
  668THF     H611677   3.992   3.460   5.221 -0.0304 -0.9663  1.2513
  668THF     H711678   4.004   3.632   5.273  0.5023  0.4143 -0.5646
  668THF     C811679   4.194   3.545   5.253  0.5063 -0.0290  0.1016
  668THF     C911680   4.267   3.546   5.381 -0.0446  0.3418 -0.0325
  668THF    H1011681   4.212   3.630   5.186 -0.1865 -1.8476 -2.5658
  668THF    H1111682   4.227   3.458   5.195  2.7364 -0.1054  1.3932
  668THF    H1211683   4.327   3.458   5.403 -0.9475  0.3381  2.9900
  668THF    H1311684   4.340   3.627   5.388  1.3746 -0.8611 -0.4647
  669THF     O111685   1.401   5.364   3.509 -0.1724 -0.3345  0.1172
  669THF     C211686   1.317   5.250   3.481 -0.7699 -0.0297  0.2840
  669THF     C311687   1.329   5.461   3.585  0.1855 -0.1137  0.5927
  669THF     H411688   1.374   5.160   3.504  0.3808  0.9843  1.5525
  669THF     H511689   1.297   5.234   3.376 -0.2842 -1.3044  0.3723
  669THF     H611690   1.401   5.504   3.654 -1.6203 -1.0120  3.1823
  669THF     H711691   1.280   5.522   3.509  1.8013 -0.4198 -0.7356
  669THF     C811692   1.229   5.378   3.663 -0.2572 -0.1899  0.0778
  669THF     C911693   1.194   5.264   3.569  0.0302  0.1984 -0.9647
  669THF    H1011694   1.139   5.431   3.695  0.8639 -0.4820  4.3518
  669THF    H1111695   1.276   5.345   3.756  0.6271 -0.4080 -0.4424
  669THF    H1211696   1.184   5.170   3.624  1.4568  1.0243  0.7956
  669THF    H1311697   1.101   5.276   3.513 -0.8054  0.0141  0.3106
  670THF     O111698   0.796   4.114   5.041 -0.1557 -0.1507  0.6749
  670THF     C211699   0.672   4.183   5.015  0.8606 -0.0113 -0.0309
  670THF     C311700   0.809   4.000   4.953  0.1417  0.0480 -0.2688
  670THF     H411701   0.685   4.276   4.960  0.8258  1.1254  1.7853
  670THF     H511702   0.617   4.211   5.105  0.6773  2.0266 -0.7350
  670THF     H611703   0.840   4.029   4.852  1.0818  1.6834  0.4495
  670THF     H711704   0.873   3.923   4.994 -2.9578 -2.0494  1.0255
  670THF     C811705   0.663   3.951   4.949 -0.0300 -0.3523 -0.7483
  670THF     C911706   0.597   4.082   4.931 -0.1103  0.0655  0.3374
  670THF    H1011707   0.638   3.903   5.044  0.9736  0.1076 -0.2387
  670THF    H1111708   0.630   3.886   4.868 -2.2205  0.8579 -0.9044
  670THF    H1211709   0.606   4.117   4.829 -2.2169 -0.6199 -0.1311
  670THF    H1311710   0.490   4.066   4.945  0.0070  0.5121  2.0798
  671THF     O111711   1.535   5.256   4.949 -0.3171  0.7016 -0.5401
  671THF     C211712   1.638   5.266   4.858  0.0815 -0.1345  0.4043
  671THF     C311713   1.414   5.223   4.881 -0.3881 -0.5755 -0.2208
  671THF     H411714   1.708   5.184   4.876  0.3107 -0.1199 -0.3657
  671THF     H511715   1.694   5.358   4.877 -0.0967 -0.3955  2.3927
  671THF     H611716   1.347   5.168   4.948 -2.5484  0.2848 -1.5963
  671THF     H711717   1.362   5.315   4.856  0.0649 -0.0577  0.6700
  671THF     C811718   1.450   5.161   4.750 -0.1212  0.3834 -0.0546
  671THF     C911719   1.569   5.250   4.719 -0.1306 -0.1491 -0.1791
  671THF    H1011720   1.364   5.172   4.683 -1.4706  1.7988  1.7582
  671THF    H1111721   1.484   5.061   4.773 -2.5360 -0.1660  1.5563
  671THF    H1211722   1.632   5.200   4.646 -0.7936 -1.7026  0.2769
  671THF    H1311723   1.539   5.347   4.681  0.0549  1.3340  3.0704
  672THF     O111724   0.194   1.736   1.628  0.0566  0.4460 -0.0596
  672THF     C211725   0.250   1.807   1.529 -0.4331  0.7535 -0.8513
  672THF     C311726   0.293   1.654   1.692  0.3767  0.4725 -0.7993
  672THF     H411727   0.194   1.900   1.516  1.6485  1.9660 -1.6849
  672THF     H511728   0.248   1.749   1.436  2.3209  1.0736 -1.1978
  672THF     H611729   0.300   1.692   1.793 -0.3813 -1.4159  0.0091
  672THF     H711730   0.264   1.549   1.698 -0.6750  0.7634 -0.5562
  672THF     C811731   0.430   1.685   1.621  0.6072  0.4009 -0.4677
  672THF     C911732   0.401   1.819   1.559 -0.0622  0.1371  0.3052
  672THF    H1011733   0.455   1.614   1.541 -0.2861 -2.2308  1.4475
  672THF    H1111734   0.507   1.686   1.698  0.5228  0.4215 -0.3842
  672THF    H1211735   0.407   1.896   1.636  1.4105 -0.0874  0.4492
  672THF    H1311736   0.471   1.838   1.477 -0.3554  1.4410  0.3335
  673THF     O111737   3.188   2.090   3.196 -0.1996 -0.1208 -0.6345
  673THF     C211738   3.188   2.229   3.175 -0.2264 -0.1580 -0.3219
  673THF     C311739   3.089   2.065   3.295  0.8849 -0.0694 -0.7743
  673THF     H411740   3.096   2.259   3.126 -0.4884 -0.9794 -0.3541
  673THF     H511741   3.285   2.255   3.133  0.7917 -0.9253  1.4405
  673THF     H611742   3.005   2.040   3.230  1.9500 -0.8315 -1.8872
  673THF     H711743   3.118   1.976   3.351  2.5637  0.8302 -0.1517
  673THF     C811744   3.084   2.191   3.389 -1.0778  0.0675  0.0144
  673THF     C911745   3.175   2.289   3.317 -0.5811 -0.3137  0.3445
  673THF    H1011746   3.122   2.165   3.488  1.1375  0.0412 -0.7770
  673THF    H1111747   2.978   2.215   3.380 -0.9059  0.0979 -2.6281
  673THF    H1211748   3.139   2.389   3.298 -2.0323 -0.9638 -0.4675
  673THF    H1311749   3.270   2.287   3.371  0.2761 -0.8833 -1.1183
  674THF     O111750   1.359   1.291   2.326  0.0390 -0.3571 -0.1908
  674THF     C211751   1.469   1.255   2.245  0.3905  0.6018  0.1561
  674THF     C311752   1.407   1.396   2.404  1.0660  0.0995 -0.3520
  674THF     H411753   1.446   1.175   2.174  1.1917 -0.6047  1.2064
  674THF     H511754   1.555   1.211   2.296 -0.5426 -0.9283  0.4613
  674THF     H611755   1.337   1.462   2.455  1.0716 -1.4477  1.7774
  674THF     H711756   1.469   1.341   2.474  1.6068 -1.1593 -1.7554
  674THF     C811757   1.492   1.481   2.304  0.4916 -0.0005 -1.6002
  674THF     C911758   1.516   1.387   2.186 -0.1533 -0.5615  0.2509
  674THF    H1011759   1.576   1.523   2.359 -0.8051  1.7426 -0.8182
  674THF    H1111760   1.442   1.572   2.270  0.9049  1.6922  1.8728
  674THF    H1211761   1.461   1.415   2.096 -1.1111  0.4239  1.1058
  674THF    H1311762   1.622   1.380   2.165 -0.2888 -0.8652 -0.3411
  675THF     O111763   1.109   0.995   3.704 -0.0250 -0.3700  0.2549
  675THF     C211764   1.050   0.870   3.714 -0.4527  0.4569 -0.1379
  675THF     C311765   1.136   1.001   3.566 -0.1002 -0.2510 -0.7567
  675THF     H411766   0.954   0.878   3.663 -1.4044 -1.1772  1.3103
  675THF     H511767   1.029   0.842   3.817  0.1226 -0.9146 -0.3619
  675THF     H611768   1.047   1.015   3.505 -0.3567 -0.7587 -0.5018
  675THF     H711769   1.205   1.084   3.552 -1.7826  0.9462 -2.3994
  675THF     C811770   1.202   0.868   3.534 -0.1527  0.4205 -0.6720
  675THF     C911771   1.148   0.781   3.645  0.4312  0.6818  0.0811
  675THF    H1011772   1.309   0.887   3.545  0.0967 -1.7105  1.1404
  675THF    H1111773   1.167   0.838   3.435  0.3429 -2.0202 -0.1485
  675THF    H1211774   1.095   0.702   3.591 -0.8306  0.5756  1.3978
  675THF    H1311775   1.228   0.751   3.713  0.0688 -0.6367 -0.0476
  676THF     O111776   1.367   3.488   2.214  0.5199  0.2021  0.3877
  676THF     C211777   1.392   3.442   2.083 -0.5201 -0.1507  0.4844
  676THF     C311778   1.493   3.517   2.280  0.7048 -0.3796  0.0153
  676THF     H411779   1.298   3.458   2.030  0.4167 -0.2404 -1.2655
  676THF     H511780   1.420   3.337   2.078  2.0706  0.4298  1.0357
  676THF     H611781   1.487   3.587   2.363 -0.8938  0.2947 -0.6311
  676THF     H711782   1.542   3.426   2.314  2.2441  0.8277  1.2216
  676THF     C811783   1.573   3.577   2.156  0.4066 -0.2167  0.5214
  676THF     C911784   1.497   3.543   2.030 -0.0117  1.0403  0.6337
  676THF    H1011785   1.672   3.533   2.152  0.2995 -0.3725 -2.2428
  676THF    H1111786   1.591   3.682   2.179 -1.2337  0.1554  0.2791
  676THF    H1211787   1.459   3.632   1.980 -0.3180 -0.7865 -2.7354
  676THF    H1311788   1.559   3.497   1.953 -0.6651  1.8379 -0.3913
  677THF     O111789   0.410   0.846   0.739  0.1063  0.3545  0.2984
  677THF     C211790   0.515   0.888   0.823 -0.2445  0.6193 -0.7981
  677THF     C311791   0.303   0.942   0.768  0.0584 -0.1360 -0.2192
  677THF     H411792   0.565   0.969   0.770  0.4489 -0.2233 -1.4657
  677THF     H511793   0.585   0.804   0.825  0.3477  1.1191  0.7908
  677THF     H611794   0.343   1.037   0.734  1.0770 -0.9471 -1.4234
  677THF     H711795   0.208   0.920   0.719 -0.1588 -0.0448  0.1630
  677THF     C811796   0.298   0.924   0.919  0.2792 -0.0251 -0.6508
  677THF     C911797   0.443   0.925   0.961 -0.3614  0.0156  1.2886
  677THF    H1011798   0.241   0.836   0.949 -0.1964  0.2569 -0.7011
  677THF    H1111799   0.235   1.003   0.962 -0.2323 -0.8101  0.0758
  677THF    H1211800   0.482   1.026   0.973  3.7882 -1.1117 -0.7450
  677THF    H1311801   0.463   0.858   1.045 -0.7532  1.1749  2.3253
  678THF     O111802   1.655   0.308   0.074 -0.3306 -0.2676  0.3668
  678THF     C211803   1.648   0.218   0.189  0.5099 -0.6145 -0.1034
  678THF     C311804   1.518   0.330   0.040  1.0564 -0.2034 -0.2438
  678THF     H411805   1.643   0.279   0.280  0.9768  0.7203 -0.9304
  678THF     H511806   1.742   0.163   0.200  0.6077 -0.7401 -1.4301
  678THF     H611807   1.472   0.395   0.115  0.5063 -1.7108  0.7674
  678THF     H711808   1.513   0.378  -0.058 -2.6320 -1.6703 -0.9529
  678THF     C811809   1.458   0.190   0.051 -0.2997  1.0166  0.0995
  678THF     C911810   1.527   0.121   0.168 -1.0128 -0.1619  0.1211
  678THF    H1011811   1.480   0.133  -0.039  0.8918 -0.4104  1.2400
  678THF    H1111812   1.349   0.201   0.054 -0.5554 -0.0919 -2.5187
  678THF    H1211813   1.470   0.135   0.260  0.3196 -1.9399  1.2820
  678THF    H1311814   1.560   0.018   0.158 -1.5858 -0.6069  2.2671
  679THF     O111815   2.168   3.834   2.006  0.2832 -0.0129 -0.0433
  679THF     C211816   2.146   3.721   1.924  0.1129  0.2016 -0.3918
  679THF     C311817   2.186   3.949   1.917 -0.2531  0.3454  0.1645
  679THF     H411818   2.097   3.643   1.984  1.1346 -0.7144 -0.7249
  679THF     H511819   2.246   3.691   1.893 -0.1610 -1.6611  0.3393
  679THF     H611820   2.157   4.035   1.977  1.8512 -0.2743  2.2164
  679THF     H711821   2.287   3.955   1.877  0.1499  1.0559  1.2386
  679THF     C811822   2.092   3.929   1.800 -0.4659  0.1422 -0.7677
  679THF     C911823   2.063   3.778   1.810  0.4535  0.5979  0.5319
  679THF    H1011824   2.128   3.953   1.700  1.8237 -1.5932 -0.4210
  679THF    H1111825   1.994   3.977   1.802 -1.0513 -1.0213 -0.8294
  679THF    H1211826   1.958   3.781   1.839  0.0159  2.2270 -1.0444
  679THF    H1311827   2.068   3.724   1.715  0.2729  0.8523  0.3771
  680THF     O111828   0.806   4.342   3.859  0.3238 -0.7767  0.5926
  680THF     C211829   0.728   4.380   3.970  0.6638  0.2177  0.3890
  680THF     C311830   0.721   4.365   3.745 -0.1138 -0.0691  0.9890
  680THF     H411831   0.740   4.487   3.987  0.7375  0.2665  0.0458
  680THF     H511832   0.759   4.337   4.065 -1.4338 -0.0707  0.9890
  680THF     H611833   0.761   4.439   3.675 -1.8476  0.2521  0.2940
  680THF     H711834   0.713   4.273   3.687  0.1167  1.1085 -1.0188
  680THF     C811835   0.581   4.404   3.793  0.0396 -0.4451  0.2414
  680THF     C911836   0.581   4.349   3.932 -0.6553  0.1128 -0.0773
  680THF    H1011837   0.513   4.352   3.725  2.6044 -1.6161 -1.6058
  680THF    H1111838   0.570   4.513   3.791  3.7350  0.0519  0.3910
  680THF    H1211839   0.520   4.405   4.003 -0.0540 -1.7479  2.0348
  680THF    H1311840   0.553   4.244   3.932  0.0218 -0.1308  2.0825
  681THF     O111841   0.015   0.030   1.403  0.4079  0.1593 -0.4680
  681THF     C211842  -0.042   0.160   1.386 -0.0352  0.3328  0.4206
  681THF     C311843   0.142   0.010   1.335 -0.4150 -0.6657 -0.0475
  681THF     H411844  -0.042   0.214   1.480 -2.9166 -0.8929  1.2356
  681THF     H511845  -0.144   0.154   1.348  0.5026  1.9781 -1.4515
  681THF     H611846   0.212  -0.035   1.405  0.4157 -0.1377 -0.5199
  681THF     H711847   0.137  -0.043   1.240  1.2853 -0.4882 -0.2559
  681THF     C811848   0.177   0.151   1.299 -0.2493  0.2336 -0.1745
  681THF     C911849   0.044   0.218   1.275 -0.7792  0.5392 -0.1136
  681THF    H1011850   0.255   0.162   1.223  1.9717  0.2776  1.9791
  681THF    H1111851   0.219   0.206   1.384 -3.6613  1.5962  0.8097
  681THF    H1211852   0.057   0.325   1.263 -4.1989  1.1107  0.2694
  681THF    H1311853   0.020   0.168   1.181  1.5818 -0.8145 -0.0856
  682THF     O111854   2.581   1.729   2.926  0.0428 -0.1499 -0.1844
  682THF     C211855   2.489   1.817   2.874 -0.3802 -0.2561 -0.4441
  682THF     C311856   2.689   1.809   2.984 -0.2784  0.6538 -0.5503
  682THF     H411857   2.396   1.761   2.866  0.3664 -1.3928 -1.7667
  682THF     H511858   2.515   1.844   2.771 -0.3567  0.9230 -0.1525
  682THF     H611859   2.743   1.765   3.068  0.9745 -0.1211 -1.7343
  682THF     H711860   2.762   1.838   2.909  2.0077  0.5276  1.4937
  682THF     C811861   2.611   1.930   3.046 -0.0134  0.4302  0.6106
  682THF     C911862   2.486   1.942   2.962  0.1273  0.1247  0.3932
  682THF    H1011863   2.675   2.019   3.045  2.0883 -0.8538 -3.5028
  682THF    H1111864   2.579   1.913   3.149  0.8335  1.9049  1.1544
  682THF    H1211865   2.396   1.943   3.023 -1.8799 -3.6881 -2.1029
  682THF    H1311866   2.485   2.038   2.910 -0.0136  0.1843  0.5061
  683THF     O111867   2.293   3.584   2.967  0.1245 -0.2489 -0.0592
  683THF     C211868   2.177   3.525   3.025  0.1132 -0.3431  0.1133
  683THF     C311869   2.291   3.526   2.839  0.1286  0.0296 -0.2380
  683THF     H411870   2.095   3.581   2.980 -0.3965 -0.2362  1.1524
  683THF     H511871   2.178   3.543   3.132 -0.7891 -3.2514  0.7043
  683THF     H611872   2.215   3.556   2.767  0.4192  2.5265  0.3937
  683THF     H711873   2.380   3.547   2.781 -1.3449  0.8861 -2.3257
  683THF     C811874   2.275   3.375   2.872 -0.4390  0.6270 -0.7364
  683THF     C911875   2.178   3.377   2.988 -0.6856 -0.4030  0.1807
  683THF    H1011876   2.378   3.344   2.891 -0.6409 -0.1027 -0.8264
  683THF    H1111877   2.240   3.323   2.783 -1.0542 -1.1809  0.5063
  683THF    H1211878   2.081   3.339   2.956 -1.0361  0.9997 -0.4954
  683THF    H1311879   2.219   3.315   3.068 -2.9252  0.3853  2.0387
  684THF     O111880   1.970   1.092   5.473  0.0969 -0.8244 -0.1913
  684THF     C211881   1.944   1.232   5.476 -0.7160  0.1205 -0.2991
  684THF     C311882   1.880   1.059   5.368 -0.2179 -0.7239  0.1213
  684THF     H411883   1.985   1.293   5.396 -1.0222  1.7191  0.7123
  684THF     H511884   1.991   1.273   5.566  0.3283  0.5665 -1.0243
  684THF     H611885   1.921   1.064   5.267  1.0381 -1.2921  0.5832
  684THF     H711886   1.849   0.957   5.387  0.7370 -1.0104  0.1859
  684THF     C811887   1.755   1.146   5.385  0.9226 -0.0592 -0.2081
  684THF     C911888   1.795   1.255   5.478  0.0154 -0.0305 -0.4969
  684THF    H1011889   1.668   1.094   5.423 -2.0084  3.3794 -1.6519
  684THF    H1111890   1.720   1.176   5.286 -0.7505 -2.5043 -0.4349
  684THF    H1211891   1.757   1.350   5.440 -1.9874 -0.0315  1.2937
  684THF    H1311892   1.762   1.232   5.580  0.1377  0.2027 -0.4031
  685THF     O111893   1.865   2.555   4.281  0.3988 -0.0448  0.1820
  685THF     C211894   1.996   2.520   4.249 -0.0952 -0.6336 -0.4139
  685THF     C311895   1.876   2.645   4.395  0.3666  0.5546 -0.4468
  685THF     H411896   2.059   2.598   4.205 -1.3098  0.2953 -0.5496
  685THF     H511897   2.009   2.440   4.175 -0.4193  0.2037 -1.4016
  685THF     H611898   1.915   2.740   4.359 -1.4150  0.5463 -2.6021
  685THF     H711899   1.780   2.640   4.448 -0.3345 -0.5270 -1.7475
  685THF     C811900   1.976   2.565   4.482 -0.0926  0.6251  0.2633
  685THF     C911901   2.053   2.483   4.384 -0.2870 -0.1006  0.4238
  685THF    H1011902   1.919   2.499   4.547  0.6112 -1.2536 -0.9490
  685THF    H1111903   2.035   2.628   4.548  0.4032  1.0508 -0.5649
  685THF    H1211904   2.161   2.492   4.377  0.0710 -3.0786  0.6410
  685THF    H1311905   2.029   2.379   4.405  1.9465 -0.6402  0.5687
  686THF     O111906   1.695   3.729   1.504  0.3365 -0.3187 -0.4050
  686THF     C211907   1.609   3.629   1.441  0.0131 -0.5791 -0.4894
  686THF     C311908   1.631   3.770   1.624  0.0234 -0.8363 -0.2687
  686THF     H411909   1.646   3.533   1.475 -0.1239 -0.9021 -1.2385
  686THF     H511910   1.618   3.630   1.333 -1.5118  0.0264 -0.6400
  686THF     H611911   1.660   3.708   1.708  1.5175 -0.7621 -0.7001
  686THF     H711912   1.674   3.870   1.630  0.5286 -1.0759  0.1392
  686THF     C811913   1.480   3.761   1.600 -1.2592 -0.1571 -0.1572
  686THF     C911914   1.466   3.661   1.491 -0.4569  0.0998  0.1366
  686THF    H1011915   1.458   3.860   1.561 -1.8150 -0.7961 -1.5598
  686THF    H1111916   1.421   3.739   1.689 -2.6399 -1.6050 -1.3453
  686THF    H1211917   1.421   3.564   1.514 -0.7029  0.3106  0.5538
  686THF    H1311918   1.397   3.701   1.417  0.4971 -0.8744 -1.3322
  687THF     O111919   2.263   4.659   1.040 -0.3484 -0.2097  0.4505
  687THF     C211920   2.327   4.626   0.912 -0.6123 -0.1035  0.2437
  687THF     C311921   2.284   4.802   1.072 -0.3977  0.1338  0.3689
  687THF     H411922   2.275   4.675   0.830 -0.2583  2.0173  1.2286
  687THF     H511923   2.340   4.519   0.893  0.6909 -0.5764  3.1798
  687THF     H611924   2.218   4.870   1.019  0.1274 -0.0235 -0.5118
  687THF     H711925   2.275   4.814   1.180 -0.0551 -1.9448  0.6834
  687THF     C811926   2.428   4.828   1.025 -0.5321  0.0437  0.0373
  687THF     C911927   2.462   4.701   0.941  0.2890 -0.1348  0.4784
  687THF    H1011928   2.495   4.830   1.111 -0.7246  0.4676  0.1783
  687THF    H1111929   2.444   4.919   0.967  0.9324 -0.2004  0.0268
  687THF    H1211930   2.507   4.728   0.845 -0.3985 -1.1651 -0.1618
  687THF    H1311931   2.530   4.636   0.996  0.5733  0.4073  0.7678
  688THF     O111932   0.129   5.108   4.298  0.8683 -0.1346 -0.1797
  688THF     C211933   0.046   5.034   4.210  0.1235 -0.7002 -0.1505
  688THF     C311934   0.214   5.008   4.353  0.4090  0.0718  0.5303
  688THF     H411935   0.102   5.004   4.121  0.5126 -0.8744  0.1497
  688THF     H511936  -0.038   5.096   4.180  0.0673 -1.1192 -0.8883
  688THF     H611937   0.305   4.989   4.294  0.8609  2.3841  0.4145
  688THF     H711938   0.254   5.053   4.443  1.7417  0.2577 -0.1222
  688THF     C811939   0.131   4.880   4.367 -0.2657  0.0258 -0.2840
  688THF     C911940  -0.006   4.917   4.296 -0.6089 -0.1386  0.0193
  688THF    H1011941   0.105   4.857   4.471  0.5504  0.1139 -0.0532
  688THF    H1111942   0.184   4.797   4.321  0.0895  0.8183 -1.3232
  688THF    H1211943  -0.052   4.831   4.247 -1.5021 -0.7473  1.8443
  688THF    H1311944  -0.074   4.950   4.375  2.2181  1.8399  1.7833
  689THF     O111945   1.585   2.567   2.250 -0.2235 -0.1914  0.4182
  689THF     C211946   1.548   2.448   2.175 -0.2540  0.1201  0.0781
  689THF     C311947   1.481   2.597   2.334  0.0664  0.5095  0.6255
  689THF     H411948   1.649   2.418   2.147  0.9838  1.4619  2.7165
  689THF     H511949   1.482   2.458   2.089 -0.0877  1.3067  0.0647
  689THF     H611950   1.519   2.669   2.407  0.2396 -0.7479  1.8175
  689THF     H711951   1.398   2.634   2.274  0.7163 -1.3505 -1.5270
  689THF     C811952   1.456   2.460   2.391 -0.0665 -0.2998 -0.0218
  689THF     C911953   1.486   2.357   2.277 -0.3942  0.0171 -0.2135
  689THF    H1011954   1.358   2.452   2.438  0.1503  1.5216  0.7873
  689THF    H1111955   1.527   2.451   2.473  0.1419 -2.0291 -0.3416
  689THF    H1211956   1.550   2.271   2.298  0.0561  0.1880 -0.8627
  689THF    H1311957   1.392   2.311   2.247  0.0503 -1.1103  0.0678
  690THF     O111958   5.230   0.187   1.811  0.7214 -0.7083 -0.2027
  690THF     C211959   5.231   0.092   1.705 -0.4455  0.0380  0.3560
  690THF     C311960   5.271   0.130   1.936  0.6942 -0.0198 -0.1841
  690THF     H411961   5.277   0.148   1.624  2.2700  0.0830  1.8497
  690THF     H511962   5.129   0.055   1.688 -0.6535  1.4759 -1.9693
  690THF     H611963   5.305   0.206   2.006  1.1593  0.2453 -0.6902
  690THF     H711964   5.183   0.087   1.983 -0.7880  2.6641 -0.3357
  690THF     C811965   5.385   0.047   1.890 -0.1956  0.7324 -0.1063
  690THF     C911966   5.332  -0.014   1.757  0.4089  0.6272 -0.6510
  690THF    H1011967   5.413  -0.025   1.967 -0.5113  1.2551  0.5104
  690THF    H1111968   5.471   0.114   1.880  0.0682  0.5001  0.5468
  690THF    H1211969   5.413  -0.031   1.686  1.0877  1.2555 -0.0473
  690THF    H1311970   5.286  -0.113   1.769 -0.1013  0.8251 -0.9350
  691THF     O111971   2.818   0.494   1.758  0.0314 -0.2034  0.0573
  691THF     C211972   2.937   0.570   1.729  0.2936  0.1060  0.3586
  691THF     C311973   2.863   0.363   1.779  0.3394  0.4667 -0.9956
  691THF     H411974   2.917   0.677   1.730 -0.0903  0.0373  0.1014
  691THF     H511975   2.964   0.548   1.626  0.4512 -0.3097  0.4859
  691THF     H611976   2.787   0.307   1.834  2.8461 -0.5919  1.6421
  691THF     H711977   2.874   0.308   1.685 -0.3198 -0.5669 -0.4940
  691THF     C811978   3.001   0.374   1.847  1.0472  0.7394  0.0768
  691THF     C911979   3.043   0.514   1.832 -0.4494  0.1808 -0.6322
  691THF    H1011980   3.070   0.315   1.787 -0.1360  0.6209 -1.1993
  691THF    H1111981   2.980   0.332   1.946  0.5867 -1.5362 -0.9341
  691THF    H1211982   3.029   0.581   1.917 -0.4820  0.3574 -0.7777
  691THF    H1311983   3.146   0.529   1.801  0.6399  0.3457  2.6441
  692THF     O111984   4.047   1.579   5.488  0.1324  0.2842 -0.0157
  692THF     C211985   3.936   1.559   5.398  0.6932  0.3140  0.1037
  692THF     C311986   4.075   1.715   5.501 -0.1364 -0.1792  0.3218
  692THF     H411987   3.895   1.458   5.398  0.1601  0.4804  2.6451
  692THF     H511988   3.973   1.575   5.296  0.9075  2.3903  0.4622
  692THF     H611989   4.115   1.726   5.601 -1.0539  2.0910  0.4862
  692THF     H711990   4.142   1.755   5.424 -0.4585  0.0653  0.1683
  692THF     C811991   3.937   1.776   5.489 -0.5137 -0.5456 -0.1723
  692THF     C911992   3.841   1.666   5.442 -0.4625 -0.2763  0.2876
  692THF    H1011993   3.933   1.859   5.418  1.4856  0.4872  0.8300
  692THF    H1111994   3.899   1.824   5.579 -0.8653 -1.7530  0.3431
  692THF    H1211995   3.789   1.627   5.529 -0.0841  0.7174  0.9682
  692THF    H1311996   3.772   1.701   5.364  0.8248 -0.0106 -0.7752
  693THF     O111997   2.963   1.369   3.683  0.8640  0.4451  0.2765
  693THF     C211998   2.938   1.507   3.706  0.2167  0.2021  0.1225
  693THF     C311999   2.840   1.290   3.702  0.0572  0.4151 -0.2676
  693THF     H412000   3.013   1.573   3.661  1.8680 -1.0401  0.9427
  693THF     H512001   2.944   1.524   3.813  1.4527  2.2442 -0.2113
  693THF     H612002   2.841   1.192   3.655 -0.7619 -0.4872  1.4903
  693THF     H712003   2.819   1.287   3.809  0.4409  0.3472 -0.1930
  693THF     C812004   2.738   1.380   3.628 -0.4045 -0.0131  0.2070
  693THF     C912005   2.802   1.525   3.632  0.4144  0.6182  0.9241
  693THF    H1012006   2.639   1.380   3.671  0.0100 -0.6618  1.1768
  693THF    H1112007   2.733   1.348   3.524  0.7667  1.8554 -0.4793
  693THF    H1212008   2.824   1.575   3.538  0.7739  1.1850  1.3004
  693THF    H1312009   2.732   1.587   3.689 -0.0586 -0.7016  1.8178
  694THF     O112010   0.190   2.439   1.821  0.1967 -0.0998  0.1761
  694THF     C212011   0.058   2.385   1.823  0.1814 -0.0008 -0.0829
  694THF     C312012   0.291   2.345   1.786  1.0382  0.2776  0.4129
  694THF     H412013  -0.012   2.461   1.788 -1.5016 -0.8279  1.3276
  694THF     H512014   0.033   2.360   1.926  0.0747 -0.0997 -0.1321
  694THF     H612015   0.341   2.363   1.690  1.2437 -0.4562  0.3733
  694THF     H712016   0.366   2.327   1.863  1.0033 -0.7467  0.2224
  694THF     C812017   0.209   2.216   1.770  0.1170  0.4448  0.2596
  694THF     C912018   0.069   2.262   1.735 -0.3353 -0.5309 -0.1459
  694THF    H1012019   0.214   2.156   1.861 -0.9202 -0.9626 -0.5701
  694THF    H1112020   0.245   2.161   1.684 -1.4154  0.9985 -0.7753
  694THF    H1212021   0.067   2.291   1.630  1.4799 -0.6069 -0.2314
  694THF    H1312022  -0.010   2.188   1.747  0.2393 -1.1758 -0.2611
  695THF     O112023   0.935   3.368   0.587 -0.3558 -0.2929  0.5099
  695THF     C212024   0.959   3.272   0.480 -0.6932 -0.4820 -0.9615
  695THF     C312025   1.047   3.363   0.674  0.4171  0.7941  0.1452
  695THF     H412026   0.923   3.314   0.386 -2.7141 -1.3377 -0.6023
  695THF     H512027   0.913   3.174   0.492  3.4772 -2.7045 -0.9392
  695THF     H612028   1.090   3.463   0.681 -0.3133  1.1709 -0.5260
  695THF     H712029   1.010   3.341   0.774  2.3543 -0.6916  0.5876
  695THF     C812030   1.141   3.255   0.627  0.0539  0.0506  1.0451
  695THF     C912031   1.105   3.252   0.480 -0.4261 -0.0109 -0.1618
  695THF    H1012032   1.117   3.158   0.669 -0.7131 -0.0290  0.4415
  695THF    H1112033   1.248   3.268   0.642  0.5234 -1.1808 -0.8568
  695THF    H1212034   1.154   3.330   0.422 -0.0274  0.6340  1.0097
  695THF    H1312035   1.134   3.159   0.430 -0.4022  0.3778 -0.8899
  696THF     O112036   1.875   4.553   4.093  0.0562 -0.4937  0.1385
  696THF     C212037   1.972   4.554   3.987 -0.3269 -0.0660 -0.0507
  696THF     C312038   1.745   4.538   4.031 -0.0534 -0.8878 -0.3823
  696THF     H412039   2.060   4.491   3.999 -0.6662 -0.1272  2.5551
  696THF     H512040   2.009   4.656   3.974 -1.7584  0.6095  0.8730
  696THF     H612041   1.664   4.506   4.096 -2.0787  3.3452 -0.4887
  696THF     H712042   1.705   4.638   4.018 -1.9379 -1.8019 -1.9979
  696THF     C812043   1.772   4.454   3.909 -0.1484 -0.7668 -0.3378
  696THF     C912044   1.897   4.521   3.854 -0.5204 -0.6627 -0.4344
  696THF    H1012045   1.677   4.458   3.857 -0.4194 -0.0208  0.1955
  696THF    H1112046   1.797   4.353   3.942 -0.5150  0.0232  2.6846
  696THF    H1212047   1.950   4.458   3.783 -0.7555 -1.6830  0.2749
  696THF    H1312048   1.867   4.616   3.810  0.4909  0.0560  0.4097
  697THF     O112049   2.259   0.895   2.444  0.4722  0.2362  0.2224
  697THF     C212050   2.151   0.983   2.448 -0.3149  1.0854 -0.3976
  697THF     C312051   2.219   0.760   2.467 -0.1060  0.2620  0.5778
  697THF     H412052   2.159   1.073   2.388 -1.0629  1.4107 -0.0258
  697THF     H512053   2.140   1.015   2.551 -1.1192  0.9940 -0.4459
  697THF     H612054   2.266   0.690   2.398 -0.4863 -0.0046  0.5850
  697THF     H712055   2.254   0.740   2.568  0.7953  0.3089  0.2761
  697THF     C812056   2.068   0.759   2.474 -0.0505 -0.4284  0.3184
  697THF     C912057   2.035   0.893   2.412  0.3839  0.5846 -0.2622
  697THF    H1012058   2.033   0.766   2.577  1.2303  0.0040  0.7342
  697THF    H1112059   2.016   0.678   2.422  2.6214 -1.5864 -0.6895
  697THF    H1212060   2.026   0.886   2.303 -2.8100  0.3508 -0.0588
  697THF    H1312061   1.945   0.926   2.462  0.3597 -2.1097  1.7091
  698THF     O112062   2.858   2.039   0.433 -0.1822 -0.3649 -0.0367
  698THF     C212063   2.802   2.001   0.304  0.7059 -0.2876  0.0498
  698THF     C312064   2.966   2.118   0.394  0.0954  0.5426 -0.4665
  698THF     H412065   2.735   2.082   0.275 -1.7505 -1.4149  2.1339
  698THF     H512066   2.739   1.913   0.305 -0.6956  0.6626 -0.9908
  698THF     H612067   2.925   2.215   0.367  1.8608  1.2340 -0.7927
  698THF     H712068   3.043   2.130   0.470  2.6402  0.1066 -2.8550
  698THF     C812069   3.034   2.044   0.277 -0.8074 -0.1825  0.1440
  698THF     C912070   2.915   1.971   0.215 -0.2322 -0.5658  0.2499
  698THF    H1012071   3.110   1.971   0.306  0.5229  1.4626  1.0302
  698THF    H1112072   3.075   2.116   0.207 -0.5989  3.5212  3.6759
  698THF    H1212073   2.901   1.990   0.109 -0.3939 -2.4255 -0.0959
  698THF    H1312074   2.927   1.863   0.222 -1.5560 -0.7708 -0.3081
  699THF     O112075   3.358   3.319   1.346  0.4042 -0.2920  0.6584
  699THF     C212076   3.390   3.300   1.209  0.5919  0.3249  0.1308
  699THF     C312077   3.258   3.419   1.374  0.3686  0.2207 -0.2652
  699THF     H412078   3.413   3.195   1.188  0.6976  0.7193 -1.9753
  699THF     H512079   3.474   3.367   1.192  0.6998  0.3471  0.7222
  699THF     H612080   3.178   3.390   1.442 -0.7781  2.4717 -0.5307
  699THF     H712081   3.298   3.510   1.419  2.5156  0.5691 -2.6658
  699THF     C812082   3.210   3.451   1.232  0.2724  0.1288 -0.0964
  699THF     C912083   3.266   3.349   1.134 -0.8482  0.7023 -0.0341
  699THF    H1012084   3.238   3.554   1.208 -0.7243  0.0378 -1.7526
  699THF    H1112085   3.102   3.442   1.225  0.3104 -2.3281  1.1710
  699THF    H1212086   3.199   3.268   1.106  0.2006 -0.6699  1.2580
  699THF    H1312087   3.296   3.411   1.050  1.3066  1.5684  1.2760
  700THF     O112088   2.610   0.840   2.806  0.4400  0.3629  0.3648
  700THF     C212089   2.722   0.906   2.745  0.6296 -0.1845  0.4492
  700THF     C312090   2.511   0.816   2.705  0.5957  0.1555 -0.8096
  700THF     H412091   2.787   0.829   2.703  0.4161  0.7494 -1.7206
  700THF     H512092   2.777   0.973   2.811 -0.0120 -0.8516  1.6888
  700THF     H612093   2.533   0.746   2.625 -2.6291  1.9073 -3.5036
  700THF     H712094   2.410   0.793   2.739  0.8805  0.0065 -0.0333
  700THF     C812095   2.511   0.955   2.637 -0.2619  0.0685  0.3021
  700THF     C912096   2.656   0.993   2.635  0.5693  0.3138  0.3149
  700THF    H1012097   2.454   1.027   2.695 -2.2536 -1.0738 -0.1239
  700THF    H1112098   2.459   0.955   2.541 -0.4192  0.7741  0.3871
  700THF    H1212099   2.696   0.973   2.536  1.3215 -1.6104  0.9386
  700THF    H1312100   2.665   1.099   2.655  3.2941  0.0943  0.7380
  701THF     O112101   0.199   1.080   4.379 -0.4542 -0.0407  0.5855
  701THF     C212102   0.069   1.117   4.404 -0.5094 -0.1966 -0.0636
  701THF     C312103   0.224   1.066   4.242  0.5066 -0.0725  0.8585
  701THF     H412104   0.072   1.169   4.500 -1.1091 -2.3912  1.2124
  701THF     H512105   0.002   1.032   4.397  2.5430 -2.7895 -0.0974
  701THF     H612106   0.325   1.052   4.203 -0.5152 -2.6247 -1.1935
  701THF     H712107   0.174   0.980   4.197  2.3570 -0.2791 -0.9765
  701THF     C812108   0.160   1.191   4.198  0.9280  0.8351  0.1253
  701THF     C912109   0.038   1.209   4.287 -0.4097  0.7098 -0.2997
  701THF    H1012110   0.144   1.193   4.090  1.1016 -1.3270  0.0169
  701THF    H1112111   0.224   1.276   4.223  0.5524  1.3916 -0.7652
  701THF    H1212112   0.021   1.311   4.322  1.4561  0.9779 -0.0611
  701THF    H1312113  -0.050   1.170   4.235  0.0810 -0.4373 -0.3049
  702THF     O112114   2.504   2.192   3.971 -0.6926  0.2387  0.2349
  702THF     C212115   2.628   2.140   3.917 -0.7491 -0.2715  0.2081
  702THF     C312116   2.484   2.133   4.099  0.3162 -0.0693 -0.3769
  702THF     H412117   2.678   2.228   3.876 -2.9129  0.3622 -1.2182
  702THF     H512118   2.624   2.068   3.835  0.2633 -0.9941  0.7570
  702THF     H612119   2.425   2.204   4.157 -0.4815 -0.9129 -0.1346
  702THF     H712120   2.445   2.031   4.101 -0.5545  0.2516 -0.4453
  702THF     C812121   2.630   2.134   4.142  0.2184 -0.2655  0.7817
  702THF     C912122   2.701   2.071   4.029 -0.1759  0.4108  0.0547
  702THF    H1012123   2.643   2.076   4.234  1.5451 -2.1775 -0.5241
  702THF    H1112124   2.677   2.230   4.159  0.6980 -0.0119 -1.5889
  702THF    H1212125   2.805   2.101   4.021  0.6113 -2.3254 -1.3687
  702THF    H1312126   2.690   1.963   4.020 -1.6727  0.5440  0.0353
  703THF     O112127   1.945   4.567   2.418 -0.2952  0.2990 -1.0236
  703THF     C212128   2.000   4.536   2.289 -0.2240  0.0354  0.0737
  703THF     C312129   2.010   4.694   2.445 -0.2471 -1.0914  0.3617
  703THF     H412130   1.959   4.604   2.214  1.3276  1.8647  0.8107
  703THF     H512131   1.972   4.433   2.267  0.1422  0.3096 -1.8950
  703THF     H612132   1.965   4.779   2.392  0.4718  0.7739  2.5969
  703THF     H712133   1.998   4.729   2.547 -2.9709  3.8983 -1.2958
  703THF     C812134   2.151   4.665   2.399  0.2907 -0.3126 -0.2465
  703THF     C912135   2.144   4.559   2.302  0.7701  0.1050  0.7134
  703THF    H1012136   2.199   4.620   2.486  1.1653 -1.0012 -1.0629
  703THF    H1112137   2.203   4.755   2.367 -2.0351  0.4079 -2.3567
  703THF    H1212138   2.189   4.594   2.209 -1.4087 -0.5650 -0.6663
  703THF    H1312139   2.209   4.474   2.325  1.5041  0.5799  0.4356
  704THF     O112140   0.359   4.813   0.185 -0.3672 -0.2476  0.3696
  704THF     C212141   0.308   4.718   0.094  0.3268 -0.1808 -0.1080
  704THF     C312142   0.295   4.791   0.311  0.4121 -0.4979  0.6147
  704THF     H412143   0.333   4.617   0.126 -1.4484 -1.1269 -1.5595
  704THF     H512144   0.344   4.740  -0.006  3.6065 -0.0732  0.9606
  704THF     H612145   0.347   4.705   0.353  1.7540  0.4937  1.0484
  704THF     H712146   0.310   4.880   0.372  1.6807 -0.9313  0.9601
  704THF     C812147   0.151   4.764   0.263  0.6355 -0.8786  0.4005
  704THF     C912148   0.158   4.740   0.112 -0.2096  0.3111  0.2371
  704THF    H1012149   0.095   4.857   0.274 -1.8154 -1.9178 -2.1185
  704THF    H1112150   0.087   4.694   0.317  0.0529 -0.4854  0.2332
  704THF    H1212151   0.103   4.649   0.087  0.0075  0.1837  0.2280
  704THF    H1312152   0.118   4.823   0.053 -0.8605  0.1659  0.4588
  705THF     O112153   1.397   0.071   0.635 -0.2014 -0.1735  0.0507
  705THF     C212154   1.439   0.204   0.597 -0.3266 -0.2788  0.7768
  705THF     C312155   1.416   0.046   0.780 -0.4380  0.3657 -0.5993
  705THF     H412156   1.400   0.247   0.504  1.7746 -1.7258 -0.8769
  705THF     H512157   1.547   0.216   0.588 -0.4723  1.2121  0.7612
  705THF     H612158   1.353  -0.033   0.822 -0.3889  0.2427 -0.7551
  705THF     H712159   1.517   0.014   0.804 -0.5507 -1.3046 -2.1140
  705THF     C812160   1.363   0.183   0.833  0.4590  1.7846  0.8453
  705THF     C912161   1.385   0.284   0.719 -0.5956 -0.7012 -0.5316
  705THF    H1012162   1.425   0.209   0.919  0.7319  0.3615  1.0945
  705THF    H1112163   1.258   0.173   0.861 -0.1217  0.1393 -1.6049
  705THF    H1212164   1.297   0.344   0.695  0.0594  1.5714  2.2417
  705THF    H1312165   1.453   0.359   0.758  0.2384 -0.4126 -2.4538
  706THF     O112166   5.243   2.152   2.653  0.2315  0.9027  0.2537
  706THF     C212167   5.150   2.251   2.612  0.6678 -0.1323 -0.5853
  706THF     C312168   5.345   2.225   2.725  0.4246  0.7178  0.2370
  706THF     H412169   5.051   2.204   2.618  1.1690 -1.1245  0.2691
  706THF     H512170   5.168   2.295   2.514 -1.7142  0.5653 -0.7771
  706THF     H612171   5.364   2.190   2.827  2.7779  0.6343 -0.1634
  706THF     H712172   5.436   2.194   2.673  0.0034  1.0523 -0.7207
  706THF     C812173   5.312   2.377   2.712 -0.4567  0.3772 -0.0760
  706THF     C912174   5.163   2.367   2.702 -0.3466 -0.0154 -0.5630
  706THF    H1012175   5.345   2.414   2.616  0.0826 -1.7190 -0.7587
  706THF    H1112176   5.342   2.430   2.803  1.0297  0.9716 -0.8881
  706THF    H1212177   5.114   2.348   2.798  0.5888  0.5677  0.0452
  706THF    H1312178   5.114   2.458   2.667 -2.1574 -0.7607 -0.0882
  707THF     O112179   4.610   3.709   4.126 -0.5980 -0.0039  0.5024
  707THF     C212180   4.573   3.842   4.159  0.0836  0.4801  0.5439
  707THF     C312181   4.622   3.694   3.985 -0.6078  0.6702 -0.4923
  707THF     H412182   4.652   3.882   4.224 -0.0608 -1.1901  1.7954
  707THF     H512183   4.477   3.845   4.210 -0.4513  2.3448 -0.4673
  707THF     H612184   4.691   3.613   3.961 -2.5142 -0.9550 -0.7668
  707THF     H712185   4.527   3.665   3.940  0.1723 -0.1432 -1.6993
  707THF     C812186   4.656   3.826   3.935  0.1545 -0.4505  0.3085
  707THF     C912187   4.567   3.915   4.024  0.0799 -0.1396  0.3557
  707THF    H1012188   4.647   3.836   3.827  0.1412  1.4526  0.4520
  707THF    H1112189   4.760   3.835   3.966 -0.8960  0.6300  4.0026
  707THF    H1212190   4.602   4.018   4.030  0.9489 -0.4503  0.8683
  707THF    H1312191   4.468   3.907   3.980  0.4387 -0.2305 -0.4521
  708THF     O112192   4.903   0.662   1.376 -0.3417  0.0050  0.3121
  708THF     C212193   4.846   0.731   1.485 -0.2648  0.0449 -0.1656
  708THF     C312194   4.985   0.759   1.314 -0.1470 -1.1353 -0.0998
  708THF     H412195   4.929   0.735   1.556 -1.3948  2.1249  1.1316
  708THF     H512196   4.772   0.676   1.543  1.7592  0.1284  2.7282
  708THF     H612197   5.078   0.755   1.371 -0.1029 -2.2493 -0.2181
  708THF     H712198   4.997   0.722   1.212 -0.3355 -3.4050  0.6360
  708THF     C812199   4.898   0.885   1.320  0.3359 -0.4547  0.0283
  708THF     C912200   4.810   0.874   1.443  0.3765  0.7264 -0.1778
  708THF    H1012201   4.832   0.890   1.233 -0.9172 -2.3134  0.8005
  708THF    H1112202   4.956   0.976   1.327 -1.1912  0.6750 -1.1975
  708THF    H1212203   4.825   0.943   1.525 -0.2720 -0.8663  1.3393
  708THF    H1312204   4.708   0.884   1.405  0.7960  1.7034 -1.1142
  709THF     O112205   4.821   4.899   0.113  0.0533 -0.2561  0.2395
  709THF     C212206   4.954   4.900   0.168  0.1251  0.1540 -0.4048
  709THF     C312207   4.821   4.968  -0.011 -0.1572 -0.7246 -0.3762
  709THF     H412208   4.965   4.817   0.238 -0.7916  0.5526  0.2353
  709THF     H512209   4.979   4.993   0.219  1.1259  0.0126 -0.6201
  709THF     H612210   4.730   4.944  -0.065 -0.3086  1.2145 -1.0751
  709THF     H712211   4.835   5.075   0.006 -1.7890 -0.4779 -0.4533
  709THF     C812212   4.950   4.909  -0.071  0.2039  0.3608  0.3727
  709THF     C912213   5.045   4.887   0.045 -0.0843  0.0498  0.2294
  709THF    H1012214   4.992   4.972  -0.149 -0.9483  0.0980 -0.4999
  709THF    H1112215   4.921   4.814  -0.118 -2.2934  1.7642 -1.1337
  709THF    H1212216   5.099   4.793   0.031  0.4876  0.3736  0.1872
  709THF    H1312217   5.124   4.963   0.043  0.1277 -0.0925 -2.9759
  710THF     O112218   5.235   0.675   0.424  0.1268  0.7182  0.0516
  710THF     C212219   5.307   0.744   0.530 -0.2300  0.3168  0.0379
  710THF     C312220   5.323   0.655   0.310 -0.2566  0.0512  0.1479
  710THF     H412221   5.268   0.718   0.628 -1.0702  1.3069 -0.0150
  710THF     H512222   5.301   0.852   0.518  0.4689  0.2154 -1.4405
  710THF     H612223   5.289   0.577   0.242 -2.2336  1.6082 -0.7454
  710THF     H712224   5.325   0.746   0.250 -1.9272  0.3122  0.4332
  710THF     C812225   5.455   0.629   0.377  0.1415  0.2781 -0.0551
  710THF     C912226   5.448   0.704   0.508  0.4387  0.1613  0.1125
  710THF    H1012227   5.544   0.659   0.323  0.9161  0.8029  1.4704
  710THF    H1112228   5.457   0.521   0.391  2.4573  0.4138  1.1004
  710THF    H1212229   5.495   0.650   0.591 -1.1234  0.8063  1.4775
  710THF    H1312230   5.504   0.797   0.499 -1.9454  1.8586  1.5322
  711THF     O112231   2.225   2.802   2.018  0.4595  0.4445 -0.5208
  711THF     C212232   2.334   2.787   1.926 -0.1055 -0.1131 -0.1838
  711THF     C312233   2.233   2.698   2.122  0.6600  0.0302  0.5893
  711THF     H412234   2.428   2.812   1.974 -2.0990  1.6038  3.2108
  711THF     H512235   2.318   2.839   1.831  0.1695 -1.4971 -1.0130
  711THF     H612236   2.311   2.724   2.193  0.3941 -0.8512  1.2184
  711THF     H712237   2.145   2.682   2.184 -0.4747 -0.2713 -1.0306
  711THF     C812238   2.266   2.578   2.028 -0.6549 -0.4548 -0.0986
  711THF     C912239   2.337   2.634   1.905 -0.0205 -0.3253  0.3689
  711THF    H1012240   2.169   2.539   1.998 -0.6628  1.0891 -2.3352
  711THF    H1112241   2.320   2.500   2.082  2.6445  1.4137 -0.4440
  711THF    H1212242   2.441   2.603   1.893  0.1468  0.4158 -0.1583
  711THF    H1312243   2.296   2.606   1.808 -1.1176  0.4164  0.5992
  712THF     O112244   0.972   0.380   2.720 -0.0394  0.1381  0.2769
  712THF     C212245   1.047   0.373   2.837 -0.0394  0.0927  0.3177
  712THF     C312246   0.839   0.422   2.751 -0.3628  0.3351  0.5531
  712THF     H412247   1.153   0.377   2.814 -0.6525  0.1338 -3.0429
  712THF     H512248   1.029   0.280   2.891  0.8574 -0.4817 -0.3403
  712THF     H612249   0.780   0.460   2.668 -0.7957  0.7690  1.0497
  712THF     H712250   0.797   0.340   2.809 -3.0562 -0.1192 -1.8403
  712THF     C812251   0.884   0.544   2.834 -0.0133 -0.5211  0.2504
  712THF     C912252   0.994   0.497   2.913 -0.4262 -0.3561  0.0886
  712THF    H1012253   0.792   0.575   2.884  0.3264 -1.9384  1.8281
  712THF    H1112254   0.907   0.625   2.766  0.5007  0.4781  1.5692
  712THF    H1212255   1.069   0.572   2.938  1.7994 -1.5306 -2.5670
  712THF    H1312256   0.955   0.466   3.010 -2.2982  2.7719  0.4591
  713THF     O112257   5.163   1.803   3.929 -0.0546  0.1551 -0.0716
  713THF     C212258   5.093   1.796   3.804 -0.4323  0.1673  0.0909
  713THF     C312259   5.089   1.729   4.027 -0.1692 -0.3487  0.1417
  713THF     H412260   5.165   1.763   3.729 -0.8220  0.7798 -0.5693
  713THF     H512261   5.047   1.890   3.773  0.2947  0.2153 -0.8858
  713THF     H612262   5.151   1.683   4.104  1.4513  0.8422 -0.3780
  713THF     H712263   5.006   1.788   4.064 -1.3297 -1.1721 -1.0495
  713THF     C812264   5.017   1.627   3.944  0.9570  0.4440  0.2172
  713THF     C912265   4.979   1.709   3.824  0.0370 -0.0866  0.8963
  713THF    H1012266   4.935   1.580   3.998  0.9762 -0.3952 -0.4829
  713THF    H1112267   5.089   1.553   3.908 -0.6360 -0.2793 -1.5892
  713THF    H1212268   4.972   1.644   3.736 -1.7050  0.0572  0.8843
  713THF    H1312269   4.887   1.767   3.834 -1.9186 -2.1516 -2.7708
  714THF     O112270   4.450   3.441   2.010 -0.2222  0.2666  0.3269
  714THF     C212271   4.412   3.388   2.136 -0.2722 -0.7379  0.4197
  714THF     C312272   4.502   3.328   1.939 -0.5126  0.4992  0.2503
  714THF     H412273   4.310   3.356   2.116 -0.0921  0.8139 -3.9781
  714THF     H512274   4.408   3.475   2.202 -0.5779  1.8208 -2.7401
  714THF     H612275   4.433   3.281   1.869  0.9726  0.8012 -1.5006
  714THF     H712276   4.581   3.361   1.872 -0.9478  0.3314 -0.3502
  714THF     C812277   4.566   3.243   2.043  0.1476  0.1834  0.6892
  714THF     C912278   4.506   3.279   2.176 -0.8732  0.4855  0.4332
  714THF    H1012279   4.671   3.270   2.046  0.2427  0.0800 -0.8423
  714THF    H1112280   4.560   3.136   2.024  0.0529  0.0160  1.6033
  714THF    H1212281   4.465   3.194   2.231  0.1256  0.0263  0.4866
  714THF    H1312282   4.580   3.316   2.247  0.9964  0.7111 -1.5632
  715THF     O112283   3.952   2.653   0.110 -0.6710 -0.0253  0.4529
  715THF     C212284   3.888   2.640  -0.015 -0.2025  0.3225 -0.0182
  715THF     C312285   3.985   2.788   0.141 -0.2824 -0.3669  0.2915
  715THF     H412286   3.798   2.577  -0.011 -0.8986  1.2954  0.0114
  715THF     H512287   3.963   2.591  -0.077 -0.1294  0.2932  0.0933
  715THF     H612288   3.968   2.818   0.244 -1.4717 -2.7341  0.8581
  715THF     H712289   4.090   2.814   0.128 -0.4443  1.2955  1.9621
  715THF     C812290   3.885   2.867   0.066  0.5226  0.2217  0.2932
  715THF     C912291   3.849   2.785  -0.057  0.7692  0.1038  0.1637
  715THF    H1012292   3.930   2.962   0.039 -2.2972  1.1828 -1.4748
  715THF    H1112293   3.794   2.875   0.126  0.6852  0.0846  0.5641
  715THF    H1212294   3.747   2.804  -0.090  0.1469  0.3382  2.0841
  715THF    H1312295   3.924   2.793  -0.136  1.9871 -3.7231  0.7128
  716THF     O112296   0.172   0.911   2.826 -0.2686  0.2353 -0.7316
  716THF     C212297   0.135   0.873   2.961 -0.2334  0.0885  1.0741
  716THF     C312298   0.069   1.003   2.780  0.0585 -0.1044  0.4300
  716THF     H412299   0.166   0.941   3.040  0.0872 -0.0176  1.0402
  716THF     H512300   0.177   0.773   2.975 -0.3089 -0.0394  0.4322
  716THF     H612301   0.084   1.098   2.830 -0.1144  0.4172 -0.4809
  716THF     H712302   0.070   1.021   2.672 -2.3141  0.1805  0.4092
  716THF     C812303  -0.057   0.939   2.828  0.7461 -0.0956  0.2307
  716THF     C912304  -0.025   0.866   2.957 -0.1205 -0.0907  0.3351
  716THF    H1012305  -0.090   0.865   2.755  1.7893  1.3924 -1.8524
  716THF    H1112306  -0.128   1.019   2.845  2.4961  1.6584 -0.3378
  716THF    H1212307  -0.065   0.924   3.040  0.4209 -1.1434  1.3662
  716THF    H1312308  -0.071   0.767   2.957 -1.0737  0.2744 -1.9357
  717THF     O112309   0.587   4.645   3.525  0.4734 -0.6053  0.5714
  717THF     C212310   0.512   4.579   3.426 -0.7993 -0.4815 -0.1463
  717THF     C312311   0.698   4.693   3.455  0.7277 -0.0254  0.1170
  717THF     H412312   0.414   4.549   3.463 -1.7849  1.2882 -1.2144
  717THF     H512313   0.556   4.482   3.403 -1.8188 -1.0392  0.1716
  717THF     H612314   0.760   4.768   3.503  1.6913 -0.4282 -0.4654
  717THF     H712315   0.764   4.613   3.421  0.4231 -0.7492  1.1546
  717THF     C812316   0.646   4.752   3.324  0.7829  0.1988 -0.8159
  717THF     C912317   0.512   4.666   3.311  0.2342 -0.0157 -0.1600
  717THF    H1012318   0.713   4.734   3.240  0.3732  1.3506 -1.4128
  717THF    H1112319   0.617   4.856   3.342 -1.4405 -0.5567  0.3409
  717THF    H1212320   0.439   4.747   3.312  0.8539  0.5774 -0.9754
  717THF    H1312321   0.486   4.628   3.212 -2.1907 -0.6646  0.6791
  718THF     O112322   4.842   4.972   1.158 -0.1308 -0.2772  0.6367
  718THF     C212323   4.775   5.098   1.162 -0.3262 -1.2179  0.8061
  718THF     C312324   4.862   4.927   1.292 -0.1066  0.5026  1.0989
  718THF     H412325   4.721   5.129   1.072  0.1985 -1.2009  0.4947
  718THF     H512326   4.853   5.172   1.173 -0.5287 -0.9534  0.4734
  718THF     H612327   4.883   4.821   1.300  0.1579  0.5988  1.6588
  718THF     H712328   4.936   4.986   1.346 -0.4236  0.0345  2.0568
  718THF     C812329   4.726   4.960   1.352  0.1390 -0.2769 -0.0458
  718THF     C912330   4.683   5.085   1.285 -0.1048  0.8079 -0.0798
  718THF    H1012331   4.740   4.968   1.459 -0.5679  2.8565 -0.1002
  718THF    H1112332   4.657   4.877   1.337 -2.5307  1.4174  1.9567
  718THF    H1212333   4.588   5.071   1.235 -0.1580  0.1519  0.1851
  718THF    H1312334   4.671   5.174   1.346  1.2761  0.1630  1.2304
  719THF     O112335   5.452   3.470   3.171 -0.1523 -0.4158 -0.4322
  719THF     C212336   5.397   3.597   3.136 -0.4844  0.1086  0.1508
  719THF     C312337   5.531   3.436   3.060  0.0601 -0.1437  0.0468
  719THF     H412338   5.367   3.653   3.224 -1.6544 -0.2305 -0.0220
  719THF     H512339   5.313   3.600   3.067 -0.5790  0.1253  0.2678
  719THF     H612340   5.600   3.359   3.095  2.5244  1.2103 -1.5646
  719THF     H712341   5.485   3.390   2.972  0.3106 -0.0598 -0.1284
  719THF     C812342   5.609   3.556   3.033 -0.8819  0.2367  0.0919
  719THF     C912343   5.522   3.668   3.088 -0.2147 -0.2497  0.5953
  719THF    H1012344   5.626   3.578   2.928  1.5358  0.7142  0.5100
  719THF    H1112345   5.705   3.545   3.084 -1.6451 -1.5031  1.2375
  719THF    H1212346   5.572   3.731   3.163 -1.5453  0.6128  0.7841
  719THF    H1312347   5.487   3.735   3.009 -0.1287 -0.7489  0.1304
  720THF     O112348   2.802   5.090   2.551 -0.1636  0.2235  0.0538
  720THF     C212349   2.812   5.033   2.680  0.2398  0.4447 -0.1454
  720THF     C312350   2.858   5.218   2.547 -0.1753 -0.0362 -0.5036
  720THF     H412351   2.845   4.929   2.680 -0.7270  0.0927  1.6548
  720THF     H512352   2.717   5.032   2.734  0.5599  1.0162  0.4452
  720THF     H612353   2.900   5.244   2.449 -1.4816  0.5564 -0.9305
  720THF     H712354   2.787   5.297   2.574  0.6487  0.7297 -0.5298
  720THF     C812355   2.975   5.205   2.644 -0.3568 -0.0330 -0.3495
  720THF     C912356   2.914   5.126   2.751  0.0552  0.7771  0.3913
  720THF    H1012357   3.009   5.308   2.658  2.7566 -1.1257  0.7843
  720THF    H1112358   3.063   5.165   2.593 -0.2274  0.4802 -0.5369
  720THF    H1212359   2.982   5.053   2.797 -1.7689 -0.9118  0.5523
  720THF    H1312360   2.869   5.187   2.829 -2.0540 -1.6184  1.1943
  721THF     O112361   3.861   2.130   5.198  0.0744  0.5491  0.1619
  721THF     C212362   3.725   2.168   5.202  0.2183 -0.9584 -0.0823
  721THF     C312363   3.935   2.246   5.165  0.2187 -0.4268  0.5695
  721THF     H412364   3.711   2.211   5.301 -1.3603 -0.1811 -0.6163
  721THF     H512365   3.672   2.077   5.174  0.2652 -0.3425 -2.4050
  721THF     H612366   3.923   2.313   5.251 -0.2500 -0.7632  0.7697
  721THF     H712367   4.039   2.229   5.135  0.3513  1.5670 -0.2026
  721THF     C812368   3.851   2.320   5.060  0.3179 -0.5444  0.3320
  721THF     C912369   3.711   2.278   5.102 -0.1909 -1.4316 -0.3467
  721THF    H1012370   3.872   2.288   4.958 -1.4343  1.6651 -0.8121
  721THF    H1112371   3.867   2.427   5.050  1.7343 -0.9419 -2.7583
  721THF    H1212372   3.655   2.355   5.154  1.6303 -1.2454  1.4796
  721THF    H1312373   3.664   2.241   5.011  0.7262 -3.1158 -0.1829
  722THF     O112374   4.708   1.917   3.696 -0.3176  0.6889 -0.7031
  722THF     C212375   4.776   2.034   3.738  0.4381  0.3867 -0.5859
  722THF     C312376   4.604   1.901   3.797  0.4353  0.8218  1.1731
  722THF     H412377   4.847   2.075   3.666  1.3329  1.9685  1.1085
  722THF     H512378   4.833   2.015   3.830 -0.8630 -0.5773  0.0511
  722THF     H612379   4.523   1.831   3.776  0.3962  0.8994  1.0666
  722THF     H712380   4.636   1.870   3.897 -0.4991 -2.0531  0.6753
  722THF     C812381   4.536   2.034   3.795 -0.6927  0.4693 -0.0675
  722THF     C912382   4.656   2.124   3.777 -0.3929 -0.1297  0.0287
  722THF    H1012383   4.483   2.053   3.888 -1.5113  0.5676 -0.5420
  722THF    H1112384   4.479   2.049   3.703  1.7529  0.5285 -1.6746
  722THF    H1212385   4.644   2.209   3.710 -0.6222 -1.8866 -2.2739
  722THF    H1312386   4.687   2.177   3.867 -1.4713  0.2799  0.1668
  723THF     O112387   0.123   2.880   4.476 -0.2371 -0.1870  0.0621
  723THF     C212388   0.056   2.780   4.386 -0.1940 -0.0466 -0.4122
  723THF     C312389   0.109   2.830   4.610  0.2681  0.1884  0.6100
  723THF     H412390   0.127   2.706   4.350 -1.5615 -1.0892 -1.0292
  723THF     H512391   0.016   2.837   4.302  0.9375  1.4169 -0.0265
  723THF     H612392   0.211   2.801   4.636  0.4896 -0.8767 -1.2863
  723THF     H712393   0.078   2.909   4.680 -1.9582 -0.4457  0.4208
  723THF     C812394   0.014   2.713   4.612  0.0727  0.7741 -0.5930
  723THF     C912395  -0.052   2.718   4.476 -0.1147 -0.1564 -0.0368
  723THF    H1012396  -0.055   2.721   4.696 -0.4339 -1.4039 -0.7366
  723THF    H1112397   0.064   2.617   4.625 -1.3977  0.0667  0.1512
  723THF    H1212398  -0.077   2.616   4.445 -1.1431 -0.0294  0.3221
  723THF    H1312399  -0.146   2.773   4.482  0.3511  0.4987  2.8014
  724THF     O112400   0.541   0.172   4.633 -0.2073 -0.3839 -0.3472
  724THF     C212401   0.465   0.154   4.518 -0.2394  0.0648 -0.4605
  724THF     C312402   0.476   0.278   4.708 -0.5180  0.6060 -0.0161
  724THF     H412403   0.495   0.056   4.481  1.3414 -0.2503  1.4827
  724THF     H512404   0.487   0.229   4.442  1.3892  1.9320  1.7120
  724THF     H612405   0.507   0.286   4.812  0.3492  0.7780 -0.2776
  724THF     H712406   0.501   0.376   4.667 -1.1374  0.3512 -1.0364
  724THF     C812407   0.324   0.246   4.686 -0.3499 -0.5207  0.4081
  724THF     C912408   0.319   0.152   4.566 -0.3124 -0.2235 -0.8817
  724THF    H1012409   0.274   0.340   4.660 -1.4237 -0.7957  1.4217
  724THF    H1112410   0.281   0.195   4.771 -0.6101  0.4501  0.8772
  724THF    H1212411   0.291   0.050   4.590  1.9835 -0.2582  2.3064
  724THF    H1312412   0.259   0.173   4.478  1.4337 -3.3532 -3.0025
  725THF     O112413   2.332   1.302   0.394 -0.4538 -0.1377 -0.0879
  725THF     C212414   2.293   1.366   0.514 -0.4907  0.1405 -0.4791
  725THF     C312415   2.472   1.335   0.373 -0.9301  0.2411  0.3236
  725THF     H412416   2.214   1.308   0.562  0.8390 -1.0335  0.3732
  725THF     H512417   2.254   1.468   0.507  0.1714  1.0819  4.8252
  725THF     H612418   2.523   1.268   0.304  0.5461  0.8757  0.7599
  725THF     H712419   2.479   1.434   0.329  1.0229  1.6752  3.5044
  725THF     C812420   2.536   1.326   0.514 -0.5269 -0.2302  0.2170
  725THF     C912421   2.417   1.375   0.601  0.6555  0.4952  0.6467
  725THF    H1012422   2.628   1.383   0.525 -0.7752  0.4872 -1.2050
  725THF    H1112423   2.571   1.226   0.539 -0.5416 -0.6073 -1.1818
  725THF    H1212424   2.396   1.318   0.691  0.5715 -0.8411 -0.1869
  725THF    H1312425   2.431   1.479   0.633  3.7840 -0.1637  1.7902
  726THF     O112426   1.040   5.352   2.683 -0.2135  0.0981  0.5244
  726THF     C212427   1.021   5.421   2.808 -0.1087 -0.5383 -0.4497
  726THF     C312428   1.175   5.385   2.644  0.3632 -0.4097  0.0767
  726THF     H412429   0.944   5.360   2.856  1.5352 -1.9635  0.5052
  726THF     H512430   0.988   5.522   2.785 -0.8747 -0.5962  0.3584
  726THF     H612431   1.203   5.319   2.562  0.9997 -0.8453  0.6422
  726THF     H712432   1.162   5.481   2.594  0.4360 -0.5869 -0.2891
  726THF     C812433   1.259   5.381   2.773 -0.2193 -0.2611  0.7791
  726THF     C912434   1.156   5.418   2.885  0.1891  0.0475 -0.6106
  726THF    H1012435   1.339   5.455   2.778 -0.0173 -0.4302  0.1131
  726THF    H1112436   1.311   5.286   2.775  1.0000  0.2474 -1.9469
  726THF    H1212437   1.161   5.342   2.963  2.3832  2.4648  1.8156
  726THF    H1312438   1.176   5.514   2.932 -2.6269 -0.3979  1.7331
  727THF     O112439   0.960   1.002   0.494 -0.4478 -0.1255  0.1897
  727THF     C212440   1.086   0.929   0.459  0.3677 -0.5836 -0.1156
  727THF     C312441   0.975   1.135   0.451 -0.1071  0.6034  0.1034
  727THF     H412442   1.070   0.821   0.450 -0.0911 -0.3977 -1.7521
  727THF     H512443   1.152   0.944   0.545 -0.5940 -0.3105  0.5970
  727THF     H612444   0.891   1.204   0.444 -0.1971  0.4474 -0.3853
  727THF     H712445   1.049   1.191   0.509 -0.9103  1.2760  0.4986
  727THF     C812446   1.030   1.106   0.313 -0.6277  0.6302 -0.2157
  727THF     C912447   1.137   1.006   0.341 -0.5060 -0.0885  0.3167
  727THF    H1012448   1.086   1.186   0.264  0.3682  0.5614  0.7805
  727THF    H1112449   0.962   1.063   0.240 -0.3473 -0.6766  0.2684
  727THF    H1212450   1.150   0.946   0.251 -1.1181  0.5976 -0.2351
  727THF    H1312451   1.233   1.055   0.361  0.4144 -0.5058 -2.5632
  728THF     O112452   0.543   3.724   1.844  0.0574  0.3379 -0.3494
  728THF     C212453   0.459   3.832   1.816  0.0420  0.2182 -0.8884
  728THF     C312454   0.532   3.628   1.738 -0.9774 -0.3917 -0.6171
  728THF     H412455   0.499   3.892   1.734  0.9293  2.7434  1.2463
  728THF     H512456   0.435   3.891   1.904 -0.8422 -1.9408  0.3796
  728THF     H612457   0.594   3.674   1.660  1.2363  1.7148  2.1655
  728THF     H712458   0.576   3.532   1.766  2.1844  0.7179 -1.3144
  728THF     C812459   0.376   3.632   1.710  0.2205 -0.4736 -0.4690
  728THF     C912460   0.324   3.762   1.774  0.2400 -0.0284 -0.8231
  728THF    H1012461   0.332   3.540   1.750 -0.3707 -0.4554 -1.0598
  728THF    H1112462   0.342   3.630   1.606  0.8294  1.4410 -0.7300
  728THF    H1212463   0.278   3.829   1.702  2.6805  0.9526 -1.5731
  728THF    H1312464   0.251   3.741   1.853 -0.8622 -1.1780 -2.0981
  729THF     O112465   0.238   4.717   1.273  0.2616 -0.2344  0.5151
  729THF     C212466   0.357   4.765   1.216 -0.5690  0.1373 -0.0580
  729THF     C312467   0.158   4.659   1.170  0.2792 -0.5922 -0.1989
  729THF     H412468   0.430   4.792   1.292 -0.0460  0.4306 -0.6634
  729THF     H512469   0.322   4.849   1.157 -1.4900  0.4167  0.8553
  729THF     H612470   0.089   4.586   1.214 -0.4925  1.0536  1.4624
  729THF     H712471   0.090   4.726   1.118 -0.6923 -0.8980  0.6402
  729THF     C812472   0.264   4.605   1.066 -0.6350 -0.3699 -0.8097
  729THF     C912473   0.397   4.655   1.122 -0.4322 -0.2289  0.3176
  729THF    H1012474   0.253   4.649   0.968 -0.9471  0.8005 -0.2654
  729THF    H1112475   0.269   4.496   1.066  0.8801 -0.3140 -0.5215
  729THF    H1212476   0.450   4.582   1.184  0.4883  0.2858  0.1545
  729THF    H1312477   0.461   4.697   1.045  0.3833 -0.3189  0.9386
  730THF     O112478   1.898   0.521   3.059  0.3899  0.7566  0.5083
  730THF     C212479   1.987   0.460   2.969  0.0218 -0.4765 -0.4426
  730THF     C312480   1.771   0.452   3.053  0.3766 -0.0610  0.8007
  730THF     H412481   2.091   0.484   2.992 -0.9433  2.8049  1.1791
  730THF     H512482   1.964   0.504   2.872  3.2464  1.9590 -0.2900
  730THF     H612483   1.713   0.478   3.142 -2.8716  0.5424 -1.3584
  730THF     H712484   1.716   0.496   2.971  2.1612 -0.0022 -0.4169
  730THF     C812485   1.813   0.308   3.051 -0.2422 -0.3620 -0.2797
  730THF     C912486   1.952   0.310   2.985 -0.2088 -0.4351 -0.1181
  730THF    H1012487   1.743   0.234   3.012 -1.2804  1.4445 -2.0692
  730THF    H1112488   1.820   0.281   3.156 -2.8501  0.4825  0.1711
  730THF    H1212489   2.033   0.272   3.047 -0.0976  0.4131  0.2655
  730THF    H1312490   1.952   0.274   2.882 -1.3652 -1.7684  0.3132
  731THF     O112491   1.451   2.630   2.699  0.0646  0.0453  0.1214
  731THF     C212492   1.357   2.530   2.739 -0.2683 -0.7915  0.0415
  731THF     C312493   1.387   2.759   2.697  0.9446  0.2618  0.5439
  731THF     H412494   1.344   2.524   2.847 -4.6481  0.1905 -0.2423
  731THF     H512495   1.383   2.432   2.700  0.5255 -0.9014  0.8237
  731THF     H612496   1.384   2.812   2.792 -1.3233  0.8998  0.1795
  731THF     H712497   1.428   2.822   2.619 -1.5778 -1.0552 -2.0180
  731THF     C812498   1.250   2.717   2.643  0.2094 -0.5737 -0.2923
  731THF     C912499   1.224   2.575   2.680 -0.4388 -0.0058 -0.5329
  731THF    H1012500   1.252   2.725   2.534 -2.6934  0.2846 -0.3661
  731THF    H1112501   1.173   2.788   2.672  0.7177 -0.3756  0.6148
  731THF    H1212502   1.150   2.575   2.761  0.5576  0.7520  0.4007
  731THF    H1312503   1.204   2.512   2.593  2.9046 -2.2506  0.1349
  732THF     O112504   2.007   1.494   1.767 -0.0918  0.0968 -0.0770
  732THF     C212505   1.922   1.399   1.717  0.2377  0.9260  0.5646
  732THF     C312506   2.063   1.447   1.888 -0.5691  0.2835  0.7180
  732THF     H412507   1.889   1.400   1.613 -1.5976  1.2066  1.1174
  732THF     H512508   1.830   1.408   1.775  0.6377  2.2347  1.0342
  732THF     H612509   2.156   1.503   1.896 -0.2996 -0.2493  1.2936
  732THF     H712510   1.988   1.469   1.964  0.0176 -1.4550  1.8546
  732THF     C812511   2.070   1.295   1.870 -0.3335 -0.1420 -0.3988
  732THF     C912512   2.008   1.276   1.733  0.0890  1.1337 -0.7694
  732THF    H1012513   2.027   1.245   1.956  0.2678 -0.2437 -0.1488
  732THF    H1112514   2.174   1.262   1.868  0.0611  0.9897  0.5485
  732THF    H1212515   2.082   1.279   1.653  0.2831  0.2137 -0.6286
  732THF    H1312516   1.967   1.176   1.720  0.6179  0.5378  1.6015
  733THF     O112517   1.052   4.462   0.133 -0.0166  0.4405  0.4292
  733THF     C212518   1.174   4.438   0.209 -0.7144  0.0968 -0.8538
  733THF     C312519   0.945   4.398   0.199 -0.3140  0.2962 -0.7590
  733THF     H412520   1.191   4.519   0.280  2.3802 -0.1132 -1.2336
  733THF     H512521   1.264   4.436   0.148 -0.4064  0.8702 -0.4436
  733THF     H612522   0.889   4.473   0.254 -0.1708  0.0435 -0.2620
  733THF     H712523   0.879   4.358   0.123  0.0940  2.5105 -2.3929
  733THF     C812524   1.008   4.284   0.285 -0.5987 -0.3473 -0.2592
  733THF     C912525   1.157   4.308   0.282 -0.1684  0.3243 -1.4751
  733THF    H1012526   0.990   4.181   0.258 -0.4951 -0.5477  0.4132
  733THF    H1112527   0.967   4.295   0.385 -0.7674  0.0720 -0.3693
  733THF    H1212528   1.202   4.301   0.382 -1.9194 -1.5051 -0.7501
  733THF    H1312529   1.197   4.227   0.221 -3.4028 -2.7431  0.0864
  734THF     O112530   3.846   1.630   2.598 -0.7337 -0.3288  0.4980
  734THF     C212531   3.708   1.618   2.632  0.2007  0.2853 -0.3616
  734THF     C312532   3.933   1.594   2.708  0.4741  0.2705 -0.4908
  734THF     H412533   3.638   1.623   2.549 -1.3023  1.6101  0.9214
  734THF     H512534   3.689   1.708   2.691 -1.2115  1.9883 -3.1899
  734THF     H612535   4.031   1.558   2.676  1.8753  0.7672  2.8250
  734THF     H712536   3.952   1.688   2.760  1.5024  1.7924 -3.3847
  734THF     C812537   3.840   1.502   2.794 -0.5678 -0.0328 -0.1414
  734THF     C912538   3.704   1.497   2.719  0.9790 -0.3069  0.1755
  734THF    H1012539   3.841   1.536   2.897  2.5414 -0.0284 -0.0710
  734THF    H1112540   3.894   1.407   2.800  0.9649  0.7593 -0.7602
  734THF    H1212541   3.693   1.408   2.657  1.5500 -0.3064  0.0742
  734THF    H1312542   3.615   1.501   2.783  0.5053  3.4660 -0.4858
  735THF     O112543   2.217   1.991   3.723  0.5023 -0.2274 -0.3021
  735THF     C212544   2.219   1.959   3.863  0.7619  0.1491  0.4913
  735THF     C312545   2.316   1.903   3.670 -0.3602 -0.1410  0.7636
  735THF     H412546   2.133   2.010   3.906 -0.2169 -0.4028 -0.7520
  735THF     H512547   2.312   2.000   3.904  0.9002 -0.2303  0.5662
  735THF     H612548   2.311   1.898   3.561  1.1045  3.0914  0.4277
  735THF     H712549   2.415   1.938   3.702 -1.1056  1.5410  1.3408
  735THF     C812550   2.274   1.772   3.741  0.7062  0.0717 -0.3439
  735THF     C912551   2.204   1.812   3.871 -0.2867  0.6131  0.2032
  735THF    H1012552   2.370   1.729   3.769  0.1906 -0.2941  0.9518
  735THF    H1112553   2.218   1.699   3.683  0.1319  0.7081 -0.5991
  735THF    H1212554   2.097   1.796   3.867 -0.4301  1.6294 -0.2619
  735THF    H1312555   2.241   1.769   3.964  3.0309  0.9949 -0.8019
  736THF     O112556   3.648   3.142   2.165 -0.0617 -0.4982 -0.0833
  736THF     C212557   3.750   3.047   2.194 -0.4664 -0.1650  0.4077
  736THF     C312558   3.664   3.257   2.247  0.4684 -0.1741 -0.1703
  736THF     H412559   3.842   3.073   2.143 -0.8436 -0.6206 -0.5339
  736THF     H512560   3.728   2.942   2.174  0.8700 -0.6307  1.2827
  736THF     H612561   3.688   3.350   2.196  1.0922  1.1204  2.3059
  736THF     H712562   3.570   3.280   2.297  0.6098  1.0181 -0.4163
  736THF     C812563   3.770   3.221   2.355 -1.1429  0.1342 -0.1720
  736THF     C912564   3.773   3.063   2.340 -0.3954 -0.0267 -0.7038
  736THF    H1012565   3.744   3.254   2.455 -1.8326  2.6460 -1.0933
  736THF    H1112566   3.862   3.269   2.322 -0.7420 -0.9071 -0.6060
  736THF    H1212567   3.864   3.010   2.366  0.7061  0.5112 -3.1680
  736THF    H1312568   3.697   3.023   2.407  1.5972  0.5863  2.1181
  737THF     O112569   3.149   3.065   2.634  0.3741 -0.0587 -0.0408
  737THF     C212570   3.075   3.059   2.514  0.5365  0.1639  0.0722
  737THF     C312571   3.182   3.199   2.658 -0.1045 -0.3032 -0.2776
  737THF     H412572   2.975   3.099   2.533 -1.4449 -3.8198 -0.8206
  737THF     H512573   3.056   2.956   2.484 -0.5547  0.0371  1.1069
  737THF     H612574   3.107   3.252   2.717  0.2750  1.1377 -1.0408
  737THF     H712575   3.276   3.210   2.713 -0.3794 -0.6139  0.2751
  737THF     C812576   3.173   3.264   2.523  0.0919  0.3137  0.0814
  737THF     C912577   3.158   3.144   2.429 -0.6333 -0.3433 -0.3457
  737THF    H1012578   3.262   3.315   2.487  0.5139 -0.9842 -0.7886
  737THF    H1112579   3.088   3.332   2.523 -1.0089 -0.9976  0.6238
  737THF    H1212580   3.108   3.172   2.337 -0.4875 -0.0070 -0.3207
  737THF    H1312581   3.249   3.090   2.405  0.6403  1.3392  0.5681
  738THF     O112582   4.636   0.838   1.941 -0.0200  0.0435 -0.2238
  738THF     C212583   4.679   0.805   2.069 -0.2612 -0.6107  0.1497
  738THF     C312584   4.537   0.739   1.907  0.3315 -0.4278 -0.2559
  738THF     H412585   4.602   0.862   2.121  0.9639  1.9249 -0.6896
  738THF     H512586   4.771   0.856   2.097 -0.3015 -0.1361 -0.5668
  738THF     H612587   4.448   0.777   1.957  1.3206  1.4176  0.2121
  738THF     H712588   4.516   0.744   1.801  1.1804  2.2437 -0.3755
  738THF     C812589   4.595   0.610   1.966 -0.2420  0.0235  0.5700
  738THF     C912590   4.683   0.654   2.082  0.7219 -0.8562 -0.3132
  738THF    H1012591   4.657   0.554   1.895  0.6477  0.6278  0.8529
  738THF    H1112592   4.514   0.550   2.006  0.1017 -0.0345  1.1975
  738THF    H1212593   4.658   0.621   2.183 -2.5981  1.8105 -0.1131
  738THF    H1312594   4.785   0.619   2.062  1.8440  2.6076 -1.3543
  739THF     O112595   2.299   1.024   1.681 -0.2955  0.5197  0.2805
  739THF     C212596   2.254   0.956   1.569 -0.7574  0.2879  0.3776
  739THF     C312597   2.368   1.137   1.641 -0.1371 -0.2203  0.1120
  739THF     H412598   2.148   0.940   1.589 -0.8546 -0.2181 -0.4916
  739THF     H512599   2.318   0.869   1.552 -1.3976 -0.4800  1.7124
  739THF     H612600   2.309   1.224   1.668  0.0962  0.4203 -1.3330
  739THF     H712601   2.460   1.147   1.697 -0.2822 -0.3732  0.3775
  739THF     C812602   2.392   1.117   1.489 -0.3499  0.2177  0.1594
  739THF     C912603   2.271   1.039   1.445 -0.5420 -0.2036  0.2021
  739THF    H1012604   2.483   1.057   1.480  0.0081  0.9377 -1.3867
  739THF    H1112605   2.409   1.204   1.426 -1.8040  0.5382  0.1697
  739THF    H1212606   2.183   1.096   1.414  0.9993  1.7542 -0.7381
  739THF    H1312607   2.292   0.970   1.363 -1.0589 -0.5993  0.3914
  740THF     O112608   4.225   4.712   3.631 -0.1903 -0.0877 -0.6997
  740THF     C212609   4.102   4.660   3.591  0.2294 -0.0118  0.7626
  740THF     C312610   4.286   4.599   3.699  0.7032 -0.1356  0.2590
  740THF     H412611   4.082   4.712   3.498  3.6927 -0.1809 -0.2038
  740THF     H512612   4.022   4.680   3.663 -2.1246 -1.0886 -1.3982
  740THF     H612613   4.391   4.619   3.717  0.6768  0.4948 -0.2541
  740THF     H712614   4.246   4.601   3.801  0.9730  1.1078  0.3503
  740THF     C812615   4.253   4.472   3.618  0.1039 -0.1052 -0.0671
  740THF     C912616   4.115   4.503   3.575  0.4410 -0.1422  0.2339
  740THF    H1012617   4.271   4.375   3.665 -0.6438 -0.8176 -1.2066
  740THF    H1112618   4.315   4.478   3.529 -0.6202  0.8619 -0.5260
  740THF    H1212619   4.100   4.462   3.475  1.5407  0.5015 -0.2165
  740THF    H1312620   4.044   4.450   3.638 -1.1978  1.4271 -0.2155
  741THF     O112621   3.693   3.099   3.156  0.2575  0.5098 -0.8911
  741THF     C212622   3.778   3.213   3.141  0.2338 -0.4471  0.4225
  741THF     C312623   3.635   3.101   3.285  0.1050  0.6252 -0.6021
  741THF     H412624   3.801   3.242   3.039 -1.0550 -0.5729  0.0789
  741THF     H512625   3.872   3.195   3.194  0.4027  1.7436  0.9787
  741THF     H612626   3.540   3.048   3.289 -0.2936  1.3797  0.1801
  741THF     H712627   3.694   3.054   3.364 -0.1371 -1.1986 -1.4547
  741THF     C812628   3.602   3.251   3.299  0.5181  0.4858 -0.3738
  741THF     C912629   3.709   3.317   3.222 -0.5515 -0.1655  0.0271
  741THF    H1012630   3.582   3.283   3.401  0.8573 -0.3598 -0.0381
  741THF    H1112631   3.502   3.271   3.260 -1.9519 -1.0576  4.3058
  741THF    H1212632   3.669   3.392   3.154  0.0355  0.3350  0.2254
  741THF    H1312633   3.783   3.358   3.291 -0.5566  0.2080 -0.1884
  742THF     O112634   1.330   4.280   4.595 -0.4728  0.0207 -0.0525
  742THF     C212635   1.377   4.391   4.673  0.3890  0.2378  0.4094
  742THF     C312636   1.341   4.308   4.454  0.4504  0.3523  0.2609
  742THF     H412637   1.484   4.407   4.663  0.1014  1.5286 -1.1520
  742THF     H512638   1.352   4.375   4.778 -2.6451 -1.6574 -0.4805
  742THF     H612639   1.431   4.263   4.414 -0.0154 -0.4075  0.0518
  742THF     H712640   1.256   4.258   4.408 -1.5313  0.4112  3.5564
  742THF     C812641   1.344   4.464   4.455 -0.8709  0.7363  0.0429
  742THF     C912642   1.313   4.513   4.600 -0.4314  0.3936  0.3471
  742THF    H1012643   1.260   4.493   4.392 -0.0213 -1.6042 -2.3149
  742THF    H1112644   1.433   4.513   4.415 -1.8745  2.0377 -0.6744
  742THF    H1212645   1.364   4.605   4.629 -1.1231  2.1557 -3.4443
  742THF    H1312646   1.206   4.521   4.618 -0.5491  0.6030 -0.4245
  743THF     O112647   1.085   4.313   1.295  0.1315  0.5251  0.3088
  743THF     C212648   1.143   4.415   1.225 -0.0312  0.4097 -0.1716
  743THF     C312649   1.132   4.312   1.430 -1.5185 -0.6692 -0.4553
  743THF     H412650   1.070   4.486   1.187 -1.7845 -0.1078  2.0490
  743THF     H512651   1.207   4.371   1.148  0.1837  0.8551 -0.2540
  743THF     H612652   1.066   4.376   1.489 -0.1956 -1.1099  1.6003
  743THF     H712653   1.123   4.214   1.477 -1.1434  0.0340  1.1370
  743THF     C812654   1.262   4.379   1.423  0.0647  0.2450  0.0335
  743THF     C912655   1.242   4.488   1.318 -0.7940 -0.0597 -0.8284
  743THF    H1012656   1.339   4.309   1.391 -2.4569 -2.9077  0.3974
  743THF    H1112657   1.300   4.399   1.524  0.9830  0.1195 -0.2796
  743THF    H1212658   1.207   4.583   1.357 -1.2514 -0.7460  0.4624
  743THF    H1312659   1.340   4.519   1.281  0.3789  0.3339  2.3369
  744THF     O112660   3.085   0.099   0.945 -0.5106  0.6006  1.3817
  744THF     C212661   3.176   0.034   0.865 -0.8731 -0.2314  0.3705
  744THF     C312662   3.045   0.222   0.888 -0.4393 -0.0985  0.0949
  744THF     H412663   3.120  -0.012   0.784  0.3190  0.5738 -0.9521
  744THF     H512664   3.243  -0.027   0.924 -0.7609  2.5654  3.4171
  744THF     H612665   2.962   0.197   0.822 -0.9741  0.4344  0.5488
  744THF     H712666   3.012   0.292   0.965 -0.8695 -1.5877  1.3099
  744THF     C812667   3.168   0.268   0.808 -0.2499  0.0534 -0.2372
  744THF     C912668   3.261   0.149   0.817 -0.1006  0.1438  0.1541
  744THF    H1012669   3.217   0.339   0.875  0.2291 -2.0483  1.7686
  744THF    H1112670   3.156   0.296   0.704 -0.3811  3.3186  0.5278
  744THF    H1212671   3.311   0.130   0.722  1.0722  1.0605  0.5672
  744THF    H1312672   3.330   0.175   0.898  1.1473 -1.1334 -0.4477
  745THF     O112673   2.223   1.897   2.683  0.4559 -0.3581  0.6922
  745THF     C212674   2.156   1.794   2.752 -0.5083  0.3388 -0.5813
  745THF     C312675   2.207   1.879   2.544  0.1998  0.3202  0.0271
  745THF     H412676   2.115   1.833   2.845 -0.2235  0.4973 -0.5190
  745THF     H512677   2.227   1.711   2.752 -1.3705 -0.4554 -2.5324
  745THF     H612678   2.221   1.968   2.483  0.6566 -0.8194 -1.6036
  745THF     H712679   2.281   1.804   2.516  0.2707  0.3403  0.1600
  745THF     C812680   2.076   1.803   2.522 -0.0749 -0.2573 -0.0529
  745THF     C912681   2.042   1.757   2.665  0.5734  0.0942 -0.1774
  745THF    H1012682   2.095   1.722   2.451  0.1393  0.2777 -0.6106
  745THF    H1112683   2.000   1.869   2.481 -0.9625 -1.0238  0.3199
  745THF    H1212684   1.954   1.817   2.686 -0.2346 -1.3433  0.6877
  745THF    H1312685   2.016   1.651   2.659 -1.0937  0.5100 -0.7261
  746THF     O112686   0.448   1.982   3.402 -0.2477 -0.0458 -0.1855
  746THF     C212687   0.367   1.969   3.517  0.1716  0.3116  0.1496
  746THF     C312688   0.414   1.879   3.314  0.1068 -0.6425 -0.1551
  746THF     H412689   0.355   2.053   3.585 -1.3695 -0.1924  0.5338
  746THF     H512690   0.417   1.890   3.573 -1.0959 -1.0628 -0.5714
  746THF     H612691   0.455   1.897   3.214  1.0731 -1.3007  0.1085
  746THF     H712692   0.451   1.782   3.347  1.1944  0.3054  1.4893
  746THF     C812693   0.264   1.876   3.320  0.1212 -0.2352 -0.0563
  746THF     C912694   0.233   1.921   3.461  0.0020  0.2952 -0.0074
  746THF    H1012695   0.246   1.772   3.292  0.3406 -1.2696  3.2670
  746THF    H1112696   0.229   1.933   3.234  0.2680  1.1234  0.7561
  746THF    H1212697   0.168   2.008   3.459 -2.4698 -1.4061  1.4463
  746THF    H1312698   0.184   1.839   3.513 -1.1422  0.7841 -0.2965
  747THF     O112699   0.839   2.524   2.206  0.4612 -0.0323 -0.1871
  747THF     C212700   0.727   2.478   2.283 -0.3371  0.4944  0.4438
  747THF     C312701   0.795   2.506   2.076 -0.1223  0.0536 -0.3326
  747THF     H412702   0.657   2.560   2.296  1.0984  1.9087 -0.3469
  747THF     H512703   0.749   2.452   2.387 -1.7903 -1.3236  0.3533
  747THF     H612704   0.738   2.596   2.052 -1.6477 -0.9784 -0.7555
  747THF     H712705   0.885   2.493   2.016 -0.5787  0.5227 -1.1377
  747THF     C812706   0.707   2.385   2.070 -0.1485  0.8107  0.0172
  747THF     C912707   0.665   2.361   2.212 -0.4965 -0.1715  1.1584
  747THF    H1012708   0.771   2.300   2.045  1.0671  1.0314  2.1453
  747THF    H1112709   0.632   2.391   1.991  0.4454 -1.2325 -0.7711
  747THF    H1212710   0.558   2.363   2.234 -0.7414  3.0503  0.2556
  747THF    H1312711   0.708   2.264   2.233 -1.4090 -0.7311  0.5274
  748THF     O112712   0.263   5.220   0.093 -0.3005  0.4761  0.1257
  748THF     C212713   0.298   5.185   0.229 -0.3883  0.0041  0.3518
  748THF     C312714   0.213   5.351   0.094 -0.6595  0.3994  0.0726
  748THF     H412715   0.386   5.237   0.267 -1.2238  2.8886 -1.3328
  748THF     H512716   0.309   5.078   0.245  2.2487  0.0820 -0.4097
  748THF     H612717   0.300   5.416   0.105 -0.2829 -0.3039  1.6371
  748THF     H712718   0.155   5.361   0.003 -0.8594 -1.1401  0.0056
  748THF     C812719   0.119   5.363   0.214 -0.2286  0.5810 -0.6870
  748THF     C912720   0.177   5.251   0.299 -0.3940 -0.1770 -0.5401
  748THF    H1012721   0.015   5.339   0.190 -0.2012 -1.5345  1.0547
  748THF    H1112722   0.125   5.459   0.266  0.3232 -0.6543  1.6920
  748THF    H1212723   0.195   5.290   0.400 -2.9300  1.1180 -0.4964
  748THF    H1312724   0.095   5.180   0.303 -1.5143  1.0862 -0.0137
  749THF     O112725   3.394   4.307   2.165  0.0506 -0.2133  0.6905
  749THF     C212726   3.492   4.213   2.118  0.0452 -0.5497  0.1431
  749THF     C312727   3.403   4.325   2.304 -0.2638  0.8788 -0.5958
  749THF     H412728   3.553   4.246   2.034  2.0069 -2.0199  0.9178
  749THF     H512729   3.434   4.125   2.089 -0.3230  0.0892 -1.1242
  749THF     H612730   3.370   4.424   2.336 -0.8530  0.9830 -1.4870
  749THF     H712731   3.344   4.255   2.363  0.5277  1.6700  1.2275
  749THF     C812732   3.555   4.318   2.319 -0.2386  0.5936  0.1541
  749THF     C912733   3.578   4.194   2.238 -0.0372 -0.7983 -0.3475
  749THF    H1012734   3.578   4.314   2.425 -0.3029  0.0269  0.1473
  749THF    H1112735   3.599   4.406   2.271  0.2793 -0.0789 -0.6433
  749THF    H1212736   3.681   4.177   2.207 -0.8964 -1.0689 -3.3367
  749THF    H1312737   3.532   4.109   2.290 -2.2653 -0.0059 -0.8975
  750THF     O112738   0.612   1.419   0.660 -0.4645  0.3521 -0.3596
  750THF     C212739   0.546   1.297   0.687  0.1953 -0.1230 -0.5296
  750THF     C312740   0.526   1.518   0.729  0.0796  0.6347 -0.2100
  750THF     H412741   0.618   1.216   0.695  0.2936  0.1371  2.1683
  750THF     H512742   0.475   1.265   0.611 -0.5582 -0.8065  0.4356
  750THF     H612743   0.589   1.603   0.756  0.6914 -0.4663  2.1650
  750THF     H712744   0.447   1.546   0.659 -0.1359  1.1740  0.2350
  750THF     C812745   0.473   1.458   0.854 -0.2490  0.0164 -0.3701
  750THF     C912746   0.468   1.314   0.816 -0.1416  0.0280  0.3242
  750THF    H1012747   0.374   1.496   0.877  0.5922  2.2806 -0.2215
  750THF    H1112748   0.535   1.467   0.944 -0.9098 -1.4224  0.2655
  750THF    H1212749   0.506   1.245   0.891  0.8673 -0.3106 -0.4833
  750THF    H1312750   0.366   1.280   0.797  0.1127 -1.5631  1.5796
  751THF     O112751   0.416   0.310   2.189 -0.5878 -0.0058 -0.2228
  751THF     C212752   0.387   0.395   2.291  0.2755 -0.2374  0.0353
  751THF     C312753   0.315   0.337   2.092 -0.1064  0.2903  0.0747
  751THF     H412754   0.412   0.497   2.261 -0.3347 -0.2653 -0.5894
  751THF     H512755   0.451   0.377   2.378  0.6644  3.0891  0.5501
  751THF     H612756   0.332   0.434   2.047 -4.8654  0.9279 -0.9517
  751THF     H712757   0.323   0.255   2.020 -0.7184  0.2166  0.0777
  751THF     C812758   0.190   0.332   2.180  0.0543  1.1734  0.2159
  751THF     C912759   0.232   0.394   2.315 -0.0978 -0.0761  0.1574
  751THF    H1012760   0.164   0.227   2.191  1.0545  0.9360  0.3989
  751THF    H1112761   0.112   0.394   2.136 -1.2827  0.1714  1.0865
  751THF    H1212762   0.189   0.493   2.332 -1.5303 -0.4771 -0.9675
  751THF    H1312763   0.198   0.325   2.392 -1.7942  1.6725  1.0574
  752THF     O112764   1.316   0.522   5.260 -0.1790  0.1168  0.1787
  752THF     C212765   1.228   0.634   5.253  0.4020 -0.3043 -0.0516
  752THF     C312766   1.235   0.417   5.308 -0.2535 -0.0695  0.4479
  752THF     H412767   1.218   0.681   5.156 -0.1488  1.0450  0.6312
  752THF     H512768   1.278   0.708   5.317  0.4782 -1.2245  0.9892
  752THF     H612769   1.192   0.370   5.219  0.4836 -0.4064  0.2637
  752THF     H712770   1.302   0.343   5.352  0.2521  0.7431  1.0566
  752THF     C812771   1.134   0.474   5.402 -0.2620 -0.0158  0.5919
  752THF     C912772   1.098   0.605   5.326 -0.0498 -0.6015 -0.5513
  752THF    H1012773   1.168   0.496   5.504  1.1092 -0.9369  0.3516
  752THF    H1112774   1.045   0.412   5.404 -1.9161  2.2238  1.1697
  752THF    H1212775   1.029   0.574   5.248  0.0892 -1.9068 -0.1827
  752THF    H1312776   1.054   0.691   5.377  0.9419  0.0147 -0.7117
  753THF     O112777   0.448   3.452   0.504 -0.2855 -0.0677  0.4232
  753THF     C212778   0.588   3.440   0.479 -0.9044 -0.3629 -1.0118
  753THF     C312779   0.395   3.321   0.519  0.3616  0.1219 -0.5567
  753THF     H412780   0.644   3.527   0.510 -0.9136 -0.1484 -1.5757
  753THF     H512781   0.587   3.435   0.370 -0.7948 -1.2481 -0.9784
  753THF     H612782   0.309   3.324   0.586  0.7598 -0.0085 -0.0341
  753THF     H712783   0.371   3.268   0.427  1.0108  0.7914 -1.1175
  753THF     C812784   0.504   3.241   0.586 -0.0515 -0.1408 -0.5404
  753THF     C912785   0.632   3.304   0.538  0.0485 -0.1959  0.5467
  753THF    H1012786   0.493   3.133   0.579 -0.9076 -0.1829  0.9875
  753THF    H1112787   0.500   3.243   0.695  1.0450  0.0866 -0.4994
  753THF    H1212788   0.714   3.312   0.609  1.6720 -0.5707 -1.2207
  753THF    H1312789   0.682   3.253   0.456 -0.2748 -1.3247  1.0210
  754THF     O112790   0.112   4.427   4.218 -0.2917 -0.0901  0.4541
  754THF     C212791  -0.007   4.424   4.138 -0.2986  0.0828 -0.5045
  754THF     C312792   0.216   4.362   4.144  0.3076 -0.9264  0.2636
  754THF     H412793  -0.074   4.500   4.178 -1.6246 -0.2910 -1.9299
  754THF     H512794  -0.051   4.327   4.161 -0.1293 -0.0919 -0.9081
  754THF     H612795   0.313   4.406   4.168  0.9328 -2.5414  0.8278
  754THF     H712796   0.229   4.258   4.174  1.0922 -0.8411  0.2371
  754THF     C812797   0.183   4.388   3.994  0.0706 -0.2707 -0.1249
  754THF     C912798   0.043   4.454   4.005  0.1026  0.6788 -0.0612
  754THF    H1012799   0.187   4.295   3.939  3.1752  0.4185 -1.2988
  754THF    H1112800   0.252   4.451   3.938 -1.3550  0.1347 -1.4900
  754THF    H1212801   0.066   4.561   4.013  2.5732  0.2067  0.2534
  754THF    H1312802  -0.033   4.443   3.929 -0.2195  3.5117 -0.2731
  755THF     O112803   1.293   1.312   0.589 -0.2136  0.9563  0.5223
  755THF     C212804   1.361   1.274   0.471 -0.0836 -0.2296 -0.1847
  755THF     C312805   1.390   1.370   0.668 -0.1725 -0.5791  0.1822
  755THF     H412806   1.302   1.275   0.380 -0.5844 -2.3517  0.0531
  755THF     H512807   1.387   1.169   0.488 -2.5808 -0.9588 -0.5018
  755THF     H612808   1.370   1.474   0.690 -0.5109 -0.7911  0.8998
  755THF     H712809   1.395   1.324   0.767  0.9424  1.4413  1.1342
  755THF     C812810   1.525   1.360   0.601  0.8484 -0.7532 -0.0377
  755THF     C912811   1.483   1.360   0.461  0.3566  0.0625  0.1322
  755THF    H1012812   1.574   1.262   0.609 -3.0703 -2.8262  0.9016
  755THF    H1112813   1.589   1.448   0.612  0.9883 -0.7033 -1.0986
  755THF    H1212814   1.440   1.458   0.437 -3.1186 -1.1497  0.7508
  755THF    H1312815   1.557   1.328   0.388  0.6698 -2.2458  1.3871
  756THF     O112816   5.220   0.301   2.446 -0.6843  0.3648 -0.3981
  756THF     C212817   5.177   0.345   2.573 -0.0731  0.4497 -0.1282
  756THF     C312818   5.335   0.219   2.469 -0.0063  0.0976 -0.0137
  756THF     H412819   5.089   0.286   2.597 -1.5969  1.9032 -1.8445
  756THF     H512820   5.138   0.447   2.573 -0.9517  0.1335 -1.3801
  756THF     H612821   5.303   0.121   2.506  0.0296  0.1933  0.2660
  756THF     H712822   5.392   0.211   2.376  2.0192 -0.1330  1.2066
  756THF     C812823   5.408   0.285   2.580 -0.0551 -0.0234 -0.4236
  756THF     C912824   5.294   0.324   2.674  0.0460 -0.5080 -0.8756
  756THF    H1012825   5.465   0.377   2.561 -0.0600  0.2960  1.0221
  756THF    H1112826   5.479   0.212   2.618  0.5057 -0.2639 -1.8535
  756THF    H1212827   5.269   0.250   2.750  0.0200 -0.2516 -0.6339
  756THF    H1312828   5.305   0.415   2.734 -1.0071 -0.3779 -0.8712
  757THF     O112829   4.787   2.403   3.869  0.4926 -0.3009  0.2336
  757THF     C212830   4.907   2.478   3.838  0.4161 -0.0953  0.4374
  757THF     C312831   4.681   2.494   3.859  0.0110 -0.5482 -0.5144
  757THF     H412832   4.993   2.418   3.810  0.0097 -0.7499  0.5838
  757THF     H512833   4.928   2.537   3.927  1.1048 -2.4501  1.9220
  757THF     H612834   4.591   2.441   3.827 -1.6761  0.6823  1.7888
  757THF     H712835   4.660   2.543   3.955 -0.8244 -0.4115 -0.7528
  757THF     C812836   4.717   2.583   3.736 -0.8076  0.1312  0.2865
  757THF     C912837   4.867   2.569   3.723 -0.1789  0.1036 -0.2825
  757THF    H1012838   4.701   2.690   3.746  1.5342  0.6388 -0.7091
  757THF    H1112839   4.677   2.546   3.642 -0.1827 -2.2221  0.8689
  757THF    H1212840   4.886   2.518   3.628 -0.0391  0.1069 -0.2556
  757THF    H1312841   4.917   2.666   3.714  0.2326  0.0813  1.5084
  758THF     O112842   1.556   2.116   4.453 -0.3660 -0.7482 -0.4784
  758THF     C212843   1.655   2.175   4.544  0.0364 -0.4055 -0.4663
  758THF     C312844   1.603   2.120   4.318 -0.0979 -0.6448 -0.3895
  758THF     H412845   1.655   2.139   4.646  2.4061  1.0147  0.0997
  758THF     H512846   1.649   2.283   4.535 -1.9646 -0.5933 -2.4092
  758THF     H612847   1.579   2.027   4.266  0.2458 -1.3980  0.7565
  758THF     H712848   1.562   2.207   4.268 -0.2002 -0.2836  0.3161
  758THF     C812849   1.754   2.135   4.331 -0.8981 -0.2347  0.6251
  758THF     C912850   1.784   2.134   4.479 -0.9514  0.1900  0.0395
  758THF    H1012851   1.782   2.224   4.274 -0.2038 -2.0551 -2.0390
  758THF    H1112852   1.800   2.050   4.282  2.2609  2.9448 -2.5055
  758THF    H1212853   1.791   2.031   4.516 -2.1015 -0.6521 -1.9037
  758THF    H1312854   1.870   2.192   4.512  0.1494 -0.8907 -0.8561
  759THF     O112855   2.602   4.915   0.375  0.0931  0.3848  0.5245
  759THF     C212856   2.498   4.861   0.286 -0.1269  0.1598 -0.2806
  759THF     C312857   2.606   4.842   0.497  0.3584  0.2561  0.3176
  759THF     H412858   2.520   4.861   0.179 -0.0132 -0.5826 -0.2656
  759THF     H512859   2.409   4.921   0.301 -0.2593  0.0797 -0.7365
  759THF     H612860   2.696   4.780   0.500 -0.2625 -0.6384  1.0406
  759THF     H712861   2.618   4.905   0.585 -0.4221 -0.8807  1.2575
  759THF     C812862   2.489   4.746   0.499 -0.3097 -0.0227  0.7127
  759THF     C912863   2.482   4.722   0.345  0.0977  0.4333  0.5108
  759THF    H1012864   2.403   4.793   0.547 -0.0578 -0.0121  1.1584
  759THF    H1112865   2.526   4.662   0.556  0.8053 -0.8344 -1.1014
  759THF    H1212866   2.559   4.648   0.323 -0.1634 -0.0470  1.1950
  759THF    H1312867   2.388   4.677   0.313  0.2578  1.1333 -1.0060
  760THF     O112868   0.522   1.683   1.234  0.2878 -0.0340  0.3689
  760THF     C212869   0.646   1.741   1.269  0.6185 -0.6040 -0.3800
  760THF     C312870   0.465   1.756   1.125  0.2315  0.4043  0.2077
  760THF     H412871   0.714   1.662   1.299  0.2870 -0.4413  0.8635
  760THF     H512872   0.635   1.811   1.352 -2.1234 -0.4607 -0.7686
  760THF     H612873   0.401   1.691   1.065  1.7417 -0.9630 -0.0004
  760THF     H712874   0.417   1.850   1.153  0.4505  0.1937  1.3523
  760THF     C812875   0.590   1.785   1.037 -0.0980 -0.3474  0.1704
  760THF     C912876   0.699   1.812   1.139 -0.1352  0.0946 -0.5043
  760THF    H1012877   0.578   1.867   0.966 -0.8036  0.0522  0.7415
  760THF    H1112878   0.607   1.693   0.981 -0.3061 -0.3950  0.1881
  760THF    H1212879   0.799   1.779   1.110 -0.2709  0.6616 -1.6429
  760THF    H1312880   0.719   1.915   1.167 -0.1398  0.0114 -0.1864
  761THF     O112881   4.430   5.304   5.415  0.0149  0.2521  0.0428
  761THF     C212882   4.544   5.222   5.452  0.2662 -0.5846  0.0818
  761THF     C312883   4.383   5.277   5.284  0.0521 -0.1782  0.8311
  761THF     H412884   4.512   5.122   5.480  0.0146  0.1463  2.6915
  761THF     H512885   4.607   5.266   5.530 -0.2496  0.6658 -0.1784
  761THF     H612886   4.315   5.192   5.283 -0.5183  0.1535  3.4643
  761THF     H712887   4.311   5.352   5.251  0.8991 -0.2298 -1.3010
  761THF     C812888   4.515   5.260   5.213 -1.0832  0.4889 -0.4008
  761THF     C912889   4.620   5.232   5.323 -0.1229  0.0996  0.1864
  761THF    H1012890   4.535   5.344   5.148 -1.3899 -0.5667 -1.9116
  761THF    H1112891   4.524   5.175   5.145  1.9632 -0.9942  1.6161
  761THF    H1212892   4.675   5.139   5.305  0.9573  1.1129 -2.1931
  761THF    H1312893   4.698   5.308   5.330  0.4320 -0.2464 -1.5906
  762THF     O112894   1.232   2.772   1.811 -0.5049  0.2944  0.8905
  762THF     C212895   1.219   2.730   1.949 -0.2018 -0.3375  0.2686
  762THF     C312896   1.317   2.669   1.753  0.1949  0.2624 -0.2939
  762THF     H412897   1.140   2.784   2.001  0.0084 -0.3731  0.6264
  762THF     H512898   1.310   2.762   1.999 -0.7306  0.3506  0.8018
  762THF     H612899   1.316   2.668   1.644  1.3552 -1.4158 -0.3392
  762THF     H712900   1.420   2.680   1.787 -0.2455 -1.7126  1.9354
  762THF     C812901   1.263   2.540   1.805  0.0271 -0.4796  0.1723
  762THF     C912902   1.193   2.584   1.933  0.2630 -0.0253 -0.2611
  762THF    H1012903   1.337   2.473   1.848  0.4102  0.1926  0.5857
  762THF    H1112904   1.200   2.494   1.729 -0.8258  1.1982 -0.1987
  762THF    H1212905   1.086   2.567   1.918  0.0910  1.8855 -1.5190
  762THF    H1312906   1.215   2.527   2.024  0.6704  1.3937  0.5566
  763THF     O112907   0.672   5.479   1.497  0.4163 -0.5560 -0.1036
  763THF     C212908   0.552   5.420   1.449 -0.4296 -0.1719  0.0601
  763THF     C312909   0.776   5.376   1.484  0.3841  0.2725  0.2637
  763THF     H412910   0.550   5.430   1.340 -0.6110  1.0427  0.1630
  763THF     H512911   0.463   5.470   1.488 -0.8505 -1.9062  1.4643
  763THF     H612912   0.812   5.375   1.381 -3.4311 -0.5859 -1.2386
  763THF     H712913   0.867   5.395   1.541 -1.5260 -1.4969  4.3740
  763THF     C812914   0.693   5.246   1.520  0.5145  0.3362 -0.0734
  763THF     C912915   0.546   5.276   1.508 -0.4723 -0.3190 -0.3304
  763THF    H1012916   0.712   5.196   1.615 -0.3571 -2.6854 -1.3620
  763THF    H1112917   0.717   5.175   1.441  0.7486  0.7052 -0.3359
  763THF    H1212918   0.496   5.211   1.437 -0.3444  0.3066 -1.0059
  763THF    H1312919   0.495   5.268   1.604 -2.0830  1.2907 -0.9973
  764THF     O112920   5.164   3.784   4.180  0.3185 -0.3267  0.4802
  764THF     C212921   5.119   3.905   4.239 -0.8949 -0.2545 -0.0408
  764THF     C312922   5.059   3.691   4.196 -0.2816 -0.4026 -0.5938
  764THF     H412923   5.043   3.956   4.180  0.7060  2.0877 -0.2360
  764THF     H512924   5.199   3.979   4.242 -0.0873 -1.0487 -1.1989
  764THF     H612925   4.990   3.690   4.112 -1.5653  0.0009  0.4243
  764THF     H712926   5.104   3.593   4.213 -0.3772  0.1347  4.0437
  764THF     C812927   4.989   3.735   4.322 -0.0274  0.5257 -0.9738
  764THF     C912928   5.062   3.858   4.365 -0.1025  0.8741 -0.0185
  764THF    H1012929   5.007   3.662   4.401 -1.0514 -0.0033 -1.2084
  764THF    H1112930   4.883   3.759   4.310 -1.3774 -3.9531  0.1962
  764THF    H1212931   4.995   3.929   4.412 -0.5838  1.0076 -0.8797
  764THF    H1312932   5.138   3.828   4.437 -0.2201  0.4037 -0.0876
  765THF     O112933   3.447   1.673   1.904  0.3379  0.3070 -0.1178
  765THF     C212934   3.542   1.658   1.797  0.0922 -0.1084  0.0304
  765THF     C312935   3.382   1.550   1.921  0.3252 -0.0856 -0.3457
  765THF     H412936   3.647   1.678   1.818  0.0807 -1.4379  1.5288
  765THF     H512937   3.504   1.719   1.715 -1.6523 -0.4166  0.5731
  765THF     H612938   3.429   1.493   2.002  1.3172 -1.4391 -1.7975
  765THF     H712939   3.277   1.561   1.944 -0.2830 -1.2086 -2.2972
  765THF     C812940   3.393   1.480   1.789 -0.1836 -0.1582  0.2283
  765THF     C912941   3.533   1.515   1.752  0.0700 -0.0975 -0.3002
  765THF    H1012942   3.324   1.512   1.711 -1.3239 -2.5004  0.2123
  765THF    H1112943   3.374   1.374   1.807 -2.1341 -0.1596 -1.4939
  765THF    H1212944   3.596   1.443   1.804  2.0116  1.0800 -0.9159
  765THF    H1312945   3.566   1.521   1.648  1.6869  0.1083  0.2114
  766THF     O112946   1.531   1.453   4.210  0.2735 -0.4954  0.5725
  766THF     C212947   1.396   1.406   4.213  0.2096 -0.2977  0.2192
  766THF     C312948   1.514   1.597   4.179 -0.1792  0.4870 -0.6516
  766THF     H412949   1.388   1.320   4.279 -0.1082  1.9178  3.2725
  766THF     H512950   1.363   1.383   4.111  1.0792 -3.6321  0.5781
  766THF     H612951   1.597   1.647   4.227 -0.4799  0.3059  0.0661
  766THF     H712952   1.515   1.605   4.070  1.1176 -1.8940 -0.8778
  766THF     C812953   1.390   1.642   4.259 -0.7937 -0.0031  0.2984
  766THF     C912954   1.303   1.517   4.269 -0.6514  0.0820 -0.4481
  766THF    H1012955   1.331   1.719   4.209 -0.4172  0.6089  0.7819
  766THF    H1112956   1.429   1.682   4.352  0.8065 -1.9163  0.5277
  766THF    H1212957   1.271   1.500   4.372 -2.2321 -1.0827 -1.0908
  766THF    H1312958   1.214   1.520   4.206 -0.7460  0.4567 -0.2967
  767THF     O112959   3.893   4.158   1.650  0.4113 -0.0908  0.1798
  767THF     C212960   3.877   4.095   1.779  0.2277  0.1529  0.6012
  767THF     C312961   3.847   4.293   1.660  0.1078 -0.0955  0.3682
  767THF     H412962   3.949   4.124   1.855 -0.5106  1.4905  0.8318
  767THF     H512963   3.873   3.986   1.775  3.6526 -0.1009  1.3927
  767THF     H612964   3.916   4.360   1.711 -1.9510  0.6905  2.2895
  767THF     H712965   3.829   4.327   1.558  1.2083 -0.2493  0.1139
  767THF     C812966   3.726   4.280   1.749  0.4419  0.1172  0.0167
  767THF     C912967   3.748   4.154   1.828  0.7548 -0.2593  0.2426
  767THF    H1012968   3.630   4.282   1.698 -0.5402 -1.1680  1.7138
  767THF    H1112969   3.717   4.356   1.827 -2.2931  1.4429 -1.4667
  767THF    H1212970   3.760   4.176   1.934 -0.8130  2.5286 -0.0641
  767THF    H1312971   3.664   4.086   1.818  1.2937 -0.7721 -1.1320
  768THF     O112972   4.390   2.510   4.078 -0.0408  0.3424 -0.2083
  768THF     C212973   4.451   2.425   4.174  0.2021  0.5025  0.4283
  768THF     C312974   4.280   2.446   4.022  0.2883 -0.3874 -0.2610
  768THF     H412975   4.398   2.428   4.270  0.6516 -1.9561  0.8234
  768THF     H512976   4.555   2.446   4.200 -0.0706  1.4709  0.7684
  768THF     H612977   4.210   2.455   4.105  1.5384  0.4418  0.7223
  768THF     H712978   4.246   2.486   3.926 -0.1843 -2.5613 -1.0592
  768THF     C812979   4.317   2.297   4.011 -0.7804  0.2423 -0.2587
  768THF     C912980   4.431   2.285   4.111  0.5716 -0.3827  0.8709
  768THF    H1012981   4.349   2.278   3.909  1.0316 -2.0080  0.6294
  768THF    H1112982   4.228   2.240   4.037  0.1628 -2.2533 -2.0654
  768THF    H1212983   4.409   2.198   4.173 -2.5505  0.2678  0.8317
  768THF    H1312984   4.523   2.272   4.053 -0.3048  1.5463 -1.0680
  769THF     O112985   4.213   3.801   4.181 -0.1053 -0.7137  0.0850
  769THF     C212986   4.136   3.858   4.289 -0.3947  0.4245 -0.2545
  769THF     C312987   4.203   3.659   4.191 -0.3021 -0.2730 -0.8860
  769THF     H412988   4.045   3.896   4.242 -1.0688  0.3632  0.9519
  769THF     H512989   4.191   3.943   4.331  0.6205  0.2379 -1.1472
  769THF     H612990   4.114   3.635   4.133  0.4547 -0.0520 -2.1816
  769THF     H712991   4.287   3.606   4.145  0.6843  1.1559 -0.8140
  769THF     C812992   4.204   3.632   4.339 -0.6101  0.3085  0.5721
  769THF     C912993   4.117   3.746   4.394 -0.2751  0.2976 -0.1005
  769THF    H1012994   4.303   3.625   4.386 -0.3279 -0.3049 -0.0857
  769THF    H1112995   4.170   3.530   4.356 -0.5800  0.0575 -0.7806
  769THF    H1212996   4.011   3.729   4.409  0.3984 -2.4973  2.3558
  769THF    H1312997   4.159   3.788   4.485 -0.1094  0.2557 -0.1579
  770THF     O112998   4.966   0.025   2.121  0.5948  0.2328  0.0916
  770THF     C212999   4.866  -0.059   2.057 -0.7539  0.1583 -0.2908
  770THF     C313000   5.024  -0.053   2.228  0.0075  0.0954  0.1357
  770THF     H413001   4.910  -0.124   1.981  2.7575  0.8102  0.9783
  770THF     H513002   4.797   0.010   2.009 -1.8641 -0.3658  0.5135
  770THF     H613003   5.101  -0.118   2.186  0.0154  1.2965 -1.8186
  770THF     H713004   5.077   0.016   2.293  2.9737 -0.9572 -0.9975
  770THF     C813005   4.906  -0.135   2.277  0.7179 -0.0706  0.0770
  770THF     C913006   4.805  -0.130   2.179 -0.2294  0.5323  0.5007
  770THF    H1013007   4.878  -0.101   2.377  1.3401 -0.3289  0.3436
  770THF    H1113008   4.939  -0.239   2.284 -0.5640 -0.5361 -0.4606
  770THF    H1213009   4.755  -0.226   2.166  1.1679 -0.1441 -0.0451
  770THF    H1313010   4.720  -0.076   2.220 -0.0755 -0.0806  1.6682
  771THF     O113011   1.854   1.963   2.113  0.1385 -0.5112 -0.1050
  771THF     C213012   1.805   1.978   1.984 -0.7390 -0.0217 -0.1359
  771THF     C313013   1.743   1.948   2.193  0.3941 -0.5505  0.1143
  771THF     H413014   1.888   1.958   1.916 -0.2736  0.1478  0.3771
  771THF     H513015   1.766   2.078   1.966  1.2074  1.0354  1.2396
  771THF     H613016   1.761   1.904   2.291 -2.0270 -2.3350 -0.1548
  771THF     H713017   1.698   2.046   2.208  0.9060  0.0717 -2.0482
  771THF     C813018   1.646   1.861   2.118  0.0569 -0.5438  0.0326
  771THF     C913019   1.697   1.866   1.980 -0.2159 -0.1777  1.0697
  771THF    H1013020   1.539   1.872   2.140  0.3809  0.6812  1.0794
  771THF    H1113021   1.670   1.759   2.148 -1.3654 -0.9361 -0.0648
  771THF    H1213022   1.734   1.768   1.950 -2.2637 -0.2312 -1.7087
  771THF    H1313023   1.625   1.891   1.901  1.4046 -0.9492 -0.7336
  772THF     O113024   2.794   2.743   4.701 -0.4556  0.4393 -0.9624
  772THF     C213025   2.679   2.666   4.671 -0.8682  0.2490 -0.1528
  772THF     C313026   2.791   2.850   4.605 -0.0428 -0.4245  0.4455
  772THF     H413027   2.592   2.703   4.724  0.3292  2.0086  0.6716
  772THF     H513028   2.680   2.563   4.707 -0.0825  0.1380 -0.4678
  772THF     H613029   2.713   2.921   4.634 -1.7985 -2.0432 -0.1243
  772THF     H713030   2.892   2.883   4.583  0.0827 -0.5422  0.8329
  772THF     C813031   2.742   2.785   4.472  0.1696 -0.3657  0.3149
  772THF     C913032   2.668   2.665   4.517 -0.0639  0.0964  0.1989
  772THF    H1013033   2.829   2.745   4.420 -0.3310  0.6052 -1.3247
  772THF    H1113034   2.673   2.845   4.413  0.4186  1.8609  2.1149
  772THF    H1213035   2.568   2.644   4.480 -0.1879 -1.2917  1.2303
  772THF    H1313036   2.729   2.581   4.484 -0.9968 -0.3420 -0.4370
  773THF     O113037   3.657   2.530   4.491  0.4079 -0.3696 -0.5858
  773THF     C213038   3.563   2.630   4.543 -0.9280  0.6783  0.5715
  773THF     C313039   3.589   2.404   4.506  0.4014  0.2541  0.5082
  773THF     H413040   3.473   2.624   4.483 -0.2292  0.1076 -0.4447
  773THF     H513041   3.617   2.725   4.537  3.4648 -1.6389 -1.9589
  773THF     H613042   3.498   2.407   4.446  0.1025 -0.4539  0.9031
  773THF     H713043   3.652   2.319   4.479 -0.7658 -0.0999 -1.2821
  773THF     C813044   3.554   2.420   4.657 -0.5108 -0.3625  0.1910
  773THF     C913045   3.523   2.573   4.670 -0.6411 -0.0755 -0.1204
  773THF    H1013046   3.632   2.382   4.724  0.2383  0.8131  0.0094
  773THF    H1113047   3.461   2.374   4.691 -0.2505 -0.3431  0.9633
  773THF    H1213048   3.419   2.603   4.686 -0.5980  1.3724 -2.1175
  773THF    H1313049   3.571   2.616   4.758  2.2170 -2.3311 -0.4343
  774THF     O113050   4.842   4.361   2.366 -0.8225 -0.2046  0.1645
  774THF     C213051   4.900   4.477   2.423  0.2158  0.0194  0.1193
  774THF     C313052   4.939   4.256   2.373  0.2282 -0.1313 -0.5372
  774THF     H413053   4.856   4.482   2.523 -1.1160  0.1231 -0.4409
  774THF     H513054   4.865   4.568   2.375 -1.8533  1.6342  4.1616
  774THF     H613055   4.891   4.180   2.435  3.1431 -1.5191  0.1529
  774THF     H713056   4.972   4.215   2.278  0.7348 -0.6845 -0.1252
  774THF     C813057   5.053   4.303   2.448 -0.2277  0.0746 -0.1704
  774THF     C913058   5.049   4.452   2.426  0.6514 -0.0960 -0.1680
  774THF    H1013059   5.141   4.261   2.399 -1.1354 -0.9060 -1.0136
  774THF    H1113060   5.037   4.292   2.555 -0.4935 -2.6291 -0.3935
  774THF    H1213061   5.091   4.507   2.510 -1.3864  0.4292  0.5607
  774THF    H1313062   5.089   4.478   2.327  0.2303 -1.4907 -0.7293
  775THF     O113063   3.347   1.434   0.885  0.0747  0.4620 -0.5785
  775THF     C213064   3.244   1.477   0.973 -0.3678 -0.4727  0.1268
  775THF     C313065   3.318   1.453   0.744  0.8368 -0.0704 -0.0966
  775THF     H413066   3.288   1.516   1.065 -0.7459 -0.5999  0.3641
  775THF     H513067   3.167   1.403   0.993 -0.9854 -0.0663 -0.6859
  775THF     H613068   3.409   1.478   0.690  0.3127  0.5191 -0.7298
  775THF     H713069   3.273   1.364   0.699 -1.0162  0.8291 -0.1296
  775THF     C813070   3.220   1.569   0.748 -0.1756 -0.0408  0.1758
  775THF     C913071   3.182   1.590   0.887  0.0937  0.1031 -0.2875
  775THF    H1013072   3.142   1.550   0.674 -2.5334  1.8869  1.9982
  775THF    H1113073   3.272   1.655   0.705 -0.0952 -0.1562  0.0394
  775THF    H1213074   3.225   1.682   0.926 -1.3033  0.9815 -0.7400
  775THF    H1313075   3.074   1.596   0.904  0.0981 -1.4164  0.4264
  776THF     O113076   2.546   2.102   4.893 -0.2255  0.0622  0.7148
  776THF     C213077   2.669   2.088   4.970 -0.4509  0.3191  0.0245
  776THF     C313078   2.450   2.127   4.997  0.7366  0.0031  0.5446
  776THF     H413079   2.754   2.093   4.902 -0.5794  0.7188 -0.1070
  776THF     H513080   2.669   1.990   5.018  1.4593  0.2052 -0.1352
  776THF     H613081   2.354   2.155   4.954  0.4476 -1.8042 -0.0712
  776THF     H713082   2.426   2.027   5.032 -1.9679 -0.2054 -1.5601
  776THF     C813083   2.521   2.215   5.097 -0.3097  0.0709  0.0677
  776THF     C913084   2.667   2.195   5.074  0.4701 -0.0510 -0.6039
  776THF    H1013085   2.499   2.188   5.200  0.1797 -2.7879 -0.4966
  776THF    H1113086   2.510   2.322   5.078  2.3959  0.8846  2.3401
  776THF    H1213087   2.717   2.282   5.032 -1.1541  0.5828 -1.3293
  776THF    H1313088   2.717   2.163   5.165 -1.8653 -0.5386  0.5704
  777THF     O113089   3.776   1.704   0.575 -0.0393 -0.4606 -0.2497
  777THF     C213090   3.640   1.715   0.565  0.1290 -0.6678  0.2812
  777THF     C313091   3.821   1.839   0.546 -0.0387 -0.0706 -0.1555
  777THF     H413092   3.601   1.630   0.621 -1.6494 -0.9419 -1.2787
  777THF     H513093   3.599   1.704   0.465 -1.0048 -1.0694  0.7721
  777THF     H613094   3.925   1.849   0.576 -0.0897 -1.2740  0.4786
  777THF     H713095   3.802   1.854   0.440  0.6420 -0.0789 -0.2862
  777THF     C813096   3.715   1.927   0.616 -0.5359 -0.0107 -0.0507
  777THF     C913097   3.593   1.845   0.624 -0.2253 -0.0265 -0.2652
  777THF    H1013098   3.694   2.020   0.563 -0.5676 -1.3766 -2.5577
  777THF    H1113099   3.740   1.948   0.720 -2.2525  0.2278  0.3409
  777THF    H1213100   3.551   1.833   0.724  0.1573 -1.8806 -0.2815
  777THF    H1313101   3.519   1.889   0.557 -0.5196 -0.3052 -0.1250
  778THF     O113102   3.578   4.685   2.857  0.2062 -0.2390 -0.2649
  778THF     C213103   3.570   4.557   2.796  0.2611  0.4962  0.0586
  778THF     C313104   3.547   4.679   2.996 -0.3972  1.3507 -0.0290
  778THF     H413105   3.661   4.497   2.799  0.2328  0.4673  0.3882
  778THF     H513106   3.537   4.567   2.692 -0.6942  1.1399  0.4183
  778THF     H613107   3.638   4.704   3.051 -0.4394 -2.2663  1.9964
  778THF     H713108   3.461   4.745   3.011 -1.4518  0.2568 -1.0166
  778THF     C813109   3.497   4.536   3.024 -0.2533 -0.1512 -0.5472
  778THF     C913110   3.463   4.492   2.886  0.0313  0.3324  0.6605
  778THF    H1013111   3.416   4.530   3.097  0.4338  0.8018  0.3112
  778THF    H1113112   3.582   4.477   3.058 -1.4161 -1.3548  0.3909
  778THF    H1213113   3.462   4.384   2.873 -0.8862  0.4157 -0.0431
  778THF    H1313114   3.366   4.527   2.852 -0.0323  0.3600  0.8649
  779THF     O113115   2.636   2.514   1.130 -0.2839 -0.5221  0.4093
  779THF     C213116   2.734   2.581   1.058 -0.1660 -0.3351 -0.1243
  779THF     C313117   2.541   2.615   1.160 -0.4270  0.7539  0.1802
  779THF     H413118   2.796   2.504   1.012 -0.7716 -0.3447 -0.9321
  779THF     H513119   2.794   2.637   1.130  1.7877 -3.2879  0.7473
  779THF     H613120   2.447   2.566   1.185 -0.7745  1.6437  0.6507
  779THF     H713121   2.579   2.675   1.242 -0.4565  0.5948  0.3122
  779THF     C813122   2.528   2.695   1.026 -0.2790 -0.0151  0.3081
  779THF     C913123   2.661   2.677   0.964 -0.1815 -0.3377  0.3010
  779THF    H1013124   2.495   2.799   1.033  0.8970  0.3569  0.4646
  779THF    H1113125   2.456   2.636   0.968  0.6730  0.3599 -1.3080
  779THF    H1213126   2.651   2.634   0.865  0.8301 -2.6338  1.1396
  779THF    H1313127   2.720   2.769   0.964  1.6487 -1.4334  1.5025
  780THF     O113128   4.394   1.670   1.260 -0.0455 -0.0166 -0.3073
  780THF     C213129   4.257   1.714   1.247 -0.0552  0.3125  0.6137
  780THF     C313130   4.389   1.566   1.357 -0.2776 -0.2767  0.2717
  780THF     H413131   4.210   1.644   1.177  0.6612 -2.3905  2.6567
  780THF     H513132   4.255   1.814   1.203  0.6825 -0.7848 -2.1941
  780THF     H613133   4.360   1.467   1.321 -0.9686 -0.4702  1.3263
  780THF     H713134   4.492   1.554   1.391  0.0824 -2.4912 -1.3171
  780THF     C813135   4.287   1.615   1.467 -0.2629  0.3272  0.0789
  780THF     C913136   4.188   1.693   1.387  0.5953 -0.3746  0.4312
  780THF    H1013137   4.350   1.674   1.533  0.3569  0.6051 -0.7399
  780THF    H1113138   4.246   1.529   1.521  1.3552 -1.1517 -0.9231
  780THF    H1213139   4.104   1.624   1.380 -0.3290  0.5736  1.7747
  780THF    H1313140   4.153   1.781   1.440  0.1901 -1.4341  1.9636
  781THF     O113141   1.997   5.180   3.985  0.3440 -0.1057  0.4363
  781THF     C213142   2.099   5.105   4.052  0.0213  0.3027  0.1826
  781THF     C313143   1.948   5.290   4.069  0.1252  0.2819 -0.1352
  781THF     H413144   2.174   5.092   3.974 -0.6797 -1.7390 -0.2315
  781THF     H513145   2.058   5.010   4.088  2.4420  0.2130  3.0633
  781THF     H613146   1.967   5.382   4.014  0.8648 -1.0424 -2.2130
  781THF     H713147   1.840   5.273   4.074  0.3737 -1.6867 -0.4578
  781THF     C813148   2.013   5.280   4.205 -0.6684  0.0785 -0.4749
  781THF     C913149   2.137   5.187   4.170 -0.2686 -0.8990 -0.5469
  781THF    H1013150   1.952   5.229   4.280  0.0064  1.3401  0.9806
  781THF    H1113151   2.045   5.377   4.243  2.3856 -0.9800 -0.0430
  781THF    H1213152   2.220   5.253   4.145 -0.8905  0.5676  1.0672
  781THF    H1313153   2.162   5.135   4.263 -1.1706 -0.7403 -0.2005
  782THF     O113154   4.271   5.100   3.192  0.0539 -0.3556  0.2236
  782THF     C213155   4.270   4.967   3.148  0.2865 -0.1322 -0.0177
  782THF     C313156   4.278   5.098   3.337 -0.1992 -0.0568  0.7639
  782THF     H413157   4.364   4.941   3.101  1.0920  2.4146  0.0150
  782THF     H513158   4.185   4.944   3.084 -0.3763  1.5090  0.2184
  782THF     H613159   4.321   5.183   3.391  2.0753 -2.2577  2.6635
  782THF     H713160   4.174   5.103   3.370 -0.9849  0.6865 -1.6138
  782THF     C813161   4.332   4.961   3.369  0.2695 -0.4562  0.4695
  782THF     C913162   4.247   4.883   3.270  0.4175  0.7223 -0.5193
  782THF    H1013163   4.307   4.926   3.469 -0.9167  2.4724  1.3186
  782THF    H1113164   4.439   4.950   3.353  0.8297  0.6491  2.9284
  782THF    H1213165   4.281   4.780   3.259 -0.6571  0.2843  0.0433
  782THF    H1313166   4.141   4.889   3.296 -0.2998 -0.6032 -2.8512
  783THF     O113167   5.387   1.854   0.952  0.1856  0.0991  0.4597
  783THF     C213168   5.422   1.753   0.866 -0.1863  0.1947  0.1516
  783THF     C313169   5.459   1.972   0.926 -0.2131  0.1417  0.0401
  783THF     H413170   5.362   1.776   0.778  1.8095  0.8938 -1.0825
  783THF     H513171   5.389   1.657   0.906  3.1701 -0.6010  1.3548
  783THF     H613172   5.413   2.029   0.845  1.1403  2.0217  0.5236
  783THF     H713173   5.449   2.029   1.019 -2.2747  0.6623 -0.4559
  783THF     C813174   5.600   1.910   0.893 -0.8526 -0.3016  0.7927
  783THF     C913175   5.579   1.762   0.871  0.1965  0.3715 -0.0604
  783THF    H1013176   5.681   1.919   0.965  0.6966 -0.1564 -0.8941
  783THF    H1113177   5.633   1.946   0.795 -0.8331  0.3115  1.0192
  783THF    H1213178   5.627   1.722   0.782 -1.3045 -0.5954 -0.4795
  783THF    H1313179   5.616   1.693   0.947 -0.8756 -0.6727 -0.4439
  784THF     O113180   5.410   1.162   2.488  0.0130 -0.1711  0.6889
  784THF     C213181   5.348   1.262   2.574  0.0183 -0.4303  0.3809
  784THF     C313182   5.463   1.227   2.379 -0.2197 -0.2435  0.5792
  784THF     H413183   5.364   1.235   2.678 -2.4257  0.8039  1.1739
  784THF     H513184   5.241   1.280   2.563  0.4523  3.6530  1.2375
  784THF     H613185   5.544   1.165   2.343  0.6097  0.0731  1.8504
  784THF     H713186   5.394   1.265   2.304 -1.1963 -0.4908  1.3305
  784THF     C813187   5.523   1.348   2.451  0.3348 -0.3820  0.0316
  784THF     C913188   5.408   1.397   2.532  0.8708 -0.7239 -0.3685
  784THF    H1013189   5.556   1.433   2.392  1.0982  0.0967  1.1249
  784THF    H1113190   5.606   1.326   2.518  1.4233  1.6734 -0.5577
  784THF    H1213191   5.436   1.460   2.616 -1.7090  2.3078 -1.5750
  784THF    H1313192   5.346   1.455   2.463  2.2974  0.5252 -0.6359
  785THF     O113193   3.236   0.987   2.020 -0.0564 -0.0661 -0.9242
  785THF     C213194   3.187   1.117   1.993  0.0142 -0.1543  0.6352
  785THF     C313195   3.115   0.914   2.056 -0.1443  0.6449 -0.0003
  785THF     H413196   3.160   1.116   1.887  2.3504 -1.2237 -0.0280
  785THF     H513197   3.274   1.183   1.994 -1.0006  1.4042 -2.5138
  785THF     H613198   3.057   0.882   1.970  3.4859 -1.7537 -1.7960
  785THF     H713199   3.144   0.820   2.103 -0.9890  0.0627 -0.6198
  785THF     C813200   3.039   1.004   2.149 -0.3003  1.1503  0.0433
  785THF     C913201   3.072   1.142   2.089  0.1192  0.1031  0.6547
  785THF    H1013202   3.078   0.994   2.250 -2.4175 -1.0287  0.7214
  785THF    H1113203   2.930   0.999   2.157 -0.2531  0.6241  0.3256
  785THF    H1213204   2.982   1.187   2.048  0.0669 -1.6307 -1.3188
  785THF    H1313205   3.119   1.202   2.166  2.3187  2.1162 -2.0159
  786THF     O113206   3.827   4.364   3.754  0.6753  0.4534  0.3703
  786THF     C213207   3.847   4.237   3.810 -1.1361  0.6200  0.4913
  786THF     C313208   3.819   4.457   3.859 -0.6762 -0.7439 -0.0757
  786THF     H413209   3.898   4.160   3.751  2.0114  1.0374  2.4491
  786THF     H513210   3.749   4.200   3.840 -0.3800 -1.7934  0.2627
  786THF     H613211   3.829   4.562   3.829 -2.5032  0.4015  2.8493
  786THF     H713212   3.729   4.443   3.919 -0.6173  1.1641  0.5422
  786THF     C813213   3.947   4.413   3.931 -0.3268 -0.1271 -0.2712
  786THF     C913214   3.948   4.261   3.927  0.2984  0.3317  0.4289
  786THF    H1013215   3.942   4.452   4.032 -0.6115  1.1757 -0.7614
  786THF    H1113216   4.040   4.457   3.895 -1.0527  1.1226 -0.6896
  786THF    H1213217   4.053   4.237   3.910  0.4770  0.8665  0.7512
  786THF    H1313218   3.910   4.216   4.019 -0.6794  0.7607  0.2426
  787THF     O113219   0.458   0.008   3.126  0.1794  0.0708  0.1295
  787THF     C213220   0.439  -0.078   3.007 -0.7215 -0.4941 -0.7261
  787THF     C313221   0.533   0.118   3.080 -0.8108  0.0284 -0.0885
  787THF     H413222   0.337  -0.116   2.995 -0.9377  0.1927 -1.0911
  787THF     H513223   0.502  -0.167   3.003  1.5956  1.0972 -0.7888
  787THF     H613224   0.457   0.196   3.085 -1.2500 -0.4184  0.3193
  787THF     H713225   0.613   0.134   3.153 -1.2301  0.3552  0.3030
  787THF     C813226   0.585   0.097   2.938 -0.3617 -0.1772  0.1322
  787THF     C913227   0.475   0.007   2.883 -0.0465  0.0766  0.2748
  787THF    H1013228   0.680   0.044   2.945  0.5496  1.4739  0.9322
  787THF    H1113229   0.598   0.199   2.901  1.0271  0.1300  1.3795
  787THF    H1213230   0.388   0.068   2.861 -1.7225 -0.1764  5.1271
  787THF    H1313231   0.525  -0.046   2.801 -1.2613  1.1251 -1.2003
  788THF     O113232   3.922   2.611   3.264  0.3080  0.6069  0.0166
  788THF     C213233   3.832   2.709   3.301  0.3578 -0.1350 -1.2385
  788THF     C313234   4.048   2.665   3.222  0.3795 -0.1484  0.0139
  788THF     H413235   3.805   2.677   3.402 -0.7803 -2.4482 -2.1871
  788THF     H513236   3.744   2.705   3.236 -0.1716 -1.2800 -0.4834
  788THF     H613237   4.140   2.609   3.240  1.2130  1.4245  0.9157
  788THF     H713238   4.044   2.688   3.116  0.2631 -0.2710 -0.0082
  788THF     C813239   4.041   2.799   3.301  0.2919  0.1885  0.8425
  788THF     C913240   3.893   2.839   3.288 -0.6059 -1.0906  1.0256
  788THF    H1013241   4.118   2.862   3.257  0.8596 -1.2463 -0.3267
  788THF    H1113242   4.072   2.782   3.404  0.8946  0.9771  0.7925
  788THF    H1213243   3.857   2.905   3.366  2.3493  2.3242 -0.2193
  788THF    H1313244   3.872   2.882   3.190 -2.0475 -1.3458  1.2083
  789THF     O113245   5.304   4.651   1.931  0.0537  0.4857 -0.9253
  789THF     C213246   5.353   4.606   2.061 -0.5445  0.5764  0.1635
  789THF     C313247   5.177   4.712   1.952 -0.0412  0.7280 -0.0267
  789THF     H413248   5.460   4.611   2.085 -1.0797 -1.6605  3.8795
  789THF     H513249   5.336   4.500   2.082  0.0786  0.2675 -0.8559
  789THF     H613250   5.182   4.811   1.906  0.3075  0.6220 -0.2242
  789THF     H713251   5.097   4.653   1.907 -0.1169  0.0365  0.9968
  789THF     C813252   5.138   4.701   2.098  0.3507 -0.2391 -0.5981
  789THF     C913253   5.275   4.694   2.161 -0.1947 -0.1912  0.4140
  789THF    H1013254   5.078   4.611   2.111 -1.7532  1.2444  0.5152
  789THF    H1113255   5.080   4.786   2.135 -0.2415 -1.1207  0.5679
  789THF    H1213256   5.310   4.797   2.157 -2.5347  0.6308 -1.0882
  789THF    H1313257   5.275   4.647   2.259 -1.3409  0.4788  0.7519
  790THF     O113258   2.519   1.974   0.174  0.6388 -0.3706  0.2117
  790THF     C213259   2.497   1.858   0.094 -0.0519  0.2726 -0.5136
  790THF     C313260   2.387   2.019   0.217 -0.9357  0.8129 -1.1847
  790THF     H413261   2.476   1.766   0.149  0.1919  1.3590  1.4991
  790THF     H513262   2.588   1.839   0.036  0.7158 -0.2852  0.8383
  790THF     H613263   2.351   1.960   0.302  1.1789 -0.8453 -1.3385
  790THF     H713264   2.390   2.126   0.239 -0.6580  1.3466 -3.5320
  790THF     C813265   2.293   1.996   0.102  0.0053 -0.1798  0.1323
  790THF     C913266   2.372   1.906   0.015 -0.5303 -0.3452  0.2322
  790THF    H1013267   2.260   2.082   0.045 -3.1897 -2.5895 -2.0137
  790THF    H1113268   2.201   1.939   0.117  0.1872 -0.2561  1.0396
  790THF    H1213269   2.313   1.820  -0.018 -2.9220  2.0291 -2.2556
  790THF    H1313270   2.406   1.958  -0.075 -0.8209  0.0223  0.3315
  791THF     O113271   5.476   4.211   3.422 -0.2382 -0.4796  0.0803
  791THF     C213272   5.538   4.079   3.426  0.2706  0.2131 -0.0478
  791THF     C313273   5.557   4.285   3.331  0.6374 -0.0713  0.4751
  791THF     H413274   5.507   4.023   3.338  1.7885  0.3104 -0.6638
  791THF     H513275   5.517   4.020   3.516  1.6830 -1.3194 -0.6850
  791THF     H613276   5.506   4.264   3.237 -0.6445  0.8535  0.9260
  791THF     H713277   5.556   4.393   3.346  0.2937 -0.0711  0.4480
  791THF     C813278   5.704   4.241   3.345 -0.3277 -0.3315 -0.1150
  791THF     C913279   5.695   4.113   3.425  0.1716 -0.5064 -0.3148
  791THF    H1013280   5.773   4.305   3.400  1.0779 -0.6988 -1.3776
  791THF    H1113281   5.756   4.235   3.249  1.5444  3.2425  0.4936
  791THF    H1213282   5.749   4.031   3.379 -0.8144 -1.9894  1.0516
  791THF    H1313283   5.730   4.127   3.528  1.8970 -2.9943 -0.4689
  792THF     O113284   3.515   2.349   3.026 -0.0391  0.2455 -0.2918
  792THF     C213285   3.626   2.378   2.939  0.3240  0.5267  0.0360
  792THF     C313286   3.545   2.369   3.160 -0.4075 -0.1037  0.1778
  792THF     H413287   3.594   2.424   2.846  1.3748  2.3639  0.5467
  792THF     H513288   3.680   2.285   2.918 -1.5267 -0.4116 -0.8933
  792THF     H613289   3.477   2.443   3.204  1.0242  0.3947  1.6547
  792THF     H713290   3.546   2.276   3.217 -0.1013 -1.0842 -1.3547
  792THF     C813291   3.686   2.413   3.161  0.1420  0.3240 -0.0948
  792THF     C913292   3.706   2.472   3.020  0.1478 -0.3400  0.1560
  792THF    H1013293   3.759   2.332   3.161 -2.2954 -1.9947 -1.1852
  792THF    H1113294   3.719   2.486   3.236  0.0348 -0.1889  0.4647
  792THF    H1213295   3.653   2.567   3.021  1.8429  0.6907  2.1743
  792THF    H1313296   3.808   2.495   2.989 -0.5322 -0.5874 -2.5043
  793THF     O113297   2.110   0.022   0.086 -0.3146 -0.0392  0.1500
  793THF     C213298   2.187  -0.041  -0.026  0.6487 -0.3621  0.1765
  793THF     C313299   2.207   0.049   0.191  0.3861 -0.3629  0.1353
  793THF     H413300   2.252   0.032  -0.075  0.5632  0.2334  0.9363
  793THF     H513301   2.132  -0.096  -0.103 -0.5852  0.3866  0.4976
  793THF     H613302   2.284   0.116   0.153  2.1375 -1.1876  2.0259
  793THF     H713303   2.176   0.086   0.289  2.0715  0.7262  0.2997
  793THF     C813304   2.264  -0.092   0.196 -0.5695  0.3023 -0.3393
  793THF     C913305   2.279  -0.127   0.055 -0.6583 -0.3939 -0.7560
  793THF    H1013306   2.205  -0.163   0.255  0.9285 -1.1382 -0.5041
  793THF    H1113307   2.365  -0.096   0.236 -0.6161  0.3007 -0.2213
  793THF    H1213308   2.384  -0.121   0.026 -0.0564 -1.8716  0.9119
  793THF    H1313309   2.258  -0.234   0.052  1.7050 -0.9413  0.1261
  794THF     O113310   3.376   4.184   1.358 -0.1526 -0.4991 -0.5396
  794THF     C213311   3.389   4.258   1.485  0.1379 -0.2525 -0.1446
  794THF     C313312   3.277   4.086   1.361 -0.1373  0.6170  0.3720
  794THF     H413313   3.414   4.364   1.472  1.6596 -0.6303 -0.5716
  794THF     H513314   3.470   4.215   1.544  0.6725 -0.3713 -0.9498
  794THF     H613315   3.194   4.125   1.302 -1.1090  1.4856  2.2177
  794THF     H713316   3.307   3.990   1.321 -2.0533  0.5531 -1.0104
  794THF     C813317   3.233   4.088   1.509  0.3710  0.3359 -1.0105
  794THF     C913318   3.270   4.231   1.565 -0.4182  0.0908 -0.4561
  794THF    H1013319   3.277   4.007   1.568 -0.8639  0.0475 -0.4513
  794THF    H1113320   3.125   4.090   1.521  0.2312  0.4045 -2.1622
  794THF    H1213321   3.186   4.296   1.540 -0.5829 -0.8390 -2.5754
  794THF    H1313322   3.287   4.236   1.672 -1.6887  2.5543 -0.3074
  795THF     O113323   4.381   5.098   2.231 -0.0132  0.7708 -0.0097
  795THF     C213324   4.239   5.080   2.220 -0.9582  0.0618  0.3412
  795THF     C313325   4.415   5.150   2.101 -0.0277 -0.0549  0.1936
  795THF     H413326   4.192   5.073   2.319 -2.0602 -2.1579 -0.2608
  795THF     H513327   4.220   4.985   2.170  1.1107 -1.5999  2.4850
  795THF     H613328   4.520   5.179   2.093  0.5084 -1.9811 -0.2324
  795THF     H713329   4.398   5.071   2.028 -1.7458 -1.0291  1.5837
  795THF     C813330   4.307   5.249   2.077  0.4191 -1.1424 -0.3146
  795THF     C913331   4.188   5.191   2.137  0.2584  0.2652 -0.1575
  795THF    H1013332   4.281   5.275   1.974 -0.9477  1.7912  0.6609
  795THF    H1113333   4.320   5.343   2.131 -2.4236 -0.5712 -0.5054
  795THF    H1213334   4.128   5.269   2.184  0.3842  0.7809 -0.8368
  795THF    H1313335   4.125   5.130   2.072  2.1165 -1.4908 -0.4223
  796THF     O113336   4.405   1.983   0.455 -0.5063 -0.3436  0.6439
  796THF     C213337   4.539   1.967   0.391  0.8749 -0.5581  0.3341
  796THF     C313338   4.352   1.849   0.439  0.3437 -0.5098 -1.3738
  796THF     H413339   4.609   2.049   0.408 -2.0560  2.1940  0.0197
  796THF     H513340   4.521   1.952   0.285  0.0573 -1.6761  0.6148
  796THF     H613341   4.265   1.839   0.504  1.8541  0.6347  0.9415
  796THF     H713342   4.322   1.836   0.334 -0.3336 -2.1880 -1.0196
  796THF     C813343   4.467   1.748   0.473 -0.1113 -0.2287 -0.6534
  796THF     C913344   4.589   1.848   0.470  0.3901  0.0735  0.6542
  796THF    H1013345   4.465   1.661   0.407 -1.6632  0.9028 -2.2008
  796THF    H1113346   4.448   1.716   0.575 -1.1774 -0.8279 -1.0256
  796THF    H1213347   4.609   1.876   0.574  1.1516 -0.0747  0.5483
  796THF    H1313348   4.680   1.801   0.434 -1.0486 -0.6637 -2.2982
  797THF     O113349   4.992   3.209   2.396  0.0033 -0.2871  0.3955
  797THF     C213350   5.109   3.166   2.328  0.2814  0.4580  0.7472
  797THF     C313351   4.950   3.332   2.334  0.2512  0.4071 -0.7295
  797THF     H413352   5.088   3.134   2.226  0.3194 -2.8644  1.6631
  797THF     H513353   5.159   3.080   2.374 -0.1636  0.4794  1.2833
  797THF     H613354   4.892   3.304   2.246 -0.1002  1.2105 -0.7624
  797THF     H713355   4.886   3.396   2.395  0.0005 -0.3280 -0.2075
  797THF     C813356   5.082   3.393   2.296 -1.0331  0.1718  0.3097
  797THF     C913357   5.191   3.292   2.328  0.5330 -0.3122 -0.2107
  797THF    H1013358   5.088   3.486   2.353 -1.5261  0.9963 -0.9491
  797THF    H1113359   5.081   3.415   2.189 -2.6530 -3.1830 -0.5083
  797THF    H1213360   5.277   3.284   2.261  0.2932  1.5182 -0.7998
  797THF    H1313361   5.234   3.300   2.428  0.7119  0.0453 -0.3176
  798THF     O113362   5.045   1.854   0.032 -0.6364 -0.2905 -0.2385
  798THF     C213363   5.082   1.845   0.171 -0.0007  0.2013 -0.6993
  798THF     C313364   4.909   1.868   0.030  0.6749  0.0527 -0.2446
  798THF     H413365   5.181   1.891   0.178  0.7610 -1.4079 -0.5335
  798THF     H513366   5.085   1.739   0.194 -0.8572 -0.1897 -2.2434
  798THF     H613367   4.864   1.895  -0.065  1.0644 -2.5854 -1.2671
  798THF     H713368   4.865   1.770   0.050  3.7418 -1.8374 -1.8781
  798THF     C813369   4.881   1.970   0.140  0.1319 -0.1512 -0.5118
  798THF     C913370   4.978   1.929   0.242  0.4330 -0.4451 -0.4274
  798THF    H1013371   4.780   1.954   0.178  0.5885 -1.2881  0.2473
  798THF    H1113372   4.903   2.070   0.103 -0.2211  0.7311  1.5478
  798THF    H1213373   5.030   2.006   0.299 -0.4354  0.4286 -0.7799
  798THF    H1313374   4.927   1.867   0.315 -2.3920  0.9067 -1.1160
  799THF     O113375   0.724   2.160   0.451  0.5205  0.5781  0.1845
  799THF     C213376   0.739   2.048   0.362  0.3687 -0.0187 -0.0724
  799THF     C313377   0.847   2.216   0.448 -1.0057  0.3871 -0.2250
  799THF     H413378   0.646   2.003   0.327  1.1002 -1.1096 -0.6505
  799THF     H513379   0.801   1.965   0.394  1.6981  1.3713  1.1155
  799THF     H613380   0.847   2.312   0.500 -1.4135  0.1568  0.2017
  799THF     H713381   0.912   2.148   0.503 -2.0039 -1.9823 -1.7745
  799THF     C813382   0.885   2.221   0.301  0.6946 -0.3079  0.7032
  799THF     C913383   0.799   2.111   0.240 -0.0940 -0.3442  0.5466
  799THF    H1013384   0.992   2.202   0.294  0.5877 -1.1262  1.2270
  799THF    H1113385   0.873   2.324   0.265  2.1116 -0.3361  0.0951
  799THF    H1213386   0.724   2.156   0.174  0.1339  0.8890  1.1059
  799THF    H1313387   0.860   2.046   0.177 -0.5988 -1.4708  1.2027
  800THF     O113388   0.011   3.561   1.703 -0.1282 -0.3179  0.3133
  800THF     C213389   0.044   3.430   1.746  0.2724  0.7102 -1.0304
  800THF     C313390  -0.089   3.608   1.787  0.8345  0.8881 -0.1403
  800THF     H413391   0.143   3.397   1.714 -1.1598 -2.3730 -2.6552
  800THF     H513392  -0.039   3.368   1.715 -0.5935  1.4613 -0.2810
  800THF     H613393  -0.091   3.716   1.771 -0.2654  1.1458  1.5037
  800THF     H713394  -0.183   3.560   1.761  1.3591 -2.0751  2.7587
  800THF     C813395  -0.062   3.556   1.927 -0.5724  0.4947 -0.2366
  800THF     C913396   0.046   3.450   1.899  0.4748 -0.7670  0.0566
  800THF    H1013397  -0.148   3.501   1.966  1.1557 -0.9054  1.8140
  800THF    H1113398  -0.037   3.641   1.990 -1.7310  0.8740 -0.2570
  800THF    H1213399   0.143   3.476   1.942 -0.1565 -0.4816  1.3779
  800THF    H1313400   0.017   3.354   1.941 -1.4506 -0.5117 -0.5942
  801THF     O113401   0.860   4.893   0.371  0.1547 -0.0510  0.1384
  801THF     C213402   0.789   4.779   0.404  0.7061 -0.1575 -0.2271
  801THF     C313403   0.781   5.010   0.408  0.8931  0.6064  0.1542
  801THF     H413404   0.797   4.752   0.509 -2.9280  1.8883  0.7500
  801THF     H513405   0.823   4.706   0.330  3.1762  1.0645 -0.4062
  801THF     H613406   0.744   5.020   0.510 -0.1786  0.9859 -0.2562
  801THF     H713407   0.817   5.110   0.380  1.0023  1.0578  1.7955
  801THF     C813408   0.660   4.967   0.326 -0.2624 -0.0132  0.2776
  801THF     C913409   0.645   4.820   0.373  0.3943 -0.0947 -0.5706
  801THF    H1013410   0.676   4.981   0.219 -2.4230  0.6197 -0.0147
  801THF    H1113411   0.563   5.009   0.354 -0.0222  0.3957  0.5023
  801THF    H1213412   0.583   4.813   0.462 -0.7927  3.9112 -0.8806
  801THF    H1313413   0.595   4.762   0.295 -0.0671  1.9453 -1.8861
  802THF     O113414   0.561   0.815   2.588  0.6669 -0.3455 -0.0504
  802THF     C213415   0.672   0.884   2.643  0.0318  0.3129  0.8056
  802THF     C313416   0.613   0.725   2.495  0.3363  0.3685 -0.7926
  802THF     H413417   0.715   0.821   2.720  2.2004 -1.5145 -1.7312
  802THF     H513418   0.650   0.976   2.698  1.5851  0.8847  0.5099
  802THF     H613419   0.643   0.634   2.547  0.7991  2.1355  2.3347
  802THF     H713420   0.533   0.703   2.424  1.0416 -0.0120 -1.4668
  802THF     C813421   0.731   0.803   2.428  0.9247  0.6180  0.0803
  802THF     C913422   0.766   0.914   2.531 -0.0205 -0.2489  0.0340
  802THF    H1013423   0.703   0.850   2.334 -1.7012 -0.6722  0.1306
  802THF    H1113424   0.820   0.742   2.417  0.5445  0.4470 -2.7910
  802THF    H1213425   0.872   0.916   2.556  0.0440 -0.3919 -0.2229
  802THF    H1313426   0.748   1.009   2.481  1.6278 -0.5454 -1.1922
  803THF     O113427   2.758   0.861   0.297  0.0362 -0.0259 -0.4378
  803THF     C213428   2.634   0.823   0.251  0.0880  0.3556  0.6193
  803THF     C313429   2.825   0.939   0.202 -0.1738 -0.6013 -0.0820
  803THF     H413430   2.562   0.893   0.294  0.2659  1.6547 -1.0599
  803THF     H513431   2.622   0.718   0.279  0.3988 -0.4313 -1.9260
  803THF     H613432   2.853   1.039   0.233 -1.5244 -0.1401 -0.2957
  803THF     H713433   2.913   0.877   0.181 -1.2870 -2.4155  0.3995
  803THF     C813434   2.736   0.952   0.072 -0.0170  0.7658 -0.3590
  803THF     C913435   2.645   0.838   0.097  0.0734 -0.4857 -0.4208
  803THF    H1013436   2.783   0.927  -0.023 -1.1351 -0.5496 -0.5923
  803THF    H1113437   2.678   1.044   0.063 -0.6723  0.4894  0.8488
  803THF    H1213438   2.549   0.849   0.046  0.0663  0.1808 -0.2748
  803THF    H1313439   2.684   0.755   0.039 -0.6539  0.1411 -1.8469
  804THF     O113440   0.983   1.246   2.055 -0.0203  0.2884 -0.5362
  804THF     C213441   1.042   1.174   2.170 -0.3218 -1.0437  0.2542
  804THF     C313442   0.844   1.263   2.089  0.1266 -0.3547 -0.6867
  804THF     H413443   1.145   1.201   2.192 -0.6044 -0.2308  0.5927
  804THF     H513444   1.052   1.072   2.131 -0.1108 -0.8434 -0.2140
  804THF     H613445   0.826   1.362   2.132  0.7973 -0.7218  0.4708
  804THF     H713446   0.777   1.250   2.004 -1.4999 -2.2695  0.8015
  804THF     C813447   0.812   1.169   2.202 -0.0185  0.8926  0.0831
  804THF     C913448   0.943   1.170   2.286  0.3363  0.4927  0.1890
  804THF    H1013449   0.781   1.072   2.164 -2.6500  2.0333 -0.8831
  804THF    H1113450   0.728   1.206   2.261 -0.4659 -0.8429  0.5644
  804THF    H1213451   0.959   1.262   2.342 -3.3419  0.4527  1.5117
  804THF    H1313452   0.963   1.077   2.340  0.7359 -0.3088 -1.2814
  805THF     O113453   1.903   2.972   4.038 -0.4842 -0.2505  0.4696
  805THF     C213454   1.937   2.834   4.041  0.1234 -0.1272  0.0912
  805THF     C313455   2.003   3.037   3.968 -0.0199 -0.3128  0.4779
  805THF     H413456   1.847   2.778   4.063  0.7867 -1.3349 -0.1901
  805THF     H513457   2.021   2.818   4.109  0.2809 -0.1258 -0.1019
  805THF     H613458   1.989   3.145   3.967 -2.2380 -0.4918  2.4749
  805THF     H713459   2.093   3.030   4.029  0.6401 -1.7788 -0.6192
  805THF     C813460   2.008   2.950   3.845  0.6903  0.0755  0.4365
  805THF     C913461   1.987   2.811   3.901  0.2692  0.1585 -0.1117
  805THF    H1013462   2.112   2.965   3.814  0.9983 -5.9092 -3.0302
  805THF    H1113463   1.944   2.994   3.769  0.6704  4.9393  2.8928
  805THF    H1213464   1.906   2.763   3.845  0.0443  0.3563  0.0410
  805THF    H1313465   2.073   2.744   3.896  1.9268  1.9902  1.7898
  806THF     O113466   4.454   0.396   3.293 -0.8342 -0.5597  0.1913
  806THF     C213467   4.405   0.524   3.261 -0.2846 -0.6973  0.0778
  806THF     C313468   4.392   0.351   3.409  0.2940  0.1800 -0.1410
  806THF     H413469   4.306   0.512   3.218 -0.9255  0.1098  1.2598
  806THF     H513470   4.464   0.593   3.200 -0.8319 -2.0727 -2.1071
  806THF     H613471   4.287   0.340   3.383  0.6431 -1.6614 -0.9606
  806THF     H713472   4.424   0.257   3.455 -0.8889 -1.5727 -2.6926
  806THF     C813473   4.407   0.470   3.494  0.4630  0.4056 -0.3697
  806THF     C913474   4.405   0.591   3.397  0.4068 -0.4152  0.3069
  806THF    H1013475   4.499   0.480   3.552  0.0250 -1.3339  0.7017
  806THF    H1113476   4.326   0.468   3.566  2.3556 -3.3101  1.9577
  806THF    H1213477   4.316   0.653   3.403  0.7915  0.0938  0.8443
  806THF    H1313478   4.492   0.656   3.407  0.8493  0.0855 -4.4062
  807THF     O113479   4.404   4.277   1.042  0.0709  0.3606 -0.3912
  807THF     C213480   4.509   4.328   0.959 -0.9468  0.1950  0.4080
  807THF     C313481   4.282   4.303   0.974 -0.3487  0.4238 -0.1910
  807THF     H413482   4.595   4.277   1.003  0.1114 -0.3948 -2.1836
  807THF     H513483   4.516   4.437   0.964 -2.2106  0.3999 -1.3488
  807THF     H613484   4.213   4.222   1.000 -0.1889  0.2420 -0.3291
  807THF     H713485   4.229   4.396   0.997 -1.0772  0.1750 -0.7985
  807THF     C813486   4.316   4.299   0.825 -0.5849 -0.4127  1.1005
  807THF     C913487   4.471   4.299   0.816 -0.3341 -0.5893 -0.2938
  807THF    H1013488   4.285   4.392   0.778 -0.6809 -1.0999 -0.2468
  807THF    H1113489   4.268   4.216   0.775 -1.4642  1.3035 -1.0521
  807THF    H1213490   4.506   4.200   0.787 -0.5239 -2.4480  4.8400
  807THF    H1313491   4.519   4.366   0.744  2.0698 -1.6018  0.2647
  808THF     O113492   0.646   5.262   4.330 -0.0472  0.4938 -0.0392
  808THF     C213493   0.583   5.147   4.276  0.5457  0.4085 -0.4783
  808THF     C313494   0.626   5.367   4.240 -0.0460  0.1265 -0.2347
  808THF     H413495   0.561   5.070   4.349  1.8043  1.0798  0.6499
  808THF     H513496   0.656   5.106   4.206  1.3278  0.9934 -0.0259
  808THF     H613497   0.635   5.455   4.303 -1.9646  0.6552 -0.6399
  808THF     H713498   0.690   5.371   4.152  0.1473 -3.2043 -0.3613
  808THF     C813499   0.483   5.351   4.190  0.2353  0.0265 -0.1122
  808THF     C913500   0.456   5.201   4.205 -0.5343 -0.3338  0.2883
  808THF    H1013501   0.476   5.370   4.082 -1.0307  0.5375  0.0465
  808THF    H1113502   0.412   5.413   4.244 -0.3094 -0.2889 -0.4586
  808THF    H1213503   0.361   5.184   4.256 -1.2176  1.2721 -0.3995
  808THF    H1313504   0.456   5.156   4.106  2.1658 -0.2660  0.1821
  809THF     O113505   4.488   1.271   0.623  0.4227  0.5845  0.1598
  809THF     C213506   4.536   1.136   0.618  1.1286 -0.5663 -0.1789
  809THF     C313507   4.568   1.345   0.538 -0.5037 -0.4684  0.5429
  809THF     H413508   4.458   1.070   0.656  1.2666 -0.6580 -0.0555
  809THF     H513509   4.624   1.123   0.681  2.4528 -0.9046 -2.0212
  809THF     H613510   4.522   1.441   0.516  0.0157 -0.6952 -1.7895
  809THF     H713511   4.667   1.352   0.583  0.9726  0.6255 -2.6365
  809THF     C813512   4.580   1.253   0.419  0.4912  0.9407 -0.7860
  809THF     C913513   4.563   1.110   0.469 -0.6379  0.2257  0.4391
  809THF    H1013514   4.674   1.270   0.367  0.7591 -0.5687 -0.8359
  809THF    H1113515   4.507   1.279   0.342 -0.1898 -1.2404 -0.9436
  809THF    H1213516   4.488   1.061   0.407  0.4276  0.3045 -0.9539
  809THF    H1313517   4.659   1.061   0.449 -0.6774  0.1800  0.3619
  810THF     O113518   4.619   0.563   2.773 -0.1492  0.0861  0.2695
  810THF     C213519   4.556   0.533   2.899  0.5087  0.8556 -0.0284
  810THF     C313520   4.761   0.584   2.803  0.5488  0.2708  0.2828
  810THF     H413521   4.495   0.444   2.880  0.9156  0.5703 -0.0180
  810THF     H513522   4.495   0.617   2.932 -0.3674  1.7553 -3.5527
  810THF     H613523   4.818   0.564   2.713 -0.0335 -0.2471  0.0203
  810THF     H713524   4.779   0.681   2.849  2.0077 -0.4976  1.4240
  810THF     C813525   4.785   0.481   2.908 -0.2289 -0.4497 -0.0843
  810THF     C913526   4.673   0.503   2.999  0.4209  0.8438  1.2311
  810THF    H1013527   4.888   0.492   2.945 -0.1264  0.5637 -0.6385
  810THF    H1113528   4.777   0.379   2.870  0.4655 -0.0043 -1.4716
  810THF    H1213529   4.653   0.421   3.068  1.5106 -0.3881  0.1160
  810THF    H1313530   4.695   0.598   3.049 -0.4807  1.4900  0.4470
  811THF     O113531   3.991   3.393   3.486  0.5696 -0.0617  0.1655
  811THF     C213532   4.123   3.369   3.443  0.6584 -0.2387  0.7133
  811THF     C313533   3.947   3.280   3.566  1.2470  0.0006  0.2787
  811THF     H413534   4.194   3.409   3.515  1.0339  0.6201 -0.1184
  811THF     H513535   4.133   3.424   3.349  0.9559  0.5635  1.2062
  811THF     H613536   3.957   3.297   3.674  1.0533  0.4991  0.2217
  811THF     H713537   3.846   3.265   3.528  1.3620  0.7796 -0.3425
  811THF     C813538   4.040   3.164   3.529 -0.5680  0.2330 -0.3106
  811THF     C913539   4.128   3.220   3.419  0.0419  0.2395  0.5766
  811THF    H1013540   3.984   3.072   3.509 -1.0647  0.8274 -1.7624
  811THF    H1113541   4.094   3.151   3.623 -0.5857  0.4559 -0.2682
  811THF    H1213542   4.233   3.190   3.416  0.0225  0.2316 -2.0910
  811THF    H1313543   4.079   3.215   3.322 -1.8217  3.0328  1.2629
  812THF     O113544   3.665   0.280   1.026  0.0041 -0.1835  0.1219
  812THF     C213545   3.592   0.385   0.957  0.6692 -0.9542 -0.0736
  812THF     C313546   3.664   0.157   0.955 -0.6230 -0.1344  0.0857
  812THF     H413547   3.637   0.482   0.983  0.4056 -0.9749  0.4711
  812THF     H513548   3.490   0.375   0.993  0.1300 -0.3965 -1.3885
  812THF     H613549   3.748   0.101   0.994  2.6599  2.3052 -2.8388
  812THF     H713550   3.567   0.113   0.980 -1.2602  1.2479  0.1856
  812THF     C813551   3.672   0.199   0.809  0.9836 -0.4789 -0.1229
  812THF     C913552   3.605   0.341   0.809 -0.0767  0.8218 -0.8758
  812THF    H1013553   3.630   0.120   0.747 -1.6569  0.4715  0.3490
  812THF    H1113554   3.778   0.217   0.788  0.5146  0.6128 -1.6903
  812THF    H1213555   3.674   0.406   0.754  0.1023  0.7073 -0.7886
  812THF    H1313556   3.515   0.350   0.748  0.7629 -0.5305 -2.4099
  813THF     O113557   4.767   1.970   3.240  0.4505 -0.1567 -0.0150
  813THF     C213558   4.822   1.996   3.367 -0.5691 -0.5751  0.3098
  813THF     C313559   4.772   1.829   3.232  0.3179  0.4090  0.0418
  813THF     H413560   4.761   1.948   3.443  0.3425 -1.2157  0.6446
  813THF     H513561   4.826   2.105   3.378 -1.8799 -0.2577 -1.7908
  813THF     H613562   4.695   1.783   3.296  0.3254  0.0753 -0.1872
  813THF     H713563   4.750   1.791   3.133 -0.9902  2.1532 -0.3993
  813THF     C813564   4.917   1.796   3.279  0.3205 -0.7438  0.3515
  813THF     C913565   4.959   1.921   3.355  0.7622  0.9581  0.1413
  813THF    H1013566   4.984   1.781   3.195 -0.8494 -0.1157 -0.7319
  813THF    H1113567   4.911   1.710   3.346 -1.5753 -0.1158  1.0663
  813THF    H1213568   5.007   1.899   3.450 -0.0061  0.5086  0.4352
  813THF    H1313569   5.026   1.977   3.290 -0.0427  1.0623 -0.6274
  814THF     O113570   0.029   4.981   2.126 -0.4164 -0.8187 -0.5955
  814THF     C213571  -0.041   5.009   1.998 -0.4337 -0.6467  0.3217
  814THF     C313572   0.007   5.087   2.216  0.0045 -0.5930 -0.5474
  814THF     H413573  -0.057   4.918   1.941 -0.0349 -1.9067  2.1347
  814THF     H513574   0.042   5.060   1.950  0.5074 -1.8138  0.6498
  814THF     H613575  -0.040   5.050   2.308  0.0153 -1.2731 -0.8121
  814THF     H713576   0.105   5.120   2.251 -0.5815 -1.0405  1.6768
  814THF     C813577  -0.087   5.188   2.149  0.1171  0.4431  0.0589
  814THF     C913578  -0.156   5.106   2.037  0.0946  0.0291 -0.3699
  814THF    H1013579  -0.033   5.256   2.083  1.8578 -0.9903 -0.0677
  814THF    H1113580  -0.153   5.248   2.212 -0.7782  0.7596 -1.1505
  814THF    H1213581  -0.233   5.051   2.091  1.0142 -2.2328 -1.2375
  814THF    H1313582  -0.204   5.169   1.962  0.0225 -0.0680 -0.4060
  815THF     O113583   1.435   2.120   4.838 -0.0818 -0.8913 -0.2692
  815THF     C213584   1.351   2.135   4.732  0.6004  0.5692  0.1089
  815THF     C313585   1.385   2.182   4.956 -0.5039 -0.1176 -0.1005
  815THF     H413586   1.323   2.031   4.713 -4.5147  1.5881  0.6654
  815THF     H513587   1.397   2.175   4.642 -2.3546 -1.3171 -2.4703
  815THF     H613588   1.428   2.129   5.042  1.0909  0.5756 -0.4207
  815THF     H713589   1.410   2.288   4.966 -0.7263  0.0085 -0.8488
  815THF     C813590   1.235   2.173   4.933 -0.0135 -0.3752 -0.9994
  815THF     C913591   1.222   2.206   4.788 -0.4249 -0.3503 -0.4724
  815THF    H1013592   1.180   2.239   5.000  0.1805  1.6340 -2.6986
  815THF    H1113593   1.202   2.072   4.955 -0.9603 -0.1532 -1.3399
  815THF    H1213594   1.124   2.174   4.752 -0.7688 -0.3556  0.4383
  815THF    H1313595   1.237   2.311   4.766  1.3823 -0.7885 -1.5335
  816THF     O113596   1.848   4.656   3.389 -0.1615 -0.0306 -0.4790
  816THF     C213597   1.944   4.720   3.306  0.2700  0.1581  0.2716
  816THF     C313598   1.926   4.567   3.468  0.3275  0.1487 -0.5600
  816THF     H413599   1.915   4.804   3.243 -0.9653 -1.5462 -1.5437
  816THF     H513600   1.993   4.652   3.236 -0.8563 -1.8326  1.3535
  816THF     H613601   1.870   4.520   3.550 -0.1764  1.1717 -0.3072
  816THF     H713602   1.962   4.492   3.397  1.7988  0.8839 -0.6276
  816THF     C813603   2.047   4.646   3.508 -1.1813 -0.1138  0.5356
  816THF     C913604   2.054   4.756   3.403 -0.1252 -0.5901 -0.0262
  816THF    H1013605   2.128   4.574   3.502  0.3245  1.2572  2.8383
  816THF    H1113606   2.029   4.686   3.608 -0.9053  1.5529 -0.0493
  816THF    H1213607   2.023   4.849   3.451  0.0722 -0.3303 -0.4043
  816THF    H1313608   2.148   4.767   3.350 -0.9918 -2.1602 -2.0600
  817THF     O113609   4.939   5.488   5.500  0.1529  0.2817 -0.0087
  817THF     C213610   4.999   5.594   5.566 -0.8005 -0.2948  0.4084
  817THF     C313611   4.901   5.384   5.593 -0.1412 -0.2781 -0.4141
  817THF     H413612   4.927   5.669   5.601  0.8927  1.2675  0.6901
  817THF     H513613   5.079   5.639   5.508  0.8737 -0.5741  2.3709
  817THF     H613614   4.794   5.362   5.599 -0.5990  1.5780 -1.1313
  817THF     H713615   4.956   5.299   5.554 -0.3470  0.0869 -1.5386
  817THF     C813616   4.964   5.422   5.733  0.6128  0.1664  0.1775
  817THF     C913617   5.070   5.533   5.694  0.3707 -0.2913 -0.0847
  817THF    H1013618   4.999   5.336   5.790 -1.4956 -0.6711  0.2763
  817THF    H1113619   4.896   5.475   5.799 -0.6199  0.5420 -1.3290
  817THF    H1213620   5.087   5.603   5.776  0.7940 -1.6123  0.9813
  817THF    H1313621   5.161   5.478   5.675  0.5978  0.4749 -1.3516
  818THF     O113622   3.860   4.783   1.994 -0.0478  0.0513 -0.1855
  818THF     C213623   3.954   4.683   1.945 -0.3390 -0.2900 -0.0405
  818THF     C313624   3.934   4.900   2.026 -0.5227  0.4119  0.0831
  818THF     H413625   3.920   4.594   1.893 -0.2846  0.4891 -1.4543
  818THF     H513626   4.014   4.652   2.031 -1.3472 -1.2441  0.3425
  818THF     H613627   3.876   4.992   2.033  1.5804  1.9651 -1.5758
  818THF     H713628   3.976   4.885   2.125  1.6829  1.4146 -0.6357
  818THF     C813629   4.048   4.904   1.915  0.0818  0.2180  0.2846
  818THF     C913630   4.049   4.764   1.856  0.7363  0.2959  0.4639
  818THF    H1013631   4.141   4.943   1.957 -0.1286 -0.5652  1.5386
  818THF    H1113632   4.008   4.979   1.847  0.2731 -0.0064 -0.0794
  818THF    H1213633   4.007   4.763   1.756  3.4472  1.1831 -0.7731
  818THF    H1313634   4.149   4.721   1.859  1.0315  0.9958  1.4673
  819THF     O113635   2.408   2.967   4.111 -0.2825  0.3850  0.0364
  819THF     C213636   2.388   2.841   4.053  0.1932 -0.0242 -0.2309
  819THF     C313637   2.528   3.012   4.049  0.7208  0.5700  0.0714
  819THF     H413638   2.286   2.807   4.069 -0.2641  1.2487 -0.3207
  819THF     H513639   2.455   2.769   4.101  1.0312  1.2152  0.5338
  819THF     H613640   2.557   3.114   4.073  0.6334  0.6231 -0.0465
  819THF     H713641   2.606   2.948   4.090 -0.1139 -1.6090 -1.5502
  819THF     C813642   2.501   2.980   3.903 -0.4224 -0.1380  0.3336
  819THF     C913643   2.422   2.856   3.904  0.6147  0.6250 -0.0500
  819THF    H1013644   2.595   2.972   3.848 -0.8510  3.9542 -1.3588
  819THF    H1113645   2.450   3.064   3.855  0.8289  0.2788 -0.3118
  819THF    H1213646   2.328   2.877   3.851 -1.0289 -1.0156  2.0434
  819THF    H1313647   2.470   2.769   3.861 -2.5443 -0.6353 -1.3728
  820THF     O113648   0.918   0.121   2.291 -0.8688  0.0886  0.9725
  820THF     C213649   0.932   0.103   2.434  0.4692 -0.1740  0.0769
  820THF     C313650   0.781   0.131   2.248  0.2566 -0.4270 -0.6742
  820THF     H413651   0.993   0.183   2.477 -1.4420  1.0377  0.6775
  820THF     H513652   0.981   0.011   2.466  0.5211 -0.4549 -0.7920
  820THF     H613653   0.784   0.188   2.156  2.9575  0.8135  0.0679
  820THF     H713654   0.734   0.041   2.208  0.9153 -0.8753 -0.4694
  820THF     C813655   0.717   0.198   2.370  0.5382  0.2430 -0.1839
  820THF     C913656   0.792   0.123   2.482  0.2223  0.7552 -0.3619
  820THF    H1013657   0.611   0.180   2.357  0.4684  0.9110 -0.5923
  820THF    H1113658   0.738   0.305   2.377 -0.7473  0.6500 -1.9813
  820THF    H1213659   0.793   0.168   2.581 -0.9791 -0.4663  0.2520
  820THF    H1313660   0.738   0.030   2.501  1.4419 -0.1384 -1.1288
  821THF     O113661   3.852   5.076   4.517 -0.2094  0.6309 -0.0899
  821THF     C213662   3.932   5.131   4.617 -0.2624  0.0062 -0.1496
  821THF     C313663   3.741   5.034   4.586  0.1343 -0.1485  0.2391
  821THF     H413664   4.022   5.187   4.592 -0.3666  1.0328  1.5523
  821THF     H513665   3.965   5.053   4.685 -0.7567  0.4197  0.5901
  821THF     H613666   3.655   5.008   4.524 -0.3827 -1.8399  1.6133
  821THF     H713667   3.758   4.941   4.638 -1.9410  0.4120  2.0888
  821THF     C813668   3.706   5.156   4.683  0.0625  0.5587 -0.4525
  821THF     C913669   3.836   5.231   4.679  0.1254 -0.1882 -0.0743
  821THF    H1013670   3.686   5.107   4.779 -2.5970 -0.3199 -1.3520
  821THF    H1113671   3.621   5.215   4.649  0.6177  0.4986 -2.0010
  821THF    H1213672   3.834   5.319   4.615 -0.6540 -1.3688 -1.7534
  821THF    H1313673   3.869   5.257   4.779  1.0054 -0.9744 -0.1410
  822THF     O113674   0.097   1.291   0.201 -0.2962 -0.4508 -0.7072
  822THF     C213675   0.191   1.231   0.293  0.1178  0.7077 -0.1990
  822THF     C313676   0.004   1.198   0.157 -0.0105 -0.3560  0.7533
  822THF     H413677   0.151   1.235   0.394  0.9884  0.0308  0.1748
  822THF     H513678   0.290   1.268   0.267  0.4054 -0.9999 -1.7136
  822THF     H613679  -0.102   1.212   0.180 -0.2603 -1.7518  0.5613
  822THF     H713680  -0.002   1.223   0.051 -0.4873  2.2353  1.3319
  822THF     C813681   0.051   1.054   0.191 -0.4834  0.1982 -0.3538
  822THF     C913682   0.190   1.088   0.239  0.2045 -0.2513  0.6612
  822THF    H1013683   0.052   0.977   0.113  0.0834  1.1003 -1.2555
  822THF    H1113684   0.009   1.010   0.282  0.2463 -0.1144 -0.1646
  822THF    H1213685   0.230   1.014   0.307 -0.8525 -0.0102  1.5612
  822THF    H1313686   0.262   1.083   0.157 -1.1811 -1.5304 -0.5302
  823THF     O113687   2.306   3.948   0.687  0.0316  0.0526  0.0614
  823THF     C213688   2.228   3.838   0.639  0.0724  0.4101 -0.1725
  823THF     C313689   2.215   4.060   0.698 -0.0320  0.1202 -0.4939
  823THF     H413690   2.170   3.793   0.721  0.1387 -4.0458 -2.2673
  823THF     H513691   2.294   3.764   0.595 -1.7799  0.0652 -2.5610
  823THF     H613692   2.149   4.047   0.784  0.1833  1.3841 -0.1266
  823THF     H713693   2.266   4.156   0.693  0.8713 -0.2487  1.0864
  823THF     C813694   2.132   4.051   0.571  0.3527  0.5788 -0.0182
  823THF     C913695   2.132   3.901   0.531 -0.3324  0.2869  0.2668
  823THF    H1013696   2.184   4.118   0.502  1.5867 -0.8793 -0.5718
  823THF    H1113697   2.032   4.095   0.572  0.2856  0.5559 -1.8626
  823THF    H1213698   2.035   3.853   0.524  0.6907 -1.7441 -4.1547
  823THF    H1313699   2.189   3.890   0.439 -0.7205  0.8801 -0.0480
  824THF     O113700   2.732   5.104   0.892  0.0907  0.8948 -0.4853
  824THF     C213701   2.824   5.210   0.854 -0.2573  0.1781  0.0150
  824THF     C313702   2.631   5.168   0.973  0.9742  0.9219 -0.1153
  824THF     H413703   2.818   5.236   0.749  0.6673 -0.5965 -0.2398
  824THF     H513704   2.924   5.177   0.884  0.2008  0.7326 -0.8630
  824THF     H613705   2.546   5.210   0.919  0.8425  0.0211 -0.6358
  824THF     H713706   2.586   5.097   1.042  1.1990 -1.7492 -2.5234
  824THF     C813707   2.706   5.289   1.046  0.2442  0.7857  0.2616
  824THF     C913708   2.784   5.341   0.931 -0.3685 -0.2902  0.0340
  824THF    H1013709   2.766   5.242   1.125 -0.2146  0.4194  0.4028
  824THF    H1113710   2.637   5.357   1.095 -0.2188  0.7888 -0.3970
  824THF    H1213711   2.719   5.402   0.868  0.6001 -1.4503 -2.1881
  824THF    H1313712   2.874   5.400   0.949 -0.2015 -0.1703 -1.1340
  825THF     O113713   2.686   3.752   5.312 -0.1319  0.5482 -0.2186
  825THF     C213714   2.669   3.787   5.450 -0.7375  0.3995 -0.5180
  825THF     C313715   2.782   3.651   5.316 -0.0503 -0.5250  0.2468
  825THF     H413716   2.575   3.836   5.475 -0.5427 -0.3534  2.0116
  825THF     H513717   2.759   3.837   5.483  0.4530 -1.9802  0.0764
  825THF     H613718   2.788   3.599   5.220 -1.2797 -1.2274  0.5359
  825THF     H713719   2.879   3.700   5.323 -0.6796  0.5805  1.6025
  825THF     C813720   2.740   3.556   5.421  0.2002 -0.3186 -0.7038
  825THF     C913721   2.653   3.650   5.509 -0.1241  0.2106 -0.1657
  825THF    H1013722   2.818   3.510   5.482  0.7991  1.3628 -0.1296
  825THF    H1113723   2.682   3.475   5.377  0.1716 -1.1198  0.7723
  825THF    H1213724   2.550   3.615   5.507  0.4488 -1.5538 -0.9009
  825THF    H1313725   2.670   3.659   5.616 -1.8436  0.2866  0.1384
  826THF     O113726   0.976   3.133   3.697  0.7469 -0.3961  1.0346
  826THF     C213727   1.040   3.197   3.580  0.3729 -0.1349 -0.3404
  826THF     C313728   0.933   3.008   3.643  0.1441  0.0733  0.0898
  826THF     H413729   1.146   3.220   3.596  0.3246  0.8214 -1.2911
  826THF     H513730   0.990   3.294   3.576  2.4571  0.9539 -1.5214
  826THF     H613731   1.017   2.938   3.646  0.9151  0.9787  0.1496
  826THF     H713732   0.843   2.993   3.704 -0.4549  2.7371 -0.0020
  826THF     C813733   0.893   3.037   3.489 -0.0752  0.8093  0.5227
  826THF     C913734   1.015   3.128   3.452  0.3868  1.0085  0.4445
  826THF    H1013735   0.797   3.088   3.477  0.8604  2.2653 -1.4637
  826THF    H1113736   0.900   2.949   3.425 -3.5323  0.1956  0.8166
  826THF    H1213737   1.104   3.069   3.429 -0.7678 -0.8471  0.5360
  826THF    H1313738   0.989   3.182   3.361 -1.6557  1.7309  1.3995
  827THF     O113739   1.403   4.013   4.963 -0.2211  0.1970 -0.2666
  827THF     C213740   1.361   4.086   5.075  0.6797  0.1056 -0.2250
  827THF     C313741   1.333   4.055   4.845 -0.2103 -0.3189 -0.5054
  827THF     H413742   1.434   4.151   5.123  0.3146  0.5296 -0.2333
  827THF     H513743   1.324   4.024   5.156  0.8157  1.2099  0.7022
  827THF     H613744   1.397   4.115   4.782  0.8604 -0.1061  0.7436
  827THF     H713745   1.317   3.964   4.787  0.4318 -1.5609  1.1668
  827THF     C813746   1.201   4.121   4.899  0.0876 -1.1281  0.5565
  827THF     C913747   1.249   4.182   5.029 -0.1969  0.2307  0.1507
  827THF    H1013748   1.122   4.049   4.921 -0.1689 -1.3469 -0.9604
  827THF    H1113749   1.160   4.190   4.826 -3.3332 -2.2212  1.2383
  827THF    H1213750   1.294   4.277   5.003  2.0325 -0.7839  0.0985
  827THF    H1313751   1.180   4.195   5.113 -0.3503 -0.9534  0.2319
  828THF     O113752   3.876   5.247   5.481 -0.6482 -0.0264 -0.1758
  828THF     C213753   3.750   5.255   5.546 -0.2515 -0.1801 -0.4116
  828THF     C313754   3.964   5.302   5.573 -0.1873 -0.3088  0.1771
  828THF     H413755   3.738   5.186   5.629 -2.0044 -0.9670 -1.2561
  828THF     H513756   3.666   5.227   5.483 -2.3787  1.8881  1.2776
  828THF     H613757   3.989   5.225   5.646  0.4635 -1.8103 -1.5554
  828THF     H713758   4.062   5.328   5.533 -0.5894 -0.4683 -0.9538
  828THF     C813759   3.890   5.430   5.624  0.0766  0.4587 -0.2696
  828THF     C913760   3.742   5.392   5.599  0.3185 -0.0063 -0.2740
  828THF    H1013761   3.920   5.521   5.572 -0.0786  1.2015  0.8909
  828THF    H1113762   3.903   5.452   5.730  0.0762  1.1085 -0.4011
  828THF    H1213763   3.681   5.411   5.688  1.4083  1.2284  0.2277
  828THF    H1313764   3.701   5.443   5.513 -0.8779 -2.1767 -1.0788
  829THF     O113765   4.807   3.392   0.808  0.2051 -0.1340  0.1198
  829THF     C213766   4.797   3.251   0.806  0.1348 -0.0952 -0.2598
  829THF     C313767   4.876   3.438   0.929 -0.0298  0.2155 -0.8837
  829THF     H413768   4.895   3.221   0.769  1.4461 -0.1120  2.9107
  829THF     H513769   4.712   3.207   0.754 -0.3498 -0.2489  0.6321
  829THF     H613770   4.985   3.438   0.924  0.1109  1.0896  1.1997
  829THF     H713771   4.851   3.541   0.954  2.1546  0.6280 -0.1716
  829THF     C813772   4.841   3.338   1.040  0.4167 -0.4555  0.2903
  829THF     C913773   4.783   3.224   0.963  0.7817 -0.0610  0.5216
  829THF    H1013774   4.776   3.395   1.106  0.8633  2.3256 -1.5064
  829THF    H1113775   4.924   3.297   1.097 -2.4773 -2.0259  3.7770
  829THF    H1213776   4.841   3.134   0.985 -0.6423 -0.8372  1.2240
  829THF    H1313777   4.687   3.185   0.995 -0.2602 -0.7329 -2.9790
  830THF     O113778   3.259   2.677   1.298 -0.4279 -0.2580  0.2826
  830THF     C213779   3.381   2.739   1.271 -0.3780  0.1346 -0.1015
  830THF     C313780   3.148   2.765   1.276  0.2494 -0.6986 -0.2484
  830THF     H413781   3.417   2.728   1.168  1.5341 -1.2529  0.6647
  830THF     H513782   3.459   2.685   1.324 -1.2379 -0.8648  0.2002
  830THF     H613783   3.091   2.724   1.193 -1.3705  0.5030  0.2173
  830THF     H713784   3.094   2.765   1.371  1.1193 -0.2062  0.2536
  830THF     C813785   3.212   2.900   1.252 -0.2424 -0.3758 -0.0032
  830THF     C913786   3.349   2.888   1.315 -0.1474  0.8839 -0.0010
  830THF    H1013787   3.146   2.978   1.289 -1.1244 -0.4622 -1.3593
  830THF    H1113788   3.236   2.914   1.147  0.5860 -0.7409  0.1241
  830THF    H1213789   3.411   2.966   1.270  0.4803  0.5656  0.2839
  830THF    H1313790   3.347   2.886   1.424 -0.5933  1.6308  0.0097
  831THF     O113791   2.815   0.761   4.628 -0.0197 -0.0934  0.0222
  831THF     C213792   2.844   0.896   4.658  0.2109  0.3765  0.3433
  831THF     C313793   2.705   0.713   4.705  0.0008  0.0140  0.0956
  831THF     H413794   2.903   0.941   4.579  0.3568 -1.9700 -0.9686
  831THF     H513795   2.898   0.899   4.753  1.1463 -1.0180 -0.1193
  831THF     H613796   2.646   0.632   4.660 -2.4346  2.8666 -2.3240
  831THF     H713797   2.749   0.685   4.801 -1.9754  1.0474  1.3837
  831THF     C813798   2.626   0.838   4.735  0.4710  0.5871 -0.6222
  831THF     C913799   2.704   0.953   4.667 -0.8706 -0.4961 -0.0699
  831THF    H1013800   2.612   0.843   4.844  0.5842  0.0185 -0.5795
  831THF    H1113801   2.528   0.826   4.688  1.4522 -1.2887 -2.2834
  831THF    H1213802   2.661   0.977   4.569 -0.3697 -0.3521 -0.2582
  831THF    H1313803   2.709   1.035   4.738 -0.2169 -1.4954  1.0691
  832THF     O113804   0.715   4.471   0.475  0.2053  0.2052 -0.3492
  832THF     C213805   0.623   4.436   0.369  0.7190  0.5821 -0.4543
  832THF     C313806   0.644   4.435   0.597  0.3758  0.3725 -0.8785
  832THF     H413807   0.673   4.384   0.287 -1.6892 -1.2727 -0.8814
  832THF     H513808   0.584   4.524   0.317 -1.4872 -1.2177 -2.0644
  832THF     H613809   0.715   4.425   0.679 -1.5217 -0.4594  0.7542
  832THF     H713810   0.568   4.509   0.620  0.6380  0.0871  1.1024
  832THF     C813811   0.583   4.300   0.561 -0.1812  0.6952 -0.3985
  832THF     C913812   0.516   4.345   0.428 -0.8488  0.1110  0.3005
  832THF    H1013813   0.519   4.248   0.632  2.3568  0.1644  1.6096
  832THF    H1113814   0.662   4.228   0.539 -2.2158 -0.9409 -3.0187
  832THF    H1213815   0.497   4.268   0.353  1.3786 -0.3562  0.1680
  832THF    H1313816   0.429   4.410   0.439 -0.9881 -0.1480  0.7493
  833THF     O113817   1.174   3.427   1.638  0.1830 -0.1531 -0.0396
  833THF     C213818   1.093   3.393   1.753 -0.1360  0.5265  0.0994
  833THF     C313819   1.128   3.556   1.599 -0.0058  0.1196 -0.5319
  833THF     H413820   1.134   3.453   1.834 -0.7898  2.5392 -0.9938
  833THF     H513821   1.107   3.287   1.774 -0.1758 -0.3473 -3.5104
  833THF     H613822   1.158   3.624   1.678 -1.9765  0.8682 -0.3738
  833THF     H713823   1.158   3.579   1.496  2.1740 -1.0142 -0.2220
  833THF     C813824   0.970   3.542   1.600 -0.8059  0.2901 -0.0626
  833THF     C913825   0.950   3.429   1.707 -0.5366 -0.1192  0.2073
  833THF    H1013826   0.933   3.520   1.500 -1.5729 -0.3836  0.3587
  833THF    H1113827   0.926   3.634   1.637  1.9797  1.4276  0.6409
  833THF    H1213828   0.881   3.462   1.784  0.4324  1.1758  0.5527
  833THF    H1313829   0.910   3.343   1.652  0.1578 -1.8912  2.3396
  834THF     O113830   2.881   1.730   5.383 -0.4862  0.4746  0.6616
  834THF     C213831   2.921   1.637   5.282 -0.1312  0.3637 -0.7999
  834THF     C313832   2.806   1.830   5.317  0.9549 -0.5267 -0.8079
  834THF     H413833   2.972   1.547   5.318 -0.7917  0.4896  0.5138
  834THF     H513834   3.002   1.684   5.226 -0.6958  0.2064 -1.7543
  834THF     H613835   2.749   1.894   5.384  2.9523  2.1726 -1.5134
  834THF     H713836   2.869   1.897   5.258  1.3904 -1.6065 -1.6104
  834THF     C813837   2.723   1.761   5.215  0.2113 -0.1893 -0.2997
  834THF     C913838   2.793   1.620   5.201  0.3499 -0.3409  0.4428
  834THF    H1013839   2.708   1.802   5.115 -1.1250 -1.6425 -0.7363
  834THF    H1113840   2.625   1.753   5.261  0.4759  3.5045  1.2670
  834THF    H1213841   2.734   1.543   5.251  0.3395  0.0926  1.1157
  834THF    H1313842   2.811   1.592   5.097 -0.2135 -1.0045  0.5162
  835THF     O113843   2.908   3.643   1.708 -0.2285  0.1276  0.3229
  835THF     C213844   2.957   3.768   1.654  0.1229  0.5823  0.2003
  835THF     C313845   3.016   3.565   1.751 -1.0298 -0.0977 -0.6450
  835THF     H413846   2.998   3.823   1.738  1.4819 -0.3467  0.1958
  835THF     H513847   2.879   3.811   1.592  0.7551 -1.9584 -2.6463
  835THF     H613848   3.033   3.570   1.859 -1.0401  2.4206 -0.6806
  835THF     H713849   3.000   3.460   1.730 -0.0405 -0.3481 -0.1977
  835THF     C813850   3.135   3.623   1.677  0.0637  0.2781 -0.0973
  835THF     C913851   3.076   3.714   1.571  0.1487  0.6057 -0.1235
  835THF    H1013852   3.203   3.549   1.636  0.1384 -1.5084  2.9054
  835THF    H1113853   3.191   3.689   1.744  0.9301 -1.5434  1.0659
  835THF    H1213854   3.140   3.793   1.532 -0.8158  0.7969 -1.3946
  835THF    H1313855   3.042   3.647   1.492 -0.4366 -0.1861  0.7688
  836THF     O113856   5.410   3.144   2.579 -0.2069 -0.3621  0.5497
  836THF     C213857   5.545   3.120   2.617 -0.8870  0.0973 -0.0758
  836THF     C313858   5.330   3.053   2.644  0.1274  0.1342 -0.1948
  836THF     H413859   5.563   3.195   2.694  0.6437 -0.2639 -0.0523
  836THF     H513860   5.600   3.140   2.526 -0.2797  0.7761  0.4381
  836THF     H613861   5.239   3.096   2.688 -1.1160 -0.3778 -2.1580
  836THF     H713862   5.311   2.981   2.565  1.5356 -1.2432  0.6541
  836THF     C813863   5.414   2.981   2.746 -1.0734  0.0300 -0.5698
  836THF     C913864   5.546   2.983   2.684 -0.7836 -1.2443 -0.0293
  836THF    H1013865   5.378   2.879   2.754 -1.2790  0.2459  2.0571
  836THF    H1113866   5.421   3.031   2.843  0.7989 -2.0168  0.4170
  836THF    H1213867   5.619   2.964   2.762  2.4336  0.7495 -2.3276
  836THF    H1313868   5.568   2.903   2.614  0.3186 -0.2421 -0.8797
  837THF     O113869   1.034   3.583   5.135  0.0677 -0.2161 -0.2006
  837THF     C213870   1.171   3.543   5.136  0.3999  0.3201 -0.1343
  837THF     C313871   1.003   3.592   5.001  0.9318 -0.5488 -0.2151
  837THF     H413872   1.181   3.437   5.111 -0.4224  0.1565  0.1858
  837THF     H513873   1.217   3.555   5.234 -0.5160  2.9089  0.0595
  837THF     H613874   0.996   3.487   4.971 -2.7027 -0.0009 -1.7712
  837THF     H713875   0.903   3.631   4.983  0.6190 -0.3568  1.7528
  837THF     C813876   1.123   3.675   4.951 -0.2320 -0.5125 -0.4388
  837THF     C913877   1.249   3.633   5.031  0.6603 -0.6390  0.0242
  837THF    H1013878   1.086   3.778   4.952 -2.3498 -1.2141 -1.0530
  837THF    H1113879   1.127   3.657   4.843  0.9556  1.7524 -0.8449
  837THF    H1213880   1.316   3.575   4.968  0.9393 -0.1178 -0.1642
  837THF    H1313881   1.291   3.717   5.087  0.9513 -1.1646  0.6145
  838THF     O113882   1.020   3.976   0.638 -0.7037 -0.3188 -0.0920
  838THF     C213883   1.042   3.840   0.660 -1.0245 -0.0473 -0.0753
  838THF     C313884   0.923   4.025   0.731 -0.3602 -0.1555  0.4670
  838THF     H413885   1.120   3.837   0.735  0.7538  0.1850 -1.8379
  838THF     H513886   1.083   3.782   0.577  0.0574  0.8957 -0.2248
  838THF     H613887   0.972   4.070   0.817  1.1681 -0.9502  0.0453
  838THF     H713888   0.852   4.092   0.684 -1.0110 -1.0253  0.1694
  838THF     C813889   0.847   3.902   0.789 -0.2728  0.6807 -0.2071
  838THF     C913890   0.907   3.787   0.709  0.6649  0.5897  0.1343
  838THF    H1013891   0.739   3.917   0.782 -0.2485  0.6890 -0.6127
  838THF    H1113892   0.865   3.877   0.893 -2.3944 -0.2718 -0.0063
  838THF    H1213893   0.922   3.697   0.770  1.2209  0.0644 -0.7451
  838THF    H1313894   0.850   3.761   0.620  0.8437  1.1948 -0.1567
  839THF     O113895   4.900   1.290   3.451  0.1063 -0.2608 -0.4235
  839THF     C213896   4.870   1.346   3.578 -0.2981 -0.1613  0.1081
  839THF     C313897   5.031   1.343   3.415 -0.8723 -0.7248 -0.1272
  839THF     H413898   4.791   1.291   3.630 -3.0047  3.3364  0.0413
  839THF     H513899   4.820   1.441   3.563 -1.8949 -1.1015 -0.7484
  839THF     H613900   5.075   1.261   3.356 -2.1394 -2.5297  1.3379
  839THF     H713901   5.012   1.420   3.340  0.3931 -0.9403 -0.6971
  839THF     C813902   5.105   1.373   3.544 -0.3155  0.1567  0.5767
  839THF     C913903   5.007   1.336   3.647 -0.2020  1.1528 -0.9354
  839THF    H1013904   5.135   1.478   3.548 -0.4532  0.3560 -1.7915
  839THF    H1113905   5.200   1.322   3.559 -1.2535 -1.7512  0.3047
  839THF    H1213906   5.028   1.241   3.696 -0.4215  2.2703  1.4650
  839THF    H1313907   5.007   1.411   3.726  0.4582  1.1730 -0.9520
  840THF     O113908   2.353   4.706   3.950 -0.1221  0.4335 -0.9846
  840THF     C213909   2.303   4.841   3.956 -0.8757 -0.1956  0.5838
  840THF     C313910   2.334   4.647   3.821 -0.3021  0.3396  0.3926
  840THF     H413911   2.382   4.911   3.986 -0.2996  0.7851 -2.8469
  840THF     H513912   2.211   4.842   4.015 -0.3762 -0.4595  1.3912
  840THF     H613913   2.419   4.582   3.799 -1.2756 -1.3334  1.3276
  840THF     H713914   2.245   4.585   3.819  1.0411 -1.6828 -0.7944
  840THF     C813915   2.335   4.766   3.725 -0.2291 -0.1060  0.1331
  840THF     C913916   2.263   4.875   3.809 -0.2062 -0.4988 -0.1548
  840THF    H1013917   2.304   4.755   3.622 -0.2075 -0.8353  0.1983
  840THF    H1113918   2.441   4.789   3.716 -0.3692  0.0967 -1.1094
  840THF    H1213919   2.282   4.975   3.769 -1.4120 -0.5212 -0.8374
  840THF    H1313920   2.155   4.865   3.811 -0.3526  0.9488  0.4018
  841THF     O113921   0.012   3.598   2.346 -0.1893  0.1379  0.3758
  841THF     C213922  -0.106   3.655   2.401 -0.5532 -0.2105 -0.0481
  841THF     C313923   0.058   3.497   2.446 -0.0453 -0.1326  0.0878
  841THF     H413924  -0.185   3.603   2.347 -1.7940  0.7904  0.7490
  841THF     H513925  -0.115   3.762   2.383  1.9969 -0.0439 -0.8068
  841THF     H613926   0.009   3.401   2.431 -2.2771  1.1034 -1.0502
  841THF     H713927   0.163   3.493   2.417 -0.5545 -0.2327 -1.8938
  841THF     C813928   0.022   3.553   2.581 -0.2332 -0.4618  0.8814
  841THF     C913929  -0.113   3.621   2.555 -0.2169  0.1952  0.0352
  841THF    H1013930   0.101   3.623   2.610 -0.2009  0.5645 -1.4398
  841THF    H1113931   0.003   3.480   2.660 -0.2804  0.4786  1.7674
  841THF    H1213932  -0.201   3.556   2.563 -1.2136  1.2948 -1.3560
  841THF    H1313933  -0.141   3.704   2.620 -2.3273 -0.3541 -0.0804
  842THF     O113934   4.945   1.014   0.575  0.0928 -0.3342 -0.2342
  842THF     C213935   4.948   1.148   0.538 -0.1580 -0.5965 -0.4319
  842THF     C313936   4.968   0.937   0.463 -0.5689  0.5097  0.1780
  842THF     H413937   4.999   1.208   0.613 -0.2505  0.0865 -0.9067
  842THF     H513938   4.844   1.179   0.543 -0.2155 -0.8444 -0.0584
  842THF     H613939   4.997   0.833   0.473 -2.7219 -0.0069  1.7502
  842THF     H713940   4.874   0.937   0.408 -0.4851 -0.1373  0.0289
  842THF     C813941   5.066   1.015   0.383 -0.1594  0.0150  0.0206
  842THF     C913942   5.017   1.151   0.399  0.3237  0.1018  0.7033
  842THF    H1013943   5.045   0.990   0.279 -2.3187  0.5216  0.2832
  842THF    H1113944   5.169   0.985   0.404 -0.2205 -1.2646 -1.3306
  842THF    H1213945   5.100   1.221   0.391  0.6083 -0.2658  0.4234
  842THF    H1313946   4.941   1.166   0.322  0.2842  1.3539  0.9704
  843THF     O113947   5.234   2.350   3.744  0.2167  0.2387  0.0500
  843THF     C213948   5.365   2.305   3.781  0.4585 -0.1722 -0.4642
  843THF     C313949   5.170   2.248   3.670  0.4409 -0.2610  0.4456
  843THF     H413950   5.335   2.244   3.866 -0.3784 -1.7850 -1.8483
  843THF     H513951   5.435   2.385   3.805  1.0608 -0.8145 -0.0362
  843THF     H613952   5.143   2.172   3.743  3.0747 -1.0466  0.7176
  843THF     H713953   5.080   2.284   3.620 -0.7705  0.3534  2.9149
  843THF     C813954   5.288   2.205   3.580  0.0421  0.0547 -0.2655
  843THF     C913955   5.404   2.198   3.683 -0.2915 -0.2302 -0.2033
  843THF    H1013956   5.309   2.282   3.506  0.2142 -0.3522 -0.6458
  843THF    H1113957   5.283   2.111   3.524 -0.8926 -0.2157  0.2445
  843THF    H1213958   5.414   2.096   3.720 -1.6582  0.2929  1.7533
  843THF    H1313959   5.491   2.232   3.626 -0.1545  0.7419  0.5524
  844THF     O113960   1.374   2.837   5.476  0.6101  0.0860  0.2215
  844THF     C213961   1.274   2.894   5.560 -0.6100  0.2417 -0.2978
  844THF     C313962   1.354   2.703   5.497  0.2588  0.1959 -0.1952
  844THF     H413963   1.273   3.002   5.544  1.7143  0.2311 -0.9004
  844THF     H513964   1.295   2.879   5.666 -2.3811  0.6697  0.1466
  844THF     H613965   1.411   2.641   5.428  3.2964  0.7240  1.6522
  844THF     H713966   1.385   2.679   5.599  0.0665 -0.1933 -0.2253
  844THF     C813967   1.205   2.682   5.493 -0.9349 -0.3883 -0.0111
  844THF     C913968   1.154   2.826   5.524  0.6717 -0.1230 -0.7946
  844THF    H1013969   1.177   2.620   5.578 -0.6868  1.3894  1.4440
  844THF    H1113970   1.170   2.637   5.400  1.8355 -2.2911 -0.2444
  844THF    H1213971   1.098   2.876   5.446  0.4101 -0.4492 -0.8162
  844THF    H1313972   1.098   2.830   5.618  3.7983 -0.0677  1.2374
  845THF     O113973   2.359   1.073   4.568 -0.1001 -0.0205  0.0695
  845THF     C213974   2.359   1.211   4.613 -0.3599 -0.6539 -1.1313
  845THF     C313975   2.352   1.071   4.422  1.1267  0.2114  0.2439
  845THF     H413976   2.454   1.211   4.666 -1.8849  0.5316  1.8396
  845THF     H513977   2.288   1.231   4.693 -0.9062  0.1298 -1.7958
  845THF     H613978   2.414   0.988   4.389  0.3579  0.1589 -1.1543
  845THF     H713979   2.250   1.048   4.391 -0.2724  2.7192  2.5843
  845THF     C813980   2.386   1.208   4.374 -0.4927 -0.0371 -0.0486
  845THF     C913981   2.350   1.295   4.484 -0.4823  0.1576  0.1559
  845THF    H1013982   2.322   1.247   4.295 -0.2497  0.9128  0.2024
  845THF    H1113983   2.493   1.208   4.353 -0.8878  0.8603 -2.2637
  845THF    H1213984   2.393   1.394   4.489 -1.7117  0.7601 -0.5716
  845THF    H1313985   2.244   1.318   4.469 -0.2912  0.2593 -1.0792
  846THF     O113986   0.367   3.777   1.028  0.2261  0.1156  0.7775
  846THF     C213987   0.451   3.868   0.971 -0.0109 -0.0585  0.4797
  846THF     C313988   0.389   3.650   0.962  0.0968 -0.6681  0.6528
  846THF     H413989   0.539   3.861   1.035  0.8832  3.0758 -0.2803
  846THF     H513990   0.412   3.968   0.985 -0.1966 -0.0108 -0.3806
  846THF     H613991   0.479   3.598   0.995  0.2001 -0.6380  0.4275
  846THF     H713992   0.307   3.582   0.982 -0.9298  0.9709  2.2636
  846THF     C813993   0.402   3.696   0.817 -0.3057 -0.0756 -0.0946
  846THF     C913994   0.478   3.826   0.822  0.4196  0.1700 -0.0235
  846THF    H1013995   0.308   3.717   0.767  0.6691 -0.2213 -2.1170
  846THF    H1113996   0.451   3.630   0.745  1.7569  1.8346 -0.5603
  846THF    H1213997   0.585   3.807   0.814  0.1740 -1.5747  0.4575
  846THF    H1313998   0.468   3.901   0.744  0.0330  0.3731  0.2162
  847THF     O113999   3.767   2.619   1.838 -0.0504 -0.0269 -0.1757
  847THF     C214000   3.802   2.644   1.975  0.0829 -0.6120 -0.2265
  847THF     C314001   3.747   2.748   1.780  0.5248  0.0594  0.6623
  847THF     H414002   3.833   2.550   2.020 -0.6750 -0.9512 -0.3905
  847THF     H514003   3.714   2.688   2.021  0.3591 -0.1731 -0.1120
  847THF     H614004   3.742   2.731   1.673  0.5864  2.8551  0.1613
  847THF     H714005   3.648   2.776   1.814 -0.4787 -0.6707 -1.4848
  847THF     C814006   3.856   2.824   1.837 -0.4543  0.0502  0.3562
  847THF     C914007   3.918   2.737   1.948  0.6025 -0.0918 -0.1962
  847THF    H1014008   3.827   2.927   1.859  0.2822  0.7832 -1.7737
  847THF    H1114009   3.932   2.844   1.761 -0.6677 -0.5161 -0.0157
  847THF    H1214010   4.013   2.694   1.918  0.5140 -0.5977  0.2504
  847THF    H1314011   3.931   2.787   2.044  1.7249 -2.0415  0.7284
  848THF     O114012   3.111   0.728   5.079 -0.0675  0.4874 -0.3511
  848THF     C214013   3.088   0.790   4.952 -0.8430  0.5125  0.4903
  848THF     C314014   3.107   0.585   5.053  0.0827  0.9216 -0.1163
  848THF     H414015   3.170   0.861   4.946  0.4570 -1.0422 -1.6065
  848THF     H514016   2.990   0.835   4.951 -1.1189 -0.0156 -1.7573
  848THF     H614017   3.198   0.539   5.092 -0.2355  0.9900  0.7324
  848THF     H714018   3.030   0.539   5.115  1.3458 -1.1067  0.0406
  848THF     C814019   3.079   0.554   4.903 -0.0804 -0.2058 -0.3900
  848THF     C914020   3.118   0.681   4.844  0.4678  0.1908 -0.7733
  848THF    H1014021   2.970   0.544   4.905 -0.0638 -0.8311  2.5737
  848THF    H1114022   3.127   0.468   4.857 -0.9662  0.2166 -2.2057
  848THF    H1214023   3.226   0.681   4.829  0.6735  0.2246  0.6116
  848THF    H1314024   3.070   0.696   4.747 -0.5917 -1.3669 -0.5205
  849THF     O114025   2.463   3.585   1.646 -0.4249  0.5922 -0.1132
  849THF     C214026   2.433   3.647   1.522 -0.1110 -0.0207 -0.0430
  849THF     C314027   2.571   3.651   1.700 -0.2973  0.8170  0.5307
  849THF     H414028   2.328   3.626   1.506 -0.2815  0.4122  0.5027
  849THF     H514029   2.490   3.603   1.440 -0.4357  0.1641 -0.3722
  849THF     H614030   2.587   3.638   1.807 -0.0147  1.1071  0.5265
  849THF     H714031   2.663   3.608   1.659 -0.1224  0.8228  0.9087
  849THF     C814032   2.545   3.799   1.665  0.3130 -0.0002  0.0744
  849THF     C914033   2.459   3.798   1.539  0.2754 -0.0689 -0.2025
  849THF    H1014034   2.640   3.850   1.644 -0.3587  0.9001 -0.8553
  849THF    H1114035   2.497   3.855   1.745  1.4372 -0.9080  1.4238
  849THF    H1214036   2.368   3.855   1.559  0.6551  0.2748  0.6257
  849THF    H1314037   2.512   3.830   1.450 -1.7422 -0.5522 -1.6442
  850THF     O114038   3.156   4.799   1.816 -0.1581  0.0638 -0.4628
  850THF     C214039   3.060   4.684   1.813  0.0289 -0.0174 -0.1335
  850THF     C314040   3.221   4.808   1.691 -0.0130  0.2064  0.3338
  850THF     H414041   2.959   4.722   1.801 -0.6682 -1.3310  1.1934
  850THF     H514042   3.040   4.644   1.913 -0.3012 -1.5779 -0.8110
  850THF     H614043   3.222   4.900   1.632  0.5551 -0.1927 -0.2924
  850THF     H714044   3.327   4.800   1.719  0.0906 -1.5983 -0.4349
  850THF     C814045   3.185   4.689   1.603 -0.2538  0.4261 -0.7785
  850THF     C914046   3.106   4.597   1.704  0.6374 -0.3227  0.2822
  850THF    H1014047   3.277   4.648   1.560  0.3070 -0.6154  1.3078
  850THF    H1114048   3.118   4.731   1.528 -0.0421  1.7646 -0.2513
  850THF    H1214049   3.033   4.536   1.651  0.9706 -0.1910 -0.3388
  850THF    H1314050   3.172   4.524   1.752  0.4370  0.0604  1.1501
  851THF     O114051   3.089   3.978   1.964  0.1243  0.0716 -0.0641
  851THF     C214052   3.045   3.892   2.070 -0.3040 -0.3003  0.1140
  851THF     C314053   3.101   4.108   2.015 -0.1452 -0.0367 -0.2180
  851THF     H414054   3.131   3.825   2.079 -1.1860 -1.4104  0.5008
  851THF     H514055   2.962   3.834   2.030 -0.4052  0.9727 -1.6181
  851THF     H614056   3.181   4.161   1.964 -0.9185  1.0209 -0.3693
  851THF     H714057   3.007   4.160   1.999 -0.0682  0.2851  0.3394
  851THF     C814058   3.112   4.096   2.170  0.9049  0.5658  0.4398
  851THF     C914059   3.021   3.978   2.202 -0.0463  0.0297 -0.5278
  851THF    H1014060   3.094   4.191   2.219 -2.1366  1.3179 -1.7775
  851THF    H1114061   3.212   4.069   2.201  1.4777  0.3309 -1.4442
  851THF    H1214062   3.045   3.923   2.294  1.2858  3.2052  1.1851
  851THF    H1314063   2.918   4.012   2.210  0.6088  1.7573  1.4699
  852THF     O114064   3.870   5.188   3.350 -0.5113 -0.0420  0.8089
  852THF     C214065   3.839   5.255   3.465  0.6966  0.0121  0.4047
  852THF     C314066   3.845   5.053   3.370 -0.0945 -0.0652 -0.4137
  852THF     H414067   3.730   5.262   3.468  0.6815  0.2213 -0.4755
  852THF     H514068   3.875   5.356   3.445  0.2105  0.1136  0.0264
  852THF     H614069   3.737   5.037   3.377 -0.0254  0.0194  1.2591
  852THF     H714070   3.901   4.982   3.310  2.2528  1.1285  0.2427
  852THF     C814071   3.882   5.032   3.517  0.2894 -0.0510  0.0302
  852THF     C914072   3.900   5.172   3.572 -0.4538 -0.1294 -0.3253
  852THF    H1014073   3.980   4.985   3.522  3.1280  5.0802 -0.5184
  852THF    H1114074   3.805   4.973   3.567 -0.9825  0.1366 -1.6398
  852THF    H1214075   3.861   5.187   3.673  1.0565  0.6686  0.1655
  852THF    H1314076   4.006   5.193   3.590 -0.6151  1.5783 -1.1872
  853THF     O114077   4.580   3.255   1.546 -0.0242  0.2108  0.3394
  853THF     C214078   4.560   3.110   1.553 -0.3871 -0.8954 -0.0970
  853THF     C314079   4.716   3.272   1.514  0.0796 -0.4504  0.4976
  853THF     H414080   4.453   3.089   1.547 -0.3012 -1.3877  0.0462
  853THF     H514081   4.600   3.075   1.648 -0.4627  1.6523  0.9347
  853THF     H614082   4.742   3.374   1.488  0.5681 -0.3304  1.4233
  853THF     H714083   4.771   3.250   1.605 -0.2906 -0.8197  0.6369
  853THF     C814084   4.746   3.177   1.402  0.7868 -0.3050 -0.5707
  853THF     C914085   4.652   3.064   1.439 -0.5620 -0.3053 -0.1128
  853THF    H1014086   4.849   3.147   1.382  1.0223  0.7027 -0.9262
  853THF    H1114087   4.718   3.215   1.303  0.4102 -0.4357 -0.5189
  853THF    H1214088   4.596   3.032   1.351  0.6928  0.9797 -1.4382
  853THF    H1314089   4.722   2.984   1.464  0.3983 -0.4696 -2.9175
  854THF     O114090   3.595   3.817   4.009 -0.2361 -0.2108 -0.3993
  854THF     C214091   3.649   3.943   4.022 -0.3827 -0.8115  0.3332
  854THF     C314092   3.637   3.743   4.122  0.5111  0.2160 -0.5795
  854THF     H414093   3.589   4.019   4.070 -2.1299 -0.7341 -1.7963
  854THF     H514094   3.647   3.969   3.916 -0.2138 -0.6948  0.3578
  854THF     H614095   3.578   3.785   4.204  0.1704 -0.6312 -0.3803
  854THF     H714096   3.619   3.636   4.113  0.7304 -0.1969  2.5802
  854THF     C814097   3.789   3.762   4.119  0.2508  0.0965 -0.3533
  854THF     C914098   3.790   3.909   4.082  0.2353  0.4762  0.7347
  854THF    H1014099   3.828   3.693   4.044  1.5141  1.9841 -1.5345
  854THF    H1114100   3.830   3.736   4.216  1.0225  0.0317 -0.6916
  854THF    H1214101   3.818   3.980   4.160  3.3645 -0.1201  0.2888
  854THF    H1314102   3.878   3.932   4.022 -0.9497  1.8975 -0.5705
  855THF     O114103   1.982   1.374   4.491 -0.1285 -0.3860  0.2018
  855THF     C214104   1.916   1.502   4.499  0.8801 -0.6833 -0.5164
  855THF     C314105   1.956   1.295   4.612 -0.3562  0.6001  1.2191
  855THF     H414106   1.817   1.506   4.454  0.9796  1.3124 -0.6301
  855THF     H514107   1.972   1.591   4.471  1.0320 -0.9271 -1.0033
  855THF     H614108   1.855   1.257   4.595 -0.0084  0.3268 -0.4189
  855THF     H714109   2.026   1.215   4.635 -1.2637 -0.1801  1.3538
  855THF     C814110   1.965   1.405   4.715  0.3345  0.2943 -0.3923
  855THF     C914111   1.890   1.519   4.653 -0.3039  0.1463  0.5010
  855THF    H1014112   2.073   1.423   4.711  0.4945 -0.3458  0.6323
  855THF    H1114113   1.942   1.373   4.817  1.0085 -2.7954 -1.0784
  855THF    H1214114   1.787   1.496   4.681  0.2296 -1.3673  1.3541
  855THF    H1314115   1.918   1.617   4.691 -0.9864  0.4883  0.1408
  856THF     O114116   5.149   3.046   4.686 -0.4500 -0.1451  0.4866
  856THF     C214117   5.122   3.187   4.686 -0.3754  0.5371 -0.1898
  856THF     C314118   5.254   3.022   4.596 -0.1644  0.6185  0.5021
  856THF     H414119   5.093   3.214   4.788 -1.6308 -0.4353 -0.2686
  856THF     H514120   5.038   3.211   4.621  0.7017 -1.3274 -2.3968
  856THF     H614121   5.315   2.935   4.617 -0.1415 -0.0192 -1.8595
  856THF     H714122   5.229   3.027   4.490  1.3250  2.8056  0.1856
  856THF     C814123   5.351   3.138   4.616  0.4664  0.7677  0.3456
  856THF     C914124   5.259   3.256   4.652 -0.3867  0.4235  0.5481
  856THF    H1014125   5.406   3.153   4.523  1.4282 -1.4872  0.4716
  856THF    H1114126   5.418   3.106   4.697  0.0778 -3.5805 -0.7705
  856THF    H1214127   5.304   3.326   4.723 -1.9109  3.3508 -1.1840
  856THF    H1314128   5.248   3.299   4.552 -0.9689 -1.8588 -0.4131
  857THF     O114129   1.753   3.800   3.983  0.1438  0.5031  0.0892
  857THF     C214130   1.891   3.831   4.009 -0.2507  0.3620 -0.6555
  857THF     C314131   1.721   3.850   3.854 -0.2702  0.4072  0.1509
  857THF     H414132   1.950   3.744   3.984  0.0161  0.2683  0.2606
  857THF     H514133   1.908   3.869   4.110 -0.1478 -0.1621 -0.4712
  857THF     H614134   1.769   3.781   3.785  1.8946  0.1867  1.7463
  857THF     H714135   1.615   3.847   3.831 -0.4457  0.7442  0.8656
  857THF     C814136   1.800   3.981   3.851 -0.1099  0.4282  0.1563
  857THF     C914137   1.929   3.945   3.920  0.5657  0.0188  0.2884
  857THF    H1014138   1.745   4.059   3.903 -0.6432  0.5464 -0.5639
  857THF    H1114139   1.818   4.023   3.752  1.0163  1.3722  0.7396
  857THF    H1214140   1.995   3.908   3.842  0.6112  0.7400 -0.0258
  857THF    H1314141   1.982   4.022   3.976  1.6292 -0.2515 -0.3289
  858THF     O114142   2.949   0.334   0.093 -0.1624  0.5023 -0.0417
  858THF     C214143   2.873   0.384  -0.015 -0.0073 -0.1870 -0.2042
  858THF     C314144   2.938   0.422   0.199  0.4914 -0.3703 -0.4158
  858THF     H414145   2.768   0.361   0.004 -0.1497  0.5541 -0.0565
  858THF     H514146   2.908   0.341  -0.109  0.8208  1.0126 -0.4757
  858THF     H614147   2.834   0.411   0.232  0.0211  0.2332 -1.6288
  858THF     H714148   3.001   0.397   0.284 -1.4661  0.3524  1.3639
  858THF     C814149   2.961   0.560   0.135  0.1934 -0.3541 -0.2846
  858THF     C914150   2.923   0.533  -0.014  0.2524 -1.0728  0.1477
  858THF    H1014151   3.066   0.587   0.138  0.0331  0.2450 -0.0139
  858THF    H1114152   2.897   0.641   0.169 -2.6955 -1.7384 -1.9776
  858THF    H1214153   2.843   0.602  -0.039  0.9983  0.3143  1.4243
  858THF    H1314154   3.015   0.560  -0.067 -0.0664  0.7652  0.4730
  859THF     O114155   2.561   0.538   0.103  0.0803  0.0382  0.0859
  859THF     C214156   2.505   0.466  -0.007 -0.0214 -0.1145  0.1008
  859THF     C314157   2.524   0.471   0.218  0.0855 -0.3172 -0.4512
  859THF     H414158   2.570   0.470  -0.095 -1.3646 -0.9239 -0.9619
  859THF     H514159   2.406   0.508  -0.025 -0.2809  0.5582  2.6613
  859THF     H614160   2.597   0.491   0.297  0.7167 -1.1172 -0.8161
  859THF     H714161   2.425   0.514   0.233  1.0637  2.1730 -0.6182
  859THF     C814162   2.531   0.331   0.183  0.1475 -0.0527  0.2233
  859THF     C914163   2.469   0.330   0.043 -0.3401 -0.3098  0.5363
  859THF    H1014164   2.471   0.274   0.254  0.8291 -0.3641  0.5540
  859THF    H1114165   2.635   0.300   0.180  0.3330  0.6249 -0.8299
  859THF    H1214166   2.501   0.259  -0.032 -4.0743 -0.4662 -1.1524
  859THF    H1314167   2.362   0.336   0.064 -0.2537  0.4989  0.7864
  860THF     O114168   4.922   0.573   0.252 -0.2871  0.0733 -0.1022
  860THF     C214169   4.863   0.467   0.185 -0.3554 -0.4734  0.0277
  860THF     C314170   4.959   0.675   0.165  0.0209 -0.4600 -0.8681
  860THF     H414171   4.757   0.483   0.166 -0.3193  1.0317  0.9262
  860THF     H514172   4.871   0.366   0.227  3.4475 -0.3995 -0.1612
  860THF     H614173   4.894   0.760   0.182 -2.0758 -1.7757 -1.8149
  860THF     H714174   5.064   0.696   0.189 -0.2038  0.6180 -0.7836
  860THF     C814175   4.945   0.619   0.027  0.5413 -0.4321  0.3320
  860THF     C914176   4.928   0.471   0.047  0.4023 -0.4060  0.1595
  860THF    H1014177   5.027   0.638  -0.041 -0.2361 -3.0045 -1.4725
  860THF    H1114178   4.856   0.664  -0.017  0.7278  2.3238  2.4865
  860THF    H1214179   4.884   0.402  -0.025  3.1813 -2.2815  0.0987
  860THF    H1314180   5.029   0.435   0.066  0.4491 -0.2801  0.1445
  861THF     O114181   2.846   0.591   0.723 -0.6180  0.0258 -0.5016
  861THF     C214182   2.861   0.698   0.635  0.3578 -0.0904  0.0494
  861THF     C314183   2.976   0.576   0.787 -0.5563  0.0515  0.4520
  861THF     H414184   2.839   0.794   0.683  2.9107  0.5176  0.1308
  861THF     H514185   2.775   0.682   0.571 -0.1425 -0.3900  0.7813
  861THF     H614186   2.983   0.661   0.855  1.3967  0.8969 -0.7144
  861THF     H714187   2.982   0.484   0.846 -0.1600 -0.2181  0.0092
  861THF     C814188   3.074   0.592   0.666  0.3156 -0.3306 -0.1062
  861THF     C914189   3.004   0.683   0.571  0.7320  0.3742 -0.0120
  861THF    H1014190   3.097   0.494   0.624  0.0688 -1.3396  1.9750
  861THF    H1114191   3.175   0.627   0.689  0.0572 -0.2182  0.9093
  861THF    H1214192   3.046   0.783   0.578 -0.8356  1.3529 -2.8814
  861THF    H1314193   2.986   0.634   0.475 -1.2043  0.3243  0.3225
  862THF     O114194   3.889   5.339   1.011  0.1215 -0.0243  0.2170
  862THF     C214195   4.000   5.245   1.006  1.2273 -0.9269 -0.2299
  862THF     C314196   3.773   5.269   0.967  0.4333 -0.3303  1.0448
  862THF     H414197   4.074   5.257   1.086 -0.8389 -1.1955  1.8339
  862THF     H514198   4.037   5.234   0.904 -1.0239 -1.3804 -1.0386
  862THF     H614199   3.687   5.334   0.985  0.9353  0.5537  0.3668
  862THF     H714200   3.768   5.266   0.859 -0.0454  0.1173  1.0500
  862THF     C814201   3.782   5.134   1.038  0.3699  0.2538  0.4613
  862THF     C914202   3.932   5.121   1.053 -0.2268  0.1826 -0.4963
  862THF    H1014203   3.744   5.049   0.981  1.2180 -0.0947  0.4102
  862THF    H1114204   3.725   5.134   1.131 -0.4001 -1.9746  0.0532
  862THF    H1214205   3.960   5.098   1.156 -2.7773  1.1523  0.4928
  862THF    H1314206   3.980   5.042   0.995  0.9464  1.2951 -1.0933
  863THF     O114207   3.985   3.828   3.004  0.2293  0.2310  0.0606
  863THF     C214208   3.846   3.786   3.018 -0.9941 -0.5061  0.3533
  863THF     C314209   4.058   3.788   3.121  0.4118  0.7026  0.4525
  863THF     H414210   3.826   3.696   2.960 -0.6857 -0.4891  0.2209
  863THF     H514211   3.780   3.867   2.988  0.0487  1.1353  2.2039
  863THF     H614212   4.088   3.686   3.098 -1.0428  0.8236 -2.4008
  863THF     H714213   4.147   3.848   3.142  0.5183  1.0039 -0.7742
  863THF     C814214   3.954   3.785   3.236  0.1724  0.5318 -0.1139
  863THF     C914215   3.824   3.744   3.167 -0.7599 -0.1834  0.1588
  863THF    H1014216   3.940   3.878   3.291  0.8370  0.4864  0.1380
  863THF    H1114217   3.979   3.717   3.317 -0.1366  0.2963 -0.2158
  863THF    H1214218   3.822   3.635   3.171  0.6015 -0.1856  1.4387
  863THF    H1314219   3.729   3.783   3.204  1.3790  4.4687  1.4149
  864THF     O114220   0.971   1.524   1.867  0.2339 -0.6624  0.1108
  864THF     C214221   0.945   1.479   1.733  0.3456 -0.5729  0.7574
  864THF     C314222   0.886   1.635   1.892  0.2517 -0.1906  0.7892
  864THF     H414223   0.847   1.431   1.728 -0.1494  0.1162  2.7821
  864THF     H514224   1.012   1.409   1.685 -0.0769 -1.9534  2.1093
  864THF     H614225   0.786   1.617   1.929 -1.3719  0.8039 -2.6652
  864THF     H714226   0.925   1.695   1.974  3.0361 -0.4863 -0.1868
  864THF     C814227   0.891   1.716   1.761  0.5937  0.4071 -0.0279
  864THF     C914228   0.946   1.613   1.660 -0.0730 -0.5182 -0.4748
  864THF    H1014229   0.960   1.801   1.765  1.8982 -0.6070 -0.3799
  864THF    H1114230   0.793   1.761   1.746  0.4141  0.4844  1.2518
  864THF    H1214231   0.893   1.606   1.565 -1.6327 -1.3695  0.4161
  864THF    H1314232   1.050   1.631   1.634 -0.8511  2.4272 -2.0576
  865THF     O114233   0.719   1.561   4.336  0.0659  0.4523  0.0824
  865THF     C214234   0.761   1.494   4.216  0.3424 -0.1789  0.5977
  865THF     C314235   0.770   1.693   4.327 -0.1652 -0.4502 -0.2053
  865THF     H414236   0.698   1.525   4.133 -0.6998 -0.6982  1.1794
  865THF     H514237   0.739   1.391   4.246 -3.0965  0.5935  1.1454
  865THF     H614238   0.696   1.755   4.276  0.2205  0.1427 -0.0601
  865THF     H714239   0.789   1.733   4.426 -0.2104  0.6594 -0.6268
  865THF     C814240   0.896   1.684   4.240  0.8307 -0.5839  0.0702
  865THF     C914241   0.904   1.535   4.212  0.1791  0.2265  0.2515
  865THF    H1014242   0.979   1.711   4.304 -0.5388 -1.4635  2.3660
  865THF    H1114243   0.893   1.737   4.145 -0.1001 -1.1931 -0.2545
  865THF    H1214244   0.950   1.512   4.116  0.0495 -0.6654  0.4015
  865THF    H1314245   0.964   1.479   4.284 -2.1204 -4.5087 -1.1433
  866THF     O114246   1.014   3.866   2.954  0.2589 -0.5234  0.3865
  866THF     C214247   1.009   3.888   3.091  0.1616 -0.0014  0.4699
  866THF     C314248   1.146   3.828   2.925 -0.2407  0.1364 -1.0679
  866THF     H414249   0.910   3.850   3.115 -0.5796  1.8646  0.4818
  866THF     H514250   1.023   3.994   3.112 -1.0018  0.4983 -1.0671
  866THF     H614251   1.148   3.763   2.838  0.1512 -1.6021  0.1979
  866THF     H714252   1.220   3.906   2.908 -0.7443  1.6837  2.7767
  866THF     C814253   1.203   3.753   3.047 -0.8483  0.6320 -0.4639
  866THF     C914254   1.122   3.812   3.159 -0.1107  0.0211  0.6041
  866THF    H1014255   1.312   3.751   3.046 -0.7550  0.1111  2.3288
  866THF    H1114256   1.179   3.647   3.046 -2.0038  0.8403  0.9557
  866THF    H1214257   1.087   3.735   3.227 -2.4659 -2.8392 -3.4384
  866THF    H1314258   1.189   3.879   3.213 -0.0097  0.8160 -0.4742
  867THF     O114259   3.348   5.047   0.931  0.5427 -0.0356  0.0474
  867THF     C214260   3.441   4.968   1.002 -0.0863  0.2367  0.5418
  867THF     C314261   3.348   5.174   1.000 -1.0826  0.3366 -0.4765
  867THF     H414262   3.538   4.990   0.958 -1.0074  1.1319 -1.1374
  867THF     H514263   3.423   4.864   0.975  0.8707  0.7636 -2.5051
  867THF     H614264   3.432   5.236   0.969 -0.2476 -0.0039  1.0023
  867THF     H714265   3.250   5.222   0.989 -0.0410  3.4197  1.9080
  867THF     C814266   3.388   5.150   1.142  0.2160 -0.3329 -0.2837
  867THF     C914267   3.420   5.004   1.147 -0.2149  0.3547  0.2079
  867THF    H1014268   3.317   5.181   1.219 -1.0376  0.5525 -1.7238
  867THF    H1114269   3.477   5.203   1.173 -0.5386 -0.6223  2.6963
  867THF    H1214270   3.511   4.986   1.205 -0.6820 -1.8397  0.3754
  867THF    H1314271   3.336   4.949   1.191 -0.3767  0.6520  0.2701
  868THF     O114272   0.806   1.138   1.127 -0.1368  0.1082 -0.1187
  868THF     C214273   0.901   1.199   1.217  0.1676 -0.3567  0.2808
  868THF     C314274   0.697   1.117   1.205  0.1273  0.4502  0.1852
  868THF     H414275   0.978   1.241   1.153 -0.2988 -0.4557 -0.3469
  868THF     H514276   0.948   1.132   1.289 -1.7018 -0.6161  1.3351
  868THF     H614277   0.614   1.107   1.135 -0.2240 -1.1603  0.7995
  868THF     H714278   0.709   1.041   1.282  0.7380 -0.2267 -0.5606
  868THF     C814279   0.679   1.250   1.285  0.4003 -0.3609  0.2774
  868THF     C914280   0.821   1.308   1.293 -0.6579 -0.8156 -0.3385
  868THF    H1014281   0.645   1.228   1.386  0.9392  2.2046  1.0906
  868THF    H1114282   0.611   1.320   1.235  1.2094 -0.6651 -1.3191
  868THF    H1214283   0.841   1.403   1.244  1.0786  0.4463  2.5162
  868THF    H1314284   0.863   1.322   1.393 -0.0540 -1.6059 -0.4808
  869THF     O114285   1.216   2.892   0.443 -0.0412  0.4101  0.3309
  869THF     C214286   1.344   2.877   0.504  0.6047  0.5156  0.4362
  869THF     C314287   1.155   2.761   0.450 -0.5934  0.4410  0.7777
  869THF     H414288   1.342   2.972   0.557  0.2819  0.1158  1.1542
  869THF     H514289   1.432   2.878   0.438 -1.3272  2.5605 -2.3500
  869THF     H614290   1.046   2.757   0.450 -0.5888 -0.8626 -1.4425
  869THF     H714291   1.180   2.707   0.359 -2.5615  0.8325 -0.0322
  869THF     C814292   1.213   2.701   0.580  0.1732 -0.0609  0.4183
  869THF     C914293   1.352   2.745   0.577 -0.1367 -0.5708 -0.1193
  869THF    H1014294   1.199   2.593   0.584  1.2435 -0.2987 -1.1866
  869THF    H1114295   1.167   2.749   0.666  2.1847  3.4757 -0.2909
  869THF    H1214296   1.379   2.756   0.682 -1.0812 -2.6186  0.3951
  869THF    H1314297   1.421   2.672   0.534 -1.2079 -0.7851 -1.5478
  870THF     O114298   1.152   0.671   2.137 -0.5058  1.1740  0.3423
  870THF     C214299   1.168   0.527   2.119 -0.2442  0.2977 -0.0198
  870THF     C314300   1.092   0.697   2.256  0.4393  0.5955  0.3224
  870THF     H414301   1.263   0.505   2.069 -0.2770 -0.9427  0.4149
  870THF     H514302   1.092   0.485   2.053  1.0450 -1.7743 -0.3020
  870THF     H614303   1.145   0.750   2.336 -0.1492  2.0970 -0.2552
  870THF     H714304   1.007   0.761   2.235 -0.6065 -0.8172  0.0567
  870THF     C814305   1.065   0.560   2.319 -0.1036  0.7842  0.5585
  870THF     C914306   1.157   0.462   2.254  0.5997  0.4823  0.3818
  870THF    H1014307   0.959   0.536   2.314 -0.6257  3.1139 -1.9097
  870THF    H1114308   1.084   0.566   2.426  1.0694 -1.4917  0.5401
  870THF    H1214309   1.253   0.471   2.304  0.5813 -0.1675  0.5417
  870THF    H1314310   1.126   0.358   2.260  1.5529  0.1541 -0.2895
  871THF     O114311   0.658   2.044   3.593 -0.5490 -0.2630 -0.2056
  871THF     C214312   0.768   2.130   3.608 -0.4936  0.1775 -0.5292
  871THF     C314313   0.680   1.915   3.644 -0.8004  0.7325  0.3859
  871THF     H414314   0.751   2.238   3.612 -0.2459  0.1935  1.8978
  871THF     H514315   0.841   2.105   3.531 -0.3589  0.9415 -0.6589
  871THF     H614316   0.597   1.885   3.707  1.0491 -0.1756  2.5557
  871THF     H714317   0.699   1.849   3.559 -2.5874  0.8664 -0.1464
  871THF     C814318   0.814   1.933   3.733  0.6515 -0.5842  0.1610
  871THF     C914319   0.822   2.086   3.747  0.5311  0.0950  0.3963
  871THF    H1014320   0.898   1.877   3.691  2.3938  0.4904  2.0728
  871THF    H1114321   0.809   1.891   3.834  0.5671  0.6631  0.6850
  871THF    H1214322   0.744   2.133   3.807 -0.2484  0.7488 -1.0909
  871THF    H1314323   0.924   2.119   3.765  0.1219  2.2304 -0.9325
  872THF     O114324   5.313   3.939   0.488 -0.4539  0.3381 -0.1320
  872THF     C214325   5.387   3.909   0.359  1.2842 -0.0512  0.2809
  872THF     C314326   5.196   4.005   0.455  0.1993  0.0435  0.7032
  872THF     H414327   5.446   3.818   0.361  1.5984  0.1088 -0.9683
  872THF     H514328   5.458   3.991   0.344  1.3433 -0.3794 -1.4597
  872THF     H614329   5.122   4.022   0.533  0.3045 -3.4124  1.7130
  872THF     H714330   5.235   4.102   0.424  0.6206 -0.1773  0.5347
  872THF     C814331   5.147   3.929   0.332 -0.5056 -0.2529  0.0037
  872THF     C914332   5.277   3.904   0.252 -0.1930 -0.2565 -0.3905
  872THF    H1014333   5.067   3.970   0.270 -1.1414  1.4522  1.8781
  872THF    H1114334   5.116   3.832   0.372  1.5604 -0.3516  1.5494
  872THF    H1214335   5.269   3.812   0.194  0.9494  0.3001 -1.4617
  872THF    H1314336   5.288   3.990   0.186 -1.1179  1.2258  1.2880
  873THF     O114337   4.704   4.746   2.130  0.0143  0.0802 -0.4771
  873THF     C214338   4.711   4.627   2.048 -0.6428  0.1410  0.5443
  873THF     C314339   4.570   4.803   2.106  0.6501 -0.5387 -0.1419
  873THF     H414340   4.718   4.543   2.117  2.9703  2.1742  3.0173
  873THF     H514341   4.798   4.625   1.982  0.5416  1.1562  2.0112
  873THF     H614342   4.528   4.848   2.195 -1.5131 -1.4613 -0.6409
  873THF     H714343   4.574   4.873   2.023 -1.5276 -0.4930 -0.2446
  873THF     C814344   4.480   4.692   2.059 -0.1587  0.2720 -0.7273
  873THF     C914345   4.582   4.614   1.968 -0.3553 -0.8445 -0.2582
  873THF    H1014346   4.394   4.735   2.008  1.0435  3.2494 -0.4197
  873THF    H1114347   4.442   4.625   2.136  0.2147 -0.0371 -0.8098
  873THF    H1214348   4.554   4.509   1.960  0.1648 -1.0317  0.3040
  873THF    H1314349   4.578   4.662   1.870  0.4660  0.9326  0.5440
  874THF     O114350   2.437   3.281   0.108  0.2323 -0.2172 -0.0087
  874THF     C214351   2.358   3.388   0.052  0.4707  0.8373  0.8597
  874THF     C314352   2.346   3.194   0.176  0.0820  0.2720  0.2029
  874THF     H414353   2.415   3.435  -0.029 -1.9475  0.6512 -1.1055
  874THF     H514354   2.335   3.455   0.135 -0.9546 -2.6274  3.5307
  874THF     H614355   2.385   3.093   0.189 -0.0902 -0.2982 -2.8544
  874THF     H714356   2.327   3.227   0.278 -0.0601 -0.3847  0.3959
  874THF     C814357   2.215   3.197   0.099  0.6554  0.0085  0.5319
  874THF     C914358   2.227   3.320   0.012  0.0235  0.3792 -0.3124
  874THF    H1014359   2.122   3.190   0.154 -1.6226  0.6731 -2.9013
  874THF    H1114360   2.215   3.107   0.037 -0.7641  0.3338  0.0314
  874THF    H1214361   2.232   3.304  -0.096 -0.4374  0.5599 -0.3649
  874THF    H1314362   2.142   3.382   0.043  1.5603  1.9607  0.9233
  875THF     O114363   3.626   3.247   3.784 -0.0769  0.6761 -0.6996
  875THF     C214364   3.522   3.148   3.762  0.0334 -0.7280  0.0109
  875THF     C314365   3.604   3.303   3.912 -0.4451 -0.5181  0.4183
  875THF     H414366   3.530   3.062   3.830  0.4053  0.3441  1.3728
  875THF     H514367   3.527   3.122   3.657 -0.1797  1.2871 -0.5382
  875THF     H614368   3.646   3.242   3.993 -0.2780  0.7351  1.2948
  875THF     H714369   3.658   3.397   3.923  1.6048 -1.6152  0.3407
  875THF     C814370   3.454   3.320   3.921  0.4445 -0.4310  0.2386
  875THF     C914371   3.402   3.229   3.811  0.3342 -0.6200 -0.8315
  875THF    H1014372   3.421   3.421   3.896  2.1201 -0.1451 -1.0718
  875THF    H1114373   3.403   3.299   4.015  1.5318  3.1795  1.8374
  875THF    H1214374   3.315   3.169   3.838  0.3381 -0.0597  0.5069
  875THF    H1314375   3.379   3.297   3.730  3.3540  1.1278 -0.3513
  876THF     O114376   3.129   5.190   4.268 -0.1358  0.0712 -0.5310
  876THF     C214377   3.185   5.239   4.150 -0.1830 -0.4388  0.6615
  876THF     C314378   2.996   5.245   4.283 -0.3395  0.0019 -0.4209
  876THF     H414379   3.155   5.184   4.061  0.9218 -0.0417  0.0308
  876THF     H514380   3.293   5.234   4.156 -0.2376 -0.3231  2.7511
  876THF     H614381   2.922   5.198   4.219  0.2091  0.1885 -1.1983
  876THF     H714382   2.951   5.238   4.382 -0.0878  0.1467 -0.2947
  876THF     C814383   3.021   5.392   4.245 -0.4840  0.1688  0.4492
  876THF     C914384   3.147   5.384   4.154 -0.2078 -0.3989  0.0598
  876THF    H1014385   3.040   5.446   4.337 -1.2019  0.3865  0.4835
  876THF    H1114386   2.929   5.433   4.203 -0.6941 -1.0960 -0.4043
  876THF    H1214387   3.130   5.427   4.055  0.2300  0.2935  0.2715
  876THF    H1314388   3.224   5.442   4.205 -0.9145 -0.9689  1.8540
  877THF     O114389   2.963   0.239   4.120  0.0780  0.1233 -0.3650
  877THF     C214390   3.053   0.338   4.164 -0.0946 -0.4115  0.3640
  877THF     C314391   2.955   0.257   3.975 -0.2831 -0.1830 -0.2173
  877THF     H414392   3.155   0.301   4.174  0.1760  0.0561 -0.5405
  877THF     H514393   3.012   0.376   4.257 -0.7793  1.2718 -0.5773
  877THF     H614394   2.996   0.166   3.930  1.2602  0.3136  0.1487
  877THF     H714395   2.854   0.280   3.940  0.5503  0.0678 -2.6644
  877THF     C814396   3.043   0.374   3.927  0.4473 -0.1820  0.3949
  877THF     C914397   3.041   0.445   4.058  0.0562 -0.5862  0.3533
  877THF    H1014398   2.995   0.439   3.854 -1.1529  0.9632  2.3617
  877THF    H1114399   3.144   0.349   3.894  0.6228  1.0548 -0.0795
  877THF    H1214400   3.122   0.518   4.053  1.1830 -1.7753  0.8032
  877THF    H1314401   2.944   0.494   4.060  0.4347  0.3040 -1.3529
  878THF     O114402   4.297   3.259   3.132  0.4254  0.3359 -0.3517
  878THF     C214403   4.278   3.375   3.047 -0.0871  0.6540 -0.0688
  878THF     C314404   4.426   3.204   3.101  0.3782  0.0657  0.2694
  878THF     H414405   4.269   3.466   3.106  0.7185  0.6855  0.0142
  878THF     H514406   4.183   3.360   2.996 -0.1770 -1.7349  0.6476
  878THF     H614407   4.498   3.236   3.176 -0.6516 -2.4555  2.4959
  878THF     H714408   4.419   3.095   3.103  1.4160 -0.0386  2.8461
  878THF     C814409   4.446   3.249   2.954  1.0812 -0.1964 -0.0651
  878THF     C914410   4.397   3.395   2.952  0.8012 -0.1926 -0.4635
  878THF    H1014411   4.373   3.190   2.898  1.1232 -0.1454 -0.1749
  878THF    H1114412   4.546   3.236   2.914  0.2695 -0.7769 -2.0664
  878THF    H1214413   4.465   3.471   2.989  1.6930 -1.1153 -0.1724
  878THF    H1314414   4.363   3.431   2.855  0.8693  1.4925  0.1126
  879THF     O114415   2.884   1.141   2.404  0.0767 -0.3170  0.3805
  879THF     C214416   2.965   1.172   2.518  0.3540 -0.1607  0.0978
  879THF     C314417   2.796   1.249   2.368  0.5785 -0.1035 -0.1195
  879THF     H414418   3.050   1.106   2.536  0.9367  0.9647  1.6933
  879THF     H514419   2.907   1.163   2.610  1.7021  0.6777  1.0606
  879THF     H614420   2.780   1.241   2.261  0.6309 -2.1356 -0.0316
  879THF     H714421   2.700   1.235   2.419  0.2268 -0.1999 -0.7940
  879THF     C814422   2.860   1.377   2.415  0.7769 -1.3699 -0.0919
  879THF     C914423   2.990   1.319   2.483  0.3324 -0.3471  0.0822
  879THF    H1014424   2.800   1.436   2.484 -1.2427 -3.3889 -0.0154
  879THF    H1114425   2.874   1.439   2.327  0.8409 -0.2161  0.7085
  879THF    H1214426   3.074   1.330   2.415 -0.4560 -3.3776 -1.5839
  879THF    H1314427   3.008   1.372   2.576 -1.9936  1.1363 -0.2339
  880THF     O114428   0.511   3.484   4.641 -0.0762  0.3553  0.1851
  880THF     C214429   0.622   3.562   4.606  0.1973 -0.6363 -0.2513
  880THF     C314430   0.490   3.504   4.780 -0.0880  0.2582 -0.3618
  880THF     H414431   0.587   3.664   4.597 -0.5901 -0.8565  0.2666
  880THF     H514432   0.669   3.528   4.513  1.2330  0.8914 -0.3291
  880THF     H614433   0.448   3.599   4.814 -0.9293 -0.0180 -0.6145
  880THF     H714434   0.440   3.421   4.829 -0.7516  2.3026  2.6860
  880THF     C814435   0.632   3.501   4.826 -0.0119  0.1372 -0.1930
  880THF     C914436   0.717   3.543   4.714  0.9469 -0.3552 -0.9533
  880THF    H1014437   0.663   3.406   4.870 -1.8745 -0.5469 -0.2701
  880THF    H1114438   0.631   3.578   4.903  1.1090  0.2551 -0.2784
  880THF    H1214439   0.766   3.637   4.740 -0.8679  0.1788  0.7857
  880THF    H1314440   0.792   3.466   4.696  0.3519 -2.1467  3.2164
  881THF     O114441   1.648   5.356   1.704  0.0686  0.4819 -0.1582
  881THF     C214442   1.585   5.394   1.578 -0.1897  0.6281 -0.5906
  881THF     C314443   1.722   5.243   1.682 -0.0145  0.3606  0.4128
  881THF     H414444   1.638   5.474   1.527  0.2826 -0.3982 -1.7591
  881THF     H514445   1.484   5.428   1.602 -1.2745 -2.1748 -0.7803
  881THF     H614446   1.818   5.270   1.638  0.1068 -1.7657 -0.7866
  881THF     H714447   1.729   5.192   1.778 -0.4437 -0.9306 -0.2088
  881THF     C814448   1.636   5.158   1.586  0.2381 -0.6604  0.3952
  881THF     C914449   1.585   5.264   1.493  0.4469 -0.2139 -0.4214
  881THF    H1014450   1.554   5.105   1.636 -0.1512  1.4861  2.2072
  881THF    H1114451   1.690   5.080   1.533  0.3512  0.2590 -0.8725
  881THF    H1214452   1.645   5.272   1.402  0.9741 -1.7476 -0.2490
  881THF    H1314453   1.493   5.230   1.446  1.2717 -2.3553 -0.5797
  882THF     O114454   0.113   0.827   2.105 -0.5611  0.5533 -0.0492
  882THF     C214455   0.149   0.933   2.013 -0.3837 -0.4530  0.3092
  882THF     C314456   0.182   0.705   2.058 -0.7004  0.1519  1.1911
  882THF     H414457   0.128   1.036   2.043 -2.4197 -0.2742 -1.4550
  882THF     H514458   0.091   0.916   1.922 -1.1851 -0.9859  0.9098
  882THF     H614459   0.193   0.634   2.140 -1.2474  0.7461  1.7886
  882THF     H714460   0.127   0.666   1.972  2.2990  0.6662 -1.1010
  882THF     C814461   0.320   0.762   2.019 -0.4649 -0.6705  0.1495
  882THF     C914462   0.298   0.906   1.995  0.3343 -0.3555 -0.0020
  882THF    H1014463   0.350   0.716   1.925  0.4701  0.1059  0.0412
  882THF    H1114464   0.397   0.736   2.092 -0.5694  1.9495  1.3387
  882THF    H1214465   0.336   0.971   2.074  0.8873  0.9642 -1.3048
  882THF    H1314466   0.341   0.949   1.904  0.4904  0.0085  0.2437
  883THF     O114467   1.360   2.473   4.199 -0.1035 -0.2914 -0.1872
  883THF     C214468   1.437   2.477   4.312 -0.5248  0.1331  0.5422
  883THF     C314469   1.369   2.596   4.133 -0.6453  0.7986 -0.3722
  883THF     H414470   1.523   2.409   4.312 -0.0149  0.7206 -1.3390
  883THF     H514471   1.375   2.441   4.394 -0.7304 -0.0890  0.2881
  883THF     H614472   1.446   2.602   4.056 -0.9859 -0.4126 -0.8260
  883THF     H714473   1.281   2.612   4.071 -0.6246 -0.8333 -0.8595
  883THF     C814474   1.399   2.701   4.244 -0.0355  0.5858  0.4095
  883THF     C914475   1.482   2.626   4.337  0.4148  0.3940 -0.5905
  883THF    H1014476   1.306   2.737   4.287 -0.4458  1.2380 -0.9656
  883THF    H1114477   1.454   2.783   4.197 -0.0039  0.4168  0.1493
  883THF    H1214478   1.585   2.643   4.306  0.7732  0.6308  0.6877
  883THF    H1314479   1.482   2.659   4.441  1.5612 -0.2388 -0.3785
  884THF     O114480   4.576   4.330   3.737 -0.3411  0.4696 -0.7379
  884THF     C214481   4.560   4.203   3.674  0.3386 -0.6811  0.4345
  884THF     C314482   4.678   4.326   3.838  0.3373  0.2285 -0.0827
  884THF     H414483   4.512   4.203   3.576 -2.3082 -2.7654  1.6082
  884THF     H514484   4.490   4.157   3.744  0.8835 -3.1654 -0.5349
  884THF     H614485   4.719   4.425   3.855 -3.6238  1.9761  0.5801
  884THF     H714486   4.625   4.292   3.928  0.1359  4.6483  1.7319
  884THF     C814487   4.782   4.233   3.782 -0.3914  0.4843 -0.2599
  884THF     C914488   4.704   4.153   3.669  0.2665  0.3571 -0.3384
  884THF    H1014489   4.837   4.178   3.858  0.3864  2.2541  0.5100
  884THF    H1114490   4.863   4.286   3.733 -0.1991  0.7242  0.3098
  884THF    H1214491   4.739   4.173   3.568 -0.4653  0.2261 -0.6187
  884THF    H1314492   4.707   4.047   3.693  0.6067  0.2074 -1.0106
  885THF     O114493   0.753   1.866   2.076  0.2824  0.5846 -0.3815
  885THF     C214494   0.721   1.960   1.977  0.0821  0.0839 -0.0482
  885THF     C314495   0.626   1.808   2.116  0.3951  0.3068  0.6119
  885THF     H414496   0.784   1.949   1.889  0.3543  1.4123 -0.0434
  885THF     H514497   0.730   2.061   2.018 -0.5461  0.8752 -1.7916
  885THF     H614498   0.621   1.702   2.095  0.9782  0.1805  1.0952
  885THF     H714499   0.612   1.817   2.224 -2.3016  1.7018  0.2366
  885THF     C814500   0.514   1.886   2.046 -0.2306 -0.1270 -0.9429
  885THF     C914501   0.582   1.942   1.930  0.1336  0.0049  0.2817
  885THF    H1014502   0.476   1.967   2.109 -0.2399  1.0471 -2.4168
  885THF    H1114503   0.426   1.825   2.025  0.3257 -1.9236  1.4353
  885THF    H1214504   0.578   1.867   1.852  1.4161 -1.9032  1.9311
  885THF    H1314505   0.532   2.032   1.896  0.2579 -0.4268 -1.1096
  886THF     O114506   3.527   3.088   0.307  0.3123  0.1825 -0.1207
  886THF     C214507   3.509   3.076   0.166  0.7378 -0.4955  0.0073
  886THF     C314508   3.484   2.969   0.370 -0.2472  0.3291 -0.6442
  886THF     H414509   3.599   3.115   0.119 -0.9200  2.0248 -1.3224
  886THF     H514510   3.420   3.125   0.126  0.3972 -0.4207  0.8274
  886THF     H614511   3.569   2.919   0.416  0.1000  0.8761 -0.6928
  886THF     H714512   3.407   2.981   0.447  2.2222 -0.4817  2.1388
  886THF     C814513   3.412   2.887   0.263  0.0089  0.9904 -0.6762
  886THF     C914514   3.491   2.926   0.140  0.2415  0.1198  0.0984
  886THF    H1014515   3.311   2.923   0.241 -0.5567 -1.3499 -2.3015
  886THF    H1114516   3.401   2.783   0.295 -0.0978  1.9199  2.7194
  886THF    H1214517   3.591   2.882   0.147 -0.4110 -1.1961  1.9965
  886THF    H1314518   3.453   2.912   0.039  0.8662 -1.2378  0.0266
  887THF     O114519   0.974   4.991   4.456  0.3943  0.2230 -0.4657
  887THF     C214520   1.077   5.021   4.548 -0.4625 -0.4606 -0.7359
  887THF     C314521   1.001   4.865   4.397 -0.3139  0.1594 -0.7888
  887THF     H414522   1.027   5.062   4.636 -1.1442  1.4089 -1.9458
  887THF     H514523   1.147   5.089   4.500 -0.8665  0.2235 -0.3605
  887THF     H614524   0.923   4.797   4.430 -1.9364  2.1804 -0.2661
  887THF     H714525   0.999   4.875   4.289 -2.5627  0.3702 -0.7749
  887THF     C814526   1.136   4.828   4.447 -0.0843 -1.0791  0.5911
  887THF     C914527   1.156   4.894   4.587 -0.5447 -0.7624  0.5900
  887THF    H1014528   1.215   4.866   4.383  0.0337  0.7788  1.7651
  887THF    H1114529   1.150   4.720   4.447  1.8801 -0.9223 -2.3131
  887THF    H1214530   1.094   4.850   4.665  0.8027 -2.4910  0.7360
  887THF    H1314531   1.257   4.910   4.625 -0.4448 -0.7937  0.3412
  888THF     O114532   4.184   3.164   4.808  0.1706  0.0905 -0.5064
  888THF     C214533   4.167   3.249   4.696  0.3161 -1.1614 -0.3659
  888THF     C314534   4.290   3.224   4.887  0.4102  0.5601  0.0826
  888THF     H414535   4.109   3.334   4.731  1.3944 -0.7798  0.5523
  888THF     H514536   4.104   3.203   4.620  0.1387  1.3161 -1.8156
  888THF     H614537   4.249   3.293   4.961  2.2501 -1.8299  3.5982
  888THF     H714538   4.341   3.142   4.937 -0.0196  0.0423 -0.3195
  888THF     C814539   4.381   3.283   4.780 -0.0181 -0.3812 -0.5608
  888THF     C914540   4.298   3.297   4.654 -0.1199 -0.2725 -0.0686
  888THF    H1014541   4.473   3.229   4.757  0.4702 -0.1571  0.7806
  888THF    H1114542   4.409   3.382   4.816 -0.4651 -1.4054  3.0250
  888THF    H1214543   4.305   3.397   4.611 -1.9940 -0.3457 -0.6165
  888THF    H1314544   4.354   3.232   4.588 -0.3590 -2.2147  1.5462
  889THF     O114545   3.422   5.025   4.903  0.2704 -0.1363 -0.0108
  889THF     C214546   3.399   5.036   5.045 -1.3909  0.3686  0.4970
  889THF     C314547   3.496   4.906   4.872 -1.0183  0.0930  0.7192
  889THF     H414548   3.332   4.954   5.070 -0.1371 -0.6169  0.7568
  889THF     H514549   3.354   5.128   5.081 -2.1991 -0.2520  1.1006
  889THF     H614550   3.427   4.822   4.875 -0.7276 -0.2566 -1.0127
  889THF     H714551   3.541   4.908   4.772  0.4863 -0.0063  1.3608
  889THF     C814552   3.599   4.895   4.984  0.3582  0.3914 -0.1508
  889THF     C914553   3.546   4.993   5.096  0.5065 -0.6000 -0.0051
  889THF    H1014554   3.698   4.924   4.948  1.3160 -1.1587  1.0775
  889THF    H1114555   3.608   4.797   5.031 -2.3742  0.7752  1.4104
  889THF    H1214556   3.529   4.942   5.191 -1.4709 -0.3089 -0.1559
  889THF    H1314557   3.609   5.081   5.106  0.9460 -0.9618  0.5028
  890THF     O114558   1.677   1.894   4.020  0.2919  0.1419  0.4882
  890THF     C214559   1.588   1.883   3.911 -0.2112  0.6136  0.0606
  890THF     C314560   1.785   1.983   3.977  0.1980 -0.3292 -0.0495
  890THF     H414561   1.492   1.898   3.961 -1.8307  0.3303 -2.7619
  890THF     H514562   1.598   1.780   3.877 -0.6283  0.1685  1.2169
  890THF     H614563   1.776   2.073   4.039  0.5369 -1.0841  1.1230
  890THF     H714564   1.882   1.942   4.004  0.6706  0.3334 -0.7133
  890THF     C814565   1.773   1.997   3.821  0.1508  0.3311  0.1188
  890THF     C914566   1.625   1.983   3.805  0.4522 -0.8522  0.2694
  890THF    H1014567   1.824   1.911   3.778  0.8037  0.6652  0.2179
  890THF    H1114568   1.810   2.089   3.776  1.5126 -0.8345 -1.2695
  890THF    H1214569   1.584   2.082   3.823  1.1863 -0.8598  2.1356
  890THF    H1314570   1.580   1.941   3.715  1.6270 -3.7245  0.9051
  891THF     O114571   1.500   1.006   3.105 -0.0491 -0.5112  0.8472
  891THF     C214572   1.414   0.960   3.003 -0.1799 -0.3063  0.1025
  891THF     C314573   1.441   0.965   3.230  0.2290 -0.2748 -0.1204
  891THF     H414574   1.452   0.948   2.902 -0.9642 -3.1037  0.0448
  891THF     H514575   1.322   1.017   2.990 -0.9294 -0.8362  2.5529
  891THF     H614576   1.516   0.947   3.307  0.5183  1.4730  0.0530
  891THF     H714577   1.374   1.041   3.271  1.4065  0.5847  0.2753
  891THF     C814578   1.358   0.839   3.197  1.0594 -0.4851 -0.2507
  891THF     C914579   1.375   0.823   3.046 -0.2200 -0.1042 -0.3967
  891THF    H1014580   1.256   0.853   3.234  1.2240  1.7206 -0.5262
  891THF    H1114581   1.397   0.747   3.241  0.0093 -0.3826  0.9638
  891THF    H1214582   1.452   0.748   3.023 -2.4457 -2.1446 -1.7079
  891THF    H1314583   1.289   0.780   2.995  1.7306 -1.7123 -2.5772
  892THF     O114584   0.136   5.016   5.024 -0.3255 -0.5503  0.4622
  892THF     C214585  -0.001   5.027   4.989 -0.1996  0.4253 -0.8198
  892THF     C314586   0.160   4.876   5.013 -0.1485 -0.5839  0.1398
  892THF     H414587  -0.029   5.130   4.968  1.0771  0.8686 -0.4291
  892THF     H514588  -0.059   4.986   5.072  1.2920  0.8214  0.4610
  892THF     H614589   0.266   4.848   5.013  0.0621  0.1752  0.8603
  892THF     H714590   0.112   4.830   5.099 -2.8246  3.7358  1.2342
  892THF     C814591   0.097   4.848   4.875  0.3057 -0.5539 -0.2014
  892THF     C914592  -0.024   4.939   4.864 -0.0066  0.0333 -0.5557
  892THF    H1014593   0.071   4.742   4.874  0.1387 -0.5327  0.9237
  892THF    H1114594   0.166   4.873   4.794  0.2584 -0.8055 -0.3204
  892THF    H1214595  -0.031   4.997   4.772  1.2712 -0.4686 -0.9912
  892THF    H1314596  -0.122   4.890   4.867  0.8852 -1.8531 -0.7575
  893THF     O114597   2.343   1.015   3.169  0.5718  0.6518  0.7764
  893THF     C214598   2.391   0.955   3.047  0.9945  0.4802  0.1537
  893THF     C314599   2.213   1.076   3.141 -0.2457 -0.6775  0.1412
  893THF     H414600   2.438   0.861   3.074 -1.0967 -0.8204 -0.5108
  893THF     H514601   2.463   1.027   3.007  1.1495 -0.6688 -1.7940
  893THF     H614602   2.147   1.090   3.227 -2.4046 -2.9355 -0.9997
  893THF     H714603   2.222   1.171   3.089 -1.3677  0.4178  1.8460
  893THF     C814604   2.148   0.978   3.050 -0.2446  0.6100  0.4093
  893THF     C914605   2.268   0.936   2.960 -0.4315  0.4708 -0.7250
  893THF    H1014606   2.069   1.017   2.985 -0.5316 -1.9265 -0.8892
  893THF    H1114607   2.122   0.888   3.106 -0.6960 -0.3726 -1.2758
  893THF    H1214608   2.263   0.839   2.910 -0.6883  0.5777 -0.9051
  893THF    H1314609   2.283   1.001   2.874  0.6186  0.4787 -0.5576
  894THF     O114610   2.952   4.422   5.143 -0.0656  0.5182 -0.3561
  894THF     C214611   2.820   4.383   5.173  0.7001 -0.1710  0.0658
  894THF     C314612   2.964   4.402   4.997 -0.1527 -0.7836 -0.6573
  894THF     H414613   2.795   4.440   5.262  0.4383  1.2800 -0.8953
  894THF     H514614   2.809   4.276   5.193  3.2266 -0.6842 -0.9825
  894THF     H614615   3.061   4.441   4.969 -0.5097  1.6267  1.1589
  894THF     H714616   2.958   4.296   4.972  1.1902 -0.7376 -1.2634
  894THF     C814617   2.837   4.478   4.953  0.4203  0.1352 -0.4349
  894THF     C914618   2.737   4.438   5.061 -0.6949  0.4333  0.5740
  894THF    H1014619   2.801   4.465   4.851 -0.1914  2.4088 -0.5785
  894THF    H1114620   2.869   4.582   4.968 -0.4788  0.2892  0.4891
  894THF    H1214621   2.683   4.521   5.106 -2.4759 -0.5692  0.3656
  894THF    H1314622   2.669   4.362   5.024 -0.6883  1.3163 -1.4050
  895THF     O114623   1.631   3.747   4.652 -0.4613 -0.2064 -0.7013
  895THF     C214624   1.516   3.769   4.577 -0.2109 -0.5949  0.7116
  895THF     C314625   1.661   3.874   4.712 -0.0204 -0.3342 -0.2106
  895THF     H414626   1.430   3.781   4.643 -1.7745 -0.2020 -1.2861
  895THF     H514627   1.503   3.686   4.508  3.2502 -0.5390 -0.2061
  895THF     H614628   1.593   3.906   4.791  0.2680  0.6115 -0.3425
  895THF     H714629   1.754   3.882   4.768  0.7551  2.1086 -1.7038
  895THF     C814630   1.651   3.972   4.602  0.5290  0.7291 -1.0168
  895THF     C914631   1.542   3.913   4.523  0.0987  0.4680  0.4637
  895THF    H1014632   1.741   3.964   4.540  2.7055  2.6729  1.6777
  895THF    H1114633   1.639   4.074   4.638  0.5392 -0.0673  1.4304
  895THF    H1214634   1.454   3.974   4.545 -0.5410  0.7588 -2.3988
  895THF    H1314635   1.550   3.926   4.415  0.8980  0.8348  0.5626
  896THF     O114636   3.064   0.447   1.161 -0.4671 -0.3339  0.1082
  896THF     C214637   2.990   0.360   1.246 -0.5698 -0.2776  0.3515
  896THF     C314638   3.012   0.581   1.174 -0.0054  0.1145 -0.1983
  896THF     H414639   3.034   0.262   1.264  1.5836  0.5453 -0.0913
  896THF     H514640   2.894   0.347   1.196 -0.7788  1.5441  0.1979
  896THF     H614641   3.085   0.659   1.153  0.4695 -0.8872 -2.5649
  896THF     H714642   2.918   0.592   1.121 -0.8751 -0.9305  1.0535
  896THF     C814643   2.993   0.593   1.326 -0.0809  0.1523  0.0870
  896THF     C914644   2.973   0.450   1.370 -0.9630  1.3434  0.2538
  896THF    H1014645   2.915   0.662   1.361 -0.7498  0.2269 -1.4569
  896THF    H1114646   3.079   0.626   1.383  0.7599 -0.9454 -0.5184
  896THF    H1214647   3.041   0.436   1.454  1.6936 -0.3501 -1.9857
  896THF    H1314648   2.872   0.431   1.407 -1.3858  0.5672 -1.2313
  897THF     O114649   2.054   2.355   2.434  0.4202 -0.2914  0.2750
  897THF     C214650   1.944   2.380   2.340 -0.2250  0.6053 -0.0774
  897THF     C314651   2.149   2.278   2.355  0.7059 -0.4051 -0.1682
  897THF     H414652   1.972   2.453   2.264  1.3615 -1.1175 -1.2402
  897THF     H514653   1.851   2.408   2.389 -1.1445 -2.0004 -0.1333
  897THF     H614654   2.202   2.343   2.286 -1.0904 -0.8879 -2.1181
  897THF     H714655   2.200   2.220   2.431 -0.0680 -3.5816 -1.8502
  897THF     C814656   2.060   2.184   2.277 -0.1314 -0.2392  0.1808
  897THF     C914657   1.922   2.251   2.269  0.1342  0.5877  0.4790
  897THF    H1014658   2.042   2.088   2.326 -1.8918 -0.3331 -0.5760
  897THF    H1114659   2.104   2.176   2.178  2.1030  0.6214  1.0467
  897THF    H1214660   1.885   2.260   2.167 -0.0562 -0.0480  0.4892
  897THF    H1314661   1.851   2.185   2.317  0.9463  0.1901  1.1524
  898THF     O114662   0.756   4.864   3.926 -0.6245 -0.1619  0.3261
  898THF     C214663   0.835   4.791   4.014 -0.5786  0.6913 -0.4624
  898THF     C314664   0.758   4.780   3.812  0.3316 -0.8478  0.3398
  898THF     H414665   0.765   4.725   4.065  0.9424 -0.0100  0.7977
  898THF     H514666   0.873   4.853   4.095 -0.9140  0.2680  0.0314
  898THF     H614667   0.692   4.695   3.823 -1.2295  0.1158 -1.1121
  898THF     H714668   0.722   4.836   3.726  2.1385 -0.5615 -0.2676
  898THF     C814669   0.896   4.722   3.793  0.5180  0.3004  0.2956
  898THF     C914670   0.938   4.708   3.937  0.0180  0.0243  0.0824
  898THF    H1014671   0.959   4.793   3.739 -2.4490  2.3739 -0.7269
  898THF    H1114672   0.891   4.631   3.734 -0.3127  0.5740 -0.0723
  898THF    H1214673   0.925   4.605   3.969  1.0107 -0.6001 -1.4042
  898THF    H1314674   1.046   4.713   3.952  0.0650  0.0324 -0.2558
  899THF     O114675   4.023   1.941   0.822  0.4092 -0.0040  0.0214
  899THF     C214676   3.978   1.991   0.941  0.4742 -0.5685  0.3116
  899THF     C314677   4.159   1.984   0.799  0.8934 -0.1159 -0.3422
  899THF     H414678   3.977   1.912   1.016  1.2655 -0.9998 -0.1152
  899THF     H514679   3.878   2.034   0.945 -0.2034 -1.5990 -2.8342
  899THF     H614680   4.220   1.903   0.760  1.9557 -0.9448  2.7998
  899THF     H714681   4.180   2.071   0.736 -0.1954 -0.6523 -1.4910
  899THF     C814682   4.211   2.032   0.937 -0.1458  0.1772 -0.1614
  899THF     C914683   4.081   2.094   0.991 -0.2179 -0.0912 -0.0418
  899THF    H1014684   4.291   2.105   0.938 -0.9316  1.0503  0.0292
  899THF    H1114685   4.236   1.946   0.999 -0.8343 -0.4833 -0.7753
  899THF    H1214686   4.086   2.117   1.098  1.8182  1.1480 -0.3480
  899THF    H1314687   4.064   2.190   0.942 -0.6899 -0.5812 -0.8546
  900THF     O114688   2.260   1.725   0.552 -0.1666 -0.4298 -0.5450
  900THF     C214689   2.118   1.733   0.590 -0.4432 -0.1914 -0.4384
  900THF     C314690   2.324   1.847   0.601 -0.0429 -0.0914  0.4298
  900THF     H414691   2.112   1.695   0.692 -2.4245  0.9160 -0.0923
  900THF     H514692   2.058   1.667   0.528 -1.1090  0.5152 -0.5496
  900THF     H614693   2.357   1.832   0.704 -0.9488  0.4512  0.8135
  900THF     H714694   2.410   1.867   0.537  0.9217 -1.1556  1.3343
  900THF     C814695   2.221   1.959   0.604 -0.3888 -0.5004  0.0349
  900THF     C914696   2.089   1.885   0.572  0.2274 -0.7738  1.1838
  900THF    H1014697   2.254   2.028   0.526  1.4246 -0.4172  0.8059
  900THF    H1114698   2.222   2.007   0.703  0.0944 -0.6005  0.0812
  900THF    H1214699   1.999   1.912   0.629  0.2782 -0.0037  0.9180
  900THF    H1314700   2.055   1.904   0.470 -0.3680  1.2840  1.7080
  901PF6-    P114701   4.195   1.755   4.042 -0.0642  0.3113 -0.2821
  901PF6-    F214702   4.254   1.882   3.971 -0.1292  0.0238 -0.2837
  901PF6-    F314703   4.137   1.618   4.109  0.3115  0.1720 -0.0881
  901PF6-    F414704   4.051   1.787   3.993  0.1603 -0.2219 -0.1630
  901PF6-    F514705   4.340   1.717   4.094 -0.1044 -0.1310 -0.6435
  901PF6-    F614706   4.175   1.837   4.177  0.4072 -0.4814 -0.2142
  901PF6-    F714707   4.221   1.676   3.905  0.0787  0.3295  0.0785
  902PF6-    P114708   0.277   2.555   2.809  0.4106  0.4265 -0.2595
  902PF6-    F214709   0.314   2.537   2.960 -0.3266  0.1243 -1.0816
  902PF6-    F314710   0.243   2.567   2.653 -0.0645 -0.9828 -0.1072
  902PF6-    F414711   0.272   2.390   2.792  0.3246 -0.0671 -0.3485
  902PF6-    F514712   0.284   2.719   2.817  0.1057 -0.7884 -0.3877
  902PF6-    F614713   0.431   2.551   2.773 -0.1220 -0.6339  0.0174
  902PF6-    F714714   0.125   2.555   2.849  0.5339 -0.2799 -0.6801
  903PF6-    P114715   3.744   4.616   0.928 -0.3322 -0.0938 -0.2324
  903PF6-    F214716   3.844   4.500   0.895  0.1215  0.0025 -0.0532
  903PF6-    F314717   3.642   4.735   0.953 -0.1840 -0.0184 -0.0832
  903PF6-    F414718   3.846   4.674   1.043 -0.1120  0.2045  0.3236
  903PF6-    F514719   3.646   4.560   0.819  0.3393 -0.0935 -0.3979
  903PF6-    F614720   3.674   4.521   1.036  0.0368  0.0165 -0.0836
  903PF6-    F714721   3.813   4.709   0.820 -0.1566 -0.0663  0.0136
  904PF6-    P114722   1.750   0.217   4.037  0.4695 -0.2749 -0.0869
  904PF6-    F214723   1.877   0.298   4.101 -0.1465  0.2861  0.8208
  904PF6-    F314724   1.631   0.134   3.973  0.1287 -0.0682  0.0817
  904PF6-    F414725   1.662   0.351   4.052 -0.0916  0.5431  0.1980
  904PF6-    F514726   1.833   0.081   4.020  0.4463 -0.2851 -0.4969
  904PF6-    F614727   1.705   0.168   4.184 -0.4906 -0.1341  0.9640
  904PF6-    F714728   1.791   0.264   3.893 -0.7692  0.3554  0.0093
  905PF6-    P114729   5.254   5.087   0.478 -0.2518  0.4287  0.0822
  905PF6-    F214730   5.304   4.927   0.478 -0.7879 -0.1249  0.2985
  905PF6-    F314731   5.196   5.235   0.479  0.3031 -0.6034  0.3587
  905PF6-    F414732   5.182   5.055   0.340 -0.5940 -0.3814  0.6546
  905PF6-    F514733   5.320   5.107   0.621  0.2820  0.2776  0.0128
  905PF6-    F614734   5.381   5.138   0.398  0.3554 -0.4386 -0.3848
  905PF6-    F714735   5.117   5.042   0.547  0.0678  0.0134 -0.1804
  906PF6-    P114736   4.680   2.790   3.297 -0.3977  0.2494  0.0121
  906PF6-    F214737   4.814   2.830   3.219  0.1198  0.1087 -0.0919
  906PF6-    F314738   4.546   2.751   3.371 -0.1554 -0.2609  0.3896
  906PF6-    F414739   4.737   2.856   3.434  0.8146  0.5050 -0.3914
  906PF6-    F514740   4.629   2.724   3.160 -0.0148 -0.2475  0.0839
  906PF6-    F614741   4.749   2.646   3.345 -0.0685 -0.4555  0.0891
  906PF6-    F714742   4.615   2.932   3.259 -0.0494 -0.5440 -0.1870
  907PF6-    P114743   3.516   4.271   4.289 -0.0990  0.0625  0.4093
  907PF6-    F214744   3.564   4.404   4.213  0.1323  0.0230 -0.1533
  907PF6-    F314745   3.468   4.142   4.370 -0.2977  0.4886  0.3651
  907PF6-    F414746   3.651   4.194   4.256  0.4466  0.3960 -0.1014
  907PF6-    F514747   3.385   4.352   4.336  0.1821 -0.3869  0.1283
  907PF6-    F614748   3.441   4.222   4.153 -0.0095 -0.2980 -0.8153
  907PF6-    F714749   3.589   4.321   4.422 -0.3950 -0.4959 -0.2345
  908PF6-    P114750   2.165   0.344   5.164  0.0057 -0.3146 -0.0501
  908PF6-    F214751   2.094   0.491   5.163  0.0426 -0.0038 -0.1944
  908PF6-    F314752   2.244   0.206   5.164 -0.6675 -0.1960 -0.6170
  908PF6-    F414753   2.049   0.287   5.260 -0.2690 -0.4617 -0.1079
  908PF6-    F514754   2.281   0.408   5.076 -0.0452 -0.0513  0.2997
  908PF6-    F614755   2.242   0.397   5.295 -0.4663 -0.0093  0.0858
  908PF6-    F714756   2.083   0.301   5.037  0.3114  0.4571  0.3612
  909PF6-    P114757   2.764   0.738   3.701  0.1644 -0.1451 -0.1327
  909PF6-    F214758   2.720   0.642   3.825  0.2095 -0.4096 -0.3766
  909PF6-    F314759   2.805   0.827   3.576 -0.0079 -0.3507 -0.3431
  909PF6-    F414760   2.622   0.814   3.706  0.1138 -0.1740  0.7861
  909PF6-    F514761   2.911   0.672   3.700 -0.1895  0.2058  0.4760
  909PF6-    F614762   2.713   0.632   3.594 -0.0550 -0.1858  0.4677
  909PF6-    F714763   2.828   0.857   3.799 -0.3285 -0.2670  0.2599
  910PF6-    P114764   2.945   3.035   4.200 -0.5038 -0.1224  0.2943
  910PF6-    F214765   2.997   3.191   4.194 -0.2501 -0.5317  0.2578
  910PF6-    F314766   2.899   2.886   4.200 -0.1180  0.2250 -0.4425
  910PF6-    F414767   2.939   3.037   4.359 -0.9020  0.3741 -0.0426
  910PF6-    F514768   2.955   3.025   4.042  0.0502 -0.0126  0.3487
  910PF6-    F614769   3.100   2.988   4.214 -0.2162  0.2534 -0.2066
  910PF6-    F714770   2.788   3.082   4.194 -0.3506  0.4706  0.2729
  911PF6-    P114771   2.786   4.094   4.693 -0.4728  0.2040  0.5068
  911PF6-    F214772   2.721   3.952   4.663 -0.1379 -0.3315 -0.2259
  911PF6-    F314773   2.840   4.240   4.721  0.2730 -0.0864 -0.3378
  911PF6-    F414774   2.670   4.164   4.604 -0.1575 -0.0835 -0.3772
  911PF6-    F514775   2.909   4.032   4.784  0.1018 -0.4063 -0.1816
  911PF6-    F614776   2.880   4.089   4.561 -0.7638 -0.0153 -0.1491
  911PF6-    F714777   2.691   4.107   4.821  0.1471  0.4316 -0.3259
  912PF6-    P114778   2.017   3.462   0.447 -0.1647 -0.2176  0.1380
  912PF6-    F214779   2.102   3.505   0.574  0.2672 -0.3289 -0.0309
  912PF6-    F314780   1.931   3.416   0.319  0.8893  0.1118  0.4007
  912PF6-    F414781   2.050   3.311   0.481  0.1612  0.2004 -0.5502
  912PF6-    F514782   1.987   3.614   0.413 -0.3114  0.0108 -0.0561
  912PF6-    F614783   2.147   3.466   0.354 -0.0123 -0.0740  0.4518
  912PF6-    F714784   1.888   3.457   0.531 -0.1779  0.1979  0.3783
  913PF6-    P114785   3.436   0.978   4.654  0.2797  0.0472 -0.3956
  913PF6-    F214786   3.404   0.818   4.658 -0.2693 -0.2680 -0.4665
  913PF6-    F314787   3.477   1.134   4.648  0.2694  0.0735  0.3443
  913PF6-    F414788   3.581   0.942   4.697 -0.2350 -0.5872  0.3079
  913PF6-    F514789   3.282   1.014   4.603 -0.7078 -0.3164 -0.4208
  913PF6-    F614790   3.389   0.990   4.807 -0.0672  0.4626  0.4298
  913PF6-    F714791   3.482   0.961   4.500 -0.5063 -0.0485  0.3982
  914PF6-    P114792   1.606   4.036   1.997 -0.3031  0.4935  0.0405
  914PF6-    F214793   1.566   4.073   1.850 -0.0248  0.0473  0.0896
  914PF6-    F314794   1.646   3.996   2.146  0.4884  0.3012  0.0686
  914PF6-    F414795   1.578   3.884   1.951 -0.3818  0.3864 -0.4774
  914PF6-    F514796   1.620   4.190   2.027 -0.1095 -0.4030 -0.1612
  914PF6-    F614797   1.454   4.048   2.031 -0.3573  0.2279 -0.1190
  914PF6-    F714798   1.762   4.018   1.958  0.0293  0.1461  0.1074
  915PF6-    P114799   1.085   0.015   5.481  0.0601 -0.3317  0.0726
  915PF6-    F214800   1.232  -0.055   5.504  0.1302 -0.1351 -0.0111
  915PF6-    F314801   0.941   0.081   5.452  0.2798 -0.6515 -0.1952
  915PF6-    F414802   1.076   0.067   5.633  0.4932 -0.3886  0.1095
  915PF6-    F514803   1.087  -0.049   5.336 -0.2858 -0.1578  0.4220
  915PF6-    F614804   1.012  -0.125   5.525  0.5477  0.0756  0.1291
  915PF6-    F714805   1.156   0.152   5.432 -0.4141  0.4943  0.5102
  916PF6-    P114806   3.145   2.729   0.836 -0.0161  0.2895  0.3257
  916PF6-    F214807   3.265   2.782   0.747 -0.2840  0.4485 -0.0548
  916PF6-    F314808   3.027   2.675   0.927 -0.4535 -0.0324 -0.0528
  916PF6-    F414809   3.055   2.710   0.702 -0.0042  0.0754 -0.0602
  916PF6-    F514810   3.232   2.758   0.965  0.1826 -0.1676  0.5884
  916PF6-    F614811   3.086   2.874   0.851 -0.1768  0.5453 -0.5356
  916PF6-    F714812   3.210   2.581   0.821  0.0108  0.1997 -0.4775
  917PF6-    P114813   3.273   5.384   0.019 -0.0486  0.3404 -0.1088
  917PF6-    F214814   3.353   5.394  -0.118  0.0949  0.2461 -0.3326
  917PF6-    F314815   3.195   5.373   0.158 -0.2608  0.8029  0.0018
  917PF6-    F414816   3.346   5.248   0.052  0.2725  0.1668  0.5756
  917PF6-    F514817   3.192   5.523  -0.012  0.4250 -0.0450  0.1642
  917PF6-    F614818   3.164   5.292  -0.054  0.2355 -0.3204  0.5474
  917PF6-    F714819   3.395   5.458   0.091 -0.0229 -0.1296  0.3709
  918PF6-    P114820   3.783   4.441   5.243 -0.0514  0.2070  0.1411
  918PF6-    F214821   3.880   4.487   5.127 -0.1124 -0.3730  0.6018
  918PF6-    F314822   3.687   4.402   5.364 -0.0537  0.3502  0.2858
  918PF6-    F414823   3.658   4.452   5.150  0.2080 -0.2726  0.7467
  918PF6-    F514824   3.909   4.432   5.336  0.4652 -0.3364  0.2324
  918PF6-    F614825   3.764   4.596   5.284  0.7164 -0.1038 -0.0836
  918PF6-    F714826   3.794   4.286   5.205  0.0076 -0.0599  0.1902
  919PF6-    P114827   0.335   1.524   3.715 -0.6460 -0.0057  0.1083
  919PF6-    F214828   0.357   1.572   3.566  0.5032 -0.1576 -0.2403
  919PF6-    F314829   0.310   1.478   3.865 -0.1360 -0.3923  0.3705
  919PF6-    F414830   0.321   1.682   3.759  0.6756 -0.0640 -0.0658
  919PF6-    F514831   0.348   1.369   3.675  0.0024 -0.7439  0.1234
  919PF6-    F614832   0.496   1.539   3.739  0.6039  0.5250 -0.2782
  919PF6-    F714833   0.179   1.509   3.691  0.1348  0.4281  0.1603
  920PF6-    P114834   3.377   3.581   2.884  0.1617  0.2127 -0.4335
  920PF6-    F214835   3.502   3.479   2.883 -0.0642  0.0546  0.1487
  920PF6-    F314836   3.260   3.690   2.888  0.5087  0.9531  0.2439
  920PF6-    F414837   3.349   3.547   3.044  0.3614 -0.2619  0.5143
  920PF6-    F514838   3.397   3.612   2.727  0.4619  0.0809  0.2831
  920PF6-    F614839   3.268   3.462   2.847  0.2847 -0.2626  0.0368
  920PF6-    F714840   3.479   3.698   2.927 -0.4247  0.3901  0.0367
  921PF6-    P114841   2.573   4.488   3.459  0.0537  0.1134 -0.2744
  921PF6-    F214842   2.681   4.550   3.356  0.6153  0.4372  0.1521
  921PF6-    F314843   2.461   4.421   3.553  0.0000  0.0437  0.0423
  921PF6-    F414844   2.688   4.397   3.527 -0.0945 -0.3136  0.0661
  921PF6-    F514845   2.454   4.569   3.397  1.0129  0.3265  0.1681
  921PF6-    F614846   2.549   4.374   3.349  0.2215  0.1912 -0.1744
  921PF6-    F714847   2.598   4.608   3.565  0.3385 -0.9136  0.6958
  922PF6-    P114848   5.065   2.381   2.094  0.1643  0.0761 -0.1475
  922PF6-    F214849   5.022   2.537   2.122  0.1363  0.2899 -0.1637
  922PF6-    F314850   5.105   2.235   2.068 -0.1725  0.4792  0.4581
  922PF6-    F414851   5.157   2.420   1.965 -0.3300 -0.3732 -0.7120
  922PF6-    F514852   4.968   2.342   2.220 -0.2653 -0.0308  0.4792
  922PF6-    F614853   4.938   2.370   1.997 -0.5138  0.0127 -0.3045
  922PF6-    F714854   5.197   2.397   2.190  0.2103 -0.2145  0.2053
  923PF6-    P114855   2.966   1.784   4.230  0.2698  0.0094  0.2073
  923PF6-    F214856   2.917   1.650   4.300  0.4529 -0.6360  0.0302
  923PF6-    F314857   3.012   1.915   4.155 -0.2402  0.1488  0.1459
  923PF6-    F414858   2.955   1.704   4.088 -0.6861  0.3562 -0.0733
  923PF6-    F514859   2.968   1.862   4.365 -0.1930 -0.5153 -0.2883
  923PF6-    F614860   3.119   1.738   4.249 -0.3865 -0.1837  0.3117
  923PF6-    F714861   2.812   1.830   4.208  0.0884  0.2826  0.3105
  924PF6-    P114862   1.194   0.815   4.602  0.1825  0.0919  0.2550
  924PF6-    F214863   1.210   0.968   4.554  0.1986 -0.4135  0.1473
  924PF6-    F314864   1.177   0.662   4.655 -0.3054 -0.7750 -0.5220
  924PF6-    F414865   1.211   0.861   4.752 -0.0624  0.2705  0.1335
  924PF6-    F514866   1.179   0.756   4.447 -0.4880 -0.0875 -0.4186
  924PF6-    F614867   1.354   0.795   4.588  0.3538 -0.5730  0.4488
  924PF6-    F714868   1.035   0.838   4.611  0.2616 -0.4569  0.0693
  925PF6-    P114869   4.173   0.051   0.470  0.0524  0.0357 -0.4141
  925PF6-    F214870   4.074   0.110   0.577 -0.6207  0.7403  0.6230
  925PF6-    F314871   4.275  -0.013   0.364  0.0551 -0.1278  0.6550
  925PF6-    F414872   4.077  -0.073   0.448 -0.1056  0.1281 -0.0472
  925PF6-    F514873   4.267   0.183   0.485 -0.2019  0.5933  0.3721
  925PF6-    F614874   4.257  -0.021   0.592  0.4263  0.2193  0.2746
  925PF6-    F714875   4.089   0.129   0.355 -0.2470  0.3850 -0.0127
  926PF6-    P114876   4.474   2.900   0.100 -0.4925 -0.4576 -0.2279
  926PF6-    F214877   4.569   3.004   0.020 -0.6140  0.0762 -0.3208
  926PF6-    F314878   4.392   2.788   0.177  0.5240  0.6340  0.3634
  926PF6-    F414879   4.510   2.786  -0.012  0.0504 -0.2477  0.1499
  926PF6-    F514880   4.440   3.010   0.216  0.2017 -0.0344 -0.3705
  926PF6-    F614881   4.347   2.952   0.014  0.1667  0.6008  0.1723
  926PF6-    F714882   4.603   2.850   0.186 -0.3518 -0.4946  0.0473
  927PF6-    P114883   0.778   3.666   3.389  0.0543  0.5209  0.2080
  927PF6-    F214884   0.764   3.700   3.543  0.3432 -0.1405  0.3840
  927PF6-    F314885   0.797   3.626   3.235  0.2078 -0.6375 -0.1301
  927PF6-    F414886   0.707   3.525   3.412  0.5603  0.1089  0.5232
  927PF6-    F514887   0.844   3.812   3.368 -0.1739  0.0863  0.1172
  927PF6-    F614888   0.919   3.597   3.424  0.1424 -0.4113 -0.2878
  927PF6-    F714889   0.635   3.731   3.358  0.0987 -0.2811  0.4923
  928PF6-    P114890   4.941   3.829   2.375 -0.2400 -0.0022  0.3013
  928PF6-    F214891   4.929   3.913   2.242  0.7817  0.3111  0.8652
  928PF6-    F314892   4.955   3.746   2.514  0.3584 -0.0415 -0.2390
  928PF6-    F414893   5.061   3.752   2.306 -0.6219 -0.4833  0.3935
  928PF6-    F514894   4.825   3.919   2.444 -0.3869  0.0268  0.0730
  928PF6-    F614895   4.836   3.724   2.313 -0.3027  0.3730 -0.0292
  928PF6-    F714896   5.050   3.934   2.427 -0.1858 -0.2355 -0.1266
  929PF6-    P114897   0.836   1.306   2.755  0.2925 -0.3389  0.1716
  929PF6-    F214898   0.863   1.267   2.600 -0.1578  0.3302  0.0797
  929PF6-    F314899   0.798   1.344   2.911 -0.1013  0.0861 -0.3818
  929PF6-    F414900   0.882   1.454   2.730 -0.0245 -0.1055  0.2232
  929PF6-    F514901   0.800   1.153   2.789  0.4231 -0.0783 -0.5075
  929PF6-    F614902   0.983   1.267   2.802  0.0728  0.2150  0.0029
  929PF6-    F714903   0.682   1.342   2.718 -0.1071  0.0680  0.4529
  930PF6-    P114904   3.489   0.838   0.835 -0.2549  0.3476  0.2101
  930PF6-    F214905   3.597   0.729   0.812  0.2266  0.2315  0.0080
  930PF6-    F314906   3.376   0.954   0.860 -0.3513 -0.1956  0.1642
  930PF6-    F414907   3.392   0.767   0.734 -0.2999  0.3782  0.0891
  930PF6-    F514908   3.581   0.908   0.936 -0.3162  0.2264 -0.3427
  930PF6-    F614909   3.562   0.917   0.713 -0.2112  0.4209 -0.2894
  930PF6-    F714910   3.423   0.752   0.952  0.4355  0.8683  0.0661
  931PF6-    P114911   3.442   3.794   0.980  0.0873  0.0180  0.3078
  931PF6-    F214912   3.523   3.912   1.059  0.1610  0.0836 -0.1078
  931PF6-    F314913   3.368   3.680   0.893  0.0035  0.2261  0.2665
  931PF6-    F414914   3.499   3.861   0.847 -0.2557 -0.0433 -0.1851
  931PF6-    F514915   3.394   3.731   1.123  0.1403  0.1245  0.1254
  931PF6-    F614916   3.307   3.879   0.979  0.0664  0.2690  0.1733
  931PF6-    F714917   3.566   3.704   0.984  0.0445  0.3351  0.9116
  932PF6-    P114918   2.621   5.281   4.049 -0.1804 -0.1623  0.0804
  932PF6-    F214919   2.762   5.228   3.996  0.1921 -0.5705 -0.1585
  932PF6-    F314920   2.480   5.333   4.099 -0.2385 -0.3282 -0.1383
  932PF6-    F414921   2.691   5.334   4.184  0.0812  0.3186 -0.2144
  932PF6-    F514922   2.561   5.228   3.912  0.5546 -0.1631  0.0696
  932PF6-    F614923   2.589   5.134   4.106 -0.2360  0.0364  0.1862
  932PF6-    F714924   2.647   5.423   3.977 -0.7731  0.4926 -0.4220
  933PF6-    P114925   5.324   1.287   3.101 -0.0802  0.4728 -0.0718
  933PF6-    F214926   5.438   1.401   3.120 -0.0370  0.4180  0.1477
  933PF6-    F314927   5.215   1.171   3.076 -0.0263 -0.2539 -0.7060
  933PF6-    F414928   5.356   1.286   2.942  0.9019 -0.2558  0.2057
  933PF6-    F514929   5.296   1.282   3.253  0.2317 -0.1469 -0.3309
  933PF6-    F614930   5.212   1.399   3.072 -0.6304  0.0039 -0.4420
  933PF6-    F714931   5.438   1.173   3.117  0.6567  0.5734  0.0247
  934PF6-    P114932   3.644   1.355   3.382 -0.2080  0.0137  0.3913
  934PF6-    F214933   3.711   1.466   3.286 -0.3688 -0.0943 -0.2482
  934PF6-    F314934   3.573   1.239   3.472 -0.5780 -0.7118  0.0860
  934PF6-    F414935   3.498   1.410   3.340 -0.0233  0.3158  0.1066
  934PF6-    F514936   3.783   1.296   3.412 -0.3831 -0.5297 -0.0398
  934PF6-    F614937   3.648   1.452   3.515 -0.0840  0.0265 -0.0301
  934PF6-    F714938   3.641   1.262   3.259  0.0288  0.3226 -0.0483
  935PF6-    P114939   3.205   3.488   5.351  0.1747 -0.1018 -0.1568
  935PF6-    F214940   3.212   3.356   5.444 -0.7832 -0.1759  0.2450
  935PF6-    F314941   3.197   3.617   5.262 -0.7450 -0.1605  0.4505
  935PF6-    F414942   3.368   3.491   5.341  0.1319 -0.1834  0.0625
  935PF6-    F514943   3.042   3.494   5.355 -0.0501 -0.2445 -0.1137
  935PF6-    F614944   3.210   3.578   5.476 -0.4858  0.0659 -0.1072
  935PF6-    F714945   3.191   3.402   5.220 -0.1272  0.2526  0.2456
  936PF6-    P114946   3.835   5.275   2.415  0.2579  0.5225 -0.0489
  936PF6-    F214947   3.873   5.134   2.342  0.0065  0.0069  0.0324
  936PF6-    F314948   3.814   5.419   2.483  0.5604 -0.0915  0.0126
  936PF6-    F414949   3.920   5.228   2.548 -0.1337  0.1804 -0.0087
  936PF6-    F514950   3.757   5.314   2.279  0.2081  0.2785 -0.3950
  936PF6-    F614951   3.701   5.219   2.484 -0.2364 -0.2253 -0.4565
  936PF6-    F714952   3.974   5.323   2.354  0.3419  0.1666 -0.4524
  937PF6-    P114953   4.690   0.003   3.681  0.2560 -0.2118 -0.0632
  937PF6-    F214954   4.580  -0.097   3.623  0.2121  0.4523  0.1596
  937PF6-    F314955   4.793   0.114   3.735  0.6104 -0.3421 -0.5243
  937PF6-    F414956   4.776  -0.019   3.546 -0.3978 -0.1721 -0.0641
  937PF6-    F514957   4.599   0.023   3.816  0.0366 -0.2996  0.1027
  937PF6-    F614958   4.771  -0.114   3.760  0.0676 -0.4205 -0.3501
  937PF6-    F714959   4.608   0.117   3.604  0.4029 -0.3616  0.1567
  938PF6-    P114960   2.057   2.736   1.036  0.3415 -0.1092  0.1570
  938PF6-    F214961   2.095   2.579   1.034  0.2372  0.3533  0.0651
  938PF6-    F314962   2.025   2.892   1.045  0.3851  0.1650  0.8999
  938PF6-    F414963   2.002   2.719   1.186 -0.0679 -0.0192 -0.5149
  938PF6-    F514964   2.109   2.751   0.889  0.4483 -0.2144 -0.3255
  938PF6-    F614965   1.906   2.710   0.992  0.2059  0.3196  0.0592
  938PF6-    F714966   2.208   2.768   1.082  0.4229  0.0237  0.1749
  939PF6-    P114967   2.499   4.351   2.037  0.2926 -0.1518 -0.2976
  939PF6-    F214968   2.460   4.253   1.913 -0.6049 -0.0328 -0.5447
  939PF6-    F314969   2.531   4.455   2.150  0.2706  0.1101  0.0781
  939PF6-    F414970   2.388   4.282   2.121  0.1594  0.4177 -0.9069
  939PF6-    F514971   2.618   4.422   1.949  0.2332 -0.0425  0.4508
  939PF6-    F614972   2.381   4.447   1.979  0.3888 -0.7009 -0.0373
  939PF6-    F714973   2.602   4.244   2.094  0.1566 -0.0437 -0.7139
  940PF6-    P114974   1.510   4.706   4.945  0.1033  0.1192  0.2951
  940PF6-    F214975   1.430   4.771   5.066 -0.1820 -0.2320 -0.4010
  940PF6-    F314976   1.586   4.648   4.816  0.4618  0.2727 -0.4166
  940PF6-    F414977   1.641   4.698   5.027 -0.1364  0.5051  0.1854
  940PF6-    F514978   1.378   4.712   4.852  0.2790 -0.5400 -0.3177
  940PF6-    F614979   1.548   4.850   4.895 -0.0810 -0.0717  0.1223
  940PF6-    F714980   1.480   4.553   4.993  0.6417  0.0047 -0.1943
  941PF6-    P114981   3.428   5.133   3.762 -0.1568  0.1694 -0.1149
  941PF6-    F214982   3.578   5.196   3.790 -0.3378  0.3519  0.4014
  941PF6-    F314983   3.282   5.079   3.735 -0.1484  0.3145  0.3410
  941PF6-    F414984   3.461   5.004   3.857 -0.6118 -0.4697 -0.0872
  941PF6-    F514985   3.400   5.257   3.673 -0.2754  0.1324  0.2658
  941PF6-    F614986   3.482   5.052   3.628  0.5819  0.2346 -0.2623
  941PF6-    F714987   3.373   5.212   3.889 -0.2090  0.4037 -0.4771
  942PF6-    P114988   1.039   3.281   0.051  0.3521 -0.7266  0.0170
  942PF6-    F214989   1.017   3.196  -0.080 -0.2242  0.0539 -0.3553
  942PF6-    F314990   1.070   3.368   0.180 -0.4797  0.1531  0.5784
  942PF6-    F414991   1.002   3.420  -0.024  0.0753  0.5089 -0.3642
  942PF6-    F514992   1.084   3.147   0.129  0.4655 -0.7075  0.0284
  942PF6-    F614993   1.194   3.300   0.014  0.5182 -0.8587  0.4302
  942PF6-    F714994   0.885   3.258   0.097 -0.1018  0.1609  0.2503
  943PF6-    P114995   3.370   0.579   3.088 -0.2084  0.0222 -0.3809
  943PF6-    F214996   3.448   0.482   3.194 -0.3333 -0.1902  0.3229
  943PF6-    F314997   3.293   0.665   2.983  0.3614  0.1048  0.0229
  943PF6-    F414998   3.452   0.706   3.145 -0.3500 -0.0080  0.3691
  943PF6-    F514999   3.291   0.450   3.034 -0.1783  0.0380  0.2589
  943PF6-    F615000   3.254   0.606   3.198  0.1462  0.0563  0.7912
  943PF6-    F715001   3.475   0.546   2.971  0.2782  0.1720 -0.4758
  944PF6-    P115002   3.320   1.588   0.202 -0.3887  0.5057 -0.2477
  944PF6-    F215003   3.265   1.475   0.108 -0.5348  0.3324 -0.4513
  944PF6-    F315004   3.379   1.697   0.296  0.3051 -0.5788  0.4820
  944PF6-    F415005   3.373   1.675   0.080  0.4535 -0.0702  0.0013
  944PF6-    F515006   3.267   1.500   0.324  0.2278 -0.1326 -0.1894
  944PF6-    F615007   3.466   1.512   0.211  0.7383 -0.5134  0.4392
  944PF6-    F715008   3.177   1.661   0.199  0.4906 -0.0129  0.0917
  945PF6-    P115009   0.211   3.088   1.422 -0.3040  0.3595  0.4011
  945PF6-    F215010   0.105   2.962   1.448 -0.2111 -0.2127  0.3232
  945PF6-    F315011   0.305   3.209   1.389  0.8038 -0.7249 -0.0006
  945PF6-    F415012   0.120   3.132   1.300 -0.0142 -0.3435  0.0481
  945PF6-    F515013   0.298   3.046   1.553  0.4757 -0.0209  0.2768
  945PF6-    F615014   0.297   2.990   1.331  0.2939 -0.0874 -0.2731
  945PF6-    F715015   0.119   3.181   1.515 -0.5862  0.0587 -0.4986
  946PF6-    P115016   2.690   5.005   3.100  0.1658  0.0478 -0.3865
  946PF6-    F215017   2.695   5.069   3.247 -0.6281 -0.4505  0.2775
  946PF6-    F315018   2.675   4.938   2.956  0.1931  0.0359  0.4025
  946PF6-    F415019   2.656   5.152   3.039  0.4950 -0.5056 -0.1019
  946PF6-    F515020   2.729   4.862   3.170 -0.4685  0.0805 -0.2291
  946PF6-    F615021   2.533   4.977   3.125 -0.0189 -0.1737 -0.1623
  946PF6-    F715022   2.847   5.032   3.081  0.1137  0.7266  0.1449
  947PF6-    P115023   5.379   2.161   0.393  0.0227  0.1640 -0.0814
  947PF6-    F215024   5.415   2.187   0.237 -0.0480  0.7416 -0.2918
  947PF6-    F315025   5.342   2.139   0.550  0.3095  0.4053 -0.2975
  947PF6-    F415026   5.235   2.095   0.351  0.6315 -0.3365  0.3396
  947PF6-    F515027   5.513   2.238   0.434  0.7137  0.7681 -0.0464
  947PF6-    F615028   5.310   2.306   0.398 -0.1532 -0.0918 -0.2819
  947PF6-    F715029   5.457   2.013   0.390  0.2089 -0.4266  0.2720
  948PF6-    P115030   2.527   0.243   1.567  0.4402 -0.1648 -0.1483
  948PF6-    F215031   2.509   0.378   1.653  0.2734  0.2775  0.6575
  948PF6-    F315032   2.548   0.115   1.468 -0.1681 -0.3952 -0.2319
  948PF6-    F415033   2.411   0.288   1.466 -0.7508  0.4402 -0.4662
  948PF6-    F515034   2.640   0.183   1.667 -0.0243  0.3048  0.5152
  948PF6-    F615035   2.421   0.161   1.657 -0.5443  0.2339 -0.1914
  948PF6-    F715036   2.634   0.325   1.479  0.6820  0.0230  0.3727
  949PF6-    P115037   3.733   2.530   2.407  0.1918  0.5182  0.0393
  949PF6-    F215038   3.806   2.670   2.450 -0.0527 -0.2887  0.2512
  949PF6-    F315039   3.667   2.391   2.368 -0.3093  0.5606 -0.0872
  949PF6-    F415040   3.610   2.612   2.350 -0.3183  0.0973  0.5049
  949PF6-    F515041   3.851   2.439   2.465 -0.3096 -0.3988  0.1878
  949PF6-    F615042   3.657   2.525   2.549 -0.4134  0.1527 -0.0825
  949PF6-    F715043   3.802   2.533   2.264 -0.2144  0.4699  0.1527
  950PF6-    P115044   1.605   4.578   0.326  0.1356  0.3199  0.2789
  950PF6-    F215045   1.528   4.692   0.242  0.0401  0.0480  0.4219
  950PF6-    F315046   1.674   4.457   0.400 -0.1604  0.3371 -0.5711
  950PF6-    F415047   1.749   4.640   0.294  0.0211 -0.8255 -0.3172
  950PF6-    F515048   1.466   4.501   0.339 -0.4398  0.1910 -1.0272
  950PF6-    F615049   1.621   4.486   0.194 -0.2682 -0.3448  0.2933
  950PF6-    F715050   1.595   4.653   0.464  0.0662 -0.0087  0.3478
  951PF6-    P115051   4.681   1.789   2.043 -0.0341 -0.2585  0.0533
  951PF6-    F215052   4.642   1.932   1.987 -0.3289 -0.1189  0.0285
  951PF6-    F315053   4.708   1.639   2.096  0.0061  0.0395 -0.0002
  951PF6-    F415054   4.568   1.811   2.160  0.0913 -0.3244  0.2685
  951PF6-    F515055   4.787   1.763   1.930  0.0839 -0.0481 -0.4278
  951PF6-    F615056   4.799   1.855   2.137 -0.1603 -0.3663 -0.7186
  951PF6-    F715057   4.565   1.738   1.949 -0.0727  0.7011  0.2161
  952PF6-    P115058   3.987   0.792   1.947 -0.3932  0.2683 -0.2269
  952PF6-    F215059   3.974   0.949   1.919 -0.5802  0.4425  0.1068
  952PF6-    F315060   4.002   0.633   1.982 -0.2438 -0.1939 -0.1667
  952PF6-    F415061   4.142   0.797   1.925 -0.1172  0.9006 -0.1901
  952PF6-    F515062   3.830   0.783   1.974 -1.0325 -0.0356 -0.1318
  952PF6-    F615063   3.957   0.757   1.795  0.2385 -0.5609 -0.0634
  952PF6-    F715064   4.012   0.825   2.099 -0.2974 -0.3541 -0.0350
  953PF6-    P115065   5.220   1.439   4.467  0.0484  0.0745 -0.1059
  953PF6-    F215066   5.109   1.332   4.507  0.0876  0.3378  0.5064
  953PF6-    F315067   5.330   1.546   4.430 -0.5699  0.3776 -0.3532
  953PF6-    F415068   5.320   1.367   4.560 -0.3055  0.2071 -0.2704
  953PF6-    F515069   5.118   1.512   4.368  0.1427 -0.1399 -0.0674
  953PF6-    F615070   5.170   1.529   4.591 -0.0756  0.2964 -0.6780
  953PF6-    F715071   5.267   1.359   4.335 -0.0391 -0.0162 -0.1066
  954PF6-    P115072   5.459   1.180   0.697 -0.1935 -0.1079  0.2521
  954PF6-    F215073   5.367   1.228   0.576  0.1761  0.3785 -0.2214
  954PF6-    F315074   5.553   1.140   0.825  0.1914 -0.4563  0.6504
  954PF6-    F415075   5.396   1.296   0.782  0.4939 -0.5961  0.3070
  954PF6-    F515076   5.525   1.057   0.610 -0.4267 -0.0924  0.2956
  954PF6-    F615077   5.580   1.271   0.656 -0.2089  0.1316  0.2540
  954PF6-    F715078   5.339   1.083   0.740 -0.1065  0.2005  0.8060
  955PF6-    P115079   1.324   0.396   1.309  0.2861 -0.0625 -0.0946
  955PF6-    F215080   1.305   0.240   1.350  0.2883 -0.0062  0.1075
  955PF6-    F315081   1.340   0.550   1.267 -0.0800 -0.1208 -0.1441
  955PF6-    F415082   1.175   0.393   1.245 -0.6734  0.0819  0.2817
  955PF6-    F515083   1.471   0.398   1.372  0.1500  0.0705 -0.4306
  955PF6-    F615084   1.380   0.354   1.169 -0.2315  0.2649 -0.4040
  955PF6-    F715085   1.266   0.440   1.446 -0.0708 -0.0010 -0.1187
  956PF6-    P115086   4.265   4.329   1.742  0.2160  0.0631  0.1879
  956PF6-    F215087   4.362   4.403   1.860  0.4770 -0.1908 -0.2322
  956PF6-    F315088   4.169   4.266   1.626  0.3120  0.0571 -0.4320
  956PF6-    F415089   4.272   4.460   1.654  0.1824  0.1900 -0.6371
  956PF6-    F515090   4.254   4.192   1.835  0.3613 -0.1736  0.5704
  956PF6-    F615091   4.136   4.389   1.818 -0.3608 -0.1747 -0.0981
  956PF6-    F715092   4.402   4.269   1.674 -0.0247 -0.2876 -0.3222
  957PF6-    P115093   0.382   1.355   2.117  0.3893 -0.0022 -0.2762
  957PF6-    F215094   0.305   1.214   2.121 -0.3956  0.1687 -0.2882
  957PF6-    F315095   0.461   1.491   2.116 -0.0018 -0.4428 -0.0615
  957PF6-    F415096   0.256   1.422   2.195  0.2262 -0.7685  0.3704
  957PF6-    F515097   0.503   1.279   2.052  0.1234  0.1085 -0.3039
  957PF6-    F615098   0.310   1.387   1.978  0.0025 -0.1693  0.1151
  957PF6-    F715099   0.448   1.332   2.262  0.0613  0.0338  0.0396
  958PF6-    P115100   1.609   3.762   2.707  0.3997  0.2522  0.0613
  958PF6-    F215101   1.748   3.820   2.746 -0.1773 -0.3339 -0.4462
  958PF6-    F315102   1.462   3.704   2.668 -0.0784 -0.0281  0.4915
  958PF6-    F415103   1.548   3.908   2.718 -0.2631  0.4521  0.4276
  958PF6-    F515104   1.674   3.618   2.710  0.2507 -0.1613  0.0278
  958PF6-    F615105   1.573   3.748   2.863 -0.4685  0.5826  0.3199
  958PF6-    F715106   1.641   3.774   2.551 -0.3212  0.4254 -0.0754
  959PF6-    P115107   3.439   1.249   2.467  0.1271  0.2964  0.2839
  959PF6-    F215108   3.338   1.130   2.485 -0.0771 -0.0098 -0.4687
  959PF6-    F315109   3.553   1.363   2.442 -0.0743  0.3555  0.1447
  959PF6-    F415110   3.560   1.149   2.509  0.6108  0.6770  0.3630
  959PF6-    F515111   3.317   1.346   2.434 -0.4518  0.0459  0.1536
  959PF6-    F615112   3.430   1.287   2.624 -0.3762  0.0142  0.2512
  959PF6-    F715113   3.452   1.207   2.310  0.2500 -0.3052 -0.5611
  960PF6-    P115114   4.931   4.293   4.219  0.1263 -0.4296  0.5867
  960PF6-    F215115   5.072   4.222   4.176 -0.0071 -0.2207 -0.3352
  960PF6-    F315116   4.801   4.378   4.263  0.0957  0.2596 -0.4702
  960PF6-    F415117   5.016   4.428   4.239 -0.6736  0.1845 -0.2450
  960PF6-    F515118   4.835   4.162   4.196  0.0121 -0.0218 -0.0545
  960PF6-    F615119   4.948   4.261   4.377 -0.5127 -0.3187  0.4780
  960PF6-    F715120   4.909   4.326   4.062  0.3145 -0.1182  0.1167
  961PF6-    P115121   4.355   2.026   5.415  0.6817 -0.4140 -0.4582
  961PF6-    F215122   4.236   1.976   5.505  0.0247  0.0437 -0.4517
  961PF6-    F315123   4.481   2.088   5.332  0.2491  0.1979  0.5122
  961PF6-    F415124   4.417   2.087   5.544 -0.0844 -0.5492  0.0978
  961PF6-    F515125   4.287   1.973   5.285 -0.0789 -0.0978  0.2644
  961PF6-    F615126   4.279   2.165   5.390  0.2474  0.2018  0.0926
  961PF6-    F715127   4.432   1.886   5.436  0.3156  0.3821 -0.2275
  962PF6-    P115128   2.419   1.635   4.871 -0.3647 -0.3359 -0.1584
  962PF6-    F215129   2.459   1.496   4.946 -0.0720  0.1512  0.3426
  962PF6-    F315130   2.379   1.774   4.797  0.0136 -0.2110 -1.0726
  962PF6-    F415131   2.270   1.611   4.919  0.8748 -0.0560 -0.0150
  962PF6-    F515132   2.573   1.666   4.824  0.3851 -0.0971  0.0026
  962PF6-    F615133   2.387   1.564   4.735  0.2065 -0.6426  0.1943
  962PF6-    F715134   2.450   1.720   5.010  0.1157  0.2932 -0.3049
  963PF6-    P115135   4.974   4.808   3.331 -0.0756 -0.5181 -0.0905
  963PF6-    F215136   4.897   4.900   3.437 -0.5326  0.4578 -0.4870
  963PF6-    F315137   5.053   4.725   3.226 -0.4583  0.1633  0.1254
  963PF6-    F415138   4.847   4.805   3.223 -0.1496 -0.1098 -0.2118
  963PF6-    F515139   5.099   4.798   3.432 -0.0664  0.1515  0.2163
  963PF6-    F615140   4.908   4.684   3.401  0.0719  0.0088  0.1126
  963PF6-    F715141   5.042   4.942   3.270 -0.1548 -0.1115  0.6764
  964PF6-    P115142   2.145   0.314   2.355 -0.2085  0.2836 -0.1615
  964PF6-    F215143   2.157   0.204   2.472  0.0071  0.9304 -0.3081
  964PF6-    F315144   2.139   0.429   2.241  0.3526  0.0309 -0.0825
  964PF6-    F415145   2.129   0.415   2.473 -0.3770  0.1773 -0.6508
  964PF6-    F515146   2.165   0.204   2.237  0.0064 -0.5584 -0.7530
  964PF6-    F615147   1.982   0.297   2.348 -0.4680 -0.1547  0.1832
  964PF6-    F715148   2.301   0.339   2.362  0.1615 -0.3212 -0.0017
  965PF6-    P115149   0.665   5.002   2.043 -0.1126  0.4050  0.0016
  965PF6-    F215150   0.589   5.087   1.938 -0.0825 -0.1760  0.3774
  965PF6-    F315151   0.754   4.918   2.145  0.1167 -0.1847  0.9152
  965PF6-    F415152   0.583   4.869   2.003 -0.4873 -0.0898  0.2940
  965PF6-    F515153   0.743   5.135   2.084  0.4938 -0.5022 -0.8408
  965PF6-    F615154   0.556   5.031   2.160 -0.2477 -0.2912 -0.4107
  965PF6-    F715155   0.771   4.961   1.927 -0.7615 -0.7320 -0.4293
  966PF6-    P115156   3.348   2.489   5.448 -0.5989  0.0180  0.2716
  966PF6-    F215157   3.237   2.413   5.536 -0.9615 -0.0426 -0.3602
  966PF6-    F315158   3.466   2.555   5.361  0.5258  0.3897  0.0691
  966PF6-    F415159   3.260   2.631   5.433 -0.1794 -0.0270  0.1055
  966PF6-    F515160   3.435   2.355   5.455 -0.6033 -0.2752 -0.3701
  966PF6-    F615161   3.288   2.434   5.313  0.5995  0.1434 -0.4177
  966PF6-    F715162   3.413   2.551   5.585  0.1908  0.4489  0.1397
  967PF6-    P115163   0.329   1.382   5.358 -0.1315 -0.4322 -0.1734
  967PF6-    F215164   0.396   1.512   5.297 -0.1116 -0.1057  0.2791
  967PF6-    F315165   0.272   1.244   5.425 -0.3479  0.0489  0.1226
  967PF6-    F415166   0.376   1.432   5.506  0.4925 -0.4222  0.5909
  967PF6-    F515167   0.289   1.338   5.211 -0.0775 -0.0040  0.6762
  967PF6-    F615168   0.467   1.308   5.342  0.2689 -0.7702  0.0632
  967PF6-    F715169   0.184   1.451   5.378 -0.0927  0.5717 -0.5334
  968PF6-    P115170   0.326   0.592   5.015  0.2997 -0.2736 -0.1701
  968PF6-    F215171   0.291   0.594   4.860 -0.0571 -0.0754  0.1530
  968PF6-    F315172   0.345   0.584   5.175 -0.5184  0.0965  0.0267
  968PF6-    F415173   0.294   0.434   5.018  0.4892 -0.0035 -0.0037
  968PF6-    F515174   0.354   0.747   5.008  0.1397 -0.6431 -0.5373
  968PF6-    F615175   0.176   0.620   5.045 -0.4668  0.2264 -0.0021
  968PF6-    F715176   0.480   0.562   4.987  0.2577  0.1049  0.8355
  969PF6-    P115177   1.999   5.132   1.233  0.0218  0.1610 -0.1039
  969PF6-    F215178   2.075   5.155   1.373  0.8631  0.1961 -0.2949
  969PF6-    F315179   1.917   5.120   1.096 -0.4347 -0.0231 -0.3703
  969PF6-    F415180   1.852   5.166   1.302 -0.2440 -0.2386 -0.1691
  969PF6-    F515181   2.136   5.088   1.165  0.2284 -0.1195 -0.2415
  969PF6-    F615182   1.973   4.982   1.278  0.2290  0.1951 -0.1639
  969PF6-    F715183   2.026   5.285   1.199 -1.0982  0.1321 -0.8669
  970PF6-    P115184   4.611   4.415   0.188  0.4878  0.3382 -0.0608
  970PF6-    F215185   4.660   4.519   0.072 -0.5826  0.9307 -0.5615
  970PF6-    F315186   4.563   4.308   0.299  0.1658 -0.2700  0.3009
  970PF6-    F415187   4.484   4.370   0.097 -0.0707 -0.2346 -0.2546
  970PF6-    F515188   4.731   4.465   0.280 -0.7945  0.3155 -0.5668
  970PF6-    F615189   4.512   4.523   0.248  0.3594  0.0439 -0.3618
  970PF6-    F715190   4.692   4.296   0.124  0.3041  0.1936 -0.4482
  971PF6-    P115191   3.398   2.718   3.524  0.0090 -0.1086 -0.1349
  971PF6-    F215192   3.305   2.621   3.429  0.0838 -0.0507  0.2450
  971PF6-    F315193   3.489   2.819   3.610 -0.1447  0.5280 -0.1382
  971PF6-    F415194   3.305   2.699   3.658  0.2324 -0.0163  0.4086
  971PF6-    F515195   3.494   2.744   3.407 -0.1587  0.5899  0.1117
  971PF6-    F615196   3.306   2.843   3.479 -0.0900  0.1024  0.3587
  971PF6-    F715197   3.490   2.597   3.566 -0.0914  0.3508  0.1202
  972PF6-    P115198   0.702   2.205   1.602 -0.1295  0.0075 -0.0802
  972PF6-    F215199   0.596   2.232   1.493  0.3484 -0.3862 -0.0875
  972PF6-    F315200   0.821   2.175   1.711 -0.2831  0.2622 -0.2242
  972PF6-    F415201   0.785   2.334   1.556  0.0935 -0.4118 -0.1743
  972PF6-    F515202   0.628   2.075   1.658  0.4095 -0.4299  0.3740
  972PF6-    F615203   0.775   2.108   1.502  0.4581  0.2400  0.0385
  972PF6-    F715204   0.610   2.289   1.704 -0.0740  0.1253  0.4087
  973PF6-    P115205   1.915   1.405   3.030 -0.5287  0.1374 -0.1807
  973PF6-    F215206   1.867   1.256   3.017  0.3675  0.0061 -0.9425
  973PF6-    F315207   1.955   1.557   3.039  0.5564 -0.1926 -0.3472
  973PF6-    F415208   1.782   1.436   3.114  0.4309  0.1405 -0.1905
  973PF6-    F515209   2.049   1.367   2.950 -0.1760  0.5936 -0.3880
  973PF6-    F615210   1.841   1.441   2.897  0.0505 -0.4688  0.1939
  973PF6-    F715211   1.995   1.370   3.166  0.5423 -0.3385  0.0196
  974PF6-    P115212   0.075   0.519   1.661 -0.1294  0.2355 -0.4314
  974PF6-    F215213   0.066   0.547   1.504  0.0284 -0.1294  0.2267
  974PF6-    F315214   0.083   0.485   1.824 -0.2817 -0.2322 -0.1555
  974PF6-    F415215   0.226   0.575   1.660 -0.5939 -0.0040 -0.2888
  974PF6-    F515216  -0.073   0.457   1.662 -0.3331 -0.1363  0.4281
  974PF6-    F615217   0.136   0.377   1.632 -0.2466  0.4774 -0.0653
  974PF6-    F715218   0.010   0.665   1.687 -0.5551  0.2692 -0.1178
  975PF6-    P115219   4.660   5.450   1.708  0.0523 -0.2605 -0.1753
  975PF6-    F215220   4.803   5.404   1.746 -0.0784  0.5232 -0.0990
  975PF6-    F315221   4.520   5.498   1.664  0.0281 -0.1543  0.2128
  975PF6-    F415222   4.635   5.304   1.643  0.5361  0.2632 -0.4296
  975PF6-    F515223   4.683   5.596   1.768 -0.3731  0.6293 -0.5292
  975PF6-    F615224   4.722   5.508   1.568  0.1049  0.1254  0.0510
  975PF6-    F715225   4.605   5.391   1.845 -0.1607 -0.1616 -0.1430
  976PF6-    P115226   2.341   4.576   5.364 -0.4649 -0.1229 -0.0156
  976PF6-    F215227   2.263   4.446   5.411  0.1818  0.6709 -0.4598
  976PF6-    F315228   2.417   4.706   5.311 -0.2781  0.4142  0.5201
  976PF6-    F415229   2.416   4.486   5.253 -0.3073  0.6091  0.5820
  976PF6-    F515230   2.263   4.666   5.473  0.2081  0.3309 -0.1079
  976PF6-    F615231   2.461   4.543   5.467  0.1314  0.3102 -0.0812
  976PF6-    F715232   2.219   4.609   5.258 -0.4966 -0.0939 -0.0964
  977PF6-    P115233   2.603   2.380   2.373  0.2282 -0.2276 -0.4365
  977PF6-    F215234   2.715   2.457   2.460 -0.6371  0.5901  0.1145
  977PF6-    F315235   2.492   2.298   2.284 -0.2277  0.1703 -0.2099
  977PF6-    F415236   2.506   2.503   2.392  0.0606  0.3697  0.1400
  977PF6-    F515237   2.705   2.249   2.356  0.2805  0.2558 -0.2288
  977PF6-    F615238   2.538   2.312   2.507 -0.2170 -0.1301 -0.3314
  977PF6-    F715239   2.661   2.441   2.236 -0.4813 -0.3432 -0.7847
  978PF6-    P115240   2.745   1.952   3.535  0.8659 -0.3702 -0.2678
  978PF6-    F215241   2.669   1.862   3.425  0.3409 -0.1968 -0.0633
  978PF6-    F315242   2.818   2.048   3.644 -0.4192  0.2741 -0.3122
  978PF6-    F415243   2.825   2.028   3.424 -0.2251 -0.3303  0.5457
  978PF6-    F515244   2.669   1.877   3.652  0.1627 -0.2252  0.0117
  978PF6-    F615245   2.866   1.853   3.537 -0.2730 -0.1316  0.2690
  978PF6-    F715246   2.623   2.059   3.526  0.3265 -0.2687  0.1747
  979PF6-    P115247   1.434   3.150   3.284 -0.2546 -0.0146  0.4423
  979PF6-    F215248   1.576   3.213   3.328  0.4724  0.3248  0.1586
  979PF6-    F315249   1.293   3.089   3.235 -0.0549 -0.0925  0.3892
  979PF6-    F415250   1.473   3.162   3.128 -0.0013  0.4751  0.0085
  979PF6-    F515251   1.393   3.136   3.436 -0.1107 -0.0129 -0.2638
  979PF6-    F615252   1.371   3.299   3.287 -0.2496 -0.1640  0.1589
  979PF6-    F715253   1.498   3.004   3.279  0.2040 -0.7295 -0.2744
  980PF6-    P115254   0.375   0.448   2.720 -0.3822 -0.3383 -0.0963
  980PF6-    F215255   0.494   0.530   2.784 -0.0353 -0.1867 -0.2128
  980PF6-    F315256   0.251   0.363   2.656  0.1790 -0.3272 -0.0075
  980PF6-    F415257   0.275   0.552   2.791 -0.1981  0.2000  0.0850
  980PF6-    F515258   0.478   0.344   2.653 -0.7284  0.3473 -0.7496
  980PF6-    F615259   0.364   0.356   2.853 -0.1815  0.4239  0.0539
  980PF6-    F715260   0.388   0.537   2.591  0.2399  0.3879 -0.2732
  981PF6-    P115261   1.391   0.361   3.157 -0.2505 -0.2609  0.2145
  981PF6-    F215262   1.522   0.285   3.201  0.1377  0.0569  0.0653
  981PF6-    F315263   1.255   0.425   3.106  0.2139  0.2058 -0.1928
  981PF6-    F415264   1.466   0.454   3.052  0.0633  0.7790  0.2886
  981PF6-    F515265   1.310   0.264   3.255 -0.0697 -0.4488 -0.3066
  981PF6-    F615266   1.406   0.475   3.274 -0.3185 -0.1475  0.0966
  981PF6-    F715267   1.376   0.255   3.034  0.3559 -0.0319  0.1967
  982PF6-    P115268   1.370   0.624   0.463 -0.1638  0.0539 -0.1099
  982PF6-    F215269   1.237   0.553   0.525  0.2812 -0.1600 -0.1417
  982PF6-    F315270   1.503   0.699   0.403  0.3712  0.0027 -0.0104
  982PF6-    F415271   1.459   0.588   0.596 -0.4026 -0.2791  0.1483
  982PF6-    F515272   1.287   0.662   0.330  0.0940  0.2176 -0.1619
  982PF6-    F615273   1.324   0.763   0.530 -0.2193  0.0031 -0.2749
  982PF6-    F715274   1.419   0.483   0.401 -0.4016 -0.2746 -0.0048
  983PF6-    P115275   3.946   0.238   4.202  0.4534  0.0593  0.2269
  983PF6-    F215276   3.866   0.212   4.067  0.1396  0.0063 -0.0358
  983PF6-    F315277   4.011   0.271   4.351 -0.1159  0.2310 -0.0088
  983PF6-    F415278   3.872   0.106   4.266  0.1024 -0.0688  0.1120
  983PF6-    F515279   4.017   0.375   4.143 -0.2918  0.3569  0.1289
  983PF6-    F615280   3.817   0.339   4.247  0.4666  0.1142 -0.0095
  983PF6-    F715281   4.069   0.149   4.162 -0.4535  0.2003 -0.0372
  984PF6-    P115282   0.793   3.112   4.651  0.6034  0.2804  0.1336
  984PF6-    F215283   0.710   3.152   4.784 -0.1150  0.0475  0.6093
  984PF6-    F315284   0.875   3.069   4.521 -0.0993  0.1841 -0.1056
  984PF6-    F415285   0.869   3.246   4.653  0.3258  0.0408  0.2385
  984PF6-    F515286   0.717   2.973   4.652  0.2074 -0.0348  0.4936
  984PF6-    F615287   0.683   3.176   4.558 -0.1110 -0.1908 -0.0107
  984PF6-    F715288   0.912   3.055   4.744  0.7186  0.0551  0.2053
  985PF6-    P115289   4.440   4.970   4.800  0.1001 -0.1391  0.6280
  985PF6-    F215290   4.515   4.918   4.671  0.5889 -0.0157  0.0965
  985PF6-    F315291   4.367   5.025   4.933  0.9258 -0.1586  0.4583
  985PF6-    F415292   4.550   5.076   4.822  0.3586 -0.0266  0.2817
  985PF6-    F515293   4.321   4.865   4.770 -0.3338 -0.3036 -0.6797
  985PF6-    F615294   4.518   4.859   4.899  0.1775 -0.1893  0.0894
  985PF6-    F715295   4.358   5.080   4.713 -0.0812 -0.1202 -0.3398
  986PF6-    P115296   0.845   2.460   5.381  0.1390  0.4740 -0.2315
  986PF6-    F215297   0.909   2.605   5.373  0.0089 -0.3226  0.0266
  986PF6-    F315298   0.779   2.312   5.382 -0.0482  0.1364 -0.2692
  986PF6-    F415299   0.716   2.522   5.310  0.2327  0.0494 -0.2348
  986PF6-    F515300   0.975   2.412   5.460 -0.0904  0.0788  0.2631
  986PF6-    F615301   0.770   2.493   5.522 -0.1001  0.3198 -0.0057
  986PF6-    F715302   0.916   2.425   5.233  0.5812  0.2563  0.3044
  987PF6-    P115303   5.373   2.151   4.922 -0.5807 -0.0059 -0.0217
  987PF6-    F215304   5.286   2.290   4.922  0.4732  0.0261 -0.4166
  987PF6-    F315305   5.464   2.012   4.920  0.1876  0.4449  0.0737
  987PF6-    F415306   5.443   2.194   5.056 -0.6420 -0.0596  0.3718
  987PF6-    F515307   5.312   2.102   4.783 -0.1734 -0.2027  0.2895
  987PF6-    F615308   5.488   2.230   4.832  0.2017  0.2124  0.1430
  987PF6-    F715309   5.256   2.077   5.002 -0.0289  0.2124  0.0602
  988PF6-    P115310   2.538   2.017   1.455  0.1029 -0.0306  0.1469
  988PF6-    F215311   2.482   2.064   1.312  0.0088 -0.0005 -0.2613
  988PF6-    F315312   2.599   1.971   1.598  0.4213 -0.1428  0.5468
  988PF6-    F415313   2.527   1.862   1.407  0.7896  0.4230 -0.2664
  988PF6-    F515314   2.548   2.164   1.504  0.3276 -0.1270 -0.2599
  988PF6-    F615315   2.388   2.007   1.510 -0.2269 -0.1135 -0.2775
  988PF6-    F715316   2.683   2.021   1.396 -0.0239  0.1927 -0.4206
  989PF6-    P115317   1.923   1.375   0.841 -0.1562 -0.2223 -0.4153
  989PF6-    F215318   1.791   1.287   0.816 -0.3954  0.4356 -0.5179
  989PF6-    F315319   2.055   1.456   0.864 -0.0416 -0.0941 -0.3987
  989PF6-    F415320   1.845   1.460   0.944 -0.2451 -0.0014  0.1973
  989PF6-    F515321   2.002   1.278   0.741  0.2573 -0.4669  0.5440
  989PF6-    F615322   1.887   1.472   0.718  0.8663  0.0677 -0.4555
  989PF6-    F715323   1.964   1.275   0.967  0.2125  0.0947 -0.1745
  990PF6-    P115324   0.907   1.895   3.209 -0.0698 -0.0326  0.1288
  990PF6-    F215325   0.883   2.038   3.284 -0.0969  0.3987 -0.1126
  990PF6-    F315326   0.914   1.754   3.141  0.0806  0.3347 -0.0544
  990PF6-    F415327   0.748   1.874   3.231 -0.1528  0.2579  0.2939
  990PF6-    F515328   1.067   1.918   3.189  0.4672 -0.5128  0.0576
  990PF6-    F615329   0.933   1.828   3.354  0.2657 -0.3017 -0.1196
  990PF6-    F715330   0.883   1.959   3.062  0.1414 -0.2097  0.1049
  991PF6-    P115331   3.818   3.367   4.339  0.1547  0.2177  0.3936
  991PF6-    F215332   3.794   3.443   4.198  0.0143 -0.0958  0.5123
  991PF6-    F315333   3.840   3.282   4.469  0.0180  0.2118 -0.5076
  991PF6-    F415334   3.681   3.419   4.399  0.3850  0.3076 -0.4955
  991PF6-    F515335   3.957   3.310   4.282  0.6565  0.1567 -0.3344
  991PF6-    F615336   3.892   3.491   4.403 -0.2008 -0.2231 -0.2052
  991PF6-    F715337   3.749   3.237   4.274 -0.4194 -0.3854 -0.0705
  992PF6-    P115338   2.150   2.610   4.881 -0.6918 -0.6647  0.1188
  992PF6-    F215339   2.054   2.717   4.802 -0.4410  0.9457 -0.6014
  992PF6-    F315340   2.247   2.509   4.951 -0.3303 -0.8491  0.3831
  992PF6-    F415341   2.176   2.727   4.994  0.0532 -1.0562 -0.2066
  992PF6-    F515342   2.113   2.502   4.768 -0.0397 -0.3074 -0.5333
  992PF6-    F615343   2.270   2.665   4.794 -0.6548 -0.0624  0.3469
  992PF6-    F715344   2.029   2.553   4.966  0.2153  0.1739  0.3600
  993PF6-    P115345   0.483   0.273   4.106  0.0060  0.1411 -0.7048
  993PF6-    F215346   0.597   0.259   4.217  0.1790 -0.1004  0.1339
  993PF6-    F315347   0.365   0.296   4.003 -0.7572  0.0956 -0.0460
  993PF6-    F415348   0.536   0.142   4.022  0.0889 -0.5056 -1.0788
  993PF6-    F515349   0.438   0.405   4.182  0.1598  0.6369 -0.3234
  993PF6-    F615350   0.577   0.363   4.019 -0.2681  0.0294  0.2228
  993PF6-    F715351   0.389   0.186   4.203  0.3436 -0.0404 -0.4779
  994PF6-    P115352   4.552   2.594   1.378 -0.2638  0.1783  0.6655
  994PF6-    F215353   4.660   2.496   1.305 -0.0142  0.0811  0.2884
  994PF6-    F315354   4.447   2.688   1.442  0.3818  0.7876 -0.2714
  994PF6-    F415355   4.523   2.476   1.483 -0.0882 -0.5986  0.0620
  994PF6-    F515356   4.587   2.714   1.274  0.1073  0.3161 -0.2758
  994PF6-    F615357   4.439   2.543   1.274 -0.1693  0.0381 -0.0524
  994PF6-    F715358   4.672   2.651   1.482 -0.0309 -0.5261 -0.0525
  995PF6-    P115359   1.147   4.881   3.325  0.0724 -0.0233 -0.1523
  995PF6-    F215360   1.218   4.740   3.373 -0.0080  0.2958 -0.0225
  995PF6-    F315361   1.075   5.018   3.276  0.8930 -0.2857 -0.4708
  995PF6-    F415362   1.234   4.963   3.434  0.1961 -0.1127 -0.3108
  995PF6-    F515363   1.070   4.805   3.210  0.2487  0.3357 -0.3905
  995PF6-    F615364   1.030   4.858   3.427 -0.3197 -0.3478  0.1823
  995PF6-    F715365   1.263   4.900   3.212 -0.1586  0.2796 -0.3627
  996PF6-    P115366   3.863   1.914   1.706 -0.1187 -0.3937  0.0504
  996PF6-    F215367   3.757   1.811   1.646  0.1806 -0.4591 -0.7894
  996PF6-    F315368   3.977   2.024   1.758 -0.0244 -0.6710 -0.2460
  996PF6-    F415369   3.931   1.803   1.792 -0.3562 -0.3620 -0.1699
  996PF6-    F515370   3.790   2.036   1.634 -0.3496 -0.2182 -0.5248
  996PF6-    F615371   3.769   1.945   1.830 -0.1369  0.3483  0.1036
  996PF6-    F715372   3.950   1.885   1.577 -0.3224  0.3390  0.3613
  997PF6-    P115373   1.358   4.752   1.707 -0.0070  0.0848 -0.3102
  997PF6-    F215374   1.385   4.873   1.812  0.1899 -0.5281  0.4805
  997PF6-    F315375   1.332   4.632   1.612 -0.0801 -0.1403 -0.2933
  997PF6-    F415376   1.467   4.669   1.785  0.3250 -0.0113 -0.5485
  997PF6-    F515377   1.244   4.843   1.635 -0.1699 -0.1447 -0.6324
  997PF6-    F615378   1.473   4.810   1.610  0.5418  0.1663 -0.2180
  997PF6-    F715379   1.245   4.692   1.805  0.1736 -0.7581 -0.0960
  998PF6-    P115380   4.136   0.534   2.926 -0.3262  0.5841 -0.0874
  998PF6-    F215381   4.115   0.648   2.816 -1.3078 -0.4261  0.1035
  998PF6-    F315382   4.150   0.416   3.037  0.0596  0.2607 -0.2556
  998PF6-    F415383   4.023   0.609   3.016 -0.2127  0.4418  0.2618
  998PF6-    F515384   4.247   0.460   2.836  0.1980  0.1616  0.2873
  998PF6-    F615385   4.255   0.617   2.993  0.4264 -0.3435 -0.0200
  998PF6-    F715386   4.026   0.446   2.862  0.3708 -0.2311 -0.2902
  999PF6-    P115387   4.305   1.737   2.966  0.3133 -0.2794 -0.1179
  999PF6-    F215388   4.248   1.643   3.083  0.0305  0.0516 -0.0910
  999PF6-    F315389   4.356   1.844   2.853  0.1626  0.1675  0.0077
  999PF6-    F415390   4.163   1.734   2.895 -0.4893  0.4680  0.0484
  999PF6-    F515391   4.449   1.738   3.036 -0.1488 -0.2574  0.1552
  999PF6-    F615392   4.351   1.610   2.881  0.6082  0.4127  0.0742
  999PF6-    F715393   4.261   1.865   3.058 -0.0036 -0.0598 -0.2372
 1000PF6-    P115394   0.820   2.554   3.952  0.5784 -0.0749  0.1419
 1000PF6-    F215395   0.891   2.500   4.089 -0.0462  0.3424  0.6165
 1000PF6-    F315396   0.748   2.608   3.819  0.2277 -0.5046 -0.4293
 1000PF6-    F415397   0.822   2.405   3.894 -0.3915  0.1224  0.4180
 1000PF6-    F515398   0.810   2.701   4.011  0.9485  0.2357 -0.0799
 1000PF6-    F615399   0.967   2.586   3.888  0.4347 -0.3003 -0.4803
 1000PF6-    F715400   0.680   2.517   4.014 -0.3746 -0.5861 -0.1084
 1001Na+     N115401   3.428   0.272   2.935 -0.3091 -0.5088 -0.3059
 1002Na+     N115402   4.210   1.769   3.309  0.1701  0.0719 -0.2548
 1003Na+     N115403   5.076   4.812   3.697  0.1380  0.0830 -0.6874
 1004Na+     N115404   2.900   0.139   3.435 -0.1060 -0.2819  0.1830
 1005Na+     N115405   3.796   0.690   3.644  0.4037  0.3227  0.6801
 1006Na+     N115406   0.435   0.485   5.374  0.6181 -0.1642 -0.7449
 1007Na+     N115407   3.421   1.970   3.686 -0.1227 -0.0760  0.0301
 1008Na+     N115408   2.786   3.711   0.598 -0.2753 -0.4194  0.0358
 1009Na+     N115409   0.736   2.465   4.276 -0.1836 -0.4879 -0.0259
 1010Na+     N115410   3.350   1.719   4.837 -0.1786 -0.1491  0.0067
 1011Na+     N115411   2.203   3.845   2.285 -0.2301 -0.3788 -0.3087
 1012Na+     N115412   0.159   1.900   4.875 -0.0039  0.5223  0.2405
 1013Na+     N115413   4.994   4.202   3.011  0.6438  0.1267  0.6924
 1014Na+     N115414   0.046   3.230   5.278 -0.5083  0.5089 -0.2590
 1015Na+     N115415   5.073   2.434   5.339 -0.3777 -0.1244 -0.2769
 1016Na+     N115416   3.843   1.473   0.619  0.0594 -0.0997 -0.2319
 1017Na+     N115417   2.774   4.765   3.386  0.1457 -0.0778  0.3980
 1018Na+     N115418   3.689   2.822   4.002  0.0241 -0.3970 -0.4135
 1019Na+     N115419   4.738   1.860   4.585  0.3479 -0.2726 -0.7395
 1020Na+     N115420   0.374   2.839   1.164 -0.3561 -0.3524  0.3115
 1021Na+     N115421   1.853   1.692   3.198 -0.0533 -0.2949  0.1537
 1022Na+     N115422   5.214   0.429   1.778  0.3838 -0.2502 -0.1588
 1023Na+     N115423   4.150   4.797   0.366 -0.0628  0.1921 -0.2685
 1024Na+     N115424   3.186   2.876   2.808  0.2516  0.1471 -0.4423
 1025Na+     N115425   2.020   2.431   2.657 -0.1196 -0.2463 -0.0936
 1026Na+     N115426   2.186   4.662   4.669 -0.2874 -0.5426  0.0015
 1027Na+     N115427   0.323   2.948   2.077 -0.0909  0.5983 -0.2554
 1028Na+     N115428   0.593   5.308   5.036 -0.3583 -0.0171 -0.5902
 1029Na+     N115429   3.605   0.500   0.194 -0.5176  0.5229 -0.0039
 1030Na+     N115430   1.952   4.410   1.562 -0.5587  0.3744  0.2193
 1031Na+     N115431   1.217   4.120   2.099 -0.5175 -0.0221  0.1490
 1032Na+     N115432   1.350   4.286   3.221  0.5805 -0.0922 -0.2134
 1033Na+     N115433   1.044   0.477   0.646  0.1089  0.1860  0.1991
 1034Na+     N115434   3.960   2.453   0.304 -0.4276  0.1137  0.0733
 1035Na+     N115435   4.564   5.413   4.401 -0.2395 -0.0966  0.5215
 1036Na+     N115436   5.059   0.539   0.937 -0.3494  0.2213 -0.3681
 1037Na+     N115437   1.684   4.354   0.004  0.5282  0.2145 -0.2856
 1038Na+     N115438   2.426   0.432   4.408 -0.0529  0.0863 -0.8596
 1039Na+     N115439   4.535   4.607   4.982  0.7137  0.0192  0.6757
 1040Na+     N115440   2.841   2.026   0.715  0.2995 -0.0075 -0.1296
 1041Na+     N115441   3.621   0.675   1.532 -0.1725 -0.2578  0.2726
 1042Na+     N115442   1.944   0.075   1.193  0.3096  0.1266 -0.2470
 1043Na+     N115443   2.989   1.205   3.120  0.4916  0.3329  0.4301
 1044Na+     N115444   5.026   1.934   1.495  0.3554 -0.3345 -0.0901
 1045Na+     N115445   4.298   0.224   1.214  0.0922 -0.3217  0.0387
 1046Na+     N115446   3.214   2.411   1.471 -0.1150  0.2385 -0.1995
 1047Na+     N115447   0.523   4.545   1.690  0.3022 -0.4075  0.4008
 1048Na+     N115448   5.323   2.862   3.310  0.2474 -0.4891 -0.0938
 1049Na+     N115449   2.931   4.683   4.189 -0.3228 -0.1601 -0.2428
 1050Na+     N115450   0.113   1.195   1.388 -0.0900  0.0326 -0.1424
 1051Na+     N115451   1.679   3.400   0.399  0.3313 -0.1983 -0.1129
 1052Na+     N115452   0.097   1.510   0.125  0.0816 -0.0459  0.4416
 1053Na+     N115453   3.673   3.014   5.072 -0.6890 -0.6316 -0.0524
 1054Na+     N115454   3.168   2.004   2.579  0.2744  0.3648 -0.0460
 1055Na+     N115455   2.264   2.231   1.386  0.0002  0.4564 -0.3728
 1056Na+     N115456   0.664   0.157   1.679  0.6910 -0.0761  0.2358
 1057Na+     N115457   1.735   0.960   3.943  0.2247 -0.3493  0.1284
 1058Na+     N115458   5.157   0.665   3.478 -0.4491 -0.4549 -0.0910
 1059Na+     N115459   0.892   3.621   3.016 -0.3457  0.2150  0.4125
 1060Na+     N115460   1.682   0.901   1.034  0.5643  0.0068  0.2444
 1061Na+     N115461   1.090   1.495   2.051 -0.1322  0.0780 -0.4956
 1062Na+     N115462   2.569   0.534   1.840 -0.4096 -0.4015  0.2635
 1063Na+     N115463   2.665   3.501   4.626 -0.2026  0.1375 -0.3669
 1064Na+     N115464   3.020   4.627   5.287 -0.2786  0.3144  0.0705
 1065Na+     N115465   0.537   1.260   3.568  0.0478  0.7096 -0.2301
 1066Na+     N115466   0.637   2.121   3.324 -0.0841 -0.3316 -0.8717
 1067Na+     N115467   4.083   3.307   0.532 -0.2198  0.3449 -0.2485
 1068Na+     N115468   2.429   4.938   1.737 -0.8982 -0.7658 -0.0438
 1069Na+     N115469   1.692   1.086   3.028 -0.1272  0.1101  0.1004
 1070Na+     N115470   4.050   4.131   1.452 -0.3875 -0.0814 -0.4170
 1071Na+     N115471   3.256   1.087   4.008 -0.3331 -0.4658 -0.1593
 1072Na+     N115472   3.865   4.971   4.285 -0.0276 -0.0685 -0.5953
 1073Na+     N115473   0.733   3.142   5.425 -0.1532  0.1279 -0.2493
 1074Na+     N115474   3.080   3.321   3.587 -0.1364 -0.3449  0.9707
 1075Na+     N115475   4.361   0.245   2.333 -0.1286  0.2771  0.0006
 1076Na+     N115476   1.971   0.828   0.200  0.0344 -0.2660  0.0010
 1077Na+     N115477   0.402   1.744   2.751  0.0960  0.1698  0.2144
 1078Na+     N115478   4.330   5.317   3.079 -0.1482  0.1216  0.2120
 1079Na+     N115479   1.650   5.317   5.166  0.4107  0.2316 -0.0806
 1080Na+     N115480   0.687   1.198   4.903  0.3166  0.2247  0.2098
 1081Na+     N115481   1.390   5.012   0.414  0.3419 -0.0206 -0.7315
 1082Na+     N115482   0.352   0.846   2.710 -0.7027 -0.2942  0.1467
 1083Na+     N115483   4.797   3.937   1.867  0.1072 -0.4489 -0.2364
 1084Na+     N115484   1.643   5.273   3.474  0.1168  0.2948  0.1060
 1085Na+     N115485   5.334   0.582   4.459 -0.4235  0.0161  0.0372
 1086Na+     N115486   2.800   4.415   2.696 -0.3144 -0.2037 -0.1528
 1087Na+     N115487   5.016   1.881   2.606  0.2641  0.3514 -0.3083
 1088Na+     N115488   3.893   1.839   2.410  0.5340 -0.4078 -0.3259
 1089Na+     N115489   0.967   3.178   3.929 -0.2604 -0.1779  0.2760
 1090Na+     N115490   2.470   1.983   4.688  0.2016 -0.4202 -0.4745
 1091Na+     N115491   3.743   0.137   5.017  0.3196  0.4410 -0.2508
 1092Na+     N115492   4.638   2.794   2.572 -0.0608 -0.4884  0.1641
 1093Na+     N115493   3.673   0.930   2.515 -0.0572  0.6013  0.2101
 1094Na+     N115494   3.459   4.430   0.671  0.1465  0.1991 -0.6245
 1095Na+     N115495   3.470   3.925   4.784  0.1754 -0.1878  0.1389
 1096Na+     N115496   1.312   5.095   2.245  0.0136 -0.4810  0.4005
 1097Na+     N115497   1.437   2.887   4.905  0.2012 -0.0888 -0.0910
 1098Na+     N115498   4.147   2.191   1.735  1.0360  0.1675  0.1630
 1099Na+     N115499   2.737   2.902   5.325  0.0177 -0.2602  0.1905
 1100Na+     N115500   1.029   0.337   4.199 -0.2584 -0.2081 -0.1128
   5.50536   5.50536   5.50536
