DG-THF-PF6-Na      Amber RESP
15500
    1DG      C1    1   2.587   5.161   4.692  0.1586  0.1865  0.4931
    1DG      C2    2   2.205   5.081   5.527  0.0990 -1.2639 -0.2045
    1DG      H3    3   2.655   5.246   4.683  2.1403 -1.3274  0.5698
    1DG      H4    4   2.484   5.189   4.668 -1.1048 -4.3004 -0.1723
    1DG      H5    5   2.611   5.092   4.611  0.6543  0.6656  0.2229
    1DG      H6    6   2.187   4.980   5.488  0.6634 -1.9376  1.2151
    1DG      H7    7   2.214   5.061   5.634  2.4697 -1.3804 -0.3820
    1DG      H8    8   2.121   5.145   5.500  0.2656 -0.5058  1.0092
    1DG      O9    9   2.589   5.110   4.822 -0.2097  0.1460  0.1768
    1DG     O10   10   2.327   5.119   5.476  0.6371 -0.3776  0.0934
    1DG     C11   11   2.573   5.210   4.927  0.3966  0.2762  0.0873
    1DG     C12   12   2.316   5.150   5.339  0.0364 -0.3663 -0.3277
    1DG     H13   13   2.476   5.258   4.910 -0.1111 -0.6806  0.1713
    1DG     H14   14   2.657   5.279   4.930  1.6769 -1.1797 -0.9818
    1DG     H15   15   2.299   5.258   5.340 -0.2443 -0.4123 -0.0965
    1DG     H16   16   2.232   5.100   5.292 -3.0716  2.6281  1.5165
    1DG     C17   17   2.562   5.141   5.058 -0.0610  0.0872 -0.3489
    1DG     C18   18   2.446   5.124   5.268  0.0330  0.2346 -0.0197
    1DG     O19   19   2.439   5.167   5.125 -0.1816 -0.2562  0.1111
    1DG     H20   20   2.639   5.187   5.119 -1.0207  0.4125  0.6543
    1DG     H21   21   2.578   5.033   5.053 -2.1865 -0.4970  2.7316
    1DG     H22   22   2.533   5.165   5.320  0.4282 -1.1906  0.4911
    1DG     H23   23   2.468   5.017   5.272 -0.4447  0.1525  0.5745
    2DG      C1   24   2.585   5.254   0.924 -0.5304  0.3296  0.9935
    2DG      C2   25   3.141   5.486   1.020  0.6931  0.2679 -0.0900
    2DG      H3   26   2.662   5.178   0.935 -1.3315 -1.3288 -3.2297
    2DG      H4   27   2.586   5.276   0.817 -3.4055  1.5257  1.1160
    2DG      H5   28   2.489   5.212   0.956 -1.3009  0.6561 -0.7466
    2DG      H6   29   3.202   5.522   0.937 -0.9284  0.5292 -1.2051
    2DG      H7   30   3.174   5.544   1.107  1.2992  0.5981 -0.5352
    2DG      H8   31   3.168   5.380   1.028 -0.2011 -0.1728 -2.2919
    2DG      O9   32   2.606   5.362   1.017  0.3116  0.3476  0.4283
    2DG     O10   33   2.999   5.491   1.015  0.1222 -0.5432  0.3621
    2DG     C11   34   2.531   5.480   0.978 -0.8471 -0.3765  0.6325
    2DG     C12   35   2.958   5.604   0.938  0.1172  0.4018  0.2084
    2DG     H13   36   2.427   5.457   1.000 -1.0852 -0.0848 -0.1687
    2DG     H14   37   2.542   5.497   0.871  0.4252 -1.6615  0.5256
    2DG     H15   38   2.989   5.593   0.834 -4.8039 -3.1229 -1.3104
    2DG     H16   39   2.998   5.691   0.989 -1.8707  0.8674  1.0845
    2DG     C17   40   2.598   5.594   1.059  1.0922  0.7470  1.1702
    2DG     C18   41   2.804   5.610   0.921  0.2990 -0.4413  0.4593
    2DG     O19   42   2.735   5.584   1.045  0.0561 -0.2735  0.6930
    2DG     H20   43   2.571   5.576   1.163  0.3751  0.7348  0.9881
    2DG     H21   44   2.554   5.683   1.012  0.1220  0.2698  1.1378
    2DG     H22   45   2.782   5.706   0.875  2.5307 -0.0215  0.1280
    2DG     H23   46   2.769   5.539   0.847  1.8219 -1.1868  0.4133
    3DG      C1   47   0.668   0.574   0.535 -0.1175 -0.1336  0.3326
    3DG      C2   48   0.402   1.276   0.737 -0.6580  0.3572 -0.3373
    3DG      H3   49   0.684   0.547   0.431  1.3739  4.3576 -0.8284
    3DG      H4   50   0.688   0.492   0.604 -0.8448 -1.5280 -1.0707
    3DG      H5   51   0.743   0.647   0.566  1.0185 -0.6206 -1.1469
    3DG      H6   52   0.307   1.328   0.723 -0.5001  1.1287  1.1893
    3DG      H7   53   0.464   1.338   0.802  0.7262 -0.2962 -0.9911
    3DG      H8   54   0.455   1.266   0.643 -1.7766 -1.5806 -0.8257
    3DG      O9   55   0.537   0.631   0.561 -0.9285  0.2004  0.2457
    3DG     O10   56   0.389   1.144   0.794 -0.1152 -0.4663  0.6448
    3DG     C11   57   0.509   0.626   0.704  0.6007 -0.1309 -0.5965
    3DG     C12   58   0.313   1.067   0.701 -0.0789  0.4415 -0.1252
    3DG     H13   59   0.586   0.677   0.762 -0.1220  1.7367 -1.2089
    3DG     H14   60   0.514   0.524   0.742  1.0615 -1.2195 -3.3301
    3DG     H15   61   0.361   1.063   0.603  0.9671 -0.5478  0.4043
    3DG     H16   62   0.219   1.119   0.683 -0.5399 -0.6386 -0.9038
    3DG     C17   63   0.374   0.696   0.735  0.6665 -0.7072 -0.1475
    3DG     C18   64   0.282   0.923   0.751 -0.1010 -0.0190  0.0088
    3DG     O19   65   0.400   0.834   0.732 -0.0859  0.2181 -0.3069
    3DG     H20   66   0.336   0.677   0.835  0.7153  1.7608  0.4211
    3DG     H21   67   0.298   0.670   0.661  0.2209 -0.8272  0.3430
    3DG     H22   68   0.256   0.922   0.857 -2.0840  1.0233 -0.4154
    3DG     H23   69   0.197   0.875   0.703 -0.4652  1.0443 -0.4402
    4DG      C1   70   0.919   4.827   2.937 -0.5912  0.0263 -0.3414
    4DG      C2   71   1.025   5.004   2.569 -0.3452  0.1561 -0.3287
    4DG      H3   72   0.863   4.917   2.910  1.6062  1.2110 -1.2165
    4DG      H4   73   1.006   4.872   2.984 -0.7990 -2.3233  2.5113
    4DG      H5   74   0.852   4.781   3.010 -1.9549 -0.9572 -2.1101
    4DG      H6   75   0.946   5.078   2.578 -0.1531  0.3790 -0.4696
    4DG      H7   76   1.062   4.979   2.668 -2.7660 -1.7998  0.2084
    4DG      H8   77   1.097   5.049   2.500  0.5066  3.0804  2.2433
    4DG      O9   78   0.918   4.753   2.817  0.6975 -0.0452 -0.1179
    4DG     O10   79   0.968   4.890   2.509  0.1766 -0.2134  0.0226
    4DG     C11   80   0.979   4.624   2.843 -0.0367 -0.0688 -0.2546
    4DG     C12   81   1.072   4.810   2.457 -0.6883  0.4817 -0.1506
    4DG     H13   82   0.919   4.572   2.917 -0.3684  1.2047  0.4107
    4DG     H14   83   1.075   4.646   2.888  0.5165 -1.5263 -0.6608
    4DG     H15   84   1.162   4.861   2.422  0.8436 -1.7780  0.2703
    4DG     H16   85   1.045   4.751   2.370 -2.7170  0.6682  0.3197
    4DG     C17   86   0.992   4.552   2.706 -0.4283 -0.2750 -0.3739
    4DG     C18   87   1.109   4.713   2.569 -0.0779  0.4031 -0.2241
    4DG     O19   88   0.992   4.640   2.599 -0.8482 -0.6592  0.4156
    4DG     H20   89   0.914   4.477   2.697  2.7658 -4.1405  1.3215
    4DG     H21   90   1.083   4.492   2.706 -0.1178  0.1788  0.3640
    4DG     H22   91   1.193   4.651   2.537  2.0442  2.9557  0.0260
    4DG     H23   92   1.130   4.762   2.664  1.5950  0.0662 -0.3927
    5DG      C1   93   1.072   0.969   5.053 -0.0725 -0.3021  0.8999
    5DG      C2   94   1.203   0.969   5.941  0.7719 -0.3259  0.0974
    5DG      H3   95   1.095   1.073   5.028 -1.7990 -0.4706 -1.8145
    5DG      H4   96   0.978   0.949   5.001 -0.2116 -2.8221  1.9815
    5DG      H5   97   1.138   0.896   5.006 -0.9510  0.3366 -1.4989
    5DG      H6   98   1.169   0.972   6.045 -1.4776  0.1135 -0.6091
    5DG      H7   99   1.258   0.877   5.922  1.4729  0.1257 -0.1326
    5DG      H8  100   1.278   1.048   5.934  0.7955 -0.2105  1.4400
    5DG      O9  101   1.054   0.953   5.193  0.0298 -0.1745  0.2175
    5DG     O10  102   1.092   0.981   5.849 -0.1855  0.3912 -0.3058
    5DG     C11  103   0.973   1.056   5.248 -0.4573  0.3389 -0.0389
    5DG     C12  104   1.139   0.987   5.715  0.7029  0.5351 -0.0183
    5DG     H13  105   0.877   1.071   5.198 -0.8397  0.8013  0.7966
    5DG     H14  106   1.026   1.151   5.254 -0.1863  0.2758 -1.2714
    5DG     H15  107   1.212   0.911   5.687 -3.1170 -2.2909 -3.4506
    5DG     H16  108   1.184   1.084   5.694 -0.1688  0.3478 -3.3077
    5DG     C17  109   0.936   1.018   5.394 -0.1157  0.0471 -0.0938
    5DG     C18  110   1.023   0.968   5.611 -0.1842 -0.4802  0.0080
    5DG     O19  111   1.052   1.018   5.476 -0.1307 -0.2542  0.2666
    5DG     H20  112   0.897   0.916   5.387 -4.5686  1.3724  2.2649
    5DG     H21  113   0.856   1.080   5.434  1.4448  1.9837  0.1839
    5DG     H22  114   0.999   0.863   5.595  2.7287 -1.1586 -0.4816
    5DG     H23  115   0.936   1.019   5.653 -0.1387  1.2538 -1.8635
    6DG      C1  116   4.390   4.897   3.052 -0.6573  0.0023  0.4592
    6DG      C2  117   4.273   5.149   3.621  0.2399  0.0258 -0.8302
    6DG      H3  118   4.304   4.834   3.071  0.0653 -2.0088 -2.3405
    6DG      H4  119   4.461   4.843   2.989  0.1323  3.7666 -2.2770
    6DG      H5  120   4.364   4.989   3.000 -0.5829  0.9174  1.9666
    6DG      H6  121   4.293   5.042   3.618 -1.1417 -0.2735 -0.0557
    6DG      H7  122   4.312   5.183   3.717 -0.9657 -1.1394  0.1105
    6DG      H8  123   4.165   5.165   3.625  0.4398  1.1696  1.0922
    6DG      O9  124   4.432   4.919   3.178 -0.8117 -0.2521 -0.3639
    6DG     O10  125   4.324   5.221   3.517 -0.1240  0.2187 -0.4529
    6DG     C11  126   4.567   4.958   3.180 -0.1721  0.0780 -0.5579
    6DG     C12  127   4.461   5.270   3.531 -0.4700 -0.4440  0.1331
    6DG     H13  128   4.570   5.049   3.120  0.5652  1.1021  0.9590
    6DG     H14  129   4.643   4.886   3.149  1.8653  0.5967  2.7018
    6DG     H15  130   4.475   5.313   3.630  0.6844 -3.2193  1.2762
    6DG     H16  131   4.485   5.338   3.450  1.3752 -0.4478  0.6307
    6DG     C17  132   4.610   5.006   3.320 -0.3792  0.6234  0.7008
    6DG     C18  133   4.553   5.151   3.492  0.0748  0.2797 -0.1231
    6DG     O19  134   4.525   5.108   3.358  0.3415 -0.3792 -0.4466
    6DG     H20  135   4.716   5.029   3.323  0.2145 -1.7024 -0.3077
    6DG     H21  136   4.608   4.919   3.387 -2.1196  0.4528  0.4868
    6DG     H22  137   4.658   5.180   3.501  1.1291 -2.9908 -0.3997
    6DG     H23  138   4.545   5.062   3.555  0.7874  0.2715 -0.0257
    7DG      C1  139   2.595   4.815   1.705 -0.1748 -0.5465 -0.5163
    7DG      C2  140   3.226   4.980   1.558  0.0692  0.0016 -0.7730
    7DG      H3  141   2.527   4.845   1.625 -0.6937 -0.1525  0.0694
    7DG      H4  142   2.607   4.900   1.771 -0.1216 -0.6697 -0.3669
    7DG      H5  143   2.544   4.736   1.760  0.2319  0.1173  0.8432
    7DG      H6  144   3.275   5.008   1.464  0.7832  0.5227 -0.2612
    7DG      H7  145   3.207   5.075   1.608 -0.4376 -0.1161 -0.7418
    7DG      H8  146   3.282   4.920   1.629 -0.3542 -0.1949 -0.6037
    7DG      O9  147   2.721   4.772   1.666 -0.0615 -1.0153  0.1323
    7DG     O10  148   3.099   4.918   1.539  0.6835  0.3395  0.2609
    7DG     C11  149   2.733   4.654   1.594 -0.4345 -0.1045  0.6565
    7DG     C12  150   3.124   4.806   1.459  1.2253  0.0295  0.4617
    7DG     H13  151   2.716   4.682   1.490 -0.6389  0.6490  0.8863
    7DG     H14  152   2.660   4.580   1.626  1.0319 -2.7090 -1.5422
    7DG     H15  153   3.214   4.751   1.488  0.8037 -1.5901 -1.1054
    7DG     H16  154   3.153   4.827   1.357  1.2809 -1.2441  0.1941
    7DG     C17  155   2.869   4.581   1.602  0.1517 -0.4741 -0.3835
    7DG     C18  156   3.003   4.712   1.460  0.0292 -0.0140  0.2561
    7DG     O19  157   2.971   4.674   1.599 -0.4676 -0.0668 -0.2186
    7DG     H20  158   2.889   4.502   1.530  1.4567 -1.3477  0.8948
    7DG     H21  159   2.884   4.538   1.701 -0.8789  2.3624  1.0975
    7DG     H22  160   2.917   4.759   1.413  0.9401  1.6229  0.1450
    7DG     H23  161   3.036   4.632   1.394 -0.3418  1.1199 -1.3388
    8DG      C1  162   3.930   5.459   5.407 -0.1957 -0.0913  0.5572
    8DG      C2  163   3.284   5.506   5.452 -0.3305 -0.2284  0.8043
    8DG      H3  164   4.027   5.503   5.432 -0.3190  1.1156 -0.9215
    8DG      H4  165   3.944   5.410   5.311  1.4674 -0.6652  1.0566
    8DG      H5  166   3.907   5.374   5.471 -1.1494 -0.5120 -0.3256
    8DG      H6  167   3.242   5.604   5.434  0.1604 -0.3071 -0.9311
    8DG      H7  168   3.350   5.483   5.368  0.1827 -1.6830  1.5549
    8DG      H8  169   3.198   5.440   5.461  0.0463 -0.5825  2.0281
    8DG      O9  170   3.832   5.558   5.396  0.0748 -0.1015 -0.2876
    8DG     O10  171   3.362   5.518   5.566 -0.8009  0.4435  0.4004
    8DG     C11  172   3.827   5.635   5.515  0.1155 -0.2515  0.6809
    8DG     C12  173   3.434   5.402   5.605  0.4057  0.2900  0.5430
    8DG     H13  174   3.778   5.726   5.484 -0.1323 -0.9622 -1.1002
    8DG     H14  175   3.925   5.669   5.550 -0.1352  0.4389  0.7243
    8DG     H15  176   3.458   5.332   5.524 -0.6315  0.0461  0.4349
    8DG     H16  177   3.368   5.357   5.679 -1.1763  2.5769  0.6425
    8DG     C17  178   3.752   5.573   5.628  0.5928 -0.2691 -0.0015
    8DG     C18  179   3.564   5.451   5.670  0.1322  0.6802  0.3374
    8DG     O19  180   3.633   5.527   5.580 -0.0328 -0.2749  0.1335
    8DG     H20  181   3.742   5.645   5.709  0.2971  0.0261 -0.2968
    8DG     H21  182   3.807   5.488   5.670  2.7972  0.2973 -1.5194
    8DG     H22  183   3.537   5.510   5.758 -0.6096  1.8128 -0.6167
    8DG     H23  184   3.615   5.360   5.701 -1.3366 -0.1569  0.3787
    9DG      C1  185   4.017   4.181   0.635  1.0456 -0.0149  0.2414
    9DG      C2  186   4.028   4.194   0.097  0.2449 -0.3108 -0.0988
    9DG      H3  187   4.063   4.111   0.565 -0.9265 -0.1626 -0.9854
    9DG      H4  188   4.008   4.134   0.733  0.9328  0.8194  0.6338
    9DG      H5  189   4.091   4.258   0.657  0.9764  0.2873 -0.5593
    9DG      H6  190   4.095   4.276   0.123 -0.6719  0.4722 -0.1494
    9DG      H7  191   4.095   4.108   0.103  2.0266  0.9051 -1.5037
    9DG      H8  192   4.001   4.213  -0.007  1.0136  0.1102 -0.2294
    9DG      O9  193   3.889   4.234   0.601  0.2890  0.3499  0.5620
    9DG     O10  194   3.930   4.205   0.195  0.6097  0.0204  0.6949
    9DG     C11  195   3.788   4.143   0.573 -0.8262  0.4948 -0.0869
    9DG     C12  196   3.790   4.179   0.153  0.4611  0.7580 -0.4485
    9DG     H13  197   3.756   4.101   0.669  1.7796  1.0313  1.1271
    9DG     H14  198   3.822   4.057   0.516 -0.3017  0.5665  0.1081
    9DG     H15  199   3.783   4.095   0.083 -1.6522  0.4298  0.0678
    9DG     H16  200   3.761   4.277   0.115 -0.1275  1.1417  0.9491
    9DG     C17  201   3.673   4.220   0.498 -0.1312  0.0033 -0.1176
    9DG     C18  202   3.709   4.145   0.276 -0.3690 -0.2098  0.3218
    9DG     O19  203   3.708   4.255   0.360  0.0586 -0.1514 -0.3709
    9DG     H20  204   3.664   4.310   0.559  0.1823 -0.4238  0.5658
    9DG     H21  205   3.580   4.163   0.501  0.4901 -1.1227  4.1914
    9DG     H22  206   3.607   4.122   0.245 -0.9457  2.3687  0.1321
    9DG     H23  207   3.755   4.059   0.324  0.6622  1.4162  2.3431
   10DG      C1  208   3.448   2.699   5.471 -0.1879  0.3844  0.1018
   10DG      C2  209   3.023   2.271   5.606 -0.4459 -0.1010  0.0243
   10DG      H3  210   3.476   2.770   5.393  2.3772 -1.2563 -0.6081
   10DG      H4  211   3.531   2.627   5.474  0.4883  1.0785 -1.1339
   10DG      H5  212   3.461   2.760   5.560 -1.3913  1.9034 -0.7206
   10DG      H6  213   2.977   2.177   5.573  3.0040 -0.9329 -3.1775
   10DG      H7  214   3.113   2.237   5.658  1.1091  1.0887 -1.7886
   10DG      H8  215   2.953   2.318   5.675 -0.3441 -1.2314  0.9395
   10DG      O9  216   3.322   2.639   5.469 -0.1671 -0.0483  0.8263
   10DG     O10  217   3.060   2.361   5.504 -0.5803 -0.1877  0.3090
   10DG     C11  218   3.222   2.739   5.436 -0.0857  0.3490 -0.4291
   10DG     C12  219   2.949   2.390   5.423 -0.1827  0.1298  0.2410
   10DG     H13  220   3.238   2.768   5.332 -0.3565  0.2019 -0.5111
   10DG     H14  221   3.224   2.827   5.500  1.1076  0.8378 -1.0997
   10DG     H15  222   2.868   2.430   5.485  0.5434 -0.4970  1.6489
   10DG     H16  223   2.899   2.310   5.370 -1.2552 -1.2283  3.0939
   10DG     C17  224   3.089   2.661   5.446 -0.1488  0.2628 -0.0907
   10DG     C18  225   2.988   2.493   5.323 -0.4047  0.4124 -0.2110
   10DG     O19  226   3.112   2.553   5.358 -0.1463  0.5235  0.4042
   10DG     H20  227   3.003   2.719   5.416 -0.7283 -0.4324  0.1976
   10DG     H21  228   3.067   2.624   5.546 -0.1495  0.4643 -0.0161
   10DG     H22  229   3.005   2.451   5.224  1.6309  1.4812 -0.3543
   10DG     H23  230   2.898   2.553   5.308  1.1161  2.6706 -0.6691
   11DG      C1  231   4.785   4.636   2.987 -0.4437 -0.3935  0.4186
   11DG      C2  232   4.339   4.454   2.376 -0.0693 -0.4653  0.3572
   11DG      H3  233   4.786   4.738   3.027  0.1961 -1.0941  2.3498
   11DG      H4  234   4.857   4.619   2.907 -1.0144 -3.0043  0.3797
   11DG      H5  235   4.805   4.572   3.073 -0.5633  2.1495  2.4828
   11DG      H6  236   4.376   4.393   2.293  1.3162 -0.4675  0.9526
   11DG      H7  237   4.230   4.463   2.375 -0.0388  0.1516 -1.7205
   11DG      H8  238   4.384   4.552   2.364 -1.1938 -0.0550 -0.6916
   11DG      O9  239   4.647   4.610   2.953  0.3085  0.2854  0.3695
   11DG     O10  240   4.382   4.408   2.495  0.0645  0.0418  0.1961
   11DG     C11  241   4.622   4.490   2.877 -0.6124  0.2156  0.1454
   11DG     C12  242   4.286   4.431   2.605  0.1324  0.2941 -0.2746
   11DG     H13  243   4.652   4.402   2.935 -0.2223  1.2853  1.6365
   11DG     H14  244   4.699   4.485   2.800 -1.6843 -0.8120 -0.9006
   11DG     H15  245   4.182   4.407   2.582  0.1340  0.9674 -1.0449
   11DG     H16  246   4.283   4.538   2.625 -0.9685  0.3674 -0.7947
   11DG     C17  247   4.472   4.473   2.840 -0.6644 -0.4235  0.6570
   11DG     C18  248   4.314   4.341   2.725 -0.6353  0.7511  0.2615
   11DG     O19  249   4.451   4.361   2.766 -0.6392 -0.3230 -0.2897
   11DG     H20  250   4.429   4.566   2.805  0.7775  0.3809  0.9595
   11DG     H21  251   4.421   4.462   2.935 -1.1921 -0.8820  0.3299
   11DG     H22  252   4.244   4.360   2.806 -1.6480 -1.2264 -0.0972
   11DG     H23  253   4.299   4.240   2.688 -1.6387  0.9186  0.1696
   12DG      C1  254   4.344   2.063   3.445 -0.3621  0.2879  0.5765
   12DG      C2  255   3.710   2.045   3.752  0.2540 -0.3093  0.5383
   12DG      H3  256   4.421   2.139   3.431 -1.0979  0.9480 -0.0293
   12DG      H4  257   4.256   2.100   3.392 -0.9138 -0.3758  1.0138
   12DG      H5  258   4.364   1.963   3.407  0.5820  0.7011 -0.0478
   12DG      H6  259   3.664   2.126   3.695 -2.1391 -2.0500 -0.1542
   12DG      H7  260   3.713   1.956   3.689  1.8487  0.5227 -0.6495
   12DG      H8  261   3.647   2.034   3.839 -0.9538  1.9301  0.0175
   12DG      O9  262   4.298   2.064   3.575 -0.3975 -0.2748  0.1302
   12DG     O10  263   3.837   2.088   3.804  0.0905 -0.6237  0.6329
   12DG     C11  264   4.242   2.190   3.624  0.0091  0.6819  0.4196
   12DG     C12  265   3.853   2.222   3.848  0.3483  0.2966  0.9425
   12DG     H13  266   4.184   2.252   3.555  0.3497  0.4730 -0.0623
   12DG     H14  267   4.327   2.250   3.657 -0.0024  0.9147  0.0404
   12DG     H15  268   3.786   2.245   3.931  1.2183  0.4928  1.5946
   12DG     H16  269   3.808   2.283   3.769 -0.8025 -2.4094 -0.6280
   12DG     C17  270   4.143   2.155   3.740 -0.2294 -0.6550 -0.7729
   12DG     C18  271   3.996   2.250   3.894  0.8785  0.4255 -0.5772
   12DG     O19  272   4.083   2.279   3.790 -0.6894  0.0870  0.8391
   12DG     H20  273   4.184   2.095   3.822 -0.4669 -2.3909 -1.8795
   12DG     H21  274   4.066   2.089   3.701 -1.8136  1.7116 -1.8727
   12DG     H22  275   3.986   2.344   3.949  0.6262  0.5796 -0.8874
   12DG     H23  276   4.030   2.187   3.977  1.6076  5.1163  3.1925
   13DG      C1  277   2.111   0.137   5.088  0.7068  0.3704  0.4389
   13DG      C2  278   2.700   0.203   5.298 -0.5027  0.1473 -0.2973
   13DG      H3  279   2.070   0.077   5.169  2.2269  0.8067  1.5732
   13DG      H4  280   2.169   0.070   5.024 -0.4375 -0.0521 -0.1817
   13DG      H5  281   2.029   0.173   5.026  2.9899  1.1593 -2.3509
   13DG      H6  282   2.789   0.257   5.332 -0.0134 -0.9599  0.2363
   13DG      H7  283   2.667   0.148   5.386 -1.4255 -0.0062 -0.7291
   13DG      H8  284   2.725   0.141   5.212  0.0356 -0.3256  0.1894
   13DG      O9  285   2.198   0.235   5.153 -0.3187  0.3717 -0.0652
   13DG     O10  286   2.603   0.301   5.273 -0.2524 -0.1566 -0.3747
   13DG     C11  287   2.224   0.351   5.069 -0.1259 -0.1319 -0.2818
   13DG     C12  288   2.642   0.383   5.163 -0.0537 -0.4178  0.0986
   13DG     H13  289   2.133   0.395   5.029  0.2620  0.5001 -0.4798
   13DG     H14  290   2.287   0.316   4.987  1.8119  0.9533  0.6665
   13DG     H15  291   2.667   0.308   5.088  2.0114  0.9301 -0.6721
   13DG     H16  292   2.723   0.454   5.182 -1.0019  0.2407  1.9316
   13DG     C17  293   2.284   0.471   5.141 -0.0976 -1.0436 -0.1606
   13DG     C18  294   2.519   0.453   5.112 -0.6659  0.0737 -0.1800
   13DG     O19  295   2.410   0.430   5.196  0.1558  0.1891  0.0774
   13DG     H20  296   2.210   0.490   5.218  0.5052  0.7687  0.0202
   13DG     H21  297   2.289   0.565   5.085 -0.4528 -0.5772  0.5783
   13DG     H22  298   2.539   0.560   5.114  1.2062 -0.2574  0.5369
   13DG     H23  299   2.498   0.428   5.008 -1.8835  0.4815 -0.0469
   14DG      C1  300   2.248   2.508   0.246  0.1471  0.4091 -0.2506
   14DG      C2  301   2.864   2.635   0.394  0.5348  0.1342  0.3240
   14DG      H3  302   2.247   2.482   0.352  2.0916  1.1553 -0.0079
   14DG      H4  303   2.293   2.430   0.184 -0.3577  1.2106 -1.6838
   14DG      H5  304   2.148   2.546   0.227  0.0237 -0.7647 -2.3203
   14DG      H6  305   2.920   2.543   0.378  0.0005 -0.1955  0.3555
   14DG      H7  306   2.930   2.713   0.433 -1.2135  1.3381  0.9748
   14DG      H8  307   2.805   2.617   0.483  0.9309  0.6508  0.6974
   14DG      O9  308   2.325   2.628   0.242  0.2781  0.5920  0.1398
   14DG     O10  309   2.797   2.671   0.277  0.4697  0.3410 -0.1519
   14DG     C11  310   2.340   2.677   0.105  0.1786 -0.5727  0.0647
   14DG     C12  311   2.706   2.572   0.231  0.5952  0.0490  0.0311
   14DG     H13  312   2.242   2.721   0.088  1.0092  1.8183  1.1099
   14DG     H14  313   2.362   2.603   0.028 -0.2758  1.0903 -1.7538
   14DG     H15  314   2.635   2.548   0.311  1.2208 -3.0749 -0.2355
   14DG     H16  315   2.758   2.485   0.193 -0.5847 -0.7482  0.1831
   14DG     C17  316   2.455   2.783   0.089  0.3842  0.7497  0.1748
   14DG     C18  317   2.626   2.631   0.118 -0.0182 -0.2723  0.0217
   14DG     O19  318   2.569   2.752   0.165 -0.1262 -0.3963 -0.0828
   14DG     H20  319   2.418   2.880   0.124 -0.0557  0.5289  0.3407
   14DG     H21  320   2.482   2.798  -0.015  0.4210  0.5168  0.1498
   14DG     H22  321   2.684   2.647   0.027 -1.9235 -1.8356 -1.5601
   14DG     H23  322   2.552   2.556   0.092 -2.4266  2.0781 -0.3375
   15DG      C1  323   4.589   4.389   0.701 -0.0332 -1.1133 -0.0080
   15DG      C2  324   4.552   5.078   0.666 -0.3992 -0.0578 -0.7774
   15DG      H3  325   4.545   4.410   0.799  0.3901  2.8968 -0.4793
   15DG      H4  326   4.692   4.423   0.699 -0.2382 -0.1112  2.4629
   15DG      H5  327   4.590   4.281   0.688 -1.5645 -1.0359 -1.0295
   15DG      H6  328   4.658   5.073   0.695 -0.3534  2.1591 -0.3643
   15DG      H7  329   4.527   5.153   0.591 -1.0936 -0.3490 -0.8350
   15DG      H8  330   4.509   5.099   0.764  2.1237 -2.0896  0.9197
   15DG      O9  331   4.519   4.463   0.601 -0.6283  0.0257  0.1597
   15DG     O10  332   4.498   4.957   0.625  0.5730  0.0219  0.0107
   15DG     C11  333   4.380   4.458   0.623 -0.2876 -0.8759  0.3079
   15DG     C12  334   4.357   4.942   0.631 -0.3569 -0.2691 -0.5951
   15DG     H13  335   4.359   4.461   0.730 -1.0741 -2.0160  0.1956
   15DG     H14  336   4.338   4.365   0.584 -1.3124  0.0122 -0.7704
   15DG     H15  337   4.309   5.027   0.583 -0.5388 -0.7064 -1.2038
   15DG     H16  338   4.324   4.932   0.734 -1.1406  0.6193 -0.7441
   15DG     C17  339   4.304   4.580   0.558  0.0977 -0.2962  0.0858
   15DG     C18  340   4.305   4.821   0.552 -0.4777  0.1498  0.0637
   15DG     O19  341   4.360   4.700   0.618  0.0498 -0.1737  0.4355
   15DG     H20  342   4.196   4.570   0.568  0.1283 -1.6233 -0.7041
   15DG     H21  343   4.320   4.572   0.450  0.2842 -0.7644  0.1471
   15DG     H22  344   4.197   4.834   0.553 -0.3145  1.7400 -0.2609
   15DG     H23  345   4.329   4.835   0.447 -1.8524 -0.3662 -0.3475
   16DG      C1  346   0.379   2.715   2.738  0.0570 -0.0584  0.5734
   16DG      C2  347   0.974   2.902   2.390 -0.5369 -0.2738 -0.2657
   16DG      H3  348   0.412   2.618   2.774  1.9762 -0.4440 -1.8824
   16DG      H4  349   0.272   2.712   2.759 -0.2508  1.6446 -0.5148
   16DG      H5  350   0.435   2.779   2.805  3.2799 -0.5713 -1.3966
   16DG      H6  351   0.988   3.003   2.429 -1.3287 -0.2280 -0.0877
   16DG      H7  352   1.033   2.837   2.454 -1.1301  0.5136  1.1205
   16DG      H8  353   1.010   2.901   2.287  0.3617  1.5082 -0.0174
   16DG      O9  354   0.433   2.725   2.601  0.0802  0.4576 -0.6048
   16DG     O10  355   0.836   2.870   2.379 -0.0857 -0.1462  0.3248
   16DG     C11  356   0.411   2.601   2.534  0.3860  0.1586 -0.5253
   16DG     C12  357   0.804   2.747   2.307  0.4245 -0.7300 -0.5887
   16DG     H13  358   0.306   2.577   2.512  0.0887  0.9461 -0.0065
   16DG     H14  359   0.454   2.524   2.598 -1.1342  0.3700  0.7990
   16DG     H15  360   0.849   2.665   2.362  0.5559 -1.4379 -1.7303
   16DG     H16  361   0.846   2.759   2.207  1.8261  0.1307  0.0668
   16DG     C17  362   0.474   2.625   2.397  0.9693  0.9732  0.4228
   16DG     C18  363   0.655   2.727   2.283  0.6488 -0.0017 -0.2212
   16DG     O19  364   0.594   2.691   2.405 -0.2455  0.1636 -0.3649
   16DG     H20  365   0.404   2.672   2.327  1.1231 -0.5069 -0.7948
   16DG     H21  366   0.497   2.525   2.362  0.9542  0.2300  2.4120
   16DG     H22  367   0.624   2.828   2.255 -0.3011  0.3956  2.0999
   16DG     H23  368   0.636   2.644   2.214 -0.2724 -0.5753  0.7097
   17DG      C1  369   1.976   1.815   3.595 -0.1454  0.0280 -0.5726
   17DG      C2  370   1.884   1.221   3.970 -0.9134  0.3628 -0.0549
   17DG      H3  371   2.063   1.803   3.531 -1.0956  0.9915 -2.1149
   17DG      H4  372   2.014   1.811   3.697  1.8945  1.5655 -1.2278
   17DG      H5  373   1.931   1.913   3.578 -1.4641 -0.6123 -0.9340
   17DG      H6  374   1.931   1.218   3.871 -1.1186  1.1624 -0.1879
   17DG      H7  375   1.970   1.199   4.032 -0.6991 -1.9354 -1.0651
   17DG      H8  376   1.815   1.137   3.975  1.1199 -1.2659  2.4889
   17DG      O9  377   1.886   1.707   3.563 -0.5531  0.1163 -0.5382
   17DG     O10  378   1.822   1.348   3.980  0.0476 -0.1097  0.4906
   17DG     C11  379   1.756   1.710   3.621 -0.7759  0.3754  0.3171
   17DG     C12  380   1.924   1.450   3.981  0.3431  0.4575  0.2380
   17DG     H13  381   1.709   1.623   3.576  1.5265 -2.4401  2.8794
   17DG     H14  382   1.704   1.800   3.588 -2.0524  0.4279  2.2975
   17DG     H15  383   2.004   1.433   3.910  1.7394  1.3396  1.5372
   17DG     H16  384   1.957   1.456   4.085  0.9764  0.9113  0.0175
   17DG     C17  385   1.745   1.697   3.771 -0.9474  0.5426  0.1804
   17DG     C18  386   1.853   1.580   3.942  0.2613 -0.3042  0.1249
   17DG     O19  387   1.812   1.578   3.801 -0.1209  0.5699  0.0343
   17DG     H20  388   1.644   1.695   3.814 -0.5281  0.5904  1.1900
   17DG     H21  389   1.801   1.784   3.807 -1.5647  0.6847  0.8231
   17DG     H22  390   1.763   1.599   4.001 -1.0732 -2.0703 -1.2160
   17DG     H23  391   1.919   1.665   3.955 -0.7295  1.2218 -3.5021
   18DG      C1  392   0.279   2.841   4.766 -0.2336 -0.4047 -0.2135
   18DG      C2  393   0.378   2.149   4.697 -0.0305 -0.4853 -1.1948
   18DG      H3  394   0.316   2.913   4.840 -0.0609  0.7521 -1.3907
   18DG      H4  395   0.181   2.874   4.731 -0.4828 -1.3745 -0.4491
   18DG      H5  396   0.351   2.845   4.685 -2.1319 -0.6073 -1.9760
   18DG      H6  397   0.426   2.178   4.603 -0.3568 -1.6028 -1.7295
   18DG      H7  398   0.453   2.091   4.752  0.4316  1.4755  0.3541
   18DG      H8  399   0.284   2.095   4.686 -1.0195  0.8717  0.3480
   18DG      O9  400   0.282   2.715   4.824  0.0905  0.3454  0.6105
   18DG     O10  401   0.363   2.268   4.774 -0.1696 -0.3746 -0.1380
   18DG     C11  402   0.210   2.696   4.943 -0.4443  0.2505  0.4638
   18DG     C12  403   0.288   2.249   4.895  0.4693 -0.4548  1.2382
   18DG     H13  404   0.112   2.656   4.919  0.5785 -3.3277  1.5356
   18DG     H14  405   0.195   2.790   4.995 -1.6530 -0.5540  1.6494
   18DG     H15  406   0.290   2.152   4.943  0.0726 -0.3134  1.5426
   18DG     H16  407   0.186   2.255   4.859  1.1477 -3.1476 -1.5614
   18DG     C17  408   0.280   2.587   5.021 -0.5667 -0.3013  0.0498
   18DG     C18  409   0.316   2.348   5.007  0.4019 -0.1917 -0.7610
   18DG     O19  410   0.290   2.475   4.939  0.0063 -0.3569 -0.3380
   18DG     H20  411   0.223   2.556   5.108  0.1169 -0.6988  0.3677
   18DG     H21  412   0.382   2.615   5.049  0.0855 -1.6909 -0.7838
   18DG     H22  413   0.260   2.333   5.099 -1.2866 -3.3989 -2.1268
   18DG     H23  414   0.419   2.357   5.042 -0.1492  2.4035  0.4798
   19DG      C1  415   4.032   4.582   1.444 -0.3257  0.3514 -0.3274
   19DG      C2  416   3.604   4.225   1.789 -0.6188 -0.0174  0.5400
   19DG      H3  417   3.986   4.654   1.512  0.6066  0.1398  0.5528
   19DG      H4  418   3.961   4.558   1.365 -2.4302 -1.2492  1.8832
   19DG      H5  419   4.125   4.624   1.406  0.1224  0.0787  0.4290
   19DG      H6  420   3.512   4.213   1.732  0.4476 -3.0763 -0.7439
   19DG      H7  421   3.609   4.135   1.851 -2.3931 -0.0540  0.6902
   19DG      H8  422   3.607   4.313   1.854  3.0162 -0.6579  1.4473
   19DG      O9  423   4.049   4.465   1.531  0.6517  0.2395 -0.6883
   19DG     O10  424   3.719   4.239   1.706  0.8558 -0.4223 -0.5075
   19DG     C11  425   4.089   4.353   1.452  0.5221  0.0512  0.1406
   19DG     C12  426   3.739   4.125   1.626  0.1226  0.3915  0.7328
   19DG     H13  427   4.184   4.378   1.404  0.6616  0.1494  0.4619
   19DG     H14  428   4.018   4.340   1.370 -1.7957 -0.9609  2.1698
   19DG     H15  429   3.646   4.094   1.579  1.0499 -1.9196  0.2933
   19DG     H16  430   3.759   4.041   1.693 -0.1625 -1.0484 -0.9182
   19DG     C17  431   4.079   4.220   1.535  0.3626  0.1365 -0.1581
   19DG     C18  432   3.849   4.141   1.521 -0.1863  0.0233  0.4633
   19DG     O19  433   3.949   4.209   1.597  0.1806  0.0335  0.5459
   19DG     H20  434   4.163   4.210   1.604  1.8723  1.5812 -1.6905
   19DG     H21  435   4.103   4.132   1.474  0.8831 -0.3337  0.7065
   19DG     H22  436   3.880   4.042   1.485 -1.7058 -0.6346  0.8938
   19DG     H23  437   3.817   4.202   1.437 -0.7647 -1.3342 -0.3445
   20DG      C1  438   3.000   2.895   0.168 -0.3551  0.0243  0.0970
   20DG      C2  439   2.461   2.833   0.516  0.6317 -0.0142  0.3489
   20DG      H3  440   2.941   2.869   0.080  0.7842  0.5086 -0.8297
   20DG      H4  441   3.047   2.805   0.208 -1.3034 -0.2377  0.6536
   20DG      H5  442   3.087   2.946   0.127  1.1103 -2.4954 -0.1570
   20DG      H6  443   2.367   2.864   0.562  0.1412  0.8793 -1.1710
   20DG      H7  444   2.433   2.785   0.422 -0.3213 -3.0628  2.0552
   20DG      H8  445   2.514   2.762   0.579 -0.4518  1.1491  2.6745
   20DG      O9  446   2.929   2.963   0.274 -0.4419 -0.8464 -0.1462
   20DG     O10  447   2.544   2.945   0.494  0.1629  0.4215  0.0931
   20DG     C11  448   3.004   3.022   0.382  0.8847 -0.1627  0.5550
   20DG     C12  449   2.580   3.018   0.610 -0.0169  0.1054 -0.3040
   20DG     H13  450   3.076   3.091   0.337  1.5417 -0.0382  1.7492
   20DG     H14  451   3.047   2.936   0.433  2.8495  0.3277 -0.2089
   20DG     H15  452   2.602   2.951   0.693 -2.1103  0.2534  0.4414
   20DG     H16  453   2.490   3.073   0.636 -0.3819 -0.6632  0.1155
   20DG     C17  454   2.908   3.115   0.469  0.5614  0.0248 -0.1916
   20DG     C18  455   2.694   3.104   0.580  0.4333 -0.3341  0.2386
   20DG     O19  456   2.795   3.029   0.515 -0.8067 -0.0044 -0.0546
   20DG     H20  457   2.874   3.201   0.411  0.3750  1.5702  2.0855
   20DG     H21  458   2.958   3.154   0.558 -0.7797  1.8214 -0.1599
   20DG     H22  459   2.658   3.182   0.512  0.6381  0.2511  0.7860
   20DG     H23  460   2.727   3.154   0.672 -1.9003 -0.3664  1.1719
   21DG      C1  461   1.957   4.318   2.651 -0.2012  0.1848 -0.1256
   21DG      C2  462   1.497   4.143   3.060 -0.2749  0.5610  0.5554
   21DG      H3  463   2.030   4.292   2.573  2.7932  1.4543  2.0528
   21DG      H4  464   2.018   4.368   2.726  0.2554  1.4991 -1.3245
   21DG      H5  465   1.882   4.380   2.604 -0.6490 -0.1371  0.1547
   21DG      H6  466   1.418   4.074   3.089  0.4435 -0.5006  0.0296
   21DG      H7  467   1.546   4.187   3.147 -0.1110 -0.5199  1.0257
   21DG      H8  468   1.436   4.222   3.016  0.6470  0.8772 -0.1920
   21DG      O9  469   1.906   4.195   2.691  0.3889 -0.3478 -0.5923
   21DG     O10  470   1.570   4.076   2.965 -0.3653  0.9438  0.3573
   21DG     C11  471   2.002   4.108   2.750  0.0404  0.5212 -0.2141
   21DG     C12  472   1.632   3.957   3.010 -0.5831 -0.1669  0.3596
   21DG     H13  473   2.046   4.159   2.836 -2.9042  2.8771  0.0441
   21DG     H14  474   2.085   4.088   2.683  0.8514 -0.0037  0.9134
   21DG     H15  475   1.565   3.875   3.036 -0.0193 -0.8657 -0.3129
   21DG     H16  476   1.692   3.968   3.100  1.1576 -0.4911 -0.7093
   21DG     C17  477   1.925   3.978   2.796 -0.4318 -0.6551  0.9027
   21DG     C18  478   1.725   3.908   2.901 -0.3680 -0.2494  0.2574
   21DG     O19  479   1.814   4.021   2.879  0.5077 -0.2440  0.6334
   21DG     H20  480   1.991   3.909   2.850 -0.2609 -0.6257  0.7334
   21DG     H21  481   1.902   3.924   2.704  0.7900 -2.1732  1.4374
   21DG     H22  482   1.780   3.829   2.951 -1.3375 -0.4459  1.0346
   21DG     H23  483   1.687   3.871   2.806  3.6133 -3.4562 -0.3641
   22DG      C1  484   2.077   0.870   4.281 -0.7110  0.3123  1.2210
   22DG      C2  485   2.539   0.341   4.281 -0.1110 -0.5822  0.7486
   22DG      H3  486   2.000   0.884   4.205  0.3525  1.2013  0.2794
   22DG      H4  487   2.154   0.941   4.250 -1.0128  0.1359  0.0258
   22DG      H5  488   2.051   0.898   4.383  1.2036  1.3517  1.4736
   22DG      H6  489   2.608   0.415   4.321 -1.2538  0.6413  0.5235
   22DG      H7  490   2.501   0.298   4.373 -0.6851 -0.6616  0.4779
   22DG      H8  491   2.591   0.267   4.220 -3.6082  0.5492 -4.2618
   22DG      O9  492   2.128   0.733   4.266  0.4518 -0.2989  0.6209
   22DG     O10  493   2.426   0.393   4.206 -0.0838 -0.4837  0.3693
   22DG     C11  494   2.025   0.639   4.285  0.4062 -0.2460 -0.0756
   22DG     C12  495   2.314   0.304   4.229 -0.6906  0.2582  0.3960
   22DG     H13  496   1.957   0.650   4.200  0.9237 -0.8172 -0.5690
   22DG     H14  497   1.971   0.662   4.377 -0.7964  2.0083 -1.2725
   22DG     H15  498   2.289   0.313   4.334  2.3599  1.6477  1.1208
   22DG     H16  499   2.341   0.202   4.203 -0.0377 -0.2577  2.8610
   22DG     C17  500   2.085   0.500   4.284 -0.3162 -0.0514  0.0170
   22DG     C18  501   2.196   0.351   4.147  0.1348  0.1801 -0.2276
   22DG     O19  502   2.168   0.488   4.167  0.0271 -0.8695 -0.4020
   22DG     H20  503   2.012   0.419   4.291 -0.0103 -0.4445 -1.0934
   22DG     H21  504   2.152   0.497   4.370  0.1467  2.5638 -0.1737
   22DG     H22  505   2.225   0.341   4.042  0.2622 -3.7172  0.0179
   22DG     H23  506   2.114   0.280   4.160  0.9107 -0.6189  0.4631
   23DG      C1  507   3.789   0.583   4.394  0.2079 -0.2044  0.3251
   23DG      C2  508   3.980   0.374   3.888  0.7928 -0.1308 -0.0959
   23DG      H3  509   3.725   0.518   4.453  0.8525 -1.0163  0.1432
   23DG      H4  510   3.882   0.587   4.451 -1.1285  2.7069  2.6062
   23DG      H5  511   3.796   0.528   4.301 -0.5050  1.3559 -0.7016
   23DG      H6  512   3.902   0.305   3.921  0.8472 -0.5234 -0.7746
   23DG      H7  513   3.981   0.386   3.780  0.1353  0.9987  0.0141
   23DG      H8  514   4.073   0.332   3.928 -0.3779 -2.5392  0.3056
   23DG      O9  515   3.753   0.720   4.378 -0.3114 -0.7821 -0.1705
   23DG     O10  516   3.944   0.498   3.948  0.2443  0.1729  0.3004
   23DG     C11  517   3.857   0.796   4.308 -0.0068 -0.5451 -0.0583
   23DG     C12  518   3.816   0.552   3.902  0.3505  0.0165  0.0504
   23DG     H13  519   3.960   0.764   4.320  0.3466  0.8411  0.8861
   23DG     H14  520   3.849   0.890   4.363  1.3961 -1.2312  1.3743
   23DG     H15  521   3.738   0.479   3.922  0.1773 -0.5014 -2.2557
   23DG     H16  522   3.814   0.567   3.794 -0.6414  2.1998  0.3035
   23DG     C17  523   3.828   0.812   4.158  0.2852  0.3875 -0.3670
   23DG     C18  524   3.786   0.686   3.969  0.2544 -0.0478  0.4132
   23DG     O19  525   3.828   0.685   4.100  0.2153 -0.2130 -0.0075
   23DG     H20  526   3.907   0.875   4.119  0.3464  0.2274 -0.5045
   23DG     H21  527   3.733   0.860   4.134  0.1831 -0.5390 -1.9266
   23DG     H22  528   3.855   0.758   3.923 -0.1933  0.4341  0.4936
   23DG     H23  529   3.682   0.708   3.947  0.1250 -0.5730  0.4875
   24DG      C1  530   4.467   1.025   1.409  0.2600 -0.2726 -0.6719
   24DG      C2  531   5.052   0.876   1.517  0.6059 -0.4200 -0.7351
   24DG      H3  532   4.522   1.106   1.457 -1.3386 -0.2477  1.2674
   24DG      H4  533   4.424   0.971   1.494  1.1313  0.4358  0.2425
   24DG      H5  534   4.384   1.065   1.351 -0.4687 -1.8747 -0.8017
   24DG      H6  535   5.137   0.883   1.449  1.6078 -2.5283  0.1983
   24DG      H7  536   5.050   0.979   1.551  2.5712 -0.7065  0.4277
   24DG      H8  537   5.057   0.817   1.609 -2.6057  0.5001  0.1588
   24DG      O9  538   4.563   0.963   1.323 -0.4953  0.7869  0.2626
   24DG     O10  539   4.938   0.850   1.440  0.0166  0.0106  0.3361
   24DG     C11  540   4.523   0.836   1.270  0.4081 -0.3934  0.3897
   24DG     C12  541   4.924   0.712   1.399 -0.1751 -0.6045 -0.2532
   24DG     H13  542   4.447   0.852   1.194 -1.2295 -3.3430  1.2493
   24DG     H14  543   4.489   0.768   1.348  0.0299 -0.3992  0.2213
   24DG     H15  544   4.938   0.656   1.491  0.2569  0.5920  0.4358
   24DG     H16  545   4.996   0.681   1.323  1.1143 -0.8225  1.0213
   24DG     C17  546   4.645   0.789   1.183 -0.1672  0.3133 -0.8250
   24DG     C18  547   4.783   0.694   1.344 -0.2524 -0.3929  0.1848
   24DG     O19  548   4.775   0.790   1.240  0.3740 -0.4754 -0.4719
   24DG     H20  549   4.656   0.850   1.093  1.8189  1.5458  0.1865
   24DG     H21  550   4.613   0.693   1.143 -3.2050  0.9621 -0.1871
   24DG     H22  551   4.770   0.589   1.318 -0.3424 -0.1203 -0.9041
   24DG     H23  552   4.712   0.714   1.425 -1.0936  0.2842 -0.6851
   25DG      C1  553   1.400   4.282   2.090  0.5979  0.5475  0.2795
   25DG      C2  554   1.914   4.477   1.609  0.6766  0.3059  0.5246
   25DG      H3  555   1.417   4.368   2.155  0.0005 -0.3046  1.5990
   25DG      H4  556   1.350   4.207   2.151  1.5919 -1.7697 -1.6101
   25DG      H5  557   1.321   4.308   2.020  1.3570 -2.3555 -1.8264
   25DG      H6  558   2.006   4.484   1.551  2.0228 -2.9947  2.0442
   25DG      H7  559   1.845   4.543   1.556 -2.9250 -2.2164  1.6589
   25DG      H8  560   1.935   4.518   1.708  0.5774  1.9356 -0.0963
   25DG      O9  561   1.517   4.236   2.034 -1.0245  0.2899  0.0857
   25DG     O10  562   1.835   4.355   1.622  0.0573 -0.1589 -0.3255
   25DG     C11  563   1.535   4.255   1.896 -0.2936  1.0384  0.6704
   25DG     C12  564   1.914   4.246   1.663  0.0433  0.6200 -0.3180
   25DG     H13  565   1.536   4.361   1.870 -1.4135  0.7168 -0.7977
   25DG     H14  566   1.456   4.212   1.835 -0.9813  0.0667  2.1918
   25DG     H15  567   1.984   4.261   1.745 -0.0841  1.2693 -0.3193
   25DG     H16  568   1.982   4.207   1.588  0.4875 -1.6764  1.1849
   25DG     C17  569   1.673   4.190   1.861  0.0523  0.0067 -0.3184
   25DG     C18  570   1.819   4.122   1.681 -0.3278  0.1274  0.1467
   25DG     O19  571   1.692   4.170   1.721  0.2542 -0.0968 -0.3290
   25DG     H20  572   1.699   4.096   1.910  3.0212  1.8096  1.8957
   25DG     H21  573   1.751   4.256   1.900 -0.2633  0.8588 -1.1033
   25DG     H22  574   1.814   4.075   1.583 -0.5997 -2.1518  1.1906
   25DG     H23  575   1.868   4.053   1.750  0.1126  1.1800  0.9173
   26DG      C1  576   1.678   4.107   4.036 -0.3348  0.5055 -0.4153
   26DG      C2  577   1.434   3.470   3.819  0.2098 -0.6755 -0.9374
   26DG      H3  578   1.766   4.108   3.972  0.1364 -2.0207  0.0812
   26DG      H4  579   1.695   4.036   4.116  0.4672  0.7825 -0.3262
   26DG      H5  580   1.670   4.195   4.100 -1.8828 -1.6508  2.6085
   26DG      H6  581   1.396   3.423   3.910 -1.9022  1.4898 -0.5803
   26DG      H7  582   1.381   3.456   3.725  1.4864 -1.1080 -1.6087
   26DG      H8  583   1.531   3.431   3.789  0.7625  0.7483 -1.0743
   26DG      O9  584   1.560   4.057   3.975 -0.2215 -0.2994 -0.1633
   26DG     O10  585   1.449   3.611   3.841 -0.1268  0.3613  0.1223
   26DG     C11  586   1.546   4.094   3.841 -0.3337 -0.6752  0.5532
   26DG     C12  587   1.321   3.675   3.862 -0.4567 -0.1232  0.0174
   26DG     H13  588   1.623   4.053   3.776  0.8305  0.3163  1.2761
   26DG     H14  589   1.559   4.202   3.833 -2.1879 -0.4505  0.0912
   26DG     H15  590   1.277   3.632   3.952 -0.2336 -1.8165 -0.6315
   26DG     H16  591   1.261   3.670   3.771 -0.8896  0.3645  0.2778
   26DG     C17  592   1.417   4.041   3.783  0.4267  0.9415  0.2019
   26DG     C18  593   1.339   3.831   3.890  0.2619  0.0909 -0.8281
   26DG     O19  594   1.403   3.896   3.783  0.0454 -0.0402  0.7058
   26DG     H20  595   1.414   4.075   3.679 -1.3839 -0.5472 -0.2774
   26DG     H21  596   1.331   4.083   3.836 -0.6444 -0.0265 -0.7277
   26DG     H22  597   1.234   3.861   3.898 -0.0413 -1.3483  1.1892
   26DG     H23  598   1.390   3.851   3.984 -1.2359 -1.5365  0.3948
   27DG      C1  599   3.530   1.453   1.926 -0.2426 -1.0302  0.0332
   27DG      C2  600   3.865   0.973   2.155 -0.8041  1.0081  0.3500
   27DG      H3  601   3.495   1.480   2.025 -1.0577  0.9894 -0.7569
   27DG      H4  602   3.471   1.375   1.878  1.2806 -1.4817 -1.2034
   27DG      H5  603   3.523   1.543   1.865  1.8765 -1.9623 -1.7642
   27DG      H6  604   3.820   0.912   2.077  1.2271 -0.9456  0.5859
   27DG      H7  605   3.937   0.904   2.200 -0.1903  1.4827  0.1092
   27DG      H8  606   3.796   0.984   2.239  0.0615 -0.2483  1.2812
   27DG      O9  607   3.668   1.413   1.929 -0.4365  0.1771 -0.1385
   27DG     O10  608   3.925   1.085   2.097 -0.3732 -0.8330  0.0595
   27DG     C11  609   3.747   1.505   2.006 -0.1416 -0.0110 -0.4373
   27DG     C12  610   4.008   1.157   2.186 -0.2843 -0.1621 -0.6259
   27DG     H13  611   3.719   1.537   2.106 -0.9489  1.4335 -1.1084
   27DG     H14  612   3.741   1.601   1.955 -0.7444 -0.5922 -1.4851
   27DG     H15  613   4.096   1.102   2.220  0.8509  2.8492  1.8020
   27DG     H16  614   3.959   1.159   2.283 -0.0420 -0.0315 -0.5054
   27DG     C17  615   3.900   1.463   2.011  0.3284 -0.3532  0.7697
   27DG     C18  616   4.042   1.293   2.121 -0.1043 -0.7537  0.6026
   27DG     O19  617   3.915   1.347   2.084  0.0055 -0.0657 -0.1609
   27DG     H20  618   3.961   1.543   2.052 -0.6582  1.1102 -0.4884
   27DG     H21  619   3.934   1.447   1.909 -1.0558  0.4821  0.1391
   27DG     H22  620   4.098   1.348   2.196  1.4868 -2.9261  1.1029
   27DG     H23  621   4.117   1.283   2.043  1.7785 -1.7007  2.4434
   28DG      C1  622   3.156   5.395   4.005 -0.2068 -0.2960 -0.1853
   28DG      C2  623   3.461   5.842   4.238 -0.1286 -0.2544  0.4596
   28DG      H3  624   3.091   5.421   4.089 -0.7489  0.2868 -0.7820
   28DG      H4  625   3.207   5.306   4.042 -4.4991 -3.5079 -1.1261
   28DG      H5  626   3.088   5.353   3.930 -1.1757  0.1479  0.4227
   28DG      H6  627   3.423   5.831   4.339  0.8390 -1.0289  0.7548
   28DG      H7  628   3.480   5.752   4.179  0.8566  0.2942 -0.1004
   28DG      H8  629   3.559   5.889   4.246 -0.4506  0.3411  1.0142
   28DG      O9  630   3.244   5.504   3.985 -0.0678  0.3184  0.7626
   28DG     O10  631   3.357   5.904   4.153  0.4475  0.4195 -0.1640
   28DG     C11  632   3.293   5.516   3.854 -0.6297 -0.8165  0.1099
   28DG     C12  633   3.397   5.964   4.022  0.3745 -0.1003 -0.0921
   28DG     H13  634   3.211   5.538   3.786  0.3833 -0.3546 -0.9946
   28DG     H14  635   3.349   5.438   3.804 -0.3000  0.3098 -1.3627
   28DG     H15  636   3.472   6.041   4.036 -0.2995  0.3379  1.2246
   28DG     H16  637   3.306   6.009   3.982 -0.1496 -1.0227  0.0239
   28DG     C17  638   3.395   5.633   3.861  0.4360  0.3154  0.9308
   28DG     C18  639   3.450   5.853   3.924  0.4952 -0.1317 -1.0157
   28DG     O19  640   3.358   5.751   3.931  0.4808  0.3910 -0.8053
   28DG     H20  641   3.408   5.660   3.757  1.6029 -1.4033  0.5953
   28DG     H21  642   3.484   5.594   3.910  0.1811 -0.4566  0.7806
   28DG     H22  643   3.448   5.889   3.821 -1.1078  3.2845  0.0548
   28DG     H23  644   3.551   5.826   3.953 -0.3587 -2.5151 -0.0841
   29DG      C1  645   4.108   3.003   3.958 -0.0057  1.0416  0.7309
   29DG      C2  646   4.523   2.622   3.472  0.2225 -0.1141  0.1896
   29DG      H3  647   4.043   2.998   4.046  1.0455 -0.1466  1.4768
   29DG      H4  648   4.089   3.079   3.882  2.7078  1.4812  0.3911
   29DG      H5  649   4.210   3.034   3.978  0.3360  0.1093  0.4852
   29DG      H6  650   4.481   2.711   3.425 -1.1758  0.4711  2.4263
   29DG      H7  651   4.629   2.648   3.470  0.2537 -0.2136 -1.5781
   29DG      H8  652   4.519   2.539   3.401  1.4547  1.2479 -1.5733
   29DG      O9  653   4.107   2.875   3.901  0.4638  0.5047 -0.2293
   29DG     O10  654   4.477   2.609   3.602 -0.1397 -0.3815  0.5566
   29DG     C11  655   4.160   2.776   3.992 -0.2456  0.6900  0.4211
   29DG     C12  656   4.338   2.586   3.600  0.3373  0.4141 -0.2984
   29DG     H13  657   4.097   2.772   4.081 -0.0020  0.2205  0.5767
   29DG     H14  658   4.256   2.814   4.028 -0.5351  0.9224  0.9587
   29DG     H15  659   4.321   2.506   3.528 -2.4862  1.2421 -0.6597
   29DG     H16  660   4.286   2.669   3.554 -0.0325 -0.1588 -0.9271
   29DG     C17  661   4.175   2.642   3.916 -0.2510 -0.2060  0.3776
   29DG     C18  662   4.280   2.548   3.734 -0.5415 -1.1638  0.2941
   29DG     O19  663   4.235   2.664   3.800 -0.0274 -1.3088  0.4886
   29DG     H20  664   4.078   2.593   3.908  0.7823 -2.3662  0.5278
   29DG     H21  665   4.236   2.576   3.977 -0.1624 -1.9805 -1.5270
   29DG     H22  666   4.198   2.476   3.727 -1.1638 -0.5003  0.6835
   29DG     H23  667   4.356   2.499   3.795 -0.4773 -0.5131  0.7427
   30DG      C1  668   4.580   3.029   3.185  0.0223  0.3204 -0.2174
   30DG      C2  669   5.009   3.596   3.558 -0.4828 -0.4318  0.1880
   30DG      H3  670   4.506   2.953   3.209 -0.5573 -0.2212 -3.2721
   30DG      H4  671   4.640   2.988   3.104 -0.9820 -0.0182 -0.8093
   30DG      H5  672   4.532   3.114   3.136 -0.5626  0.1107 -0.0188
   30DG      H6  673   5.069   3.589   3.649 -1.8762  0.3335  1.2086
   30DG      H7  674   5.069   3.609   3.468  0.4877  0.5506  0.9535
   30DG      H8  675   4.947   3.686   3.559 -0.5541 -0.2425 -3.6829
   30DG      O9  676   4.654   3.085   3.291  0.4807 -0.0551 -0.3353
   30DG     O10  677   4.954   3.465   3.543 -0.3392  0.7475  0.4729
   30DG     C11  678   4.772   3.017   3.327 -0.4412  0.1003  0.0953
   30DG     C12  679   4.846   3.446   3.447 -0.4982 -0.2909  0.2037
   30DG     H13  680   4.852   3.029   3.253 -0.3550  1.0311  0.3297
   30DG     H14  681   4.757   2.909   3.330 -0.0646  0.0369  3.7481
   30DG     H15  682   4.874   3.470   3.345  0.1970 -0.7135  0.2899
   30DG     H16  683   4.778   3.526   3.476 -0.1533 -0.5583  1.8528
   30DG     C17  684   4.823   3.067   3.460  0.0345 -0.7141  0.6094
   30DG     C18  685   4.771   3.305   3.454  0.2435 -1.1212  0.3454
   30DG     O19  686   4.870   3.204   3.452 -0.1462  0.6725 -0.0434
   30DG     H20  687   4.908   3.002   3.484  1.6169  0.8058 -0.5880
   30DG     H21  688   4.750   3.053   3.539 -1.2837  0.3452 -0.3839
   30DG     H22  689   4.705   3.300   3.540 -1.6432  0.5912 -0.9096
   30DG     H23  690   4.703   3.303   3.369  2.3119  2.6256 -1.6611
   31DG      C1  691   2.997   2.486   1.155  0.5521 -0.2912 -0.4565
   31DG      C2  692   2.955   3.100   0.874  0.9147 -0.1437 -0.0100
   31DG      H3  693   3.051   2.399   1.193  0.7944  0.3679  0.7557
   31DG      H4  694   2.984   2.473   1.047  2.5455 -2.5347 -0.5079
   31DG      H5  695   2.894   2.474   1.189  0.6607 -3.2174 -0.8905
   31DG      H6  696   2.957   3.039   0.784 -0.5559  0.8999 -0.7842
   31DG      H7  697   2.849   3.093   0.897  0.7060  2.0180 -0.1259
   31DG      H8  698   2.976   3.201   0.838  0.7509 -0.7251 -1.8425
   31DG      O9  699   3.057   2.615   1.161  0.0804 -0.0725  1.0710
   31DG     O10  700   3.046   3.055   0.978 -0.1556  0.0867  0.4242
   31DG     C11  701   3.068   2.676   1.284 -0.4380 -0.3304 -0.8452
   31DG     C12  702   3.036   3.119   1.102 -0.8777 -0.8361  0.0676
   31DG     H13  703   3.114   2.604   1.352 -1.4711  0.6855  1.0290
   31DG     H14  704   2.975   2.708   1.331 -0.1066  1.1861 -1.1619
   31DG     H15  705   2.933   3.121   1.137 -1.5881 -0.9913 -1.9279
   31DG     H16  706   3.085   3.216   1.089  0.5504 -1.8329 -2.9425
   31DG     C17  707   3.145   2.803   1.270  0.6347 -0.2919  0.5644
   31DG     C18  708   3.118   3.037   1.196 -0.1293  0.1351 -0.4444
   31DG     O19  709   3.062   2.903   1.205  0.2761 -0.3523 -0.0887
   31DG     H20  710   3.236   2.795   1.210  0.0222  1.8549 -0.8065
   31DG     H21  711   3.179   2.839   1.367  1.0139 -3.8159  1.8808
   31DG     H22  712   3.223   3.030   1.165  0.1601 -2.0537  0.8428
   31DG     H23  713   3.117   3.081   1.296  2.2909  2.7069 -1.3960
   32DG      C1  714   0.657   3.307   0.011  0.9055  0.7780  0.4254
   32DG      C2  715  -0.002   3.251  -0.024 -0.4307 -0.3642  0.0787
   32DG      H3  716   0.633   3.279  -0.091  1.3046 -0.0228  0.5504
   32DG      H4  717   0.758   3.272   0.031  1.4831  1.8057 -0.5571
   32DG      H5  718   0.665   3.416   0.019 -0.6060  0.9886 -0.5489
   32DG      H6  719  -0.029   3.306   0.066 -0.3306  1.1436 -0.7847
   32DG      H7  720   0.026   3.310  -0.111  0.5051 -0.9741 -0.0507
   32DG      H8  721  -0.096   3.205  -0.054 -0.4754  0.7758 -1.6910
   32DG      O9  722   0.555   3.240   0.093  0.0459  0.0681  0.3064
   32DG     O10  723   0.096   3.156  -0.001 -0.3214  0.2381  1.0021
   32DG     C11  724   0.557   3.091   0.092 -0.4520 -0.4769  1.1539
   32DG     C12  725   0.084   3.091   0.127  0.2380  0.2133  0.4662
   32DG     H13  726   0.641   3.056   0.152  0.0394 -3.1250 -0.8954
   32DG     H14  727   0.571   3.054  -0.010 -2.4385 -2.2692  1.4585
   32DG     H15  728  -0.005   3.028   0.132 -0.0164  0.6084  0.9807
   32DG     H16  729   0.097   3.154   0.215  0.7267  1.5748 -0.5658
   32DG     C17  730   0.429   3.035   0.150 -0.4523  0.3847  0.0601
   32DG     C18  731   0.201   2.993   0.125 -0.4322  0.5660  0.2939
   32DG     O19  732   0.313   3.068   0.078 -0.1086 -0.1780 -0.1538
   32DG     H20  733   0.429   3.072   0.252 -1.6811 -2.1386  1.0634
   32DG     H21  734   0.438   2.927   0.144  0.0910  0.4813 -1.1207
   32DG     H22  735   0.206   2.947   0.223  1.9369  0.8001  0.3371
   32DG     H23  736   0.189   2.917   0.048  0.2529  0.5666  0.1828
   33DG      C1  737   2.709   1.503   1.457  0.5700 -0.0124 -0.5171
   33DG      C2  738   2.658   2.157   1.575 -0.2589  0.1273 -0.3200
   33DG      H3  739   2.681   1.458   1.361 -0.4198 -1.7584  0.5348
   33DG      H4  740   2.671   1.447   1.543  2.1398  1.0987  0.9461
   33DG      H5  741   2.816   1.514   1.469  0.1719  1.6111  2.3733
   33DG      H6  742   2.623   2.258   1.595 -2.7116 -0.2828 -2.0431
   33DG      H7  743   2.764   2.154   1.597 -0.3046  1.6738  0.2474
   33DG      H8  744   2.658   2.146   1.467  1.3632 -1.2055 -0.2259
   33DG      O9  745   2.638   1.622   1.479 -0.1047  0.7686  0.0169
   33DG     O10  746   2.591   2.044   1.625  0.4544 -0.3715 -0.3227
   33DG     C11  747   2.500   1.615   1.441 -0.2680 -0.8949 -0.3482
   33DG     C12  748   2.450   2.055   1.597 -0.0786  0.0053  0.4666
   33DG     H13  749   2.450   1.543   1.506  1.9086 -2.6978 -0.5619
   33DG     H14  750   2.482   1.586   1.337 -1.8372 -2.1857  0.2297
   33DG     H15  751   2.448   2.065   1.488  0.3826  1.1028  0.5420
   33DG     H16  752   2.399   2.141   1.640 -2.5060 -1.4190  0.6231
   33DG     C17  753   2.446   1.759   1.459 -0.3325 -0.3315  0.5880
   33DG     C18  754   2.388   1.918   1.639  0.8777  0.4052 -0.2759
   33DG     O19  755   2.454   1.796   1.602  0.0322 -0.1738 -0.0119
   33DG     H20  756   2.349   1.761   1.411  0.0557 -1.1559 -0.2560
   33DG     H21  757   2.510   1.826   1.401 -1.4931  1.3922  1.2218
   33DG     H22  758   2.380   1.906   1.747 -0.7923 -1.7645 -0.5706
   33DG     H23  759   2.286   1.897   1.606  1.5367 -1.7670 -1.1548
   34DG      C1  760   4.592   2.661   4.518 -0.6798  0.2785 -0.5453
   34DG      C2  761   4.694   2.946   3.850  0.2206  0.0498 -0.4891
   34DG      H3  762   4.495   2.694   4.555 -0.5909  1.4846 -1.3506
   34DG      H4  763   4.679   2.718   4.551 -0.9258  0.4766 -0.2368
   34DG      H5  764   4.600   2.560   4.559 -0.3578  0.2983 -0.5533
   34DG      H6  765   4.609   2.980   3.791 -0.4187  0.5546  0.6851
   34DG      H7  766   4.719   3.041   3.898 -0.8785  0.0684  0.0829
   34DG      H8  767   4.777   2.923   3.783 -0.0240 -2.0207 -0.1434
   34DG      O9  768   4.605   2.656   4.378  0.8236  0.3787 -0.3733
   34DG     O10  769   4.662   2.845   3.944  0.1076  0.2220 -0.2690
   34DG     C11  770   4.495   2.577   4.327 -0.1461  0.8234  0.3233
   34DG     C12  771   4.571   2.748   3.895 -1.3993  0.2423 -0.8088
   34DG     H13  772   4.408   2.643   4.321 -0.9616 -0.2516  0.1632
   34DG     H14  773   4.467   2.485   4.379 -3.0138  1.1530 -0.4819
   34DG     H15  774   4.607   2.731   3.794 -1.7292 -1.8356 -0.6235
   34DG     H16  775   4.469   2.786   3.897 -2.3156 -2.0422 -1.6909
   34DG     C17  776   4.521   2.536   4.182  0.0364 -1.1108 -0.7224
   34DG     C18  777   4.602   2.620   3.972  0.6662  0.9576  0.5858
   34DG     O19  778   4.564   2.649   4.112  0.0951 -0.3584  0.8798
   34DG     H20  779   4.427   2.497   4.143  0.4475 -1.8546 -0.9820
   34DG     H21  780   4.600   2.461   4.182  2.1236  0.9866 -1.6577
   34DG     H22  781   4.537   2.539   3.941 -0.7823  1.4718  2.1169
   34DG     H23  782   4.705   2.585   3.966  0.3930  0.0836  0.8665
   35DG      C1  783   4.957   2.594   5.326 -0.3080 -0.0840  0.4012
   35DG      C2  784   4.295   2.566   5.221 -0.0190 -0.0522  0.7589
   35DG      H3  785   5.010   2.531   5.254 -0.3947 -0.8531  0.9931
   35DG      H4  786   5.032   2.615   5.402 -1.2802  1.1186  1.0628
   35DG      H5  787   4.932   2.695   5.293 -1.0621 -0.1880  0.6266
   35DG      H6  788   4.241   2.606   5.307 -1.3173 -1.4572  0.6516
   35DG      H7  789   4.300   2.643   5.145 -0.4497  0.8233  1.5977
   35DG      H8  790   4.226   2.494   5.176  0.5715 -0.3168  0.2697
   35DG      O9  791   4.850   2.524   5.383 -0.2766 -0.3698 -0.5730
   35DG     O10  792   4.414   2.495   5.252 -0.4069  0.1634  0.2681
   35DG     C11  793   4.883   2.393   5.432 -0.1828  0.3367  0.4419
   35DG     C12  794   4.404   2.408   5.369  0.3257 -0.1850  0.7382
   35DG     H13  795   4.912   2.398   5.537  0.5641  0.8302  0.2174
   35DG     H14  796   4.964   2.344   5.378  0.1827  1.5131 -0.1160
   35DG     H15  797   4.309   2.355   5.358  0.1324  0.3345 -0.1323
   35DG     H16  798   4.396   2.457   5.466 -0.9398 -0.4001  0.7571
   35DG     C17  799   4.750   2.301   5.429 -0.3322 -0.3333  0.2491
   35DG     C18  800   4.523   2.305   5.368  0.0174 -0.7033 -1.1021
   35DG     O19  801   4.636   2.379   5.412 -0.2671 -0.4859 -0.2066
   35DG     H20  802   4.747   2.243   5.522  2.0456 -1.1716 -0.1338
   35DG     H21  803   4.757   2.236   5.342  0.8685  1.6142 -1.1701
   35DG     H22  804   4.507   2.219   5.433  2.4698 -1.8230 -1.8436
   35DG     H23  805   4.543   2.277   5.265  1.4766  2.4999 -1.8221
   36DG      C1  806   2.153   2.779   3.018  0.3249  0.2773 -0.1368
   36DG      C2  807   2.467   2.996   3.526  0.2089  0.2342 -0.0764
   36DG      H3  808   2.255   2.772   2.980 -0.0933  0.5520 -1.3790
   36DG      H4  809   2.093   2.762   2.928 -0.2150 -0.3195  0.3283
   36DG      H5  810   2.151   2.686   3.075 -1.2302 -1.2058 -2.4164
   36DG      H6  811   2.515   3.037   3.615  0.4643  0.1518 -0.1755
   36DG      H7  812   2.470   2.887   3.522 -0.3230  0.2582 -1.2682
   36DG      H8  813   2.519   3.028   3.436 -0.0649 -0.9654 -0.6819
   36DG      O9  814   2.124   2.880   3.106 -0.3126 -0.6039  0.0303
   36DG     O10  815   2.327   3.036   3.519 -0.4884 -0.2206  0.0021
   36DG     C11  816   1.991   2.895   3.135  0.3243 -0.6252 -0.1266
   36DG     C12  817   2.248   2.985   3.423  0.9539  0.1769  1.1530
   36DG     H13  818   1.952   2.807   3.185 -0.6005 -0.1219  0.0743
   36DG     H14  819   1.925   2.915   3.050 -2.8502  1.9297  2.5997
   36DG     H15  820   2.233   2.879   3.438  2.7010  0.0069  2.0360
   36DG     H16  821   2.297   3.003   3.326  1.2720  2.0357  1.6177
   36DG     C17  822   1.986   3.015   3.220  0.1083  0.7009  0.2407
   36DG     C18  823   2.115   3.059   3.420 -0.2095 -0.4376 -0.6235
   36DG     O19  824   2.005   2.988   3.357 -0.2174  0.8189  0.0371
   36DG     H20  825   1.884   3.053   3.205 -0.1272 -0.6331 -1.9220
   36DG     H21  826   2.048   3.098   3.187 -0.5484  0.3588 -2.0463
   36DG     H22  827   2.081   3.067   3.523  0.5079 -1.8555 -0.2593
   36DG     H23  828   2.132   3.161   3.384 -1.7261  0.2100  0.4219
   37DG      C1  829   0.746   2.606   2.813  0.1182  0.1898  0.2996
   37DG      C2  830   0.484   3.070   2.419 -0.2585 -0.5590 -1.1185
   37DG      H3  831   0.726   2.556   2.718 -0.8339  0.9527  0.0854
   37DG      H4  832   0.656   2.586   2.872  0.3945  1.8708  1.3700
   37DG      H5  833   0.832   2.564   2.865  1.0278  2.0867  0.4148
   37DG      H6  834   0.464   3.169   2.377 -0.2447 -0.7689 -1.6240
   37DG      H7  835   0.493   2.998   2.338 -0.5082 -2.0214  0.1103
   37DG      H8  836   0.399   3.054   2.486  0.3151  0.3791 -0.1264
   37DG      O9  837   0.760   2.747   2.787  0.4384  0.2876 -0.9579
   37DG     O10  838   0.597   3.069   2.509 -0.2840 -0.1646 -0.4586
   37DG     C11  839   0.732   2.831   2.902 -0.5220 -0.0879 -0.2489
   37DG     C12  840   0.586   3.174   2.604  1.1072 -0.2104  0.1089
   37DG     H13  841   0.805   2.794   2.973 -0.0761 -0.0666 -0.6858
   37DG     H14  842   0.630   2.819   2.938  0.1468 -0.7119  1.5253
   37DG     H15  843   0.483   3.174   2.642  1.1423  0.5418  0.2224
   37DG     H16  844   0.605   3.273   2.561 -0.1177  0.1672  0.3794
   37DG     C17  845   0.748   2.990   2.875  0.7635  0.4346 -0.2918
   37DG     C18  846   0.681   3.157   2.722 -0.8981  0.1860  0.5141
   37DG     O19  847   0.676   3.022   2.757 -0.4918  0.2178 -0.2525
   37DG     H20  848   0.852   3.007   2.846  0.1607 -0.7527 -3.6498
   37DG     H21  849   0.720   3.051   2.960 -1.4765 -0.4410 -0.3318
   37DG     H22  850   0.786   3.164   2.693 -0.2919  0.1637  2.5873
   37DG     H23  851   0.662   3.241   2.789 -0.0742  1.1569 -0.4203
   38DG      C1  852   5.170   1.454   2.205  0.1816  0.3882  0.3303
   38DG      C2  853   4.743   1.316   2.741 -0.4245  0.4369  0.7232
   38DG      H3  854   5.178   1.546   2.262 -2.6358  0.3495  0.9174
   38DG      H4  855   5.120   1.471   2.109  1.2452  2.4712  0.0880
   38DG      H5  856   5.275   1.427   2.195 -0.0358 -0.1958 -0.5194
   38DG      H6  857   4.686   1.241   2.796 -0.6483  0.1094  0.0531
   38DG      H7  858   4.810   1.373   2.805  1.2620  0.2458 -0.8076
   38DG      H8  859   4.682   1.390   2.689  0.7272 -0.4945 -2.1623
   38DG      O9  860   5.094   1.365   2.281  0.3642 -0.0581 -0.1551
   38DG     O10  861   4.840   1.262   2.646  0.5271  0.4888  0.3963
   38DG     C11  862   5.070   1.243   2.211 -0.0394  0.0505 -0.4502
   38DG     C12  863   4.801   1.136   2.592 -0.4714 -0.3627 -0.1589
   38DG     H13  864   5.158   1.210   2.155 -0.5262 -2.3298  0.0807
   38DG     H14  865   4.988   1.257   2.141 -0.7807 -0.7407  0.2430
   38DG     H15  866   4.699   1.145   2.555 -1.6475 -2.5884  2.2671
   38DG     H16  867   4.794   1.063   2.673 -1.8880  1.5814  1.5762
   38DG     C17  868   5.048   1.131   2.306  0.7963 -0.3627  0.0437
   38DG     C18  869   4.912   1.091   2.502  0.2501 -0.3854  0.1399
   38DG     O19  870   4.936   1.164   2.387 -0.8420  0.5926 -0.1045
   38DG     H20  871   5.137   1.121   2.369  1.7607  2.2528 -0.8047
   38DG     H21  872   5.029   1.035   2.257  1.8921 -0.8344  0.4922
   38DG     H22  873   5.007   1.103   2.555  0.3804  1.6187 -0.4556
   38DG     H23  874   4.910   0.983   2.492 -0.1802 -0.3785  0.1223
   39DG      C1  875   0.945   2.547   0.916 -0.2503 -0.1950  0.2718
   39DG      C2  876   0.654   2.982   0.505 -0.4649 -0.0319 -0.0205
   39DG      H3  877   0.994   2.451   0.935 -0.5073 -0.2493  0.6841
   39DG      H4  878   0.853   2.517   0.864 -0.6121  1.2328  0.0545
   39DG      H5  879   0.926   2.595   1.012  1.4495  1.1682 -0.0406
   39DG      H6  880   0.605   3.074   0.535 -0.3174  0.3273 -0.8342
   39DG      H7  881   0.641   2.977   0.397  1.0507  1.2336 -0.3077
   39DG      H8  882   0.598   2.901   0.550 -0.5644 -0.8315 -1.5184
   39DG      O9  883   1.024   2.646   0.841  0.2050  0.7852 -0.1334
   39DG     O10  884   0.795   2.987   0.538  0.4092  0.0857 -0.4806
   39DG     C11  885   1.072   2.590   0.716  0.2665 -0.3031  0.2911
   39DG     C12  886   0.872   2.924   0.438  0.3616 -0.3542  0.1432
   39DG     H13  887   0.983   2.548   0.668  3.2409 -2.8946 -3.6134
   39DG     H14  888   1.149   2.514   0.725 -0.0930 -0.4691  2.2916
   39DG     H15  889   0.868   2.987   0.348  0.0090  1.6077  1.4712
   39DG     H16  890   0.826   2.827   0.421 -0.8644 -0.4474  3.4032
   39DG     C17  891   1.110   2.711   0.617  0.4360  0.0021  0.1903
   39DG     C18  892   1.003   2.883   0.488  0.6149 -0.3747  0.0370
   39DG     O19  893   0.989   2.783   0.593  0.1023  0.2715  0.0074
   39DG     H20  894   1.155   2.674   0.525  1.2699 -0.6872  0.8566
   39DG     H21  895   1.178   2.772   0.677  1.1145 -0.6747  0.1389
   39DG     H22  896   1.061   2.849   0.402  0.8818  2.3993 -0.9658
   39DG     H23  897   1.062   2.967   0.524  2.1967 -1.4459  0.0639
   40DG      C1  898   1.956   2.076   0.617 -0.4178 -0.1023  0.2451
   40DG      C2  899   1.662   2.744   0.547 -0.3295  0.6294 -0.0370
   40DG      H3  900   2.058   2.113   0.629  0.9653 -3.1632 -0.9869
   40DG      H4  901   1.956   2.039   0.515  0.5559 -0.5589  0.4031
   40DG      H5  902   1.954   1.993   0.688 -0.7368  1.0595  1.6572
   40DG      H6  903   1.752   2.788   0.592  0.6201 -1.4890  0.2583
   40DG      H7  904   1.697   2.759   0.445 -0.3936 -0.4139 -0.2210
   40DG      H8  905   1.575   2.807   0.565 -0.2646  0.9336 -0.7500
   40DG      O9  906   1.850   2.163   0.627  0.5936  0.2821  0.0876
   40DG     O10  907   1.648   2.607   0.581  0.0490 -0.2068  0.3072
   40DG     C11  908   1.725   2.101   0.614  0.4662 -0.4213  0.1573
   40DG     C12  909   1.555   2.533   0.493 -0.1079 -0.7296 -0.0029
   40DG     H13  910   1.708   2.027   0.692  1.8588  0.2641  1.1719
   40DG     H14  911   1.728   2.057   0.515  1.0810  0.2526 -0.1324
   40DG     H15  912   1.607   2.527   0.398  3.1460  0.5736  1.5211
   40DG     H16  913   1.464   2.591   0.479  0.9396  1.0371  0.2517
   40DG     C17  914   1.607   2.199   0.636  0.6326 -0.2015  0.3211
   40DG     C18  915   1.507   2.405   0.562 -0.2372  0.3925 -0.4819
   40DG     O19  916   1.611   2.310   0.545 -0.4702  0.0453 -0.2370
   40DG     H20  917   1.621   2.248   0.733  0.7610  1.1421 -0.3535
   40DG     H21  918   1.509   2.152   0.627  0.6882 -0.2651  0.0577
   40DG     H22  919   1.488   2.432   0.666 -1.1394 -0.8123 -0.3204
   40DG     H23  920   1.419   2.351   0.527 -0.1208 -0.4328  0.4530
   41DG      C1  921   0.313   3.294   2.074  0.7529 -0.0302  0.6747
   41DG      C2  922  -0.218   3.622   1.705 -0.3325 -0.7378  0.5343
   41DG      H3  923   0.324   3.216   2.150 -1.0695 -1.2084 -0.1812
   41DG      H4  924   0.389   3.369   2.093 -2.2366  3.3194  0.4243
   41DG      H5  925   0.339   3.249   1.978  1.5764 -0.9696  1.3104
   41DG      H6  926  -0.177   3.579   1.613 -0.6453  1.2945 -0.6325
   41DG      H7  927  -0.317   3.578   1.709 -1.6535  2.0542  0.8054
   41DG      H8  928  -0.230   3.730   1.699  0.7296 -0.6662 -1.0847
   41DG      O9  929   0.182   3.341   2.065  0.2199  0.0244 -0.4269
   41DG     O10  930  -0.142   3.589   1.819 -0.7657 -0.0479  0.0406
   41DG     C11  931   0.144   3.426   2.173 -0.2687 -0.2926 -0.1312
   41DG     C12  932  -0.204   3.633   1.940  0.2111 -0.2351  0.0684
   41DG     H13  933   0.183   3.527   2.178 -2.2909  0.4735  1.7243
   41DG     H14  934   0.179   3.384   2.267  0.3372 -0.6742 -0.5143
   41DG     H15  935  -0.298   3.583   1.964 -0.4350  0.6829 -0.4655
   41DG     H16  936  -0.233   3.738   1.933  1.8607  0.3602  1.5806
   41DG     C17  937  -0.008   3.440   2.185 -0.6893  0.7205  0.4794
   41DG     C18  938  -0.109   3.610   2.058  0.6873  0.2499 -0.5012
   41DG     O19  939  -0.077   3.468   2.064 -1.2037  0.5527 -0.3013
   41DG     H20  940  -0.045   3.493   2.273  1.1716 -0.1126  1.8413
   41DG     H21  941  -0.043   3.338   2.204 -1.5832  1.3357  2.4255
   41DG     H22  942  -0.021   3.673   2.049 -0.5771  1.7462 -4.5844
   41DG     H23  943  -0.167   3.635   2.147 -0.1734  0.5244 -1.1316
   42DG      C1  944   3.581   1.195   2.241  0.5637  0.0978 -0.3146
   42DG      C2  945   3.797   1.281   1.581 -0.2374 -0.0531 -0.1923
   42DG      H3  946   3.550   1.299   2.235  0.0446  0.0628  1.2637
   42DG      H4  947   3.686   1.193   2.270  0.8294  0.3017 -1.2386
   42DG      H5  948   3.514   1.143   2.310 -2.2628 -1.0044 -3.6114
   42DG      H6  949   3.829   1.199   1.516  3.4272 -0.0245  1.3440
   42DG      H7  950   3.741   1.357   1.527 -2.1414 -0.0762  1.6225
   42DG      H8  951   3.886   1.331   1.619 -0.6274  0.8515 -0.4560
   42DG      O9  952   3.586   1.120   2.117  0.5295 -0.4508 -0.3866
   42DG     O10  953   3.722   1.216   1.683 -0.6586  0.8372 -0.1685
   42DG     C11  954   3.454   1.129   2.059 -0.2927  0.2447  0.7563
   42DG     C12  955   3.604   1.165   1.626 -0.9394 -0.2564 -0.3654
   42DG     H13  956   3.422   1.231   2.038 -2.4031 -0.5299 -0.0371
   42DG     H14  957   3.389   1.083   2.134 -1.1444  1.0865  0.5492
   42DG     H15  958   3.616   1.115   1.530 -1.1820  0.5945 -0.8431
   42DG     H16  959   3.537   1.247   1.600 -0.4183 -0.3336 -2.0930
   42DG     C17  960   3.448   1.053   1.933 -0.0327 -0.0865  0.5210
   42DG     C18  961   3.538   1.074   1.716  0.3800  0.4614 -0.5566
   42DG     O19  962   3.525   1.134   1.848  0.0648  0.3461  0.3733
   42DG     H20  963   3.354   1.020   1.889  0.0687  0.6486 -0.2930
   42DG     H21  964   3.511   0.965   1.941 -0.3112 -0.5379 -1.6652
   42DG     H22  965   3.436   1.055   1.683  0.3077 -0.4356  0.1536
   42DG     H23  966   3.593   0.981   1.725 -0.2661  0.2878  2.8339
   43DG      C1  967   0.745   3.639   1.801  0.1312  0.1484 -0.1863
   43DG      C2  968   0.964   4.020   1.777  0.1322  0.3762  0.2890
   43DG      H3  969   0.774   3.600   1.899 -0.5023 -2.5936 -1.0225
   43DG      H4  970   0.658   3.582   1.772  0.5717 -1.5773  1.6103
   43DG      H5  971   0.717   3.743   1.814 -1.3161 -0.4171  1.7552
   43DG      H6  972   0.966   4.127   1.760  1.0331  0.3482  0.1393
   43DG      H7  973   0.879   3.980   1.723  1.7696  1.1984 -3.1966
   43DG      H8  974   0.962   3.993   1.882  2.6149 -0.4159  0.2047
   43DG      O9  975   0.860   3.639   1.713 -0.3938  0.3284 -0.1671
   43DG     O10  976   1.078   3.962   1.706  0.0027 -1.0130  0.5627
   43DG     C11  977   0.812   3.667   1.583  0.7036  0.2484 -0.6978
   43DG     C12  978   1.094   3.987   1.571  0.1802 -0.1158 -0.4218
   43DG     H13  979   0.742   3.750   1.591  2.1866  1.5921 -1.1006
   43DG     H14  980   0.760   3.573   1.565  0.5576 -0.1020  1.3455
   43DG     H15  981   1.199   3.978   1.547 -0.0603  0.3376 -1.7076
   43DG     H16  982   1.075   4.093   1.553  0.4949  0.4266  2.0092
   43DG     C17  983   0.931   3.670   1.488  0.5566  0.0346  0.3287
   43DG     C18  984   1.009   3.893   1.488 -0.0132  0.8741  0.4012
   43DG     O19  985   1.033   3.761   1.532 -0.0983  0.0790  0.4089
   43DG     H20  986   0.907   3.683   1.383 -2.1154 -0.2343  0.8352
   43DG     H21  987   0.957   3.564   1.488  0.6050  0.0079  2.0598
   43DG     H22  988   0.904   3.922   1.489 -0.3795 -0.3808  1.5083
   43DG     H23  989   1.055   3.905   1.390  1.9078  0.8260  1.2624
   44DG      C1  990   1.472   4.621   4.374 -0.2285 -0.0698  0.1774
   44DG      C2  991   2.188   4.815   4.576  0.0434 -0.4162 -0.1378
   44DG      H3  992   1.458   4.522   4.418 -1.2027  0.1443  0.3669
   44DG      H4  993   1.438   4.620   4.270  0.4955  1.0729 -0.0850
   44DG      H5  994   1.404   4.697   4.413 -0.9863 -0.3379 -0.5870
   44DG      H6  995   2.127   4.898   4.613  2.4257  1.6205 -0.5416
   44DG      H7  996   2.285   4.842   4.619  0.7859  0.9504 -2.5113
   44DG      H8  997   2.216   4.805   4.472  3.1212 -1.4276  0.6779
   44DG      O9  998   1.606   4.658   4.389 -0.0582 -0.0136  0.2772
   44DG     O10  999   2.157   4.688   4.625 -0.2471 -0.2012  0.6507
   44DG     C11 1000   1.686   4.600   4.282 -0.7898  0.2969  0.0008
   44DG     C12 1001   2.026   4.661   4.575  0.2853 -0.4474  0.3294
   44DG     H13 1002   1.640   4.624   4.186 -0.8759 -2.3690 -0.6916
   44DG     H14 1003   1.695   4.493   4.299 -1.7734  0.0161 -1.1081
   44DG     H15 1004   1.949   4.724   4.619 -1.1192  0.0814 -2.6896
   44DG     H16 1005   2.018   4.558   4.610 -0.4668 -0.4643  0.1085
   44DG     C17 1006   1.826   4.666   4.285  0.8008  0.6195  0.4998
   44DG     C18 1007   2.013   4.663   4.425  0.3385 -0.1328  0.2099
   44DG     O19 1008   1.870   4.633   4.410  0.0422 -0.3227  0.4074
   44DG     H20 1009   1.811   4.774   4.289 -2.1656  0.3286 -0.1836
   44DG     H21 1010   1.896   4.644   4.204  0.3473 -0.8940  0.4897
   44DG     H22 1011   2.029   4.764   4.387  3.0122  0.0002  1.4421
   44DG     H23 1012   2.087   4.600   4.375 -0.4036  0.1531 -1.3156
   45DG      C1 1013   2.059   1.934   1.843  0.3590  0.1269 -0.1954
   45DG      C2 1014   2.091   2.117   1.268  0.6260  0.1192  0.6173
   45DG      H3 1015   1.953   1.911   1.844  0.4915 -0.4992  0.6803
   45DG      H4 1016   2.086   1.933   1.949 -0.7227 -1.1200  0.0993
   45DG      H5 1017   2.106   1.842   1.810 -0.4390 -0.6913  0.8613
   45DG      H6 1018   2.179   2.116   1.204 -0.7262 -0.9543 -1.3323
   45DG      H7 1019   2.062   2.012   1.268 -0.7810  0.4877  0.7091
   45DG      H8 1020   2.018   2.173   1.209 -0.9332 -1.2241  1.1869
   45DG      O9 1021   2.100   2.048   1.769  0.5351  0.4766 -0.4366
   45DG     O10 1022   2.110   2.157   1.400  0.1926 -0.6216  0.1088
   45DG     C11 1023   2.073   2.165   1.837  0.0018  0.4116 -0.4010
   45DG     C12 1024   2.123   2.302   1.390  0.1315  0.3412 -0.3878
   45DG     H13 1025   2.118   2.149   1.935 -2.2347 -2.5034  0.2781
   45DG     H14 1026   1.966   2.174   1.854 -0.1435 -2.4667  0.7628
   45DG     H15 1027   2.026   2.342   1.360  0.6243  0.4717 -1.8957
   45DG     H16 1028   2.198   2.336   1.318 -0.2942  0.9504 -0.5539
   45DG     C17 1029   2.136   2.276   1.757  0.3948 -0.3873 -0.0094
   45DG     C18 1030   2.157   2.348   1.534 -0.3365  0.5538 -0.6135
   45DG     O19 1031   2.094   2.253   1.623  0.6694 -0.1349  0.0323
   45DG     H20 1032   2.245   2.264   1.753  0.4462 -0.2104  0.7535
   45DG     H21 1033   2.111   2.376   1.792  1.6086  0.2953 -0.9905
   45DG     H22 1034   2.261   2.326   1.558 -0.9204  0.4817  2.2004
   45DG     H23 1035   2.158   2.455   1.555  3.1728  0.2569  1.6063
   46DG      C1 1036   0.662   0.231   1.415 -0.5444 -0.0683 -0.2804
   46DG      C2 1037   0.694   0.826   1.267 -0.3529 -0.4613 -0.2155
   46DG      H3 1038   0.627   0.234   1.519  2.6741 -1.7080  0.9942
   46DG      H4 1039   0.720   0.141   1.397 -0.8326 -0.6003  1.2244
   46DG      H5 1040   0.577   0.242   1.348  0.9806 -0.2558 -2.3365
   46DG      H6 1041   0.785   0.814   1.208  0.1525 -1.2008  0.6786
   46DG      H7 1042   0.673   0.932   1.280 -0.1659  0.1587 -4.0067
   46DG      H8 1043   0.718   0.801   1.371 -0.4042  1.2731  0.2477
   46DG      O9 1044   0.731   0.350   1.398 -0.1217 -0.2805  0.1862
   46DG     O10 1045   0.584   0.751   1.209 -0.1110 -0.2836 -0.4561
   46DG     C11 1046   0.818   0.362   1.285 -0.5024 -0.9248  0.5682
   46DG     C12 1047   0.599   0.717   1.074  0.1925  0.4061 -0.2097
   46DG     H13 1048   0.882   0.275   1.276  0.9918  0.2056 -0.0921
   46DG     H14 1049   0.876   0.451   1.310 -0.9245 -0.5541  0.2557
   46DG     H15 1050   0.618   0.796   1.001 -0.8181  0.6553 -0.2149
   46DG     H16 1051   0.501   0.680   1.043 -0.5213  1.2892  0.9080
   46DG     C17 1052   0.737   0.378   1.160 -0.0209  0.1550 -0.2939
   46DG     C18 1053   0.695   0.597   1.065 -0.3319  0.2046  0.1160
   46DG     O19 1054   0.662   0.503   1.165 -0.0707  0.0727  0.0684
   46DG     H20 1055   0.669   0.294   1.154  0.2676 -0.2961  2.0436
   46DG     H21 1056   0.797   0.365   1.070 -1.3108  2.9066 -1.6753
   46DG     H22 1057   0.687   0.552   0.966 -0.3279 -3.0102  1.4256
   46DG     H23 1058   0.801   0.618   1.080 -0.2782 -0.8294  1.4276
   47DG      C1 1059   4.018   0.629   0.373  0.2768  0.6856  0.0487
   47DG      C2 1060   3.862   1.267   0.352 -0.2618 -0.4379 -0.0888
   47DG      H3 1061   4.034   0.545   0.441  2.2439  0.7390 -0.2942
   47DG      H4 1062   4.078   0.613   0.284 -1.2049  2.5397 -1.3636
   47DG      H5 1063   3.910   0.626   0.356  0.2833  0.2852  0.0704
   47DG      H6 1064   3.839   1.332   0.436 -2.7975  2.4610 -2.7569
   47DG      H7 1065   3.909   1.332   0.278  0.1033 -1.3664 -0.6946
   47DG      H8 1066   3.783   1.217   0.295 -0.1816  0.0092 -0.5995
   47DG      O9 1067   4.052   0.757   0.420  0.2482 -0.1354 -0.1477
   47DG     O10 1068   3.966   1.180   0.396  0.2947 -0.1519 -0.1349
   47DG     C11 1069   4.185   0.769   0.456  0.2794 -0.6586  0.4546
   47DG     C12 1070   4.103   1.227   0.396 -0.5800  0.4509 -0.4597
   47DG     H13 1071   4.244   0.759   0.365 -0.2511  1.5236 -0.1785
   47DG     H14 1072   4.221   0.694   0.527  0.6531 -0.0739  0.8846
   47DG     H15 1073   4.113   1.330   0.427  1.4360  0.1694 -0.0537
   47DG     H16 1074   4.143   1.223   0.295 -1.5367  1.9564 -0.9381
   47DG     C17 1075   4.216   0.904   0.514 -0.0913 -0.0524  0.3756
   47DG     C18 1076   4.188   1.129   0.481  0.1487 -0.0155 -0.0355
   47DG     O19 1077   4.167   1.001   0.431  0.1712 -0.3075  0.4887
   47DG     H20 1078   4.324   0.915   0.525  0.0361 -0.7340 -0.1559
   47DG     H21 1079   4.171   0.904   0.614  1.0498 -0.7438  0.9129
   47DG     H22 1080   4.291   1.160   0.493  0.1169 -0.7331  3.2243
   47DG     H23 1081   4.143   1.139   0.580 -1.6438 -1.6134 -0.6064
   48DG      C1 1082   1.200   4.948   4.783  0.8897 -0.4256  0.4603
   48DG      C2 1083   1.017   5.503   4.177  0.6492  0.0212  0.3684
   48DG      H3 1084   1.240   4.855   4.823 -0.2200 -1.0779  0.0917
   48DG      H4 1085   1.092   4.935   4.784  0.6935  0.3433 -2.3365
   48DG      H5 1086   1.216   5.037   4.844 -0.6278 -0.0739  0.3951
   48DG      H6 1087   1.099   5.514   4.247  0.5084  1.3447  0.3471
   48DG      H7 1088   1.028   5.584   4.104 -1.9253  0.6912  0.5968
   48DG      H8 1089   0.923   5.528   4.227  0.2006  0.4979 -0.6813
   48DG      O9 1090   1.238   4.975   4.645 -0.4519  0.3673  0.0446
   48DG     O10 1091   1.030   5.384   4.093  0.2278 -0.7892 -0.7616
   48DG     C11 1092   1.151   5.055   4.567  0.5542 -0.6297  0.2807
   48DG     C12 1093   1.006   5.267   4.158 -0.9590  0.1751  0.1112
   48DG     H13 1094   1.133   5.145   4.626  0.2604  1.2500 -2.4913
   48DG     H14 1095   1.055   5.003   4.563  0.2846 -0.1632  0.6116
   48DG     H15 1096   0.988   5.191   4.083  1.6414  0.9658 -1.4595
   48DG     H16 1097   0.907   5.278   4.203 -1.3391 -1.5705 -0.2247
   48DG     C17 1098   1.200   5.094   4.428  0.6984 -0.0992 -0.8213
   48DG     C18 1099   1.116   5.243   4.271 -0.1197  0.1556  0.9511
   48DG     O19 1100   1.087   5.133   4.351  0.0354  0.2825 -0.0702
   48DG     H20 1101   1.238   4.997   4.395  0.0688 -0.8882  0.6707
   48DG     H21 1102   1.283   5.163   4.445  0.4998  0.7369 -2.9022
   48DG     H22 1103   1.210   5.227   4.219 -0.7040  0.0831 -0.1189
   48DG     H23 1104   1.135   5.327   4.339 -0.2082  0.0876  1.0595
   49DG      C1 1105   2.276   0.504   3.130 -0.5952 -0.1259  0.3337
   49DG      C2 1106   2.813   0.337   2.802  0.1565  0.5263 -0.0238
   49DG      H3 1107   2.219   0.555   3.208 -1.7903 -0.5987 -0.1928
   49DG      H4 1108   2.274   0.397   3.153 -1.0047 -0.4223 -0.9951
   49DG      H5 1109   2.234   0.521   3.031 -2.5924  0.5392  1.2466
   49DG      H6 1110   2.742   0.326   2.720 -0.1967 -2.1740  0.5461
   49DG      H7 1111   2.913   0.358   2.764 -0.0016  1.6944  0.1637
   49DG      H8 1112   2.816   0.237   2.846  4.7687  0.6498  0.4640
   49DG      O9 1113   2.405   0.554   3.125 -0.1261  0.2845 -0.1753
   49DG     O10 1114   2.773   0.421   2.908  0.5675 -0.4046  0.2008
   49DG     C11 1115   2.460   0.564   3.251 -0.0336  0.0232 -0.6777
   49DG     C12 1116   2.875   0.432   3.019  0.8345 -0.0686 -0.5183
   49DG     H13 1117   2.455   0.464   3.293 -1.3890 -0.2560 -1.4342
   49DG     H14 1118   2.411   0.624   3.329  0.8209 -2.9430  2.3528
   49DG     H15 1119   2.974   0.461   2.983 -0.1172  1.9110 -1.7143
   49DG     H16 1120   2.886   0.332   3.061 -2.9472 -0.7966 -0.9115
   49DG     C17 1121   2.618   0.598   3.233  1.1032 -0.1250 -0.1730
   49DG     C18 1122   2.816   0.520   3.134  0.2832 -0.0496  0.2289
   49DG     O19 1123   2.673   0.496   3.145  0.2431  0.4653 -0.1960
   49DG     H20 1124   2.675   0.604   3.326 -1.2287  1.6136  1.2336
   49DG     H21 1125   2.628   0.693   3.181 -3.0727  0.2775 -0.5559
   49DG     H22 1126   2.873   0.494   3.223  2.1063  1.9663 -0.2709
   49DG     H23 1127   2.826   0.625   3.109  1.9551 -0.3856 -0.6884
   50DG      C1 1128   0.050   3.252   3.496  0.2275 -0.3809  0.4669
   50DG      C2 1129  -0.109   2.837   3.942  0.5249 -1.1537 -0.3872
   50DG      H3 1130  -0.000   3.178   3.433 -0.0241 -0.6629  0.9903
   50DG      H4 1131   0.089   3.321   3.422 -0.7969  0.4588  0.6815
   50DG      H5 1132  -0.018   3.316   3.553  1.8325  0.5761  1.3765
   50DG      H6 1133  -0.089   2.812   4.046  0.5886 -0.7192 -0.2931
   50DG      H7 1134  -0.169   2.926   3.961  0.8789 -0.4706 -2.3099
   50DG      H8 1135  -0.175   2.759   3.903 -1.4986 -1.0807  2.5588
   50DG      O9 1136   0.150   3.199   3.582  0.1074  0.1174 -0.0607
   50DG     O10 1137   0.003   2.879   3.861 -0.0972  0.1996  0.3548
   50DG     C11 1138   0.236   3.107   3.513 -0.2883  0.4330  0.2591
   50DG     C12 1139   0.104   2.779   3.841  0.0664 -0.5924 -0.0481
   50DG     H13 1140   0.320   3.160   3.466 -1.0409  1.1233 -0.3436
   50DG     H14 1141   0.187   3.050   3.434 -1.0569  0.1195  0.9499
   50DG     H15 1142   0.075   2.697   3.775 -0.3379  1.1466 -2.1829
   50DG     H16 1143   0.119   2.729   3.936  0.2691 -0.4299  0.0069
   50DG     C17 1144   0.288   2.994   3.604 -0.1824 -0.1278  0.2271
   50DG     C18 1145   0.223   2.835   3.771  0.0833  0.4881  0.3436
   50DG     O19 1146   0.185   2.925   3.664 -0.2259  0.0988 -0.0791
   50DG     H20 1147   0.358   3.038   3.674 -0.1278 -0.6827  0.5309
   50DG     H21 1148   0.340   2.914   3.552 -0.2985 -0.5465  0.7375
   50DG     H22 1149   0.282   2.888   3.846  0.7016 -0.5917  0.6439
   50DG     H23 1150   0.280   2.755   3.725 -0.5324  0.4257 -0.3263
   51DG      C1 1151   4.146   4.920   4.644  0.0479  0.2466  0.3163
   51DG      C2 1152   3.932   5.495   5.003  0.8744  0.1279  0.0946
   51DG      H3 1153   4.039   4.901   4.637 -0.2475  1.9724 -0.4209
   51DG      H4 1154   4.193   4.833   4.689  0.0804 -0.5874 -1.2547
   51DG      H5 1155   4.188   4.920   4.543 -3.1377  3.5114 -1.2631
   51DG      H6 1156   3.939   5.603   5.010 -2.2804  0.6375 -2.3677
   51DG      H7 1157   3.844   5.474   4.943  1.3602  1.3463 -1.0926
   51DG      H8 1158   3.900   5.445   5.095 -3.0144  0.6283 -0.8421
   51DG      O9 1159   4.173   5.026   4.738  0.1470 -0.0433 -0.5689
   51DG     O10 1160   4.047   5.431   4.950  0.3881  0.1592  0.1980
   51DG     C11 1161   4.293   5.100   4.707  0.2083  0.0036 -0.2843
   51DG     C12 1162   4.164   5.461   5.013 -0.2403 -0.4493 -0.3656
   51DG     H13 1163   4.277   5.173   4.629  3.3502  0.8806 -0.2293
   51DG     H14 1164   4.367   5.029   4.671 -1.5196 -2.4456  0.6183
   51DG     H15 1165   4.141   5.451   5.119 -0.8705  1.3884 -0.3023
   51DG     H16 1166   4.186   5.566   4.998 -2.9253  0.3727  0.8829
   51DG     C17 1167   4.339   5.178   4.831  1.3529 -0.5985 -0.5625
   51DG     C18 1168   4.273   5.363   4.976 -0.5308 -0.2681  0.2744
   51DG     O19 1169   4.241   5.286   4.862 -0.4262 -0.3987  0.7530
   51DG     H20 1170   4.437   5.218   4.805  1.0944  0.2460 -0.2791
   51DG     H21 1171   4.338   5.119   4.922 -0.2849  0.5623  0.2259
   51DG     H22 1172   4.374   5.404   4.965 -1.3140  1.2286 -2.0894
   51DG     H23 1173   4.289   5.291   5.056 -0.7965 -0.0913  0.4883
   52DG      C1 1174   0.700   0.688   2.831 -0.3220  0.2574  1.2240
   52DG      C2 1175   0.267   0.379   3.482 -0.1205  0.3158  0.2672
   52DG      H3 1176   0.703   0.607   2.758  1.1473 -0.6217  2.2003
   52DG      H4 1177   0.792   0.747   2.830 -0.6541  0.8410 -0.8723
   52DG      H5 1178   0.615   0.744   2.791  0.0017 -0.4373 -0.5695
   52DG      H6 1179   0.250   0.334   3.580  0.4692 -2.6467 -0.8748
   52DG      H7 1180   0.203   0.467   3.471  0.8871  0.8470 -1.8747
   52DG      H8 1181   0.266   0.299   3.408  1.0130  1.7411 -1.3619
   52DG      O9 1182   0.676   0.628   2.956 -0.1407 -0.5842 -0.6818
   52DG     O10 1183   0.401   0.411   3.467 -0.0628  0.4866  0.3289
   52DG     C11 1184   0.685   0.728   3.060  0.1547  0.6097  0.0927
   52DG     C12 1185   0.437   0.471   3.340 -0.6434 -0.5210 -0.2766
   52DG     H13 1186   0.590   0.780   3.072 -1.3888 -2.4476  3.0820
   52DG     H14 1187   0.772   0.793   3.051  0.6766  0.3034  2.4258
   52DG     H15 1188   0.377   0.560   3.322  0.0256 -0.0213 -0.0703
   52DG     H16 1189   0.420   0.409   3.252  2.2202 -1.0790 -0.5197
   52DG     C17 1190   0.698   0.664   3.193  0.0710 -0.6722 -0.0259
   52DG     C18 1191   0.583   0.512   3.331  0.5554  0.4144 -0.3332
   52DG     O19 1192   0.588   0.586   3.210 -0.0423 -0.1469 -0.4119
   52DG     H20 1193   0.695   0.750   3.260  0.3506  1.2476 -2.3555
   52DG     H21 1194   0.790   0.605   3.188  1.7493  1.7730  0.1957
   52DG     H22 1195   0.605   0.572   3.420 -0.8532 -1.5305  1.4219
   52DG     H23 1196   0.647   0.424   3.328 -0.9821 -0.7160 -3.6280
   53DG      C1 1197   4.657   3.729   1.071 -0.2505  0.4539 -0.1574
   53DG      C2 1198   5.190   4.006   1.427  0.1404 -0.2652  0.3035
   53DG      H3 1199   4.707   3.633   1.081 -1.1584  0.0808  0.9088
   53DG      H4 1200   4.624   3.707   0.969  0.3118  0.2265 -0.2943
   53DG      H5 1201   4.568   3.740   1.133  0.3585  1.8255  0.5279
   53DG      H6 1202   5.169   3.915   1.484 -2.4589 -0.6822 -1.1841
   53DG      H7 1203   5.296   4.012   1.401  0.6098 -0.5688  2.0174
   53DG      H8 1204   5.176   4.092   1.493  0.9859  1.3607 -1.5636
   53DG      O9 1205   4.750   3.835   1.072 -0.1203 -0.7677 -1.2246
   53DG     O10 1206   5.101   4.006   1.320 -0.1161  0.7524  0.5407
   53DG     C11 1207   4.688   3.960   1.051 -0.0792  0.2755  0.1507
   53DG     C12 1208   5.104   4.126   1.245  0.0726  0.0382  0.9615
   53DG     H13 1209   4.624   3.987   1.135 -1.5735 -1.1396 -0.4523
   53DG     H14 1210   4.615   3.955   0.970 -0.1563  0.5435  0.2032
   53DG     H15 1211   5.206   4.149   1.214 -0.1766  0.8455  0.7225
   53DG     H16 1212   5.062   4.203   1.310 -0.2853  1.2875 -0.6972
   53DG     C17 1213   4.794   4.072   1.035  0.6431  0.0377 -0.1281
   53DG     C18 1214   5.012   4.127   1.118 -0.6357  0.2310  0.1398
   53DG     O19 1215   4.879   4.081   1.148  0.1542  0.2152  0.5423
   53DG     H20 1216   4.743   4.168   1.028 -0.0253 -0.2792  0.3658
   53DG     H21 1217   4.857   4.055   0.947  0.9221  2.1145 -0.3924
   53DG     H22 1218   4.998   4.223   1.069  1.8116 -0.1645 -1.5121
   53DG     H23 1219   5.063   4.065   1.044  0.3559  0.3963  0.6648
   54DG      C1 1220   5.250   3.248   1.862 -0.2722  0.4702 -0.0073
   54DG      C2 1221   5.790   3.606   1.784  0.3893  0.3883  0.4189
   54DG      H3 1222   5.226   3.354   1.875 -0.3908  0.3638  0.7015
   54DG      H4 1223   5.291   3.219   1.959  2.0784  1.6975 -0.5531
   54DG      H5 1224   5.161   3.193   1.833  1.0118 -1.1671 -0.9808
   54DG      H6 1225   5.724   3.667   1.847 -0.4263 -0.1686  0.1283
   54DG      H7 1226   5.860   3.558   1.852 -0.3807  0.3784  1.2307
   54DG      H8 1227   5.839   3.667   1.709 -0.0459 -2.0466 -2.0235
   54DG      O9 1228   5.353   3.247   1.769  0.3502 -0.6920 -0.1661
   54DG     O10 1229   5.708   3.508   1.730  0.0821 -0.3116 -0.1346
   54DG     C11 1230   5.415   3.121   1.747 -0.4587  0.6176 -0.8866
   54DG     C12 1231   5.784   3.403   1.681  0.2833 -0.0481  0.2985
   54DG     H13 1232   5.350   3.043   1.709 -1.7977  0.6718  1.1200
   54DG     H14 1233   5.472   3.092   1.836 -0.0610  3.4435 -0.1274
   54DG     H15 1234   5.852   3.351   1.749 -0.9322 -1.1447  0.7231
   54DG     H16 1235   5.854   3.443   1.608  0.8084 -1.5797 -0.0728
   54DG     C17 1236   5.513   3.160   1.647 -0.2684  0.2212 -0.2628
   54DG     C18 1237   5.698   3.304   1.609  0.0943 -0.0426  0.2405
   54DG     O19 1238   5.605   3.253   1.702  0.1850  0.4839 -0.1091
   54DG     H20 1239   5.464   3.199   1.558  2.3818 -0.6084 -2.2356
   54DG     H21 1240   5.575   3.073   1.621  2.8601  2.6946 -1.8319
   54DG     H22 1241   5.644   3.359   1.531  2.3756 -0.7442 -1.9652
   54DG     H23 1242   5.755   3.224   1.561  0.6214  0.2426  0.3835
   55DG      C1 1243   4.122   2.028   4.259  0.1528 -0.0524 -0.3364
   55DG      C2 1244   4.307   1.565   3.838  0.3770  0.0328  0.9882
   55DG      H3 1245   4.106   2.029   4.367  1.8714 -1.5754  0.0033
   55DG      H4 1246   4.096   2.125   4.218 -0.9940  0.5188  1.6413
   55DG      H5 1247   4.229   2.016   4.242 -0.0062 -0.0810 -1.3381
   55DG      H6 1248   4.334   1.618   3.747 -0.0323 -1.2510  0.0818
   55DG      H7 1249   4.391   1.578   3.906  0.4998  2.1807  0.4876
   55DG      H8 1250   4.298   1.457   3.820 -0.0636  0.2985 -0.5339
   55DG      O9 1251   4.067   1.913   4.204  0.3829  0.2056 -0.1205
   55DG     O10 1252   4.197   1.623   3.901  0.8167  0.6149  0.4915
   55DG     C11 1253   3.940   1.944   4.149 -0.0963  0.0484 -1.0527
   55DG     C12 1254   4.066   1.608   3.842  0.4737  0.6181 -0.1034
   55DG     H13 1255   3.951   2.013   4.065  1.1524  0.4233 -0.6117
   55DG     H14 1256   3.873   1.986   4.224 -0.8342 -2.4619 -0.1908
   55DG     H15 1257   4.058   1.503   3.813  1.2564  0.6530 -0.4932
   55DG     H16 1258   4.070   1.673   3.754  0.6057  0.8421  0.0664
   55DG     C17 1259   3.880   1.824   4.087  0.2690  0.6337  0.4085
   55DG     C18 1260   3.947   1.648   3.929 -0.1336 -0.3528  0.6414
   55DG     O19 1261   3.979   1.770   3.996  0.9777  0.4546 -0.2264
   55DG     H20 1262   3.798   1.853   4.022 -1.3020 -1.5163  1.2877
   55DG     H21 1263   3.847   1.745   4.155 -2.4129  1.2017 -0.1435
   55DG     H22 1264   3.865   1.660   3.858 -0.9206  1.0151  1.7291
   55DG     H23 1265   3.909   1.576   4.001 -2.0448  0.3892  0.4500
   56DG      C1 1266   0.307   4.330   5.144  0.5168  1.2345  0.8294
   56DG      C2 1267   0.489   4.905   5.050 -0.0982  0.1135  0.3249
   56DG      H3 1268   0.287   4.229   5.110  1.0564 -0.0766  4.1013
   56DG      H4 1269   0.246   4.351   5.232 -0.6626 -0.4575  0.4561
   56DG      H5 1270   0.406   4.329   5.190  0.4909  1.1216  0.8834
   56DG      H6 1271   0.417   4.986   5.039 -0.8008 -0.6503 -1.0277
   56DG      H7 1272   0.508   4.898   5.157  0.2610  0.3128  0.2741
   56DG      H8 1273   0.575   4.932   4.989 -0.3181 -0.9987 -0.5204
   56DG      O9 1274   0.292   4.431   5.044  0.5380  0.0944 -0.1153
   56DG     O10 1275   0.422   4.780   5.007 -0.0891  0.1599 -0.1601
   56DG     C11 1276   0.145   4.433   5.004 -0.2064 -0.4072 -0.4328
   56DG     C12 1277   0.419   4.767   4.867  0.0166 -0.6716  0.1502
   56DG     H13 1278   0.076   4.489   5.066 -2.2571  0.6053 -3.4159
   56DG     H14 1279   0.107   4.331   4.990  0.2122 -0.6197 -0.0531
   56DG     H15 1280   0.520   4.757   4.826  0.5060 -1.1467  1.4166
   56DG     H16 1281   0.384   4.861   4.825  0.1797  0.1443  1.7574
   56DG     C17 1282   0.143   4.516   4.869  0.4250  0.2306  0.0674
   56DG     C18 1283   0.344   4.634   4.832 -0.0390 -0.2525  0.7282
   56DG     O19 1284   0.214   4.637   4.883  0.1847 -0.0447 -0.2514
   56DG     H20 1285   0.043   4.550   4.843  0.4930  0.5373  0.2006
   56DG     H21 1286   0.186   4.458   4.788  3.2268  1.9083  0.2107
   56DG     H22 1287   0.339   4.632   4.723 -2.9619  2.8097  0.6615
   56DG     H23 1288   0.415   4.565   4.879 -0.5619 -0.5596  1.0754
   57DG      C1 1289   1.477   0.629   1.751  0.4344  0.2840  0.1819
   57DG      C2 1290   1.460   0.021   2.002 -0.1400 -0.0674  0.0348
   57DG      H3 1291   1.585   0.632   1.740  0.3278  2.1015 -0.8185
   57DG      H4 1292   1.437   0.727   1.724 -1.2721 -0.1568  0.9645
   57DG      H5 1293   1.454   0.554   1.676  0.7195 -0.4621  0.8253
   57DG      H6 1294   1.415  -0.017   1.910 -0.4096  1.1939 -0.3801
   57DG      H7 1295   1.566  -0.001   2.011 -0.1588  0.2273  1.0560
   57DG      H8 1296   1.409  -0.041   2.076  0.7561 -1.7933 -0.7372
   57DG      O9 1297   1.434   0.582   1.878 -0.2793 -0.3973  0.9883
   57DG     O10 1298   1.426   0.155   2.036 -0.2712 -0.5270  0.0579
   57DG     C11 1299   1.487   0.653   1.992  0.4734  0.1122 -0.3090
   57DG     C12 1300   1.479   0.200   2.166  0.3122 -0.0090  0.0691
   57DG     H13 1301   1.436   0.747   2.010  3.5159  1.6394  1.1487
   57DG     H14 1302   1.592   0.684   1.985  0.2926  0.9760  0.5431
   57DG     H15 1303   1.587   0.209   2.160  0.0481  3.2309 -1.8680
   57DG     H16 1304   1.446   0.134   2.247  1.2593 -0.4061  0.1406
   57DG     C17 1305   1.462   0.568   2.121 -0.0741 -0.4505  0.7066
   57DG     C18 1306   1.439   0.348   2.194  0.0071 -0.0227  0.1755
   57DG     O19 1307   1.502   0.436   2.100  0.2109  0.5954 -0.3442
   57DG     H20 1308   1.354   0.578   2.135 -0.2299 -0.0999 -0.6468
   57DG     H21 1309   1.515   0.623   2.198  1.0278  2.4464 -1.9263
   57DG     H22 1310   1.331   0.359   2.186  0.0339  1.3160  1.2207
   57DG     H23 1311   1.478   0.382   2.290  1.3836  0.3313 -0.4775
   58DG      C1 1312   0.632   3.629   1.277 -0.0632  0.2636 -0.2107
   58DG      C2 1313   0.114   4.079   0.688  0.9041  0.9015 -0.3791
   58DG      H3 1314   0.617   3.532   1.229 -0.1293 -0.1774  0.6806
   58DG      H4 1315   0.566   3.638   1.364  1.4966 -0.1715  1.0674
   58DG      H5 1316   0.727   3.633   1.330 -0.4507  1.5739  0.4215
   58DG      H6 1317   0.220   4.100   0.684  0.8135  1.3501 -0.4634
   58DG      H7 1318   0.094   3.986   0.635  0.9018 -0.7503  2.2950
   58DG      H8 1319   0.056   4.157   0.639 -1.8616 -1.3501 -1.0388
   58DG      O9 1320   0.603   3.741   1.197  0.3392 -0.1653  0.3253
   58DG     O10 1321   0.058   4.072   0.823 -0.1197 -0.3217 -0.1258
   58DG     C11 1322   0.469   3.737   1.131 -0.0129  0.1734  0.4335
   58DG     C12 1323   0.106   3.955   0.887 -0.4565  0.0490 -0.5821
   58DG     H13 1324   0.401   3.696   1.205  1.1035 -3.5789 -0.3934
   58DG     H14 1325   0.471   3.659   1.055 -2.5371  0.7436 -0.2840
   58DG     H15 1326   0.080   3.872   0.820 -0.8363  0.8885 -1.5120
   58DG     H16 1327   0.037   3.947   0.971 -0.2185  0.3711 -0.3579
   58DG     C17 1328   0.429   3.864   1.054  0.2458  0.3441 -0.4517
   58DG     C18 1329   0.255   3.964   0.931  0.4386 -0.1745  0.4555
   58DG     O19 1330   0.307   3.841   0.977  0.3600  0.4041 -0.1064
   58DG     H20 1331   0.514   3.893   0.992 -0.7376  0.1997 -1.8945
   58DG     H21 1332   0.402   3.943   1.124 -0.7501  1.7371 -2.3433
   58DG     H22 1333   0.323   4.001   0.854  1.8468  1.8734  2.5467
   58DG     H23 1334   0.257   4.038   1.011 -0.9834  0.9493 -0.5035
   59DG      C1 1335   2.374   2.904   4.557 -0.1267  0.5335  0.1308
   59DG      C2 1336   2.916   3.391   4.265 -0.7236  0.6510  0.2630
   59DG      H3 1337   2.295   2.893   4.631  0.7699  0.8106  1.1572
   59DG      H4 1338   2.457   2.868   4.617 -2.3689 -0.5079  2.7986
   59DG      H5 1339   2.369   2.859   4.458 -2.8841 -0.5744  0.6799
   59DG      H6 1340   2.908   3.330   4.175 -0.8022  2.2960 -0.8862
   59DG      H7 1341   2.982   3.474   4.238  1.2238 -0.6779  0.7306
   59DG      H8 1342   2.970   3.334   4.340  1.2623  2.5864  0.4117
   59DG      O9 1343   2.408   3.041   4.537  0.3060  0.1650  0.4326
   59DG     O10 1344   2.781   3.430   4.300  0.0740  0.0871 -0.0443
   59DG     C11 1345   2.311   3.116   4.468 -0.0107  0.0572 -0.1441
   59DG     C12 1346   2.708   3.316   4.336  0.4819  0.2925  0.5129
   59DG     H13 1347   2.209   3.111   4.507  0.8707 -2.2713  2.1865
   59DG     H14 1348   2.316   3.068   4.370 -0.1811  0.3813 -0.3096
   59DG     H15 1349   2.761   3.271   4.420 -0.7111 -0.3956  0.9156
   59DG     H16 1350   2.695   3.257   4.245 -0.2602  0.5564  0.4434
   59DG     C17 1351   2.364   3.258   4.451  0.9102  0.2114 -0.1153
   59DG     C18 1352   2.566   3.364   4.383 -0.2773 -0.2350  0.0918
   59DG     O19 1353   2.485   3.247   4.380 -0.1870 -0.3560  0.0736
   59DG     H20 1354   2.377   3.304   4.550  1.7093 -0.1527 -0.0374
   59DG     H21 1355   2.299   3.323   4.394  1.3793  1.8741  1.1686
   59DG     H22 1356   2.578   3.400   4.485  1.4938  1.9590 -0.8048
   59DG     H23 1357   2.536   3.441   4.312  0.8616 -0.0721 -0.2383
   60DG      C1 1358   1.828   4.338   2.984 -0.2305  0.8746 -0.5012
   60DG      C2 1359   1.351   3.969   2.712 -0.4840 -0.0084 -0.0141
   60DG      H3 1360   1.880   4.419   3.035  0.2107 -0.2387  0.8414
   60DG      H4 1361   1.911   4.274   2.955 -0.2899 -0.0620  1.2875
   60DG      H5 1362   1.777   4.280   3.060 -0.0342 -2.2850 -2.5770
   60DG      H6 1363   1.272   3.944   2.641  0.4269 -1.0859 -0.7051
   60DG      H7 1364   1.434   3.897   2.710  1.5565  1.8047  4.7743
   60DG      H8 1365   1.316   3.959   2.814 -0.8901 -0.9733 -0.2364
   60DG      O9 1366   1.750   4.366   2.869  0.1571  0.2603  0.1584
   60DG     O10 1367   1.413   4.091   2.700  0.5375  0.2704  0.1952
   60DG     C11 1368   1.676   4.478   2.897  0.7769 -0.1316  0.6789
   60DG     C12 1369   1.320   4.209   2.722 -0.2105  0.6406 -0.0382
   60DG     H13 1370   1.746   4.558   2.872 -1.0890  0.8770 -1.7482
   60DG     H14 1371   1.625   4.480   2.994 -1.3802  1.8539 -0.3900
   60DG     H15 1372   1.293   4.207   2.827  1.0501 -2.0262  0.3093
   60DG     H16 1373   1.237   4.203   2.651 -0.3790 -2.3256  0.3117
   60DG     C17 1374   1.568   4.475   2.782  0.5057  0.1477  0.0841
   60DG     C18 1375   1.393   4.348   2.700  0.4672  0.2391  0.3318
   60DG     O19 1376   1.493   4.357   2.803 -0.4076  0.2972  0.1535
   60DG     H20 1377   1.624   4.485   2.688 -1.1486  1.7356 -0.7949
   60DG     H21 1378   1.508   4.564   2.800 -2.4544 -1.7629  0.3182
   60DG     H22 1379   1.428   4.364   2.598 -3.8435  2.4732 -1.0595
   60DG     H23 1380   1.324   4.432   2.698  0.5169  0.2810  0.3685
   61DG      C1 1381   3.152   0.763   2.221 -0.0469  0.5264  0.5624
   61DG      C2 1382   3.981   1.005   2.661  0.0807  0.6672 -0.3153
   61DG      H3 1383   3.100   0.668   2.236  2.8114 -1.6772 -2.0774
   61DG      H4 1384   3.179   0.767   2.115 -1.9522 -1.3749 -0.0674
   61DG      H5 1385   3.088   0.849   2.241 -1.4288 -0.4868  0.6379
   61DG      H6 1386   4.005   1.098   2.608  2.4382 -0.6433 -1.7558
   61DG      H7 1387   3.964   1.020   2.767 -0.0548 -0.2148 -0.2042
   61DG      H8 1388   4.081   0.961   2.667  0.8406  1.7575 -2.9650
   61DG      O9 1389   3.263   0.751   2.309 -0.0114  0.3625  0.5340
   61DG     O10 1390   3.896   0.916   2.585 -0.4760  0.1644 -0.0276
   61DG     C11 1391   3.372   0.838   2.289  0.6689 -0.0502  0.7292
   61DG     C12 1392   3.766   0.978   2.550 -0.1053  0.2781  0.5505
   61DG     H13 1393   3.328   0.930   2.326 -0.3862  0.3965 -1.4486
   61DG     H14 1394   3.407   0.844   2.186  1.3756  3.4184  1.0555
   61DG     H15 1395   3.783   1.060   2.480  2.2323  0.1161  0.8591
   61DG     H16 1396   3.705   1.020   2.630 -1.5213 -0.6958  0.0261
   61DG     C17 1397   3.480   0.795   2.384  0.0970  0.7400  0.3174
   61DG     C18 1398   3.691   0.860   2.492  0.4359 -0.3152  0.2774
   61DG     O19 1399   3.578   0.892   2.405 -0.8906 -0.3794 -0.6748
   61DG     H20 1400   3.533   0.704   2.358  1.6327  1.7213 -0.1248
   61DG     H21 1401   3.435   0.785   2.483  0.5101 -1.1341  0.3533
   61DG     H22 1402   3.760   0.794   2.440 -0.5038 -0.1484 -1.2528
   61DG     H23 1403   3.659   0.796   2.573 -1.9526  0.7700  0.2796
   62DG      C1 1404   4.244   1.878   1.170 -0.3526 -0.2200  0.5578
   62DG      C2 1405   4.811   1.597   0.939  0.0500  0.4850 -0.6405
   62DG      H3 1406   4.298   1.867   1.264  0.8025 -0.7228 -0.1481
   62DG      H4 1407   4.183   1.789   1.159  0.2240 -0.6815  1.0202
   62DG      H5 1408   4.186   1.970   1.177  0.1724  0.1954 -0.3496
   62DG      H6 1409   4.847   1.596   1.042 -3.8341 -0.0135  0.8889
   62DG      H7 1410   4.775   1.496   0.921 -1.8019  1.2535 -1.4356
   62DG      H8 1411   4.892   1.625   0.871  0.9501  2.3337  1.0941
   62DG      O9 1412   4.333   1.879   1.060 -0.1910 -0.0378 -0.7565
   62DG     O10 1413   4.709   1.694   0.923 -0.8235 -0.6062  0.0348
   62DG     C11 1414   4.283   1.902   0.931 -0.2010 -0.0497 -0.7076
   62DG     C12 1415   4.658   1.671   0.795  0.4641 -0.3193 -0.6337
   62DG     H13 1416   4.236   2.000   0.922 -1.5207 -0.8058 -2.6516
   62DG     H14 1417   4.215   1.823   0.898  1.5171 -1.7378 -0.4047
   62DG     H15 1418   4.589   1.587   0.791 -1.9588  1.5955 -2.2126
   62DG     H16 1419   4.729   1.662   0.713  0.5872  2.0267 -0.8675
   62DG     C17 1420   4.393   1.910   0.835 -0.3883 -0.7941  0.3522
   62DG     C18 1421   4.573   1.794   0.764  0.2560  0.1581  0.1820
   62DG     O19 1422   4.475   1.803   0.863  0.3391 -0.2133  0.3183
   62DG     H20 1423   4.446   2.003   0.854  2.0318 -1.6718 -1.6018
   62DG     H21 1424   4.358   1.913   0.732 -1.0078 -1.4005  0.5322
   62DG     H22 1425   4.635   1.883   0.754 -1.4050  1.3844  0.4841
   62DG     H23 1426   4.512   1.780   0.674  0.6822  1.5914 -0.3536
   63DG      C1 1427   1.260   0.229   2.754 -0.0491 -0.0546  0.1144
   63DG      C2 1428   1.373  -0.342   2.197  0.0628  0.0039  0.1914
   63DG      H3 1429   1.225   0.332   2.751 -1.7756 -0.6277 -0.4352
   63DG      H4 1430   1.368   0.235   2.737 -0.3086  1.7531 -1.2408
   63DG      H5 1431   1.230   0.200   2.854  2.4000  0.1612  0.9920
   63DG      H6 1432   1.315  -0.389   2.118 -0.4220 -0.5370  0.8612
   63DG      H7 1433   1.470  -0.308   2.160  0.2310 -0.5577  0.1035
   63DG      H8 1434   1.386  -0.422   2.270  2.0638  0.4947  0.4393
   63DG      O9 1435   1.198   0.153   2.652 -0.2160 -0.4158  0.4246
   63DG     O10 1436   1.297  -0.238   2.262 -0.1621  0.0469  0.4564
   63DG     C11 1437   1.216   0.205   2.524 -0.4129  0.2267  0.0731
   63DG     C12 1438   1.342  -0.207   2.396  0.5360 -0.2902  0.3830
   63DG     H13 1439   1.322   0.221   2.502  0.1854  0.3468  2.6656
   63DG     H14 1440   1.171   0.304   2.524  1.6910  1.2496 -0.5145
   63DG     H15 1441   1.440  -0.166   2.373  1.4091 -1.2867  2.0450
   63DG     H16 1442   1.338  -0.300   2.454 -1.1956 -0.9356 -0.6916
   63DG     C17 1443   1.150   0.107   2.425 -0.0513 -0.4371  0.3507
   63DG     C18 1444   1.247  -0.107   2.459  0.1508 -0.1666 -0.1158
   63DG     O19 1445   1.255   0.019   2.387  0.2066  0.0679  0.3064
   63DG     H20 1446   1.115   0.151   2.332 -0.9784 -1.7186  0.0772
   63DG     H21 1447   1.071   0.058   2.480  0.0888 -0.1483  0.8144
   63DG     H22 1448   1.150  -0.157   2.466 -0.1031  0.1740 -1.0879
   63DG     H23 1449   1.269  -0.094   2.565 -1.9173  2.6939  0.0748
   64DG      C1 1450   2.256   4.487   3.165 -0.1073 -0.2466  0.2782
   64DG      C2 1451   2.317   4.354   2.517  0.3933  0.1484 -0.5004
   64DG      H3 1452   2.183   4.512   3.242 -0.3438 -0.9649  0.2962
   64DG      H4 1453   2.352   4.536   3.185  0.6424 -0.8976 -1.5765
   64DG      H5 1454   2.286   4.385   3.187 -1.0342 -0.7729 -0.7908
   64DG      H6 1455   2.382   4.405   2.446  1.3975 -1.9570 -1.1671
   64DG      H7 1456   2.387   4.301   2.582  0.4094  2.2363  1.3170
   64DG      H8 1457   2.253   4.277   2.473  1.5310 -1.1780  0.0866
   64DG      O9 1458   2.208   4.505   3.037  0.0038 -0.4393 -0.0348
   64DG     O10 1459   2.232   4.427   2.603  0.1324 -0.4837  0.8207
   64DG     C11 1460   2.153   4.635   3.005 -0.0893 -0.3501  0.4964
   64DG     C12 1461   2.185   4.548   2.541 -0.6685  0.3663  0.4450
   64DG     H13 1462   2.236   4.707   3.010 -1.3201  1.4633 -2.3467
   64DG     H14 1463   2.085   4.674   3.081  2.0364 -0.2534  2.4677
   64DG     H15 1464   2.122   4.527   2.454  0.9505  1.4819 -1.0742
   64DG     H16 1465   2.275   4.599   2.506  0.9560 -2.3884  0.2937
   64DG     C17 1466   2.087   4.647   2.872  0.8426  0.8118  0.0386
   64DG     C18 1467   2.107   4.631   2.640  0.4786  0.7202  0.0590
   64DG     O19 1468   2.173   4.613   2.766 -0.0489  0.6237 -0.3324
   64DG     H20 1469   2.049   4.748   2.856 -1.4757 -0.2613 -1.8823
   64DG     H21 1470   2.000   4.582   2.881  1.8590 -0.6341 -0.1948
   64DG     H22 1471   2.093   4.735   2.611  1.9941  0.9674  0.1346
   64DG     H23 1472   2.005   4.594   2.633 -0.8814  3.1643  3.7735
   65DG      C1 1473   4.993   2.734   4.093 -0.5979 -0.1157 -0.9665
   65DG      C2 1474   4.366   2.919   4.348 -0.1943  0.8390 -0.1672
   65DG      H3 1475   4.926   2.663   4.044 -1.0001 -0.8211  0.5464
   65DG      H4 1476   5.058   2.685   4.165 -1.6762 -1.5930 -0.9497
   65DG      H5 1477   5.062   2.768   4.016  1.4220  1.0209  1.2256
   65DG      H6 1478   4.394   2.844   4.422  0.0266 -0.9267 -1.9448
   65DG      H7 1479   4.293   2.990   4.386 -1.4295 -0.1999 -0.5140
   65DG      H8 1480   4.313   2.861   4.272  1.9426 -0.9846 -0.3667
   65DG      O9 1481   4.917   2.834   4.153 -0.5388 -0.6586 -0.2485
   65DG     O10 1482   4.487   2.980   4.296  0.0408 -0.2773 -0.0140
   65DG     C11 1483   4.988   2.929   4.224 -0.1666 -0.1006  0.1270
   65DG     C12 1484   4.559   3.046   4.397 -0.1277 -0.1443 -0.1358
   65DG     H13 1485   5.072   2.956   4.160  0.5678 -1.5000  0.4440
   65DG     H14 1486   5.044   2.890   4.309  2.5305 -0.4019 -1.6487
   65DG     H15 1487   4.580   2.978   4.480 -1.2611 -0.3227  0.0197
   65DG     H16 1488   4.488   3.121   4.431 -1.8497 -1.0918 -1.4534
   65DG     C17 1489   4.910   3.053   4.258  0.1024 -0.2675  0.1071
   65DG     C18 1490   4.683   3.108   4.332 -0.2356  0.4391 -0.5515
   65DG     O19 1491   4.783   3.008   4.308 -0.1452 -0.3271 -0.5252
   65DG     H20 1492   4.913   3.109   4.165  0.7115  1.0857  0.9104
   65DG     H21 1493   4.944   3.102   4.349 -1.2275  0.0457  0.4563
   65DG     H22 1494   4.667   3.177   4.249 -0.6059  0.0202 -0.8314
   65DG     H23 1495   4.728   3.165   4.414 -0.7545 -2.0716  1.6082
   66DG      C1 1496   3.384   1.775   2.501 -0.0107 -0.5328 -0.1122
   66DG      C2 1497   3.888   1.852   2.947  0.4173  0.0004 -0.9536
   66DG      H3 1498   3.350   1.840   2.421 -1.6241 -1.4460 -0.2029
   66DG      H4 1499   3.324   1.796   2.590  0.9745  0.7549  0.2924
   66DG      H5 1500   3.348   1.674   2.484 -4.5170  0.8840 -0.1872
   66DG      H6 1501   3.959   1.924   2.989 -1.0180 -0.1028  1.9016
   66DG      H7 1502   3.807   1.846   3.020  0.7770 -0.9695 -0.6199
   66DG      H8 1503   3.932   1.753   2.944  2.1252  0.6960  0.0517
   66DG      O9 1504   3.524   1.798   2.535 -0.4870  0.4471 -0.5977
   66DG     O10 1505   3.841   1.901   2.824 -0.0851  0.0973 -0.1490
   66DG     C11 1506   3.612   1.778   2.416 -0.1807  0.2866  0.2280
   66DG     C12 1507   3.943   1.918   2.733  0.3576  0.1106  0.2697
   66DG     H13 1508   3.564   1.797   2.320  1.9863 -0.2357 -1.0228
   66DG     H14 1509   3.639   1.673   2.419 -1.0629  0.0265 -0.3784
   66DG     H15 1510   3.995   1.824   2.714 -0.0234 -0.4572  1.8701
   66DG     H16 1511   4.009   1.998   2.766  0.9741 -0.8405  1.4174
   66DG     C17 1512   3.734   1.866   2.427 -0.2258  0.3188 -0.0948
   66DG     C18 1513   3.882   1.957   2.598 -0.5669 -0.4955  0.1640
   66DG     O19 1514   3.780   1.865   2.564  0.4082  0.2353  0.6236
   66DG     H20 1515   3.707   1.967   2.397  2.3993  0.8401 -1.0138
   66DG     H21 1516   3.809   1.835   2.354  1.4070 -0.1919  1.7126
   66DG     H22 1517   3.836   2.056   2.597 -2.9167 -1.5283 -0.8512
   66DG     H23 1518   3.957   1.953   2.518 -0.6996 -1.0178  0.0665
   67DG      C1 1519   0.709   4.732   0.850  0.1507 -0.5367  0.3530
   67DG      C2 1520   0.792   5.229   0.382 -0.0731  0.6988 -1.1538
   67DG      H3 1521   0.636   4.721   0.930  0.5522  0.7105  0.9069
   67DG      H4 1522   0.811   4.752   0.883  0.3293  1.4449 -1.2127
   67DG      H5 1523   0.714   4.632   0.806  0.5206  0.2662 -1.5282
   67DG      H6 1524   0.780   5.326   0.332 -0.0885 -0.1261 -2.8066
   67DG      H7 1525   0.872   5.218   0.455 -0.8648 -1.1894 -0.5159
   67DG      H8 1526   0.816   5.158   0.304 -1.2679 -0.1097 -0.8205
   67DG      O9 1527   0.658   4.822   0.750  0.4514  0.7636  0.1983
   67DG     O10 1528   0.679   5.180   0.451  0.5692  0.0498 -0.9717
   67DG     C11 1529   0.530   4.773   0.703  0.8642 -1.0031  0.4275
   67DG     C12 1530   0.574   5.133   0.371 -0.4300  0.0232 -0.8068
   67DG     H13 1531   0.467   4.745   0.787  1.1905 -0.0812  0.9854
   67DG     H14 1532   0.533   4.696   0.626 -1.4216 -0.1152 -0.6439
   67DG     H15 1533   0.613   5.057   0.303  2.7186 -0.1110  0.9469
   67DG     H16 1534   0.521   5.205   0.310  1.0767  0.7160 -1.3416
   67DG     C17 1535   0.458   4.900   0.638  0.0562  0.4949  0.0819
   67DG     C18 1536   0.469   5.059   0.461  0.3319 -0.9264  0.6031
   67DG     O19 1537   0.542   4.970   0.538  0.5098 -0.1811  0.4424
   67DG     H20 1538   0.417   4.976   0.704 -0.8472  0.9564 -0.9683
   67DG     H21 1539   0.372   4.854   0.589 -0.6626 -0.5813  2.2643
   67DG     H22 1540   0.415   5.138   0.513  0.8386 -0.4128  0.3558
   67DG     H23 1541   0.392   5.005   0.405  0.7251 -0.3066 -0.5905
   68DG      C1 1542   3.557   4.463   1.534  0.4066 -0.2412 -0.0595
   68DG      C2 1543   4.246   4.591   1.741  0.2049  0.4124  0.4153
   68DG      H3 1544   3.462   4.516   1.538  0.5293 -0.0476  0.3821
   68DG      H4 1545   3.534   4.357   1.545 -1.2827  0.1709  0.5974
   68DG      H5 1546   3.603   4.474   1.436  0.7324 -0.5877  0.0510
   68DG      H6 1547   4.269   4.654   1.655  0.7157 -0.3414 -0.0095
   68DG      H7 1548   4.319   4.614   1.819  1.1706  0.0616 -0.3610
   68DG      H8 1549   4.256   4.493   1.695 -1.6182 -0.1994  1.2220
   68DG      O9 1550   3.651   4.510   1.632 -0.2312 -0.8748 -0.3368
   68DG     O10 1551   4.110   4.596   1.790  0.0927  1.2045  0.2014
   68DG     C11 1552   3.607   4.628   1.701  0.5477  0.0061  1.0481
   68DG     C12 1553   4.070   4.720   1.825  0.6097 -0.3461 -0.8779
   68DG     H13 1554   3.507   4.609   1.740  0.2434 -1.0289 -0.1834
   68DG     H14 1555   3.611   4.718   1.640  1.9777 -1.5733 -1.3074
   68DG     H15 1556   4.075   4.793   1.744 -0.9277  1.2213  0.3539
   68DG     H16 1557   4.129   4.765   1.906 -1.2671 -0.5362  0.6469
   68DG     C17 1558   3.695   4.666   1.818  0.2561 -0.4360  0.3696
   68DG     C18 1559   3.927   4.710   1.879 -0.0316  0.1398  0.2845
   68DG     O19 1560   3.831   4.676   1.779 -0.0315 -0.0533 -0.2664
   68DG     H20 1561   3.687   4.582   1.887  1.3050 -0.7861  0.0983
   68DG     H21 1562   3.652   4.751   1.870 -2.1089 -0.3799 -1.5227
   68DG     H22 1563   3.914   4.638   1.961  1.0689 -1.5768 -0.9799
   68DG     H23 1564   3.899   4.809   1.915 -1.8756  0.4466 -1.7792
   69DG      C1 1565   2.245   0.453   3.565  0.0093  0.8739 -0.6030
   69DG      C2 1566   2.052  -0.213   3.445  0.9971 -0.1092 -0.7115
   69DG      H3 1567   2.352   0.468   3.575  0.1354 -1.0754  2.2342
   69DG      H4 1568   2.223   0.400   3.658  3.4032 -0.2087 -0.2746
   69DG      H5 1569   2.191   0.546   3.580  0.9562  1.2034  0.9138
   69DG      H6 1570   2.060  -0.284   3.362 -0.9467 -1.9805  0.5671
   69DG      H7 1571   2.147  -0.165   3.467  2.7060 -3.0772 -1.0655
   69DG      H8 1572   2.023  -0.279   3.527 -2.7090 -0.4861 -2.0956
   69DG      O9 1573   2.218   0.365   3.449  0.3640  0.2818  0.6389
   69DG     O10 1574   1.938  -0.134   3.413  0.2152 -0.4316  0.0654
   69DG     C11 1575   2.280   0.234   3.463  0.0773 -0.0463  0.1219
   69DG     C12 1576   1.957  -0.066   3.289 -0.1644 -0.5214  0.2538
   69DG     H13 1577   2.246   0.179   3.550 -0.9589  0.5903  0.1305
   69DG     H14 1578   2.387   0.258   3.460  0.0191  0.2416  0.2878
   69DG     H15 1579   1.874   0.004   3.285 -0.2574 -0.6475 -0.1108
   69DG     H16 1580   1.928  -0.128   3.204 -0.3067  1.1017 -0.9219
   69DG     C17 1581   2.248   0.146   3.354  0.0193 -0.9249 -0.5546
   69DG     C18 1582   2.098  -0.004   3.259  0.5938 -0.2777 -0.8340
   69DG     O19 1583   2.123   0.086   3.365  0.3810 -0.0060  0.1038
   69DG     H20 1584   2.324   0.068   3.365  0.4869 -0.4117 -0.1494
   69DG     H21 1585   2.250   0.202   3.260 -2.2049  2.6289  1.2909
   69DG     H22 1586   2.173  -0.083   3.256 -1.0981 -1.9759 -0.7704
   69DG     H23 1587   2.101   0.059   3.171  1.7244  2.7368  1.1866
   70DG      C1 1588   2.616   4.235   0.800  0.1676 -1.3053  0.1091
   70DG      C2 1589   2.709   4.893   0.793 -0.6288 -0.0371  0.4342
   70DG      H3 1590   2.579   4.217   0.699  1.1649 -1.2656 -0.2718
   70DG      H4 1591   2.538   4.275   0.865  2.6642  2.6172  1.0621
   70DG      H5 1592   2.658   4.141   0.836  1.9097 -1.7683 -2.8100
   70DG      H6 1593   2.696   4.901   0.901 -2.6244  0.1869  0.2082
   70DG      H7 1594   2.750   4.988   0.759 -0.5766 -0.6960 -1.5104
   70DG      H8 1595   2.608   4.879   0.755  0.2607 -0.5837 -1.9471
   70DG      O9 1596   2.711   4.335   0.805 -0.7619  0.0723  0.7708
   70DG     O10 1597   2.791   4.778   0.765  0.2455 -0.4756 -0.0747
   70DG     C11 1598   2.832   4.292   0.739  0.4884  0.2131 -0.2388
   70DG     C12 1599   2.833   4.760   0.632  0.1286  0.2667 -0.2925
   70DG     H13 1600   2.803   4.239   0.648  1.7183 -0.2387 -0.3939
   70DG     H14 1601   2.888   4.211   0.786  1.6249  0.9715 -0.2465
   70DG     H15 1602   2.887   4.851   0.608  0.9168 -0.0679  0.1687
   70DG     H16 1603   2.747   4.748   0.566  0.9840 -1.8857 -1.0969
   70DG     C17 1604   2.921   4.406   0.691  0.1749  0.1644  0.7553
   70DG     C18 1605   2.922   4.639   0.619 -0.4663 -0.0981  0.1249
   70DG     O19 1606   2.848   4.531   0.675  0.1188  0.6950  0.5522
   70DG     H20 1607   2.982   4.387   0.602  0.1843 -0.7978  0.9617
   70DG     H21 1608   2.992   4.429   0.770  0.2234  0.7762  0.5451
   70DG     H22 1609   2.939   4.629   0.511 -0.5751 -0.3462  0.1300
   70DG     H23 1610   3.015   4.653   0.674  0.0098  0.1427 -0.7036
   71DG      C1 1611   3.502   3.108   4.746  0.5016  0.1592 -0.4387
   71DG      C2 1612   3.598   2.443   4.482 -0.0831  0.0038  0.0735
   71DG      H3 1613   3.537   3.209   4.766 -0.0348  0.2711 -0.0480
   71DG      H4 1614   3.424   3.081   4.817 -0.5979  0.3869 -1.5246
   71DG      H5 1615   3.453   3.101   4.649  0.1575  1.1015 -0.3462
   71DG      H6 1616   3.562   2.546   4.488  4.2244  1.6266  3.1472
   71DG      H7 1617   3.695   2.444   4.434  0.1133 -0.7972  0.4375
   71DG      H8 1618   3.521   2.379   4.439 -1.0212  1.0802  0.0850
   71DG      O9 1619   3.612   3.019   4.754 -0.3993  0.7565 -0.4642
   71DG     O10 1620   3.612   2.398   4.622 -0.2488 -0.3820 -0.3033
   71DG     C11 1621   3.573   2.884   4.735 -0.0356 -0.7080 -0.0959
   71DG     C12 1622   3.743   2.422   4.680 -0.0373 -0.3184  0.3557
   71DG     H13 1623   3.537   2.875   4.633 -1.0145  3.0830 -0.2481
   71DG     H14 1624   3.506   2.859   4.817  1.3449  1.1086  1.7057
   71DG     H15 1625   3.816   2.388   4.607  1.0224  2.6321 -0.1129
   71DG     H16 1626   3.753   2.380   4.780  0.4913 -0.7260  0.1379
   71DG     C17 1627   3.691   2.791   4.742 -0.7755  1.4075  0.9104
   71DG     C18 1628   3.766   2.573   4.686 -0.0664 -0.3563  0.0666
   71DG     O19 1629   3.653   2.653   4.719 -0.5889  0.4931 -0.0674
   71DG     H20 1630   3.741   2.802   4.838  0.6787  0.0326  0.3566
   71DG     H21 1631   3.760   2.822   4.664 -2.3666 -0.7530 -1.5610
   71DG     H22 1632   3.840   2.579   4.766  0.8564  0.9206 -0.8517
   71DG     H23 1633   3.815   2.609   4.596  0.2684 -1.0470 -0.0354
   72DG      C1 1634   3.767   2.783   2.451  0.2295  0.2271  0.3290
   72DG      C2 1635   3.203   3.060   2.668  0.5805 -0.1600  0.1353
   72DG      H3 1636   3.714   2.745   2.363 -0.1749  1.6682 -0.0840
   72DG      H4 1637   3.790   2.697   2.514  2.2028  1.2887  1.1341
   72DG      H5 1638   3.864   2.820   2.420  0.9975 -0.6624  1.6116
   72DG      H6 1639   3.169   2.961   2.698 -1.2498 -0.6443 -3.0864
   72DG      H7 1640   3.150   3.133   2.730 -0.5464 -1.3993  0.6919
   72DG      H8 1641   3.179   3.064   2.562  1.7163 -3.4825 -0.3398
   72DG      O9 1642   3.713   2.886   2.534 -0.2529 -0.8962 -0.4821
   72DG     O10 1643   3.345   3.072   2.688 -0.0878  0.4013 -0.1487
   72DG     C11 1644   3.772   2.887   2.663 -0.1183  0.1893  0.1940
   72DG     C12 1645   3.375   3.051   2.831  0.2478 -0.0355  0.0219
   72DG     H13 1646   3.874   2.912   2.636  0.7027 -1.5446  1.5306
   72DG     H14 1647   3.771   2.791   2.713  0.8873 -0.5573 -1.1571
   72DG     H15 1648   3.349   2.950   2.861 -1.4931  0.3597 -0.0901
   72DG     H16 1649   3.320   3.126   2.889 -0.6412  0.4630 -1.4149
   72DG     C17 1650   3.726   2.997   2.758 -0.2832 -0.3631  0.3568
   72DG     C18 1651   3.526   3.054   2.860 -0.9997 -0.2081 -0.0263
   72DG     O19 1652   3.589   2.977   2.767  0.1784  0.0332  0.5750
   72DG     H20 1653   3.744   3.098   2.723  1.1434 -0.5395  0.5406
   72DG     H21 1654   3.777   2.996   2.855  0.5905  1.5023 -0.0406
   72DG     H22 1655   3.567   3.154   2.846 -1.7704  0.1513  0.2035
   72DG     H23 1656   3.550   3.026   2.963  0.6616  2.0994  0.2735
   73DG      C1 1657   3.014   5.182   4.273  0.1866  0.7054 -1.2648
   73DG      C2 1658   3.165   4.559   3.996 -0.5609 -0.4106 -0.1682
   73DG      H3 1659   3.015   5.199   4.381 -0.3324 -1.0415 -0.9610
   73DG      H4 1660   2.963   5.265   4.225  0.5462  0.7385 -1.5916
   73DG      H5 1661   3.120   5.186   4.247  0.5647 -0.9311 -0.1794
   73DG      H6 1662   3.178   4.454   4.024  1.4152 -0.4384 -1.0203
   73DG      H7 1663   3.122   4.569   3.897 -0.8352  2.0532  0.1460
   73DG      H8 1664   3.260   4.612   4.000 -0.0253 -1.1006 -2.5716
   73DG      O9 1665   2.963   5.059   4.241 -0.0899 -0.5156 -0.3099
   73DG     O10 1666   3.082   4.635   4.081 -0.1337 -0.0233 -0.1299
   73DG     C11 1667   2.842   5.024   4.310  0.1429  0.6063  0.2912
   73DG     C12 1668   2.958   4.580   4.113 -0.8276  0.0225 -0.1069
   73DG     H13 1669   2.768   5.099   4.283 -1.6340 -1.1023  0.1223
   73DG     H14 1670   2.864   5.016   4.416  0.9691  4.0900  0.4901
   73DG     H15 1671   2.971   4.515   4.200  0.5489  0.6173  0.1502
   73DG     H16 1672   2.907   4.531   4.029 -0.2561  0.2060 -0.5637
   73DG     C17 1673   2.796   4.886   4.251 -0.1035 -0.0982 -0.3209
   73DG     C18 1674   2.858   4.692   4.143 -1.1237  0.5132 -0.4513
   73DG     O19 1675   2.908   4.803   4.218 -0.0985 -0.4497  0.2795
   73DG     H20 1676   2.746   4.912   4.158  3.7149  0.8592 -2.3228
   73DG     H21 1677   2.734   4.843   4.330  1.4579 -0.3943  0.8021
   73DG     H22 1678   2.825   4.739   4.050 -3.2911 -1.1248 -0.5635
   73DG     H23 1679   2.775   4.658   4.204  0.1332  0.6538  1.4124
   74DG      C1 1680   2.573   1.483   3.726  0.1074 -0.2742  0.0740
   74DG      C2 1681   3.069   1.771   3.314  0.1200 -0.3230 -0.6189
   74DG      H3 1682   2.484   1.491   3.789  1.7658 -0.3742  2.5694
   74DG      H4 1683   2.663   1.474   3.787  1.4850  1.5676 -1.5890
   74DG      H5 1684   2.553   1.399   3.659  1.3880 -1.8917  1.6141
   74DG      H6 1685   3.055   1.676   3.262 -0.5865  0.2883 -1.5965
   74DG      H7 1686   3.067   1.838   3.227  1.6837  1.0355  0.3331
   74DG      H8 1687   3.166   1.778   3.363 -0.3047 -0.6753  0.2915
   74DG      O9 1688   2.590   1.606   3.657  0.1494  0.8255  0.0941
   74DG     O10 1689   2.953   1.772   3.410  0.0918 -0.1380  0.2202
   74DG     C11 1690   2.605   1.715   3.747  0.7580  0.0370 -0.6823
   74DG     C12 1691   2.962   1.873   3.511  0.1797 -0.3762  0.0550
   74DG     H13 1692   2.691   1.682   3.805  1.8419  3.4566 -0.0897
   74DG     H14 1693   2.530   1.728   3.825  2.4047  0.4598  0.9137
   74DG     H15 1694   3.000   1.960   3.458 -1.5941  0.1601 -0.3986
   74DG     H16 1695   3.029   1.848   3.593 -0.9847  2.1808  1.8870
   74DG     C17 1696   2.639   1.845   3.687 -0.6820  0.2847 -0.3752
   74DG     C18 1697   2.824   1.929   3.566 -0.6075 -0.7879  0.7585
   74DG     O19 1698   2.765   1.820   3.616  0.0695 -0.4795 -0.2529
   74DG     H20 1699   2.655   1.919   3.766  1.2201  0.6132 -1.0046
   74DG     H21 1700   2.561   1.864   3.613 -1.5136 -3.1523 -0.5422
   74DG     H22 1701   2.835   2.008   3.640 -0.3969  0.7525 -0.8642
   74DG     H23 1702   2.765   1.972   3.486  2.2436  1.0313 -0.5069
   75DG      C1 1703   2.510   4.499   0.539 -0.4868 -0.4084 -0.0196
   75DG      C2 1704   2.671   4.469   1.221  0.4248  0.5771 -0.9153
   75DG      H3 1705   2.614   4.485   0.510 -0.6552 -0.8615 -0.4086
   75DG      H4 1706   2.462   4.556   0.459  0.5498  2.3011  1.1779
   75DG      H5 1707   2.458   4.404   0.548  1.2380 -1.2368  1.7156
   75DG      H6 1708   2.637   4.489   1.322  0.0927 -0.7924 -0.7430
   75DG      H7 1709   2.680   4.363   1.198  2.0699  0.3997  0.3860
   75DG      H8 1710   2.772   4.510   1.219  1.1488 -0.8915  1.7634
   75DG      O9 1711   2.504   4.576   0.650  0.1214  0.5153 -0.5247
   75DG     O10 1712   2.586   4.520   1.120 -0.2863  0.0015  0.1992
   75DG     C11 1713   2.379   4.598   0.695  0.2982 -0.0438  0.0638
   75DG     C12 1714   2.552   4.658   1.128  0.5104 -0.5390 -0.6676
   75DG     H13 1715   2.342   4.503   0.735  2.6130 -0.8711  0.3959
   75DG     H14 1716   2.301   4.626   0.624  0.5800 -0.2857 -0.3458
   75DG     H15 1717   2.639   4.724   1.125  0.7747 -0.7163  1.7382
   75DG     H16 1718   2.515   4.677   1.229  1.2767  0.1293 -0.5077
   75DG     C17 1719   2.379   4.694   0.815  0.0772  0.4687  0.2336
   75DG     C18 1720   2.449   4.704   1.031  0.2381 -0.1669  0.1048
   75DG     O19 1721   2.478   4.653   0.906 -0.0474 -0.1721  0.2458
   75DG     H20 1722   2.277   4.689   0.854 -0.5825  0.4516 -1.4339
   75DG     H21 1723   2.402   4.794   0.778 -0.4148  0.2546 -0.6701
   75DG     H22 1724   2.353   4.668   1.068  0.8477 -1.5656  0.3827
   75DG     H23 1725   2.445   4.813   1.029  2.2095 -0.0543  0.7612
   76DG      C1 1726   0.700   2.664   4.087 -0.3365  0.4796 -0.4561
   76DG      C2 1727   1.093   3.183   3.865 -0.0401  0.4964 -0.1922
   76DG      H3 1728   0.716   2.715   4.183 -0.0640 -0.1114 -0.1807
   76DG      H4 1729   0.782   2.592   4.082 -0.6721  0.1052 -0.6076
   76DG      H5 1730   0.606   2.611   4.100  0.5526 -0.4797  4.1156
   76DG      H6 1731   1.175   3.111   3.875  0.4154  0.2676 -4.0939
   76DG      H7 1732   1.125   3.245   3.782  1.7530 -0.1202 -0.0085
   76DG      H8 1733   1.079   3.243   3.955  0.6799 -2.0978  1.8000
   76DG      O9 1734   0.711   2.756   3.977  0.0285  0.2938 -0.3029
   76DG     O10 1735   0.969   3.131   3.824 -0.2597  0.5172 -0.1218
   76DG     C11 1736   0.704   2.693   3.850 -0.6969  0.2196 -0.1501
   76DG     C12 1737   0.993   3.045   3.715 -0.2664  0.2762  0.5559
   76DG     H13 1738   0.609   2.639   3.845 -0.7324  0.2071  0.6146
   76DG     H14 1739   0.785   2.624   3.828 -1.1718 -0.3716 -0.0595
   76DG     H15 1740   1.062   2.963   3.736  1.3859  1.0113 -1.6275
   76DG     H16 1741   1.047   3.106   3.643 -2.1844  0.2863 -0.9259
   76DG     C17 1742   0.713   2.808   3.750 -0.8895 -0.3436  0.0895
   76DG     C18 1743   0.859   2.979   3.668  0.6101  0.4449 -0.2481
   76DG     O19 1744   0.834   2.890   3.777  0.7177  0.1202 -0.0145
   76DG     H20 1745   0.628   2.875   3.764  0.1960  0.8318  1.4146
   76DG     H21 1746   0.711   2.756   3.655 -1.5584 -1.6931  0.8163
   76DG     H22 1747   0.770   3.041   3.651 -0.3908 -0.7166  0.5770
   76DG     H23 1748   0.876   2.926   3.574 -3.1631  0.8957 -1.3554
   77DG      C1 1749   5.277   2.400   3.568  0.0047 -0.1983  0.2364
   77DG      C2 1750   5.606   1.820   3.381 -0.5595  1.0505 -0.4257
   77DG      H3 1751   5.318   2.488   3.518  0.9406 -0.3798  0.6671
   77DG      H4 1752   5.227   2.432   3.659 -0.3394  0.4157 -0.1668
   77DG      H5 1753   5.198   2.367   3.500 -0.8628 -0.4407  1.3414
   77DG      H6 1754   5.688   1.849   3.315  0.5540  1.1807  0.9773
   77DG      H7 1755   5.652   1.730   3.422 -0.2070  1.0907 -0.7215
   77DG      H8 1756   5.520   1.784   3.324 -0.8209  1.5547 -0.3564
   77DG      O9 1757   5.373   2.298   3.568 -0.3118  0.2651 -0.3335
   77DG     O10 1758   5.568   1.910   3.480  0.0392 -0.1569 -0.1868
   77DG     C11 1759   5.488   2.339   3.637 -0.3015 -0.3975 -0.5949
   77DG     C12 1760   5.671   1.944   3.575 -0.5592  0.2155  0.3586
   77DG     H13 1761   5.461   2.362   3.741  1.2563  1.4043 -0.5356
   77DG     H14 1762   5.529   2.428   3.589 -2.4548  0.6325 -0.6569
   77DG     H15 1763   5.736   2.012   3.521 -0.5040  0.6693  0.9955
   77DG     H16 1764   5.731   1.856   3.599 -1.7526 -0.1512  2.2345
   77DG     C17 1765   5.591   2.230   3.631 -0.5475  0.3124 -0.1586
   77DG     C18 1766   5.614   2.008   3.706 -0.5265  0.8034 -0.0173
   77DG     O19 1767   5.528   2.116   3.675  0.5012 -0.1317 -0.2020
   77DG     H20 1768   5.679   2.267   3.685 -0.7742  2.4242 -1.1433
   77DG     H21 1769   5.624   2.214   3.529 -1.7306 -4.4156 -0.0534
   77DG     H22 1770   5.559   1.942   3.773 -1.2688  0.9737 -0.4546
   77DG     H23 1771   5.696   2.043   3.769 -1.3929  0.5572  1.2815
   78DG      C1 1772   3.589   1.420   1.255  0.0620 -0.4031  0.5084
   78DG      C2 1773   3.197   0.840   0.878  0.2598  0.4436  0.7923
   78DG      H3 1774   3.567   1.526   1.249  1.1600 -0.2359 -1.8841
   78DG      H4 1775   3.693   1.404   1.225  0.2859  0.0642  1.0225
   78DG      H5 1776   3.584   1.390   1.360 -0.8866  3.2047  1.6513
   78DG      H6 1777   3.274   0.779   0.831 -1.0282 -0.0301 -0.7961
   78DG      H7 1778   3.163   0.783   0.964  1.7449  0.8715  1.7105
   78DG      H8 1779   3.122   0.851   0.800  1.7020  1.5394 -0.5221
   78DG      O9 1780   3.491   1.356   1.169  0.0040  0.6299 -0.0308
   78DG     O10 1781   3.242   0.971   0.906 -0.1944 -0.1919  0.7726
   78DG     C11 1782   3.491   1.401   1.039  0.1312 -0.6789 -0.4855
   78DG     C12 1783   3.332   0.977   1.014  0.3823 -0.2881 -0.5310
   78DG     H13 1784   3.581   1.363   0.990 -0.4955 -3.3413  0.2873
   78DG     H14 1785   3.502   1.510   1.040 -0.5102 -0.5960  1.3733
   78DG     H15 1786   3.430   0.933   0.997  0.9151  1.1586 -1.3635
   78DG     H16 1787   3.284   0.923   1.096  0.9407  0.0947  0.0525
   78DG     C17 1788   3.370   1.356   0.958 -0.3698 -0.3936 -0.2834
   78DG     C18 1789   3.342   1.128   1.047 -0.2008 -0.9070 -0.2308
   78DG     O19 1790   3.378   1.209   0.933  0.1246 -0.2372  0.6586
   78DG     H20 1791   3.366   1.402   0.859  1.4562  0.5000 -0.0025
   78DG     H21 1792   3.280   1.392   1.007  1.0071  2.4749  0.4017
   78DG     H22 1793   3.244   1.160   1.080 -0.8601 -1.1624 -1.8651
   78DG     H23 1794   3.408   1.133   1.134  1.3656  0.6945 -1.4126
   79DG      C1 1795   1.409   3.290   5.197  0.6795  0.1042 -0.5099
   79DG      C2 1796   1.876   3.516   5.582 -0.4098  0.0327 -0.1013
   79DG      H3 1797   1.454   3.195   5.225 -0.2191 -0.5875 -1.3065
   79DG      H4 1798   1.480   3.330   5.125  1.1081  2.3428  1.0461
   79DG      H5 1799   1.314   3.290   5.144  0.0742 -0.6006  0.5459
   79DG      H6 1800   1.923   3.554   5.673 -1.4735  0.2708  0.3617
   79DG      H7 1801   1.921   3.419   5.559  2.3504  0.7298  1.8400
   79DG      H8 1802   1.911   3.561   5.489 -1.4816 -0.9738 -1.0181
   79DG      O9 1803   1.407   3.375   5.311 -0.2277  0.3171  0.8477
   79DG     O10 1804   1.741   3.508   5.592  0.3206 -0.1417  0.0376
   79DG     C11 1805   1.341   3.499   5.306  0.0664  0.3498 -1.1888
   79DG     C12 1806   1.683   3.632   5.599 -0.3310 -0.1841  0.1897
   79DG     H13 1807   1.237   3.497   5.273  0.4811 -0.5998 -2.5283
   79DG     H14 1808   1.389   3.554   5.224  0.7460 -1.5982 -2.1495
   79DG     H15 1809   1.715   3.684   5.509  0.1422  0.8949  0.9657
   79DG     H16 1810   1.720   3.698   5.677  0.1766 -1.6963  1.2700
   79DG     C17 1811   1.359   3.569   5.452 -0.3139 -0.6525 -0.2373
   79DG     C18 1812   1.533   3.624   5.599  0.0546 -0.5147 -0.3159
   79DG     O19 1813   1.501   3.550   5.480 -0.0485  0.0411 -0.2402
   79DG     H20 1814   1.304   3.508   5.523  2.6207  0.0905  2.9440
   79DG     H21 1815   1.327   3.673   5.449 -2.5544 -1.2907  0.1525
   79DG     H22 1816   1.499   3.582   5.694  1.6362 -1.7587 -0.2669
   79DG     H23 1817   1.499   3.728   5.600  2.3425  0.2969  0.6201
   80DG      C1 1818   5.190   4.490   1.380 -0.4002  0.6763  0.2046
   80DG      C2 1819   4.979   4.259   0.772 -0.1363  0.0929 -0.3549
   80DG      H3 1820   5.254   4.554   1.441 -0.1235  1.0714 -0.4905
   80DG      H4 1821   5.190   4.396   1.435  1.6200  0.5563  0.0800
   80DG      H5 1822   5.088   4.523   1.393 -0.8494 -0.3703 -0.4811
   80DG      H6 1823   4.985   4.368   0.782  1.8511 -0.0070 -0.1830
   80DG      H7 1824   4.987   4.220   0.670  1.2181  1.6868 -0.9039
   80DG      H8 1825   4.881   4.222   0.803 -0.4305 -0.7819 -2.1676
   80DG      O9 1826   5.229   4.499   1.242 -0.1248  0.3319 -0.1005
   80DG     O10 1827   5.092   4.181   0.825  0.0799 -0.4078  0.0366
   80DG     C11 1828   5.129   4.493   1.148 -0.2030  0.4030 -0.3036
   80DG     C12 1829   5.223   4.211   0.783 -0.4630  0.8039  0.3602
   80DG     H13 1830   5.075   4.587   1.152 -1.3356 -0.2616  0.3340
   80DG     H14 1831   5.062   4.410   1.173  1.5452 -0.9970  0.0047
   80DG     H15 1832   5.238   4.185   0.678 -0.6186 -0.9156  0.7330
   80DG     H16 1833   5.283   4.130   0.825  0.5854  0.1941 -2.1287
   80DG     C17 1834   5.179   4.483   1.007 -0.6472 -0.0191  0.7498
   80DG     C18 1835   5.276   4.345   0.834  0.0501  0.2148 -0.9149
   80DG     O19 1836   5.235   4.357   0.972 -0.0678  0.0544 -0.5257
   80DG     H20 1837   5.249   4.562   0.980 -1.0991 -0.0578 -0.6280
   80DG     H21 1838   5.104   4.488   0.928  0.5011 -0.8825 -0.4342
   80DG     H22 1839   5.385   4.345   0.837  0.0601 -1.4931  0.4741
   80DG     H23 1840   5.240   4.419   0.762 -1.5570 -0.6034 -1.0020
   81DG      C1 1841   1.107   2.556   2.451 -0.7655  0.8485 -0.4222
   81DG      C2 1842   1.596   3.000   2.986 -0.2147 -1.2555 -0.1230
   81DG      H3 1843   1.037   2.637   2.468 -2.0007 -0.2402 -0.2012
   81DG      H4 1844   1.076   2.476   2.519  1.0879  0.3275 -0.1259
   81DG      H5 1845   1.103   2.536   2.344 -1.2226  1.1261 -0.4571
   81DG      H6 1846   1.656   3.089   2.968  0.2847 -1.2579  1.4004
   81DG      H7 1847   1.493   3.029   3.004 -0.8704 -2.8997 -0.9985
   81DG      H8 1848   1.624   2.952   3.080 -1.0371 -0.5232  0.5048
   81DG      O9 1849   1.237   2.593   2.500  1.0815 -0.3630  0.1844
   81DG     O10 1850   1.615   2.912   2.885  0.0916  0.4717  0.6312
   81DG     C11 1851   1.309   2.672   2.408 -1.2234 -0.4623 -0.8993
   81DG     C12 1852   1.523   2.931   2.778 -0.2783 -0.5991  0.2487
   81DG     H13 1853   1.251   2.761   2.385  0.0338  0.5790 -0.1369
   81DG     H14 1854   1.316   2.619   2.313 -0.0334 -0.0066 -1.0793
   81DG     H15 1855   1.524   3.036   2.749  0.5238  0.2617  3.0757
   81DG     H16 1856   1.422   2.910   2.814 -0.6730 -1.1631 -1.1371
   81DG     C17 1857   1.436   2.717   2.481  0.1054  0.3076  0.1741
   81DG     C18 1858   1.544   2.837   2.657 -0.1777 -0.0964  0.2062
   81DG     O19 1859   1.423   2.810   2.586 -0.0298  0.4771 -0.2638
   81DG     H20 1860   1.515   2.753   2.414  1.8750 -1.7945  0.9856
   81DG     H21 1861   1.484   2.628   2.523  1.7875 -0.3827 -2.8600
   81DG     H22 1862   1.626   2.878   2.598  0.8928 -2.6482 -0.1995
   81DG     H23 1863   1.579   2.746   2.706  0.5666  0.3867  0.5932
   82DG      C1 1864   1.800   4.059   4.462  0.2043 -0.0749 -0.3073
   82DG      C2 1865   1.222   3.337   4.232 -0.2120 -0.4916 -0.8309
   82DG      H3 1866   1.852   4.145   4.419  1.7900 -0.8572 -0.0108
   82DG      H4 1867   1.861   4.016   4.541 -1.5159 -2.0571  0.0451
   82DG      H5 1868   1.709   4.093   4.511 -0.9078 -0.6379 -1.8846
   82DG      H6 1869   1.203   3.260   4.157 -2.2960 -1.8378  0.9550
   82DG      H7 1870   1.163   3.287   4.309  1.2589 -1.4841 -0.3210
   82DG      H8 1871   1.177   3.435   4.215 -0.8287 -0.5508  0.3874
   82DG      O9 1872   1.776   3.962   4.359  0.7858 -0.2112 -0.5489
   82DG     O10 1873   1.365   3.353   4.247  0.7742 -0.1954  0.5631
   82DG     C11 1874   1.696   3.857   4.400  0.4888 -0.3963  0.2603
   82DG     C12 1875   1.409   3.461   4.342 -0.7697  0.0271  0.0555
   82DG     H13 1876   1.597   3.900   4.412  0.8427  0.4333  0.2464
   82DG     H14 1877   1.722   3.820   4.499 -1.2201  1.4133  1.4499
   82DG     H15 1878   1.446   3.411   4.432 -0.8955  1.1987  0.7846
   82DG     H16 1879   1.321   3.518   4.371  0.5123  2.4178 -0.5093
   82DG     C17 1880   1.663   3.742   4.306 -0.0785  0.0201 -0.1764
   82DG     C18 1881   1.521   3.553   4.278 -0.0644  0.0675  0.6488
   82DG     O19 1882   1.552   3.669   4.357 -0.5215  0.0668 -0.1053
   82DG     H20 1883   1.754   3.682   4.301  1.0474  1.1474  3.4053
   82DG     H21 1884   1.644   3.774   4.204 -0.2913 -0.3069 -0.2407
   82DG     H22 1885   1.606   3.485   4.274  0.0541  0.2219  0.4877
   82DG     H23 1886   1.514   3.576   4.171  1.3408 -1.1890  0.2462
   83DG      C1 1887   0.079   2.380   1.537 -0.2252  0.6816 -0.5522
   83DG      C2 1888   0.533   1.990   1.901  0.6902 -0.1378  0.1263
   83DG      H3 1889   0.056   2.280   1.500  2.7460  0.0285 -0.9198
   83DG      H4 1890   0.055   2.452   1.458  0.5904  0.7003 -0.7881
   83DG      H5 1891   0.013   2.410   1.619 -1.3065  1.3458 -1.6293
   83DG      H6 1892   0.487   2.021   1.995  0.5323  0.8847 -0.2658
   83DG      H7 1893   0.461   1.926   1.850  0.6264  0.6838 -0.8644
   83DG      H8 1894   0.625   1.938   1.923  0.6355  0.2191  1.2492
   83DG      O9 1895   0.216   2.403   1.576  0.5244 -0.2367 -0.5971
   83DG     O10 1896   0.554   2.102   1.823  0.1827 -0.6070  0.3027
   83DG     C11 1897   0.309   2.370   1.476  0.5750  0.2269  0.0872
   83DG     C12 1898   0.612   2.076   1.701 -0.8783 -0.1064 -0.1762
   83DG     H13 1899   0.302   2.453   1.406  1.6978  1.0357  0.8822
   83DG     H14 1900   0.299   2.273   1.428  0.1386 -0.3797  1.3629
   83DG     H15 1901   0.558   2.006   1.636 -0.1883 -0.2242 -0.6328
   83DG     H16 1902   0.713   2.037   1.705 -1.7330 -2.5147 -0.4839
   83DG     C17 1903   0.451   2.374   1.535  0.0760 -0.2651 -0.7034
   83DG     C18 1904   0.600   2.208   1.630 -0.2175  0.2828 -0.0747
   83DG     O19 1905   0.469   2.251   1.605  0.5743  0.3358 -0.5028
   83DG     H20 1906   0.463   2.449   1.614  0.2828  0.0136 -0.9959
   83DG     H21 1907   0.517   2.396   1.452  0.9337  1.7430  0.4231
   83DG     H22 1908   0.656   2.288   1.679  0.4527  0.0741 -0.4932
   83DG     H23 1909   0.645   2.193   1.532 -0.5882 -2.4101  0.1082
   84DG      C1 1910   3.753   3.253   4.511  0.6437  0.4317 -0.6492
   84DG      C2 1911   4.122   3.704   4.805  0.1788  0.4743 -0.0990
   84DG      H3 1912   3.656   3.292   4.478  0.1757 -0.9646 -0.9798
   84DG      H4 1913   3.728   3.235   4.615 -0.0131 -0.8644 -1.0104
   84DG      H5 1914   3.784   3.168   4.452 -0.0167  1.0442 -1.9296
   84DG      H6 1915   4.061   3.674   4.891  0.1908  0.2357 -0.1723
   84DG      H7 1916   4.216   3.724   4.856 -1.0470 -0.9004  2.9795
   84DG      H8 1917   4.077   3.793   4.761 -1.3755 -0.2018  0.0640
   84DG      O9 1918   3.855   3.352   4.506 -0.3279  0.0435 -0.4546
   84DG     O10 1919   4.122   3.598   4.710  0.0881  0.5630 -0.3272
   84DG     C11 1920   3.899   3.382   4.378  0.1731 -0.3976  0.3078
   84DG     C12 1921   4.207   3.626   4.606 -0.1907 -0.1031  0.9364
   84DG     H13 1922   3.852   3.477   4.352  0.7866 -0.2147 -0.1540
   84DG     H14 1923   3.864   3.305   4.309 -1.9788  2.4078 -1.9544
   84DG     H15 1924   4.307   3.642   4.647  0.1972 -1.6505  0.6605
   84DG     H16 1925   4.173   3.705   4.539  0.5670 -2.9092 -3.0452
   84DG     C17 1926   4.042   3.409   4.370  0.2321 -0.0937 -0.1698
   84DG     C18 1927   4.215   3.506   4.506  0.2292 -0.1779 -0.0239
   84DG     O19 1928   4.080   3.483   4.483 -0.1136  0.4158  0.0143
   84DG     H20 1929   4.061   3.465   4.279  0.6430 -0.9421 -0.6165
   84DG     H21 1930   4.093   3.313   4.367  0.0985 -0.1708 -0.0225
   84DG     H22 1931   4.263   3.529   4.411 -0.2508 -1.9661 -0.7474
   84DG     H23 1932   4.255   3.414   4.550  0.0115 -0.8851 -1.2613
   85DG      C1 1933   3.560   1.407   0.580 -0.4181  0.6183  0.2859
   85DG      C2 1934   3.027   1.525   0.299  0.2516  0.1326 -1.3516
   85DG      H3 1935   3.615   1.396   0.673  0.0659 -0.8511 -0.1414
   85DG      H4 1936   3.619   1.467   0.509  0.6340  1.5852  1.9059
   85DG      H5 1937   3.545   1.314   0.526  0.1431 -0.0592  1.2665
   85DG      H6 1938   3.126   1.564   0.273  0.6925  0.7214  0.9805
   85DG      H7 1939   3.022   1.420   0.269 -0.2953 -0.6656  1.3010
   85DG      H8 1940   2.957   1.588   0.246 -1.3759  0.1750  0.7374
   85DG      O9 1941   3.435   1.467   0.618 -0.6642 -0.0943  0.4449
   85DG     O10 1942   3.001   1.541   0.436 -0.0865 -0.3699 -0.1825
   85DG     C11 1943   3.452   1.608   0.651  0.2603 -0.4383 -0.9118
   85DG     C12 1944   2.987   1.676   0.482 -0.3702  0.1093 -0.4340
   85DG     H13 1945   3.478   1.665   0.562 -1.3110  0.3156 -0.9209
   85DG     H14 1946   3.524   1.616   0.733 -1.9033 -2.9737  1.4341
   85DG     H15 1947   2.887   1.684   0.525 -0.0556  3.1503 -0.0109
   85DG     H16 1948   2.990   1.736   0.391 -0.2781 -0.2156 -0.6453
   85DG     C17 1949   3.306   1.654   0.680  0.4467  0.1882 -0.7916
   85DG     C18 1950   3.090   1.701   0.592  0.1730  0.2266  0.5407
   85DG     O19 1951   3.214   1.630   0.572  0.3231  0.1169 -0.0623
   85DG     H20 1952   3.323   1.762   0.682  2.2923 -0.0594 -0.7026
   85DG     H21 1953   3.288   1.620   0.782  2.2421 -1.2433 -0.8958
   85DG     H22 1954   3.095   1.808   0.614 -2.4270  0.1493  1.8312
   85DG     H23 1955   3.057   1.652   0.683 -0.5158 -2.0478 -0.8593
   86DG      C1 1956   3.710   0.173   1.949  0.0432 -0.3284 -0.4905
   86DG      C2 1957   3.634  -0.553   2.146 -0.6068  0.0714 -0.6172
   86DG      H3 1958   3.635   0.238   1.994 -1.4595 -2.2638 -0.0619
   86DG      H4 1959   3.681   0.140   1.850  2.4700  1.1823 -1.8055
   86DG      H5 1960   3.802   0.229   1.931  0.9730 -1.5013  0.4563
   86DG      H6 1961   3.571  -0.637   2.173  2.4736 -1.5176  2.3548
   86DG      H7 1962   3.619  -0.517   2.044 -1.0342  0.2764 -0.4840
   86DG      H8 1963   3.733  -0.598   2.141 -0.2219  0.7364  0.6130
   86DG      O9 1964   3.753   0.072   2.040  0.7394 -0.0689 -0.1817
   86DG     O10 1965   3.656  -0.439   2.233 -0.4262  0.4316  0.5940
   86DG     C11 1966   3.721   0.093   2.178  0.5722  0.3739 -0.4704
   86DG     C12 1967   3.754  -0.357   2.186 -0.6874 -0.3569 -0.9080
   86DG     H13 1968   3.612   0.085   2.180  0.6933 -1.5942  0.6731
   86DG     H14 1969   3.745   0.196   2.205  1.4255 -0.0838  0.6007
   86DG     H15 1970   3.740  -0.337   2.079  2.6903  3.3363 -0.9133
   86DG     H16 1971   3.856  -0.394   2.195 -0.4301  0.2543 -1.2554
   86DG     C17 1972   3.803   0.002   2.278  0.7517  0.4497  0.0829
   86DG     C18 1973   3.747  -0.232   2.276  0.9087  0.4069 -0.7533
   86DG     O19 1974   3.810  -0.119   2.211  0.0954  0.8920 -0.2318
   86DG     H20 1975   3.764   0.001   2.380 -0.5417  2.4809 -0.3251
   86DG     H21 1976   3.906   0.036   2.290  2.0745 -2.7833 -0.9737
   86DG     H22 1977   3.640  -0.212   2.280  0.4055 -1.9059 -1.4335
   86DG     H23 1978   3.773  -0.263   2.377 -0.3779 -1.6569 -0.9986
   87DG      C1 1979   3.594   2.402   3.041 -0.3891 -0.3776  0.0829
   87DG      C2 1980   4.101   2.656   3.237  1.0367  0.2271  0.2418
   87DG      H3 1981   3.585   2.510   3.055 -2.1393 -0.4101 -0.5169
   87DG      H4 1982   3.518   2.345   3.095 -0.7035  0.0521  0.1023
   87DG      H5 1983   3.569   2.386   2.936 -1.2662 -3.3951  0.6575
   87DG      H6 1984   4.108   2.697   3.136  0.8373 -0.4688 -0.0612
   87DG      H7 1985   4.028   2.706   3.301  2.9521  2.5131  0.7884
   87DG      H8 1986   4.197   2.664   3.288  0.7017  0.1309  0.8999
   87DG      O9 1987   3.733   2.365   3.057 -0.2342  0.1855  0.5680
   87DG     O10 1988   4.057   2.517   3.232  0.8124  0.1349 -0.2878
   87DG     C11 1989   3.763   2.228   3.060  0.5207  0.3028  0.3321
   87DG     C12 1990   4.140   2.426   3.159 -0.3281  0.5168  0.2742
   87DG     H13 1991   3.717   2.169   2.981  2.3559 -1.6410  0.6100
   87DG     H14 1992   3.723   2.179   3.149 -0.4975  0.3922 -0.0616
   87DG     H15 1993   4.246   2.434   3.179  0.1930  0.6490 -2.2277
   87DG     H16 1994   4.128   2.433   3.051 -1.0108  0.2499  0.3270
   87DG     C17 1995   3.906   2.204   3.077  0.2050 -0.2982  1.1377
   87DG     C18 1996   4.092   2.287   3.205 -0.2455 -0.4389 -0.2439
   87DG     O19 1997   3.950   2.286   3.187 -0.2142  0.9259 -0.0902
   87DG     H20 1998   3.957   2.250   2.993 -1.5308  0.2286  0.3136
   87DG     H21 1999   3.920   2.096   3.082  0.7430 -0.4448 -1.7836
   87DG     H22 2000   4.156   2.208   3.164  3.2057  0.2896  3.1626
   87DG     H23 2001   4.109   2.277   3.312 -0.4578 -0.7843 -0.2425
   88DG      C1 2002   3.310   1.270   2.639 -0.3243 -0.9517  0.0597
   88DG      C2 2003   2.641   1.391   2.363 -0.6517 -0.2291 -0.4403
   88DG      H3 2004   3.332   1.368   2.597  0.9475 -1.1446  0.2199
   88DG      H4 2005   3.366   1.196   2.580 -0.4597  0.2189 -1.6047
   88DG      H5 2006   3.355   1.276   2.738 -0.2481  2.5191 -0.0679
   88DG      H6 2007   2.543   1.343   2.362 -0.3768 -0.8398 -2.0419
   88DG      H7 2008   2.643   1.469   2.439 -0.9347  0.8176 -1.4593
   88DG      H8 2009   2.648   1.442   2.266 -1.2520  1.3676  0.3253
   88DG      O9 2010   3.166   1.244   2.630  0.2828 -0.8103  0.0844
   88DG     O10 2011   2.743   1.297   2.396  0.2753 -0.3299 -0.4707
   88DG     C11 2012   3.140   1.109   2.663 -0.0704 -0.3757 -0.2110
   88DG     C12 2013   2.708   1.213   2.510  0.0736 -0.0258 -0.2659
   88DG     H13 2014   3.194   1.082   2.754 -1.2444 -0.3354  0.5173
   88DG     H14 2015   3.196   1.050   2.590 -1.1434  1.3253 -2.5105
   88DG     H15 2016   2.614   1.162   2.488  0.3410 -0.4477 -0.4662
   88DG     H16 2017   2.693   1.265   2.604 -2.3485  1.0499 -1.1523
   88DG     C17 2018   2.989   1.085   2.672 -0.7759  0.5009  0.1595
   88DG     C18 2019   2.801   1.099   2.528 -0.0046 -0.3777  0.9785
   88DG     O19 2020   2.932   1.141   2.556 -0.2944 -0.5089  0.4322
   88DG     H20 2021   2.967   1.134   2.767 -0.9245 -1.1195  0.9985
   88DG     H21 2022   2.972   0.979   2.689 -0.8069  0.4411 -0.2443
   88DG     H22 2023   2.765   1.019   2.593 -0.8881  0.3563  1.4028
   88DG     H23 2024   2.820   1.050   2.432  1.2833 -0.0362  1.0370
   89DG      C1 2025   2.863   1.871   1.383  0.3421 -0.5221  0.3230
   89DG      C2 2026   2.849   1.816   2.066 -0.2649  0.2865  0.0149
   89DG      H3 2027   2.877   1.978   1.368 -0.5026 -0.2687  1.2326
   89DG      H4 2028   2.769   1.825   1.351  0.1129  0.2182 -0.1210
   89DG      H5 2029   2.937   1.824   1.318  0.7629  1.6248 -0.8776
   89DG      H6 2030   2.859   1.887   2.147  2.2055 -0.6342  0.6253
   89DG      H7 2031   2.809   1.725   2.109  0.0037  0.9063  1.6376
   89DG      H8 2032   2.943   1.796   2.013 -1.1227 -0.2617 -1.3481
   89DG      O9 2033   2.889   1.811   1.513  0.1835  0.2716  0.1237
   89DG     O10 2034   2.764   1.878   1.966 -0.1904  0.0462  0.0108
   89DG     C11 2035   3.019   1.849   1.561 -0.5109 -0.0745 -0.2169
   89DG     C12 2036   2.803   2.017   1.940 -0.2312 -0.1218  0.2406
   89DG     H13 2037   3.093   1.860   1.482 -0.0857  0.4956  0.2608
   89DG     H14 2038   3.055   1.772   1.630 -1.3335  0.4968  0.8779
   89DG     H15 2039   2.788   2.077   2.030 -2.7905 -1.5909  0.9143
   89DG     H16 2040   2.738   2.069   1.870  0.9302  0.1236 -0.6723
   89DG     C17 2041   2.998   1.981   1.634 -0.0474 -0.5611 -0.1026
   89DG     C18 2042   2.932   2.032   1.855  0.1091 -0.1733  0.0756
   89DG     O19 2043   2.904   1.956   1.739  0.0823 -0.5919 -0.4463
   89DG     H20 2044   2.962   2.062   1.571  0.8169 -0.6000 -0.6660
   89DG     H21 2045   3.094   2.008   1.679  0.4707  1.6627 -2.3163
   89DG     H22 2046   2.954   2.136   1.827  1.6625 -0.0081  1.7722
   89DG     H23 2047   3.023   2.010   1.911 -0.1682  0.2614  0.7076
   90DG      C1 2048   3.826   4.813   0.529  0.2520  0.1787 -0.3279
   90DG      C2 2049   3.987   5.004  -0.066  0.5111 -0.4093  0.4393
   90DG      H3 2050   3.889   4.900   0.542  0.1204  0.5688 -1.9920
   90DG      H4 2051   3.849   4.741   0.607  1.3791  0.0096 -0.7939
   90DG      H5 2052   3.726   4.856   0.536  0.5032  0.9320 -1.2033
   90DG      H6 2053   4.043   4.987  -0.158 -1.4877 -1.3682 -0.6549
   90DG      H7 2054   3.898   5.061  -0.092  1.6234  1.1203 -0.1287
   90DG      H8 2055   4.050   5.064  -0.000  0.6256  1.1022 -1.0137
   90DG      O9 2056   3.862   4.757   0.401 -0.1901 -0.5103 -0.6304
   90DG     O10 2057   3.957   4.887   0.004  0.0220  0.2492  0.6587
   90DG     C11 2058   3.779   4.644   0.377 -0.0165  0.3678 -0.5026
   90DG     C12 2059   3.880   4.786  -0.062 -0.2982  0.2340  0.2189
   90DG     H13 2060   3.678   4.686   0.368 -0.1217  0.5725  1.2484
   90DG     H14 2061   3.774   4.571   0.458 -0.6873 -0.0575 -0.9115
   90DG     H15 2062   3.913   4.769  -0.165  1.6550 -2.0635  1.1365
   90DG     H16 2063   3.779   4.827  -0.059 -0.1634  0.5230  1.1598
   90DG     C17 2064   3.826   4.586   0.248 -0.6201 -0.2401  0.7627
   90DG     C18 2065   3.893   4.660   0.024  0.0110 -0.2413  0.2436
   90DG     O19 2066   3.873   4.695   0.161 -0.1682 -0.1183  0.4592
   90DG     H20 2067   3.745   4.530   0.203 -0.3938  0.3523 -0.4171
   90DG     H21 2068   3.905   4.512   0.261 -2.2904 -2.1175  0.7093
   90DG     H22 2069   3.809   4.594   0.001  0.4627 -0.0026 -2.3111
   90DG     H23 2070   3.984   4.605   0.002 -0.4152 -0.6524 -0.5460
   91DG      C1 2071   4.437   0.392   1.113  0.7758  0.2730  0.4087
   91DG      C2 2072   4.064   0.427   1.880  0.2255 -0.0465  0.2259
   91DG      H3 2073   4.332   0.421   1.111  0.4560 -0.8022  1.1229
   91DG      H4 2074   4.432   0.284   1.104 -2.2213  0.4401 -1.2349
   91DG      H5 2075   4.488   0.434   1.026 -0.2843 -0.0356 -0.3803
   91DG      H6 2076   3.990   0.347   1.892  1.1176 -1.0546 -0.7361
   91DG      H7 2077   4.132   0.409   1.964 -0.3760 -1.5947  0.4256
   91DG      H8 2078   4.006   0.518   1.889 -0.4042 -0.0699 -2.6292
   91DG      O9 2079   4.523   0.425   1.215 -0.0332 -0.4677 -0.5309
   91DG     O10 2080   4.149   0.425   1.762  0.0572  0.7152 -0.0748
   91DG     C11 2081   4.476   0.392   1.347 -0.0866  0.1206  0.1706
   91DG     C12 2082   4.234   0.535   1.741 -0.2941 -0.6156  0.2519
   91DG     H13 2083   4.560   0.375   1.415  0.2031  1.3115  0.1337
   91DG     H14 2084   4.442   0.289   1.347 -0.7487  0.3340  0.4755
   91DG     H15 2085   4.326   0.520   1.798  0.4423  0.1830 -0.7002
   91DG     H16 2086   4.196   0.627   1.784  1.4055 -1.6060  4.3279
   91DG     C17 2087   4.368   0.486   1.394  0.4570  0.8885  0.1079
   91DG     C18 2088   4.252   0.562   1.590 -0.2056  0.5686 -0.3904
   91DG     O19 2089   4.347   0.476   1.539 -0.5172  0.5876 -0.2612
   91DG     H20 2090   4.270   0.476   1.347  0.8885 -2.4079 -0.2878
   91DG     H21 2091   4.387   0.589   1.361  0.5844  0.4070 -1.4108
   91DG     H22 2092   4.157   0.545   1.538  1.4157 -2.0260 -2.8074
   91DG     H23 2093   4.279   0.666   1.569  0.7785  0.4173  0.0674
   92DG      C1 2094   1.264   3.924   4.273  0.2070  0.0947 -0.1045
   92DG      C2 2095   0.693   3.937   4.723 -0.0886  0.0166  0.2344
   92DG      H3 2096   1.342   3.987   4.231  0.6650 -0.1826  0.3078
   92DG      H4 2097   1.202   3.891   4.190 -2.4227  2.3496  0.7912
   92DG      H5 2098   1.289   3.823   4.307 -1.7046 -0.5432 -0.4491
   92DG      H6 2099   0.640   3.920   4.630  0.6849 -2.0482  0.1234
   92DG      H7 2100   0.691   3.845   4.782  0.7599 -0.5613 -0.6107
   92DG      H8 2101   0.653   4.021   4.780 -1.0616  0.3276 -0.8672
   92DG      O9 2102   1.177   3.992   4.365 -0.3748  0.5401  0.0564
   92DG     O10 2103   0.829   3.975   4.685 -0.6093  0.2106  0.0401
   92DG     C11 2104   1.250   4.081   4.453  0.4122  0.0304 -0.0108
   92DG     C12 2105   0.927   3.975   4.793  0.7316  0.1576 -0.5378
   92DG     H13 2106   1.300   4.166   4.406  2.4404  0.2567  2.3410
   92DG     H14 2107   1.333   4.039   4.509  0.4159  0.8789  0.6508
   92DG     H15 2108   0.967   3.876   4.813  1.3323  0.5502  0.2933
   92DG     H16 2109   0.877   4.015   4.881  1.1689  4.8541 -2.1383
   92DG     C17 2110   1.168   4.138   4.574  0.6207 -0.1171 -0.0719
   92DG     C18 2111   1.035   4.071   4.761  0.2529 -0.4942 -0.4561
   92DG     O19 2112   1.099   4.036   4.641  0.2252  0.4659  0.1001
   92DG     H20 2113   1.109   4.216   4.525  2.8296  1.7811  0.0792
   92DG     H21 2114   1.245   4.186   4.635  1.0895 -1.5617  0.5047
   92DG     H22 2115   0.998   4.174   4.761 -2.8310 -1.4445  2.1876
   92DG     H23 2116   1.108   4.064   4.842  1.1842 -0.1039 -1.2543
   93DG      C1 2117   1.148   2.321   5.301 -0.3551  0.0956 -0.4416
   93DG      C2 2118   0.902   1.726   5.042  0.5260 -0.5876  0.0640
   93DG      H3 2119   1.190   2.364   5.393  0.9437 -0.5903 -0.6886
   93DG      H4 2120   1.045   2.354   5.292 -0.0449  1.4610  0.5417
   93DG      H5 2121   1.200   2.366   5.217  2.1337  0.1078  0.9908
   93DG      H6 2122   0.904   1.771   4.943 -1.5996 -0.6187 -0.0351
   93DG      H7 2123   0.905   1.617   5.041 -0.5179 -0.6463  1.0645
   93DG      H8 2124   0.807   1.764   5.081 -1.1975 -0.5918 -3.6475
   93DG      O9 2125   1.158   2.180   5.309  0.1859  0.2687 -0.6056
   93DG     O10 2126   1.007   1.774   5.118  0.1586  0.5456 -0.2896
   93DG     C11 2127   1.098   2.130   5.431  0.7047 -1.2374  0.5731
   93DG     C12 2128   1.014   1.699   5.238  0.3194  0.0990  0.2534
   93DG     H13 2129   0.990   2.139   5.419  0.8400 -1.3198 -0.8445
   93DG     H14 2130   1.125   2.185   5.521  0.6010 -0.3935  0.1031
   93DG     H15 2131   1.032   1.592   5.227 -1.4021 -0.2174  0.2589
   93DG     H16 2132   0.914   1.690   5.280  0.2579  1.9912  0.5779
   93DG     C17 2133   1.121   1.977   5.450  0.0077 -0.1887 -0.5762
   93DG     C18 2134   1.106   1.768   5.340 -0.3341 -0.0717 -0.1670
   93DG     O19 2135   1.090   1.912   5.328 -0.6415 -0.1810 -0.5456
   93DG     H20 2136   1.064   1.938   5.535 -0.4064 -1.0724 -1.2375
   93DG     H21 2137   1.224   1.961   5.479 -0.0893 -1.4092 -0.8623
   93DG     H22 2138   1.077   1.724   5.436  0.6401 -1.3317 -0.4209
   93DG     H23 2139   1.211   1.749   5.317  0.2420  0.7852  1.5884
   94DG      C1 2140   4.224   4.726   0.171 -0.0131  0.0182 -0.1202
   94DG      C2 2141   4.142   5.291   0.634  0.6211 -0.3676 -0.2462
   94DG      H3 2142   4.167   4.647   0.220 -1.9795  0.1844 -1.9611
   94DG      H4 2143   4.328   4.694   0.170  0.2037  0.5837  1.3822
   94DG      H5 2144   4.179   4.738   0.072 -0.7598  1.4876  0.3575
   94DG      H6 2145   4.210   5.247   0.707  0.2492  1.6503  1.4165
   94DG      H7 2146   4.155   5.399   0.634 -0.6326 -0.1886 -1.4897
   94DG      H8 2147   4.047   5.276   0.687  1.1953  2.3154  1.7637
   94DG      O9 2148   4.198   4.853   0.237  0.0793 -0.2326  0.3346
   94DG     O10 2149   4.146   5.237   0.502  0.5777  0.4520  0.4854
   94DG     C11 2150   4.259   4.965   0.175  0.3884  0.0733  0.4510
   94DG     C12 2151   4.024   5.258   0.436  0.0814  0.8037  0.2911
   94DG     H13 2152   4.241   4.969   0.068  1.1593  1.6660  0.3608
   94DG     H14 2153   4.368   4.961   0.175  0.4479  1.2045 -0.2773
   94DG     H15 2154   3.993   5.361   0.450 -0.8260  0.6623 -0.5547
   94DG     H16 2155   3.938   5.206   0.478 -1.4416  0.5081 -2.9155
   94DG     C17 2156   4.223   5.092   0.242  0.8544  0.8755  0.0876
   94DG     C18 2157   4.032   5.231   0.286 -0.4207 -0.0717 -0.2984
   94DG     O19 2158   4.080   5.099   0.246  0.1231 -0.1914  0.7280
   94DG     H20 2159   4.282   5.169   0.192  0.5548  1.8208  1.1351
   94DG     H21 2160   4.267   5.080   0.341  4.2293  0.3715 -1.3347
   94DG     H22 2161   3.936   5.254   0.240 -1.0972 -0.0908  1.0587
   94DG     H23 2162   4.097   5.306   0.241 -1.2027  1.2407  0.6877
   95DG      C1 2163   1.042   1.499   3.994  0.0991  0.0384 -0.1223
   95DG      C2 2164   0.536   1.298   3.552  0.7525 -0.6186 -0.0537
   95DG      H3 2165   1.008   1.601   4.007 -0.8232 -0.4947  1.9528
   95DG      H4 2166   1.141   1.496   4.039  0.1677  1.0119 -0.1798
   95DG      H5 2167   0.969   1.448   4.055  0.1649 -1.7469 -1.4529
   95DG      H6 2168   0.479   1.367   3.489  0.5328  0.2518  1.0638
   95DG      H7 2169   0.568   1.221   3.482 -1.0876  0.1225 -1.8128
   95DG      H8 2170   0.471   1.252   3.626  1.0904 -2.1601 -0.6813
   95DG      O9 2171   1.046   1.466   3.852 -0.1143  0.0386 -0.4186
   95DG     O10 2172   0.662   1.344   3.605  0.4511  0.5012  0.2003
   95DG     C11 2173   1.039   1.324   3.837 -0.0304  0.3501 -0.2987
   95DG     C12 2174   0.745   1.433   3.531  0.3502 -0.5112  0.4342
   95DG     H13 2175   0.943   1.296   3.880 -0.1934  2.0807  0.5457
   95DG     H14 2176   1.123   1.283   3.893 -0.4642 -0.8782 -0.5155
   95DG     H15 2177   0.700   1.532   3.524 -1.1996 -1.3199 -2.6804
   95DG     H16 2178   0.751   1.389   3.432 -1.2180  1.7585 -0.7492
   95DG     C17 2179   1.042   1.288   3.692 -0.2315  0.0234  0.6944
   95DG     C18 2180   0.876   1.439   3.611  0.2640  1.0403 -0.1365
   95DG     O19 2181   0.925   1.304   3.616  0.0620 -0.1508 -0.3023
   95DG     H20 2182   1.079   1.185   3.687  3.2194  1.1487  0.9393
   95DG     H21 2183   1.118   1.342   3.637 -1.6933  0.0659 -1.3929
   95DG     H22 2184   0.948   1.504   3.560 -1.2784  2.7483 -0.2441
   95DG     H23 2185   0.868   1.487   3.708  3.3720  1.3438  0.0650
   96DG      C1 2186   1.581   0.984   0.144 -0.2351  0.3012 -0.1373
   96DG      C2 2187   1.663   0.478   0.862 -0.1882 -0.5742 -0.8420
   96DG      H3 2188   1.600   0.996   0.037  1.4476  2.8212  0.3705
   96DG      H4 2189   1.672   1.017   0.193  0.1738 -0.3105 -0.4628
   96DG      H5 2190   1.502   1.052   0.176  0.4865 -0.1050  2.8347
   96DG      H6 2191   1.618   0.383   0.891  1.0214 -0.3395  2.2385
   96DG      H7 2192   1.768   0.460   0.842  0.2921  1.5083 -0.5150
   96DG      H8 2193   1.660   0.542   0.950  2.4684  0.7779 -1.6416
   96DG      O9 2194   1.546   0.848   0.178 -0.1922  0.3834  0.0954
   96DG     O10 2195   1.605   0.535   0.743  0.1908 -0.0527 -0.4546
   96DG     C11 2196   1.579   0.822   0.316  0.6452 -0.0218 -0.1245
   96DG     C12 2197   1.613   0.451   0.626 -0.3973  0.4633  0.2316
   96DG     H13 2198   1.533   0.888   0.390 -0.1266 -1.0690  0.3611
   96DG     H14 2199   1.686   0.816   0.337  0.5635  0.9264  0.6851
   96DG     H15 2200   1.568   0.353   0.642  1.3289 -0.6044 -1.1045
   96DG     H16 2201   1.718   0.447   0.600 -0.4459 -0.2204  0.1182
   96DG     C17 2202   1.540   0.681   0.335 -0.5376 -0.1218 -0.1345
   96DG     C18 2203   1.547   0.506   0.500  0.1360  0.1952  0.4733
   96DG     O19 2204   1.589   0.637   0.460 -0.5028 -0.0039 -0.0642
   96DG     H20 2205   1.596   0.623   0.262  1.2046  1.6050 -0.2378
   96DG     H21 2206   1.433   0.661   0.330 -0.8558  1.5572 -0.4298
   96DG     H22 2207   1.578   0.431   0.427  1.4871  0.3913  0.8310
   96DG     H23 2208   1.440   0.499   0.519  0.1428 -0.0753  0.4119
   97DG      C1 2209   3.546   3.272   1.906 -0.1274 -0.8128  0.2136
   97DG      C2 2210   3.169   3.384   1.319  0.0218 -0.0046  0.3241
   97DG      H3 2211   3.621   3.351   1.909  1.3471 -2.2021  1.3897
   97DG      H4 2212   3.594   3.175   1.913  1.5054 -0.2108 -1.5924
   97DG      H5 2213   3.489   3.290   1.997  1.6210 -0.3205  1.2616
   97DG      H6 2214   3.163   3.410   1.214  1.8729  0.1287  0.2119
   97DG      H7 2215   3.069   3.345   1.337 -0.9346  0.4219 -3.2575
   97DG      H8 2216   3.202   3.466   1.382  1.2982  0.5641 -1.0096
   97DG      O9 2217   3.471   3.285   1.781  0.1787  0.1168 -0.4320
   97DG     O10 2218   3.239   3.262   1.344  0.5228 -0.3376  0.8115
   97DG     C11 2219   3.571   3.257   1.680  0.2568 -0.3831 -0.6342
   97DG     C12 2220   3.371   3.263   1.287  0.3123  0.3143 -0.1017
   97DG     H13 2221   3.612   3.157   1.686  3.7968  1.0023  1.5803
   97DG     H14 2222   3.656   3.325   1.673  0.1929 -0.3562 -1.2373
   97DG     H15 2223   3.416   3.359   1.313 -0.9218  0.7435  0.5420
   97DG     H16 2224   3.375   3.262   1.178 -1.5843  0.8337 -0.2145
   97DG     C17 2225   3.522   3.297   1.541 -0.3570  0.3201 -1.0585
   97DG     C18 2226   3.469   3.152   1.359 -0.0338 -0.7228 -0.2064
   97DG     O19 2227   3.449   3.175   1.499  0.0490 -0.0861 -0.2225
   97DG     H20 2228   3.608   3.320   1.478 -0.0367  0.7266 -0.4839
   97DG     H21 2229   3.462   3.388   1.545 -2.4576 -1.0638  0.4540
   97DG     H22 2230   3.439   3.048   1.349  1.5895 -1.4360  1.7056
   97DG     H23 2231   3.571   3.163   1.323 -0.2899  0.5810 -0.5930
   98DG      C1 2232   5.016   5.226   1.465  0.3718 -0.8471  0.8710
   98DG      C2 2233   4.534   5.230   1.421 -0.4988  0.4667 -0.1949
   98DG      H3 2234   5.007   5.296   1.549  0.1572  0.4588 -0.2140
   98DG      H4 2235   5.121   5.214   1.436  0.4904  0.2013  0.8242
   98DG      H5 2236   4.980   5.131   1.505 -1.5139  0.0613  1.4502
   98DG      H6 2237   4.641   5.214   1.404 -0.7025 -0.5191 -0.6377
   98DG      H7 2238   4.530   5.288   1.513  0.7323  0.1014  0.1169
   98DG      H8 2239   4.492   5.130   1.433  1.0137 -0.1684  0.0964
   98DG      O9 2240   4.919   5.255   1.361 -0.4280  0.4403  0.3707
   98DG     O10 2241   4.455   5.298   1.325 -0.0836 -0.0998 -0.0400
   98DG     C11 2242   4.950   5.367   1.281  0.1088 -0.1317 -0.1816
   98DG     C12 2243   4.490   5.429   1.312 -0.7704 -0.5799  0.1739
   98DG     H13 2244   5.044   5.354   1.228  1.2553 -0.1644  1.7637
   98DG     H14 2245   4.962   5.451   1.349 -1.2278 -2.0959  2.6701
   98DG     H15 2246   4.516   5.487   1.400  0.5928  0.7353 -1.0147
   98DG     H16 2247   4.397   5.478   1.283 -0.4804 -0.3289 -0.3587
   98DG     C17 2248   4.828   5.402   1.184 -0.5804  0.9445  0.5868
   98DG     C18 2249   4.600   5.453   1.210 -0.2533  0.1639  0.3781
   98DG     O19 2250   4.721   5.412   1.274 -0.1415  0.3861  0.0990
   98DG     H20 2251   4.814   5.322   1.111 -2.4533  1.1510  0.6739
   98DG     H21 2252   4.838   5.496   1.131  0.4093  1.3085  1.3756
   98DG     H22 2253   4.571   5.387   1.128  0.3496 -0.1596  0.4170
   98DG     H23 2254   4.599   5.552   1.166 -2.1941  0.2894  0.6258
   99DG      C1 2255   5.233   2.116   0.861  0.1501  0.4814  1.0593
   99DG      C2 2256   4.626   2.442   0.438  0.1985  0.2272 -0.3773
   99DG      H3 2257   5.173   2.025   0.870 -1.5539  1.0408 -2.6770
   99DG      H4 2258   5.330   2.105   0.909 -0.3609 -3.7763  1.5092
   99DG      H5 2259   5.256   2.123   0.755  0.3472 -3.2854  0.7013
   99DG      H6 2260   4.628   2.497   0.344  0.5954 -0.7116 -0.9359
   99DG      H7 2261   4.563   2.354   0.428  0.5128  0.1592 -2.0158
   99DG      H8 2262   4.566   2.505   0.503 -0.6672  1.0339 -1.9064
   99DG      O9 2263   5.161   2.219   0.921  0.0536 -0.1132  0.6031
   99DG     O10 2264   4.754   2.408   0.479 -0.1385 -0.5564 -0.1369
   99DG     C11 2265   5.042   2.259   0.847  1.0101 -0.4864 -0.4048
   99DG     C12 2266   4.842   2.527   0.506  0.5333  0.6522  0.0813
   99DG     H13 2267   4.986   2.321   0.917  0.4030 -0.5595 -0.8116
   99DG     H14 2268   4.979   2.174   0.821  0.1814 -0.3214  0.9573
   99DG     H15 2269   4.800   2.595   0.580  0.7206  0.1497  0.6522
   99DG     H16 2270   4.857   2.578   0.410  1.5798 -0.5826 -0.4390
   99DG     C17 2271   5.078   2.345   0.730 -0.0286 -0.0502  0.0013
   99DG     C18 2272   4.980   2.478   0.554 -0.1727  0.5413 -0.0196
   99DG     O19 2273   4.961   2.391   0.664  0.6681 -0.1268 -0.1536
   99DG     H20 2274   5.135   2.291   0.655  0.9640 -0.9689  1.3711
   99DG     H21 2275   5.141   2.423   0.772 -1.2795  0.6380  0.6687
   99DG     H22 2276   5.030   2.427   0.471 -0.3748  0.6699 -0.2230
   99DG     H23 2277   5.041   2.563   0.585  0.1133 -0.0973  1.2357
  100DG      C1 2278   1.487   1.663   2.340  0.5440  0.0323 -0.5492
  100DG      C2 2279   2.095   1.861   2.599 -0.2191 -0.4991 -0.3395
  100DG      H3 2280   1.382   1.693   2.341 -0.0186 -1.7599  1.3236
  100DG      H4 2281   1.498   1.559   2.371  2.6251  0.1643 -0.6895
  100DG      H5 2282   1.525   1.671   2.238 -1.2914  0.1570 -1.2572
  100DG      H6 2283   2.125   1.884   2.496  2.4550  0.0720  0.4912
  100DG      H7 2284   2.123   1.954   2.649 -3.2206 -1.6105  3.9113
  100DG      H8 2285   2.163   1.782   2.629 -0.0862 -0.1542  0.2881
  100DG      O9 2286   1.534   1.750   2.440 -0.0257  0.4117 -0.7288
  100DG     O10 2287   1.959   1.838   2.620  0.3183 -0.0732  0.5836
  100DG     C11 2288   1.481   1.726   2.569 -0.2306 -0.0745  0.0432
  100DG     C12 2289   1.940   1.819   2.759 -0.1643  0.3264  0.0674
  100DG     H13 2290   1.487   1.619   2.585 -1.0474 -0.1521 -0.1028
  100DG     H14 2291   1.376   1.755   2.572  0.3934  2.4060  0.0843
  100DG     H15 2292   2.006   1.877   2.823  0.6151 -1.5981  1.1188
  100DG     H16 2293   1.960   1.714   2.783 -1.9537 -0.0984 -0.1745
  100DG     C17 2294   1.570   1.804   2.676  0.0574  0.4606 -0.0386
  100DG     C18 2295   1.789   1.851   2.783 -0.0062 -0.4228  0.4473
  100DG     O19 2296   1.714   1.788   2.680  0.5509  0.1108  0.7116
  100DG     H20 2297   1.527   1.771   2.771 -0.1212  1.2483  0.1646
  100DG     H21 2298   1.550   1.911   2.679  1.4802  0.7236  1.8191
  100DG     H22 2299   1.768   1.806   2.880 -1.5777 -0.0857  0.2846
  100DG     H23 2300   1.767   1.957   2.787 -0.5264 -0.5272  0.4552
  101DG      C1 2301   0.523   5.073   5.440 -0.3050  0.0163 -0.1439
  101DG      C2 2302   0.989   4.946   5.274 -0.6239  0.3636 -0.1897
  101DG      H3 2303   0.470   5.004   5.506  1.0258 -1.0172 -0.1069
  101DG      H4 2304   0.617   5.023   5.420 -1.8721 -2.6425 -1.4153
  101DG      H5 2305   0.470   5.080   5.345 -0.9484 -0.6170  0.1587
  101DG      H6 2306   0.981   4.968   5.167 -2.4343 -1.4987 -0.5049
  101DG      H7 2307   1.077   4.886   5.295 -2.8414 -2.7202  1.1563
  101DG      H8 2308   0.908   4.876   5.296 -0.5503  0.5943  0.8211
  101DG      O9 2309   0.540   5.198   5.510 -0.4978 -0.3045  0.1795
  101DG     O10 2310   0.977   5.071   5.341  0.4346  0.5040  0.4564
  101DG     C11 2311   0.607   5.300   5.433  0.1932  0.1825  0.4514
  101DG     C12 2312   0.996   5.071   5.477  0.1969  0.3051  0.0241
  101DG     H13 2313   0.594   5.390   5.493  0.8331  0.8411 -0.3673
  101DG     H14 2314   0.559   5.325   5.339  0.3168  0.4785  0.4653
  101DG     H15 2315   1.101   5.063   5.505  0.2134 -2.3000 -0.5607
  101DG     H16 2316   0.940   4.987   5.519 -0.0614 -0.4827 -1.8295
  101DG     C17 2317   0.759   5.275   5.422  0.5670  0.0658  0.7161
  101DG     C18 2318   0.947   5.197   5.538  0.3893 -0.4037  0.2149
  101DG     O19 2319   0.804   5.221   5.541  0.1992  0.6091 -0.0492
  101DG     H20 2320   0.813   5.367   5.400 -0.2842  0.2826 -0.5957
  101DG     H21 2321   0.777   5.205   5.340 -0.5223 -1.4974  1.7547
  101DG     H22 2322   0.982   5.197   5.641  0.7691  0.0898  0.0901
  101DG     H23 2323   0.996   5.284   5.493 -0.8319 -0.4309 -1.2939
  102DG      C1 2324   3.796   2.007   5.151 -0.5260  0.0017 -0.4227
  102DG      C2 2325   3.924   1.596   4.589  0.1310  0.0612  0.0359
  102DG      H3 2326   3.727   2.089   5.130 -1.7031 -0.8352  0.0605
  102DG      H4 2327   3.855   2.033   5.239  0.5540 -0.8359 -0.8703
  102DG      H5 2328   3.734   1.918   5.158  0.7664 -0.8927  0.1270
  102DG      H6 2329   4.007   1.549   4.536 -1.8199 -2.4195 -1.0297
  102DG      H7 2330   3.865   1.519   4.640 -0.6611 -0.0472 -1.0077
  102DG      H8 2331   3.860   1.637   4.511  0.3156  1.8951  0.8070
  102DG      O9 2332   3.884   1.986   5.046 -0.2277  0.1395  0.0981
  102DG     O10 2333   3.978   1.695   4.668  0.2895  0.1004 -0.1999
  102DG     C11 2334   3.958   2.097   4.985 -0.9733  0.0803  0.3848
  102DG     C12 2335   4.059   1.793   4.600  0.4753  0.8334 -0.3043
  102DG     H13 2336   3.998   2.167   5.058 -1.7525  0.8539  0.0963
  102DG     H14 2337   3.891   2.157   4.921 -0.2565  2.6339  1.8819
  102DG     H15 2338   3.993   1.851   4.536  0.8644 -1.5864 -3.1211
  102DG     H16 2339   4.140   1.741   4.548 -0.2168 -0.6994  0.0926
  102DG     C17 2340   4.064   2.031   4.898  0.1277  0.3002  0.2020
  102DG     C18 2341   4.118   1.881   4.716 -0.0843 -0.3425  0.0857
  102DG     O19 2342   4.016   1.929   4.803  0.0866 -0.1560 -0.2565
  102DG     H20 2343   4.141   1.978   4.953  0.1000 -0.0795 -0.1250
  102DG     H21 2344   4.112   2.110   4.840 -0.1950  2.0117  2.1427
  102DG     H22 2345   4.186   1.819   4.775  0.7511  0.1085 -0.3903
  102DG     H23 2346   4.172   1.965   4.673 -2.8907  2.1819  1.1374
  103DG      C1 2347   2.890   3.936   2.439  0.3869  0.2352 -1.0257
  103DG      C2 2348   2.337   4.454   2.149 -0.4001  0.3510 -0.3829
  103DG      H3 2349   2.894   3.861   2.360 -3.0339 -0.8607 -0.3770
  103DG      H4 2350   2.864   3.890   2.534 -1.1649  0.3458 -1.3565
  103DG      H5 2351   2.990   3.977   2.452 -0.6800  2.8754 -0.4477
  103DG      H6 2352   2.312   4.431   2.045  0.5220 -3.0926  0.0373
  103DG      H7 2353   2.265   4.392   2.202 -1.1107  0.7483 -0.8633
  103DG      H8 2354   2.313   4.557   2.176  0.4228 -0.3053  3.3239
  103DG      O9 2355   2.796   4.038   2.390 -0.8151 -0.1932 -0.8844
  103DG     O10 2356   2.478   4.421   2.170  0.1183  0.0536  0.8869
  103DG     C11 2357   2.765   4.140   2.486  0.2239  0.8301 -0.0584
  103DG     C12 2358   2.508   4.282   2.146  0.2111  0.4296 -0.0312
  103DG     H13 2359   2.858   4.196   2.499  0.6403  0.7037 -2.0877
  103DG     H14 2360   2.719   4.094   2.573 -1.3443 -1.4261 -1.9412
  103DG     H15 2361   2.487   4.254   2.043  2.9711  0.1424 -0.5755
  103DG     H16 2362   2.436   4.233   2.212  0.4859  0.4202  0.2638
  103DG     C17 2363   2.658   4.222   2.432 -0.7556 -0.3816 -0.0900
  103DG     C18 2364   2.648   4.247   2.185  0.5409  0.5087 -0.3764
  103DG     O19 2365   2.692   4.301   2.313  0.6045 -0.0295 -0.1558
  103DG     H20 2366   2.638   4.298   2.507  0.1682  0.7187 -0.9366
  103DG     H21 2367   2.563   4.172   2.412  0.7805 -2.7035 -2.2000
  103DG     H22 2368   2.658   4.139   2.189  3.1300  0.6537 -0.9755
  103DG     H23 2369   2.721   4.287   2.114  1.5186  1.2530  0.9895
  104DG      C1 2370   4.517   5.004   5.217 -0.3411  0.0824 -0.2360
  104DG      C2 2371   4.437   4.385   5.653  0.3978 -0.2479 -0.2370
  104DG      H3 2372   4.536   5.043   5.317  1.3427 -0.7756 -0.1916
  104DG      H4 2373   4.466   5.081   5.159 -0.0795 -0.0852 -0.6921
  104DG      H5 2374   4.617   4.994   5.176  0.5221  1.4486  1.3891
  104DG      H6 2375   4.536   4.355   5.617  1.9485  1.6404  2.0797
  104DG      H7 2376   4.459   4.443   5.743 -1.8134  0.1217  0.1063
  104DG      H8 2377   4.369   4.304   5.678 -0.1843 -0.8238 -3.2658
  104DG      O9 2378   4.450   4.877   5.213 -0.0744  0.2291 -0.0339
  104DG     O10 2379   4.369   4.468   5.561  0.0319  0.3662  0.3012
  104DG     C11 2380   4.323   4.880   5.279  0.5280  0.2977 -0.1304
  104DG     C12 2381   4.376   4.431   5.424  0.5797 -0.3923  0.0029
  104DG     H13 2382   4.256   4.955   5.238 -2.3644 -0.6687  2.3940
  104DG     H14 2383   4.334   4.915   5.382 -1.3438  1.3864 -0.2530
  104DG     H15 2384   4.365   4.325   5.406  1.2865 -0.4871  0.0854
  104DG     H16 2385   4.475   4.455   5.384  1.5220 -1.8730  1.3523
  104DG     C17 2386   4.252   4.745   5.277  0.0880  0.3325 -0.2522
  104DG     C18 2387   4.280   4.518   5.337 -0.0918 -0.0895  0.0882
  104DG     O19 2388   4.326   4.654   5.344  0.2065  0.7145 -0.1247
  104DG     H20 2389   4.252   4.714   5.173  0.2650  0.9485 -0.4362
  104DG     H21 2390   4.151   4.746   5.318  0.2356 -0.2587  0.1562
  104DG     H22 2391   4.277   4.481   5.235 -1.3632 -0.2264  0.1605
  104DG     H23 2392   4.182   4.498   5.379 -0.6903  0.9005 -0.8030
  105DG      C1 2393   0.351   0.394   1.166 -0.3691 -0.2171  0.2403
  105DG      C2 2394   0.738   0.575   1.646  0.5659 -0.7092 -0.3109
  105DG      H3 2395   0.257   0.361   1.121 -0.2871  0.3190 -0.3349
  105DG      H4 2396   0.405   0.304   1.196 -2.6375 -0.4997  4.3175
  105DG      H5 2397   0.416   0.449   1.099 -1.3868  1.3765  0.5150
  105DG      H6 2398   0.781   0.668   1.684  0.5734 -0.0888 -1.7356
  105DG      H7 2399   0.732   0.506   1.729  0.6323  0.1746  0.4489
  105DG      H8 2400   0.795   0.524   1.568 -0.6154 -1.7760 -0.4979
  105DG      O9 2401   0.327   0.450   1.291  0.0072  0.3105 -0.5811
  105DG     O10 2402   0.620   0.603   1.576  0.2647  0.3799  1.2490
  105DG     C11 2403   0.243   0.562   1.285  0.0874 -1.1085 -0.8003
  105DG     C12 2404   0.524   0.675   1.655 -0.2511 -0.8985  0.8826
  105DG     H13 2405   0.143   0.552   1.244  0.7562 -2.2953 -2.2626
  105DG     H14 2406   0.297   0.633   1.222  1.3784 -0.2519  1.1943
  105DG     H15 2407   0.565   0.760   1.710 -1.3270  1.2040 -1.3226
  105DG     H16 2408   0.488   0.608   1.732  0.9451 -3.7066 -0.8372
  105DG     C17 2409   0.225   0.634   1.416 -0.5206 -0.6217 -0.3701
  105DG     C18 2410   0.399   0.730   1.569 -0.0471  0.1682  0.0563
  105DG     O19 2411   0.352   0.631   1.482 -0.3857  0.3042 -0.3145
  105DG     H20 2412   0.153   0.592   1.486 -1.0672  1.0212  0.0971
  105DG     H21 2413   0.185   0.732   1.390  0.6382 -0.4278 -1.5373
  105DG     H22 2414   0.318   0.762   1.635 -1.2657 -3.0710  0.2839
  105DG     H23 2415   0.429   0.813   1.505 -1.8660  0.0825 -0.9550
  106DG      C1 2416   3.082   2.693   3.700 -0.3282 -0.1996  0.3172
  106DG      C2 2417   3.096   2.830   3.026 -0.2677 -0.0342 -0.0202
  106DG      H3 2418   3.025   2.785   3.688  1.5775  1.0518  0.5695
  106DG      H4 2419   3.098   2.676   3.806 -0.6306  1.6922  0.7044
  106DG      H5 2420   3.007   2.617   3.678 -1.5903  0.4335  2.1975
  106DG      H6 2421   3.184   2.806   2.966  0.8155  0.2269  1.3924
  106DG      H7 2422   3.048   2.736   3.052  0.2486  0.0257  1.2194
  106DG      H8 2423   3.023   2.884   2.966 -0.0220  2.2710  1.6094
  106DG      O9 2424   3.191   2.690   3.622 -0.2733 -0.0265  0.3758
  106DG     O10 2425   3.117   2.914   3.137 -0.1160 -0.1334 -0.1505
  106DG     C11 2426   3.288   2.790   3.626 -0.1798  0.1032 -0.9029
  106DG     C12 2427   3.252   2.910   3.182  0.0704 -0.0322  0.3374
  106DG     H13 2428   3.378   2.749   3.579 -0.4424 -0.8966 -0.5591
  106DG     H14 2429   3.305   2.815   3.730  1.2533 -1.4123 -0.7301
  106DG     H15 2430   3.305   2.973   3.111  2.5226 -2.8376 -0.4949
  106DG     H16 2431   3.299   2.813   3.195  0.7075  0.3287  0.7165
  106DG     C17 2432   3.238   2.915   3.553  0.5632  0.0082 -0.2198
  106DG     C18 2433   3.267   2.977   3.320 -0.4038 -0.1192 -0.2823
  106DG     O19 2434   3.226   2.882   3.420  0.0081  0.3260 -0.3743
  106DG     H20 2435   3.314   2.987   3.582  1.8906 -1.7697  0.8862
  106DG     H21 2436   3.141   2.946   3.593  1.0939  4.9142 -2.0001
  106DG     H22 2437   3.374   2.997   3.325 -0.0191 -1.1116 -2.9000
  106DG     H23 2438   3.201   3.063   3.328 -1.1922 -0.8130  1.1768
  107DG      C1 2439   5.377   3.802   3.196 -0.6283  0.0844  0.4637
  107DG      C2 2440   4.858   4.177   3.015  0.0034 -0.2474  0.0894
  107DG      H3 2441   5.443   3.722   3.163 -1.6270 -0.1622 -1.0308
  107DG      H4 2442   5.308   3.759   3.269  0.9888 -1.3272  1.2282
  107DG      H5 2443   5.437   3.877   3.247  0.0792  0.6803 -1.1886
  107DG      H6 2444   4.767   4.146   2.964 -0.0356 -0.2814  0.1805
  107DG      H7 2445   4.865   4.139   3.117  0.0360 -0.5010 -0.0048
  107DG      H8 2446   4.876   4.282   2.992  1.5855 -0.0842  1.8747
  107DG      O9 2447   5.299   3.861   3.084 -0.5931 -0.1432 -0.4498
  107DG     O10 2448   4.965   4.108   2.964 -0.0422  0.5946  0.8548
  107DG     C11 2449   5.380   3.864   2.966  0.5635 -0.4212  0.2584
  107DG     C12 2450   5.017   4.163   2.838  0.0738 -0.3949  0.0154
  107DG     H13 2451   5.429   3.767   2.958  1.9876  0.1091  1.8776
  107DG     H14 2452   5.458   3.939   2.979  1.8003 -1.6264  0.0678
  107DG     H15 2453   5.061   4.260   2.859  0.9330 -1.1263  1.8085
  107DG     H16 2454   4.929   4.175   2.775 -0.3868  1.9823  1.0002
  107DG     C17 2455   5.296   3.912   2.842 -0.3114  0.0260 -0.7553
  107DG     C18 2456   5.127   4.065   2.779 -0.3321 -0.2675 -0.2382
  107DG     O19 2457   5.230   4.033   2.873  0.2219  0.0001 -0.0493
  107DG     H20 2458   5.218   3.836   2.841 -0.0844 -0.2121 -0.5127
  107DG     H21 2459   5.355   3.919   2.750 -0.5104 -2.2879 -1.1238
  107DG     H22 2460   5.073   3.974   2.753 -1.1328 -0.1834  1.0508
  107DG     H23 2461   5.179   4.102   2.690 -2.2470  0.3757 -1.1661
  108DG      C1 2462   0.594   3.644   4.243 -0.0561  0.4214 -0.5066
  108DG      C2 2463   0.153   3.411   4.733 -0.0796  0.7682  0.5082
  108DG      H3 2464   0.666   3.642   4.160 -0.5532  0.8804 -0.9561
  108DG      H4 2465   0.633   3.700   4.328 -0.7940 -0.9510  0.7969
  108DG      H5 2466   0.515   3.706   4.200  0.3050  0.8594 -0.5467
  108DG      H6 2467   0.231   3.447   4.798 -0.6643  0.9913  1.0977
  108DG      H7 2468   0.176   3.451   4.634  1.5512 -0.7038  0.2437
  108DG      H8 2469   0.055   3.440   4.772 -0.5150  1.3921 -0.9823
  108DG      O9 2470   0.554   3.518   4.283  0.3026  0.0090 -0.6039
  108DG     O10 2471   0.156   3.271   4.710  0.4745 -0.0745  0.7168
  108DG     C11 2472   0.448   3.504   4.373  0.5577  0.2561 -0.6450
  108DG     C12 2473   0.290   3.211   4.707  0.1460 -0.3797 -0.1140
  108DG     H13 2474   0.357   3.559   4.351 -0.8273 -1.2635  1.0034
  108DG     H14 2475   0.477   3.552   4.467  1.0016  0.2047 -0.7539
  108DG     H15 2476   0.270   3.114   4.751 -0.3712  1.1673  3.4136
  108DG     H16 2477   0.355   3.257   4.781 -1.3929  2.7519 -0.5317
  108DG     C17 2478   0.415   3.357   4.392 -0.3553  0.5505 -0.1124
  108DG     C18 2479   0.340   3.212   4.560 -0.5067  0.1559 -0.0194
  108DG     O19 2480   0.339   3.340   4.509 -0.9366 -0.5340 -0.1717
  108DG     H20 2481   0.507   3.299   4.379 -0.4713  0.2157  0.5456
  108DG     H21 2482   0.351   3.324   4.310 -0.1293 -0.0567 -0.0531
  108DG     H22 2483   0.442   3.172   4.566 -1.3115 -1.8169  1.9268
  108DG     H23 2484   0.291   3.144   4.490  2.8837 -1.8810 -0.6938
  109DG      C1 2485   0.378   3.952   0.451 -0.8154 -0.1599 -0.2732
  109DG      C2 2486   0.638   4.326  -0.014 -0.2125  0.1418 -0.2094
  109DG      H3 2487   0.333   3.877   0.386  2.4429 -0.2599 -2.6740
  109DG      H4 2488   0.307   4.033   0.436  0.7803  1.1511 -0.9236
  109DG      H5 2489   0.380   3.936   0.559 -0.7609 -0.1896 -0.2782
  109DG      H6 2490   0.533   4.356  -0.023 -0.7167 -1.0393  1.3991
  109DG      H7 2491   0.702   4.414  -0.007  0.6841 -0.6200  1.6288
  109DG      H8 2492   0.649   4.275  -0.110  1.0827  0.3726 -0.1956
  109DG      O9 2493   0.508   3.988   0.406 -0.2079 -0.3286  0.2996
  109DG     O10 2494   0.667   4.237   0.092  0.5272 -0.6696  0.5387
  109DG     C11 2495   0.600   3.880   0.392  0.0708  0.8161 -0.1213
  109DG     C12 2496   0.792   4.183   0.078 -0.2354  0.4166  0.4961
  109DG     H13 2497   0.572   3.796   0.328  4.8802 -3.2318  2.3735
  109DG     H14 2498   0.617   3.834   0.489 -1.2802 -0.3495 -0.4125
  109DG     H15 2499   0.871   4.258   0.077 -0.0037  0.1741  0.3627
  109DG     H16 2500   0.794   4.124  -0.014 -1.0606 -1.6168  1.7148
  109DG     C17 2501   0.733   3.932   0.346  0.2806  0.0262 -0.5416
  109DG     C18 2502   0.824   4.087   0.192 -0.3115  0.4329  0.3873
  109DG     O19 2503   0.714   3.997   0.224 -0.4702  0.6815 -0.5556
  109DG     H20 2504   0.803   3.848   0.341 -0.9923 -1.2040  1.1493
  109DG     H21 2505   0.763   3.996   0.429  0.4686  1.0477 -1.3741
  109DG     H22 2506   0.913   4.027   0.172 -1.0212 -0.5130 -0.0604
  109DG     H23 2507   0.857   4.157   0.268  1.5134  3.3790 -2.8264
  110DG      C1 2508   3.450   4.911   2.644  0.1316  0.4140 -0.1084
  110DG      C2 2509   3.929   4.297   2.845  0.2783  0.2020  0.0456
  110DG      H3 2510   3.400   4.965   2.564 -1.3405 -0.6439  0.0390
  110DG      H4 2511   3.433   4.972   2.732  0.0821  0.8383 -0.4098
  110DG      H5 2512   3.411   4.812   2.669  2.1930 -0.5231 -0.4445
  110DG      H6 2513   3.880   4.334   2.935  3.7249 -0.7839  2.5639
  110DG      H7 2514   3.860   4.233   2.791 -2.2954  2.8140  0.0365
  110DG      H8 2515   4.014   4.237   2.876  0.3359 -1.1917 -2.5340
  110DG      O9 2516   3.592   4.899   2.628  0.1565  0.2070 -0.3370
  110DG     O10 2517   3.946   4.413   2.754  0.4378 -0.3631  0.3505
  110DG     C11 2518   3.624   4.837   2.507 -0.5346  0.2631  0.5646
  110DG     C12 2519   3.828   4.487   2.728 -0.5072  0.2836 -0.1891
  110DG     H13 2520   3.622   4.914   2.429 -1.9492  0.8994  1.1855
  110DG     H14 2521   3.549   4.763   2.478 -0.6421  0.8553 -0.7902
  110DG     H15 2522   3.783   4.521   2.821 -4.3729 -0.8180 -1.4841
  110DG     H16 2523   3.755   4.428   2.673  0.3725 -1.4317  0.4137
  110DG     C17 2524   3.757   4.765   2.518  0.4222 -0.3059  0.5056
  110DG     C18 2525   3.859   4.601   2.627  0.2511  0.5910  0.1973
  110DG     O19 2526   3.728   4.658   2.606 -0.0534  0.5147  0.1348
  110DG     H20 2527   3.829   4.840   2.551  1.1615 -1.3734  1.4224
  110DG     H21 2528   3.787   4.734   2.417  2.5640 -1.7421  1.5097
  110DG     H22 2529   3.942   4.662   2.662  0.2565  0.4020  0.5216
  110DG     H23 2530   3.887   4.552   2.534 -2.4221 -0.9535  0.1181
  111DG      C1 2531   0.702   4.588   3.814 -0.5385  0.2541 -0.3446
  111DG      C2 2532   0.228   5.053   3.569 -0.6810 -0.3431  0.4452
  111DG      H3 2533   0.781   4.606   3.887 -1.4581  3.0288  0.0995
  111DG      H4 2534   0.750   4.580   3.716  1.2657 -1.6934  0.6191
  111DG      H5 2535   0.645   4.497   3.832 -0.2531 -0.0380 -0.8989
  111DG      H6 2536   0.177   5.138   3.616 -1.6517 -0.1672 -0.8444
  111DG      H7 2537   0.224   5.075   3.462  0.0912  0.4940  0.5734
  111DG      H8 2538   0.169   4.965   3.592  1.5201 -2.4272 -1.4058
  111DG      O9 2539   0.618   4.694   3.802  0.7235  0.1345 -0.9001
  111DG     O10 2540   0.354   5.048   3.626 -0.0053  0.5702  0.0467
  111DG     C11 2541   0.682   4.804   3.747 -0.1370 -0.2722  0.0780
  111DG     C12 2542   0.449   5.138   3.576  0.7766 -0.5140  0.7360
  111DG     H13 2543   0.728   4.774   3.653  0.8407 -0.6775  0.6736
  111DG     H14 2544   0.758   4.847   3.811 -0.4846 -1.8534  1.6483
  111DG     H15 2545   0.421   5.242   3.563  0.5802 -0.5619  0.7850
  111DG     H16 2546   0.482   5.108   3.476  0.1668  0.4257  0.2379
  111DG     C17 2547   0.578   4.903   3.703 -0.0483  0.1008  0.5591
  111DG     C18 2548   0.571   5.135   3.658 -0.0178  0.0903  0.0408
  111DG     O19 2549   0.645   5.013   3.640  0.0845  0.2652 -0.1507
  111DG     H20 2550   0.524   4.932   3.793 -1.3200  0.5748 -0.3240
  111DG     H21 2551   0.505   4.854   3.638 -0.1478  0.9750 -0.0058
  111DG     H22 2552   0.629   5.217   3.617 -0.8269 -0.1173 -1.6246
  111DG     H23 2553   0.556   5.158   3.763  0.3416 -0.1935  0.1571
  112DG      C1 2554   2.349   3.184   3.076  0.4088  0.0001  0.1461
  112DG      C2 2555   2.480   3.651   2.604 -0.1616  0.0479  0.0391
  112DG      H3 2556   2.240   3.174   3.074  0.1304  2.2958  0.8711
  112DG      H4 2557   2.368   3.281   3.123 -0.1155 -0.5867  1.6189
  112DG      H5 2558   2.400   3.116   3.144 -0.0936  1.8812  2.5580
  112DG      H6 2559   2.520   3.694   2.696 -1.3938 -1.7293  1.4781
  112DG      H7 2560   2.514   3.688   2.508 -1.0549  0.0059 -0.3063
  112DG      H8 2561   2.375   3.676   2.621 -0.2045 -0.4678  0.5654
  112DG      O9 2562   2.403   3.201   2.941 -0.2479  0.3359  0.1891
  112DG     O10 2563   2.495   3.507   2.613 -0.5088 -0.5551  0.3321
  112DG     C11 2564   2.344   3.114   2.849  0.7421  0.2003  0.0073
  112DG     C12 2565   2.425   3.444   2.508  0.1793 -0.7493 -0.4008
  112DG     H13 2566   2.236   3.126   2.836  1.0443  2.4819 -0.9472
  112DG     H14 2567   2.367   3.015   2.888  1.4757  0.3917  0.0834
  112DG     H15 2568   2.461   3.474   2.409  1.4164  0.9751  0.5358
  112DG     H16 2569   2.318   3.464   2.518 -0.9126 -4.1880 -2.8408
  112DG     C17 2570   2.410   3.127   2.708 -0.0872 -0.5638 -0.0880
  112DG     C18 2571   2.440   3.286   2.529 -0.8718 -0.0840 -1.1725
  112DG     O19 2572   2.422   3.263   2.669  0.0544 -0.3745 -0.1382
  112DG     H20 2573   2.373   3.065   2.626  1.6962  0.0741 -1.4291
  112DG     H21 2574   2.510   3.084   2.720  0.9157  1.3158 -1.2828
  112DG     H22 2575   2.363   3.232   2.475 -0.8416 -2.1588  0.7017
  112DG     H23 2576   2.540   3.249   2.505 -0.7016  1.4511 -3.0625
  113DG      C1 2577   0.122   4.660   5.431 -0.2868  0.0490  0.1345
  113DG      C2 2578  -0.063   4.894   4.784  0.0068 -0.9543 -0.6357
  113DG      H3 2579   0.031   4.661   5.491  1.3135 -0.7165  2.7289
  113DG      H4 2580   0.213   4.664   5.491 -0.6302  0.2083  0.6536
  113DG      H5 2581   0.123   4.563   5.382 -0.5430  0.4173 -0.6056
  113DG      H6 2582  -0.030   4.969   4.712  0.4827  0.2099  0.7463
  113DG      H7 2583  -0.052   4.790   4.752 -1.7676 -1.3616 -0.0193
  113DG      H8 2584  -0.168   4.920   4.793  0.7920  2.2286  0.7854
  113DG      O9 2585   0.133   4.751   5.327 -0.0819  0.1052  0.2539
  113DG     O10 2586   0.008   4.915   4.910  0.0164  0.0024 -0.2294
  113DG     C11 2587   0.158   4.884   5.372 -0.4372 -0.2126  0.4663
  113DG     C12 2588  -0.015   5.049   4.962 -0.3895  0.3810  0.1059
  113DG     H13 2589   0.239   4.885   5.444  1.2244  1.8744 -1.3113
  113DG     H14 2590   0.062   4.905   5.419 -2.0095 -0.2966 -2.4127
  113DG     H15 2591  -0.117   5.045   5.001 -0.0155 -0.9016  1.0101
  113DG     H16 2592  -0.016   5.127   4.886  0.5758 -0.5141 -0.8554
  113DG     C17 2593   0.186   4.990   5.270  0.2103  0.1699  0.6211
  113DG     C18 2594   0.100   5.071   5.067 -0.2064  0.1982  0.4245
  113DG     O19 2595   0.081   4.980   5.174 -0.5486  0.4138  0.2756
  113DG     H20 2596   0.278   4.961   5.218 -0.6075  0.5465 -1.1295
  113DG     H21 2597   0.196   5.090   5.310 -0.0725  1.0211 -1.3149
  113DG     H22 2598   0.193   5.050   5.015 -0.0019 -1.0209  1.2604
  113DG     H23 2599   0.103   5.174   5.105 -0.1504  0.2272  0.3406
  114DG      C1 2600   5.366   0.219   5.130  0.2637 -1.3190  0.2945
  114DG      C2 2601   5.183   1.020   4.997  0.3274 -0.7436  0.0925
  114DG      H3 2602   5.395   0.214   5.235 -0.6876 -0.9515  0.5922
  114DG      H4 2603   5.457   0.262   5.087 -1.7532 -0.2826 -3.3662
  114DG      H5 2604   5.353   0.113   5.108 -0.0517 -1.2388  0.0745
  114DG      H6 2605   5.292   1.013   5.003  0.3665 -0.3780 -0.1828
  114DG      H7 2606   5.151   1.032   4.894 -1.9168 -0.0119  0.8049
  114DG      H8 2607   5.147   1.108   5.051  0.3681 -1.1747  0.8434
  114DG      O9 2608   5.256   0.301   5.102 -0.1223 -0.1353  0.2554
  114DG     O10 2609   5.128   0.907   5.061 -0.5817  0.0808 -0.5288
  114DG     C11 2610   5.202   0.306   4.967  0.0367 -0.8806  0.3152
  114DG     C12 2611   5.191   0.782   5.022  0.7107 -0.3261 -0.3131
  114DG     H13 2612   5.140   0.216   4.959 -1.8796  0.3411  0.8287
  114DG     H14 2613   5.285   0.304   4.896 -1.1078  1.8146 -1.2511
  114DG     H15 2614   5.288   0.772   5.070  0.7213  0.3192 -0.1955
  114DG     H16 2615   5.215   0.780   4.916 -1.9215 -2.8419 -1.0040
  114DG     C17 2616   5.113   0.434   4.957  0.0994  0.3001 -0.0084
  114DG     C18 2617   5.104   0.660   5.036  0.8268 -0.3712  0.6588
  114DG     O19 2618   5.178   0.546   5.024 -0.6562  0.0227 -0.5840
  114DG     H20 2619   5.020   0.415   5.009 -0.3755  2.5373  0.0662
  114DG     H21 2620   5.079   0.453   4.856  0.4132  0.3773 -0.1000
  114DG     H22 2621   5.044   0.670   5.126  1.6072 -0.8674  1.2419
  114DG     H23 2622   5.039   0.671   4.949  2.6494 -0.5662 -0.7880
  115DG      C1 2623   3.472   1.868   3.397 -0.0133  0.3203  0.3836
  115DG      C2 2624   4.228   1.809   3.039  0.2877 -0.1640 -0.6326
  115DG      H3 2625   3.447   1.954   3.459  0.5947  0.2382  0.7542
  115DG      H4 2626   3.432   1.778   3.444  1.7554 -0.3938  0.5943
  115DG      H5 2627   3.438   1.874   3.293  0.7517 -1.0329  0.0309
  115DG      H6 2628   4.317   1.760   3.080  1.2461 -0.3641 -2.7828
  115DG      H7 2629   4.169   1.724   3.005  0.9922 -0.0854 -2.1399
  115DG      H8 2630   4.244   1.883   2.960 -0.2006 -2.0756 -2.6208
  115DG      O9 2631   3.612   1.852   3.385  0.3248 -0.0772 -0.2129
  115DG     O10 2632   4.149   1.873   3.143  0.2459 -0.1592  0.6491
  115DG     C11 2633   3.673   1.965   3.323  0.2024 -0.1118 -0.1518
  115DG     C12 2634   4.132   1.787   3.254  0.1584  0.4344 -0.1665
  115DG     H13 2635   3.637   2.063   3.355  0.3025 -0.5191  1.2796
  115DG     H14 2636   3.654   1.952   3.216 -0.6824 -0.3523  0.0256
  115DG     H15 2637   4.223   1.763   3.309 -0.2452  0.0636  0.3593
  115DG     H16 2638   4.090   1.692   3.219 -1.2050  1.1346 -0.4953
  115DG     C17 2639   3.825   1.976   3.351  0.4289  0.4191 -0.9602
  115DG     C18 2640   4.028   1.846   3.356  0.5884 -0.2087  0.0510
  115DG     O19 2641   3.902   1.873   3.286  0.2702 -0.1300  0.2701
  115DG     H20 2642   3.848   1.982   3.458  2.1384 -0.1602 -1.2498
  115DG     H21 2643   3.868   2.069   3.315 -1.6557  2.2754  1.0312
  115DG     H22 2644   4.016   1.785   3.445 -1.0860  1.6698  1.1994
  115DG     H23 2645   4.066   1.934   3.408  2.5213 -0.8092 -0.2911
  116DG      C1 2646   1.802   5.488   2.506  0.0672 -0.6985  0.0410
  116DG      C2 2647   1.224   6.135   2.443 -0.5831  0.5225 -0.0356
  116DG      H3 2648   1.887   5.452   2.564  0.5246  1.9170  1.0872
  116DG      H4 2649   1.835   5.480   2.402  1.8112 -1.2144  0.5944
  116DG      H5 2650   1.713   5.426   2.519 -1.9676  2.0296 -0.1658
  116DG      H6 2651   1.223   6.243   2.457 -1.6179  0.7541 -1.6735
  116DG      H7 2652   1.187   6.116   2.342 -1.4611 -1.4670  0.6092
  116DG      H8 2653   1.153   6.098   2.516 -0.3454 -0.4196 -0.2718
  116DG      O9 2654   1.776   5.616   2.558 -0.2646  0.1293  0.5323
  116DG     O10 2655   1.356   6.088   2.472 -0.5483  0.1896  0.6445
  116DG     C11 2656   1.655   5.683   2.518  0.1857  0.4641  0.2774
  116DG     C12 2657   1.386   6.084   2.600  0.3209 -0.1914 -0.5674
  116DG     H13 2658   1.561   5.635   2.547 -0.4246 -0.1400 -2.4688
  116DG     H14 2659   1.638   5.696   2.411 -2.1364  0.2947  0.5674
  116DG     H15 2660   1.315   6.028   2.660  1.0703  1.2269  1.7514
  116DG     H16 2661   1.387   6.184   2.645 -1.7344 -0.6443  0.5947
  116DG     C17 2662   1.661   5.819   2.590  0.2152 -0.2726 -0.4152
  116DG     C18 2663   1.525   6.023   2.628  0.1095 -0.2442 -0.1192
  116DG     O19 2664   1.542   5.897   2.559  0.0050  0.6416  0.0101
  116DG     H20 2665   1.750   5.875   2.561 -0.1021 -0.3214 -1.5324
  116DG     H21 2666   1.661   5.808   2.699 -1.7784  0.3565 -0.3148
  116DG     H22 2667   1.606   6.095   2.619 -1.0290  1.2937  1.2739
  116DG     H23 2668   1.533   6.006   2.736  1.5264  2.6992  0.3482
  117DG      C1 2669   3.878   3.727   4.209  0.0088 -0.1443 -0.2542
  117DG      C2 2670   4.222   4.399   4.543  0.3576  0.7998 -0.5374
  117DG      H3 2671   3.771   3.715   4.223  0.0403 -0.2336 -0.0997
  117DG      H4 2672   3.928   3.631   4.220  1.5578  0.7237  0.6670
  117DG      H5 2673   3.902   3.764   4.109 -1.7695  1.0621 -0.2748
  117DG      H6 2674   4.146   4.465   4.584  1.3266  2.8892 -1.8938
  117DG      H7 2675   4.300   4.382   4.617  0.2414  1.3976 -0.2674
  117DG      H8 2676   4.275   4.451   4.463 -0.5193  2.6766  0.0297
  117DG      O9 2677   3.930   3.809   4.311 -0.1828 -0.2684 -0.1489
  117DG     O10 2678   4.174   4.273   4.500 -0.4293  0.5641  0.0017
  117DG     C11 2679   3.869   3.939   4.311 -0.6002 -0.4322 -0.2835
  117DG     C12 2680   4.109   4.207   4.606  0.4372 -0.1379  0.6122
  117DG     H13 2681   3.762   3.919   4.315 -1.2040  2.4120 -0.1000
  117DG     H14 2682   3.889   3.991   4.217 -0.7254 -2.8585 -1.7418
  117DG     H15 2683   4.008   4.247   4.619  0.1305 -0.0884 -1.5924
  117DG     H16 2684   4.168   4.219   4.696 -1.5258 -0.8827  2.0887
  117DG     C17 2685   3.924   4.013   4.434  0.0717  0.4573  0.7314
  117DG     C18 2686   4.108   4.055   4.577  0.0681  0.7899 -0.2493
  117DG     O19 2687   4.065   4.025   4.445 -0.0672 -0.4345  0.0948
  117DG     H20 2688   3.886   3.959   4.522 -0.6616  0.6680  0.5549
  117DG     H21 2689   3.885   4.114   4.444 -0.5723  0.6989 -2.8754
  117DG     H22 2690   4.209   4.017   4.587 -0.1104 -0.0043 -1.2803
  117DG     H23 2691   4.056   4.005   4.659 -0.3041  1.0133 -0.3433
  118DG      C1 2692   1.675   3.671   5.238  1.0053  0.3714 -0.5544
  118DG      C2 2693   1.607   2.929   5.370  0.1566  0.1079  0.5433
  118DG      H3 2694   1.586   3.708   5.287 -0.8466 -2.3689 -1.5884
  118DG      H4 2695   1.635   3.674   5.136 -0.1898  1.3454 -0.0815
  118DG      H5 2696   1.757   3.743   5.242  1.3109 -0.0220  1.5631
  118DG      H6 2697   1.551   2.936   5.464 -3.0954  1.6492 -1.3092
  118DG      H7 2698   1.526   2.938   5.297 -1.2096 -0.3744  1.9422
  118DG      H8 2699   1.656   2.832   5.367  1.5407  0.7939 -0.3424
  118DG      O9 2700   1.741   3.549   5.267 -0.0277 -0.1905 -0.4753
  118DG     O10 2701   1.695   3.039   5.358  0.1046  0.2858 -0.1103
  118DG     C11 2702   1.829   3.516   5.163  0.7478  0.0037  0.3391
  118DG     C12 2703   1.753   3.038   5.227 -0.3987 -0.2747  0.4426
  118DG     H13 2704   1.905   3.592   5.147 -0.5343  1.4144  0.8125
  118DG     H14 2705   1.772   3.495   5.072  0.2857 -0.2023  0.6721
  118DG     H15 2706   1.675   3.055   5.153 -1.2590 -0.6894  1.2534
  118DG     H16 2707   1.798   2.941   5.207  3.7883  1.2391  1.2777
  118DG     C17 2708   1.899   3.379   5.188  0.4831  0.4288  0.1548
  118DG     C18 2709   1.858   3.150   5.219  0.4848  0.2412  0.1715
  118DG     O19 2710   1.804   3.276   5.210  0.4205 -0.2688 -0.2436
  118DG     H20 2711   1.966   3.377   5.274  0.1060 -0.5665  0.4450
  118DG     H21 2712   1.955   3.357   5.097 -1.3224  1.4912 -1.2816
  118DG     H22 2713   1.925   3.144   5.305  0.5802 -1.0888  0.0218
  118DG     H23 2714   1.915   3.138   5.127  0.7530  0.1100  0.3556
  119DG      C1 2715   2.251   4.277   4.275  0.2089  0.2431  0.2161
  119DG      C2 2716   2.279   4.393   3.709  0.5301 -0.1076 -0.0548
  119DG      H3 2717   2.354   4.245   4.261  0.6159  0.5780  2.1268
  119DG      H4 2718   2.209   4.215   4.355  0.4097 -0.4361 -0.2025
  119DG      H5 2719   2.262   4.379   4.310  0.1847  0.6286 -0.8795
  119DG      H6 2720   2.295   4.488   3.759 -1.4769  0.6092 -0.6786
  119DG      H7 2721   2.373   4.339   3.708 -0.5487 -2.0973  0.4874
  119DG      H8 2722   2.263   4.421   3.605  2.2516 -0.9509 -0.5729
  119DG      O9 2723   2.188   4.277   4.142 -0.4112 -0.2020 -0.2190
  119DG     O10 2724   2.171   4.309   3.754  0.2165 -0.2049 -0.1506
  119DG     C11 2725   2.049   4.323   4.171 -0.4872  1.1001 -0.4720
  119DG     C12 2726   2.044   4.376   3.739 -0.3662  0.1133  0.1042
  119DG     H13 2727   2.059   4.409   4.238 -1.0066  1.0696 -0.3526
  119DG     H14 2728   1.995   4.237   4.211 -1.9047  2.0951 -0.1997
  119DG     H15 2729   2.017   4.381   3.634 -1.8248  1.8411  0.5266
  119DG     H16 2730   2.048   4.481   3.766  0.1630  0.6290 -1.8107
  119DG     C17 2731   1.975   4.358   4.042  0.3785  0.2912  0.4962
  119DG     C18 2732   1.934   4.299   3.815 -0.1328 -0.5003  0.4052
  119DG     O19 2733   1.984   4.253   3.940  0.4930 -0.0732  0.2590
  119DG     H20 2734   2.002   4.454   3.998 -1.4688 -0.3251 -2.1854
  119DG     H21 2735   1.872   4.376   4.074  1.2817  0.2843  3.8055
  119DG     H22 2736   1.852   4.371   3.814  2.7667  3.2913 -3.5728
  119DG     H23 2737   1.891   4.219   3.755  1.1125  0.4053 -1.7838
  120DG      C1 2738   5.335   2.989   4.347 -0.2431 -0.8147  0.1832
  120DG      C2 2739   4.984   2.857   4.945  0.4411  0.6487  0.5294
  120DG      H3 2740   5.401   3.076   4.345  1.0226 -1.7611 -1.1125
  120DG      H4 2741   5.242   3.025   4.302  0.4308  0.4469 -0.2454
  120DG      H5 2742   5.382   2.915   4.281 -2.1992  0.9024 -3.4602
  120DG      H6 2743   5.037   2.947   4.913  1.2316 -0.1195 -0.4042
  120DG      H7 2744   4.877   2.864   4.927  0.4017 -1.8178 -0.6495
  120DG      H8 2745   5.002   2.847   5.052 -0.2062 -0.2352  0.5647
  120DG      O9 2746   5.317   2.927   4.471  0.2962 -0.1930 -0.2845
  120DG     O10 2747   5.008   2.736   4.874 -0.5443 -0.3373  0.4015
  120DG     C11 2748   5.307   3.025   4.577  0.7024  0.1842  0.4475
  120DG     C12 2749   5.139   2.693   4.901 -0.3841 -0.5486  0.3816
  120DG     H13 2750   5.202   3.053   4.584  0.2793 -1.5094  1.6947
  120DG     H14 2751   5.360   3.117   4.552  0.8470 -0.6889 -2.8847
  120DG     H15 2752   5.152   2.606   4.837 -0.2519  1.6019 -2.7043
  120DG     H16 2753   5.150   2.653   5.002 -0.1157 -2.4689 -0.3554
  120DG     C17 2754   5.341   2.954   4.708  0.4899 -0.1940 -0.2087
  120DG     C18 2755   5.250   2.796   4.867 -0.1964  0.1749 -0.0487
  120DG     O19 2756   5.234   2.870   4.742 -0.2258 -0.5723  0.2969
  120DG     H20 2757   5.356   3.026   4.789 -1.3747  0.5010 -0.4394
  120DG     H21 2758   5.437   2.903   4.712  0.3827 -0.3058  1.7369
  120DG     H22 2759   5.260   2.873   4.944 -0.6190  1.1973 -0.9884
  120DG     H23 2760   5.351   2.756   4.867  0.7546  2.4263 -0.5116
  121DG      C1 2761   2.206   5.205   2.471  0.4447  0.2661 -0.6621
  121DG      C2 2762   1.914   4.541   2.138  0.2913 -0.3263 -0.2396
  121DG      H3 2763   2.103   5.236   2.483  0.9120  1.3501  0.8393
  121DG      H4 2764   2.263   5.281   2.417  1.0200 -0.5163 -1.1708
  121DG      H5 2765   2.237   5.196   2.575 -0.7950  1.5142 -0.1664
  121DG      H6 2766   1.946   4.485   2.050 -0.1153  0.7173 -1.0794
  121DG      H7 2767   1.906   4.458   2.208  1.3727  0.0325  0.3290
  121DG      H8 2768   1.821   4.591   2.111 -0.0022 -0.4565  0.5038
  121DG      O9 2769   2.189   5.077   2.404 -0.1517 -0.2047 -0.0964
  121DG     O10 2770   2.012   4.625   2.192  0.2288 -0.0391  0.5029
  121DG     C11 2771   2.311   5.006   2.405  0.7113 -0.0463 -0.6178
  121DG     C12 2772   1.966   4.712   2.299  0.1527  0.1029 -0.1588
  121DG     H13 2773   2.337   4.975   2.506  1.5787  0.2139 -0.7497
  121DG     H14 2774   2.386   5.077   2.371  0.7068  0.9568  1.3132
  121DG     H15 2775   1.940   4.648   2.384  0.2828  1.8221  1.2220
  121DG     H16 2776   1.864   4.748   2.285 -0.3696 -0.2891  2.2013
  121DG     C17 2777   2.301   4.894   2.311  0.0758  0.0348  0.2070
  121DG     C18 2778   2.067   4.827   2.334 -0.3724 -0.1514  0.1129
  121DG     O19 2779   2.201   4.796   2.356 -0.6918  0.1279  0.3517
  121DG     H20 2780   2.395   4.840   2.316  0.7679  1.0056 -1.5764
  121DG     H21 2781   2.287   4.943   2.215 -0.8640 -2.6273 -1.1163
  121DG     H22 2782   2.060   4.896   2.250  0.3106  0.8652  0.8462
  121DG     H23 2783   2.026   4.883   2.419 -0.3835 -1.0820  0.7373
  122DG      C1 2784   0.339   2.848   5.304  0.4818 -0.1978  0.0743
  122DG      C2 2785   0.321   3.511   5.393 -0.4777  0.4249  0.7706
  122DG      H3 2786   0.348   2.766   5.233  1.5360 -0.0723  0.0559
  122DG      H4 2787   0.235   2.862   5.333  0.2202 -2.4360  0.4114
  122DG      H5 2788   0.394   2.822   5.395 -0.5968 -0.4607  0.6813
  122DG      H6 2789   0.225   3.478   5.434 -0.6509  2.3435  2.0105
  122DG      H7 2790   0.383   3.536   5.479 -0.3592  0.1308  0.7739
  122DG      H8 2791   0.296   3.601   5.338 -2.3058  0.4512  1.5692
  122DG      O9 2792   0.381   2.971   5.242  0.3114  0.4359  0.0968
  122DG     O10 2793   0.372   3.407   5.315  0.1037 -0.2438 -0.3383
  122DG     C11 2794   0.508   2.962   5.180 -0.0332 -0.2037  0.0835
  122DG     C12 2795   0.489   3.441   5.235  0.2195 -0.2028  0.5493
  122DG     H13 2796   0.495   2.884   5.105  1.2879  0.2202 -0.6320
  122DG     H14 2797   0.576   2.936   5.261  1.4660  2.3787 -0.2162
  122DG     H15 2798   0.561   3.483   5.305 -0.5491 -0.7733  1.7150
  122DG     H16 2799   0.454   3.526   5.175 -0.0395 -1.5755 -1.3533
  122DG     C17 2800   0.538   3.096   5.113 -0.1906 -0.3401  0.1781
  122DG     C18 2801   0.534   3.330   5.139 -0.1371  0.4316 -0.4507
  122DG     O19 2802   0.523   3.202   5.208  0.0175 -0.1246  0.1281
  122DG     H20 2803   0.462   3.099   5.035  0.6794  2.0796 -0.6985
  122DG     H21 2804   0.637   3.093   5.067  0.1078 -0.9429  0.8580
  122DG     H22 2805   0.456   3.330   5.063  0.4380  3.6933 -1.2230
  122DG     H23 2806   0.631   3.340   5.090  0.8065 -0.4754  1.1412
  123DG      C1 2807   3.328   3.196   0.832 -0.1975  0.0116 -0.4520
  123DG      C2 2808   2.944   3.504   0.405 -0.4495 -0.0761 -0.9345
  123DG      H3 2809   3.252   3.259   0.785  0.9155  1.3144 -0.5517
  123DG      H4 2810   3.314   3.197   0.940 -0.8486  2.2068 -0.5075
  123DG      H5 2811   3.320   3.092   0.799  0.5925 -0.2859  0.2729
  123DG      H6 2812   2.899   3.419   0.455 -1.1858 -0.1438 -1.6960
  123DG      H7 2813   2.907   3.593   0.456 -0.1192 -0.5547  0.1683
  123DG      H8 2814   2.896   3.496   0.308 -2.7643  1.6702 -0.0241
  123DG      O9 2815   3.461   3.248   0.805  0.3817 -0.1742 -0.1069
  123DG     O10 2816   3.083   3.505   0.411  0.1736  0.1361 -0.0381
  123DG     C11 2817   3.496   3.261   0.666  0.5536  0.5526  0.2084
  123DG     C12 2818   3.131   3.480   0.545 -0.0294  0.3551  0.2660
  123DG     H13 2819   3.430   3.201   0.604  1.0384 -0.0513  0.2726
  123DG     H14 2820   3.592   3.210   0.657  0.3087 -0.1672  1.4703
  123DG     H15 2821   3.082   3.392   0.588 -0.3413 -0.7521 -2.1902
  123DG     H16 2822   3.118   3.563   0.615  0.4455 -0.8663  1.8564
  123DG     C17 2823   3.491   3.402   0.620 -0.3420  0.3780  1.0961
  123DG     C18 2824   3.280   3.447   0.532  0.0336 -0.8776 -0.1254
  123DG     O19 2825   3.354   3.444   0.650 -0.4210  0.5498  0.6181
  123DG     H20 2826   3.516   3.421   0.515  0.3001  1.7271  1.4742
  123DG     H21 2827   3.558   3.464   0.678  2.8218 -0.3200 -1.5229
  123DG     H22 2828   3.282   3.346   0.491 -0.8363 -0.9445 -0.0195
  123DG     H23 2829   3.328   3.509   0.456  1.6705 -0.7393  0.9723
  124DG      C1 2830   1.647   5.181   4.433 -0.2559 -0.0516 -0.0668
  124DG      C2 2831   1.764   5.341   3.830 -0.3321  0.1468  0.0906
  124DG      H3 2832   1.561   5.247   4.444 -3.0011 -3.3292 -0.1097
  124DG      H4 2833   1.718   5.262   4.446 -0.8382  0.5181 -0.4019
  124DG      H5 2834   1.631   5.112   4.516  0.8797 -0.4889 -0.1941
  124DG      H6 2835   1.699   5.428   3.825 -1.4891 -0.7813 -1.7958
  124DG      H7 2836   1.860   5.378   3.867  0.5437 -0.0100 -1.9158
  124DG      H8 2837   1.782   5.305   3.729  0.3378 -0.7196  0.5045
  124DG      O9 2838   1.649   5.120   4.302 -0.0963 -0.1842 -0.2472
  124DG     O10 2839   1.715   5.232   3.909 -1.1171  0.4266 -0.2565
  124DG     C11 2840   1.564   5.017   4.297  0.5314  0.7818 -0.3823
  124DG     C12 2841   1.591   5.177   3.858  0.6587  0.4067  0.4849
  124DG     H13 2842   1.467   5.050   4.334  0.1138  0.0622 -0.7982
  124DG     H14 2843   1.595   4.930   4.356 -1.7711  1.1318  1.4837
  124DG     H15 2844   1.599   5.150   3.753 -2.0280 -1.7334  0.7245
  124DG     H16 2845   1.506   5.244   3.865  0.7455  0.3696  2.2384
  124DG     C17 2846   1.562   4.969   4.153  0.2447  1.2811 -0.8079
  124DG     C18 2847   1.576   5.050   3.927  0.0137  0.0967  0.3728
  124DG     O19 2848   1.532   5.077   4.065 -0.5300 -0.0775 -0.3407
  124DG     H20 2849   1.492   4.886   4.143  3.6446 -1.8920 -0.5077
  124DG     H21 2850   1.655   4.916   4.131  0.4320  0.8313  0.8829
  124DG     H22 2851   1.512   4.980   3.874  0.5894  0.6264 -1.0628
  124DG     H23 2852   1.667   4.993   3.915  1.1582  2.4016 -3.1796
  125DG      C1 2853   4.419   0.990   2.431  0.4099  0.5387  0.5967
  125DG      C2 2854   3.878   1.351   2.453  0.1575 -0.4335  0.2466
  125DG      H3 2855   4.383   0.956   2.528 -0.5568 -0.3763 -0.0591
  125DG      H4 2856   4.517   0.941   2.432  1.3631  1.8922 -3.7090
  125DG      H5 2857   4.362   0.948   2.348  1.3367  1.4433 -0.5394
  125DG      H6 2858   3.782   1.311   2.486 -0.1510  1.1763  1.3985
  125DG      H7 2859   3.868   1.357   2.345  0.1459  2.3184  0.3347
  125DG      H8 2860   3.950   1.273   2.478  1.1403  0.7459  1.1817
  125DG      O9 2861   4.427   1.131   2.428  0.2779  0.3604 -0.1666
  125DG     O10 2862   3.907   1.471   2.523  0.1852  0.2025 -0.3647
  125DG     C11 2863   4.300   1.189   2.421  0.0609 -0.1145 -0.7300
  125DG     C12 2864   4.000   1.557   2.466 -0.2978  0.1764 -0.5609
  125DG     H13 2865   4.232   1.154   2.498 -1.0230  3.0631 -0.0824
  125DG     H14 2866   4.249   1.157   2.330 -1.9797 -1.5905  0.8434
  125DG     H15 2867   3.990   1.662   2.495 -1.5182 -0.7026  2.5908
  125DG     H16 2868   3.975   1.568   2.361  0.0852 -0.0281 -0.6774
  125DG     C17 2869   4.305   1.340   2.424  0.1300 -0.7277 -0.2598
  125DG     C18 2870   4.146   1.512   2.475 -0.2343 -0.2444 -0.0172
  125DG     O19 2871   4.166   1.385   2.420  0.2007  0.5286 -0.6897
  125DG     H20 2872   4.351   1.380   2.334 -1.1854 -1.8780 -1.4958
  125DG     H21 2873   4.368   1.383   2.502  0.2164  1.0588 -1.2552
  125DG     H22 2874   4.210   1.585   2.425  0.5744 -0.1564  1.1012
  125DG     H23 2875   4.168   1.514   2.582 -3.2815 -0.3812  0.7162
  126DG      C1 2876   1.174   0.116   4.986 -0.0509 -0.2733 -0.5119
  126DG      C2 2877   0.834   0.543   5.263 -0.2089  0.3333  0.3277
  126DG      H3 2878   1.093   0.045   5.000 -1.2105  1.1564  0.4667
  126DG      H4 2879   1.265   0.069   4.951  0.0116 -1.2358  0.8689
  126DG      H5 2880   1.145   0.180   4.903 -1.0721 -0.4785 -0.3331
  126DG      H6 2881   0.740   0.490   5.246  0.4146 -0.3881 -1.0928
  126DG      H7 2882   0.831   0.634   5.323 -0.1961 -0.9316  2.3412
  126DG      H8 2883   0.872   0.565   5.163  1.3932 -0.1650  0.7898
  126DG      O9 2884   1.200   0.182   5.109 -0.4491 -0.4084 -0.2067
  126DG     O10 2885   0.929   0.467   5.330  0.1420  0.0977 -0.7750
  126DG     C11 2886   1.316   0.268   5.113  1.1590  0.0137  0.1104
  126DG     C12 2887   1.041   0.550   5.374 -0.4908  0.2745 -0.4367
  126DG     H13 2888   1.304   0.341   5.033 -0.0729  1.1271  1.2492
  126DG     H14 2889   1.407   0.213   5.090  1.8750  0.6686  1.2459
  126DG     H15 2890   1.024   0.598   5.471  1.3585 -0.5818  0.3657
  126DG     H16 2891   1.053   0.631   5.302  1.7779 -0.8020 -1.3832
  126DG     C17 2892   1.321   0.342   5.247  0.3477  0.6192 -0.6756
  126DG     C18 2893   1.172   0.466   5.384 -0.1450  0.9444 -0.6116
  126DG     O19 2894   1.194   0.407   5.254 -0.2849  0.3124  0.1480
  126DG     H20 2895   1.401   0.416   5.251  1.3504 -0.4779  1.4635
  126DG     H21 2896   1.333   0.275   5.333 -1.8880  3.2382  1.8645
  126DG     H22 2897   1.253   0.535   5.409  0.3061  1.0059 -2.1133
  126DG     H23 2898   1.154   0.387   5.457  0.6412 -0.4577 -1.8715
  127DG      C1 2899   3.180   4.748   2.330 -0.0489  0.1364 -1.6088
  127DG      C2 2900   3.470   4.015   2.265  0.5237  0.4139  0.1764
  127DG      H3 2901   3.084   4.800   2.325 -1.5729 -1.8739  2.3674
  127DG      H4 2902   3.237   4.768   2.239  0.9598 -0.1668 -1.0546
  127DG      H5 2903   3.237   4.793   2.411 -1.9699  1.4536 -0.9168
  127DG      H6 2904   3.536   4.040   2.348  0.0999 -2.4740  1.4838
  127DG      H7 2905   3.456   3.908   2.273 -2.2038  0.4880 -1.8318
  127DG      H8 2906   3.519   4.008   2.168  1.0544  0.7325  0.4195
  127DG      O9 2907   3.158   4.614   2.353 -0.2760 -0.0019  0.5353
  127DG     O10 2908   3.351   4.097   2.244 -0.3398 -0.0986  0.0918
  127DG     C11 2909   3.076   4.551   2.250  0.0985  0.2208 -0.2663
  127DG     C12 2910   3.286   4.113   2.373 -0.4154 -0.5932  0.5163
  127DG     H13 2911   3.132   4.563   2.157 -0.4513 -0.5364 -0.7146
  127DG     H14 2912   2.981   4.601   2.231  1.0860  2.6759  0.9000
  127DG     H15 2913   3.360   4.160   2.437  0.0892 -1.7736  0.8301
  127DG     H16 2914   3.273   4.015   2.419 -1.4771 -0.7126  0.0034
  127DG     C17 2915   3.058   4.402   2.278 -0.0825 -0.0870  0.0367
  127DG     C18 2916   3.153   4.195   2.339 -0.5305  0.2971  0.4244
  127DG     O19 2917   3.175   4.333   2.308  0.0859 -0.2162  0.8714
  127DG     H20 2918   2.988   4.362   2.205 -1.2393  0.2523  0.9201
  127DG     H21 2919   2.997   4.392   2.368 -0.8411 -0.8238 -0.5406
  127DG     H22 2920   3.106   4.155   2.249 -1.9483 -1.0193  1.6965
  127DG     H23 2921   3.071   4.193   2.411 -3.1663  1.2040 -2.3444
  128DG      C1 2922   3.300   2.638   0.375 -0.6053 -0.3469  0.4580
  128DG      C2 2923   3.490   2.418   0.954 -0.8254 -0.9330  0.5486
  128DG      H3 2924   3.335   2.732   0.417  0.9184  0.2709 -2.0010
  128DG      H4 2925   3.228   2.659   0.296 -1.1358 -0.0720  1.0114
  128DG      H5 2926   3.387   2.601   0.321 -0.4194 -1.4447  1.4698
  128DG      H6 2927   3.481   2.523   0.983  0.1436  0.0885 -2.4942
  128DG      H7 2928   3.486   2.357   1.044  1.3046  0.5117  1.7123
  128DG      H8 2929   3.590   2.415   0.912  0.1232  1.3187  2.3745
  128DG      O9 2930   3.246   2.548   0.472  0.3753  0.3451  0.3058
  128DG     O10 2931   3.385   2.396   0.855 -0.0730 -0.6789 -0.4880
  128DG     C11 2932   3.197   2.426   0.416 -0.4295 -0.2070 -0.2641
  128DG     C12 2933   3.364   2.255   0.836  0.4727 -0.6262 -0.4292
  128DG     H13 2934   3.277   2.373   0.364 -1.6039 -0.3950 -1.9760
  128DG     H14 2935   3.110   2.434   0.350 -0.3297 -1.0358 -0.5083
  128DG     H15 2936   3.349   2.210   0.934 -0.0134  0.7874  0.1671
  128DG     H16 2937   3.460   2.216   0.803  0.3051 -0.9949 -0.4937
  128DG     C17 2938   3.171   2.320   0.525 -0.1737 -0.5091 -0.7916
  128DG     C18 2939   3.250   2.238   0.730 -0.0701 -0.2497  0.5844
  128DG     O19 2940   3.275   2.330   0.624  0.8442 -0.0809 -0.2845
  128DG     H20 2941   3.164   2.224   0.474  0.2150  0.1635 -2.1655
  128DG     H21 2942   3.076   2.356   0.566  1.1366  1.4413  0.7342
  128DG     H22 2943   3.265   2.140   0.685  0.6645 -0.2787  0.8770
  128DG     H23 2944   3.154   2.257   0.778  0.0578  0.0966  0.7126
  129DG      C1 2945   5.221   2.075   3.790 -0.0638 -0.3663  0.4775
  129DG      C2 2946   5.482   2.142   3.200  0.3809 -0.1835 -0.0649
  129DG      H3 2947   5.266   2.171   3.814  0.0256 -0.2787 -0.0324
  129DG      H4 2948   5.301   2.001   3.796  0.0796 -0.4268 -1.5119
  129DG      H5 2949   5.144   2.058   3.866  1.2123 -0.3226  1.8272
  129DG      H6 2950   5.542   2.053   3.220  0.4148 -0.4615 -1.2997
  129DG      H7 2951   5.477   2.177   3.097  0.5373  1.3592  0.4187
  129DG      H8 2952   5.518   2.232   3.250  1.5582 -0.1192 -0.9843
  129DG      O9 2953   5.167   2.062   3.661  0.0966 -0.2410 -0.1628
  129DG     O10 2954   5.348   2.108   3.239  0.7242  0.0687 -0.2820
  129DG     C11 2955   5.058   2.145   3.648  0.2182 -0.3993  1.1314
  129DG     C12 2956   5.252   2.212   3.229 -0.3939 -0.2342  0.4462
  129DG     H13 2957   5.076   2.242   3.693  0.0531  0.2729 -0.2025
  129DG     H14 2958   4.982   2.097   3.709 -5.4226  2.5400 -2.7341
  129DG     H15 2959   5.246   2.252   3.128  0.8796  2.1000  1.1928
  129DG     H16 2960   5.284   2.301   3.285  3.6852 -0.8859 -0.5156
  129DG     C17 2961   5.022   2.151   3.496 -0.0555 -0.3380 -0.2627
  129DG     C18 2962   5.114   2.167   3.282 -0.6943  0.0921 -0.3088
  129DG     O19 2963   5.140   2.143   3.416  0.1044 -0.6369  0.2734
  129DG     H20 2964   4.966   2.243   3.479  2.3858  1.5699  1.2285
  129DG     H21 2965   4.953   2.070   3.474  1.0338 -1.4412  0.2869
  129DG     H22 2966   5.036   2.242   3.271 -0.6421  0.5223  1.7869
  129DG     H23 2967   5.089   2.076   3.227 -0.8255  0.1201 -0.2966
  130DG      C1 2968   1.517   3.108   3.814 -0.2469  0.5132  0.3838
  130DG      C2 2969   1.571   2.456   4.068  0.2738  0.3654 -0.0847
  130DG      H3 2970   1.537   3.214   3.830 -1.1340  0.6449  0.6477
  130DG      H4 2971   1.419   3.110   3.767 -0.0505  1.5352 -0.0122
  130DG      H5 2972   1.590   3.056   3.751  1.3145  2.8425  0.1464
  130DG      H6 2973   1.491   2.461   3.994 -0.3866 -0.2614  0.5689
  130DG      H7 2974   1.661   2.432   4.011 -0.8401 -1.5322 -1.1753
  130DG      H8 2975   1.557   2.373   4.137  0.2256  0.3924 -0.0622
  130DG      O9 2976   1.534   3.038   3.939 -0.3171  0.2397  0.2455
  130DG     O10 2977   1.577   2.579   4.130 -0.0668 -0.1509 -0.4752
  130DG     C11 2978   1.456   3.090   4.044 -0.1126  0.3500  0.2934
  130DG     C12 2979   1.457   2.624   4.191  0.1993 -0.1132  0.0177
  130DG     H13 2980   1.350   3.093   4.017 -0.4027 -2.3758  0.8282
  130DG     H14 2981   1.488   3.190   4.072  1.2355  0.1806 -0.5462
  130DG     H15 2982   1.429   2.558   4.273  0.3268  1.1777  1.1440
  130DG     H16 2983   1.367   2.607   4.131 -1.4577  1.7301  1.8022
  130DG     C17 2984   1.472   2.995   4.163 -0.5605 -0.1820  0.8290
  130DG     C18 2985   1.464   2.770   4.230 -0.5202  0.2053  0.4557
  130DG     O19 2986   1.457   2.860   4.123  0.0845  0.3640 -0.2485
  130DG     H20 2987   1.396   3.037   4.228 -0.5816  1.7515 -0.3429
  130DG     H21 2988   1.569   3.006   4.213 -1.3629  0.1587  2.3683
  130DG     H22 2989   1.387   2.794   4.303  1.1555 -0.1909  2.4721
  130DG     H23 2990   1.555   2.784   4.288  0.2056 -1.8499 -0.0798
  131DG      C1 2991   3.088   4.968   3.894  0.0034 -0.1558  0.2493
  131DG      C2 2992   3.290   4.551   4.353  0.1543  0.0332  0.3356
  131DG      H3 2993   3.096   4.876   3.836 -0.8477  0.9748 -1.7518
  131DG      H4 2994   3.063   5.041   3.817 -1.5805 -0.8608  0.0554
  131DG      H5 2995   2.997   4.952   3.953  0.6651 -0.2141  1.2864
  131DG      H6 2996   3.343   4.471   4.300  0.4573  0.7345 -0.4344
  131DG      H7 2997   3.331   4.543   4.453 -0.4041  2.7305  0.8402
  131DG      H8 2998   3.184   4.527   4.343  0.3329 -1.8986  2.2429
  131DG      O9 2999   3.189   4.999   3.994 -0.2319  0.6477 -0.3633
  131DG     O10 3000   3.314   4.673   4.296 -0.1696 -0.1048  0.0119
  131DG     C11 3001   3.319   5.011   3.941 -0.3351  0.2489 -0.6552
  131DG     C12 3002   3.445   4.722   4.306  0.1159  0.1189  0.4026
  131DG     H13 3003   3.328   5.111   3.899 -0.8114  0.8169  0.5517
  131DG     H14 3004   3.341   4.926   3.876  1.6990 -0.4803  0.8906
  131DG     H15 3005   3.509   4.650   4.256  3.1176  2.7523  0.1380
  131DG     H16 3006   3.473   4.728   4.411 -2.9069 -1.2121  1.3904
  131DG     C17 3007   3.421   5.000   4.055  0.4218  0.6554 -0.9212
  131DG     C18 3008   3.471   4.859   4.239 -0.2546 -0.5769  0.4670
  131DG     O19 3009   3.395   4.879   4.120 -0.7281 -0.2809  0.2175
  131DG     H20 3010   3.415   5.088   4.119 -1.1270 -0.4155  0.4927
  131DG     H21 3011   3.522   4.999   4.015 -0.1500  0.2843 -2.4311
  131DG     H22 3012   3.440   4.932   4.315  0.6022  0.2982 -0.0022
  131DG     H23 3013   3.578   4.876   4.223  0.0790 -0.2507  2.6626
  132DG      C1 3014   1.329   3.059   3.432  0.4074 -0.2322  0.5631
  132DG      C2 3015   2.024   3.398   3.086 -0.7163  0.5805 -0.1784
  132DG      H3 3016   1.424   3.022   3.470  0.5177 -0.0353  0.4785
  132DG      H4 3017   1.248   2.986   3.419 -0.8698  1.2112  0.1748
  132DG      H5 3018   1.285   3.125   3.506  1.0176  1.2400 -0.3359
  132DG      H6 3019   2.074   3.415   3.181  0.7894  3.1391 -1.3225
  132DG      H7 3020   2.074   3.314   3.037 -1.0983  0.6843 -0.7558
  132DG      H8 3021   2.048   3.480   3.018 -2.8662  2.0012  0.6865
  132DG      O9 3022   1.355   3.150   3.317  0.4223 -0.3620  0.0324
  132DG     O10 3023   1.883   3.387   3.097 -0.5970  0.1323  0.1774
  132DG     C11 3024   1.467   3.229   3.339 -0.0388  0.1475  0.4302
  132DG     C12 3025   1.806   3.506   3.123  0.5380  0.6167 -0.0281
  132DG     H13 3026   1.550   3.158   3.343 -0.7440 -0.6761  0.6867
  132DG     H14 3027   1.467   3.287   3.432  1.8375 -0.3494  0.7894
  132DG     H15 3028   1.827   3.577   3.043 -0.1217  1.3780  0.4542
  132DG     H16 3029   1.830   3.546   3.222 -0.4850  0.5351  0.2660
  132DG     C17 3030   1.481   3.320   3.219  0.0314 -0.2094  0.0171
  132DG     C18 3031   1.657   3.472   3.126 -0.0890  0.2398  0.0100
  132DG     O19 3032   1.618   3.377   3.221 -0.6827  0.0669  0.9354
  132DG     H20 3033   1.411   3.402   3.231  0.4473 -0.1994  2.9513
  132DG     H21 3034   1.472   3.271   3.122 -3.2939 -0.7269  0.4661
  132DG     H22 3035   1.609   3.569   3.138  2.2818  1.5215 -0.0969
  132DG     H23 3036   1.641   3.436   3.024 -0.0666 -1.5747  0.6195
  133DG      C1 3037   0.674   4.070   3.836  0.7885  0.4670  0.1424
  133DG      C2 3038   0.698   3.821   3.225  0.0983 -1.1215 -0.3215
  133DG      H3 3039   0.565   4.063   3.840  0.9275 -2.2527  1.6260
  133DG      H4 3040   0.715   4.152   3.895  3.4661 -0.6554 -0.0296
  133DG      H5 3041   0.719   3.979   3.875  1.2828  0.9679  0.7490
  133DG      H6 3042   0.649   3.884   3.299  2.1296 -0.2227  0.3265
  133DG      H7 3043   0.671   3.853   3.125  0.1980  0.6769  0.1868
  133DG      H8 3044   0.683   3.714   3.240 -1.2642 -1.1335 -1.5399
  133DG      O9 3045   0.711   4.097   3.701  0.2566 -0.4543 -0.1513
  133DG     O10 3046   0.835   3.851   3.244 -0.4309  0.3711  0.5217
  133DG     C11 3047   0.848   4.131   3.693 -1.2409 -0.1179  0.4172
  133DG     C12 3048   0.886   3.801   3.366  0.4178  0.0912  0.1051
  133DG     H13 3049   0.912   4.048   3.723 -0.5592 -0.2762 -1.3298
  133DG     H14 3050   0.880   4.219   3.749  0.2697 -0.3718 -0.0051
  133DG     H15 3051   0.969   3.733   3.348  1.3461  1.3909 -0.6810
  133DG     H16 3052   0.818   3.744   3.430 -0.5720 -1.0859 -1.9096
  133DG     C17 3053   0.888   4.142   3.540 -0.2929 -0.9783  0.1627
  133DG     C18 3054   0.949   3.918   3.447  0.0457  0.4222  0.1635
  133DG     O19 3055   0.849   4.019   3.475 -0.6232 -0.4447 -0.0284
  133DG     H20 3056   0.989   4.175   3.514 -0.7524  0.0129 -0.4387
  133DG     H21 3057   0.832   4.226   3.499  5.1059  2.6442 -0.9195
  133DG     H22 3058   0.984   3.877   3.542 -1.0567 -0.5444  0.1709
  133DG     H23 3059   1.034   3.958   3.391 -0.6088 -1.0671 -2.0300
  134DG      C1 3060   2.581   4.302   3.906  0.6388 -0.4437 -0.2128
  134DG      C2 3061   2.088   4.014   3.573  0.0869 -0.7112  0.7870
  134DG      H3 3062   2.581   4.340   3.804  1.4930  0.5070  0.1176
  134DG      H4 3063   2.675   4.313   3.960  0.8295  1.6017 -0.8676
  134DG      H5 3064   2.514   4.355   3.974  0.7239  0.7106 -0.9978
  134DG      H6 3065   2.004   4.081   3.594 -0.8963 -1.8969  0.7392
  134DG      H7 3066   2.154   4.055   3.497 -1.9368  1.1007 -0.0998
  134DG      H8 3067   2.033   3.928   3.536 -0.1335 -0.1837 -0.1385
  134DG      O9 3068   2.520   4.170   3.899 -0.0815 -0.4801 -0.2669
  134DG     O10 3069   2.150   3.986   3.702  0.1494 -0.5569  0.1545
  134DG     C11 3070   2.616   4.072   3.858  0.0189 -0.1893 -0.4579
  134DG     C12 3071   2.214   3.864   3.683  0.3382 -0.5008 -0.8602
  134DG     H13 3072   2.699   4.066   3.928 -1.2294 -1.9985  0.9610
  134DG     H14 3073   2.659   4.084   3.759 -0.1543 -2.3469 -0.8255
  134DG     H15 3074   2.247   3.848   3.580  0.8331 -2.7438 -0.3925
  134DG     H16 3075   2.134   3.795   3.709 -0.5735  0.1843 -1.7441
  134DG     C17 3076   2.545   3.947   3.829  0.5737  0.1325 -0.2541
  134DG     C18 3077   2.336   3.851   3.778 -0.8684 -0.0875 -0.4508
  134DG     O19 3078   2.423   3.958   3.760  0.1420  0.4330  0.1587
  134DG     H20 3079   2.529   3.909   3.930  1.9923  0.3258  0.0690
  134DG     H21 3080   2.606   3.869   3.784  2.2070 -0.4084  2.6171
  134DG     H22 3081   2.315   3.841   3.884  0.6398 -0.8687 -0.2055
  134DG     H23 3082   2.383   3.757   3.750 -2.5553 -1.1874  0.2239
  135DG      C1 3083   4.543   4.171   2.480  0.6350 -0.7385  0.1190
  135DG      C2 3084   4.639   3.524   2.380  0.2302  0.2282 -0.1884
  135DG      H3 3085   4.522   4.215   2.382  2.4878  0.4404  0.1921
  135DG      H4 3086   4.563   4.251   2.551 -0.4741  0.1626 -0.5556
  135DG      H5 3087   4.451   4.127   2.518  0.0801  1.5408  1.6185
  135DG      H6 3088   4.636   3.516   2.272 -1.7881 -0.8354 -0.1058
  135DG      H7 3089   4.667   3.426   2.419 -1.6571 -0.7107 -1.0263
  135DG      H8 3090   4.538   3.524   2.421 -0.3140  1.3528 -1.4655
  135DG      O9 3091   4.651   4.080   2.489  0.0822  0.3341  0.4870
  135DG     O10 3092   4.705   3.633   2.438 -0.0253 -0.2703  0.2518
  135DG     C11 3093   4.762   4.114   2.407  0.7565  0.4393 -0.4849
  135DG     C12 3094   4.834   3.647   2.387 -0.3316 -0.6986 -0.7608
  135DG     H13 3095   4.798   4.214   2.429  2.5249  0.0811 -1.6020
  135DG     H14 3096   4.729   4.114   2.303 -0.3461 -2.0407 -0.2195
  135DG     H15 3097   4.829   3.650   2.278 -1.0055  0.6248 -0.7167
  135DG     H16 3098   4.891   3.562   2.424  0.2577 -0.1020 -0.2480
  135DG     C17 3099   4.868   4.011   2.437  0.6296 -0.0597 -0.1382
  135DG     C18 3100   4.901   3.778   2.444 -0.0942  0.0638  0.3183
  135DG     O19 3101   4.811   3.886   2.411  0.3649  0.7395  0.3088
  135DG     H20 3102   4.909   4.009   2.538  1.4742  1.6021 -0.4046
  135DG     H21 3103   4.958   4.029   2.377  1.5107  0.2830  1.2291
  135DG     H22 3104   4.900   3.760   2.552  0.2472  1.1971  0.5285
  135DG     H23 3105   5.007   3.792   2.425  0.0288 -0.5248  0.5646
  136DG      C1 3106   1.876   4.385   0.427 -0.3349 -0.3108  0.0814
  136DG      C2 3107   2.000   4.165   1.145  0.1788  0.0626 -0.1713
  136DG      H3 3108   1.777   4.426   0.409 -0.6319 -1.2277 -0.4581
  136DG      H4 3109   1.867   4.277   0.420 -0.0811 -0.2843 -0.7633
  136DG      H5 3110   1.953   4.411   0.355 -1.4511 -2.9006 -2.2440
  136DG      H6 3111   2.055   4.073   1.166  0.8578  0.4555 -0.2246
  136DG      H7 3112   1.981   4.226   1.233 -0.4166  0.2835 -0.4454
  136DG      H8 3113   1.899   4.138   1.115 -0.4700  1.7018  0.3966
  136DG      O9 3114   1.913   4.411   0.556  0.2742 -0.2168 -0.2569
  136DG     O10 3115   2.052   4.242   1.041 -0.0575  0.4576 -0.0028
  136DG     C11 3116   2.021   4.352   0.607 -1.1626  0.0416  0.4450
  136DG     C12 3117   2.188   4.277   1.053  0.5572 -0.3159  0.6612
  136DG     H13 3118   2.109   4.382   0.550 -1.6642  2.5287  0.8487
  136DG     H14 3119   2.009   4.245   0.590 -1.6461  0.4530 -2.2150
  136DG     H15 3120   2.256   4.191   1.058  0.5607 -0.3718 -0.1226
  136DG     H16 3121   2.206   4.332   1.145 -0.9107 -0.5792  1.1301
  136DG     C17 3122   2.060   4.382   0.760  0.0917  1.1256 -0.2802
  136DG     C18 3123   2.231   4.368   0.934  0.2277 -0.3746 -0.1747
  136DG     O19 3124   2.183   4.326   0.801  0.3717 -0.6524 -0.5030
  136DG     H20 3125   1.980   4.338   0.819  1.7783 -0.7532  0.7340
  136DG     H21 3126   2.062   4.488   0.786 -3.8480  0.8909  1.6173
  136DG     H22 3127   2.220   4.475   0.948 -0.4656 -0.0789 -2.5168
  136DG     H23 3128   2.340   4.362   0.935  0.1956 -1.0316  0.3866
  137DG      C1 3129   1.731   1.069   3.142  0.2144  1.1737 -0.1409
  137DG      C2 3130   2.227   1.415   3.462 -0.1937 -0.0289  0.1618
  137DG      H3 3131   1.794   0.999   3.086  1.0002  0.5283  1.4911
  137DG      H4 3132   1.705   1.153   3.078 -0.5904 -1.2478 -3.2850
  137DG      H5 3133   1.642   1.008   3.155  0.2594  1.1797  0.1905
  137DG      H6 3134   2.302   1.409   3.541 -0.1775 -1.7054  0.0592
  137DG      H7 3135   2.275   1.391   3.367  0.6626 -0.0738  0.5910
  137DG      H8 3136   2.185   1.515   3.452  2.5472  1.1333 -0.8079
  137DG      O9 3137   1.794   1.094   3.265  0.1207 -0.4808 -0.4334
  137DG     O10 3138   2.122   1.330   3.492  0.0990  0.3621  0.1392
  137DG     C11 3139   1.709   1.109   3.378  0.2786  0.0110  1.0310
  137DG     C12 3140   2.019   1.410   3.557  0.6665 -0.4773  0.4245
  137DG     H13 3141   1.637   1.032   3.403 -0.7285 -0.0110 -1.6078
  137DG     H14 3142   1.651   1.197   3.351  0.3437 -0.3871 -0.4901
  137DG     H15 3143   1.973   1.489   3.498 -0.4451  1.6779  3.8284
  137DG     H16 3144   2.049   1.460   3.649 -0.2868  0.9776 -0.0260
  137DG     C17 3145   1.786   1.139   3.504  1.0298  0.2810 -0.6990
  137DG     C18 3146   1.916   1.310   3.599  0.3823  0.3413  1.3458
  137DG     O19 3147   1.873   1.250   3.480  0.0531  0.0712  0.3121
  137DG     H20 3148   1.840   1.054   3.546 -0.8831 -1.7484 -2.0374
  137DG     H21 3149   1.716   1.168   3.582  1.0828  1.4814 -1.0756
  137DG     H22 3150   1.955   1.230   3.662  2.5368 -0.0134 -0.3348
  137DG     H23 3151   1.832   1.355   3.653 -0.7965  1.3340 -1.1510
  138DG      C1 3152   1.837   3.798   3.809  0.9150  0.2520 -0.2194
  138DG      C2 3153   1.846   3.286   3.424  0.3008 -0.0241  0.2705
  138DG      H3 3154   1.741   3.762   3.770  2.6074 -3.2469 -1.6077
  138DG      H4 3155   1.902   3.796   3.722  0.6815 -0.7012 -0.3844
  138DG      H5 3156   1.823   3.891   3.863 -0.9046 -0.7260  1.1129
  138DG      H6 3157   1.789   3.194   3.441 -1.3705  0.9962  0.3726
  138DG      H7 3158   1.782   3.374   3.435 -0.6995 -0.2503 -2.8654
  138DG      H8 3159   1.889   3.282   3.324 -3.0801  3.2384 -1.5388
  138DG      O9 3160   1.885   3.709   3.906 -0.3393 -0.6167 -1.0627
  138DG     O10 3161   1.940   3.304   3.532 -0.2460 -0.1658 -0.1790
  138DG     C11 3162   1.828   3.577   3.902 -0.1181 -0.5586 -0.5253
  138DG     C12 3163   2.017   3.423   3.531 -0.1020 -0.2350 -0.5161
  138DG     H13 3164   1.720   3.585   3.915  0.1948  0.3375  2.0431
  138DG     H14 3165   1.874   3.531   3.990  1.9012  3.1784  0.5701
  138DG     H15 3166   1.974   3.505   3.473  1.3409  0.4578 -0.6456
  138DG     H16 3167   2.093   3.395   3.458 -0.5233  0.7714 -1.3795
  138DG     C17 3168   1.877   3.500   3.779  0.0646 -0.3873 -0.3229
  138DG     C18 3169   2.087   3.446   3.664  0.3366 -0.3470  0.6396
  138DG     O19 3170   2.023   3.521   3.764  0.3896  0.0718 -0.5655
  138DG     H20 3171   1.820   3.537   3.694 -1.4653  3.3432  2.0331
  138DG     H21 3172   1.856   3.394   3.792 -0.1157 -0.4029 -0.7255
  138DG     H22 3173   2.115   3.356   3.718  2.3467  0.2076  0.6389
  138DG     H23 3174   2.177   3.508   3.658 -0.6520  1.2822  1.8486
  139DG      C1 3175   2.788   2.776   1.089  0.0375 -0.7015  0.3099
  139DG      C2 3176   2.522   2.175   0.810 -0.0018 -0.2775  0.2188
  139DG      H3 3177   2.810   2.872   1.136  0.8788 -1.0217  0.6039
  139DG      H4 3178   2.874   2.737   1.035  0.2578  1.1257 -0.7119
  139DG      H5 3179   2.755   2.707   1.167  0.9713  2.1502  3.4859
  139DG      H6 3180   2.606   2.223   0.861  1.2806 -1.9357 -0.2254
  139DG      H7 3181   2.453   2.120   0.873  0.5141 -0.0708  0.9785
  139DG      H8 3182   2.567   2.104   0.740  0.1631  0.0481 -0.0112
  139DG      O9 3183   2.677   2.795   0.999  0.6271  0.4371 -0.0791
  139DG     O10 3184   2.445   2.270   0.740 -0.7120  0.1150 -0.3558
  139DG     C11 3185   2.597   2.678   0.963 -0.0734 -0.1247 -1.4609
  139DG     C12 3186   2.516   2.338   0.636  0.5845  0.3308 -0.1797
  139DG     H13 3187   2.497   2.709   0.934 -0.4886  1.2102  1.0900
  139DG     H14 3188   2.582   2.612   1.048  0.8068  0.3911 -0.8836
  139DG     H15 3189   2.442   2.401   0.587  0.1093 -0.8287 -1.0058
  139DG     H16 3190   2.566   2.269   0.567 -1.6140 -0.2459 -1.2911
  139DG     C17 3191   2.671   2.599   0.857 -0.8106  0.2581  0.3734
  139DG     C18 3192   2.618   2.437   0.688 -0.6102 -0.4170  0.6209
  139DG     O19 3193   2.566   2.526   0.787 -0.2627  0.2386 -0.5879
  139DG     H20 3194   2.747   2.533   0.899 -1.0584 -0.2030  0.0940
  139DG     H21 3195   2.718   2.672   0.790 -1.5008  1.7734  1.4612
  139DG     H22 3196   2.714   2.391   0.712 -0.5980 -1.3120 -1.0209
  139DG     H23 3197   2.648   2.502   0.606 -1.3721 -0.8639 -0.0239
  140DG      C1 3198   0.982   0.135   5.444  0.4541 -0.4317  0.2671
  140DG      C2 3199   0.948   0.511   4.883 -0.4394 -0.0535  0.6911
  140DG      H3 3200   0.938   0.079   5.527 -0.4376 -1.2016 -0.6867
  140DG      H4 3201   0.975   0.238   5.478  2.8114 -0.8931  2.3899
  140DG      H5 3202   1.088   0.116   5.433  0.5525 -0.5479  1.3501
  140DG      H6 3203   1.051   0.476   4.876 -0.9127 -1.1387 -3.3502
  140DG      H7 3204   0.912   0.510   4.781  0.2374  1.1471  0.4143
  140DG      H8 3205   0.945   0.615   4.917 -2.1108 -0.2525  1.2607
  140DG      O9 3206   0.908   0.114   5.324 -0.5098 -0.1836  0.1695
  140DG     O10 3207   0.876   0.428   4.972  0.0836 -0.0118  0.6969
  140DG     C11 3208   0.764   0.150   5.343 -0.2150 -0.9009  0.7117
  140DG     C12 3209   0.819   0.313   4.900 -0.4738  0.9423 -0.3292
  140DG     H13 3210   0.750   0.242   5.400  0.9175 -0.0081 -0.3953
  140DG     H14 3211   0.719   0.083   5.416 -0.7686 -1.1609  0.1457
  140DG     H15 3212   0.901   0.249   4.869  0.8769  0.6652  3.3603
  140DG     H16 3213   0.767   0.343   4.809  0.8273  4.7896  0.0198
  140DG     C17 3214   0.705   0.137   5.206  0.2257 -0.0224 -0.1991
  140DG     C18 3215   0.713   0.241   4.991 -0.1174  0.1708  0.2265
  140DG     O19 3216   0.773   0.223   5.114 -0.5143  0.4362 -0.2809
  140DG     H20 3217   0.597   0.153   5.214  0.2002 -0.3445  0.1136
  140DG     H21 3218   0.718   0.040   5.157  1.0145  0.7792 -1.6528
  140DG     H22 3219   0.626   0.307   4.995 -0.2781  0.0588 -0.9706
  140DG     H23 3220   0.680   0.150   4.941 -0.1565  0.9094 -1.1435
  141DG      C1 3221   3.031   4.535   5.098 -0.1271 -0.0075  0.1229
  141DG      C2 3222   3.363   3.677   5.063  0.2753 -0.5345 -0.4673
  141DG      H3 3223   2.976   4.573   5.012 -0.8827 -0.0386  0.5851
  141DG      H4 3224   3.115   4.599   5.125 -1.1532  1.5575 -0.2629
  141DG      H5 3225   2.965   4.534   5.184  0.8978 -1.3589  0.9305
  141DG      H6 3226   3.278   3.658   5.130  0.5050 -0.1770 -0.0717
  141DG      H7 3227   3.385   3.586   5.007 -2.5603 -1.9870  0.5743
  141DG      H8 3228   3.445   3.681   5.134  0.2490  1.0180 -0.4923
  141DG      O9 3229   3.066   4.401   5.067  0.2342 -0.1263 -0.2250
  141DG     O10 3230   3.349   3.798   4.991  0.1056 -0.4414 -0.2501
  141DG     C11 3231   3.190   4.385   4.993 -0.2563 -0.0049 -0.7141
  141DG     C12 3232   3.312   3.911   5.070  0.1298 -0.2734  0.2745
  141DG     H13 3233   3.260   4.419   5.070 -1.0612 -1.5988  0.8018
  141DG     H14 3234   3.193   4.451   4.907 -1.5724  0.7060 -0.2410
  141DG     H15 3235   3.373   3.924   5.159 -1.9415 -1.6912  1.9960
  141DG     H16 3236   3.212   3.892   5.110  0.2863  1.2992  1.5051
  141DG     C17 3237   3.208   4.242   4.946  0.4262 -0.3118 -0.1097
  141DG     C18 3238   3.318   4.033   4.978  0.2351  0.0700  0.2937
  141DG     O19 3239   3.251   4.141   5.040  0.4007 -1.0134 -0.0385
  141DG     H20 3240   3.279   4.250   4.863  0.1999 -0.6140 -0.3362
  141DG     H21 3241   3.116   4.214   4.894 -0.4042  3.4636 -0.9890
  141DG     H22 3242   3.425   4.054   4.972  0.0211  1.7849  1.9949
  141DG     H23 3243   3.272   4.003   4.884  1.6271 -2.6842  0.3741
  142DG      C1 3244   0.317   1.874   0.172  0.3357 -0.0945 -0.2707
  142DG      C2 3245   0.711   1.604   0.236 -0.1431  0.1497 -0.1819
  142DG      H3 3246   0.290   1.882   0.067  1.4841 -1.0934 -0.6659
  142DG      H4 3247   0.240   1.802   0.201  0.3358 -0.4489 -1.1276
  142DG      H5 3248   0.406   1.811   0.179 -0.4784 -1.1599  0.8880
  142DG      H6 3249   0.694   1.504   0.275 -0.9447  0.8632  1.3972
  142DG      H7 3250   0.617   1.630   0.188 -0.6945  0.2659  0.9349
  142DG      H8 3251   0.788   1.594   0.159 -0.2585  1.3495 -0.4712
  142DG      O9 3252   0.322   1.996   0.245  0.9802  0.1526  0.3575
  142DG     O10 3253   0.744   1.701   0.328 -0.3377  0.2051  0.2460
  142DG     C11 3254   0.411   2.087   0.179 -0.1116  0.1845 -0.1334
  142DG     C12 3255   0.797   1.825   0.268  0.1415  0.5696  0.3583
  142DG     H13 3256   0.361   2.184   0.176 -1.1746 -0.3025  0.9413
  142DG     H14 3257   0.425   2.074   0.071  2.2403 -1.6108  0.3244
  142DG     H15 3258   0.814   1.825   0.160  0.6246  1.1986  0.4223
  142DG     H16 3259   0.901   1.828   0.303  0.0350  0.8933  0.6501
  142DG     C17 3260   0.555   2.091   0.240  0.3927  0.6133 -0.1959
  142DG     C18 3261   0.724   1.950   0.310  0.4836 -0.5604 -0.3152
  142DG     O19 3262   0.619   1.961   0.220  0.5332 -0.3669  0.0908
  142DG     H20 3263   0.542   2.107   0.347 -1.4428  0.9506 -0.4357
  142DG     H21 3264   0.617   2.169   0.195 -0.1767  1.5728  0.6533
  142DG     H22 3265   0.692   1.954   0.414  0.2118 -0.0704 -0.4160
  142DG     H23 3266   0.795   2.033   0.303 -0.4982  0.5572  1.9774
  143DG      C1 3267   4.856   3.003   4.660 -0.2722 -0.6606 -0.1403
  143DG      C2 3268   4.650   3.770   4.750  0.6212  0.7907 -0.2587
  143DG      H3 3269   4.911   2.991   4.567 -0.4037 -1.3447 -0.1401
  143DG      H4 3270   4.817   2.902   4.673  0.5041 -1.3909 -2.7994
  143DG      H5 3271   4.917   3.047   4.738 -1.9050  1.5281 -0.0177
  143DG      H6 3272   4.677   3.789   4.854 -0.8920  2.4077 -0.1367
  143DG      H7 3273   4.731   3.752   4.679 -0.7441 -0.7616 -1.5154
  143DG      H8 3274   4.592   3.855   4.717 -1.5110 -0.0117  1.2080
  143DG      O9 3275   4.753   3.091   4.643 -0.4797  0.1484  0.2536
  143DG     O10 3276   4.567   3.656   4.758 -0.1425  0.0758  0.0453
  143DG     C11 3277   4.648   3.071   4.745  0.0073 -0.1578  0.3503
  143DG     C12 3278   4.634   3.532   4.765 -0.6630 -0.3282 -0.3333
  143DG     H13 3279   4.685   3.063   4.847 -2.8044 -3.8993  1.3172
  143DG     H14 3280   4.605   2.975   4.715 -0.3218  0.5740 -1.7345
  143DG     H15 3281   4.723   3.543   4.826 -0.7346  2.6431 -0.5998
  143DG     H16 3282   4.663   3.530   4.660 -0.6043  2.0360 -0.4210
  143DG     C17 3283   4.544   3.180   4.747 -0.4131 -0.1526 -0.5873
  143DG     C18 3284   4.538   3.420   4.799 -0.1945 -0.0429  0.2893
  143DG     O19 3285   4.616   3.304   4.751  0.0672 -0.0451 -0.1722
  143DG     H20 3286   4.484   3.164   4.837  2.2289  0.8046  1.4881
  143DG     H21 3287   4.473   3.165   4.666  0.1062 -0.9336 -0.9110
  143DG     H22 3288   4.532   3.412   4.907  0.6773  1.7434  0.5012
  143DG     H23 3289   4.444   3.431   4.743 -0.2162  0.8412  0.4979
  144DG      C1 3290   5.329   0.918   3.221  0.4326  0.3031  0.4619
  144DG      C2 3291   4.981   0.907   3.889  0.6931 -0.7059 -0.5907
  144DG      H3 3292   5.272   0.862   3.147  0.7490  0.4583  0.0971
  144DG      H4 3293   5.398   0.850   3.273  1.4212 -1.3795 -2.7588
  144DG      H5 3294   5.386   0.976   3.149 -0.9810  2.1466  0.7551
  144DG      H6 3295   4.909   0.945   3.961  0.6752 -1.1120 -0.3937
  144DG      H7 3296   4.942   0.805   3.877  0.6509 -0.7444 -0.1269
  144DG      H8 3297   5.081   0.889   3.926  0.1071 -0.6363  1.0833
  144DG      O9 3298   5.259   1.005   3.299 -0.0676  0.9844  0.4115
  144DG     O10 3299   4.991   0.987   3.769 -0.2435  0.2686 -0.5024
  144DG     C11 3300   5.166   0.934   3.382  1.2004 -1.1873 -0.8101
  144DG     C12 3301   5.082   1.091   3.788  0.0656  0.1160 -0.7315
  144DG     H13 3302   5.204   0.852   3.442  0.2596 -1.0559 -0.0143
  144DG     H14 3303   5.101   0.879   3.314 -1.1692  2.0143 -1.3481
  144DG     H15 3304   5.183   1.051   3.796  0.1404  0.4539  0.1582
  144DG     H16 3305   5.053   1.154   3.872 -1.9711 -2.9177  1.0212
  144DG     C17 3306   5.076   1.026   3.467 -0.0114  0.3404 -0.3520
  144DG     C18 3307   5.084   1.177   3.659  0.0897 -1.2660 -0.0349
  144DG     O19 3308   5.151   1.104   3.557 -0.0409 -0.5367  0.2175
  144DG     H20 3309   4.993   0.978   3.519  0.6472  0.3853  0.7755
  144DG     H21 3310   5.032   1.100   3.400 -0.9381  1.8510  1.8036
  144DG     H22 3311   4.983   1.199   3.624  0.5454  1.6898  0.3146
  144DG     H23 3312   5.138   1.269   3.678  2.2623 -2.5095  0.2308
  145DG      C1 3313   4.419   0.184   1.675 -0.1835 -0.0354  0.2523
  145DG      C2 3314   4.534  -0.303   2.177 -0.3281 -0.4891  0.2731
  145DG      H3 3315   4.471   0.279   1.684  1.1519 -0.5360 -1.6564
  145DG      H4 3316   4.312   0.194   1.695 -0.2729  0.0576 -0.2540
  145DG      H5 3317   4.416   0.165   1.568 -0.5409  3.0034 -0.3556
  145DG      H6 3318   4.608  -0.248   2.235 -0.1170  0.5983 -0.9818
  145DG      H7 3319   4.437  -0.268   2.211 -0.8916 -0.7079 -1.0267
  145DG      H8 3320   4.560  -0.408   2.192  3.4934  0.1650 -0.6951
  145DG      O9 3321   4.486   0.084   1.753 -0.2424 -0.6327 -0.0121
  145DG     O10 3322   4.539  -0.281   2.036  0.2859 -0.3967 -0.2686
  145DG     C11 3323   4.619   0.061   1.726 -0.5492 -0.5538  0.3882
  145DG     C12 3324   4.671  -0.295   1.984 -0.2287 -0.0902 -0.2861
  145DG     H13 3325   4.667   0.156   1.748  1.8727 -1.7093  0.5029
  145DG     H14 3326   4.621   0.039   1.619  2.9587  0.6718  0.0731
  145DG     H15 3327   4.711  -0.396   1.995  0.6918  0.3092  0.1087
  145DG     H16 3328   4.731  -0.216   2.028 -1.1173  1.6929 -2.0900
  145DG     C17 3329   4.678  -0.044   1.815  0.3260 -0.3310  0.1239
  145DG     C18 3330   4.681  -0.270   1.829  0.0511  0.1137 -0.0900
  145DG     O19 3331   4.602  -0.158   1.785  0.0856 -0.3752 -0.2023
  145DG     H20 3332   4.664  -0.001   1.914  0.7547  3.4292 -1.2478
  145DG     H21 3333   4.786  -0.055   1.803  0.4637 -0.3493  1.3050
  145DG     H22 3334   4.780  -0.267   1.783 -0.9007  1.0871 -2.2455
  145DG     H23 3335   4.630  -0.356   1.786  0.2718 -1.3486  2.3726
  146DG      C1 3336   4.352   4.716   3.442 -0.2956 -0.1499 -0.2052
  146DG      C2 3337   4.038   5.318   3.424 -0.4357 -0.2079  1.0220
  146DG      H3 3338   4.327   4.616   3.478 -0.9445  0.2614  0.5033
  146DG      H4 3339   4.411   4.758   3.523 -2.3186 -0.5971  1.5893
  146DG      H5 3340   4.412   4.713   3.351  0.7161  2.6337  0.2807
  146DG      H6 3341   4.021   5.281   3.525 -0.4366  0.7489  1.3838
  146DG      H7 3342   4.126   5.381   3.436 -0.8275  0.4995  0.2331
  146DG      H8 3343   3.956   5.378   3.385 -1.4927 -2.8789 -1.1339
  146DG      O9 3344   4.240   4.804   3.418  0.1395  0.0691  0.1371
  146DG     O10 3345   4.074   5.212   3.337  0.3311  0.3616 -0.1268
  146DG     C11 3346   4.145   4.746   3.326  0.0014 -0.5311  0.0426
  146DG     C12 3347   3.962   5.139   3.282 -0.5040 -0.5685  0.4975
  146DG     H13 3348   4.085   4.671   3.377 -3.8476  3.1341  1.4706
  146DG     H14 3349   4.190   4.706   3.235  0.3371 -0.6567  0.2615
  146DG     H15 3350   3.884   5.204   3.242  0.2741  1.5500  2.2103
  146DG     H16 3351   3.925   5.078   3.365  0.2441 -0.2585  1.0707
  146DG     C17 3352   4.042   4.841   3.290 -0.1030 -0.1945 -0.1323
  146DG     C18 3353   4.021   5.050   3.165  0.5543  0.7839  0.8878
  146DG     O19 3354   4.108   4.951   3.226 -0.0372 -0.3712 -0.1328
  146DG     H20 3355   3.985   4.881   3.374 -1.7415 -0.7300 -0.9466
  146DG     H21 3356   3.972   4.784   3.229 -1.1207  0.0641  0.7699
  146DG     H22 3357   3.935   4.999   3.119  0.5377  1.9080 -0.3887
  146DG     H23 3358   4.087   5.099   3.094 -0.4052  1.4436  0.4282
  147DG      C1 3359   1.518   1.258   1.262  0.6496  0.3952 -0.1248
  147DG      C2 3360   1.400   0.823   0.763 -0.0816 -0.9267 -0.0865
  147DG      H3 3361   1.601   1.328   1.272  0.3643  0.9242 -1.3853
  147DG      H4 3362   1.551   1.164   1.217  0.1800 -0.7579  1.8005
  147DG      H5 3363   1.483   1.220   1.358 -1.4435  0.0196 -0.9816
  147DG      H6 3364   1.371   0.834   0.659 -1.1552 -2.3286  0.0356
  147DG      H7 3365   1.490   0.768   0.791 -0.2228 -1.2754 -0.3087
  147DG      H8 3366   1.318   0.759   0.797 -0.8888 -0.3780 -0.9527
  147DG      O9 3367   1.409   1.322   1.203  0.1079 -0.6172 -0.2963
  147DG     O10 3368   1.391   0.936   0.851 -0.3932 -0.4375 -0.3285
  147DG     C11 3369   1.293   1.238   1.170  0.1174  0.1265 -0.4997
  147DG     C12 3370   1.501   1.032   0.823  0.8749 -0.4917 -0.0807
  147DG     H13 3371   1.208   1.300   1.142 -1.0750 -1.7702 -1.3107
  147DG     H14 3372   1.264   1.194   1.265  1.6930  1.4438  0.6382
  147DG     H15 3373   1.502   1.049   0.715 -1.3916 -0.9633 -0.2211
  147DG     H16 3374   1.595   0.984   0.851 -0.1749 -1.9809  1.0461
  147DG     C17 3375   1.310   1.138   1.056 -0.8088 -0.2264 -0.6504
  147DG     C18 3376   1.493   1.165   0.902 -0.4266  0.2659 -0.1903
  147DG     O19 3377   1.363   1.197   0.937 -0.1870 -0.5696 -0.1102
  147DG     H20 3378   1.214   1.094   1.028 -0.1177 -0.8486 -2.1392
  147DG     H21 3379   1.383   1.067   1.096  1.8902  1.6798 -1.8709
  147DG     H22 3380   1.553   1.160   0.993  0.4886  3.4440 -0.4923
  147DG     H23 3381   1.541   1.244   0.845  3.0657 -1.3874  0.2310
  148DG      C1 3382   3.020   3.561   3.347 -0.2395  0.1912  0.4178
  148DG      C2 3383   2.611   3.548   3.929 -0.5724  0.0348 -0.0129
  148DG      H3 3384   3.058   3.660   3.373 -0.9753  0.7621 -0.6157
  148DG      H4 3385   2.921   3.570   3.304 -0.0006 -0.8924 -0.4013
  148DG      H5 3386   3.090   3.507   3.283 -1.6762 -0.3527 -0.7436
  148DG      H6 3387   2.648   3.646   3.959 -1.2561  0.0852  0.6904
  148DG      H7 3388   2.520   3.564   3.872 -1.4332 -0.5869  1.1599
  148DG      H8 3389   2.590   3.488   4.017  0.1443 -0.7403 -0.3531
  148DG      O9 3390   3.006   3.483   3.467  0.1596 -0.4051  0.3421
  148DG     O10 3391   2.720   3.482   3.855 -0.1863  0.2471  0.2379
  148DG     C11 3392   2.998   3.345   3.450  0.1980 -0.1446 -0.8327
  148DG     C12 3393   2.715   3.339   3.844  0.1519 -0.0501 -0.3904
  148DG     H13 3394   3.083   3.292   3.408 -0.0308 -0.7056 -0.6040
  148DG     H14 3395   2.912   3.324   3.386  0.3299 -1.2812 -0.6514
  148DG     H15 3396   2.631   3.319   3.778 -1.4317  0.3395  1.4434
  148DG     H16 3397   2.695   3.289   3.939  0.9976 -0.1423 -0.2517
  148DG     C17 3398   2.976   3.283   3.586  0.6150  0.3108 -0.7086
  148DG     C18 3399   2.841   3.279   3.776  0.6218 -1.1059  0.0876
  148DG     O19 3400   2.863   3.345   3.653  0.1010 -0.1117  0.0995
  148DG     H20 3401   3.065   3.292   3.649  0.8016 -1.5179 -0.6606
  148DG     H21 3402   2.952   3.177   3.580 -2.6515  0.9311 -0.4222
  148DG     H22 3403   2.929   3.281   3.840  0.6119 -1.2414  0.1053
  148DG     H23 3404   2.825   3.174   3.749 -1.1954 -0.8088 -0.1363
  149DG      C1 3405   2.493   0.145   3.129  0.9197  0.3917 -1.2325
  149DG      C2 3406   2.496   0.713   2.832  0.0728  1.1633  0.3736
  149DG      H3 3407   2.596   0.110   3.140  0.3685 -1.0975 -0.4446
  149DG      H4 3408   2.434   0.056   3.154  2.3346 -0.0312  0.8305
  149DG      H5 3409   2.476   0.218   3.208 -2.1412 -2.3155  0.9173
  149DG      H6 3410   2.577   0.742   2.899  0.2441  1.8655 -0.1272
  149DG      H7 3411   2.493   0.783   2.749 -0.8736 -1.3648 -1.8575
  149DG      H8 3412   2.407   0.737   2.890  0.3033  2.2136  0.3285
  149DG      O9 3413   2.436   0.194   3.005  0.2848 -0.1969 -0.6001
  149DG     O10 3414   2.500   0.576   2.783  0.1528  0.1437  0.1987
  149DG     C11 3415   2.501   0.125   2.899  0.2856  0.3030  0.1317
  149DG     C12 3416   2.386   0.542   2.701 -0.7297 -0.1530 -0.5625
  149DG     H13 3417   2.487   0.019   2.922 -0.2556  0.1512 -0.8665
  149DG     H14 3418   2.606   0.156   2.910  0.7289 -0.5521 -1.4119
  149DG     H15 3419   2.392   0.599   2.608 -2.2890 -1.7223 -1.6994
  149DG     H16 3420   2.293   0.561   2.755 -0.2366  0.5924  0.0301
  149DG     C17 3421   2.450   0.189   2.765 -0.4014  0.8796 -0.6161
  149DG     C18 3422   2.390   0.391   2.668  0.0137 -0.2012 -0.3338
  149DG     O19 3423   2.466   0.327   2.779  0.4028  0.3755  0.0349
  149DG     H20 3424   2.347   0.158   2.746 -0.6560  1.2877  0.0502
  149DG     H21 3425   2.500   0.146   2.678 -1.5030 -3.9663  0.8444
  149DG     H22 3426   2.285   0.363   2.655 -0.3710  1.5787 -1.3637
  149DG     H23 3427   2.450   0.381   2.578 -2.2194 -0.6589 -1.8593
  150DG      C1 3428   4.693   2.758   0.008 -0.2091 -0.5333  0.3938
  150DG      C2 3429   4.746   2.416  -0.537 -0.3228  0.0528  0.1768
  150DG      H3 3430   4.667   2.659   0.044 -0.3850 -0.2630  1.0151
  150DG      H4 3431   4.679   2.825   0.092 -0.4555  0.7502 -0.6287
  150DG      H5 3432   4.797   2.753  -0.023 -0.2808  0.0338  0.0227
  150DG      H6 3433   4.714   2.374  -0.632  0.0627  2.2717 -1.0097
  150DG      H7 3434   4.838   2.471  -0.558 -2.6364  4.5472  0.5238
  150DG      H8 3435   4.766   2.338  -0.464  0.5508 -0.3348 -0.4509
  150DG      O9 3436   4.613   2.786  -0.102 -0.5080 -0.2497  0.6835
  150DG     O10 3437   4.657   2.513  -0.477 -0.2642  0.0016  0.2643
  150DG     C11 3438   4.672   2.886  -0.183 -0.2806  0.7482 -0.1075
  150DG     C12 3439   4.636   2.627  -0.564 -0.3138  0.0889  0.4295
  150DG     H13 3440   4.778   2.874  -0.205 -0.2691  2.1107 -0.9061
  150DG     H14 3441   4.674   2.984  -0.135 -0.9381  0.2818  0.9080
  150DG     H15 3442   4.571   2.595  -0.645 -2.0434  1.1497  1.3371
  150DG     H16 3443   4.729   2.664  -0.607 -1.0956 -0.2925 -1.6927
  150DG     C17 3444   4.599   2.893  -0.312 -0.9178  0.2115 -0.0964
  150DG     C18 3445   4.571   2.748  -0.499  0.6952 -0.2336  0.2062
  150DG     O19 3446   4.625   2.762  -0.372  0.1879  0.0639  0.4158
  150DG     H20 3447   4.637   2.966  -0.382  0.8830  0.9825  1.5880
  150DG     H21 3448   4.494   2.906  -0.286 -1.0841 -1.0630 -0.0703
  150DG     H22 3449   4.573   2.836  -0.563 -0.9731 -1.7511 -2.1123
  150DG     H23 3450   4.463   2.733  -0.505  0.5997  0.8216 -1.1204
  151DG      C1 3451   2.611   4.415   4.323 -0.0342 -0.3495  0.4280
  151DG      C2 3452   2.892   4.297   3.649 -0.2766 -0.4128 -0.3807
  151DG      H3 3453   2.522   4.371   4.278 -0.3516 -0.7766  1.4426
  151DG      H4 3454   2.609   4.524   4.317 -1.4049 -0.3368  0.8432
  151DG      H5 3455   2.603   4.385   4.427 -0.7665 -3.6622 -0.4484
  151DG      H6 3456   2.856   4.398   3.670 -0.5467 -0.4046 -0.8741
  151DG      H7 3457   2.991   4.296   3.604  0.4438 -0.1443  1.1241
  151DG      H8 3458   2.817   4.257   3.581  1.2957 -0.8183 -1.9595
  151DG      O9 3459   2.732   4.347   4.275 -0.0341  0.9484 -0.1999
  151DG     O10 3460   2.880   4.219   3.766 -0.3816  0.2836 -0.9013
  151DG     C11 3461   2.722   4.205   4.262 -0.2818  1.1707  0.0357
  151DG     C12 3462   2.983   4.252   3.858  0.0991  0.7501  0.3370
  151DG     H13 3463   2.624   4.184   4.219 -0.6605  0.1684  1.3423
  151DG     H14 3464   2.731   4.153   4.357  1.0149 -0.7370 -1.0584
  151DG     H15 3465   2.992   4.360   3.875  0.5177  0.6392  0.8635
  151DG     H16 3466   3.078   4.230   3.810 -0.7406 -0.5704 -0.7967
  151DG     C17 3467   2.840   4.144   4.185 -0.1623  0.8294  0.4951
  151DG     C18 3468   2.970   4.162   3.985 -0.9415  0.2416 -0.3635
  151DG     O19 3469   2.855   4.208   4.052 -0.0976  0.2150 -0.3237
  151DG     H20 3470   2.797   4.051   4.146 -0.9766  2.0484 -1.7239
  151DG     H21 3471   2.931   4.115   4.237  0.5418 -1.4646 -1.7767
  151DG     H22 3472   2.943   4.061   3.956  1.8736 -0.4728 -0.7331
  151DG     H23 3473   3.063   4.175   4.040  0.3359  1.1692 -2.5693
  152DG      C1 3474   0.390   4.579   1.807  0.5739  0.1591 -0.1814
  152DG      C2 3475   0.790   4.796   2.272  0.3835  0.7806 -0.7092
  152DG      H3 3476   0.288   4.576   1.768  1.0980 -3.3170 -1.6029
  152DG      H4 3477   0.401   4.499   1.880  0.3397 -0.8703 -1.2542
  152DG      H5 3478   0.443   4.551   1.716  2.0337 -1.9221  1.2177
  152DG      H6 3479   0.728   4.746   2.197  0.4861 -2.0190  0.9451
  152DG      H7 3480   0.876   4.852   2.235 -0.4432  2.0951 -0.6992
  152DG      H8 3481   0.821   4.721   2.344  0.3819  1.6069  0.1795
  152DG      O9 3482   0.432   4.709   1.851  0.1555  0.2416 -0.3020
  152DG     O10 3483   0.704   4.889   2.329  0.4659 -0.3936  0.6321
  152DG     C11 3484   0.573   4.727   1.857 -0.0691  0.2994 -0.6309
  152DG     C12 3485   0.646   4.984   2.239  0.0389  0.2171  0.2559
  152DG     H13 3486   0.625   4.749   1.764 -0.5684  2.9798 -0.3327
  152DG     H14 3487   0.619   4.648   1.918  2.0300  1.1595 -1.0015
  152DG     H15 3488   0.724   5.030   2.178 -1.5784  1.5220 -0.9352
  152DG     H16 3489   0.604   5.060   2.305 -1.4498 -0.3863  0.0497
  152DG     C17 3490   0.582   4.854   1.937 -0.2237 -0.6471 -0.3794
  152DG     C18 3491   0.524   4.943   2.160 -0.2120  0.0642  0.2219
  152DG     O19 3492   0.539   4.830   2.073  0.0868  0.7357 -0.0024
  152DG     H20 3493   0.524   4.931   1.886 -2.0757 -1.0733  0.9825
  152DG     H21 3494   0.684   4.892   1.944 -0.1114 -1.2761  3.5701
  152DG     H22 3495   0.436   4.929   2.224 -0.9335 -0.6808 -0.9017
  152DG     H23 3496   0.495   5.034   2.108  0.6029 -0.4388 -1.1578
  153DG      C1 3497   3.491   2.049   0.464 -0.0690 -0.0764 -0.3466
  153DG      C2 3498   3.477   1.712  -0.140 -0.1770  0.0165  0.6278
  153DG      H3 3499   3.444   2.096   0.550  1.2499  0.4182  0.1270
  153DG      H4 3500   3.568   2.121   0.436  1.1716 -1.1853  0.1389
  153DG      H5 3501   3.535   1.962   0.511 -2.4551 -1.0821  0.1807
  153DG      H6 3502   3.460   1.605  -0.131 -2.2414  0.3916  1.6456
  153DG      H7 3503   3.451   1.735  -0.243  2.7318  1.6292  0.1247
  153DG      H8 3504   3.584   1.723  -0.121 -0.3137 -1.3627  2.5009
  153DG      O9 3505   3.408   2.031   0.348 -0.5187 -0.2861 -0.5797
  153DG     O10 3506   3.395   1.791  -0.050  0.6136  0.4068 -0.5656
  153DG     C11 3507   3.296   1.948   0.376  0.2397 -0.1489 -0.6323
  153DG     C12 3508   3.254   1.755  -0.044  0.5501 -0.1770  0.7977
  153DG     H13 3509   3.262   1.983   0.474  1.9469  0.0612 -0.0847
  153DG     H14 3510   3.330   1.846   0.394 -0.5718 -0.7107 -2.1374
  153DG     H15 3511   3.244   1.663   0.014  1.1198  0.1565  1.4391
  153DG     H16 3512   3.216   1.751  -0.146  1.3497  3.2989  0.2478
  153DG     C17 3513   3.189   1.941   0.264  0.1006 -0.0641 -0.4749
  153DG     C18 3514   3.175   1.853   0.045  0.2324 -1.1381  0.6552
  153DG     O19 3515   3.259   1.872   0.159 -0.0002 -0.0061  0.3788
  153DG     H20 3516   3.160   2.038   0.225  3.3433  1.5436  0.7105
  153DG     H21 3517   3.101   1.882   0.291 -0.2077  0.5725 -0.0547
  153DG     H22 3518   3.164   1.950  -0.005 -0.2271 -2.0166 -1.0354
  153DG     H23 3519   3.074   1.812   0.056 -0.8421  1.4306  1.2349
  154DG      C1 3520   5.222   0.536   1.645 -0.8128 -0.7277  0.5746
  154DG      C2 3521   5.675   0.065   1.485  0.0585 -0.5328  0.1069
  154DG      H3 3522   5.237   0.590   1.551 -0.9635 -0.9125  0.4439
  154DG      H4 3523   5.170   0.609   1.708 -3.0958 -0.0539 -1.8889
  154DG      H5 3524   5.144   0.465   1.616  0.3170 -1.3883 -0.9821
  154DG      H6 3525   5.593   0.002   1.452 -0.1614  0.6508 -1.7480
  154DG      H7 3526   5.712   0.106   1.391 -1.8445 -1.0779 -0.9371
  154DG      H8 3527   5.745  -0.008   1.525 -1.1282 -1.7076  0.0884
  154DG      O9 3528   5.337   0.475   1.711 -0.1015  0.2136  0.1706
  154DG     O10 3529   5.651   0.162   1.589 -0.1963 -0.1621 -0.9927
  154DG     C11 3530   5.441   0.572   1.728  0.5036 -0.3683  0.0557
  154DG     C12 3531   5.762   0.244   1.616  0.2237  0.0498  0.2386
  154DG     H13 3532   5.412   0.648   1.801  3.0118  0.1651  0.6184
  154DG     H14 3533   5.461   0.622   1.634  2.4276 -0.1900  0.5091
  154DG     H15 3534   5.781   0.287   1.517 -0.1832 -0.9794 -0.3005
  154DG     H16 3535   5.855   0.190   1.631 -0.4487 -1.7274 -1.4909
  154DG     C17 3536   5.573   0.517   1.765  0.6663 -0.4285  0.0986
  154DG     C18 3537   5.732   0.353   1.717  0.1036 -0.3171 -0.4462
  154DG     O19 3538   5.597   0.398   1.697  0.2554  0.1241  0.1737
  154DG     H20 3539   5.591   0.508   1.873 -0.5971 -2.2388  0.1964
  154DG     H21 3540   5.646   0.596   1.743 -0.5744  0.4629 -0.9335
  154DG     H22 3541   5.735   0.318   1.820 -1.1035 -0.1163 -0.3350
  154DG     H23 3542   5.800   0.438   1.707 -1.8665  1.1993 -1.6815
  155DG      C1 3543   1.402   1.977   5.131  0.6136  0.0245  0.1480
  155DG      C2 3544   0.854   2.283   4.997 -0.2908  0.7094 -0.1861
  155DG      H3 3545   1.467   1.890   5.141  0.1291 -0.5455 -1.3078
  155DG      H4 3546   1.376   2.009   5.232  0.7762 -0.2460  0.2757
  155DG      H5 3547   1.470   2.053   5.092  0.8190  0.2909  1.0112
  155DG      H6 3548   0.919   2.370   4.988  0.9199 -0.2713 -1.4521
  155DG      H7 3549   0.762   2.300   4.942 -1.5445 -0.7601  1.3556
  155DG      H8 3550   0.834   2.272   5.104  2.8524 -0.6221  0.3943
  155DG      O9 3551   1.286   1.950   5.055 -0.1509  0.4845 -0.6738
  155DG     O10 3552   0.921   2.161   4.952  0.2866  0.1634 -0.2762
  155DG     C11 3553   1.321   1.897   4.931 -0.5781  0.3336 -0.1174
  155DG     C12 3554   0.954   2.175   4.814  0.1472 -0.4565 -0.0260
  155DG     H13 3555   1.355   1.794   4.945 -2.9630 -0.5149 -0.1779
  155DG     H14 3556   1.415   1.939   4.895 -0.8764  1.4583  0.4105
  155DG     H15 3557   1.033   2.250   4.811  0.0940 -0.4053 -0.1291
  155DG     H16 3558   0.868   2.197   4.752  1.4671 -0.0295 -1.7714
  155DG     C17 3559   1.202   1.902   4.838  1.1230 -0.0583  0.2600
  155DG     C18 3560   1.027   2.041   4.773  0.6765 -0.3510 -0.6049
  155DG     O19 3561   1.128   2.020   4.871 -0.1358 -0.3939  0.2779
  155DG     H20 3562   1.130   1.820   4.842 -1.3080  1.9550 -0.0626
  155DG     H21 3563   1.223   1.896   4.731  1.0139  1.0644  0.1650
  155DG     H22 3564   0.964   1.953   4.759 -0.8439  0.7501 -0.9432
  155DG     H23 3565   1.080   2.052   4.678  4.0167 -1.0421  1.0237
  156DG      C1 3566   3.708   3.673   4.572 -0.3936 -0.1657  0.3960
  156DG      C2 3567   4.186   3.366   4.887  0.4419 -0.3383 -0.7034
  156DG      H3 3568   3.768   3.757   4.608  0.5213 -0.7458  0.2687
  156DG      H4 3569   3.611   3.718   4.553 -0.3201  1.0867  2.6444
  156DG      H5 3570   3.753   3.624   4.486 -0.7886  0.2604 -0.0547
  156DG      H6 3571   4.204   3.455   4.947 -1.3527 -1.0046  0.9491
  156DG      H7 3572   4.205   3.281   4.953 -2.0004 -0.7817 -0.4588
  156DG      H8 3573   4.247   3.359   4.798  0.0314 -0.4008 -0.9847
  156DG      O9 3574   3.687   3.571   4.667 -0.3136  0.2030  0.1038
  156DG     O10 3575   4.046   3.362   4.871 -0.3743 -0.6914  0.2235
  156DG     C11 3576   3.626   3.613   4.791  0.8128 -0.2402  0.0710
  156DG     C12 3577   3.975   3.352   4.996 -0.5592 -0.1888  0.4685
  156DG     H13 3578   3.521   3.639   4.778  0.7941  0.8348  1.9851
  156DG     H14 3579   3.676   3.707   4.816 -0.2108  1.1899 -2.7876
  156DG     H15 3580   4.012   3.439   5.050 -1.5971  2.3609 -2.5945
  156DG     H16 3581   3.997   3.257   5.045  2.0162 -0.5034 -1.1244
  156DG     C17 3582   3.651   3.503   4.894 -0.4301 -0.7739  0.1548
  156DG     C18 3583   3.820   3.372   4.994 -0.4520 -0.0856 -0.5950
  156DG     O19 3584   3.789   3.473   4.900 -0.6179 -0.3678  0.0696
  156DG     H20 3585   3.595   3.411   4.879 -3.1748  0.6949  0.6861
  156DG     H21 3586   3.611   3.535   4.990 -0.4592 -1.3014  0.3209
  156DG     H22 3587   3.769   3.281   4.963  0.4769 -1.0805  0.6677
  156DG     H23 3588   3.793   3.383   5.099  4.4212  1.7595  0.7467
  157DG      C1 3589   3.158   2.620   0.805 -0.2944  0.4211  0.4545
  157DG      C2 3590   3.736   2.451   0.540  0.1340  0.0054 -0.4932
  157DG      H3 3591   3.131   2.569   0.712 -1.5894  1.3321  0.3108
  157DG      H4 3592   3.076   2.678   0.849 -1.1763 -2.1551  2.4223
  157DG      H5 3593   3.167   2.543   0.881  0.6613 -0.2081 -0.2735
  157DG      H6 3594   3.780   2.464   0.442  0.5589  1.3534 -0.1367
  157DG      H7 3595   3.824   2.450   0.603  1.4336 -0.3954 -2.2316
  157DG      H8 3596   3.682   2.356   0.542  1.0485 -0.5372 -0.8637
  157DG      O9 3597   3.277   2.699   0.792 -0.0504 -0.2520 -0.4870
  157DG     O10 3598   3.642   2.552   0.559 -0.3875  0.2321 -0.0862
  157DG     C11 3599   3.252   2.822   0.728 -0.5881  0.1989  0.2081
  157DG     C12 3600   3.693   2.690   0.577 -0.5724 -0.4047 -0.1970
  157DG     H13 3601   3.200   2.894   0.791  1.8252  1.6229  0.7109
  157DG     H14 3602   3.194   2.805   0.637  1.5708 -2.1875 -0.8487
  157DG     H15 3603   3.778   2.708   0.512  1.6811 -1.9313  2.1686
  157DG     H16 3604   3.727   2.701   0.679 -0.3871  0.9493 -0.3927
  157DG     C17 3605   3.393   2.869   0.684  0.1612  0.0230  0.2094
  157DG     C18 3606   3.583   2.794   0.563  0.4244  0.0038  0.1305
  157DG     O19 3607   3.462   2.754   0.629 -0.2956 -0.1687 -0.1907
  157DG     H20 3608   3.448   2.901   0.772  0.3262 -2.6679  1.1588
  157DG     H21 3609   3.393   2.961   0.624 -0.9920 -0.8375 -1.1861
  157DG     H22 3610   3.631   2.886   0.597  1.5538 -1.1114  1.7638
  157DG     H23 3611   3.566   2.812   0.457  0.4237  0.3974  0.1976
  158DG      C1 3612   4.306   4.673   4.233  0.0913 -0.4012  0.3130
  158DG      C2 3613   4.969   4.313   4.354  0.9878 -0.2782  0.3638
  158DG      H3 3614   4.327   4.760   4.296  0.9514 -1.0403  0.9507
  158DG      H4 3615   4.203   4.640   4.240 -0.1377  0.4149  0.9795
  158DG      H5 3616   4.327   4.687   4.127  0.3070 -2.7487 -0.0227
  158DG      H6 3617   4.993   4.372   4.442  0.8229  0.1084  0.1527
  158DG      H7 3618   4.944   4.210   4.379 -2.5492 -0.0870 -1.6816
  158DG      H8 3619   5.054   4.323   4.286  0.9424  0.8922  0.4477
  158DG      O9 3620   4.400   4.578   4.282  0.1971 -0.2933  0.1250
  158DG     O10 3621   4.861   4.377   4.288  0.0546 -0.6610  0.5704
  158DG     C11 3622   4.532   4.636   4.280  0.1700  0.2258  0.2293
  158DG     C12 3623   4.821   4.317   4.169  0.2919 -0.1684  0.6515
  158DG     H13 3624   4.549   4.721   4.346 -0.3498 -0.7626  1.7049
  158DG     H14 3625   4.566   4.667   4.181 -2.0826  1.2056 -0.2972
  158DG     H15 3626   4.798   4.210   4.172  1.6743 -0.5130 -0.2029
  158DG     H16 3627   4.897   4.329   4.092 -0.8959  0.1663 -0.4987
  158DG     C17 3628   4.628   4.526   4.321  0.2146  0.0969 -0.1663
  158DG     C18 3629   4.695   4.400   4.130  0.3465 -0.3049 -0.0790
  158DG     O19 3630   4.608   4.413   4.243  0.4989 -0.3179  0.3585
  158DG     H20 3631   4.611   4.508   4.427 -1.3017  2.6628  0.1196
  158DG     H21 3632   4.727   4.570   4.314 -0.0950  1.0326  0.9620
  158DG     H22 3633   4.719   4.498   4.089  0.4673 -0.5684 -0.6497
  158DG     H23 3634   4.636   4.349   4.054 -1.7822 -1.0061  1.9548
  159DG      C1 3635   4.596   3.928   2.815  0.1162 -0.2074  0.0262
  159DG      C2 3636   4.542   3.828   2.171  0.3681 -0.5183 -0.0516
  159DG      H3 3637   4.548   4.020   2.847 -1.2700 -0.6290 -0.7658
  159DG      H4 3638   4.697   3.957   2.786 -0.6848  0.5016 -2.2108
  159DG      H5 3639   4.602   3.874   2.910  0.9306  0.6855  0.5032
  159DG      H6 3640   4.649   3.842   2.183  0.3986 -0.1837 -0.6983
  159DG      H7 3641   4.524   3.779   2.075  0.4700 -1.0526  0.1983
  159DG      H8 3642   4.510   3.930   2.150  2.2378 -0.1009 -1.0716
  159DG      O9 3643   4.519   3.853   2.724  0.4453 -0.3599  0.3190
  159DG     O10 3644   4.482   3.760   2.284  0.1167 -0.3407 -0.2663
  159DG     C11 3645   4.382   3.850   2.748  0.0881  0.0124  0.0932
  159DG     C12 3646   4.342   3.755   2.276  0.3240 -0.5528  0.1992
  159DG     H13 3647   4.345   3.953   2.741 -2.2250 -0.5776  2.1280
  159DG     H14 3648   4.346   3.821   2.847 -1.3260 -0.5115 -0.5423
  159DG     H15 3649   4.319   3.692   2.190  1.3174 -1.5747  0.6607
  159DG     H16 3650   4.300   3.854   2.258  1.7043  0.3511  1.6640
  159DG     C17 3651   4.311   3.764   2.642 -0.3920 -0.0795 -0.1136
  159DG     C18 3652   4.284   3.706   2.409  0.0245 -0.1963  0.3846
  159DG     O19 3653   4.355   3.784   2.511 -0.2340  0.3180  0.0008
  159DG     H20 3654   4.205   3.790   2.637 -1.0847 -2.3582  1.3399
  159DG     H21 3655   4.327   3.662   2.677  1.9832  0.7006  1.2816
  159DG     H22 3656   4.175   3.714   2.410  0.1334  1.8646  0.8741
  159DG     H23 3657   4.312   3.605   2.439 -0.2111  0.2787  2.3649
  160DG      C1 3658   2.102   1.653   4.287  0.3557  0.5013  0.4792
  160DG      C2 3659   2.690   2.141   4.463 -0.5736 -0.3907 -0.3176
  160DG      H3 3660   2.111   1.630   4.181 -0.2507  0.6726  0.3879
  160DG      H4 3661   2.017   1.721   4.295  0.2145  0.2406  1.2278
  160DG      H5 3662   2.073   1.557   4.329  1.4568  0.5076  1.2928
  160DG      H6 3663   2.790   2.144   4.418  0.8210 -1.6626  2.4826
  160DG      H7 3664   2.633   2.215   4.406 -0.8495 -0.2462  0.1410
  160DG      H8 3665   2.707   2.177   4.565 -0.6467 -0.9366 -0.1128
  160DG      O9 3666   2.223   1.702   4.356 -0.2941  0.1202  0.4537
  160DG     O10 3667   2.629   2.021   4.466  0.5840  0.4692 -0.1882
  160DG     C11 3668   2.333   1.615   4.353  0.3401 -0.6746  0.4108
  160DG     C12 3669   2.584   1.995   4.335 -0.1412  0.4989 -0.5204
  160DG     H13 3670   2.354   1.588   4.249 -1.3893 -0.2870 -0.0673
  160DG     H14 3671   2.314   1.523   4.408 -1.7348  0.9428  2.6237
  160DG     H15 3672   2.648   2.034   4.256  0.3349  0.1909 -0.2953
  160DG     H16 3673   2.491   2.051   4.326 -1.2592 -0.8193  1.8718
  160DG     C17 3674   2.440   1.684   4.429  0.3813  0.2438  0.5314
  160DG     C18 3675   2.545   1.848   4.306 -0.3995  0.4144  0.1751
  160DG     O19 3676   2.437   1.823   4.390 -0.0364  0.4524  0.3596
  160DG     H20 3677   2.531   1.625   4.430  1.1241  1.3540  0.3138
  160DG     H21 3678   2.402   1.688   4.531 -1.7041  0.0557 -0.1775
  160DG     H22 3679   2.513   1.838   4.203 -0.2545 -1.2334  0.2649
  160DG     H23 3680   2.636   1.792   4.328 -1.8724 -1.2198  2.5499
  161DG      C1 3681   2.677   3.212   2.081  0.5324  0.1207  0.0113
  161DG      C2 3682   3.165   3.111   1.609 -0.6736 -0.2560  0.0442
  161DG      H3 3683   2.621   3.194   2.173 -0.2580 -2.3572 -0.8637
  161DG      H4 3684   2.612   3.234   1.996  0.6651 -0.7635 -0.3297
  161DG      H5 3685   2.731   3.306   2.092  1.7919 -0.6277  0.4160
  161DG      H6 3686   3.231   3.038   1.561 -0.5402 -1.1626  1.5538
  161DG      H7 3687   3.087   3.153   1.546 -0.1768  1.0250  0.2589
  161DG      H8 3688   3.234   3.181   1.654  0.3980  0.0542 -1.9483
  161DG      O9 3689   2.779   3.112   2.053 -0.2597  0.0625 -0.0619
  161DG     O10 3690   3.110   3.033   1.707  0.4121  0.3739  0.3560
  161DG     C11 3691   2.730   2.986   2.019 -0.7812  0.1063 -0.1857
  161DG     C12 3692   3.038   2.919   1.671 -0.3975 -0.0188 -0.0849
  161DG     H13 3693   2.665   3.000   1.933 -0.2387  1.8401 -0.3473
  161DG     H14 3694   2.678   2.946   2.107 -0.3235 -1.6070 -0.6617
  161DG     H15 3695   3.093   2.841   1.617  0.7227 -0.2438  1.3258
  161DG     H16 3696   2.957   2.951   1.605 -0.3649 -1.5805 -0.9421
  161DG     C17 3697   2.850   2.895   1.976 -0.0828 -0.2297 -0.6326
  161DG     C18 3698   2.999   2.856   1.807 -0.0500  0.0809  0.1220
  161DG     O19 3699   2.913   2.945   1.864 -0.6548  0.6461  0.0670
  161DG     H20 3700   2.808   2.796   1.956  0.0962 -0.4675  0.1256
  161DG     H21 3701   2.925   2.880   2.055 -1.3926 -3.1874  0.2010
  161DG     H22 3702   2.959   2.758   1.783  0.0224  0.2426 -0.6725
  161DG     H23 3703   3.090   2.848   1.868  0.3885 -2.3320 -0.7257
  162DG      C1 3704   1.801   4.022   5.484  0.5020 -0.3233  0.7120
  162DG      C2 3705   1.531   4.490   5.646 -0.0589  0.9466 -0.0209
  162DG      H3 3706   1.809   3.975   5.386 -0.9830  1.5597 -0.3876
  162DG      H4 3707   1.820   4.126   5.460 -0.0054 -0.8241 -2.1557
  162DG      H5 3708   1.696   4.007   5.510  0.2840 -2.0546 -0.9243
  162DG      H6 3709   1.605   4.569   5.636  0.3455  0.6836  0.8027
  162DG      H7 3710   1.517   4.469   5.540  1.5858  2.0396 -0.4929
  162DG      H8 3711   1.453   4.548   5.695 -0.5304  0.1917  0.1372
  162DG      O9 3712   1.887   3.961   5.576 -0.3875 -0.3877 -0.1753
  162DG     O10 3713   1.590   4.380   5.719  0.2765 -0.2895 -0.1785
  162DG     C11 3714   1.910   4.027   5.702 -0.3967  0.3777  0.6113
  162DG     C12 3715   1.500   4.271   5.756 -0.3969  0.3947  0.7281
  162DG     H13 3716   1.939   4.130   5.684  2.1020 -0.0802  1.6549
  162DG     H14 3717   1.996   3.982   5.753  1.2877  2.6417 -0.0912
  162DG     H15 3718   1.449   4.231   5.668 -0.1797  0.3457  0.6249
  162DG     H16 3719   1.417   4.295   5.824 -0.7363 -2.6702  1.5496
  162DG     C17 3720   1.784   4.033   5.790 -0.0572 -0.8295  0.6147
  162DG     C18 3721   1.586   4.156   5.823  0.4683 -0.0327 -0.5584
  162DG     O19 3722   1.705   4.147   5.746 -0.1940 -0.8381  0.4828
  162DG     H20 3723   1.819   4.052   5.891 -1.1315  1.0400  0.6773
  162DG     H21 3724   1.726   3.941   5.797 -0.4427 -0.9018 -2.3340
  162DG     H22 3725   1.611   4.175   5.927  0.1932 -0.9113 -0.3235
  162DG     H23 3726   1.521   4.069   5.825 -2.2657  1.8782  1.0216
  163DG      C1 3727   4.932   0.099   4.577  0.2815 -0.4108  0.1200
  163DG      C2 3728   5.361   0.528   4.738 -0.2673 -0.7472  0.4283
  163DG      H3 3729   4.874   0.159   4.647 -1.7517 -1.5362 -0.5224
  163DG      H4 3730   4.985   0.017   4.627  1.1905 -0.4455 -0.8588
  163DG      H5 3731   4.861   0.057   4.506 -0.9630  3.0463 -0.9003
  163DG      H6 3732   5.361   0.569   4.838  0.6264 -0.2110  0.2151
  163DG      H7 3733   5.395   0.424   4.743 -0.6844 -1.0065 -1.3531
  163DG      H8 3734   5.422   0.588   4.671 -1.4643  2.9926  2.4117
  163DG      O9 3735   5.022   0.170   4.485  0.3136  0.2926  0.3260
  163DG     O10 3736   5.232   0.511   4.676  0.6243  0.2811 -0.1765
  163DG     C11 3737   4.949   0.262   4.402  0.4557 -0.0564  0.9710
  163DG     C12 3738   5.171   0.627   4.629  0.0693 -0.5429  0.1096
  163DG     H13 3739   4.850   0.235   4.368 -0.6531  3.6116  0.7917
  163DG     H14 3740   5.014   0.282   4.316  1.0175  0.0473  1.4113
  163DG     H15 3741   5.216   0.670   4.540  2.0598  1.8016  2.1164
  163DG     H16 3742   5.172   0.706   4.704 -1.4720 -0.4750  0.0950
  163DG     C17 3743   4.925   0.396   4.461 -0.9522 -0.4206  0.2721
  163DG     C18 3744   5.034   0.573   4.581  0.2559 -0.0619  0.1278
  163DG     O19 3745   5.049   0.443   4.514 -0.0103 -0.1541 -0.3232
  163DG     H20 3746   4.854   0.400   4.543 -1.1907 -0.5589  0.0742
  163DG     H21 3747   4.898   0.471   4.387  1.7628  2.0546  1.5919
  163DG     H22 3748   4.972   0.555   4.669 -0.8174  0.1153 -0.5640
  163DG     H23 3749   4.973   0.643   4.523  1.3177 -0.4715 -1.5577
  164DG      C1 3750   3.511   2.432   3.845 -0.2667  0.4131  0.4585
  164DG      C2 3751   3.982   2.480   3.542  0.1050  0.2608  0.5682
  164DG      H3 3752   3.488   2.329   3.870 -3.3069  0.8808  0.0660
  164DG      H4 3753   3.506   2.437   3.736 -1.3942  1.5133  0.5266
  164DG      H5 3754   3.426   2.492   3.879  0.2821  1.3456  0.2112
  164DG      H6 3755   3.979   2.393   3.476 -1.3899  1.0320 -0.4372
  164DG      H7 3756   4.081   2.521   3.559  0.6168 -0.8771  0.3987
  164DG      H8 3757   3.953   2.436   3.638 -1.1398 -0.8170 -0.2488
  164DG      O9 3758   3.641   2.474   3.888  0.5510  0.3013  0.1057
  164DG     O10 3759   3.890   2.578   3.492 -0.2332 -0.0762 -0.2312
  164DG     C11 3760   3.646   2.612   3.929  0.6899  0.0880  0.5202
  164DG     C12 3761   3.888   2.701   3.552  0.0278  0.5153 -0.3113
  164DG     H13 3762   3.745   2.622   3.975  0.9820 -1.6503  0.3250
  164DG     H14 3763   3.574   2.632   4.009 -0.2915  0.6067 -0.4748
  164DG     H15 3764   3.821   2.769   3.499 -1.8165 -0.1219  1.1052
  164DG     H16 3765   3.988   2.746   3.556  0.2991 -0.0732 -0.4407
  164DG     C17 3766   3.632   2.707   3.808  0.6091 -0.3535  0.6129
  164DG     C18 3767   3.847   2.697   3.700 -0.1069 -0.3178  0.5235
  164DG     O19 3768   3.710   2.677   3.692 -0.8630  0.2426  0.2998
  164DG     H20 3769   3.666   2.807   3.839 -2.7572  0.9707  0.5012
  164DG     H21 3770   3.526   2.711   3.781  0.1152 -1.8307  2.1703
  164DG     H22 3771   3.887   2.626   3.773  2.3113 -0.9393 -1.2773
  164DG     H23 3772   3.872   2.798   3.730 -1.0711  0.4094 -0.9815
  165DG      C1 3773   5.178   0.615   4.254 -0.6028  0.5244  0.9634
  165DG      C2 3774   5.383   0.103   4.680  0.3313  0.6801  0.7717
  165DG      H3 3775   5.088   0.596   4.312  0.7399 -0.6105  2.7598
  165DG      H4 3776   5.164   0.632   4.147 -0.5249 -0.7622  0.7302
  165DG      H5 3777   5.219   0.707   4.297  2.7942  1.0778 -2.7938
  165DG      H6 3778   5.432   0.148   4.766  0.7913  0.4044  0.6624
  165DG      H7 3779   5.276   0.113   4.698 -0.6397 -1.8238 -2.5644
  165DG      H8 3780   5.401  -0.005   4.674 -0.1552  0.6511 -0.4312
  165DG      O9 3781   5.260   0.508   4.262  0.1622  0.0093  0.0113
  165DG     O10 3782   5.406   0.179   4.565 -0.3938 -0.3735  0.0915
  165DG     C11 3783   5.395   0.544   4.227 -0.3868  0.4471 -0.1554
  165DG     C12 3784   5.547   0.210   4.549  0.2302  0.2810 -0.6847
  165DG     H13 3785   5.439   0.635   4.268  2.2417 -0.9732  0.4203
  165DG     H14 3786   5.403   0.570   4.122  0.9814 -1.6772 -0.6193
  165DG     H15 3787   5.610   0.122   4.559  1.1597  0.9918 -0.1812
  165DG     H16 3788   5.565   0.287   4.623  0.0500  2.2244 -2.5673
  165DG     C17 3789   5.487   0.428   4.268  0.1727 -0.2309  0.5705
  165DG     C18 3790   5.573   0.275   4.422 -0.9621  0.1095  0.3571
  165DG     O19 3791   5.479   0.382   4.402 -0.1132  0.4984  0.2887
  165DG     H20 3792   5.592   0.451   4.256  0.3029 -1.5673 -1.4927
  165DG     H21 3793   5.459   0.352   4.195 -1.6222 -0.1879  1.1526
  165DG     H22 3794   5.673   0.318   4.422 -1.0656  0.3529  0.8034
  165DG     H23 3795   5.564   0.196   4.347 -1.7778  0.0997  0.4529
  166DG      C1 3796   2.433   0.758   5.321 -0.3477  0.2360 -0.3596
  166DG      C2 3797   2.763   0.360   5.636 -0.0311 -0.5494  0.2423
  166DG      H3 3798   2.475   0.817   5.403  1.6640 -1.9701  0.3324
  166DG      H4 3799   2.364   0.818   5.262 -1.6979 -1.7013 -0.8384
  166DG      H5 3800   2.510   0.724   5.252  0.0799  0.3092  0.0759
  166DG      H6 3801   2.866   0.372   5.600  0.6787  1.4850  2.6665
  166DG      H7 3802   2.781   0.312   5.732 -0.1670  1.2422  1.2089
  166DG      H8 3803   2.707   0.289   5.575  2.7170 -1.3262 -1.5799
  166DG      O9 3804   2.362   0.640   5.378 -0.1925  0.2252  0.1516
  166DG     O10 3805   2.682   0.475   5.646  0.4003 -0.6850 -0.6850
  166DG     C11 3806   2.265   0.667   5.479  0.8224 -0.2845 -0.1152
  166DG     C12 3807   2.588   0.476   5.759 -0.0057 -0.1784  0.0208
  166DG     H13 3808   2.204   0.577   5.489  0.3637  0.0994  0.7661
  166DG     H14 3809   2.200   0.752   5.458 -0.4369 -0.8142  1.3710
  166DG     H15 3810   2.645   0.483   5.852 -0.3301  0.3453  0.1815
  166DG     H16 3811   2.531   0.384   5.762 -1.8416  0.9427  1.1163
  166DG     C17 3812   2.339   0.700   5.607  0.1151  0.0099 -0.4166
  166DG     C18 3813   2.486   0.586   5.767  0.0901 -0.8161 -0.0194
  166DG     O19 3814   2.426   0.592   5.634 -0.4037 -0.2522  0.7596
  166DG     H20 3815   2.265   0.724   5.684  1.2433 -1.5538  1.2666
  166DG     H21 3816   2.406   0.785   5.599 -1.6507  1.2804 -2.6143
  166DG     H22 3817   2.407   0.566   5.839 -1.1952 -0.9417 -1.4256
  166DG     H23 3818   2.537   0.682   5.781  1.9778 -1.5634 -1.3060
  167DG      C1 3819   1.595   1.715   4.760 -0.6499 -0.1901  0.6599
  167DG      C2 3820   1.402   1.227   4.428 -0.1509  0.2035  0.5697
  167DG      H3 3821   1.700   1.693   4.782 -0.7843 -1.5026  0.0454
  167DG      H4 3822   1.529   1.661   4.829 -1.1559  2.0570  2.0347
  167DG      H5 3823   1.576   1.818   4.789 -1.0089  0.1873 -0.8564
  167DG      H6 3824   1.336   1.190   4.349 -0.6100  1.3135  0.4207
  167DG      H7 3825   1.493   1.168   4.420  1.4243  2.3224  1.8621
  167DG      H8 3826   1.361   1.192   4.523 -0.2879  0.5737  0.6487
  167DG      O9 3827   1.570   1.682   4.623 -0.1209 -0.1067 -0.4216
  167DG     O10 3828   1.404   1.365   4.414  0.1029 -0.4346 -0.4274
  167DG     C11 3829   1.668   1.716   4.528 -0.5007 -0.0567  0.3243
  167DG     C12 3830   1.438   1.398   4.276 -0.4629 -0.1412  0.4449
  167DG     H13 3831   1.751   1.647   4.542 -0.1390  0.5733  1.4883
  167DG     H14 3832   1.701   1.819   4.541  0.2684 -0.2593  0.0041
  167DG     H15 3833   1.346   1.396   4.217  0.1852 -0.4305 -0.5769
  167DG     H16 3834   1.519   1.337   4.236  0.3181  0.1953  1.4912
  167DG     C17 3835   1.613   1.691   4.389 -0.2552 -0.4431 -0.2191
  167DG     C18 3836   1.478   1.544   4.280 -1.1916 -0.3412 -0.4434
  167DG     O19 3837   1.541   1.577   4.406 -0.4561  0.1511 -0.2667
  167DG     H20 3838   1.691   1.683   4.313 -0.6592  0.1344 -0.7038
  167DG     H21 3839   1.541   1.767   4.362  0.8319  0.0475 -1.8814
  167DG     H22 3840   1.521   1.574   4.185 -0.0811 -2.1970 -0.5857
  167DG     H23 3841   1.387   1.603   4.272 -1.1399 -0.5082 -2.6932
  168DG      C1 3842   0.024   2.103   4.506  0.3311 -0.1971 -0.2431
  168DG      C2 3843  -0.307   1.395   4.646 -0.1925 -0.5015 -0.0815
  168DG      H3 3844   0.096   2.173   4.462 -0.7837  0.9542 -0.2786
  168DG      H4 3845  -0.046   2.158   4.568 -1.0996 -0.5756 -1.4788
  168DG      H5 3846  -0.037   2.058   4.428  1.1172 -0.8139 -0.5182
  168DG      H6 3847  -0.280   1.290   4.653  0.7568 -0.3187 -0.7091
  168DG      H7 3848  -0.298   1.437   4.746 -2.3426  0.8266 -0.3912
  168DG      H8 3849  -0.415   1.394   4.635 -0.3254  1.2961  0.6325
  168DG      O9 3850   0.077   1.999   4.581  0.3076 -0.0103  0.2721
  168DG     O10 3851  -0.245   1.463   4.540  0.0768 -0.9540 -0.1691
  168DG     C11 3852   0.159   1.903   4.518 -1.1565 -0.9862  0.6881
  168DG     C12 3853  -0.176   1.574   4.589 -0.4792 -0.6859 -0.4454
  168DG     H13 3854   0.219   1.862   4.599  1.2312  2.0614  0.6891
  168DG     H14 3855   0.230   1.946   4.447 -3.0533 -0.8437 -1.2465
  168DG     H15 3856  -0.092   1.554   4.656 -0.5007 -2.2045 -0.8343
  168DG     H16 3857  -0.241   1.644   4.641 -1.7422 -1.0283 -1.5131
  168DG     C17 3858   0.083   1.789   4.454  0.2981 -0.5783  1.0296
  168DG     C18 3859  -0.103   1.637   4.475  0.4650  0.4186  0.4784
  168DG     O19 3860  -0.003   1.720   4.538 -0.5126  0.2188  0.0406
  168DG     H20 3861   0.144   1.716   4.400  2.0984  0.6501  1.3005
  168DG     H21 3862   0.015   1.835   4.382 -0.7447  1.9275  3.4511
  168DG     H22 3863  -0.063   1.557   4.413  0.2255  0.5542  0.1460
  168DG     H23 3864  -0.173   1.681   4.404 -0.5700  0.8939  1.7489
  169DG      C1 3865   5.458   0.296   2.207  0.2421 -0.5317 -0.5931
  169DG      C2 3866   5.771   0.825   2.533  0.9621  0.7259  0.0214
  169DG      H3 3867   5.513   0.277   2.114  0.7801 -0.7767 -0.2333
  169DG      H4 3868   5.385   0.376   2.199 -0.7465 -1.1725  1.4476
  169DG      H5 3869   5.406   0.204   2.234 -0.9368  0.6435  1.3633
  169DG      H6 3870   5.825   0.867   2.618  0.8315  1.5735 -0.3078
  169DG      H7 3871   5.824   0.841   2.440 -0.4688 -2.6461 -1.5353
  169DG      H8 3872   5.675   0.872   2.515  0.6226 -0.1747 -0.6011
  169DG      O9 3873   5.538   0.336   2.315  0.0783  0.3774  0.1524
  169DG     O10 3874   5.762   0.684   2.546  0.4714 -0.1865  0.3011
  169DG     C11 3875   5.653   0.260   2.323 -0.3627 -0.3177 -0.3355
  169DG     C12 3876   5.882   0.615   2.546  0.6177  0.7999  0.3434
  169DG     H13 3877   5.709   0.268   2.230 -0.2571 -2.2301 -0.4826
  169DG     H14 3878   5.620   0.158   2.342 -1.2363 -0.3554 -1.9184
  169DG     H15 3879   5.952   0.631   2.628 -1.2106 -1.1217  2.4298
  169DG     H16 3880   5.932   0.650   2.455 -0.2494  0.8504 -0.1263
  169DG     C17 3881   5.748   0.295   2.429  0.0829 -0.6650 -0.2142
  169DG     C18 3882   5.852   0.466   2.551  0.1006  0.2789  0.2062
  169DG     O19 3883   5.757   0.437   2.450  0.2587  0.1444 -0.2897
  169DG     H20 3884   5.844   0.245   2.418  0.7034  0.6997 -1.2986
  169DG     H21 3885   5.707   0.266   2.526  0.8616  1.2217  0.7395
  169DG     H22 3886   5.942   0.408   2.533 -0.2594 -0.5530  1.0122
  169DG     H23 3887   5.821   0.437   2.651 -0.8339 -1.3796 -0.5090
  170DG      C1 3888   1.772   3.202   4.430 -0.3054 -0.6915  0.5667
  170DG      C2 3889   2.392   3.237   3.972 -0.1855 -0.3924 -0.5326
  170DG      H3 3890   1.748   3.212   4.535  1.8894  0.4156  1.0339
  170DG      H4 3891   1.834   3.113   4.414  0.5401 -0.2355  1.1838
  170DG      H5 3892   1.671   3.180   4.398 -0.5346 -0.0236  0.8095
  170DG      H6 3893   2.421   3.324   3.912  0.0622 -0.8507 -1.0943
  170DG      H7 3894   2.492   3.206   4.002 -0.5948 -0.6641  0.5822
  170DG      H8 3895   2.348   3.159   3.909 -1.1880  0.1194 -0.4748
  170DG      O9 3896   1.815   3.319   4.361  0.2991 -0.4480  0.3673
  170DG     O10 3897   2.309   3.308   4.070  0.6888 -0.8685 -0.2945
  170DG     C11 3898   1.934   3.369   4.409  0.2256  0.0310 -0.2928
  170DG     C12 3899   2.199   3.375   4.010 -0.5914  0.8462 -0.2026
  170DG     H13 3900   2.002   3.287   4.431 -0.9418 -2.0106 -3.5755
  170DG     H14 3901   1.918   3.431   4.497  0.7213  1.4879 -1.1790
  170DG     H15 3902   2.134   3.300   3.966  0.1144  0.1297 -0.0436
  170DG     H16 3903   2.239   3.439   3.931  0.1240  0.1541 -0.4166
  170DG     C17 3904   1.998   3.465   4.309  0.1257  0.1795 -0.0518
  170DG     C18 3905   2.133   3.462   4.118  0.5779 -0.1260  0.1282
  170DG     O19 3906   2.061   3.381   4.211  0.3412 -0.4142 -0.0453
  170DG     H20 3907   2.072   3.530   4.356 -1.6396  1.6235  0.8570
  170DG     H21 3908   1.925   3.529   4.261  1.4909  0.9149 -1.2362
  170DG     H22 3909   2.207   3.525   4.168  0.4185  1.3164 -1.3391
  170DG     H23 3910   2.062   3.531   4.072 -1.4497 -1.8758  0.4884
  171DG      C1 3911   4.676   2.319   3.675  0.0413 -0.1676  0.5635
  171DG      C2 3912   4.671   2.189   4.584  0.2011 -0.6866 -0.8499
  171DG      H3 3913   4.575   2.358   3.690  0.8786  2.9280 -0.9718
  171DG      H4 3914   4.666   2.252   3.590  0.5750 -2.3117  2.0891
  171DG      H5 3915   4.747   2.397   3.647  0.6318 -0.9124 -0.0773
  171DG      H6 3916   4.579   2.133   4.568 -0.3628  0.0623 -0.2861
  171DG      H7 3917   4.719   2.152   4.674  1.1403  1.0080 -0.6099
  171DG      H8 3918   4.656   2.292   4.617  1.7388 -1.1166  1.4410
  171DG      O9 3919   4.731   2.231   3.771  0.1814 -0.2013  0.2273
  171DG     O10 3920   4.769   2.184   4.479  0.6029 -0.0163 -0.2793
  171DG     C11 3921   4.692   2.282   3.895 -0.2083 -0.3799 -0.0734
  171DG     C12 3922   4.710   2.241   4.365  0.2917  0.2421 -0.3047
  171DG     H13 3923   4.593   2.249   3.926  0.8427 -2.5384  1.1952
  171DG     H14 3924   4.710   2.390   3.892  1.4797 -0.6474 -0.9569
  171DG     H15 3925   4.702   2.347   4.387 -0.5362 -0.1073  1.2311
  171DG     H16 3926   4.607   2.211   4.346  0.6104 -0.6797 -0.6518
  171DG     C17 3927   4.784   2.223   4.000 -0.2720  0.3947  0.5681
  171DG     C18 3928   4.796   2.215   4.239  0.3745  0.6143 -0.2842
  171DG     O19 3929   4.724   2.266   4.126 -0.5578 -0.1733  0.0406
  171DG     H20 3930   4.887   2.256   3.988  0.0246 -0.6082  0.2465
  171DG     H21 3931   4.793   2.115   3.985 -2.4918 -0.1834  2.7189
  171DG     H22 3932   4.896   2.256   4.254  0.3380  0.3128  0.8494
  171DG     H23 3933   4.799   2.107   4.227 -0.7533  0.4974  0.2815
  172DG      C1 3934   4.379   0.597   3.697 -0.0785 -0.2164 -0.3608
  172DG      C2 3935   4.175   1.206   3.882  0.1296  0.4010  0.9999
  172DG      H3 3936   4.473   0.642   3.666 -0.1847  0.0275 -0.3316
  172DG      H4 3937   4.375   0.499   3.648  0.3935 -1.4860  1.9901
  172DG      H5 3938   4.399   0.583   3.803 -1.0755  1.4629  0.0885
  172DG      H6 3939   4.110   1.290   3.861  0.2247 -0.0478 -1.3410
  172DG      H7 3940   4.169   1.185   3.989  1.7140  0.5161  1.1422
  172DG      H8 3941   4.277   1.236   3.860  0.7229 -1.4911  0.9691
  172DG      O9 3942   4.276   0.697   3.674 -0.3809 -0.1548 -0.5848
  172DG     O10 3943   4.129   1.089   3.808  0.0859 -0.1249  0.2969
  172DG     C11 3944   4.145   0.639   3.679 -0.3579  0.2765  0.2388
  172DG     C12 3945   3.996   1.060   3.834  0.1223  0.0851  0.1375
  172DG     H13 3946   4.133   0.604   3.781  0.8565 -3.1325 -0.6454
  172DG     H14 3947   4.139   0.554   3.611  0.3989  0.5405 -0.1701
  172DG     H15 3948   3.931   1.148   3.833 -0.5108 -0.3808 -0.3014
  172DG     H16 3949   3.986   1.030   3.939 -0.2674 -1.0071 -0.2047
  172DG     C17 3950   4.037   0.745   3.661 -0.0960 -0.0864  0.3252
  172DG     C18 3951   3.959   0.951   3.732  0.4839  0.9072 -0.1745
  172DG     O19 3952   4.038   0.845   3.767  0.1591  0.0548  0.1871
  172DG     H20 3953   3.947   0.684   3.654 -1.6955  2.1550  0.4251
  172DG     H21 3954   4.042   0.783   3.559  2.1019 -0.7946  0.1318
  172DG     H22 3955   3.857   0.913   3.739  0.5353  0.5607 -1.2445
  172DG     H23 3956   3.963   0.995   3.632  2.7164  0.1525 -0.4726
  173DG      C1 3957   1.276   4.476   3.055  0.2025 -0.2931 -0.0028
  173DG      C2 3958   0.885   5.095   3.365 -0.2002  0.1457 -0.7821
  173DG      H3 3959   1.211   4.486   2.968  1.6173 -0.6198 -1.1448
  173DG      H4 3960   1.231   4.401   3.119 -0.7788 -1.2794 -1.7663
  173DG      H5 3961   1.378   4.454   3.024  0.5978  2.3303 -0.8298
  173DG      H6 3962   0.848   5.030   3.287 -1.7217 -1.3237  1.0650
  173DG      H7 3963   0.835   5.061   3.456 -2.3832  1.0182 -1.6092
  173DG      H8 3964   0.870   5.202   3.352 -0.7184 -0.0164 -1.5816
  173DG      O9 3965   1.279   4.602   3.122  0.0326  0.1132 -0.1828
  173DG     O10 3966   1.019   5.073   3.379 -0.2796  0.2562  0.5922
  173DG     C11 3967   1.338   4.592   3.255  0.2899 -0.6285  0.3987
  173DG     C12 3968   1.050   4.934   3.397 -0.2906  0.6646 -0.1020
  173DG     H13 3969   1.440   4.558   3.234  0.5421  0.1562  0.3419
  173DG     H14 3970   1.296   4.509   3.313  0.7889  0.6973  2.8054
  173DG     H15 3971   0.995   4.877   3.322 -0.7902  1.4299 -0.3194
  173DG     H16 3972   1.010   4.905   3.494 -0.8939 -2.9382 -1.2538
  173DG     C17 3973   1.337   4.724   3.339  0.2341 -0.2523  0.0973
  173DG     C18 3974   1.200   4.902   3.412 -0.6255  0.0757  0.4304
  173DG     O19 3975   1.211   4.784   3.333  0.5832  0.1452  0.0178
  173DG     H20 3976   1.416   4.784   3.294 -0.2468 -0.2676 -0.8023
  173DG     H21 3977   1.358   4.696   3.442 -0.0447  2.2416  0.9003
  173DG     H22 3978   1.261   4.976   3.360  1.8799 -1.9712  0.2653
  173DG     H23 3979   1.221   4.882   3.517  0.8366 -1.0543 -0.0562
  174DG      C1 3980   5.385   3.724   4.473  0.5749  0.0971  0.4365
  174DG      C2 3981   4.681   3.470   4.353  0.1351 -0.1828 -0.3179
  174DG      H3 3982   5.435   3.812   4.510  1.1498 -0.3097  0.6309
  174DG      H4 3983   5.438   3.697   4.381 -0.7214 -3.2196  0.5020
  174DG      H5 3984   5.401   3.642   4.543  0.8511  0.5056  0.8479
  174DG      H6 3985   4.747   3.427   4.277  0.6975  1.3094 -0.7074
  174DG      H7 3986   4.653   3.399   4.431 -2.4077  1.6015  0.5165
  174DG      H8 3987   4.591   3.505   4.303  1.2391  0.7347 -1.7587
  174DG      O9 3988   5.248   3.753   4.448 -1.0871  0.1546 -0.4022
  174DG     O10 3989   4.755   3.577   4.407 -0.4083  0.2067  0.0284
  174DG     C11 3990   5.175   3.779   4.568 -0.0845 -0.1791  0.3132
  174DG     C12 3991   4.765   3.687   4.320 -0.1851  0.2283 -0.2077
  174DG     H13 3992   5.226   3.844   4.639  1.6798 -0.7382 -0.3879
  174DG     H14 3993   5.173   3.679   4.611 -0.9127  0.2538  1.3164
  174DG     H15 3994   4.664   3.724   4.307 -0.7502 -1.7505 -1.8716
  174DG     H16 3995   4.827   3.671   4.232  1.8886  2.9986  0.5926
  174DG     C17 3996   5.033   3.829   4.529 -0.3312 -0.1378  0.1927
  174DG     C18 3997   4.838   3.791   4.401 -0.1968  0.2597 -0.0625
  174DG     O19 3998   4.962   3.742   4.442 -0.1909 -0.1003 -0.7497
  174DG     H20 3999   5.037   3.927   4.482 -1.8965  2.1088  4.2790
  174DG     H21 4000   4.983   3.852   4.623  0.7843 -0.3384  0.8553
  174DG     H22 4001   4.850   3.884   4.348 -2.2306  0.3066 -0.5486
  174DG     H23 4002   4.781   3.814   4.492 -1.8572  1.1327 -1.2678
  175DG      C1 4003   1.058   1.997   4.299  0.3578 -0.4873  0.2138
  175DG      C2 4004   1.000   2.447   3.944  0.2979 -0.3581 -0.4709
  175DG      H3 4005   0.964   2.037   4.338  2.1567 -0.0025  4.6006
  175DG      H4 4006   1.118   2.087   4.305 -1.7742  1.1614 -1.3869
  175DG      H5 4007   1.093   1.923   4.371 -0.8103 -0.3557  0.9579
  175DG      H6 4008   1.047   2.510   3.868 -1.2280  4.1985  1.9823
  175DG      H7 4009   0.895   2.432   3.916 -0.4397 -0.2230  2.0002
  175DG      H8 4010   1.009   2.509   4.032 -3.0438  0.6659 -0.7206
  175DG      O9 4011   1.062   1.958   4.165  0.4763  0.2469 -0.8246
  175DG     O10 4012   1.061   2.316   3.960  0.1267 -0.1010  0.2542
  175DG     C11 4013   1.182   1.897   4.113 -0.8225  0.4981  0.1238
  175DG     C12 4014   1.202   2.305   3.938  0.3001 -0.1284 -0.3050
  175DG     H13 4015   1.152   1.793   4.103  0.7364  0.1603 -1.7889
  175DG     H14 4016   1.269   1.919   4.175 -0.2576 -0.3496 -0.3507
  175DG     H15 4017   1.235   2.394   3.992 -0.7276 -0.4264  0.8537
  175DG     H16 4018   1.217   2.321   3.831 -4.1157 -1.8399 -1.4030
  175DG     C17 4019   1.210   1.936   3.967 -0.7325  0.7173 -0.4370
  175DG     C18 4020   1.249   2.171   3.987  0.1257  0.4250  0.1275
  175DG     O19 4021   1.173   2.065   3.921  0.1464 -0.5014 -0.7158
  175DG     H20 4022   1.165   1.869   3.894 -0.9895  1.0911 -0.6264
  175DG     H21 4023   1.318   1.923   3.955 -0.6058  1.5123 -0.2834
  175DG     H22 4024   1.356   2.161   3.976  0.2993  2.9624 -1.2583
  175DG     H23 4025   1.225   2.167   4.094 -0.9210  1.5409 -0.0364
  176DG      C1 4026   2.005   2.217   5.335 -0.0189  0.4726 -0.7221
  176DG      C2 4027   1.563   2.496   5.248 -0.1049  0.2447  0.5879
  176DG      H3 4028   2.090   2.149   5.337 -0.1287  0.3359 -0.6487
  176DG      H4 4029   1.995   2.264   5.238 -1.8735 -0.2325 -0.9232
  176DG      H5 4030   1.913   2.160   5.350 -0.9121  1.9943 -0.2600
  176DG      H6 4031   1.506   2.587   5.231  4.2499  3.0694 -0.4933
  176DG      H7 4032   1.556   2.431   5.161  0.3198  0.6844  0.2200
  176DG      H8 4033   1.524   2.443   5.334  0.3197 -0.9935  0.0396
  176DG      O9 4034   2.014   2.315   5.433 -0.0062  0.2216 -0.0247
  176DG     O10 4035   1.695   2.530   5.287 -0.3227 -0.1601  0.1886
  176DG     C11 4036   2.126   2.399   5.423  0.0016 -0.3744  0.2121
  176DG     C12 4037   1.768   2.590   5.178 -0.2098 -0.5490  0.1433
  176DG     H13 4038   2.217   2.340   5.407 -0.5120 -0.8483 -1.0940
  176DG     H14 4039   2.123   2.446   5.521 -0.9495  0.7288 -0.3289
  176DG     H15 4040   1.724   2.676   5.128  0.5377  0.8903  1.8839
  176DG     H16 4041   1.774   2.528   5.088 -1.3556 -0.2056 -0.1925
  176DG     C17 4042   2.094   2.507   5.318 -0.9068  1.1001 -0.4231
  176DG     C18 4043   1.912   2.626   5.225 -0.3954 -0.1957 -0.7579
  176DG     O19 4044   1.957   2.518   5.304 -0.0815  0.1741 -0.1157
  176DG     H20 4045   2.138   2.485   5.221 -2.5711 -0.3237 -0.9125
  176DG     H21 4046   2.141   2.595   5.362 -0.5285  0.7450 -0.1199
  176DG     H22 4047   1.991   2.652   5.154  1.8389 -0.0969  1.6181
  176DG     H23 4048   1.909   2.710   5.294  0.1115  0.2406 -1.2493
  177DG      C1 4049   4.943   0.923   1.967  0.1553 -0.0462 -0.2113
  177DG      C2 4050   4.194   0.710   2.136 -0.9324  1.0476  0.2864
  177DG      H3 4051   5.011   0.965   2.041  0.3584 -1.3366  0.3693
  177DG      H4 4052   4.982   0.947   1.869 -1.4350  1.2505 -0.5653
  177DG      H5 4053   4.925   0.817   1.985  1.1369  0.0022  1.3155
  177DG      H6 4054   4.236   0.702   2.236  0.6725 -0.7844 -0.4592
  177DG      H7 4055   4.107   0.775   2.140 -0.2286  1.9438  2.3733
  177DG      H8 4056   4.163   0.610   2.104 -0.0978  0.6878  0.5666
  177DG      O9 4057   4.819   0.984   1.978  0.0778 -0.1377 -0.3771
  177DG     O10 4058   4.294   0.747   2.040  0.2635  0.4970  0.4648
  177DG     C11 4059   4.757   0.977   2.107  0.4380  0.4768  0.8269
  177DG     C12 4060   4.309   0.890   2.022  0.9404  1.3019 -0.2753
  177DG     H13 4061   4.803   1.044   2.179  2.8679 -0.9810  0.7508
  177DG     H14 4062   4.758   0.879   2.153 -0.8779  0.4747  0.8913
  177DG     H15 4063   4.322   0.930   2.122  0.8579 -2.8164  1.5744
  177DG     H16 4064   4.218   0.934   1.981  0.6202  2.5639  1.6849
  177DG     C17 4065   4.601   0.990   2.086 -0.9223  0.2169 -0.1822
  177DG     C18 4066   4.424   0.925   1.935  0.0825  0.2069  0.0294
  177DG     O19 4067   4.553   0.894   1.986 -0.9937  0.6343  0.0528
  177DG     H20 4068   4.580   1.096   2.073  1.6860  1.4720  3.8200
  177DG     H21 4069   4.547   0.960   2.176 -0.1038  0.3713  0.3811
  177DG     H22 4070   4.406   0.873   1.841  0.2866 -1.0398  0.6632
  177DG     H23 4071   4.428   1.031   1.912  0.4452 -0.1317 -1.5490
  178DG      C1 4072   4.974   5.395   2.187 -0.2952 -0.7362 -0.3521
  178DG      C2 4073   5.353   5.475   2.631 -0.3990 -0.3470 -0.2776
  178DG      H3 4074   4.938   5.450   2.099  1.6043  3.6695  1.3240
  178DG      H4 4075   5.072   5.353   2.165  0.3364 -0.1803  1.3150
  178DG      H5 4076   4.973   5.476   2.260 -0.8145  0.8057 -1.9808
  178DG      H6 4077   5.353   5.546   2.713 -0.0617 -1.5278  0.7713
  178DG      H7 4078   5.436   5.407   2.653 -1.6342 -1.0843  2.4236
  178DG      H8 4079   5.362   5.541   2.544  1.3464  1.8517  1.4396
  178DG      O9 4080   4.886   5.287   2.222 -0.0790  0.8975  0.3591
  178DG     O10 4081   5.232   5.397   2.630  0.6445 -0.0027 -0.6266
  178DG     C11 4082   4.933   5.184   2.315 -0.3307 -0.4826  0.3018
  178DG     C12 4083   5.117   5.481   2.649 -0.1323 -0.1696  0.1493
  178DG     H13 4084   5.037   5.158   2.296 -0.1506  1.9977 -3.2790
  178DG     H14 4085   4.868   5.098   2.304  1.6889 -2.0212 -0.1306
  178DG     H15 4086   5.130   5.556   2.571 -0.9258 -2.5935 -2.4717
  178DG     H16 4087   5.109   5.520   2.751 -2.2904  1.0303 -0.3993
  178DG     C17 4088   4.903   5.234   2.453  0.3654  0.6009  0.5012
  178DG     C18 4089   4.991   5.397   2.613 -0.1796  0.1173 -0.2431
  178DG     O19 4090   5.010   5.323   2.486  0.3795  0.1255 -0.9219
  178DG     H20 4091   4.889   5.161   2.533  0.1004  0.6796  0.5284
  178DG     H21 4092   4.810   5.290   2.444  1.4025  2.1874 -1.2347
  178DG     H22 4093   4.966   5.330   2.696  0.2990 -0.0180 -0.2059
  178DG     H23 4094   4.905   5.462   2.600 -0.2180 -0.5296 -4.2178
  179DG      C1 4095   4.863   0.863   5.258 -0.7910  0.2550 -0.2693
  179DG      C2 4096   4.667   0.263   5.582  0.3145  0.3504 -0.2470
  179DG      H3 4097   4.965   0.841   5.290 -0.7735  1.6138  0.6770
  179DG      H4 4098   4.855   0.971   5.273 -2.2586  0.2884 -1.1107
  179DG      H5 4099   4.841   0.839   5.154 -0.7003 -1.0766 -0.0038
  179DG      H6 4100   4.608   0.221   5.664 -1.8567  1.9550 -0.8796
  179DG      H7 4101   4.664   0.207   5.489  0.4424 -1.5715  0.8653
  179DG      H8 4102   4.773   0.260   5.605  0.5718 -0.1573 -1.4531
  179DG      O9 4103   4.766   0.797   5.341  0.2109  0.0876  0.2630
  179DG     O10 4104   4.628   0.395   5.555  0.2206  0.0943  0.7811
  179DG     C11 4105   4.629   0.823   5.312  0.1625 -0.0421  0.1588
  179DG     C12 4106   4.492   0.406   5.517  0.3691 -0.9563 -0.0307
  179DG     H13 4107   4.591   0.782   5.218  1.9255 -3.3045  0.7158
  179DG     H14 4108   4.611   0.930   5.299  2.4793  0.4654  0.7211
  179DG     H15 4109   4.421   0.366   5.589  0.9016 -1.7821  0.0627
  179DG     H16 4110   4.476   0.354   5.423 -0.7723 -0.8529  0.0920
  179DG     C17 4111   4.539   0.761   5.421 -0.0789 -0.1425 -0.5526
  179DG     C18 4112   4.458   0.552   5.504  0.7566  0.2627  0.1349
  179DG     O19 4113   4.534   0.621   5.402 -0.1400  0.1766  0.6301
  179DG     H20 4114   4.441   0.808   5.409 -0.6092 -1.1476 -0.2757
  179DG     H21 4115   4.570   0.786   5.523 -0.0929 -2.2720  0.0385
  179DG     H22 4116   4.351   0.566   5.484  0.6016  0.0751  0.7956
  179DG     H23 4117   4.452   0.604   5.600 -2.0944  0.4359 -0.0448
  180DG      C1 4118   2.928   4.053   1.172  0.9499 -0.3957 -0.2743
  180DG      C2 4119   3.231   4.235   1.965 -0.0714  0.3886 -0.7015
  180DG      H3 4120   2.943   4.080   1.068 -1.4502 -0.1913 -0.6306
  180DG      H4 4121   2.822   4.073   1.189  0.7788 -1.7880  0.4438
  180DG      H5 4122   2.936   3.946   1.190  2.3277 -0.0163  1.7842
  180DG      H6 4123   3.160   4.301   2.017 -2.0579 -2.2632  0.1779
  180DG      H7 4124   3.193   4.133   1.967 -0.3831  0.4961 -0.9758
  180DG      H8 4125   3.323   4.222   2.021 -1.2159  0.0270  1.1833
  180DG      O9 4126   3.015   4.108   1.273  0.1830 -0.4145 -0.1980
  180DG     O10 4127   3.267   4.284   1.836  0.3200 -0.6547  0.0505
  180DG     C11 4128   3.022   4.250   1.279 -0.3359  0.0567 -0.0117
  180DG     C12 4129   3.175   4.244   1.742  0.1307 -0.7636 -0.6895
  180DG     H13 4130   2.935   4.294   1.329 -0.0603  1.3246 -0.6112
  180DG     H14 4131   3.036   4.295   1.181  0.0162 -1.7778 -0.8559
  180DG     H15 4132   3.077   4.279   1.773 -0.2431 -1.7996 -0.6662
  180DG     H16 4133   3.167   4.138   1.720  1.3842 -0.8720 -0.7245
  180DG     C17 4134   3.133   4.289   1.380  0.6176  0.0211 -0.0116
  180DG     C18 4135   3.208   4.294   1.602  0.0318  0.5331  0.1446
  180DG     O19 4136   3.104   4.246   1.517  0.4548 -1.0759 -0.8563
  180DG     H20 4137   3.143   4.397   1.376 -0.7991  0.1418 -1.9745
  180DG     H21 4138   3.229   4.254   1.341  0.9547  1.7441 -0.8154
  180DG     H22 4139   3.223   4.402   1.602  0.8121  0.4394  1.1497
  180DG     H23 4140   3.301   4.255   1.561 -0.4070  1.4631 -1.8735
  181DG      C1 4141   2.479   5.331   2.601 -0.4589 -0.0977  0.2485
  181DG      C2 4142   2.928   5.522   3.173  0.1722  0.2366  0.2083
  181DG      H3 4143   2.549   5.382   2.533  0.1782 -1.8174 -0.4327
  181DG      H4 4144   2.375   5.361   2.593 -0.9839 -1.1526  2.4184
  181DG      H5 4145   2.484   5.224   2.581  0.5457  0.0394 -0.3485
  181DG      H6 4146   2.851   5.580   3.122 -0.5145  0.1841  1.1549
  181DG      H7 4147   2.898   5.519   3.278 -1.9163 -0.6607 -0.3565
  181DG      H8 4148   3.027   5.567   3.172  0.7345 -0.9161  1.3333
  181DG      O9 4149   2.533   5.352   2.732  0.1037 -0.3657  0.0003
  181DG     O10 4150   2.935   5.391   3.137 -0.0197 -0.3867  0.4617
  181DG     C11 4151   2.644   5.273   2.768 -0.7317  0.0954 -0.4263
  181DG     C12 4152   2.973   5.356   3.003 -0.3926 -0.6000  0.6002
  181DG     H13 4153   2.732   5.260   2.705  1.4564  4.7362  1.1849
  181DG     H14 4154   2.592   5.177   2.765  0.8571 -0.7772 -0.7963
  181DG     H15 4155   2.974   5.249   2.980 -0.3411 -0.5565  0.4066
  181DG     H16 4156   3.073   5.392   2.984 -0.1431 -0.3245  2.2531
  181DG     C17 4157   2.682   5.286   2.915  0.7348 -0.5409  0.1163
  181DG     C18 4158   2.875   5.430   2.905  0.2936  0.9839 -0.1334
  181DG     O19 4159   2.739   5.418   2.928 -0.0470  0.1877 -0.1386
  181DG     H20 4160   2.759   5.225   2.962  0.3243 -1.2792 -0.1536
  181DG     H21 4161   2.592   5.291   2.976 -0.7703 -0.1004 -1.9955
  181DG     H22 4162   2.890   5.538   2.900 -2.0983  1.3635 -0.3336
  181DG     H23 4163   2.892   5.386   2.806  2.8552 -1.1083  1.1172
  182DG      C1 4164   4.369   1.515   0.570  0.3853  0.8004 -0.3537
  182DG      C2 4165   4.452   1.749  -0.128 -0.1234 -0.0320 -0.3108
  182DG      H3 4166   4.300   1.589   0.609 -2.6869 -2.3656  0.7641
  182DG      H4 4167   4.415   1.465   0.656 -2.5208  1.0089  1.4566
  182DG      H5 4168   4.305   1.444   0.517 -0.8309  1.9238 -0.4241
  182DG      H6 4169   4.463   1.856  -0.146 -0.9771  0.1571  0.2408
  182DG      H7 4170   4.478   1.689  -0.215  2.1881  0.3885  0.0217
  182DG      H8 4171   4.344   1.736  -0.119  0.2110 -2.6542  0.6627
  182DG      O9 4172   4.463   1.571   0.479 -0.0115 -0.3110 -0.2719
  182DG     O10 4173   4.532   1.711  -0.015  0.7381 -0.0893  0.1808
  182DG     C11 4174   4.567   1.484   0.440  0.1226  0.1617  0.2538
  182DG     C12 4175   4.512   1.792   0.105  0.0511 -0.1823 -0.2891
  182DG     H13 4176   4.502   1.415   0.387  0.4728  0.5492 -0.6920
  182DG     H14 4177   4.612   1.436   0.528 -1.8462  0.5325  1.5364
  182DG     H15 4178   4.409   1.761   0.127  0.3608 -0.7234  0.4915
  182DG     H16 4179   4.523   1.899   0.094  2.6807 -0.1603  1.6825
  182DG     C17 4180   4.667   1.551   0.338  0.0651  0.4678  0.1550
  182DG     C18 4181   4.595   1.741   0.217 -0.7640 -0.2815 -0.0528
  182DG     O19 4182   4.598   1.598   0.223  0.2767  0.0856 -0.3334
  182DG     H20 4183   4.739   1.477   0.303 -1.4924 -0.0875 -2.0610
  182DG     H21 4184   4.724   1.620   0.401  2.1160  0.1221 -1.2019
  182DG     H22 4185   4.697   1.780   0.211 -0.6276 -0.5220  0.6351
  182DG     H23 4186   4.546   1.782   0.305 -4.2006 -2.7531 -0.6529
  183DG      C1 4187   5.020   1.062   1.016  0.0521 -0.5821 -0.1104
  183DG      C2 4188   4.727   1.055   1.660 -0.4926  0.6867 -0.7354
  183DG      H3 4189   5.032   0.955   1.029 -0.7182 -0.9566 -2.1543
  183DG      H4 4190   5.103   1.108   1.069 -1.5149  1.0231  1.1048
  183DG      H5 4191   5.022   1.090   0.911  1.1295 -0.3599 -0.0418
  183DG      H6 4192   4.636   1.109   1.689  0.3845  0.8517  2.0183
  183DG      H7 4193   4.710   0.949   1.643  0.2457  0.3019  0.7846
  183DG      H8 4194   4.798   1.059   1.742 -1.3161 -3.3531  0.3730
  183DG      O9 4195   4.913   1.112   1.098  0.5896 -0.2047  0.0232
  183DG     O10 4196   4.773   1.101   1.537  0.0792  0.7292 -0.2381
  183DG     C11 4197   4.896   1.253   1.079  0.1820 -0.2158  0.5122
  183DG     C12 4198   4.803   1.238   1.549 -0.1733  0.7130  0.0823
  183DG     H13 4199   4.847   1.272   0.983  0.8286  1.0190  0.4019
  183DG     H14 4200   4.984   1.318   1.069 -1.0467  1.4049 -0.3310
  183DG     H15 4201   4.911   1.245   1.562 -0.0631  1.0325 -0.9089
  183DG     H16 4202   4.765   1.286   1.638 -0.3403  0.7953 -0.0335
  183DG     C17 4203   4.815   1.321   1.191 -0.0066 -0.5166 -0.2200
  183DG     C18 4204   4.753   1.309   1.423 -0.2217  0.3708 -0.1450
  183DG     O19 4205   4.844   1.274   1.321  0.3587 -0.4247  0.0847
  183DG     H20 4206   4.709   1.303   1.169 -0.3069  0.0685  0.6664
  183DG     H21 4207   4.826   1.430   1.188 -2.0302 -0.2758 -1.0411
  183DG     H22 4208   4.646   1.293   1.411 -0.3934  0.0402  1.5871
  183DG     H23 4209   4.757   1.417   1.438  2.8713  0.2864  0.3077
  184DG      C1 4210   4.863   3.781   0.647  0.4912  0.4691  0.5274
  184DG      C2 4211   5.296   3.322   0.358 -0.1512 -0.0017  0.0499
  184DG      H3 4212   4.952   3.837   0.617  1.3720 -2.2555 -2.5802
  184DG      H4 4213   4.819   3.810   0.742 -3.6728  1.7830 -1.5513
  184DG      H5 4214   4.789   3.802   0.570  0.9798  3.4008  0.7505
  184DG      H6 4215   5.371   3.383   0.408 -0.0632 -0.0866  0.0211
  184DG      H7 4216   5.339   3.224   0.341 -1.3590 -0.5617  0.1511
  184DG      H8 4217   5.271   3.372   0.264  0.2433  1.7202  0.8121
  184DG      O9 4218   4.896   3.647   0.636 -0.0415 -0.1833 -0.2047
  184DG     O10 4219   5.190   3.328   0.454  0.7080  0.0297  0.1316
  184DG     C11 4220   4.796   3.553   0.658  1.2223  0.5759 -0.0386
  184DG     C12 4221   5.070   3.254   0.417  0.3414 -0.2210  0.2859
  184DG     H13 4222   4.728   3.570   0.575 -1.5779  1.3273  2.2565
  184DG     H14 4223   4.732   3.580   0.742 -0.7850 -0.1591 -1.2648
  184DG     H15 4224   5.085   3.149   0.390  0.2739 -0.1983  0.1596
  184DG     H16 4225   5.027   3.288   0.323  1.4773 -2.9847 -1.3662
  184DG     C17 4226   4.861   3.407   0.666  0.1186  0.2361  0.4446
  184DG     C18 4227   4.959   3.253   0.523 -0.3097 -0.0984 -0.1366
  184DG     O19 4228   4.929   3.386   0.543 -0.0417  0.3700  0.1507
  184DG     H20 4229   4.770   3.346   0.666 -1.4016  2.3273  2.1930
  184DG     H21 4230   4.917   3.385   0.757 -2.8105  2.7182  3.1405
  184DG     H22 4231   4.866   3.209   0.489 -0.8167 -0.4553  1.5725
  184DG     H23 4232   4.988   3.198   0.613  1.5661  0.1733 -0.5239
  185DG      C1 4233   0.175   2.053   5.264  0.3048 -0.1575 -0.0131
  185DG      C2 4234  -0.476   2.097   4.770 -0.0402  0.4487 -0.5439
  185DG      H3 4235   0.160   1.962   5.323 -1.2814 -1.4424 -2.2116
  185DG      H4 4236   0.174   2.146   5.320  0.2184 -0.8031  1.0923
  185DG      H5 4237   0.275   2.038   5.223  0.5078  1.4026 -0.1216
  185DG      H6 4238  -0.574   2.065   4.805  1.4414 -1.4874  2.2569
  185DG      H7 4239  -0.454   2.198   4.806  1.6983 -0.2705  0.5521
  185DG      H8 4240  -0.469   2.093   4.662  0.0020 -0.3711 -0.5142
  185DG      O9 4241   0.087   2.067   5.155  0.3255 -0.0132 -0.1741
  185DG     O10 4242  -0.374   2.014   4.829  0.1694  0.5137 -0.5504
  185DG     C11 4243  -0.046   2.082   5.190  0.9665  0.4455 -0.1555
  185DG     C12 4244  -0.245   2.065   4.800 -0.4050 -0.4056 -0.0787
  185DG     H13 4245  -0.072   2.170   5.248 -0.3503  0.5483 -0.8481
  185DG     H14 4246  -0.078   2.002   5.256 -1.8847  2.3720  0.9843
  185DG     H15 4247  -0.238   2.170   4.830 -0.8951 -0.2368 -0.5352
  185DG     H16 4248  -0.224   2.069   4.693  1.4932 -0.7842  0.2379
  185DG     C17 4249  -0.134   2.092   5.069 -0.1633  0.7298 -0.9324
  185DG     C18 4250  -0.134   1.979   4.856  0.0967  0.4150 -1.0023
  185DG     O19 4251  -0.140   1.970   5.002  0.0424  0.4713  0.3526
  185DG     H20 4252  -0.085   2.170   5.010  0.9226  0.3193 -0.5918
  185DG     H21 4253  -0.237   2.114   5.097  0.5457  0.5234  2.2270
  185DG     H22 4254  -0.144   1.873   4.831  2.4113 -0.5365  1.6533
  185DG     H23 4255  -0.034   2.006   4.823  0.8619 -1.9860 -0.8270
  186DG      C1 4256   2.464   0.741   4.884  0.1379  0.4738 -0.3889
  186DG      C2 4257   2.737   1.308   4.668 -0.3944  0.0217  0.7158
  186DG      H3 4258   2.563   0.700   4.904  0.1477  0.8273  0.3325
  186DG      H4 4259   2.393   0.659   4.870  1.3833 -0.6587 -0.2526
  186DG      H5 4260   2.430   0.768   4.984 -0.1186  0.2332 -0.4110
  186DG      H6 4261   2.751   1.370   4.757  0.4274  0.1085  0.5326
  186DG      H7 4262   2.805   1.224   4.660  0.6783  1.0358 -1.4166
  186DG      H8 4263   2.751   1.379   4.586  2.2624 -0.0795  1.0098
  186DG      O9 4264   2.458   0.841   4.781 -0.7620  0.1339  0.2385
  186DG     O10 4265   2.613   1.262   4.644  0.8853  0.2363  0.1955
  186DG     C11 4266   2.335   0.904   4.769 -0.0240 -1.0887  0.4477
  186DG     C12 4267   2.600   1.189   4.518  0.0878  0.6857 -0.8285
  186DG     H13 4268   2.316   0.975   4.851 -1.2184 -0.2717 -0.4982
  186DG     H14 4269   2.254   0.832   4.774 -0.3463 -0.8944 -1.4856
  186DG     H15 4270   2.665   1.101   4.514  0.6469  0.8850  1.6965
  186DG     H16 4271   2.621   1.256   4.435 -0.1377  0.1154 -1.3537
  186DG     C17 4272   2.330   0.982   4.644  0.5150 -0.5285  0.0390
  186DG     C18 4273   2.463   1.132   4.512 -0.5615  0.8950  0.0859
  186DG     O19 4274   2.440   1.076   4.640  0.7675  0.0005 -0.1421
  186DG     H20 4275   2.237   1.039   4.635  0.0019 -1.4169 -0.4520
  186DG     H21 4276   2.322   0.913   4.560 -3.9818 -1.9406  1.3480
  186DG     H22 4277   2.385   1.204   4.486  1.2032  2.2356 -1.7598
  186DG     H23 4278   2.466   1.062   4.429  2.8567 -0.5811  1.2590
  187DG      C1 4279   3.878   2.666   2.987  0.6591 -0.0920 -0.2417
  187DG      C2 4280   3.630   2.344   3.491 -0.8543  0.4187 -0.0381
  187DG      H3 4281   3.951   2.743   2.962  0.9464 -0.7360 -1.5021
  187DG      H4 4282   3.806   2.663   2.906 -0.4675  0.5553  0.6996
  187DG      H5 4283   3.929   2.569   2.990  0.7068 -0.1050 -1.2191
  187DG      H6 4284   3.704   2.271   3.459 -0.7906  0.7302 -0.6288
  187DG      H7 4285   3.655   2.391   3.586 -3.4504  0.3932  0.7312
  187DG      H8 4286   3.552   2.272   3.513  0.5804 -0.5708  2.1520
  187DG      O9 4287   3.825   2.682   3.114  0.3700 -0.2791  0.1553
  187DG     O10 4288   3.602   2.431   3.381 -0.6276 -0.1396 -0.8059
  187DG     C11 4289   3.774   2.810   3.150 -0.0782 -0.1615  0.9259
  187DG     C12 4290   3.507   2.537   3.423  0.1800  1.1687 -0.1371
  187DG     H13 4291   3.780   2.889   3.075  1.2240 -0.5151  0.6480
  187DG     H14 4292   3.821   2.842   3.243 -0.4311 -0.3121  1.1567
  187DG     H15 4293   3.553   2.562   3.519 -0.0267 -2.2641  1.0103
  187DG     H16 4294   3.412   2.493   3.453 -0.0089  2.0740  0.6460
  187DG     C17 4295   3.630   2.791   3.188  0.3068 -0.6553  0.4846
  187DG     C18 4296   3.493   2.650   3.324 -0.1100  0.0122 -0.1698
  187DG     O19 4297   3.628   2.676   3.278  0.5794 -0.0692 -0.7409
  187DG     H20 4298   3.570   2.790   3.097  1.3295  1.8747 -0.3031
  187DG     H21 4299   3.600   2.882   3.240  0.3943 -0.4539  0.1844
  187DG     H22 4300   3.423   2.614   3.249 -1.1128 -0.0420  0.7752
  187DG     H23 4301   3.459   2.736   3.381 -0.4887 -1.7737  2.4391
  188DG      C1 4302   5.135   0.510   3.810  0.3857 -0.1993 -0.1200
  188DG      C2 4303   4.918   0.551   3.049 -0.2349  0.6759 -0.2874
  188DG      H3 4304   5.083   0.545   3.900  0.3801 -0.1937 -0.1260
  188DG      H4 4305   5.219   0.577   3.794 -1.4384  2.3255  0.3051
  188DG      H5 4306   5.165   0.405   3.819 -0.4696 -0.5354 -1.0110
  188DG      H6 4307   4.823   0.556   2.995 -0.0732 -1.5760 -0.8467
  188DG      H7 4308   4.940   0.650   3.089  0.7323 -0.5539  2.4180
  188DG      H8 4309   4.998   0.521   2.982 -1.7048 -2.2050 -0.9364
  188DG      O9 4310   5.044   0.519   3.704 -0.3273 -0.4213  0.4508
  188DG     O10 4311   4.909   0.462   3.163  0.4285 -0.1746  0.5029
  188DG     C11 4312   5.051   0.642   3.639 -0.0855  0.8791  0.0024
  188DG     C12 4313   4.799   0.504   3.242  0.3750 -0.5753  0.5553
  188DG     H13 4314   5.143   0.653   3.581  0.7713  0.8862  1.3177
  188DG     H14 4315   5.064   0.723   3.711  1.5252 -0.1164  0.8991
  188DG     H15 4316   4.751   0.415   3.284 -0.6628  0.0583  0.7422
  188DG     H16 4317   4.715   0.536   3.180  0.3082  0.2821  1.0785
  188DG     C17 4318   4.934   0.666   3.545  0.0272  0.4257 -0.5472
  188DG     C18 4319   4.823   0.610   3.346  0.1588  0.4216  0.3982
  188DG     O19 4320   4.928   0.575   3.430  0.2500 -0.0857 -0.7589
  188DG     H20 4321   4.939   0.769   3.509  0.4706  0.2824 -0.8981
  188DG     H21 4322   4.846   0.677   3.609  2.2919  1.5364  2.6946
  188DG     H22 4323   4.873   0.691   3.293  2.0299 -0.1382  1.2008
  188DG     H23 4324   4.732   0.638   3.399 -0.3369  0.4233 -0.4422
  189DG      C1 4325   4.955   3.726   3.083  0.3322  0.0986  0.0252
  189DG      C2 4326   5.331   4.219   3.169 -0.0625 -0.4251 -0.1016
  189DG      H3 4327   4.905   3.781   3.003 -0.7364 -1.4202 -0.3830
  189DG      H4 4328   4.887   3.644   3.106 -2.1354  2.4783  1.8845
  189DG      H5 4329   5.047   3.682   3.046  1.5367 -0.2591  3.1281
  189DG      H6 4330   5.409   4.161   3.119  0.5662  1.5218 -1.5062
  189DG      H7 4331   5.274   4.273   3.094 -0.0280 -0.3112 -0.0477
  189DG      H8 4332   5.379   4.292   3.235  0.6221 -0.3378 -0.6822
  189DG      O9 4333   4.982   3.796   3.203 -0.3055 -0.2681  0.2314
  189DG     O10 4334   5.243   4.144   3.246  0.0787  0.1929 -0.0065
  189DG     C11 4335   4.870   3.849   3.273 -0.0643 -0.1329 -0.2563
  189DG     C12 4336   5.157   4.217   3.334  0.3831 -0.1778 -0.2130
  189DG     H13 4337   4.805   3.770   3.312 -0.5773 -0.4372 -1.6772
  189DG     H14 4338   4.801   3.902   3.207 -0.9187  2.5260  2.5537
  189DG     H15 4339   5.088   4.276   3.274 -0.7465 -0.6259  0.6175
  189DG     H16 4340   5.214   4.288   3.395  0.9776  0.3015 -1.2959
  189DG     C17 4341   4.933   3.934   3.390 -0.2240  0.5261 -0.6669
  189DG     C18 4342   5.062   4.127   3.411 -0.7788  1.2172 -0.3712
  189DG     O19 4343   5.028   4.018   3.327 -0.0334  0.4961 -0.6831
  189DG     H20 4344   4.986   3.870   3.461  0.7779  2.5735  0.5476
  189DG     H21 4345   4.855   3.991   3.441 -0.0498  1.2962 -1.2482
  189DG     H22 4346   5.107   4.082   3.499 -2.2003 -0.5537 -0.5030
  189DG     H23 4347   4.972   4.181   3.441 -1.9178 -1.2446  0.8937
  190DG      C1 4348   4.379   0.215   2.015  0.2897 -0.4633  0.0094
  190DG      C2 4349   4.376  -0.462   1.803 -0.3841  0.2860  0.1961
  190DG      H3 4350   4.378   0.301   2.082  0.6997  0.2740 -0.9048
  190DG      H4 4351   4.329   0.252   1.926 -2.6712 -0.5093  1.5300
  190DG      H5 4352   4.485   0.211   1.989 -0.1329 -2.5626 -1.6695
  190DG      H6 4353   4.321  -0.555   1.790 -1.0755  0.9769 -2.1840
  190DG      H7 4354   4.397  -0.422   1.704 -2.0342  0.9832  0.0950
  190DG      H8 4355   4.464  -0.487   1.862  0.7027  2.5528 -0.3401
  190DG      O9 4356   4.318   0.091   2.061 -0.1464  0.3001  0.3004
  190DG     O10 4357   4.286  -0.368   1.865  0.5160 -0.8564  0.4430
  190DG     C11 4358   4.185   0.076   2.031  0.6397  0.4995  0.2379
  190DG     C12 4359   4.232  -0.409   1.993  0.0001 -0.1878  0.1141
  190DG     H13 4360   4.162   0.098   1.927  1.1208  1.5736  0.3447
  190DG     H14 4361   4.131   0.151   2.090 -3.1447 -0.7983 -1.2686
  190DG     H15 4362   4.307  -0.416   2.072 -1.5552  1.0722  1.7824
  190DG     H16 4363   4.192  -0.511   1.991  2.6650 -1.3074 -1.6015
  190DG     C17 4364   4.125  -0.061   2.078  0.4683 -0.1055  1.6047
  190DG     C18 4365   4.134  -0.298   2.037  0.9691  0.8954  0.4204
  190DG     O19 4366   4.193  -0.164   2.013  0.1123  0.1259 -0.1683
  190DG     H20 4367   4.019  -0.047   2.057  0.6192  0.4314  1.1665
  190DG     H21 4368   4.134  -0.065   2.186  0.6510  0.1044  1.5976
  190DG     H22 4369   4.048  -0.310   1.972  1.6669  0.5951 -0.4691
  190DG     H23 4370   4.093  -0.305   2.138 -0.9149  4.2510  0.0283
  191DG      C1 4371   1.835   4.841   4.853  0.2425 -0.5545 -0.3377
  191DG      C2 4372   1.422   4.231   4.859 -0.8506 -0.4789 -0.6253
  191DG      H3 4373   1.921   4.794   4.902  1.7430  0.2268 -2.0920
  191DG      H4 4374   1.795   4.922   4.914  0.3320 -2.2478  2.1197
  191DG      H5 4375   1.878   4.885   4.763 -1.3409  1.2587 -0.2717
  191DG      H6 4376   1.436   4.166   4.773 -0.2322 -0.2589 -0.6983
  191DG      H7 4377   1.487   4.187   4.935 -1.6565 -2.8883 -1.2422
  191DG      H8 4378   1.320   4.212   4.892 -1.3030 -0.7951 -2.1274
  191DG      O9 4379   1.731   4.753   4.820  0.3893 -0.0017 -0.5262
  191DG     O10 4380   1.452   4.370   4.838  0.0421 -0.7614 -0.5834
  191DG     C11 4381   1.658   4.794   4.710 -0.2236 -0.0230  0.3558
  191DG     C12 4382   1.355   4.437   4.757 -0.1749  0.3734  0.2509
  191DG     H13 4383   1.701   4.729   4.633  1.0670  0.6210  0.5073
  191DG     H14 4384   1.663   4.898   4.678 -0.2982  0.3085  1.3867
  191DG     H15 4385   1.255   4.396   4.775 -0.0503 -0.1229 -0.1557
  191DG     H16 4386   1.381   4.415   4.654  0.8454 -0.3016  0.6413
  191DG     C17 4387   1.508   4.759   4.724 -0.2416 -0.0199 -0.5145
  191DG     C18 4388   1.366   4.584   4.776  0.7475  0.2482 -0.2080
  191DG     O19 4389   1.502   4.629   4.772  0.6708  0.5519  0.0333
  191DG     H20 4390   1.448   4.772   4.634 -5.1911 -0.1177  2.3919
  191DG     H21 4391   1.459   4.821   4.799 -0.0413 -0.3239 -0.1248
  191DG     H22 4392   1.295   4.631   4.709  0.1204 -0.0480  0.2421
  191DG     H23 4393   1.331   4.606   4.877 -2.0259 -0.2197 -0.9995
  192DG      C1 4394   0.458   0.487   5.171  1.0553 -0.3081  0.0165
  192DG      C2 4395  -0.279   0.821   5.371 -0.3348  0.0512  0.1138
  192DG      H3 4396   0.403   0.443   5.088  0.7850 -0.1630  0.1202
  192DG      H4 4397   0.527   0.407   5.201 -0.7487 -2.8315 -2.0729
  192DG      H5 4398   0.520   0.572   5.141  0.7845  0.5741  1.8569
  192DG      H6 4399  -0.209   0.894   5.330 -3.9719  3.2890 -1.0157
  192DG      H7 4400  -0.330   0.776   5.286  1.0586 -1.0400 -0.1781
  192DG      H8 4401  -0.346   0.867   5.444  2.2100 -0.4967  3.0350
  192DG      O9 4402   0.379   0.526   5.286 -0.4773  0.1131 -0.4271
  192DG     O10 4403  -0.208   0.719   5.435 -0.1079 -0.1209  0.8688
  192DG     C11 4404   0.311   0.414   5.333  0.4795  0.8083 -0.6639
  192DG     C12 4405  -0.107   0.652   5.348  0.7038 -0.4032 -0.2564
  192DG     H13 4406   0.373   0.338   5.380 -0.7661  0.2032  0.0633
  192DG     H14 4407   0.269   0.364   5.246  2.1654  1.0398 -1.6418
  192DG     H15 4408  -0.033   0.727   5.319  0.1924 -0.5698 -2.1223
  192DG     H16 4409  -0.142   0.620   5.250  0.4018 -0.2072 -0.2126
  192DG     C17 4410   0.189   0.455   5.416 -0.8328  0.5093 -0.3532
  192DG     C18 4411  -0.029   0.541   5.411  0.3238 -0.4660  0.1272
  192DG     O19 4412   0.098   0.536   5.345 -0.0524  0.5023  0.5459
  192DG     H20 4413   0.226   0.520   5.495 -0.0926  0.0432 -0.3056
  192DG     H21 4414   0.139   0.367   5.455 -1.4963 -0.1333 -2.5014
  192DG     H22 4415   0.003   0.564   5.513 -1.1203  0.2825  0.4338
  192DG     H23 4416  -0.089   0.451   5.418 -1.9013  0.8799 -0.5818
  193DG      C1 4417   1.292   2.633   3.050  0.1494 -0.6052  1.1359
  193DG      C2 4418   1.004   2.063   3.211 -0.1370  0.4559 -0.2322
  193DG      H3 4419   1.322   2.636   3.155  0.5525  1.7278  0.9941
  193DG      H4 4420   1.243   2.728   3.031  1.2669 -0.0953  0.7591
  193DG      H5 4421   1.382   2.638   2.989  0.4471 -1.5922  1.4624
  193DG      H6 4422   0.913   2.005   3.229  0.6321 -1.4979 -2.1649
  193DG      H7 4423   1.080   1.990   3.185 -0.2431  1.0948 -2.5936
  193DG      H8 4424   1.034   2.108   3.306  2.9859 -1.2312 -0.3145
  193DG      O9 4425   1.216   2.524   3.000  0.7566  0.1994 -0.1205
  193DG     O10 4426   0.998   2.177   3.118 -0.2609 -0.0764 -0.6114
  193DG     C11 4427   1.179   2.524   2.857 -0.3946  0.1516  0.1323
  193DG     C12 4428   0.967   2.148   2.982 -0.6463 -0.2461 -0.0238
  193DG     H13 4429   1.268   2.547   2.798 -1.1580  1.1148 -0.6909
  193DG     H14 4430   1.110   2.606   2.838 -0.9432 -0.3159  0.0674
  193DG     H15 4431   0.888   2.073   2.983 -0.7487 -0.2745 -2.5258
  193DG     H16 4432   1.034   2.076   2.934 -2.4467 -2.4659  0.6332
  193DG     C17 4433   1.119   2.388   2.828  0.4687  0.3380 -0.5053
  193DG     C18 4434   0.920   2.264   2.900 -0.0936 -0.9706  0.3200
  193DG     O19 4435   1.005   2.382   2.916 -0.5428  0.4630  0.1603
  193DG     H20 4436   1.196   2.313   2.849 -2.3477 -3.1503 -1.6410
  193DG     H21 4437   1.088   2.394   2.724  0.8060  2.2303 -0.5421
  193DG     H22 4438   0.901   2.241   2.795  0.5425  0.0999 -0.0469
  193DG     H23 4439   0.824   2.291   2.942 -0.2401  0.7215 -1.0147
  194DG      C1 4440   3.781   2.854   0.022  0.4345 -0.5761 -0.5887
  194DG      C2 4441   4.419   3.001   0.044 -0.5486 -0.7736  0.3711
  194DG      H3 4442   3.820   2.855  -0.080 -0.0145 -2.2746 -0.8054
  194DG      H4 4443   3.710   2.937   0.024  0.2324 -0.7579  0.9303
  194DG      H5 4444   3.736   2.757   0.039 -0.0157 -0.5855 -1.7628
  194DG      H6 4445   4.427   2.944  -0.049  1.8769  1.4694 -0.9794
  194DG      H7 4446   4.371   3.096   0.022 -1.3792 -1.2138  0.2450
  194DG      H8 4447   4.521   3.016   0.082 -1.4071  0.9770  2.1435
  194DG      O9 4448   3.899   2.891   0.100  0.4960 -0.1133  0.2287
  194DG     O10 4449   4.336   2.943   0.146 -0.1761  0.2137  0.0254
  194DG     C11 4450   3.855   2.927   0.228  0.5337 -0.2104 -0.2957
  194DG     C12 4451   4.325   3.017   0.264 -0.3765 -0.1158  0.9844
  194DG     H13 4452   3.770   2.877   0.274  0.7810  0.5471  1.0265
  194DG     H14 4453   3.816   3.029   0.234 -2.0822 -1.0462 -1.5558
  194DG     H15 4454   4.311   3.123   0.242 -0.9391 -0.5469 -0.8996
  194DG     H16 4455   4.414   3.005   0.326 -0.1293 -1.9412  0.3507
  194DG     C17 4456   3.970   2.923   0.322  0.1541  0.0335 -0.2304
  194DG     C18 4457   4.193   2.957   0.338  0.0965  0.6078 -0.8782
  194DG     O19 4458   4.084   2.978   0.255  0.1085 -0.3217  1.0067
  194DG     H20 4459   3.990   2.820   0.351  0.4380  0.3254  0.6171
  194DG     H21 4460   3.952   2.987   0.408 -1.5308 -0.5595 -0.0957
  194DG     H22 4461   4.205   2.855   0.375 -1.6120  0.8831  0.5812
  194DG     H23 4462   4.176   3.026   0.421 -0.2303 -1.2830  0.6862
  195DG      C1 4463   2.472   3.918   5.387  0.3628 -0.0129 -0.4288
  195DG      C2 4464   2.575   3.390   5.236 -0.0391  0.7607 -0.0614
  195DG      H3 4465   2.493   4.024   5.368  0.3957 -0.2223 -1.5952
  195DG      H4 4466   2.540   3.889   5.468 -0.5305  2.3089  1.2725
  195DG      H5 4467   2.371   3.908   5.428  0.8985 -1.1323  0.6830
  195DG      H6 4468   2.611   3.455   5.156  2.1631  0.4354  0.5916
  195DG      H7 4469   2.628   3.397   5.331 -1.0899 -2.1432  0.8573
  195DG      H8 4470   2.607   3.289   5.208  1.4895  1.6756 -1.8458
  195DG      O9 4471   2.488   3.830   5.279  0.1351  0.2871  0.6712
  195DG     O10 4472   2.437   3.403   5.273 -0.4770 -0.0574  0.0019
  195DG     C11 4473   2.412   3.857   5.162  0.3435  0.1310 -0.5902
  195DG     C12 4474   2.333   3.394   5.183  0.0258  0.0070  0.4875
  195DG     H13 4475   2.473   3.928   5.107  0.7674  0.1743 -0.0738
  195DG     H14 4476   2.321   3.913   5.187 -0.1970 -0.4028 -1.3171
  195DG     H15 4477   2.239   3.400   5.238 -0.1773  0.8830  0.0518
  195DG     H16 4478   2.334   3.301   5.125  1.4771 -1.5860  2.8608
  195DG     C17 4479   2.380   3.742   5.071 -0.3140 -0.0881  0.4719
  195DG     C18 4480   2.331   3.512   5.083 -0.3711 -0.2456  0.7883
  195DG     O19 4481   2.369   3.625   5.155  0.6428 -0.3118  0.2608
  195DG     H20 4482   2.461   3.737   4.998 -1.3323 -0.9501 -0.6412
  195DG     H21 4483   2.291   3.765   5.013  0.6843 -0.5938 -1.3703
  195DG     H22 4484   2.394   3.501   4.994 -0.1640  0.9084  0.7814
  195DG     H23 4485   2.228   3.532   5.050 -0.9131 -2.5862  0.8886
  196DG      C1 4486   2.810   3.287   2.612  0.0612  0.2009  0.3772
  196DG      C2 4487   2.311   3.587   2.958 -0.0724 -0.0659  0.1601
  196DG      H3 4488   2.794   3.303   2.505 -1.1486  0.9291  0.6463
  196DG      H4 4489   2.749   3.203   2.645 -1.3492  1.1279  0.2258
  196DG      H5 4490   2.916   3.285   2.638  0.3132  2.1896 -0.2893
  196DG      H6 4491   2.269   3.501   2.906  2.7118 -2.0366  0.9656
  196DG      H7 4492   2.294   3.569   3.064 -0.1073  0.9372  0.3408
  196DG      H8 4493   2.262   3.678   2.921 -0.0813 -0.2310 -0.2338
  196DG      O9 4494   2.754   3.401   2.664  0.1274 -0.7781  0.1187
  196DG     O10 4495   2.450   3.582   2.931  0.3296  0.3869 -0.4663
  196DG     C11 4496   2.844   3.504   2.689 -0.3237 -0.3449  0.1863
  196DG     C12 4497   2.539   3.638   3.022 -0.0951  0.8274  0.5610
  196DG     H13 4498   2.901   3.515   2.596 -1.6587  1.0363 -0.5043
  196DG     H14 4499   2.921   3.465   2.756 -1.3836 -0.6426  1.2721
  196DG     H15 4500   2.578   3.572   3.100  3.0837  1.4304 -0.3817
  196DG     H16 4501   2.499   3.727   3.068  1.9111  1.6464  0.8257
  196DG     C17 4502   2.786   3.631   2.758  0.1680 -0.2882 -0.1989
  196DG     C18 4503   2.653   3.697   2.940 -0.0450  0.4577  0.3088
  196DG     O19 4504   2.700   3.591   2.867 -0.2528  0.0010 -0.1937
  196DG     H20 4505   2.744   3.696   2.682  0.5085  1.1974  0.8389
  196DG     H21 4506   2.870   3.691   2.792 -0.6957  0.5925  0.4487
  196DG     H22 4507   2.608   3.775   2.879  0.4279  0.1702 -0.4123
  196DG     H23 4508   2.727   3.741   3.008 -1.3463 -0.6634  2.5801
  197DG      C1 4509   1.073   5.418   1.317  0.0999  0.3093  0.2297
  197DG      C2 4510   0.638   5.230   0.768  0.3962  0.4191 -0.3869
  197DG      H3 4511   1.161   5.424   1.252  0.0347  1.6495  0.2459
  197DG      H4 4512   1.112   5.390   1.415 -0.5346 -0.9416  0.1379
  197DG      H5 4513   1.013   5.506   1.341 -0.5028 -0.3042  1.0405
  197DG      H6 4514   0.602   5.157   0.695  1.2906 -0.7563  0.3208
  197DG      H7 4515   0.551   5.265   0.824  0.4095  0.2195 -0.2400
  197DG      H8 4516   0.688   5.312   0.717 -0.8761  0.9165 -0.8716
  197DG      O9 4517   0.991   5.312   1.260 -0.0382  0.0436  0.1962
  197DG     O10 4518   0.737   5.169   0.851 -0.5885 -0.0791  0.2062
  197DG     C11 4519   1.067   5.202   1.217  0.4532 -0.5679 -0.0349
  197DG     C12 4520   0.682   5.073   0.950 -0.3899 -1.0935  0.1725
  197DG     H13 4521   1.143   5.184   1.292  1.6027 -1.3960 -1.3469
  197DG     H14 4522   1.116   5.216   1.121  0.8375 -0.4264  0.1820
  197DG     H15 4523   0.621   4.994   0.907  0.1218 -1.1727 -0.4256
  197DG     H16 4524   0.612   5.132   1.009 -2.5617 -1.8685 -1.4746
  197DG     C17 4525   0.962   5.092   1.199  0.0861 -0.2392 -0.3066
  197DG     C18 4526   0.789   5.024   1.056 -0.4428 -0.9164 -0.3481
  197DG     O19 4527   0.880   5.129   1.093 -0.6624  0.2243 -0.0074
  197DG     H20 4528   0.893   5.089   1.284  0.1187 -3.3247 -0.2895
  197DG     H21 4529   1.007   4.994   1.189  3.8603  1.3704 -0.9089
  197DG     H22 4530   0.733   4.981   1.139 -1.4221  1.4059  0.2536
  197DG     H23 4531   0.853   4.943   1.020  3.1726  1.3120  0.5209
  198DG      C1 4532   0.265   0.332   4.812 -0.1591  0.3578 -0.1013
  198DG      C2 4533   0.280   0.250   4.059 -0.1102  0.0811 -0.3441
  198DG      H3 4534   0.340   0.308   4.886 -0.8430  0.1100  0.5264
  198DG      H4 4535   0.183   0.260   4.817  0.2220 -0.0186  0.6998
  198DG      H5 4536   0.213   0.424   4.840 -0.3103  0.5730 -1.0318
  198DG      H6 4537   0.358   0.178   4.085  2.1219  2.3204 -0.3866
  198DG      H7 4538   0.182   0.203   4.065 -0.7003  1.3339  0.2285
  198DG      H8 4539   0.281   0.302   3.963 -0.8221 -0.5814 -0.7165
  198DG      O9 4540   0.310   0.325   4.676  0.5839 -0.9658 -0.2176
  198DG     O10 4541   0.285   0.345   4.158  0.1941  0.1588  0.5539
  198DG     C11 4542   0.438   0.390   4.654 -0.1950  0.2817 -0.0276
  198DG     C12 4543   0.416   0.397   4.167 -0.2958 -1.0908 -0.0120
  198DG     H13 4544   0.513   0.314   4.635  0.0942  0.3136  0.9399
  198DG     H14 4545   0.472   0.440   4.745  2.0100 -2.1307  0.5764
  198DG     H15 4546   0.436   0.461   4.081 -0.5598 -1.9223 -0.6943
  198DG     H16 4547   0.483   0.312   4.169  0.5310 -0.4649 -0.3882
  198DG     C17 4548   0.437   0.482   4.532 -0.2583  1.1470 -0.1207
  198DG     C18 4549   0.425   0.491   4.294  0.2099  0.2284  0.1125
  198DG     O19 4550   0.421   0.407   4.412  0.5953  1.1195 -0.4117
  198DG     H20 4551   0.519   0.553   4.525  0.8775  0.1325  2.1024
  198DG     H21 4552   0.346   0.539   4.553  0.5938  2.0062  1.4228
  198DG     H22 4553   0.521   0.543   4.289  0.1136  0.3137 -1.1162
  198DG     H23 4554   0.337   0.555   4.293 -1.1893 -1.6119 -1.7735
  199DG      C1 4555   0.643   3.205   3.873 -0.5104  0.0256  0.4485
  199DG      C2 4556   1.141   2.817   4.098  0.1884 -0.5834 -0.2882
  199DG      H3 4557   0.545   3.251   3.882  0.2567  1.3596  2.8926
  199DG      H4 4558   0.647   3.131   3.793  2.4223 -0.6544  1.1118
  199DG      H5 4559   0.718   3.283   3.857 -0.3690 -0.3530 -0.8990
  199DG      H6 4560   1.107   2.764   4.009 -1.0554  1.2644 -0.9809
  199DG      H7 4561   1.193   2.908   4.070 -0.7419 -0.2997 -1.1391
  199DG      H8 4562   1.210   2.754   4.155 -0.4195 -1.7588 -0.8007
  199DG      O9 4563   0.674   3.135   3.992  0.5067 -0.0445 -0.3647
  199DG     O10 4564   1.013   2.851   4.164 -0.0711 -0.0713  0.4522
  199DG     C11 4565   0.657   3.209   4.110  0.3277 -0.7332 -0.8536
  199DG     C12 4566   1.038   2.951   4.264  0.7581  0.9676  0.2075
  199DG     H13 4567   0.552   3.227   4.132  0.4175  1.4544 -1.9645
  199DG     H14 4568   0.710   3.304   4.101 -2.3545  0.7179 -2.5858
  199DG     H15 4569   1.109   3.027   4.232  0.6806  0.7319 -0.5476
  199DG     H16 4570   1.083   2.891   4.343  1.4319  0.6644 -0.3985
  199DG     C17 4571   0.714   3.121   4.231  0.0376  0.6546  0.6602
  199DG     C18 4572   0.900   2.999   4.303 -0.3373  0.4571  0.3184
  199DG     O19 4573   0.843   3.066   4.195  0.1363 -0.2791  0.1661
  199DG     H20 4574   0.645   3.038   4.221  1.4775 -0.3978 -1.1860
  199DG     H21 4575   0.713   3.168   4.330 -1.4849  0.1932  0.8878
  199DG     H22 4576   0.840   2.920   4.348  0.0403  1.0046  1.8488
  199DG     H23 4577   0.922   3.069   4.383  1.5265 -0.3557  0.5623
  200DG      C1 4578   1.443   2.192   5.503  0.3402  0.1214 -0.0101
  200DG      C2 4579   1.874   2.766   5.594  0.3734  0.4998  0.2178
  200DG      H3 4580   1.399   2.108   5.556  0.2467  1.2520  1.7786
  200DG      H4 4581   1.440   2.162   5.398  1.3616  0.5455 -0.1721
  200DG      H5 4582   1.375   2.277   5.505 -0.6570 -0.6518 -0.2343
  200DG      H6 4583   1.784   2.812   5.634 -0.4204  0.4818 -1.4970
  200DG      H7 4584   1.963   2.815   5.634  0.4737 -0.2145  0.9087
  200DG      H8 4585   1.873   2.790   5.488  1.9416  2.3201  0.5596
  200DG      O9 4586   1.567   2.230   5.550 -0.3701  0.2158 -0.4971
  200DG     O10 4587   1.890   2.622   5.615 -0.2082 -0.5158 -0.2783
  200DG     C11 4588   1.590   2.214   5.693  0.1241  0.0418  0.3153
  200DG     C12 4589   1.873   2.586   5.754  0.2668  0.2818  0.7532
  200DG     H13 4590   1.571   2.111   5.722  1.9238 -0.5128 -0.3237
  200DG     H14 4591   1.520   2.284   5.739 -2.4054 -1.9830 -0.2640
  200DG     H15 4592   1.776   2.627   5.781 -0.1696  0.6575 -1.2565
  200DG     H16 4593   1.950   2.633   5.816  0.9552 -1.0209  0.9086
  200DG     C17 4594   1.734   2.246   5.741 -0.3603  0.6058 -0.0660
  200DG     C18 4595   1.878   2.429   5.769  0.1801 -0.1196 -0.8297
  200DG     O19 4596   1.761   2.379   5.715 -0.2758  0.4950 -0.2666
  200DG     H20 4597   1.807   2.178   5.696 -0.6991 -0.7129  1.3178
  200DG     H21 4598   1.748   2.218   5.845  2.1679 -0.4187 -0.5864
  200DG     H22 4599   1.965   2.396   5.713  2.4827  0.2777  2.2645
  200DG     H23 4600   1.893   2.391   5.870 -1.2079  0.4662 -0.3789
  201DG      C1 4601   1.537   2.084   2.335 -0.5160 -0.5553  0.3190
  201DG      C2 4602   1.829   2.058   2.108 -0.0717  0.2849 -0.1911
  201DG      H3 4603   1.569   2.118   2.236  0.8930 -0.4440  0.7864
  201DG      H4 4604   1.457   2.149   2.372 -0.7455 -1.1855  0.9622
  201DG      H5 4605   1.486   1.990   2.316  0.3140 -0.9375 -0.0627
  201DG      H6 4606   1.746   1.993   2.135  0.7640 -0.7967 -0.1593
  201DG      H7 4607   1.799   2.157   2.145  0.7009 -0.0991  1.5511
  201DG      H8 4608   1.833   2.047   2.000 -0.3252 -1.5435 -0.0338
  201DG      O9 4609   1.642   2.062   2.421  0.1548 -0.1009  0.3962
  201DG     O10 4610   1.938   2.001   2.178  0.4431  0.1114 -0.0098
  201DG     C11 4611   1.692   2.178   2.475  0.3013 -1.4093 -0.3743
  201DG     C12 4612   2.036   2.091   2.227  0.7875 -0.6996  0.2933
  201DG     H13 4613   1.643   2.210   2.567  2.7763 -0.4155  0.6934
  201DG     H14 4614   1.683   2.256   2.400  1.6868 -2.3562 -1.5885
  201DG     H15 4615   2.080   2.159   2.154  0.8192 -0.5525  0.4468
  201DG     H16 4616   2.114   2.024   2.263  1.0672 -2.5323 -3.3346
  201DG     C17 4617   1.838   2.152   2.527 -0.1903  0.8755  0.3868
  201DG     C18 4618   1.979   2.181   2.343  0.0297  0.1193 -0.3531
  201DG     O19 4619   1.912   2.083   2.427  0.2690  0.3108  0.3214
  201DG     H20 4620   1.837   2.083   2.611  0.9810  1.6093  1.0337
  201DG     H21 4621   1.897   2.230   2.576  0.5445 -0.5560  1.8578
  201DG     H22 4622   2.060   2.225   2.401 -1.6801  1.5087  1.1014
  201DG     H23 4623   1.910   2.255   2.301  0.5785 -0.7256 -2.9192
  202DG      C1 4624   4.851   3.451   1.985 -0.0247 -0.5739 -0.4673
  202DG      C2 4625   4.382   3.618   1.435 -0.3454 -0.4145  0.6465
  202DG      H3 4626   4.869   3.558   1.998 -2.5656  0.0404 -1.3792
  202DG      H4 4627   4.938   3.392   2.012 -0.8041 -0.6587  2.1809
  202DG      H5 4628   4.778   3.415   2.058 -1.3720  0.4860 -1.2262
  202DG      H6 4629   4.283   3.587   1.469 -1.0140 -1.4284 -1.9975
  202DG      H7 4630   4.400   3.714   1.483 -2.5678 -0.9904  2.8412
  202DG      H8 4631   4.385   3.643   1.329 -1.8637 -2.2837  0.0991
  202DG      O9 4632   4.813   3.436   1.850 -0.3287  0.0301 -0.5742
  202DG     O10 4633   4.495   3.539   1.470 -0.5251 -0.4574  0.0832
  202DG     C11 4634   4.764   3.304   1.826  0.4834  0.1374 -0.0785
  202DG     C12 4635   4.501   3.411   1.419 -0.1608 -0.0209 -0.5220
  202DG     H13 4636   4.667   3.297   1.876  1.0496 -0.8124  0.9313
  202DG     H14 4637   4.833   3.237   1.877  0.5037 -0.1990 -0.5429
  202DG     H15 4638   4.526   3.431   1.314  1.1188  2.8852  0.2150
  202DG     H16 4639   4.408   3.358   1.438  0.8341 -0.9263  2.3224
  202DG     C17 4640   4.738   3.280   1.673 -0.2712  0.0236  0.1196
  202DG     C18 4641   4.627   3.335   1.471  0.3853 -0.6501  0.1312
  202DG     O19 4642   4.654   3.363   1.608 -0.3809 -0.5691 -0.1458
  202DG     H20 4643   4.708   3.175   1.668  0.6077 -0.4601  2.8650
  202DG     H21 4644   4.833   3.287   1.620 -0.2491  0.1418  0.1752
  202DG     H22 4645   4.603   3.230   1.457 -0.3947 -0.3199 -1.1857
  202DG     H23 4646   4.714   3.353   1.408 -0.6082  0.3053 -1.0237
  203DG      C1 4647   3.625   5.190   0.913  0.3602  0.6164  0.3548
  203DG      C2 4648   4.159   4.985   1.510 -0.4092  0.7455 -0.3205
  203DG      H3 4649   3.675   5.283   0.885  0.4113  0.0409 -1.6699
  203DG      H4 4650   3.540   5.217   0.975  1.3619 -0.5209  2.3278
  203DG      H5 4651   3.595   5.148   0.817 -1.7112  1.0317  0.7668
  203DG      H6 4652   4.189   4.911   1.583 -0.2262  1.6962  0.5880
  203DG      H7 4653   4.255   5.023   1.475  0.6534 -0.8711  0.7354
  203DG      H8 4654   4.117   5.067   1.569 -0.1845 -0.2032  1.2078
  203DG      O9 4655   3.709   5.092   0.986  0.3694  0.0585 -0.3541
  203DG     O10 4656   4.081   4.933   1.412 -0.3978 -0.1893  0.1331
  203DG     C11 4657   3.810   5.045   0.899  0.5940 -0.0666 -0.5457
  203DG     C12 4658   4.065   5.024   1.301  0.3302  0.4453 -0.1378
  203DG     H13 4659   3.866   5.124   0.849  0.1135  0.1540 -0.7510
  203DG     H14 4660   3.771   4.989   0.813  1.6860  0.4936 -1.4327
  203DG     H15 4661   4.160   5.070   1.276  0.7852  0.0469  0.8051
  203DG     H16 4662   3.997   5.107   1.321 -1.5401 -0.7871 -1.0822
  203DG     C17 4663   3.911   4.956   0.978  0.1942  0.3154  0.6715
  203DG     C18 4664   4.012   4.939   1.180 -0.6790  0.1519 -0.1747
  203DG     O19 4665   3.968   5.028   1.082  0.0257  0.4777 -0.2736
  203DG     H20 4666   3.994   4.919   0.918 -2.3736 -0.8447 -2.4590
  203DG     H21 4667   3.848   4.870   1.003 -3.4836  2.1834 -1.3854
  203DG     H22 4668   4.091   4.875   1.139 -1.2118 -0.2360 -0.6039
  203DG     H23 4669   3.934   4.871   1.214 -1.4413  0.1795 -1.7924
  204DG      C1 4670   4.274   3.836   4.189  0.2011  0.2161  0.2167
  204DG      C2 4671   4.809   4.128   4.678 -0.6572 -0.9503 -1.0379
  204DG      H3 4672   4.207   3.922   4.192  0.6930  0.6536 -0.8632
  204DG      H4 4673   4.232   3.752   4.245 -0.8233 -1.1342 -2.3926
  204DG      H5 4674   4.270   3.808   4.084 -1.7040  2.7810 -0.4973
  204DG      H6 4675   4.839   4.054   4.752  0.6254  1.4457  1.0168
  204DG      H7 4676   4.803   4.079   4.581  0.9495  0.1214 -1.7257
  204DG      H8 4677   4.885   4.206   4.683  1.0855 -2.6359  0.6719
  204DG      O9 4678   4.410   3.860   4.232 -0.2837  0.1712  0.0285
  204DG     O10 4679   4.679   4.170   4.723  0.1469 -0.3264 -0.0485
  204DG     C11 4680   4.425   3.904   4.362  0.7731 -0.5951  0.1053
  204DG     C12 4681   4.611   4.265   4.642  0.1458  0.2168 -0.2169
  204DG     H13 4682   4.465   3.823   4.423  3.0455  0.3159 -0.0834
  204DG     H14 4683   4.330   3.933   4.406  0.7594 -0.1072 -0.2384
  204DG     H15 4684   4.663   4.360   4.651 -2.6870  1.7107  2.2153
  204DG     H16 4685   4.515   4.281   4.692 -0.1294  1.5479 -1.1025
  204DG     C17 4686   4.517   4.028   4.366  1.0055 -0.4797 -0.7003
  204DG     C18 4687   4.571   4.214   4.500 -0.2121 -0.6625 -0.7381
  204DG     O19 4688   4.520   4.078   4.500 -0.2743 -0.1316  0.3681
  204DG     H20 4689   4.469   4.106   4.308 -0.5557  2.8079  4.3376
  204DG     H21 4690   4.618   4.019   4.325  0.9263  1.2617 -1.3241
  204DG     H22 4691   4.501   4.283   4.453 -0.1301  0.1076  0.2248
  204DG     H23 4692   4.657   4.221   4.434 -0.6514  2.5739 -1.1432
  205DG      C1 4693   0.674   2.613   0.612 -0.0080 -0.2810  0.4145
  205DG      C2 4694   1.062   2.991   0.988 -0.8989  0.1075 -0.1926
  205DG      H3 4695   0.588   2.555   0.580 -0.0306 -0.4235  0.7285
  205DG      H4 4696   0.752   2.539   0.633  3.3677  2.2468 -2.0355
  205DG      H5 4697   0.709   2.674   0.529  1.1128 -0.5218  0.6849
  205DG      H6 4698   1.073   3.047   0.896  0.6593 -0.7734 -0.5696
  205DG      H7 4699   1.110   3.040   1.073  0.3678  1.8605 -1.8419
  205DG      H8 4700   1.108   2.893   0.977  1.0674  0.8740  0.6101
  205DG      O9 4701   0.637   2.702   0.715 -0.2515  0.6862 -0.3730
  205DG     O10 4702   0.919   2.979   0.999  0.0687  0.8350  0.2763
  205DG     C11 4703   0.578   2.627   0.821  0.6372 -0.1093 -0.3694
  205DG     C12 4704   0.869   2.905   1.106  0.1917  0.2955 -0.1053
  205DG     H13 4705   0.634   2.537   0.848  1.7533  0.7430  0.2316
  205DG     H14 4706   0.475   2.608   0.789 -0.2554  1.3609  1.3898
  205DG     H15 4707   0.873   2.961   1.199  0.5897  0.9716 -0.5198
  205DG     H16 4708   0.928   2.814   1.122 -1.2024 -0.1889  2.9001
  205DG     C17 4709   0.577   2.728   0.938  0.4049  0.3951  0.4392
  205DG     C18 4710   0.721   2.850   1.082 -0.3010 -0.0752 -0.1029
  205DG     O19 4711   0.708   2.779   0.956 -0.2097  0.4713 -0.2088
  205DG     H20 4712   0.538   2.685   1.030  0.6672 -1.1328 -0.1396
  205DG     H21 4713   0.510   2.812   0.920  0.7352  0.7616  0.8702
  205DG     H22 4714   0.689   2.791   1.168  0.3267 -0.7565 -0.3342
  205DG     H23 4715   0.662   2.942   1.083  1.1944  0.9093  0.3334
  206DG      C1 4716   4.202   1.540   0.218  0.4775  0.5994  0.1157
  206DG      C2 4717   4.757   1.455  -0.127  0.7492  0.2484 -0.3159
  206DG      H3 4718   4.107   1.507   0.260 -0.1303  0.3907 -1.3492
  206DG      H4 4719   4.182   1.635   0.167 -0.1866  0.3591 -0.0931
  206DG      H5 4720   4.273   1.534   0.300  1.3174  0.5258 -0.6004
  206DG      H6 4721   4.758   1.523  -0.212  1.8117  1.1083  0.3558
  206DG      H7 4722   4.792   1.514  -0.042  0.6792 -1.4907  0.9736
  206DG      H8 4723   4.827   1.373  -0.147  0.8091 -0.0789  1.1544
  206DG      O9 4724   4.247   1.440   0.130  0.3927 -0.3046 -0.3769
  206DG     O10 4725   4.631   1.393  -0.108  0.2363 -0.6526  0.0197
  206DG     C11 4726   4.166   1.410   0.021 -0.5544 -0.6949 -0.3038
  206DG     C12 4727   4.584   1.325  -0.216 -0.2825 -0.2775  0.1894
  206DG     H13 4728   4.139   1.496  -0.040  0.7112  0.4709  0.7048
  206DG     H14 4729   4.073   1.364   0.055 -0.2273 -1.0269  0.1635
  206DG     H15 4730   4.631   1.227  -0.226 -0.6854 -0.3872 -0.7981
  206DG     H16 4731   4.602   1.380  -0.309 -1.0479  0.9463  0.7349
  206DG     C17 4732   4.240   1.321  -0.077 -0.0541 -0.8589 -0.7358
  206DG     C18 4733   4.441   1.282  -0.203  0.1159 -0.7954  0.2082
  206DG     O19 4734   4.371   1.371  -0.114 -0.1908 -0.2097 -0.2365
  206DG     H20 4735   4.185   1.302  -0.169 -0.4373 -0.1821 -0.6455
  206DG     H21 4736   4.259   1.222  -0.034  2.0134  0.9159  2.9550
  206DG     H22 4737   4.389   1.292  -0.299  2.4432  1.5817 -0.9391
  206DG     H23 4738   4.435   1.181  -0.163  1.8829 -1.7141 -1.6445
  207DG      C1 4739   1.092   5.392   0.630  0.5060  0.0657 -0.0268
  207DG      C2 4740   0.845   4.811   0.409 -0.6257 -0.6926  0.5277
  207DG      H3 4741   1.107   5.421   0.526 -0.7313  1.2958  0.1051
  207DG      H4 4742   1.154   5.453   0.694  0.3530  1.9741 -1.6010
  207DG      H5 4743   0.990   5.422   0.655  0.2681 -0.7013 -0.0345
  207DG      H6 4744   0.841   4.706   0.437  2.1266 -1.2519 -0.8096
  207DG      H7 4745   0.751   4.862   0.392  0.2021  1.9127  2.9903
  207DG      H8 4746   0.900   4.804   0.314  1.9586  0.4421  1.8342
  207DG      O9 4747   1.113   5.256   0.661  0.4422 -0.1309  0.1532
  207DG     O10 4748   0.931   4.886   0.501  0.1167  0.3328 -0.3234
  207DG     C11 4749   1.084   5.219   0.795  0.2346 -0.0003 -0.1244
  207DG     C12 4750   1.033   4.808   0.563 -0.2430 -0.8752  0.7935
  207DG     H13 4751   0.977   5.235   0.810  0.3852  0.3102  0.7050
  207DG     H14 4752   1.119   5.288   0.872 -0.5652  0.4217 -0.1184
  207DG     H15 4753   1.100   4.759   0.493 -0.2140  1.5278 -0.9548
  207DG     H16 4754   0.986   4.727   0.619  0.7097 -2.1952 -0.2497
  207DG     C17 4755   1.138   5.075   0.800  0.6478 -0.0849  0.1916
  207DG     C18 4756   1.124   4.897   0.652 -0.0866  0.6889 -0.4447
  207DG     O19 4757   1.053   4.998   0.720 -0.0203 -0.0347 -0.2110
  207DG     H20 4758   1.141   5.047   0.905  1.4085  1.4916  0.6180
  207DG     H21 4759   1.241   5.079   0.764  1.6395 -1.9061  2.6011
  207DG     H22 4760   1.187   4.844   0.724 -1.9368 -0.4271  0.4232
  207DG     H23 4761   1.199   4.950   0.594  1.5888 -3.0348 -1.9912
  208DG      C1 4762   4.978   3.579   0.983  0.1613 -0.2910  0.0617
  208DG      C2 4763   5.111   3.684   0.373 -0.3755 -1.1332 -0.1320
  208DG      H3 4764   4.999   3.581   1.090 -0.0694  1.5362  0.1079
  208DG      H4 4765   4.970   3.472   0.962  0.6464 -0.4921  0.8714
  208DG      H5 4766   4.890   3.639   0.958  0.0767 -0.1082  0.7975
  208DG      H6 4767   5.046   3.597   0.383 -1.4410 -0.4615 -0.9986
  208DG      H7 4768   5.041   3.766   0.356 -1.2749 -2.2002 -1.9824
  208DG      H8 4769   5.175   3.667   0.286 -0.5001 -0.6880 -0.3112
  208DG      O9 4770   5.080   3.636   0.913 -0.1228  0.0084  0.0053
  208DG     O10 4771   5.174   3.702   0.504  0.3859  0.2218  0.5841
  208DG     C11 4772   5.117   3.773   0.932 -0.1863  0.2671  0.4288
  208DG     C12 4773   5.252   3.822   0.511  0.8531  0.7033 -0.1944
  208DG     H13 4774   5.114   3.793   1.039  1.1929  0.4207  0.4573
  208DG     H14 4775   5.041   3.838   0.889 -2.3908 -1.3962  1.5993
  208DG     H15 4776   5.172   3.895   0.518  0.0967  0.0065 -1.2132
  208DG     H16 4777   5.318   3.842   0.427  0.4797 -0.9735 -0.9376
  208DG     C17 4778   5.253   3.816   0.875  0.3667 -0.4611 -0.7908
  208DG     C18 4779   5.338   3.819   0.641 -0.1745 -0.4462  0.8267
  208DG     O19 4780   5.252   3.764   0.738  0.0241  0.5677 -0.3691
  208DG     H20 4781   5.335   3.782   0.939  0.7651 -0.7194 -1.4261
  208DG     H21 4782   5.262   3.925   0.878  1.6833 -0.5729 -0.0860
  208DG     H22 4783   5.431   3.769   0.616  0.2663  0.3999  0.7263
  208DG     H23 4784   5.362   3.923   0.663  0.2690 -0.6907  1.5230
  209DG      C1 4785   3.333   0.725   4.432  0.2533  0.5464  0.2602
  209DG      C2 4786   2.876   1.132   4.162 -0.0470  0.0756 -0.3389
  209DG      H3 4787   3.429   0.693   4.472  0.6952 -1.8310 -2.3928
  209DG      H4 4788   3.311   0.650   4.356  1.2962 -0.4406  0.9039
  209DG      H5 4789   3.253   0.710   4.505 -0.8628 -1.5797 -1.2956
  209DG      H6 4790   2.831   1.091   4.253  2.4963 -0.5529  0.7169
  209DG      H7 4791   2.840   1.234   4.155 -0.2076 -0.0035 -0.7049
  209DG      H8 4792   2.826   1.080   4.080 -0.1871 -2.0505  1.0034
  209DG      O9 4793   3.321   0.854   4.384 -0.3812  0.2810  0.1385
  209DG     O10 4794   3.015   1.111   4.181  0.4664  0.5542  0.0388
  209DG     C11 4795   3.423   0.868   4.282 -0.1566  0.0537  0.0786
  209DG     C12 4796   3.103   1.154   4.076 -0.0319  0.3033 -0.6741
  209DG     H13 4797   3.406   0.794   4.205  0.0940  0.4563 -0.3677
  209DG     H14 4798   3.523   0.850   4.324 -1.4184 -2.0309  2.4781
  209DG     H15 4799   3.069   1.253   4.046 -1.0342 -0.1440 -1.0460
  209DG     H16 4800   3.078   1.096   3.987 -1.4355  1.2732 -0.9420
  209DG     C17 4801   3.408   1.012   4.229 -0.7745  0.2379  0.7398
  209DG     C18 4802   3.248   1.141   4.121 -0.5528  0.0853 -0.0132
  209DG     O19 4803   3.272   1.018   4.187  0.2322  0.6473 -0.1103
  209DG     H20 4804   3.474   1.025   4.144 -1.5543  2.6319  0.4369
  209DG     H21 4805   3.420   1.088   4.307 -2.3873 -0.8943  2.1786
  209DG     H22 4806   3.306   1.146   4.029  3.8816  0.3754  2.5289
  209DG     H23 4807   3.263   1.236   4.173  1.4927  0.2484 -0.8108
  210DG      C1 4808   1.694   3.519   1.416 -0.4296  0.0314 -0.4577
  210DG      C2 4809   1.580   3.674   2.235 -0.2064 -1.1555  0.0790
  210DG      H3 4810   1.597   3.541   1.371 -0.3798  0.3972 -0.3933
  210DG      H4 4811   1.703   3.423   1.465  2.6941 -0.2985 -1.4233
  210DG      H5 4812   1.773   3.519   1.340 -1.0516 -2.3669 -1.1617
  210DG      H6 4813   1.484   3.626   2.220 -1.2454  0.9831 -0.5313
  210DG      H7 4814   1.654   3.601   2.267 -1.1428 -1.5832  1.3401
  210DG      H8 4815   1.563   3.754   2.308  1.5059  0.5820 -1.3298
  210DG      O9 4816   1.694   3.614   1.512 -0.0335 -0.1578  0.8611
  210DG     O10 4817   1.628   3.742   2.117  0.2798  0.2197 -0.3210
  210DG     C11 4818   1.824   3.652   1.556  0.2181 -0.8417  0.3331
  210DG     C12 4819   1.654   3.663   2.012 -0.2682  0.3539 -0.2937
  210DG     H13 4820   1.869   3.704   1.471  2.3751 -1.2491  1.1494
  210DG     H14 4821   1.887   3.564   1.570 -2.0960 -2.3063  2.2290
  210DG     H15 4822   1.558   3.629   1.973 -0.0661 -2.1295  1.1903
  210DG     H16 4823   1.714   3.577   2.038  2.5364  2.4043  0.5162
  210DG     C17 4824   1.820   3.740   1.684 -0.4411  0.0143 -0.7515
  210DG     C18 4825   1.723   3.748   1.900  0.5412  0.7280 -0.4671
  210DG     O19 4826   1.747   3.671   1.782 -0.4198 -0.1262  0.2604
  210DG     H20 4827   1.771   3.837   1.673 -1.5422 -0.3854  0.4493
  210DG     H21 4828   1.917   3.774   1.720 -0.8792  1.2283 -0.6767
  210DG     H22 4829   1.661   3.836   1.884  1.4786  2.7265  4.8418
  210DG     H23 4830   1.814   3.793   1.939 -1.3493  3.8514  0.7069
  211DG      C1 4831   2.557   5.217   1.372  0.6487 -0.0916 -0.4242
  211DG      C2 4832   3.138   5.358   1.395  0.1870 -0.2567 -0.4968
  211DG      H3 4833   2.490   5.229   1.287  0.2226  1.8862  0.1577
  211DG      H4 4834   2.560   5.307   1.433 -2.7413 -0.2060  0.1055
  211DG      H5 4835   2.530   5.139   1.444 -0.6580  2.5996  2.2083
  211DG      H6 4836   3.133   5.467   1.396  1.4463 -0.1750 -1.1301
  211DG      H7 4837   3.108   5.326   1.495  0.9196  3.3558  1.0266
  211DG      H8 4838   3.245   5.339   1.392 -0.1090 -2.5287  0.7523
  211DG      O9 4839   2.681   5.189   1.313 -0.0508  0.3890  0.0652
  211DG     O10 4840   3.071   5.304   1.285  0.4477  0.3397  0.5455
  211DG     C11 4841   2.678   5.068   1.242  0.9233 -0.4578 -0.0586
  211DG     C12 4842   3.099   5.168   1.267 -0.6680 -0.3371 -0.7625
  211DG     H13 4843   2.636   5.074   1.141  0.9306  2.3511  0.0152
  211DG     H14 4844   2.631   4.989   1.301  2.6795 -0.4014  1.4876
  211DG     H15 4845   3.071   5.107   1.352  1.4623 -3.9991 -2.4544
  211DG     H16 4846   3.207   5.160   1.259 -0.4581 -2.2711  2.5275
  211DG     C17 4847   2.818   5.027   1.222  0.0658  0.3119 -0.0662
  211DG     C18 4848   3.031   5.121   1.146 -0.7047  0.1069 -0.1991
  211DG     O19 4849   2.891   5.139   1.163  0.1888  0.1732 -0.0752
  211DG     H20 4850   2.833   4.938   1.161  0.3245 -0.7869  1.5528
  211DG     H21 4851   2.865   4.998   1.315  0.2508 -1.2988 -0.6200
  211DG     H22 4852   3.062   5.187   1.065 -1.0938  1.0177  0.3811
  211DG     H23 4853   3.059   5.022   1.109 -3.0246 -1.5221  2.0191
  212DG      C1 4854   3.009   0.237   3.912 -0.1279 -0.0635 -0.2016
  212DG      C2 4855   3.176   0.365   4.509  0.1637  0.4471 -0.3773
  212DG      H3 4856   3.027   0.138   3.871  0.9276 -0.0281  0.1415
  212DG      H4 4857   3.094   0.298   3.880 -1.2747  1.5359 -0.2769
  212DG      H5 4858   2.912   0.275   3.881 -2.2561 -3.5019  1.7200
  212DG      H6 4859   3.218   0.442   4.445  0.3607  0.6214 -0.0435
  212DG      H7 4860   3.083   0.401   4.553 -0.2433 -1.6228  0.5787
  212DG      H8 4861   3.249   0.354   4.589  0.3061  0.3813 -0.5155
  212DG      O9 4862   3.014   0.225   4.051  0.2385 -0.3694 -0.2360
  212DG     O10 4863   3.153   0.248   4.427  0.1003 -0.7295  0.3949
  212DG     C11 4864   2.898   0.160   4.101  0.3183  0.3140 -0.6553
  212DG     C12 4865   3.077   0.148   4.507 -0.5871 -1.1186  0.4019
  212DG     H13 4866   2.887   0.063   4.053  0.3712  0.9317 -1.9581
  212DG     H14 4867   2.809   0.218   4.075  0.4472 -0.4741 -3.0557
  212DG     H15 4868   2.986   0.191   4.551 -0.7781  1.6316 -2.3694
  212DG     H16 4869   3.134   0.115   4.594  1.6265  0.2967 -0.4411
  212DG     C17 4870   2.913   0.145   4.256 -0.2784  0.1061  0.0186
  212DG     C18 4871   3.034   0.032   4.424 -0.1213  0.1551  0.0616
  212DG     O19 4872   3.020   0.064   4.287 -0.2402 -0.5773 -0.1131
  212DG     H20 4873   2.828   0.090   4.296 -1.3032 -1.1508 -3.4617
  212DG     H21 4874   2.908   0.243   4.303  0.8888 -0.2555  0.9447
  212DG     H22 4875   3.107  -0.049   4.431 -0.6232 -0.3218 -0.1468
  212DG     H23 4876   2.939  -0.005   4.462 -1.5215  0.9530 -2.4178
  213DG      C1 4877   3.055   3.861   1.792 -0.2244 -0.5117 -0.4383
  213DG      C2 4878   2.786   3.423   1.250 -0.3703 -0.1762  0.1749
  213DG      H3 4879   3.042   3.799   1.882  0.1653 -0.1639 -0.1371
  213DG      H4 4880   2.973   3.932   1.779  0.0333 -0.0345  0.4578
  213DG      H5 4881   3.144   3.916   1.822  0.3864 -1.8973  0.4039
  213DG      H6 4882   2.834   3.465   1.161 -2.9840 -0.1689 -1.3322
  213DG      H7 4883   2.821   3.321   1.263  0.7977  0.0631 -0.8791
  213DG      H8 4884   2.682   3.423   1.218  0.0444 -0.6896 -1.2505
  213DG      O9 4885   3.081   3.781   1.676  0.0084  0.2104 -0.8486
  213DG     O10 4886   2.826   3.506   1.356  0.4100  0.4001 -0.2087
  213DG     C11 4887   3.104   3.857   1.561  0.7090  0.0424 -0.0559
  213DG     C12 4888   2.800   3.638   1.334  0.0281  0.3077 -0.2908
  213DG     H13 4889   3.197   3.912   1.571  1.8256 -1.9228  0.9974
  213DG     H14 4890   3.021   3.927   1.551 -0.0007 -1.0370 -2.2407
  213DG     H15 4891   2.692   3.653   1.339  0.3503  2.7039  0.9955
  213DG     H16 4892   2.832   3.661   1.232 -1.4881 -2.1898 -1.4297
  213DG     C17 4893   3.109   3.770   1.438  0.1036 -0.1333  0.0277
  213DG     C18 4894   2.872   3.715   1.444  0.0689  0.9191  0.5072
  213DG     O19 4895   3.007   3.671   1.431 -0.1604 -0.2564  0.8001
  213DG     H20 4896   3.208   3.725   1.447  0.3001 -0.3298 -2.5245
  213DG     H21 4897   3.110   3.833   1.350  1.7268 -1.1408 -0.7087
  213DG     H22 4898   2.858   3.823   1.438 -2.3066  0.7237  1.1652
  213DG     H23 4899   2.822   3.687   1.537  2.1303  0.5198  1.5529
  214DG      C1 4900   4.277   0.294   2.494  0.3658 -0.1049  0.4494
  214DG      C2 4901   4.949   0.236   2.341 -0.0034  0.1237  0.6602
  214DG      H3 4902   4.299   0.241   2.586 -1.9098 -2.4019 -0.2237
  214DG      H4 4903   4.246   0.226   2.415 -0.2703 -0.2816  0.8447
  214DG      H5 4904   4.198   0.366   2.520  1.2972  0.8067  0.8488
  214DG      H6 4905   4.922   0.150   2.402 -1.6186  1.1595  1.5034
  214DG      H7 4906   4.976   0.192   2.245  1.2523  2.6361 -0.2238
  214DG      H8 4907   5.033   0.292   2.381 -0.2817 -1.3747  3.5928
  214DG      O9 4908   4.391   0.357   2.436  0.5593 -0.0785 -0.5788
  214DG     O10 4909   4.833   0.323   2.328 -0.1768 -0.2533 -0.4825
  214DG     C11 4910   4.354   0.460   2.347 -0.5896  0.5694  0.2844
  214DG     C12 4911   4.822   0.376   2.198 -0.5879 -1.0688  0.1314
  214DG     H13 4912   4.295   0.539   2.393  0.1574  0.4491  1.5014
  214DG     H14 4913   4.286   0.426   2.269  2.2287 -3.7786 -0.6065
  214DG     H15 4914   4.787   0.293   2.136 -0.8984  0.0869 -1.3036
  214DG     H16 4915   4.914   0.420   2.161 -0.4943 -1.5397 -0.2100
  214DG     C17 4916   4.490   0.515   2.284  0.6536  0.6005 -0.2241
  214DG     C18 4917   4.703   0.475   2.197 -0.6902 -0.3822 -0.1291
  214DG     O19 4918   4.592   0.417   2.270  0.1376 -0.5001  0.4893
  214DG     H20 4919   4.529   0.597   2.345 -2.0266  1.5095  0.4080
  214DG     H21 4920   4.464   0.545   2.183  0.4170 -1.9568 -0.9855
  214DG     H22 4921   4.734   0.569   2.243 -0.0695  0.0405 -1.3534
  214DG     H23 4922   4.662   0.498   2.098 -1.6071  0.3354  0.3997
  215DG      C1 4923   5.455   0.361   1.373  0.2508  0.5263  0.5346
  215DG      C2 4924   5.546  -0.046   1.869 -0.0108  0.2862 -0.2193
  215DG      H3 4925   5.413   0.386   1.276 -0.7616 -1.4667  0.4126
  215DG      H4 4926   5.560   0.330   1.370 -0.0059 -0.2944 -0.5429
  215DG      H5 4927   5.446   0.450   1.435  0.0913 -0.6806  2.3331
  215DG      H6 4928   5.562   0.031   1.944 -3.4465  0.0967  0.9181
  215DG      H7 4929   5.524  -0.136   1.927  4.6803 -1.1274 -0.1856
  215DG      H8 4930   5.636  -0.060   1.810 -0.3945  0.7684 -0.9254
  215DG      O9 4931   5.365   0.269   1.435 -0.1561  0.1082  0.8549
  215DG     O10 4932   5.433  -0.002   1.798  0.2585  0.1868  0.1796
  215DG     C11 4933   5.355   0.147   1.361  0.0356 -0.2032 -0.0135
  215DG     C12 4934   5.368  -0.109   1.731  0.9186  0.5274  0.2585
  215DG     H13 4935   5.445   0.087   1.352 -1.5307 -2.4736 -1.7179
  215DG     H14 4936   5.323   0.167   1.258 -0.1044  0.0285  0.0736
  215DG     H15 4937   5.341  -0.193   1.794 -2.8542  0.1674 -1.5553
  215DG     H16 4938   5.438  -0.151   1.659  1.0216  0.2350  0.5276
  215DG     C17 4939   5.248   0.074   1.435 -0.0220  0.7798  0.1065
  215DG     C18 4940   5.262  -0.062   1.638 -0.2619 -0.0256 -0.0957
  215DG     O19 4941   5.306   0.059   1.567  0.0645  0.3495 -0.4544
  215DG     H20 4942   5.220  -0.014   1.377 -0.2172  0.7187  0.2958
  215DG     H21 4943   5.150   0.122   1.432 -0.5097 -0.1707  0.4962
  215DG     H22 4944   5.230  -0.139   1.568 -0.7429  0.7441 -0.7361
  215DG     H23 4945   5.176  -0.028   1.694  0.2776  0.9673  0.1552
  216DG      C1 4946   3.105   1.602   1.302  0.2123  0.0270 -0.1564
  216DG      C2 4947   3.996   1.606   1.629  0.7188  0.3259  0.1768
  216DG      H3 4948   3.002   1.574   1.324  0.8481 -0.6321  2.2004
  216DG      H4 4949   3.150   1.538   1.227 -0.3655  0.7998 -1.1971
  216DG      H5 4950   3.107   1.702   1.257 -0.2866  0.1292  0.0471
  216DG      H6 4951   4.014   1.540   1.544 -1.7449  1.8766 -1.6768
  216DG      H7 4952   4.049   1.697   1.601  2.2049 -0.8773 -1.1153
  216DG      H8 4953   4.048   1.565   1.716  3.2968  0.1445 -1.3517
  216DG      O9 4954   3.182   1.600   1.422 -0.9889 -0.3773 -0.2941
  216DG     O10 4955   3.855   1.620   1.648  0.2940 -1.1830  0.0254
  216DG     C11 4956   3.321   1.630   1.400  1.1670 -0.1255  0.3027
  216DG     C12 4957   3.780   1.669   1.538 -0.5657  0.4350  0.5194
  216DG     H13 4958   3.331   1.728   1.353 -0.5468  1.8880  3.7629
  216DG     H14 4959   3.369   1.560   1.332  1.3727  0.3572 -0.0632
  216DG     H15 4960   3.790   1.612   1.445  0.6575 -0.6791  1.2894
  216DG     H16 4961   3.809   1.771   1.515  0.3679  1.0693  3.8965
  216DG     C17 4962   3.406   1.635   1.530  0.7933  0.4523  1.0208
  216DG     C18 4963   3.636   1.663   1.592 -0.5682 -0.0124  0.2807
  216DG     O19 4964   3.534   1.671   1.490 -0.4913  0.5180 -0.3905
  216DG     H20 4965   3.411   1.544   1.590  2.0841  1.1739  2.0751
  216DG     H21 4966   3.358   1.704   1.599  0.9659 -0.8503  2.4944
  216DG     H22 4967   3.638   1.570   1.650  2.3582  0.3967  1.0238
  216DG     H23 4968   3.619   1.741   1.667 -2.2261  0.3357 -0.4244
  217DG      C1 4969   1.019   3.741   2.073  0.9235  0.0291  0.4316
  217DG      C2 4970   1.344   3.672   1.495 -0.2037  0.0157  0.3610
  217DG      H3 4971   0.932   3.693   2.027  1.0581 -0.0147  0.2154
  217DG      H4 4972   0.964   3.809   2.138  0.3390 -1.5557  1.6807
  217DG      H5 4973   1.070   3.669   2.137  3.5730  2.2105  0.9323
  217DG      H6 4974   1.435   3.612   1.506 -0.5430 -1.1951 -2.5109
  217DG      H7 4975   1.255   3.610   1.496  0.6695 -1.2927  1.2604
  217DG      H8 4976   1.355   3.718   1.397  0.7567 -0.3224  0.2952
  217DG      O9 4977   1.110   3.801   1.982  0.4239 -0.1682  0.1000
  217DG     O10 4978   1.335   3.768   1.595  0.0435  0.0511 -0.2540
  217DG     C11 4979   1.240   3.812   2.044 -0.2120  0.4916  0.0304
  217DG     C12 4980   1.451   3.841   1.614  0.7697 -0.3285  0.0131
  217DG     H13 4981   1.292   3.717   2.060 -0.1249  0.9578  3.4648
  217DG     H14 4982   1.213   3.851   2.143  0.4981 -0.5332  0.6548
  217DG     H15 4983   1.480   3.897   1.525  1.2974 -0.2192  0.2501
  217DG     H16 4984   1.539   3.784   1.643  0.4393 -0.4229  0.8824
  217DG     C17 4985   1.329   3.904   1.954  0.7741 -0.2550  0.2518
  217DG     C18 4986   1.408   3.928   1.732 -0.1189 -0.5856 -0.5575
  217DG     O19 4987   1.348   3.842   1.827 -0.1150 -0.1081 -0.1365
  217DG     H20 4988   1.426   3.924   1.999  1.2003  0.3201 -0.8782
  217DG     H21 4989   1.287   4.004   1.940  1.0715 -0.0842  0.5714
  217DG     H22 4990   1.496   3.974   1.777 -0.5197 -1.4595  1.1677
  217DG     H23 4991   1.348   4.015   1.706  0.9316  0.6417  0.9372
  218DG      C1 4992   1.750   0.238   1.870  0.1288  0.1124  0.4190
  218DG      C2 4993   1.075   0.403   1.842 -0.4858 -0.6666 -0.3940
  218DG      H3 4994   1.846   0.260   1.825 -0.9366  0.6931 -1.7253
  218DG      H4 4995   1.762   0.141   1.917  3.7378  0.1502 -0.1579
  218DG      H5 4996   1.732   0.322   1.938 -1.9646 -1.1094  1.4970
  218DG      H6 4997   1.105   0.500   1.882  0.1234 -0.0307 -2.2805
  218DG      H7 4998   0.978   0.428   1.799 -1.4764 -0.5855  1.7522
  218DG      H8 4999   1.044   0.325   1.912 -0.0458 -2.0505 -1.7006
  218DG      O9 5000   1.634   0.236   1.787 -0.3667 -0.5587  0.6890
  218DG     O10 5001   1.172   0.357   1.751 -0.1784 -0.2725 -0.0484
  218DG     C11 5002   1.631   0.125   1.705  1.0772  0.0876 -0.2128
  218DG     C12 5003   1.148   0.231   1.708  0.0760  0.2221 -0.2397
  218DG     H13 5004   1.635   0.039   1.772  1.4165  0.1572 -0.1446
  218DG     H14 5005   1.719   0.148   1.645  2.1404  1.5907  1.7976
  218DG     H15 5006   1.055   0.222   1.652  0.8897 -1.2809 -1.4249
  218DG     H16 5007   1.141   0.161   1.792 -1.1868 -0.9190 -1.2471
  218DG     C17 5008   1.498   0.128   1.627 -0.7941 -0.3272  0.4045
  218DG     C18 5009   1.264   0.192   1.624 -0.3725  0.0991 -0.1107
  218DG     O19 5010   1.381   0.162   1.702 -0.5151  0.4189 -0.4332
  218DG     H20 5011   1.476   0.033   1.579 -1.3845  0.6297 -1.3172
  218DG     H21 5012   1.510   0.194   1.541 -0.5230 -0.7192  0.1370
  218DG     H22 5013   1.237   0.112   1.556 -2.1951  0.5555  0.0211
  218DG     H23 5014   1.273   0.280   1.559 -1.9544  1.4958  1.4639
  219DG      C1 5015   1.592   1.900   5.449  0.3607  0.0766 -0.1770
  219DG      C2 5016   1.009   1.377   5.505  0.2459 -0.0922 -0.1375
  219DG      H3 5017   1.571   1.944   5.351  1.3638  1.3082  0.1317
  219DG      H4 5018   1.666   1.822   5.432  2.0865  1.1396  1.9311
  219DG      H5 5019   1.635   1.973   5.518  0.9228 -0.0104 -0.4246
  219DG      H6 5020   0.958   1.389   5.409  0.9120 -2.9443 -0.9779
  219DG      H7 5021   1.097   1.317   5.478 -0.1517 -0.4899 -0.5584
  219DG      H8 5022   0.953   1.317   5.576  0.0970  0.7111  0.4258
  219DG      O9 5023   1.480   1.850   5.519 -0.0634  0.2972 -0.2632
  219DG     O10 5024   1.046   1.500   5.552 -0.1447 -0.1828  0.2888
  219DG     C11 5025   1.501   1.806   5.648 -0.0314 -0.2040 -0.2126
  219DG     C12 5026   1.133   1.489   5.671 -0.0873  1.0138  0.4682
  219DG     H13 5027   1.558   1.882   5.701 -0.5009 -0.6014  0.8908
  219DG     H14 5028   1.562   1.717   5.658  0.7792 -0.0350 -2.8514
  219DG     H15 5029   1.224   1.445   5.632 -0.0739 -0.4343  2.0024
  219DG     H16 5030   1.081   1.420   5.737  1.6424 -1.1711 -0.3354
  219DG     C17 5031   1.358   1.780   5.713  0.1862  0.1732 -0.2338
  219DG     C18 5032   1.177   1.616   5.727  0.1477  0.0299  0.6091
  219DG     O19 5033   1.296   1.666   5.659  0.3739 -0.6352  0.1700
  219DG     H20 5034   1.291   1.865   5.706  0.1100  0.1231 -0.1187
  219DG     H21 5035   1.374   1.760   5.819  2.0685 -0.5676 -0.6251
  219DG     H22 5036   1.097   1.689   5.714 -1.9035 -1.9911  1.2212
  219DG     H23 5037   1.205   1.611   5.832  0.6160  1.3648  0.5769
  220DG      C1 5038   3.701   3.903   3.344 -0.2092 -0.7904 -0.0712
  220DG      C2 5039   4.052   3.700   3.878 -0.6349  0.3959 -0.4453
  220DG      H3 5040   3.696   3.999   3.395 -0.7583 -0.1306 -1.3292
  220DG      H4 5041   3.627   3.839   3.392  0.6309 -1.4150  0.4332
  220DG      H5 5042   3.675   3.926   3.241  0.0014  1.6501  0.3653
  220DG      H6 5043   3.999   3.792   3.903 -1.9965 -0.7319  0.9796
  220DG      H7 5044   4.029   3.616   3.943 -0.9191  1.0677  0.3410
  220DG      H8 5045   4.160   3.712   3.891 -0.6928 -0.9073  1.6580
  220DG      O9 5046   3.825   3.835   3.379  0.1914  0.5427  0.2183
  220DG     O10 5047   4.023   3.682   3.741  0.1118 -0.4512  0.1846
  220DG     C11 5048   3.824   3.702   3.320  0.0390 -0.0753  0.3578
  220DG     C12 5049   4.083   3.563   3.693 -0.4302  1.0136  0.2382
  220DG     H13 5050   3.820   3.694   3.211  2.3432  0.2244  0.1852
  220DG     H14 5051   3.739   3.650   3.364 -0.2191  0.4275  0.4588
  220DG     H15 5052   4.033   3.490   3.757  0.5371 -0.5655 -0.7399
  220DG     H16 5053   4.189   3.555   3.719 -0.1283  0.8171 -0.9774
  220DG     C17 5054   3.947   3.631   3.357  0.0829  0.5801  0.0009
  220DG     C18 5055   4.060   3.542   3.544  0.5097  0.9185  0.9775
  220DG     O19 5056   3.963   3.637   3.497  0.1300  0.5787  0.1634
  220DG     H20 5057   4.031   3.681   3.310  1.3918 -1.3117  0.2161
  220DG     H21 5058   3.938   3.526   3.329 -3.3485  0.6590  0.3465
  220DG     H22 5059   4.153   3.544   3.487  1.2725 -1.1801  2.0561
  220DG     H23 5060   4.027   3.440   3.523  0.9538  0.6015  1.7970
  221DG      C1 5061   0.597   4.486   0.383  0.2382  0.3123  0.2603
  221DG      C2 5062   0.412   3.897   0.055 -0.0038  0.1754  0.3018
  221DG      H3 5063   0.557   4.477   0.484  2.5908 -2.7601  1.0722
  221DG      H4 5064   0.628   4.587   0.358  1.2212  0.1455  0.7739
  221DG      H5 5065   0.684   4.420   0.391 -0.1620 -0.4022 -0.9605
  221DG      H6 5066   0.520   3.888   0.040 -0.2649 -2.4388 -0.4296
  221DG      H7 5067   0.391   3.817   0.127 -0.0069 -1.0922 -1.0562
  221DG      H8 5068   0.371   3.859  -0.039  0.9121 -0.7768  0.2685
  221DG      O9 5069   0.516   4.419   0.281  0.1281  0.0140 -0.6669
  221DG     O10 5070   0.363   4.020   0.095  0.1865  0.3816  0.3223
  221DG     C11 5071   0.380   4.465   0.282 -0.0429 -0.4146  0.1474
  221DG     C12 5072   0.316   4.105  -0.012  0.2456 -0.3474  0.4982
  221DG     H13 5073   0.370   4.574   0.285  0.7064 -0.3582  0.7768
  221DG     H14 5074   0.338   4.422   0.372 -1.9765  0.4745 -0.2838
  221DG     H15 5075   0.268   4.057  -0.097  3.2059 -1.8108 -0.4922
  221DG     H16 5076   0.401   4.139  -0.071 -1.8413  0.1438 -2.3835
  221DG     C17 5077   0.290   4.407   0.177  0.3536  0.0345 -1.1339
  221DG     C18 5078   0.242   4.223   0.041  0.1497  0.0335 -0.2831
  221DG     O19 5079   0.316   4.273   0.153  0.1200 -0.3387  0.8924
  221DG     H20 5080   0.296   4.467   0.086 -1.0265  0.4318 -0.9876
  221DG     H21 5081   0.190   4.414   0.220  1.2161 -0.5682  1.1062
  221DG     H22 5082   0.234   4.299  -0.037  0.9840  1.2731  0.7910
  221DG     H23 5083   0.145   4.193   0.079 -0.6566  1.2931 -1.2544
  222DG      C1 5084   2.084   0.478   1.448  0.5135 -0.3178 -0.0719
  222DG      C2 5085   1.585   1.038   1.719  0.1875 -0.3324 -0.3062
  222DG      H3 5086   2.128   0.390   1.494 -0.7181 -1.1427 -0.4228
  222DG      H4 5087   2.166   0.541   1.413 -1.1234  1.3120 -1.2100
  222DG      H5 5088   2.024   0.457   1.359 -2.1797  0.7335  1.3632
  222DG      H6 5089   1.477   1.023   1.711  0.0183  0.1171  0.8714
  222DG      H7 5090   1.595   1.123   1.787 -4.0692  1.1006 -1.1454
  222DG      H8 5091   1.631   1.061   1.623  2.7785  2.3158  1.4135
  222DG      O9 5092   2.017   0.560   1.546 -0.4061 -0.0241  0.4547
  222DG     O10 5093   1.639   0.923   1.776 -0.1727 -0.6873 -0.2615
  222DG     C11 5094   1.918   0.491   1.611 -0.1773 -0.2145  0.4235
  222DG     C12 5095   1.780   0.931   1.799 -0.6718 -0.0339 -0.0052
  222DG     H13 5096   1.953   0.392   1.641  0.1197  0.3057  1.8918
  222DG     H14 5097   1.837   0.468   1.542 -0.6930  0.0930  0.9187
  222DG     H15 5098   1.800   0.984   1.892  3.2000  1.2635 -1.3584
  222DG     H16 5099   1.831   0.985   1.719  0.9820  1.3990  1.9297
  222DG     C17 5100   1.880   0.573   1.736 -0.1398 -0.1672 -0.1344
  222DG     C18 5101   1.861   0.803   1.813  1.1004  0.3601 -0.6065
  222DG     O19 5102   1.844   0.711   1.703  0.1278  0.5700 -0.0591
  222DG     H20 5103   1.969   0.589   1.798 -0.1660 -0.0715 -0.1210
  222DG     H21 5104   1.801   0.523   1.792 -1.3717  0.4541 -1.2659
  222DG     H22 5105   1.969   0.813   1.822  1.1435 -0.9781  0.6881
  222DG     H23 5106   1.828   0.747   1.900  1.3747 -0.6983 -1.1716
  223DG      C1 5107   0.678   2.547   4.742  0.8204  0.1492  0.0610
  223DG      C2 5108   0.027   2.484   4.644 -0.4603 -0.0047 -0.0929
  223DG      H3 5109   0.717   2.648   4.729  0.2158  0.4868  0.7817
  223DG      H4 5110   0.756   2.472   4.728 -0.1201 -0.7114 -0.7572
  223DG      H5 5111   0.640   2.538   4.844  1.1258 -1.3534  0.0680
  223DG      H6 5112  -0.018   2.564   4.586 -1.2687  0.0676  0.6221
  223DG      H7 5113  -0.041   2.400   4.631  0.4851 -0.5232 -2.0300
  223DG      H8 5114   0.037   2.514   4.748  1.3854  1.5720 -0.6684
  223DG      O9 5115   0.579   2.509   4.641 -0.2833  0.0395 -0.0898
  223DG     O10 5116   0.145   2.444   4.578  0.2999 -0.2182  0.3841
  223DG     C11 5117   0.619   2.537   4.509 -0.2647  0.4033 -0.5551
  223DG     C12 5118   0.151   2.441   4.434 -0.2521 -0.4434 -0.5303
  223DG     H13 5119   0.725   2.527   4.484 -0.2276 -0.0076 -0.2479
  223DG     H14 5120   0.608   2.645   4.508 -0.0303  0.4260 -1.2867
  223DG     H15 5121   0.142   2.543   4.395  1.4924 -1.3517 -3.6092
  223DG     H16 5122   0.067   2.384   4.394 -1.8694 -1.2735  3.5033
  223DG     C17 5123   0.524   2.454   4.415 -0.3194  0.6299 -0.1129
  223DG     C18 5124   0.297   2.390   4.396  0.1151  0.1816  0.0349
  223DG     O19 5125   0.391   2.476   4.464  0.5503 -0.1883 -1.0514
  223DG     H20 5126   0.562   2.352   4.405 -1.9698  0.1973 -3.1894
  223DG     H21 5127   0.524   2.497   4.315 -3.8050  3.8389  1.0100
  223DG     H22 5128   0.318   2.288   4.429  0.7902  0.0710 -0.7133
  223DG     H23 5129   0.299   2.395   4.287 -0.8645  1.8161  0.0607
  224DG      C1 5130   2.611   1.808   0.269 -0.3583  0.0973  0.4499
  224DG      C2 5131   2.406   1.124   0.072  0.1260 -0.7281 -0.4190
  224DG      H3 5132   2.700   1.754   0.302 -1.1613  0.1247  2.9434
  224DG      H4 5133   2.568   1.871   0.348 -1.2765 -1.3495  1.1525
  224DG      H5 5134   2.646   1.876   0.191 -3.0221  1.1132  0.0331
  224DG      H6 5135   2.377   1.141   0.176  3.7597 -0.5854  0.7231
  224DG      H7 5136   2.344   1.047   0.028 -2.9344 -0.0491  2.3514
  224DG      H8 5137   2.501   1.072   0.082 -0.4453 -1.6617  0.2013
  224DG      O9 5138   2.505   1.742   0.203  0.1873 -0.0178  0.2175
  224DG     O10 5139   2.436   1.245   0.003  0.0036 -0.0774  0.2529
  224DG     C11 5140   2.544   1.692   0.078 -0.7478  0.1267 -0.5242
  224DG     C12 5141   2.323   1.324  -0.030 -0.6686  0.2348 -0.3733
  224DG     H13 5142   2.631   1.629   0.095 -2.9248 -2.8052  0.6993
  224DG     H14 5143   2.560   1.772   0.006  0.3942  1.0936  0.7475
  224DG     H15 5144   2.241   1.261  -0.066 -0.0293 -1.8001  1.5166
  224DG     H16 5145   2.356   1.372  -0.122 -1.3743  1.7525  0.1437
  224DG     C17 5146   2.427   1.611   0.015 -0.1599  0.3468 -0.3520
  224DG     C18 5147   2.284   1.418   0.082 -0.1057 -0.3514 -0.6428
  224DG     O19 5148   2.387   1.509   0.115  0.1083 -0.0045 -0.3220
  224DG     H20 5149   2.455   1.565  -0.079 -0.6830 -2.2333  0.6540
  224DG     H21 5150   2.345   1.680  -0.005 -1.3337 -0.8474  0.1822
  224DG     H22 5151   2.203   1.477   0.040  0.2079 -0.5366 -1.5288
  224DG     H23 5152   2.259   1.356   0.168 -1.5424 -1.1072 -1.5698
  225DG      C1 5153   5.248   4.735   3.817  0.3437 -0.0953  0.0508
  225DG      C2 5154   5.499   4.197   3.533  0.1271  0.2196 -0.0817
  225DG      H3 5155   5.219   4.790   3.907 -1.3848 -0.1376 -0.4388
  225DG      H4 5156   5.157   4.717   3.760 -0.7239  0.8975  1.3532
  225DG      H5 5157   5.318   4.786   3.751 -0.7898  0.3601 -0.8402
  225DG      H6 5158   5.578   4.141   3.582  0.7533 -0.1296 -1.4383
  225DG      H7 5159   5.456   4.128   3.460  0.7618 -0.6470  0.3497
  225DG      H8 5160   5.547   4.268   3.465  1.3322 -0.0500  0.4547
  225DG      O9 5161   5.308   4.614   3.846 -0.1366 -0.2987  0.2398
  225DG     O10 5162   5.412   4.259   3.631 -0.1696 -0.0089 -0.1779
  225DG     C11 5163   5.238   4.535   3.936  0.7474 -0.4675  0.1392
  225DG     C12 5164   5.376   4.176   3.742  0.2686 -0.0481  1.1627
  225DG     H13 5165   5.151   4.492   3.887  1.1457  1.7414 -2.8129
  225DG     H14 5166   5.210   4.600   4.019  0.9204 -0.6865  0.3717
  225DG     H15 5167   5.465   4.131   3.787  0.6794  0.0193  0.4346
  225DG     H16 5168   5.325   4.093   3.694  0.6327  1.3382 -1.8198
  225DG     C17 5169   5.325   4.433   3.999  0.6011  0.3039  0.7017
  225DG     C18 5170   5.291   4.259   3.838 -0.3695  0.3121  0.7412
  225DG     O19 5171   5.385   4.347   3.907 -0.0409  0.4078  0.1371
  225DG     H20 5172   5.275   4.376   4.077  1.3821 -2.0774 -0.4313
  225DG     H21 5173   5.412   4.481   4.043  2.1249  0.5542 -2.3001
  225DG     H22 5174   5.219   4.315   3.778 -1.4314  0.5166  2.1643
  225DG     H23 5175   5.241   4.191   3.907 -0.2564 -1.9914 -1.2855
  226DG      C1 5176   2.104   3.727   5.311  0.2484 -0.1952  0.8449
  226DG      C2 5177   2.762   3.706   5.469 -0.6155  0.0142  0.2966
  226DG      H3 5178   2.123   3.834   5.298  0.8618 -0.2740  1.0530
  226DG      H4 5179   2.001   3.721   5.346  0.3035 -0.8759  0.8927
  226DG      H5 5180   2.145   3.673   5.226  0.5107 -1.5623  1.8110
  226DG      H6 5181   2.746   3.800   5.417  2.6227  1.8953  2.3438
  226DG      H7 5182   2.841   3.724   5.542  0.0780  0.5204 -0.5510
  226DG      H8 5183   2.814   3.648   5.393 -1.9934 -0.8936  0.0232
  226DG      O9 5184   2.174   3.674   5.425 -0.5325  0.2480 -0.1000
  226DG     O10 5185   2.640   3.656   5.513  0.3255  0.3384 -0.4446
  226DG     C11 5186   2.153   3.746   5.544 -0.4264 -0.4604  0.6947
  226DG     C12 5187   2.616   3.686   5.656 -0.0723 -0.3401  0.4745
  226DG     H13 5188   2.048   3.738   5.570 -1.1629  1.2061 -1.4839
  226DG     H14 5189   2.179   3.852   5.535 -0.7020 -0.4389  0.1175
  226DG     H15 5190   2.627   3.794   5.662  1.4967 -0.2486 -2.2642
  226DG     H16 5191   2.698   3.644   5.715  0.1299 -1.9199 -0.8502
  226DG     C17 5192   2.244   3.690   5.653  0.1989  0.1438 -0.4189
  226DG     C18 5193   2.476   3.656   5.716 -0.1410 -0.6811 -0.3134
  226DG     O19 5194   2.380   3.698   5.617 -0.1644  0.0424 -0.1950
  226DG     H20 5195   2.204   3.590   5.672 -3.2568  1.0877 -1.8312
  226DG     H21 5196   2.236   3.745   5.747  1.9140  1.3836 -0.9527
  226DG     H22 5197   2.458   3.551   5.740 -3.4046  0.5219  3.6899
  226DG     H23 5198   2.465   3.699   5.816  0.7194 -1.0429 -0.0625
  227DG      C1 5199   0.304   4.243   3.821 -0.3104 -0.0057 -0.3482
  227DG      C2 5200  -0.167   4.525   3.498  0.0559 -0.0872  0.4398
  227DG      H3 5201   0.278   4.143   3.788 -0.2582 -0.4004  0.7611
  227DG      H4 5202   0.233   4.248   3.904 -0.9026 -1.1352 -0.7646
  227DG      H5 5203   0.403   4.251   3.865 -0.4354  0.0372 -0.0701
  227DG      H6 5204  -0.221   4.606   3.450 -0.3702 -0.0666  0.9431
  227DG      H7 5205  -0.127   4.468   3.414 -3.0226  0.4378 -1.5421
  227DG      H8 5206  -0.228   4.461   3.562  1.3418 -0.8718  0.9225
  227DG      O9 5207   0.267   4.351   3.735  0.1341  0.1399 -0.4127
  227DG     O10 5208  -0.064   4.592   3.572 -0.1192 -0.1798 -0.4850
  227DG     C11 5209   0.371   4.371   3.636 -0.3664 -0.3546 -0.1160
  227DG     C12 5210   0.015   4.674   3.490  0.4414 -0.1051  0.5550
  227DG     H13 5211   0.415   4.275   3.609  0.0719 -0.2821  0.3230
  227DG     H14 5212   0.448   4.434   3.679  0.0363 -0.5522 -0.5483
  227DG     H15 5213   0.058   4.756   3.548  0.9804  0.0646 -0.0657
  227DG     H16 5214  -0.042   4.719   3.409 -0.2534  2.1691  2.1801
  227DG     C17 5215   0.304   4.427   3.516 -0.6820 -0.2531  0.0729
  227DG     C18 5216   0.131   4.579   3.441 -0.4873  0.9969 -0.2428
  227DG     O19 5217   0.194   4.521   3.549  0.6655  0.1647 -0.0729
  227DG     H20 5218   0.260   4.347   3.457 -2.6736  2.0737 -1.8630
  227DG     H21 5219   0.381   4.482   3.460 -1.7413  2.1006  0.7966
  227DG     H22 5220   0.100   4.498   3.374  0.4614  0.5623 -0.1752
  227DG     H23 5221   0.190   4.649   3.382  0.0332  0.3924 -0.4496
  228DG      C1 5222   4.594   4.811   0.377 -0.2283  0.1237  0.2484
  228DG      C2 5223   4.756   4.505   1.066 -0.0712  0.2132 -0.1955
  228DG      H3 5224   4.644   4.825   0.281  0.8122 -0.5801  0.6779
  228DG      H4 5225   4.550   4.910   0.395  0.2662  0.7945 -1.9146
  228DG      H5 5226   4.529   4.724   0.370  0.9346 -0.6541 -2.0681
  228DG      H6 5227   4.701   4.412   1.059  0.3097 -0.0317  0.0656
  228DG      H7 5228   4.845   4.489   1.127 -0.1945  0.4940  0.0660
  228DG      H8 5229   4.693   4.578   1.118 -0.5769  0.1626 -0.7381
  228DG      O9 5230   4.685   4.785   0.486  0.2441 -0.1858 -0.5273
  228DG     O10 5231   4.802   4.537   0.937 -0.1362  0.3342  0.6563
  228DG     C11 5232   4.773   4.673   0.462 -0.4719 -0.3458  0.0137
  228DG     C12 5233   4.845   4.669   0.925  0.1968  0.0236 -0.4632
  228DG     H13 5234   4.810   4.673   0.359  2.2134  0.5726  0.8990
  228DG     H14 5235   4.726   4.575   0.473 -0.6140 -0.7327 -3.0811
  228DG     H15 5236   4.908   4.690   1.011  0.8509 -3.8224  0.1997
  228DG     H16 5237   4.762   4.738   0.937 -0.2878 -0.5311 -0.5978
  228DG     C17 5238   4.889   4.687   0.564  0.5891 -0.3907  0.0336
  228DG     C18 5239   4.918   4.699   0.790 -0.4669  0.1891  0.5174
  228DG     O19 5240   4.828   4.671   0.687 -0.1755  0.4880 -0.2292
  228DG     H20 5241   4.928   4.788   0.578 -0.9839 -0.0486  2.7143
  228DG     H21 5242   4.976   4.621   0.555  0.8449  0.0120 -0.4428
  228DG     H22 5243   4.943   4.804   0.776 -0.1966 -0.0835 -1.3085
  228DG     H23 5244   5.021   4.664   0.788  0.2964  2.2462  1.6067
  229DG      C1 5245   4.556   0.036   2.289  0.1034 -0.8355  0.1761
  229DG      C2 5246   4.913   0.479   2.601  0.4495 -0.3928 -0.7601
  229DG      H3 5247   4.647  -0.018   2.262  0.0799 -0.0127 -1.7261
  229DG      H4 5248   4.538   0.122   2.224  0.3190  0.0962  1.3075
  229DG      H5 5249   4.473  -0.034   2.282 -1.6130  1.2556 -2.4599
  229DG      H6 5250   4.886   0.505   2.499 -0.3460  2.3275  0.0675
  229DG      H7 5251   4.883   0.560   2.668  2.3393 -1.5264  1.6700
  229DG      H8 5252   5.021   0.470   2.618  0.2610 -0.2809  0.5821
  229DG      O9 5253   4.565   0.096   2.415  0.0968  0.0580 -0.0733
  229DG     O10 5254   4.845   0.357   2.631 -0.2342 -0.2119  0.0872
  229DG     C11 5255   4.573  -0.001   2.508  0.1954 -0.3664  0.1092
  229DG     C12 5256   4.861   0.292   2.751  0.0413 -0.2920  0.0452
  229DG     H13 5257   4.651  -0.074   2.486 -0.4512 -0.5986 -1.5516
  229DG     H14 5258   4.482  -0.060   2.503 -0.1176  0.0118  1.1994
  229DG     H15 5259   4.876   0.366   2.829  0.3424  0.0196 -0.3004
  229DG     H16 5260   4.953   0.235   2.737  0.7650  0.7716  0.3644
  229DG     C17 5261   4.589   0.046   2.653 -0.1947 -0.2274  0.1197
  229DG     C18 5262   4.743   0.193   2.778 -0.4636  0.2210 -0.0331
  229DG     O19 5263   4.711   0.129   2.656  0.1951 -0.0413  0.3878
  229DG     H20 5264   4.598  -0.044   2.714  0.0753  0.1864  0.6936
  229DG     H21 5265   4.501   0.104   2.680 -1.2143 -0.9546 -1.4823
  229DG     H22 5266   4.773   0.115   2.847  1.5553 -1.0857 -2.2597
  229DG     H23 5267   4.658   0.250   2.816 -0.7223 -1.0956  1.4808
  230DG      C1 5268   2.560   1.844   3.253 -0.0592 -0.1062 -0.1148
  230DG      C2 5269   2.775   1.208   3.528  0.3622 -0.0055  0.4271
  230DG      H3 5270   2.634   1.922   3.272  0.8484 -0.9656 -0.0515
  230DG      H4 5271   2.465   1.876   3.295  1.2071  1.0874  2.0866
  230DG      H5 5272   2.564   1.827   3.145  3.1214  0.0152 -0.1141
  230DG      H6 5273   2.689   1.215   3.462  0.3434  1.2393  0.5586
  230DG      H7 5274   2.828   1.123   3.485  0.4141 -1.2809  2.8143
  230DG      H8 5275   2.753   1.188   3.633 -0.5070 -0.2185  0.2151
  230DG      O9 5276   2.607   1.736   3.335  0.8975  0.7425 -0.2491
  230DG     O10 5277   2.859   1.321   3.514  0.3525 -0.3206  0.2972
  230DG     C11 5278   2.512   1.625   3.334 -0.2379 -0.0590  0.8451
  230DG     C12 5279   2.905   1.341   3.379  0.9630 -0.5541  0.0106
  230DG     H13 5280   2.427   1.645   3.268  1.0434 -1.5230 -1.4091
  230DG     H14 5281   2.484   1.597   3.435  0.7489 -2.6989  0.4677
  230DG     H15 5282   2.964   1.255   3.348  1.3711 -0.5086  0.6536
  230DG     H16 5283   2.972   1.424   3.402 -1.7791  1.2596  1.9680
  230DG     C17 5284   2.591   1.516   3.257 -0.2052 -0.3535  0.5689
  230DG     C18 5285   2.793   1.387   3.276  0.1165  0.3662  0.0757
  230DG     O19 5286   2.704   1.481   3.333 -0.0644 -0.1313  0.4272
  230DG     H20 5287   2.631   1.559   3.164  1.2127 -0.5286  1.0771
  230DG     H21 5288   2.523   1.432   3.242  1.8784 -1.7615 -2.0294
  230DG     H22 5289   2.828   1.424   3.179 -4.7296  0.8757 -1.7717
  230DG     H23 5290   2.729   1.302   3.255  0.8699 -0.5148  1.1872
  231DG      C1 5291   4.647   1.388   2.272 -0.5683 -0.4651 -0.5682
  231DG      C2 5292   5.265   1.651   2.469  0.2601 -0.3599 -0.6485
  231DG      H3 5293   4.577   1.350   2.347  0.6013 -2.4811 -0.3924
  231DG      H4 5294   4.695   1.301   2.228 -1.7236 -1.1603 -0.4923
  231DG      H5 5295   4.580   1.432   2.199 -0.8568  2.6975  1.4217
  231DG      H6 5296   5.310   1.577   2.402 -0.2642 -2.4377  1.1843
  231DG      H7 5297   5.220   1.732   2.412  0.7491  0.4341  0.0819
  231DG      H8 5298   5.329   1.686   2.550 -1.8654 -2.9222  2.4208
  231DG      O9 5299   4.739   1.484   2.328 -0.0779  0.1892 -0.1864
  231DG     O10 5300   5.168   1.582   2.544  0.2634  0.2879 -0.1597
  231DG     C11 5301   4.673   1.594   2.397 -0.4601 -0.0268 -0.1956
  231DG     C12 5302   5.095   1.646   2.641 -0.7378 -0.0342 -0.0545
  231DG     H13 5303   4.617   1.541   2.474 -0.0412  0.6669  0.5977
  231DG     H14 5304   4.597   1.641   2.336 -0.2831  0.8934  0.2835
  231DG     H15 5305   5.165   1.714   2.690 -1.2782  0.0336  0.6477
  231DG     H16 5306   5.066   1.574   2.718 -0.6153 -0.8568 -0.7614
  231DG     C17 5307   4.787   1.690   2.449 -0.0700 -0.1311 -0.0255
  231DG     C18 5308   4.973   1.717   2.588 -0.4156 -0.5359 -0.5290
  231DG     O19 5309   4.874   1.624   2.541  0.0789 -0.0526 -0.1526
  231DG     H20 5310   4.751   1.785   2.489 -0.9668 -0.6159  0.3418
  231DG     H21 5311   4.856   1.720   2.371  0.3244 -0.0043  0.3701
  231DG     H22 5312   4.922   1.770   2.668  1.0215  0.9917 -0.5826
  231DG     H23 5313   5.010   1.789   2.515  0.0087  0.3350  0.5235
  232DG      C1 5314   4.438   3.834   1.830 -0.0255 -0.9152  0.0733
  232DG      C2 5315   4.486   3.229   2.196 -0.0780 -0.1290 -0.7039
  232DG      H3 5316   4.461   3.837   1.724 -0.1275 -0.2891  0.0645
  232DG      H4 5317   4.528   3.875   1.875 -2.5499  3.2936  1.8646
  232DG      H5 5318   4.356   3.904   1.845  0.7414  0.4642 -1.7852
  232DG      H6 5319   4.398   3.271   2.245  1.0747 -0.7611  2.0979
  232DG      H7 5320   4.490   3.120   2.200  1.9488 -0.0776 -0.7489
  232DG      H8 5321   4.581   3.265   2.235  0.7291 -1.6163 -1.2121
  232DG      O9 5322   4.434   3.697   1.865  0.5870 -0.5249  0.5238
  232DG     O10 5323   4.496   3.282   2.058 -0.0223  0.4217 -0.2275
  232DG     C11 5324   4.305   3.633   1.840 -0.2189 -0.1863  0.0024
  232DG     C12 5325   4.410   3.213   1.966 -0.2540  0.0223  0.0607
  232DG     H13 5326   4.283   3.646   1.734  0.2780 -1.7155 -0.3151
  232DG     H14 5327   4.222   3.681   1.891 -1.9199  0.2842 -2.9400
  232DG     H15 5328   4.312   3.196   2.010  0.0611  0.9861  1.1872
  232DG     H16 5329   4.452   3.112   1.965  1.9933  0.9146  0.1962
  232DG     C17 5330   4.306   3.485   1.869  0.0571 -0.2285  0.2866
  232DG     C18 5331   4.401   3.272   1.819 -0.3515  0.2742 -0.1447
  232DG     O19 5332   4.419   3.414   1.815  0.6321  0.2621  0.3821
  232DG     H20 5333   4.214   3.433   1.843 -1.4206  2.1826  0.4017
  232DG     H21 5334   4.321   3.473   1.976 -1.4567 -1.3745  0.3909
  232DG     H22 5335   4.473   3.215   1.761 -0.5764 -0.4565  0.2786
  232DG     H23 5336   4.306   3.243   1.775 -0.3739  0.7964 -0.4530
  233DG      C1 5337   4.363   2.167   4.029  0.2014 -0.3624  0.1486
  233DG      C2 5338   4.178   1.610   4.266  0.1276 -0.3288 -0.1801
  233DG      H3 5339   4.453   2.164   4.091  1.4108 -3.5350 -1.5088
  233DG      H4 5340   4.288   2.215   4.091  1.9674  1.3931  1.0138
  233DG      H5 5341   4.380   2.230   3.942  3.3314 -1.5301 -0.2061
  233DG      H6 5342   4.192   1.544   4.351  0.1735 -0.0311  0.0451
  233DG      H7 5343   4.120   1.701   4.275 -1.2750 -1.0036 -1.8096
  233DG      H8 5344   4.137   1.549   4.185  0.0011  3.1509 -3.0007
  233DG      O9 5345   4.345   2.027   3.970 -0.0965  0.0810 -0.0695
  233DG     O10 5346   4.302   1.647   4.200 -0.1861  0.0983  0.1220
  233DG     C11 5347   4.466   1.969   3.909  0.6017  0.2880 -0.2876
  233DG     C12 5348   4.406   1.706   4.281  0.1213 -0.7579  0.6341
  233DG     H13 5349   4.519   2.049   3.856  1.7847  0.2673  0.8009
  233DG     H14 5350   4.442   1.904   3.825  1.1623  0.2369 -0.4137
  233DG     H15 5351   4.428   1.633   4.360  1.4796 -0.6915  0.3390
  233DG     H16 5352   4.369   1.799   4.325  2.2750  0.2803  0.3521
  233DG     C17 5353   4.562   1.894   4.010  0.4999 -0.5142 -0.1993
  233DG     C18 5354   4.523   1.740   4.192  0.1435  0.9831  0.1247
  233DG     O19 5355   4.471   1.794   4.068 -0.4116 -0.1094  0.0754
  233DG     H20 5356   4.607   1.961   4.084  0.2959 -0.8590  0.2438
  233DG     H21 5357   4.637   1.846   3.948 -0.9510 -1.9743 -0.8887
  233DG     H22 5358   4.601   1.796   4.242 -1.2809  1.8959  1.4329
  233DG     H23 5359   4.557   1.640   4.164 -3.0108  0.2021 -1.3776
  234DG      C1 5360   2.163   2.412   2.167 -0.0760 -0.0955 -0.7576
  234DG      C2 5361   2.719   2.509   2.084 -0.4446  0.3290  0.0660
  234DG      H3 5362   2.201   2.381   2.265 -1.3362  0.7933  0.0412
  234DG      H4 5363   2.226   2.370   2.089 -0.3924  0.0369 -1.0856
  234DG      H5 5364   2.060   2.378   2.157 -0.7139  1.5191  0.0204
  234DG      H6 5365   2.760   2.413   2.117  2.6363  1.2895 -0.5842
  234DG      H7 5366   2.793   2.538   2.009 -1.1999 -1.0786 -1.2688
  234DG      H8 5367   2.739   2.565   2.176 -2.8439 -1.0089  1.4968
  234DG      O9 5368   2.168   2.553   2.171  0.0142 -0.1052 -0.0006
  234DG     O10 5369   2.590   2.521   2.023 -0.4291 -0.2163 -0.3419
  234DG     C11 5370   2.159   2.621   2.040 -0.5143  0.3793  0.5303
  234DG     C12 5371   2.568   2.448   1.908 -0.4050  0.0747 -0.1130
  234DG     H13 5372   2.139   2.727   2.054  2.2988  1.0361  0.0415
  234DG     H14 5373   2.086   2.573   1.975 -1.8907 -0.0580  2.2979
  234DG     H15 5374   2.546   2.347   1.944  1.2556 -0.8247 -1.4993
  234DG     H16 5375   2.662   2.449   1.852  0.2473 -0.5063  0.9350
  234DG     C17 5376   2.297   2.630   1.962 -0.5237  0.5112 -0.1953
  234DG     C18 5377   2.449   2.519   1.823 -0.6580  0.0856 -0.3405
  234DG     O19 5378   2.328   2.509   1.900  0.6000  0.1844  0.3058
  234DG     H20 5379   2.372   2.675   2.027 -1.0284 -0.1809  0.8923
  234DG     H21 5380   2.294   2.705   1.884  0.0960  0.8966  0.1476
  234DG     H22 5381   2.463   2.621   1.785 -4.3503  0.7807 -0.2501
  234DG     H23 5382   2.434   2.446   1.745 -0.4576 -3.1996  2.4563
  235DG      C1 5383   1.658   2.594   0.896  0.8605 -0.3071 -0.3671
  235DG      C2 5384   1.451   2.614   1.565 -0.0764  0.0491 -0.8361
  235DG      H3 5385   1.739   2.618   0.828  1.0073 -0.6884 -0.3275
  235DG      H4 5386   1.565   2.651   0.885  0.5991 -0.9175 -1.5066
  235DG      H5 5387   1.622   2.495   0.868 -2.2017  0.6524 -0.2728
  235DG      H6 5388   1.351   2.638   1.527 -0.7670  0.9458  1.3770
  235DG      H7 5389   1.470   2.508   1.549 -0.2952 -0.0935 -0.1920
  235DG      H8 5390   1.469   2.613   1.672  1.4514  0.1059 -1.0774
  235DG      O9 5391   1.701   2.603   1.030 -1.0687 -0.2594 -0.3048
  235DG     O10 5392   1.558   2.680   1.492  0.8881  0.0886 -0.3095
  235DG     C11 5393   1.727   2.736   1.085 -0.8576  0.2944  0.1179
  235DG     C12 5394   1.532   2.825   1.483 -0.0582  0.5327  0.6083
  235DG     H13 5395   1.660   2.807   1.036 -0.9078 -0.0423 -0.2997
  235DG     H14 5396   1.834   2.746   1.066 -0.4390 -2.2623  0.7674
  235DG     H15 5397   1.505   2.867   1.580  1.6561 -0.4348  1.5448
  235DG     H16 5398   1.442   2.836   1.423  0.1332  0.7636  0.3635
  235DG     C17 5399   1.709   2.730   1.241 -0.7118 -0.0316  0.3898
  235DG     C18 5400   1.661   2.884   1.433  0.2435  0.2414  0.1069
  235DG     O19 5401   1.690   2.862   1.296  0.1608  0.0168 -0.0843
  235DG     H20 5402   1.782   2.666   1.292 -2.1849  0.1905  2.9390
  235DG     H21 5403   1.624   2.662   1.239 -0.7824  0.0657 -0.1302
  235DG     H22 5404   1.670   2.992   1.451  2.2333 -0.0361  1.0543
  235DG     H23 5405   1.739   2.838   1.493 -0.4124 -0.2207  0.6189
  236DG      C1 5406   1.422   2.818   0.223  0.2419  0.6800  0.4368
  236DG      C2 5407   1.067   2.880  -0.515 -0.0937  0.3310 -0.1616
  236DG      H3 5408   1.438   2.926   0.230  0.5073  0.6639  0.0829
  236DG      H4 5409   1.469   2.783   0.315 -0.4604  0.7212  0.8187
  236DG      H5 5410   1.313   2.808   0.230  0.2916 -0.0077  0.3301
  236DG      H6 5411   1.135   2.857  -0.597 -0.3996  0.4341 -0.4445
  236DG      H7 5412   0.966   2.851  -0.543 -0.5058  0.3161  1.2442
  236DG      H8 5413   1.072   2.988  -0.495 -0.1524  0.1569  0.8522
  236DG      O9 5414   1.479   2.771   0.100 -0.0342 -0.1916  0.1205
  236DG     O10 5415   1.084   2.799  -0.397 -0.0188  0.4091 -0.2403
  236DG     C11 5416   1.433   2.639   0.069 -0.3520  0.5849  0.2059
  236DG     C12 5417   1.204   2.814  -0.327 -0.3021  0.0161  0.5971
  236DG     H13 5418   1.438   2.581   0.161  1.0694 -1.1235 -0.8975
  236DG     H14 5419   1.501   2.587   0.002 -0.4427 -0.3143  0.8003
  236DG     H15 5420   1.222   2.918  -0.298  1.0744 -0.1839  0.5482
  236DG     H16 5421   1.286   2.806  -0.398  0.3190  2.1356  0.9803
  236DG     C17 5422   1.294   2.649  -0.003 -0.5050 -0.2566  0.5157
  236DG     C18 5423   1.198   2.724  -0.206  0.0844  0.1844  0.8457
  236DG     O19 5424   1.309   2.725  -0.123 -0.4525  0.3631  0.1741
  236DG     H20 5425   1.218   2.695   0.060 -0.3139 -0.7254  1.0912
  236DG     H21 5426   1.256   2.553  -0.037  0.8379  0.0272 -2.0785
  236DG     H22 5427   1.112   2.758  -0.149  0.6501 -1.5572  2.9122
  236DG     H23 5428   1.176   2.620  -0.233  0.3891 -0.1283  1.7436
  237DG      C1 5429   3.392   1.381   0.221 -0.0379  0.0694  0.1485
  237DG      C2 5430   2.971   1.355   0.798  0.4487  0.0853 -0.0851
  237DG      H3 5431   3.438   1.476   0.247 -0.5245  0.6591 -1.0644
  237DG      H4 5432   3.299   1.412   0.172 -1.0570  0.2320  2.1116
  237DG      H5 5433   3.438   1.322   0.141 -0.2742  1.8719 -1.4074
  237DG      H6 5434   2.986   1.463   0.790  2.0281 -0.1198 -0.3932
  237DG      H7 5435   2.874   1.324   0.761  1.2012 -1.5956 -0.7842
  237DG      H8 5436   2.980   1.319   0.900  0.5176 -0.9875 -0.4500
  237DG      O9 5437   3.340   1.298   0.318 -0.3357  0.1463 -0.7110
  237DG     O10 5438   3.076   1.297   0.721  0.2852  0.5320  0.5278
  237DG     C11 5439   3.264   1.174   0.296 -0.3856 -0.3396  0.7810
  237DG     C12 5440   3.054   1.157   0.705 -0.8516 -0.7251  1.0432
  237DG     H13 5441   3.301   1.109   0.216  1.6613  0.2731  1.1662
  237DG     H14 5442   3.160   1.195   0.271 -0.5631 -0.9378  0.9887
  237DG     H15 5443   2.966   1.127   0.647 -0.1943  1.0829 -1.0142
  237DG     H16 5444   3.040   1.114   0.804 -1.8035 -0.1707  1.1650
  237DG     C17 5445   3.261   1.093   0.419 -0.2092  0.1915 -0.0967
  237DG     C18 5446   3.177   1.097   0.633 -0.6188 -0.4075  0.4716
  237DG     O19 5447   3.188   1.164   0.511  0.2390  0.1820 -0.8053
  237DG     H20 5448   3.357   1.065   0.462  0.2609  0.1707 -1.1461
  237DG     H21 5449   3.211   1.002   0.387 -1.6434  1.7483 -2.5731
  237DG     H22 5450   3.268   1.129   0.684 -0.0463 -0.0253 -0.7404
  237DG     H23 5451   3.184   0.988   0.624  1.2620 -0.3170  0.4714
  238DG      C1 5452   4.763   5.119   4.507 -0.4314 -0.8467  0.0768
  238DG      C2 5453   4.436   5.726   4.831  0.3229 -0.2680  0.1070
  238DG      H3 5454   4.774   5.063   4.414 -3.1031 -1.4230  0.0064
  238DG      H4 5455   4.665   5.092   4.546 -1.4887 -0.6999 -2.2820
  238DG      H5 5456   4.837   5.091   4.582 -0.5680  1.6182  1.2368
  238DG      H6 5457   4.384   5.820   4.809 -0.1316  0.2875  3.0582
  238DG      H7 5458   4.392   5.683   4.921  0.2382 -0.5980 -0.0903
  238DG      H8 5459   4.531   5.762   4.871  0.0797  1.0215 -0.4196
  238DG      O9 5460   4.763   5.261   4.482  0.1401 -0.3481 -0.4146
  238DG     O10 5461   4.431   5.623   4.737  0.3648  0.4319  0.2401
  238DG     C11 5462   4.661   5.291   4.384  0.9423 -1.3509 -0.3548
  238DG     C12 5463   4.519   5.645   4.636  0.6590  0.8179  0.4461
  238DG     H13 5464   4.567   5.258   4.429 -0.0582  2.3305  0.6092
  238DG     H14 5465   4.674   5.232   4.293  2.5566 -2.5396  0.5774
  238DG     H15 5466   4.617   5.647   4.683  0.2604 -1.5347  1.4986
  238DG     H16 5467   4.499   5.735   4.578  0.8644  0.8584  0.4357
  238DG     C17 5468   4.645   5.442   4.351 -0.5197  0.0203  0.6277
  238DG     C18 5469   4.520   5.523   4.541  0.2553  0.1048  0.7976
  238DG     O19 5470   4.638   5.525   4.463 -0.4342  0.5928 -0.6034
  238DG     H20 5471   4.555   5.449   4.291 -1.1273 -0.9803  1.4039
  238DG     H21 5472   4.723   5.483   4.286 -1.1875 -1.1228 -0.9289
  238DG     H22 5473   4.517   5.423   4.586  2.9612  0.5136  2.0910
  238DG     H23 5474   4.433   5.531   4.476 -0.4843  0.4100  1.7872
  239DG      C1 5475   4.244   0.858   4.070  0.9573  0.0214  0.3807
  239DG      C2 5476   4.452   0.827   3.457  0.4127  0.1273  0.1176
  239DG      H3 5477   4.225   0.963   4.089 -0.0493  0.1984 -1.4062
  239DG      H4 5478   4.261   0.798   4.159  1.3230 -0.9020 -0.2937
  239DG      H5 5479   4.155   0.827   4.015 -0.1467  1.3661  1.3393
  239DG      H6 5480   4.501   0.730   3.459  0.5300  0.0049 -3.2347
  239DG      H7 5481   4.346   0.804   3.451  0.6329 -0.6896 -0.9964
  239DG      H8 5482   4.486   0.868   3.362  3.5979 -3.5898 -0.6021
  239DG      O9 5483   4.357   0.857   3.982 -0.1857 -0.2632  0.0187
  239DG     O10 5484   4.473   0.917   3.568 -0.4259 -0.4730 -0.4750
  239DG     C11 5485   4.475   0.903   4.052 -1.2174  0.0496  0.3226
  239DG     C12 5486   4.607   0.953   3.581  0.1841  0.7934 -0.3814
  239DG     H13 5487   4.532   0.818   4.090  0.6539  1.2414  0.3244
  239DG     H14 5488   4.450   0.971   4.134 -1.3571 -2.0049  2.0828
  239DG     H15 5489   4.653   1.000   3.494 -0.5223 -0.0547 -1.2298
  239DG     H16 5490   4.652   0.854   3.593 -1.3071  0.1841  0.3604
  239DG     C17 5491   4.565   0.980   3.954 -0.3570  0.4031 -0.1677
  239DG     C18 5492   4.612   1.023   3.718  0.4670 -0.9405  0.2382
  239DG     O19 5493   4.546   0.939   3.816  0.3904  0.5986 -0.0049
  239DG     H20 5494   4.672   0.960   3.963 -0.4433 -1.5210 -2.3346
  239DG     H21 5495   4.544   1.087   3.959 -2.6162  0.1072 -1.8116
  239DG     H22 5496   4.716   1.044   3.739  0.0697  2.1672 -0.4818
  239DG     H23 5497   4.547   1.110   3.721  0.3903 -1.0263  1.5519
  240DG      C1 5498   2.167   1.846   0.991  0.1337  0.0447  0.0258
  240DG      C2 5499   1.723   2.357   1.270 -0.4028 -0.0576  0.0018
  240DG      H3 5500   2.251   1.895   1.039 -0.7934  2.6383 -0.8029
  240DG      H4 5501   2.193   1.853   0.885  0.8717 -0.3171  0.1780
  240DG      H5 5502   2.170   1.738   1.010  2.0760 -0.2663 -1.6991
  240DG      H6 5503   1.803   2.431   1.264  1.9541 -2.2767  1.7436
  240DG      H7 5504   1.665   2.344   1.178 -0.0276 -0.9410 -0.1203
  240DG      H8 5505   1.655   2.396   1.346  0.0514  0.2706  0.2431
  240DG      O9 5506   2.052   1.916   1.022  0.0044  0.6712 -0.2397
  240DG     O10 5507   1.767   2.231   1.327  0.2332 -0.1816  0.3437
  240DG     C11 5508   1.942   1.827   1.027 -0.1035  0.2675  0.2498
  240DG     C12 5509   1.673   2.130   1.311 -0.3041 -0.0158  0.0062
  240DG     H13 5510   1.936   1.758   1.111 -1.0473 -0.2352 -0.2111
  240DG     H14 5511   1.938   1.755   0.945 -1.9175 -1.4781  1.7544
  240DG     H15 5512   1.569   2.158   1.327 -0.7366 -1.7838  0.4744
  240DG     H16 5513   1.682   2.065   1.398 -0.0276  1.0306  0.7817
  240DG     C17 5514   1.809   1.909   1.039 -0.6900 -0.4906  0.9181
  240DG     C18 5515   1.692   2.056   1.180  0.2498 -0.1447 -0.4727
  240DG     O19 5516   1.799   1.963   1.165 -0.2999 -0.4684 -0.4177
  240DG     H20 5517   1.731   1.832   1.042 -0.3330 -0.8308  2.8792
  240DG     H21 5518   1.803   1.980   0.957  1.7021 -1.5471 -0.2563
  240DG     H22 5519   1.596   2.004   1.188  0.3420 -0.7114 -2.4903
  240DG     H23 5520   1.684   2.120   1.092 -0.1194 -1.2217 -1.2465
  241DG      C1 5521   4.649   0.199   5.165 -0.4090  0.1339  0.1500
  241DG      C2 5522   4.844   0.578   5.671 -0.5643  1.0066 -0.4059
  241DG      H3 5523   4.644   0.091   5.172  0.4657 -0.4168 -4.5690
  241DG      H4 5524   4.654   0.213   5.057 -0.9491 -2.7112 -0.3093
  241DG      H5 5525   4.552   0.238   5.196 -0.5952 -0.1686 -0.0493
  241DG      H6 5526   4.925   0.637   5.713  0.5631 -1.0095  0.3856
  241DG      H7 5527   4.762   0.640   5.635 -1.4629  0.1084  0.0518
  241DG      H8 5528   4.800   0.515   5.748  2.4114 -1.4069 -0.4921
  241DG      O9 5529   4.743   0.279   5.235 -0.1706  0.2087 -0.4626
  241DG     O10 5530   4.902   0.491   5.566 -0.1149  0.0019  0.2603
  241DG     C11 5531   4.868   0.207   5.218  0.2305 -0.0081  0.3156
  241DG     C12 5532   5.019   0.556   5.501  0.0347 -0.3699  1.1923
  241DG     H13 5533   4.907   0.220   5.117  0.6259 -1.1182  0.3205
  241DG     H14 5534   4.865   0.100   5.237  3.3792 -0.0486  1.1764
  241DG     H15 5535   5.094   0.591   5.571 -0.2636  1.4763  0.6380
  241DG     H16 5536   4.985   0.644   5.447  1.8094 -0.5162 -0.2749
  241DG     C17 5537   4.971   0.265   5.321 -0.1193  0.1227 -0.7884
  241DG     C18 5538   5.075   0.457   5.400 -0.0855  0.5336 -0.2380
  241DG     O19 5539   4.983   0.399   5.304  0.5007  0.1376 -0.1957
  241DG     H20 5540   5.071   0.228   5.299  0.6763  0.8573  1.3854
  241DG     H21 5541   4.941   0.248   5.425  1.5813  0.0418 -0.2920
  241DG     H22 5542   5.141   0.528   5.350 -1.0063  2.2824  0.9399
  241DG     H23 5543   5.138   0.381   5.447  1.6910  0.7375 -2.1667
  242DG      C1 5544   3.497   2.852   1.623  0.0775  0.6510 -0.1752
  242DG      C2 5545   4.080   2.601   1.829 -0.0868 -0.5352  0.5758
  242DG      H3 5546   3.561   2.871   1.537 -1.1141 -0.6783 -1.4003
  242DG      H4 5547   3.470   2.951   1.661  1.2053 -0.3226  3.6273
  242DG      H5 5548   3.418   2.793   1.577 -0.7611  1.0307  0.7432
  242DG      H6 5549   4.090   2.567   1.726 -2.1667  1.3008 -0.3010
  242DG      H7 5550   4.163   2.671   1.842 -0.3873 -0.1410  0.3916
  242DG      H8 5551   4.099   2.517   1.896  1.5762 -1.5592 -1.1039
  242DG      O9 5552   3.571   2.779   1.725  0.1545 -0.8436 -0.0697
  242DG     O10 5553   3.954   2.665   1.838 -0.2474  0.5714 -0.3294
  242DG     C11 5554   3.507   2.789   1.852 -1.0212  0.0553  0.3486
  242DG     C12 5555   3.927   2.694   1.975 -0.1725 -0.1318 -0.3741
  242DG     H13 5556   3.400   2.777   1.834 -0.8034 -1.5559  0.0392
  242DG     H14 5557   3.528   2.882   1.905  0.1662  0.2814 -0.4815
  242DG     H15 5558   3.992   2.772   2.014 -1.6122  1.2138 -0.5546
  242DG     H16 5559   3.940   2.604   2.036 -0.4305 -0.0370 -0.1733
  242DG     C17 5560   3.555   2.669   1.933 -0.2885  0.0844  0.1788
  242DG     C18 5561   3.780   2.745   1.986  0.5287  0.1386 -0.2247
  242DG     O19 5562   3.695   2.644   1.930 -0.2787  0.0314  1.1792
  242DG     H20 5563   3.509   2.576   1.899 -1.0450  0.2077  0.8454
  242DG     H21 5564   3.514   2.700   2.030  1.3694  1.5184  0.4602
  242DG     H22 5565   3.753   2.755   2.091 -0.2916 -3.7514  0.0762
  242DG     H23 5566   3.770   2.846   1.946  0.5025 -0.4420 -1.7795
  243DG      C1 5567   1.118   4.098   3.109 -0.1416 -0.1492  0.3380
  243DG      C2 5568   1.192   4.444   3.660  0.2829 -0.1752 -0.1298
  243DG      H3 5569   1.207   4.119   3.049  0.0317  0.2053  0.7157
  243DG      H4 5570   1.073   4.009   3.064 -0.3002  0.1788 -0.1515
  243DG      H5 5571   1.155   4.070   3.208  0.1502 -0.1223  0.2382
  243DG      H6 5572   1.106   4.427   3.725  1.1113  0.3329  1.1537
  243DG      H7 5573   1.261   4.363   3.683 -0.0807 -0.0566  1.5155
  243DG      H8 5574   1.229   4.541   3.694 -1.6497  1.2798 -1.9248
  243DG      O9 5575   1.046   4.215   3.115  0.0464 -0.7140 -0.1663
  243DG     O10 5576   1.159   4.462   3.520 -1.0581 -0.1849 -0.1920
  243DG     C11 5577   0.912   4.194   3.164  0.5921 -0.0996  0.9553
  243DG     C12 5578   1.035   4.522   3.508 -0.6151  0.3093  0.1167
  243DG     H13 5579   0.924   4.116   3.239 -1.6976 -1.9143 -0.4322
  243DG     H14 5580   0.844   4.161   3.084  1.0290 -0.4302  0.7142
  243DG     H15 5581   1.042   4.628   3.530 -1.3533  0.3524  0.1959
  243DG     H16 5582   0.968   4.474   3.580 -0.0945 -0.8831 -0.1755
  243DG     C17 5583   0.864   4.333   3.216 -0.0492 -0.1322 -0.1377
  243DG     C18 5584   0.986   4.501   3.359  0.8045  0.1805  0.1752
  243DG     O19 5585   0.954   4.361   3.330  0.4873  0.0376  0.0577
  243DG     H20 5586   0.764   4.340   3.260  0.0134 -0.8065  0.1216
  243DG     H21 5587   0.865   4.402   3.131 -0.8330  0.7773  0.5657
  243DG     H22 5588   0.890   4.552   3.357 -0.4323 -2.0053  0.2651
  243DG     H23 5589   1.041   4.549   3.279 -0.6939  0.0214 -0.9837
  244DG      C1 5590   2.008   3.484   0.706 -0.2924  0.7506  0.0812
  244DG      C2 5591   1.985   3.310   1.302 -0.3157 -0.4269 -0.1710
  244DG      H3 5592   2.052   3.414   0.635  1.9015  0.8654  1.2263
  244DG      H4 5593   2.094   3.537   0.747  0.0310 -1.0361  1.8653
  244DG      H5 5594   1.951   3.560   0.652  3.0733  2.9434 -0.7318
  244DG      H6 5595   2.076   3.277   1.253 -0.3242 -0.1170 -0.4016
  244DG      H7 5596   1.985   3.415   1.331 -0.4239 -0.4448 -0.1040
  244DG      H8 5597   1.978   3.252   1.395 -0.7450  1.4032  1.0017
  244DG      O9 5598   1.912   3.427   0.794 -0.2338 -0.1862 -0.5798
  244DG     O10 5599   1.877   3.287   1.219  0.3643  0.3471 -0.5396
  244DG     C11 5600   1.820   3.347   0.728  0.1271  0.2190  0.2246
  244DG     C12 5601   1.867   3.162   1.164  0.6030  0.7826  0.5890
  244DG     H13 5602   1.872   3.276   0.665 -0.0990  0.0389  0.2406
  244DG     H14 5603   1.753   3.397   0.657  0.2743  3.1172  1.9612
  244DG     H15 5604   1.853   3.089   1.243  0.3086 -0.1064 -0.2686
  244DG     H16 5605   1.957   3.120   1.118 -1.6765 -3.1347 -0.7296
  244DG     C17 5606   1.744   3.258   0.828  0.3394  0.7204 -0.0102
  244DG     C18 5607   1.767   3.162   1.049 -0.0273  0.1562  0.9001
  244DG     O19 5608   1.822   3.230   0.936 -0.0339  0.1607  0.4335
  244DG     H20 5609   1.728   3.159   0.784 -0.3069 -0.2447  2.2670
  244DG     H21 5610   1.650   3.300   0.862  0.3177  0.7849 -0.1480
  244DG     H22 5611   1.758   3.058   1.018 -1.8114  0.2076  1.1349
  244DG     H23 5612   1.668   3.203   1.068  0.7736  2.2091  0.9033
  245DG      C1 5613   3.653   0.461   0.043  0.3956  0.5849  0.2618
  245DG      C2 5614   3.199   0.582   0.545 -0.4314 -0.4070 -0.2864
  245DG      H3 5615   3.703   0.558   0.054 -0.0544  1.1300 -1.9559
  245DG      H4 5616   3.657   0.411  -0.054 -4.0892 -2.6820  1.4346
  245DG      H5 5617   3.702   0.400   0.119  0.3712  0.7542  0.4154
  245DG      H6 5618   3.117   0.512   0.528 -0.9279 -0.5960  2.5008
  245DG      H7 5619   3.255   0.521   0.616 -0.6219 -0.2908 -0.0361
  245DG      H8 5620   3.148   0.655   0.607  0.0173  0.4170 -0.8747
  245DG      O9 5621   3.514   0.499   0.069 -0.0855 -0.2252  0.4931
  245DG     O10 5622   3.267   0.632   0.435 -0.6449  0.2018  0.4978
  245DG     C11 5623   3.427   0.387   0.098 -0.4872  0.2612  0.3224
  245DG     C12 5624   3.189   0.691   0.331 -0.0048  0.5621  0.1701
  245DG     H13 5625   3.448   0.354   0.199 -0.7319  0.3889  0.4160
  245DG     H14 5626   3.441   0.311   0.022 -1.7748  2.8526 -2.7679
  245DG     H15 5627   3.249   0.765   0.278  1.7842 -0.7047  0.3437
  245DG     H16 5628   3.094   0.736   0.362 -2.1745 -3.7454  0.4412
  245DG     C17 5629   3.282   0.443   0.098  0.0374  0.2802  0.3121
  245DG     C18 5630   3.159   0.585   0.229 -0.2852 -0.4875 -0.5864
  245DG     O19 5631   3.282   0.521   0.208  0.0298  0.1970 -0.0810
  245DG     H20 5632   3.207   0.365   0.111 -0.3857  0.6568  0.1516
  245DG     H21 5633   3.249   0.488   0.004 -0.5624 -1.4692 -0.3650
  245DG     H22 5634   3.088   0.519   0.279 -0.3269  0.8500  1.2045
  245DG     H23 5635   3.115   0.631   0.140  2.3873 -0.1253 -1.8217
  246DG      C1 5636   3.242   4.636   1.843  0.5987  0.2480  0.6865
  246DG      C2 5637   2.861   5.154   1.617  1.1170  0.3269 -0.7916
  246DG      H3 5638   3.215   4.581   1.753  1.1298  0.2067  0.5455
  246DG      H4 5639   3.183   4.594   1.924 -1.6967  0.9105 -0.5802
  246DG      H5 5640   3.348   4.615   1.860  1.0629 -0.2531 -2.3131
  246DG      H6 5641   2.934   5.198   1.549  0.7428  0.3277 -1.1919
  246DG      H7 5642   2.797   5.084   1.564 -1.1133  4.7321 -4.6507
  246DG      H8 5643   2.794   5.237   1.641 -0.7978 -1.2666 -0.3759
  246DG      O9 5644   3.231   4.781   1.831 -0.2864  0.1370  0.0100
  246DG     O10 5645   2.915   5.095   1.736  0.2151 -0.1664  0.1982
  246DG     C11 5646   3.283   4.862   1.939  0.2750  0.2186 -0.6284
  246DG     C12 5647   2.952   5.198   1.824  0.0278  0.5940  0.2121
  246DG     H13 5648   3.358   4.914   1.880 -1.3195 -0.8513 -3.8131
  246DG     H14 5649   3.327   4.809   2.023  1.7762  1.2083 -0.7513
  246DG     H15 5650   2.868   5.258   1.859  1.3887  3.0142 -0.4066
  246DG     H16 5651   3.026   5.259   1.773  1.1638 -1.3607 -0.5972
  246DG     C17 5652   3.181   4.959   1.996 -0.2220  0.1062  0.6244
  246DG     C18 5653   3.029   5.140   1.935  0.2182 -0.5874 -0.4538
  246DG     O19 5654   3.113   5.033   1.897 -0.0807  0.0900 -0.3758
  246DG     H20 5655   3.239   5.026   2.059  2.0303  0.4391 -1.6460
  246DG     H21 5656   3.111   4.913   2.065 -1.5073  1.5775  0.3614
  246DG     H22 5657   3.090   5.215   1.985  0.0687 -0.2272 -0.8132
  246DG     H23 5658   2.966   5.104   2.017  0.0346 -0.1083 -0.3829
  247DG      C1 5659   0.649   5.248   1.347 -0.5617 -0.2225 -0.4642
  247DG      C2 5660   1.022   5.266   2.088  0.2319  0.0466  0.4607
  247DG      H3 5661   0.727   5.254   1.270 -1.3869  0.7525 -1.2519
  247DG      H4 5662   0.558   5.289   1.303 -0.2193  0.8068 -0.2416
  247DG      H5 5663   0.647   5.155   1.404 -0.9292  0.5897  0.9032
  247DG      H6 5664   1.047   5.312   2.183  3.1036  0.6187 -0.4744
  247DG      H7 5665   0.990   5.163   2.103  1.9072 -0.3584  1.5793
  247DG      H8 5666   1.111   5.261   2.025  1.8568  0.1203  2.6148
  247DG      O9 5667   0.677   5.336   1.456 -0.1642 -0.1064  0.2742
  247DG     O10 5668   0.934   5.349   2.015  0.6992  0.5584 -0.0061
  247DG     C11 5669   0.570   5.378   1.543 -0.2225  0.0787 -0.4047
  247DG     C12 5670   0.862   5.277   1.914  0.5828  0.3999  1.2967
  247DG     H13 5671   0.494   5.304   1.567  0.7508 -0.3741  1.4279
  247DG     H14 5672   0.506   5.454   1.499 -0.1370 -0.0091 -0.6810
  247DG     H15 5673   0.786   5.207   1.950  1.5287 -0.7345  1.1544
  247DG     H16 5674   0.929   5.216   1.854 -0.9432  1.7955 -2.0414
  247DG     C17 5675   0.629   5.433   1.669 -0.2352 -0.6333  0.8872
  247DG     C18 5676   0.792   5.385   1.830 -0.5871 -0.0838  0.0566
  247DG     O19 5677   0.701   5.331   1.738 -0.3308  0.3016 -0.1385
  247DG     H20 5678   0.557   5.479   1.737 -1.7890 -2.3458  0.4785
  247DG     H21 5679   0.694   5.509   1.626 -1.1400 -0.0072  0.6072
  247DG     H22 5680   0.723   5.442   1.893 -1.3356  1.0548 -1.6912
  247DG     H23 5681   0.865   5.455   1.788 -2.5013  0.7402 -2.1249
  248DG      C1 5682   5.243   0.198   3.642 -0.3237 -0.0764  0.3693
  248DG      C2 5683   5.017   0.182   3.086 -0.6913  0.6875  0.2447
  248DG      H3 5684   5.324   0.261   3.605 -1.3728  3.8297  3.8722
  248DG      H4 5685   5.267   0.092   3.632  1.4586  0.2345  1.0082
  248DG      H5 5686   5.242   0.220   3.749 -2.9702 -1.8436  0.8058
  248DG      H6 5687   5.041   0.088   3.038  0.0489  0.6240  0.7179
  248DG      H7 5688   4.927   0.225   3.043  0.5118  1.5182 -1.5300
  248DG      H8 5689   5.096   0.253   3.062  0.2560  0.5717  2.7114
  248DG      O9 5690   5.119   0.228   3.587  0.0085 -0.3596  0.2478
  248DG     O10 5691   5.010   0.164   3.225  0.2763  0.1488 -0.3091
  248DG     C11 5692   5.009   0.182   3.662  0.2910 -0.5664  0.0154
  248DG     C12 5693   4.908   0.067   3.266  0.4571 -0.5719  0.7796
  248DG     H13 5694   5.004   0.225   3.762  2.6613  0.1368 -0.1164
  248DG     H14 5695   5.010   0.074   3.677 -1.5003 -0.3983  1.7515
  248DG     H15 5696   4.948  -0.030   3.234  2.0091  0.6903 -1.3644
  248DG     H16 5697   4.817   0.082   3.208  0.6753  2.0005  0.9844
  248DG     C17 5698   4.878   0.227   3.594 -0.2901  0.3621  0.1813
  248DG     C18 5699   4.879   0.070   3.414  0.0560 -0.4931 -0.2342
  248DG     O19 5700   4.894   0.202   3.456 -0.2935 -0.0642  0.1589
  248DG     H20 5701   4.878   0.336   3.585 -0.1500  0.3389 -0.1161
  248DG     H21 5702   4.781   0.201   3.638 -0.3829 -0.0598 -0.2667
  248DG     H22 5703   4.782   0.021   3.421  0.2126 -0.6779  0.8578
  248DG     H23 5704   4.958   0.006   3.454 -1.8735 -1.6154  2.0983
  249DG      C1 5705   3.809   2.333   1.878 -0.5981 -0.4962 -0.2899
  249DG      C2 5706   3.932   2.890   1.587 -0.1801 -0.7097 -0.5363
  249DG      H3 5707   3.899   2.362   1.932  0.8672 -2.9709 -1.2580
  249DG      H4 5708   3.797   2.225   1.877  1.5572 -0.7876 -2.1269
  249DG      H5 5709   3.730   2.382   1.936  0.5026 -0.3651  1.1752
  249DG      H6 5710   4.031   2.885   1.631 -1.0390 -2.6168  1.3197
  249DG      H7 5711   3.935   2.965   1.507  1.8747 -0.6839 -0.4965
  249DG      H8 5712   3.864   2.926   1.664  0.4303  0.0141 -0.3255
  249DG      O9 5713   3.819   2.361   1.736 -1.0004  0.1599 -0.5832
  249DG     O10 5714   3.885   2.761   1.535  0.0561  0.2139  0.5183
  249DG     C11 5715   3.937   2.302   1.679  0.1910 -0.0375  0.1535
  249DG     C12 5716   3.996   2.708   1.456 -0.3012  0.1163  0.0328
  249DG     H13 5717   3.933   2.194   1.662  1.3774 -0.0414 -0.1719
  249DG     H14 5718   4.022   2.327   1.743  0.1050 -0.8958  0.6137
  249DG     H15 5719   4.093   2.723   1.504 -0.5187 -0.0381  0.5277
  249DG     H16 5720   4.000   2.761   1.361  0.0817 -1.9587 -1.1746
  249DG     C17 5721   3.960   2.355   1.540 -1.0388  0.0967  0.0322
  249DG     C18 5722   3.984   2.560   1.432  0.0743 -0.3149 -0.0708
  249DG     O19 5723   3.974   2.491   1.558  0.2601  0.2103  0.0047
  249DG     H20 5724   3.883   2.329   1.467 -0.4061 -0.6704 -0.3851
  249DG     H21 5725   4.061   2.328   1.508 -0.3696 -1.0330  2.7813
  249DG     H22 5726   3.901   2.535   1.366  0.0291  1.5423 -0.7871
  249DG     H23 5727   4.069   2.531   1.370 -0.5528 -1.6077 -0.3522
  250DG      C1 5728   2.264   1.182   3.125 -0.0899  0.0034 -0.4343
  250DG      C2 5729   1.736   1.529   3.325  0.0351 -0.8414 -0.1744
  250DG      H3 5730   2.328   1.268   3.146 -0.9923  1.5275 -3.3883
  250DG      H4 5731   2.335   1.111   3.083  2.2320  0.8835  1.7721
  250DG      H5 5732   2.218   1.132   3.210 -2.7497  0.7990 -1.2936
  250DG      H6 5733   1.831   1.582   3.334 -0.7264  0.3574  1.2443
  250DG      H7 5734   1.651   1.596   3.313  0.5363 -0.1270  0.1955
  250DG      H8 5735   1.709   1.472   3.413  0.1241 -2.6560 -1.2712
  250DG      O9 5736   2.174   1.244   3.039 -0.3742  0.6536  0.4121
  250DG     O10 5737   1.759   1.438   3.219 -0.5831 -0.4259 -0.8178
  250DG     C11 5738   2.069   1.157   3.006  0.1814  0.0697  0.7137
  250DG     C12 5739   1.749   1.503   3.098  0.1182  0.1787  0.3095
  250DG     H13 5740   2.031   1.101   3.091 -0.4317  0.3953  0.6596
  250DG     H14 5741   2.104   1.077   2.940  0.9494  0.4799  0.6200
  250DG     H15 5742   1.813   1.590   3.091  3.0177 -1.6735  1.8662
  250DG     H16 5743   1.646   1.536   3.089 -0.5901 -1.8182  0.4473
  250DG     C17 5744   1.951   1.230   2.930  1.1190 -0.0027  0.5711
  250DG     C18 5745   1.781   1.401   2.993 -0.0561  0.1021 -0.7454
  250DG     O19 5746   1.899   1.325   3.021  0.5355  0.3671 -0.5894
  250DG     H20 5747   1.886   1.152   2.890  1.7930 -0.5807  0.5764
  250DG     H21 5748   1.984   1.283   2.841  2.0937  1.3504  1.6983
  250DG     H22 5749   1.693   1.339   2.973  0.8349 -1.5152  0.1207
  250DG     H23 5750   1.813   1.443   2.898 -0.0118 -0.2676 -0.8960
  251DG      C1 5751   4.341   2.895   1.725 -0.1976  0.1014 -0.1440
  251DG      C2 5752   4.649   3.300   1.053  0.3695 -0.4151 -0.5196
  251DG      H3 5753   4.377   2.865   1.823  1.0451  0.6372 -0.4110
  251DG      H4 5754   4.280   2.815   1.683 -2.1799  1.4977 -0.0235
  251DG      H5 5755   4.277   2.976   1.760  0.7059  0.3361  1.0561
  251DG      H6 5756   4.542   3.317   1.065  0.3453 -0.7459 -0.2617
  251DG      H7 5757   4.705   3.394   1.054 -0.3003  0.0050  1.0818
  251DG      H8 5758   4.668   3.264   0.952  0.5152  0.8598 -0.9615
  251DG      O9 5759   4.436   2.956   1.641 -0.0733  0.2444  0.2323
  251DG     O10 5760   4.697   3.216   1.152  0.1914  0.1335  0.2208
  251DG     C11 5761   4.477   2.862   1.545  0.2830  0.2213  0.1708
  251DG     C12 5762   4.603   3.112   1.171 -0.5582  0.8965 -0.5158
  251DG     H13 5763   4.396   2.836   1.477 -1.3340  0.5919  1.8933
  251DG     H14 5764   4.516   2.772   1.593 -0.3395  0.3123  0.8522
  251DG     H15 5765   4.583   3.054   1.081  0.2048  0.0307 -0.1484
  251DG     H16 5766   4.511   3.145   1.219 -0.2337 -1.5906  2.0812
  251DG     C17 5767   4.601   2.899   1.473 -1.0724 -0.1022  0.3344
  251DG     C18 5768   4.669   3.013   1.268 -0.4184  0.4256  0.0002
  251DG     O19 5769   4.568   2.974   1.357  0.1547 -0.0830  0.1192
  251DG     H20 5770   4.653   2.805   1.459 -3.2309 -2.2298  4.7112
  251DG     H21 5771   4.662   2.963   1.537 -1.6361 -0.7334  1.5212
  251DG     H22 5772   4.718   2.932   1.215  0.0024  1.0816 -0.6335
  251DG     H23 5773   4.741   3.065   1.331 -2.6167  1.3976  1.8961
  252DG      C1 5774   2.008   1.781   1.439  0.6118  0.3150 -0.1954
  252DG      C2 5775   1.801   2.441   1.684  0.0025 -0.7341  0.2048
  252DG      H3 5776   1.996   1.812   1.335 -0.9186  2.8286  0.6411
  252DG      H4 5777   1.991   1.674   1.453  1.4826  0.1327 -0.4531
  252DG      H5 5778   2.114   1.791   1.464  0.4753 -0.4334  0.7390
  252DG      H6 5779   1.775   2.468   1.582 -1.7263  1.6013  1.1660
  252DG      H7 5780   1.734   2.484   1.759 -0.0319 -3.2822  1.7497
  252DG      H8 5781   1.897   2.490   1.702 -0.4012  0.5242 -0.9247
  252DG      O9 5782   1.923   1.860   1.524 -0.1702 -0.5301 -0.0579
  252DG     O10 5783   1.799   2.298   1.692  0.6951  0.1849  0.0615
  252DG     C11 5784   1.791   1.814   1.529  0.1477  0.5920  0.0936
  252DG     C12 5785   1.661   2.249   1.669 -0.0395  0.2915 -0.4156
  252DG     H13 5786   1.787   1.709   1.555 -0.1949  0.4884 -0.3695
  252DG     H14 5787   1.738   1.813   1.434 -0.4238 -0.7806  0.4104
  252DG     H15 5788   1.632   2.250   1.565 -0.9923 -1.1529 -0.1951
  252DG     H16 5789   1.591   2.315   1.720  1.8893  0.6065  2.0510
  252DG     C17 5790   1.727   1.885   1.653  0.0819  0.0740  0.6383
  252DG     C18 5791   1.650   2.109   1.721  0.4986  0.1560 -0.1388
  252DG     O19 5792   1.740   2.028   1.639  0.0923  0.9184 -0.0973
  252DG     H20 5793   1.764   1.862   1.753  0.4511  2.1849  1.0460
  252DG     H21 5794   1.622   1.856   1.651 -0.7691  2.8826  0.9732
  252DG     H22 5795   1.689   2.103   1.822 -0.4119 -0.7904  0.1890
  252DG     H23 5796   1.548   2.070   1.718 -0.3861  2.2488  0.7951
  253DG      C1 5797   0.127   5.098   0.682  0.7745  0.3046 -1.4566
  253DG      C2 5798   0.187   4.536   0.706  0.6015 -0.6082 -0.1916
  253DG      H3 5799   0.155   5.091   0.577  4.3547  0.3104 -0.6340
  253DG      H4 5800   0.196   5.031   0.734  0.5071  0.8604 -0.3746
  253DG      H5 5801   0.143   5.202   0.709  2.4302 -0.0578 -0.9479
  253DG      H6 5802   0.089   4.487   0.706 -0.1449  0.8515  0.1528
  253DG      H7 5803   0.266   4.463   0.684  1.0536  0.0141 -0.6615
  253DG      H8 5804   0.213   4.570   0.806  2.2046 -1.3224 -0.3322
  253DG      O9 5805  -0.011   5.081   0.708  0.3913 -0.1229  0.7775
  253DG     O10 5806   0.197   4.629   0.601 -0.1090 -0.1012 -0.0465
  253DG     C11 5807  -0.050   4.945   0.704 -0.2487  0.8366 -0.1095
  253DG     C12 5808   0.109   4.616   0.487  0.2740  0.4348 -0.1813
  253DG     H13 5809  -0.151   4.951   0.744  0.2080 -0.8118  1.4556
  253DG     H14 5810   0.017   4.888   0.769 -0.3059  0.1065 -0.6820
  253DG     H15 5811   0.004   4.600   0.511 -0.0336  0.2709 -1.5582
  253DG     H16 5812   0.150   4.540   0.421  1.0278  0.2312  0.5108
  253DG     C17 5813  -0.049   4.878   0.566 -0.7451 -0.0017  0.3992
  253DG     C18 5814   0.102   4.758   0.426  0.3548  0.7148  0.3470
  253DG     O19 5815   0.086   4.858   0.522 -0.4038 -0.2676  0.2585
  253DG     H20 5816  -0.104   4.941   0.496  0.9430 -0.1831 -1.1616
  253DG     H21 5817  -0.107   4.786   0.563 -2.4201  1.0267 -0.5846
  253DG     H22 5818   0.195   4.770   0.370  0.6342  1.0085  0.8637
  253DG     H23 5819   0.024   4.772   0.353  1.5849  0.6099 -1.0316
  254DG      C1 5820   1.768   0.387   5.042  0.1580  0.8417 -0.1103
  254DG      C2 5821   1.459  -0.297   4.723  0.0964 -0.0749  0.3291
  254DG      H3 5822   1.832   0.412   4.957 -0.4950  1.9056 -0.3094
  254DG      H4 5823   1.837   0.369   5.124 -0.8971  0.4450  0.7136
  254DG      H5 5824   1.703   0.471   5.067 -0.0166  0.3609  1.0880
  254DG      H6 5825   1.461  -0.402   4.693  1.1402  0.0673 -0.1706
  254DG      H7 5826   1.371  -0.297   4.788  0.5227  2.3920  1.0174
  254DG      H8 5827   1.444  -0.246   4.629  3.9703 -1.6102 -1.3637
  254DG      O9 5828   1.692   0.270   5.016  0.4015  0.1163  0.2223
  254DG     O10 5829   1.577  -0.257   4.799 -0.0503 -0.1851  0.0574
  254DG     C11 5830   1.605   0.294   4.902 -0.1957 -0.7850 -0.0599
  254DG     C12 5831   1.568  -0.124   4.848 -0.1407 -0.2789 -0.0410
  254DG     H13 5832   1.657   0.351   4.825 -0.8161  0.0554  0.1205
  254DG     H14 5833   1.522   0.358   4.934 -1.1291 -2.4136  0.9472
  254DG     H15 5834   1.637  -0.113   4.932 -1.6770 -1.5182  1.4810
  254DG     H16 5835   1.468  -0.092   4.877  0.1204  2.2889 -1.6970
  254DG     C17 5836   1.548   0.160   4.844  0.1678  0.1201  0.3187
  254DG     C18 5837   1.618  -0.033   4.734 -0.0442 -0.8004  0.1856
  254DG     O19 5838   1.662   0.082   4.800 -0.2731 -0.0989  0.1219
  254DG     H20 5839   1.498   0.192   4.752  2.5266  1.2572 -0.6732
  254DG     H21 5840   1.490   0.108   4.920  2.1434 -1.7477  0.6380
  254DG     H22 5841   1.701  -0.081   4.683 -0.8175 -1.0396 -0.8807
  254DG     H23 5842   1.551  -0.008   4.652 -0.1116  0.4829  0.5965
  255DG      C1 5843   4.946   2.586   2.236 -0.0601 -0.4509  0.3279
  255DG      C2 5844   5.111   3.352   2.313 -0.0453 -0.5725  0.1192
  255DG      H3 5845   4.900   2.517   2.165 -0.8919 -1.3491  1.6899
  255DG      H4 5846   4.890   2.580   2.329 -0.0802 -2.2139  0.2376
  255DG      H5 5847   5.039   2.534   2.262  0.3258  0.9220  1.8153
  255DG      H6 5848   5.123   3.301   2.408 -1.6328  2.2215  1.9633
  255DG      H7 5849   5.212   3.363   2.272 -0.7250  0.8269 -1.2920
  255DG      H8 5850   5.081   3.453   2.341  1.5490 -0.1733  0.5003
  255DG      O9 5851   4.968   2.721   2.185 -0.5622 -0.4222  0.1835
  255DG     O10 5852   5.039   3.280   2.216 -0.5868 -0.4038  0.3956
  255DG     C11 5853   5.034   2.803   2.276 -0.2277 -0.4333  0.2874
  255DG     C12 5854   4.918   3.227   2.263  0.6824 -0.1993 -0.3596
  255DG     H13 5855   5.132   2.759   2.297 -0.1087 -0.1567  0.3077
  255DG     H14 5856   4.986   2.809   2.374  1.6986 -0.7962  1.3063
  255DG     H15 5857   4.850   3.310   2.281 -1.1356 -2.0329  1.8852
  255DG     H16 5858   4.935   3.179   2.359 -1.8885 -0.3059  0.0999
  255DG     C17 5859   5.038   2.951   2.223 -0.0776  0.0562  0.3175
  255DG     C18 5860   4.867   3.119   2.164  0.0073 -0.5607  0.0679
  255DG     O19 5861   4.900   2.992   2.218 -0.3330  0.2029  0.2549
  255DG     H20 5862   5.072   2.958   2.120  0.3113 -1.7995  0.2886
  255DG     H21 5863   5.103   3.020   2.276  0.7623 -0.7075  0.3001
  255DG     H22 5864   4.758   3.122   2.160  0.0049 -0.7123 -0.0193
  255DG     H23 5865   4.898   3.145   2.062 -1.6776  1.9622  0.1085
  256DG      C1 5866   2.762   3.170   1.636  0.0569  0.0195  0.2334
  256DG      C2 5867   2.999   3.276   2.261 -0.5780 -0.1662 -0.3352
  256DG      H3 5868   2.751   3.175   1.528 -0.6037  1.1375  0.3298
  256DG      H4 5869   2.668   3.212   1.674 -1.2745 -0.6041 -2.1556
  256DG      H5 5870   2.757   3.065   1.665  0.5687  0.2557  1.2181
  256DG      H6 5871   2.925   3.341   2.307  1.6964  3.4578 -1.3356
  256DG      H7 5872   2.952   3.179   2.251  0.2344 -0.6521  0.4372
  256DG      H8 5873   3.092   3.284   2.318 -0.0669  1.4322 -1.3260
  256DG      O9 5874   2.878   3.245   1.683  0.2685 -0.3542 -0.2516
  256DG     O10 5875   3.011   3.310   2.126 -0.2964  0.1078  0.4107
  256DG     C11 5876   2.846   3.382   1.681 -0.2771 -0.6162  1.1820
  256DG     C12 5877   3.062   3.443   2.108 -0.5762  0.3164  0.3799
  256DG     H13 5878   2.755   3.411   1.734 -1.1535  1.9246 -1.4607
  256DG     H14 5879   2.824   3.434   1.588  0.6329 -0.8961  0.8086
  256DG     H15 5880   3.149   3.452   2.174 -1.6472 -0.8292  2.0360
  256DG     H16 5881   2.997   3.525   2.136 -0.3439 -0.0257  2.0517
  256DG     C17 5882   2.953   3.461   1.756 -0.4729  1.2165 -0.5783
  256DG     C18 5883   3.082   3.460   1.956  0.0350 -0.0728 -0.2780
  256DG     O19 5884   2.954   3.432   1.890  0.2807  0.0120 -0.4937
  256DG     H20 5885   2.942   3.568   1.743  1.8986  1.8835  2.0024
  256DG     H21 5886   3.047   3.431   1.711  0.3692  0.4166  1.5995
  256DG     H22 5887   3.110   3.565   1.945  0.2393 -0.0807  0.1771
  256DG     H23 5888   3.157   3.388   1.923 -0.7764 -2.2033  2.1810
  257DG      C1 5889   1.963   4.868   0.628  0.3418 -0.7328  0.1293
  257DG      C2 5890   1.474   5.253   0.616  0.2741 -0.1157 -0.1378
  257DG      H3 5891   2.033   4.878   0.545  1.6130 -1.6477  1.0363
  257DG      H4 5892   1.880   4.937   0.620  0.9002 -0.2669 -2.2184
  257DG      H5 5893   1.912   4.773   0.613 -0.4160 -0.4136  0.6230
  257DG      H6 5894   1.487   5.183   0.533 -0.3515  1.9757 -2.0878
  257DG      H7 5895   1.368   5.274   0.625  0.5475  1.6501 -0.7099
  257DG      H8 5896   1.518   5.341   0.568  1.4189 -1.2191 -1.1850
  257DG      O9 5897   2.044   4.876   0.753 -0.2683  0.1643 -0.1756
  257DG     O10 5898   1.531   5.203   0.741  0.4025  0.1521 -0.3881
  257DG     C11 5899   1.962   4.896   0.869  0.0909  0.1298  0.2745
  257DG     C12 5900   1.673   5.181   0.721  0.0571  0.3967  0.0249
  257DG     H13 5901   2.007   4.845   0.954  0.5749  0.0442 -0.0290
  257DG     H14 5902   1.872   4.836   0.853  0.7378 -0.5638 -0.9476
  257DG     H15 5903   1.720   5.277   0.743 -0.1902  0.7225 -0.7974
  257DG     H16 5904   1.701   5.152   0.619 -2.0212 -1.7430 -0.0085
  257DG     C17 5905   1.942   5.039   0.916 -0.0036 -0.3967 -0.4906
  257DG     C18 5906   1.734   5.090   0.829 -0.6238  0.9193  0.3715
  257DG     O19 5907   1.875   5.113   0.815  0.1346  0.2984 -0.0352
  257DG     H20 5908   2.041   5.083   0.929 -0.4846  0.3068  0.9254
  257DG     H21 5909   1.890   5.028   1.011  0.8838 -0.9694 -0.0599
  257DG     H22 5910   1.697   5.116   0.928  2.3712  0.4325  1.7304
  257DG     H23 5911   1.704   4.987   0.808  0.7352  0.6719 -0.4881
  258DG      C1 5912   0.653   5.111   2.664 -0.6872  0.1747  0.5884
  258DG      C2 5913   0.731   4.445   2.409 -0.3968 -0.0203  1.1152
  258DG      H3 5914   0.635   5.119   2.557  1.4341 -1.0379  0.0888
  258DG      H4 5915   0.746   5.162   2.691 -0.3381 -0.7364  1.1304
  258DG      H5 5916   0.577   5.165   2.720 -1.5978 -0.7497  0.2659
  258DG      H6 5917   0.738   4.347   2.458  4.6091  1.0143  3.0042
  258DG      H7 5918   0.662   4.448   2.325  1.6528  0.6555 -0.6203
  258DG      H8 5919   0.828   4.473   2.368 -0.6942 -1.6014 -0.8060
  258DG      O9 5920   0.642   4.975   2.702  0.6142 -0.0564 -0.0185
  258DG     O10 5921   0.693   4.534   2.512 -0.1145 -0.5594  0.3251
  258DG     C11 5922   0.505   4.933   2.709  0.2949  0.8567  0.1293
  258DG     C12 5923   0.570   4.486   2.576  0.2479  0.3099 -0.2693
  258DG     H13 5924   0.467   4.949   2.608  0.5660 -0.4937 -0.2095
  258DG     H14 5925   0.447   5.009   2.763 -0.9309 -2.8892  4.7410
  258DG     H15 5926   0.572   4.379   2.594  0.2776  0.4042  0.2869
  258DG     H16 5927   0.498   4.509   2.497 -0.8946  1.1667  0.9799
  258DG     C17 5928   0.488   4.789   2.757 -0.2748  0.0749  0.1961
  258DG     C18 5929   0.537   4.561   2.704 -0.0907 -0.4650  0.2843
  258DG     O19 5930   0.535   4.698   2.658 -0.1201  0.4037 -0.0197
  258DG     H20 5931   0.379   4.789   2.761 -0.3677  2.7018 -0.4434
  258DG     H21 5932   0.530   4.773   2.856 -0.7716  0.8963  0.5473
  258DG     H22 5933   0.437   4.540   2.742  1.0195 -0.7893  3.2931
  258DG     H23 5934   0.609   4.546   2.784 -0.5846  0.8829  1.0183
  259DG      C1 5935   1.171   1.674   4.497 -0.2523 -0.0836  0.7887
  259DG      C2 5936   1.622   1.374   4.850  0.7942  0.2247  0.0419
  259DG      H3 5937   1.098   1.753   4.515  0.3138  0.3751  1.0822
  259DG      H4 5938   1.160   1.611   4.409 -0.2008  1.3361 -0.2742
  259DG      H5 5939   1.262   1.727   4.468 -0.4931  1.0061  1.9210
  259DG      H6 5940   1.629   1.448   4.928 -0.5775 -0.7781  1.1695
  259DG      H7 5941   1.651   1.274   4.884  0.7727 -1.1666 -3.5188
  259DG      H8 5942   1.692   1.410   4.774  0.3918  1.2857  0.1659
  259DG      O9 5943   1.195   1.614   4.619 -0.4966 -0.6412  0.3012
  259DG     O10 5944   1.493   1.377   4.799 -0.2716 -0.0473  0.2692
  259DG     C11 5945   1.081   1.537   4.659 -0.7132  0.8612 -0.3663
  259DG     C12 5946   1.401   1.340   4.898  0.5291 -0.5235 -1.0030
  259DG     H13 5947   1.061   1.465   4.580  1.3870 -0.6724  0.4068
  259DG     H14 5948   0.994   1.600   4.679 -1.3346 -0.3881  1.1186
  259DG     H15 5949   1.378   1.426   4.960  0.3649 -1.6690  0.5825
  259DG     H16 5950   1.438   1.262   4.964 -0.4788 -1.9655 -2.0803
  259DG     C17 5951   1.123   1.444   4.781  0.1347 -0.1331  0.7162
  259DG     C18 5952   1.273   1.287   4.833  0.1085  0.3555 -0.1839
  259DG     O19 5953   1.239   1.385   4.735  0.2281 -0.2616  0.1301
  259DG     H20 5954   1.051   1.362   4.785  0.0421 -0.3415 -2.6797
  259DG     H21 5955   1.130   1.500   4.875 -0.5856 -2.0618  1.9936
  259DG     H22 5956   1.306   1.193   4.789 -1.3384 -0.7039  0.8709
  259DG     H23 5957   1.204   1.262   4.914  0.6095  3.3545  1.3383
  260DG      C1 5958   2.812   4.623   2.474  0.3880 -0.1901 -0.1398
  260DG      C2 5959   2.697   4.446   2.908  0.2156  0.1564 -0.0442
  260DG      H3 5960   2.808   4.667   2.375  0.3509 -0.4333 -0.2475
  260DG      H4 5961   2.801   4.515   2.459  0.8747 -0.3174  0.3492
  260DG      H5 5962   2.912   4.643   2.514  0.3159  0.8759 -0.4716
  260DG      H6 5963   2.762   4.499   2.838  0.5944  0.4972  0.5649
  260DG      H7 5964   2.760   4.440   2.996 -0.1109  0.2971  0.2005
  260DG      H8 5965   2.690   4.344   2.870  1.0724  0.6025 -1.5264
  260DG      O9 5966   2.713   4.684   2.557 -0.0243  0.7840 -0.1733
  260DG     O10 5967   2.566   4.503   2.920 -0.0608  0.2740 -0.3068
  260DG     C11 5968   2.581   4.679   2.499  0.0386  0.1979 -0.2175
  260DG     C12 5969   2.561   4.639   2.960  0.1546 -0.1863 -0.2406
  260DG     H13 5970   2.557   4.574   2.477  1.2506 -0.6243  2.0823
  260DG     H14 5971   2.584   4.743   2.411  1.8636  0.9834  0.3676
  260DG     H15 5972   2.631   4.669   3.039 -2.1891 -1.0296  2.3393
  260DG     H16 5973   2.468   4.646   3.018 -0.6104 -0.0210 -1.4460
  260DG     C17 5974   2.497   4.755   2.606 -0.1106  0.0375  0.4339
  260DG     C18 5975   2.560   4.742   2.839  0.5818 -0.4299 -0.0393
  260DG     O19 5976   2.502   4.677   2.728  0.0006 -0.2566  0.0278
  260DG     H20 5977   2.397   4.777   2.569 -0.3009  2.7842  2.2756
  260DG     H21 5978   2.542   4.854   2.622 -0.5744  0.1973  0.7475
  260DG     H22 5979   2.501   4.834   2.849 -1.0082 -1.4651  0.4896
  260DG     H23 5980   2.658   4.771   2.803  0.3396 -0.8496 -1.0528
  261DG      C1 5981   1.965   5.073   4.402  0.3394 -0.1327 -0.1607
  261DG      C2 5982   1.517   5.401   4.207 -0.3427  0.6015  0.0700
  261DG      H3 5983   1.912   4.987   4.360 -1.0236  0.5373  0.1372
  261DG      H4 5984   1.917   5.084   4.499  0.2282  2.7627 -0.4723
  261DG      H5 5985   2.063   5.042   4.438 -0.4144 -1.8901  0.4827
  261DG      H6 5986   1.479   5.393   4.309 -2.5574 -0.5330 -0.7856
  261DG      H7 5987   1.455   5.473   4.155 -1.3502 -0.9605 -0.9918
  261DG      H8 5988   1.494   5.310   4.151 -0.5742  0.8441 -0.2277
  261DG      O9 5989   1.969   5.186   4.320 -0.0301 -0.1521  0.0698
  261DG     O10 5990   1.657   5.425   4.193  0.2083  0.9343  0.3461
  261DG     C11 5991   2.076   5.274   4.335 -0.2957 -0.8108 -0.0798
  261DG     C12 5992   1.701   5.538   4.262 -0.1454 -0.7372 -0.5282
  261DG     H13 5993   2.169   5.243   4.287 -0.4932  0.0149 -1.0422
  261DG     H14 5994   2.091   5.291   4.442 -1.9451  2.0754 -0.2005
  261DG     H15 5995   1.691   5.524   4.370 -1.1577 -1.0246 -0.6464
  261DG     H16 5996   1.656   5.632   4.230  1.6091  0.8236  1.2731
  261DG     C17 5997   2.043   5.412   4.278  0.1824  0.2138 -0.4747
  261DG     C18 5998   1.854   5.547   4.238  0.2282 -0.6869  0.1846
  261DG     O19 5999   1.908   5.444   4.317 -0.2118  0.1265  0.2594
  261DG     H20 6000   2.053   5.423   4.170  0.6087 -1.2118 -0.5989
  261DG     H21 6001   2.109   5.480   4.332  0.9884 -1.5171  0.8088
  261DG     H22 6002   1.867   5.549   4.130  0.1750  2.3297  0.1537
  261DG     H23 6003   1.878   5.649   4.268 -0.2598 -0.2861 -0.7325
  262DG      C1 6004   1.983   1.973   4.503 -0.0459  0.5676  0.5608
  262DG      C2 6005   2.115   2.619   4.485 -0.2272  0.2642  0.6679
  262DG      H3 6006   1.887   1.982   4.453 -0.2360 -1.0981  0.5740
  262DG      H4 6007   1.961   1.981   4.610  0.6263 -1.8715  0.9322
  262DG      H5 6008   2.021   1.873   4.482 -1.3108 -0.2291  1.9008
  262DG      H6 6009   2.158   2.719   4.490 -0.8639  0.7282 -1.5676
  262DG      H7 6010   2.041   2.617   4.405 -1.2863 -0.1685  1.6510
  262DG      H8 6011   2.036   2.613   4.559 -1.8843  1.2490 -0.9212
  262DG      O9 6012   2.061   2.084   4.486  0.2669 -0.3955 -0.2124
  262DG     O10 6013   2.198   2.504   4.488 -0.5670 -0.2878  0.4715
  262DG     C11 6014   2.123   2.081   4.362  0.0653 -0.2495 -0.2381
  262DG     C12 6015   2.286   2.492   4.376 -0.0044  0.2930  0.2169
  262DG     H13 6016   2.051   2.079   4.281  0.4326 -0.4572 -0.5627
  262DG     H14 6017   2.196   2.001   4.352  0.4260  0.0356  0.0633
  262DG     H15 6018   2.342   2.585   4.385 -0.1287  0.3431  0.4992
  262DG     H16 6019   2.229   2.495   4.284  0.2466 -0.9676  0.0060
  262DG     C17 6020   2.206   2.208   4.326  0.3894  0.4550 -0.4514
  262DG     C18 6021   2.373   2.364   4.386  0.0147 -0.0856 -0.7968
  262DG     O19 6022   2.292   2.256   4.434 -0.0496 -0.1719  0.5760
  262DG     H20 6023   2.139   2.286   4.290 -0.0851 -0.4628 -1.6233
  262DG     H21 6024   2.265   2.177   4.239  0.3289  3.6825 -1.7989
  262DG     H22 6025   2.427   2.347   4.292  0.6879  0.6156 -0.5478
  262DG     H23 6026   2.449   2.380   4.463 -1.1885  0.2088  0.3676
  263DG      C1 6027   2.960   0.416   4.851  0.0388  0.1232 -0.7209
  263DG      C2 6028   2.458   0.006   5.121 -0.4250  0.3368  0.2053
  263DG      H3 6029   2.931   0.394   4.953 -1.0396 -0.3179 -1.1006
  263DG      H4 6030   2.951   0.525   4.849  0.5499  0.2523  1.6626
  263DG      H5 6031   3.062   0.383   4.835 -0.6286 -1.7536 -1.3763
  263DG      H6 6032   2.442   0.108   5.157  0.1620  2.0547 -3.8530
  263DG      H7 6033   2.366  -0.051   5.110 -0.3860  0.3276 -0.0739
  263DG      H8 6034   2.519  -0.052   5.190 -1.1590  0.0086  0.5925
  263DG      O9 6035   2.874   0.340   4.769 -1.1619  0.4188 -0.1553
  263DG     O10 6036   2.531   0.015   5.000  0.2331 -0.2252 -0.0076
  263DG     C11 6037   2.743   0.391   4.738  0.0409  0.5669 -0.3507
  263DG     C12 6038   2.456   0.057   4.883  0.4191 -0.7820 -0.2406
  263DG     H13 6039   2.746   0.470   4.664 -1.6905 -0.6033 -1.7262
  263DG     H14 6040   2.694   0.444   4.819  1.1222 -0.1565  0.8208
  263DG     H15 6041   2.403   0.149   4.905  1.6569  0.0822 -0.7599
  263DG     H16 6042   2.380  -0.018   4.859 -0.2001 -0.0806 -0.4979
  263DG     C17 6043   2.666   0.268   4.684 -0.8978 -1.3256  0.2368
  263DG     C18 6044   2.544   0.080   4.760 -1.2020  0.2452 -0.0954
  263DG     O19 6045   2.620   0.194   4.793  0.0581  0.3502  0.2159
  263DG     H20 6046   2.730   0.207   4.621  0.5694 -0.9674  1.3259
  263DG     H21 6047   2.581   0.292   4.621  0.3300 -0.9068 -1.3149
  263DG     H22 6048   2.615  -0.000   4.741 -0.0144  1.1206  0.5613
  263DG     H23 6049   2.486   0.095   4.668 -2.0301 -1.5878  0.0827
  264DG      C1 6050   3.534   3.551   3.664 -0.1678 -0.7244 -0.1189
  264DG      C2 6051   4.085   4.176   3.555 -0.6485  0.8964 -0.0936
  264DG      H3 6052   3.620   3.506   3.614  0.1762 -0.9765  0.6739
  264DG      H4 6053   3.469   3.577   3.580  0.7233 -0.8118 -0.8500
  264DG      H5 6054   3.492   3.480   3.736 -0.4297  1.2000  1.7302
  264DG      H6 6055   4.100   4.274   3.600  1.2580  0.6183 -0.0398
  264DG      H7 6056   4.184   4.146   3.521 -1.0078  0.6673 -0.9655
  264DG      H8 6057   4.032   4.180   3.460  0.5226 -1.4731 -0.9433
  264DG      O9 6058   3.565   3.672   3.734  0.1381 -0.8859 -0.2929
  264DG     O10 6059   4.033   4.084   3.651  0.7039 -0.4922  0.2537
  264DG     C11 6060   3.666   3.759   3.681  0.7379 -0.4156 -0.4801
  264DG     C12 6061   3.930   4.133   3.737  0.1009  0.4297  0.3564
  264DG     H13 6062   3.630   3.819   3.597  1.6144 -0.0096 -0.5724
  264DG     H14 6063   3.748   3.693   3.652  0.1630 -1.7874  0.9078
  264DG     H15 6064   3.855   4.165   3.665 -0.5839 -0.7739  0.5054
  264DG     H16 6065   3.967   4.225   3.781 -0.9180  1.9492 -1.7585
  264DG     C17 6066   3.727   3.840   3.796  0.1239 -0.7523  0.2045
  264DG     C18 6067   3.871   4.018   3.827 -0.3011 -0.5790  0.0208
  264DG     O19 6068   3.831   3.919   3.740 -0.0862 -0.4352  0.0714
  264DG     H20 6069   3.772   3.771   3.867 -0.0891 -1.2181 -0.1046
  264DG     H21 6070   3.657   3.906   3.848  1.7870 -0.1038  1.7130
  264DG     H22 6071   3.956   3.990   3.889  1.5930 -1.5103 -2.7537
  264DG     H23 6072   3.793   4.066   3.886  2.1104  1.8552  1.4093
  265DG      C1 6073   0.862   4.685   1.349  0.2693 -0.4044 -0.1843
  265DG      C2 6074   1.244   5.329   1.701 -0.1972 -0.4324  0.5635
  265DG      H3 6075   0.771   4.670   1.407  0.8182 -0.2092  0.7466
  265DG      H4 6076   0.924   4.602   1.384 -0.6808 -0.3541  1.7389
  265DG      H5 6077   0.848   4.676   1.242 -1.5481 -2.1096  0.1426
  265DG      H6 6078   1.247   5.356   1.596  0.3851  1.4056  1.0204
  265DG      H7 6079   1.167   5.391   1.747  1.4409  3.7510 -1.7493
  265DG      H8 6080   1.334   5.356   1.756 -1.1514 -0.3254  2.1375
  265DG      O9 6081   0.912   4.818   1.376  0.9901  0.1874 -0.5237
  265DG     O10 6082   1.207   5.200   1.726 -0.5484  0.8968  0.1589
  265DG     C11 6083   0.934   4.857   1.514  0.0398 -0.1609 -0.5427
  265DG     C12 6084   1.290   5.104   1.667  0.4401  0.8821 -0.5073
  265DG     H13 6085   0.909   4.781   1.588 -1.3564  0.3581 -0.4371
  265DG     H14 6086   0.872   4.943   1.539  0.9024  0.6320 -1.0829
  265DG     H15 6087   1.383   5.090   1.721  0.9826 -1.3401 -1.8631
  265DG     H16 6088   1.304   5.112   1.559 -1.4845  1.1146 -0.7778
  265DG     C17 6089   1.077   4.905   1.532  0.6123  0.1497 -0.7728
  265DG     C18 6090   1.237   4.961   1.707  0.0700  0.5572  0.2672
  265DG     O19 6091   1.095   4.949   1.671 -0.7421  0.2861  0.1317
  265DG     H20 6092   1.069   5.000   1.479 -0.8021 -0.7509 -2.2629
  265DG     H21 6093   1.144   4.827   1.498 -1.0362 -1.1352 -1.1698
  265DG     H22 6094   1.299   4.889   1.655 -1.2348  0.4761 -1.2560
  265DG     H23 6095   1.247   4.948   1.815  0.8692 -1.1204  0.0235
  266DG      C1 6096   0.751   2.768   0.117 -0.0062 -0.0714 -0.0975
  266DG      C2 6097   0.089   2.618   0.264  0.4289 -0.5250 -0.2583
  266DG      H3 6098   0.820   2.684   0.122 -0.8396 -0.8816 -1.5594
  266DG      H4 6099   0.780   2.825   0.206 -1.8704  2.3375 -0.9175
  266DG      H5 6100   0.768   2.825   0.026 -2.4673  0.3718 -0.3543
  266DG      H6 6101   0.160   2.697   0.289 -0.6636  0.9676 -1.7037
  266DG      H7 6102   0.021   2.658   0.189  2.1818  2.9978 -0.1579
  266DG      H8 6103   0.033   2.601   0.356 -0.9122  1.9643 -0.5211
  266DG      O9 6104   0.608   2.737   0.120  0.3188  0.8840 -0.1036
  266DG     O10 6105   0.148   2.496   0.234  0.2893  0.0419  0.1044
  266DG     C11 6106   0.588   2.620   0.200 -0.3122  0.4748  0.5542
  266DG     C12 6107   0.165   2.472   0.093  0.0544 -0.1214  0.3493
  266DG     H13 6108   0.604   2.645   0.305  0.7645  0.0067  0.5136
  266DG     H14 6109   0.665   2.546   0.177 -0.4751  0.0943  1.2055
  266DG     H15 6110   0.063   2.480   0.057 -1.0733 -1.4126  3.0289
  266DG     H16 6111   0.179   2.366   0.072  1.7485 -0.1473  1.3858
  266DG     C17 6112   0.439   2.574   0.191  0.1603  0.0137 -0.2605
  266DG     C18 6113   0.266   2.564   0.017  0.1376  0.3728 -0.1130
  266DG     O19 6114   0.400   2.539   0.058  0.7251 -1.0393 -0.1681
  266DG     H20 6115   0.374   2.652   0.232  2.0237  0.1588  2.6498
  266DG     H21 6116   0.418   2.488   0.255  0.1806  1.3136  1.5505
  266DG     H22 6117   0.263   2.551  -0.091 -1.4879  1.0291 -0.1838
  266DG     H23 6118   0.242   2.669   0.027  0.0349  0.3225  0.1857
  267DG      C1 6119   0.541   1.112   5.160 -0.4601  0.3853 -0.3081
  267DG      C2 6120   0.011   1.718   5.401  0.4865 -0.2377 -0.1002
  267DG      H3 6121   0.650   1.101   5.162 -0.3587  1.3566  1.6006
  267DG      H4 6122   0.510   1.092   5.057 -2.8123 -0.3753  0.4990
  267DG      H5 6123   0.502   1.032   5.222 -1.1952  0.3016 -0.8610
  267DG      H6 6124   0.008   1.776   5.309 -2.7210  0.1014  0.1118
  267DG      H7 6125  -0.061   1.637   5.403  0.6768 -0.4436  3.0908
  267DG      H8 6126  -0.017   1.786   5.482 -0.8315 -0.9109  0.0199
  267DG      O9 6127   0.505   1.242   5.199 -0.4946 -0.3190  0.1918
  267DG     O10 6128   0.145   1.680   5.438 -0.0045 -0.0903 -0.5728
  267DG     C11 6129   0.566   1.286   5.325  0.4003  0.4117 -0.2987
  267DG     C12 6130   0.196   1.571   5.363 -0.0572 -0.5467  0.2733
  267DG     H13 6131   0.671   1.257   5.331 -0.4959 -3.0216  1.0153
  267DG     H14 6132   0.521   1.229   5.406 -0.0482  1.0439 -0.0903
  267DG     H15 6133   0.160   1.580   5.260  1.2988 -0.0059 -0.1715
  267DG     H16 6134   0.159   1.494   5.431  0.4288 -1.7357 -0.7788
  267DG     C17 6135   0.525   1.433   5.347  0.8224 -0.1428  0.1102
  267DG     C18 6136   0.346   1.566   5.379  0.0644  0.2562 -0.7202
  267DG     O19 6137   0.389   1.443   5.337  0.3680 -0.2133  0.7448
  267DG     H20 6138   0.555   1.488   5.258  1.9620  1.0618  1.1969
  267DG     H21 6139   0.559   1.473   5.443 -0.9404  0.6681  0.4450
  267DG     H22 6140   0.388   1.655   5.332 -0.5330  0.8291 -0.1844
  267DG     H23 6141   0.373   1.565   5.485 -2.0045 -2.6850 -0.1132
  268DG      C1 6142   2.363   2.499   4.809  0.1894  0.6209 -0.0318
  268DG      C2 6143   1.790   2.409   4.377 -0.7356 -0.1526  0.7171
  268DG      H3 6144   2.361   2.590   4.749 -0.0106  1.9298  1.8492
  268DG      H4 6145   2.443   2.429   4.784 -0.9193 -0.3958 -0.8478
  268DG      H5 6146   2.395   2.530   4.909  1.5597 -2.5702  0.6509
  268DG      H6 6147   1.711   2.474   4.416 -0.9510 -0.4553  0.7931
  268DG      H7 6148   1.858   2.470   4.318 -0.7078 -0.6428  0.2410
  268DG      H8 6149   1.751   2.334   4.309  0.5001 -1.3990  1.3439
  268DG      O9 6150   2.231   2.435   4.811 -0.0402  0.0178  0.8713
  268DG     O10 6151   1.866   2.352   4.488  0.4898  0.2406  0.5830
  268DG     C11 6152   2.132   2.533   4.846 -0.4597 -0.1916 -0.3174
  268DG     C12 6153   1.791   2.307   4.596 -0.0552 -0.4563 -1.2036
  268DG     H13 6154   2.121   2.613   4.772 -0.9223  0.5166  0.4989
  268DG     H14 6155   2.169   2.587   4.934  0.0995  1.0470 -1.2764
  268DG     H15 6156   1.822   2.209   4.631  0.0214  0.3671  1.1939
  268DG     H16 6157   1.686   2.289   4.576  0.0081  0.0060 -2.0167
  268DG     C17 6158   1.996   2.475   4.860  0.0079  0.3390  0.3776
  268DG     C18 6159   1.809   2.403   4.720 -0.3429  0.0813  0.0941
  268DG     O19 6160   1.955   2.426   4.726  0.3107  0.5822 -0.2047
  268DG     H20 6161   1.931   2.551   4.904 -1.1400 -1.1352  1.3164
  268DG     H21 6162   1.989   2.387   4.924  1.0455 -2.1841 -2.7457
  268DG     H22 6163   1.762   2.499   4.701 -2.0764 -0.0833  2.9623
  268DG     H23 6164   1.768   2.360   4.811  0.2141 -1.2105 -0.2313
  269DG      C1 6165   5.393   5.379   1.157 -0.4818  0.3038  0.1239
  269DG      C2 6166   4.857   5.799   1.266  0.7836 -0.4626  0.2048
  269DG      H3 6167   5.366   5.358   1.261  1.0215 -1.6685  0.1744
  269DG      H4 6168   5.440   5.477   1.151 -0.2070  0.2306  0.9371
  269DG      H5 6169   5.459   5.303   1.115 -0.1757 -1.4141  3.3165
  269DG      H6 6170   4.855   5.906   1.288 -0.2194 -0.2804 -0.7084
  269DG      H7 6171   4.753   5.768   1.279 -0.1644  1.8878 -1.2102
  269DG      H8 6172   4.918   5.750   1.342  1.7319  0.2671 -0.0657
  269DG      O9 6173   5.266   5.370   1.094 -0.4115  0.5091  0.1119
  269DG     O10 6174   4.915   5.757   1.144  0.0671  0.1683  0.8127
  269DG     C11 6175   5.272   5.405   0.959  0.4580 -0.0188  0.9117
  269DG     C12 6176   5.054   5.790   1.147  0.8129  0.6469  0.4064
  269DG     H13 6177   5.188   5.350   0.915  0.5187  0.5911 -0.0016
  269DG     H14 6178   5.363   5.368   0.912  0.5166 -0.4950  1.3933
  269DG     H15 6179   5.102   5.728   1.222  1.7072  0.9470  0.0885
  269DG     H16 6180   5.055   5.898   1.155  0.3213  0.6378  0.6440
  269DG     C17 6181   5.238   5.556   0.929 -0.3070 -0.5290  0.1667
  269DG     C18 6182   5.118   5.745   1.009 -0.2735  0.3711 -0.6462
  269DG     O19 6183   5.128   5.605   1.013 -0.0346 -0.7046  0.1362
  269DG     H20 6184   5.223   5.571   0.823  2.8579  0.8725 -0.2080
  269DG     H21 6185   5.328   5.612   0.955  0.0275 -0.7780 -0.4431
  269DG     H22 6186   5.060   5.765   0.918  0.3039 -0.3509 -1.1823
  269DG     H23 6187   5.217   5.788   1.000 -0.8423  1.6148 -1.3291
  270DG      C1 6188   5.247   1.206   1.291  0.2631  0.4063 -0.6414
  270DG      C2 6189   5.381   0.939   0.647 -0.2607  0.5354 -0.5448
  270DG      H3 6190   5.278   1.138   1.211 -0.9403 -0.1157 -0.6826
  270DG      H4 6191   5.146   1.189   1.327  0.2244 -0.2661 -1.0451
  270DG      H5 6192   5.317   1.195   1.374  1.3412  1.3193 -1.4048
  270DG      H6 6193   5.484   0.904   0.645 -0.4748 -0.0892 -0.6016
  270DG      H7 6194   5.314   0.884   0.713 -0.7995  1.1083 -0.6030
  270DG      H8 6195   5.356   0.934   0.541  1.9009  1.0007 -1.1430
  270DG      O9 6196   5.256   1.336   1.235 -0.2220  0.0028 -0.6516
  270DG     O10 6197   5.381   1.072   0.693 -0.0822 -0.6204 -0.1092
  270DG     C11 6198   5.389   1.366   1.195  0.1616 -0.3506 -0.0472
  270DG     C12 6199   5.370   1.099   0.833 -0.0721 -0.7738  0.1271
  270DG     H13 6200   5.452   1.369   1.284 -0.1968  1.3035  0.1889
  270DG     H14 6201   5.385   1.469   1.158 -1.0693 -0.2943  0.2150
  270DG     H15 6202   5.450   1.047   0.884  0.5147 -1.7763 -1.7199
  270DG     H16 6203   5.275   1.061   0.872 -0.8758  0.2432 -0.7617
  270DG     C17 6204   5.443   1.284   1.075 -0.3558  0.0187  0.3068
  270DG     C18 6205   5.386   1.253   0.846 -0.0593 -0.2347  0.5317
  270DG     O19 6206   5.341   1.290   0.978 -0.3740  0.8091  0.5055
  270DG     H20 6207   5.477   1.186   1.108  0.8943  0.5010  0.5111
  270DG     H21 6208   5.535   1.333   1.042 -0.3712  1.3345  2.0594
  270DG     H22 6209   5.489   1.278   0.820 -0.6800 -0.6002 -2.6996
  270DG     H23 6210   5.331   1.316   0.777  2.5966  0.9310 -0.6512
  271DG      C1 6211   1.767   4.383   4.624 -0.7627 -0.1636  0.8814
  271DG      C2 6212   1.782   4.432   5.360 -1.0354 -0.2754  0.6666
  271DG      H3 6213   1.737   4.280   4.644 -1.8699  0.0978  0.6081
  271DG      H4 6214   1.827   4.382   4.533 -1.7233  1.8820  0.1792
  271DG      H5 6215   1.675   4.433   4.596 -0.5999 -0.1598  0.3527
  271DG      H6 6216   1.710   4.351   5.376 -2.6286  0.3125 -2.6786
  271DG      H7 6217   1.879   4.383   5.362 -1.3048 -0.9769 -1.4777
  271DG      H8 6218   1.776   4.494   5.449  1.6521 -0.3865  1.0074
  271DG      O9 6219   1.828   4.458   4.728 -0.1641  0.1785  0.3055
  271DG     O10 6220   1.764   4.507   5.234  0.1242  0.6319 -0.0759
  271DG     C11 6221   1.919   4.388   4.811 -0.0496  0.7593 -0.1767
  271DG     C12 6222   1.847   4.619   5.221 -0.3332  0.0915  1.0790
  271DG     H13 6223   1.987   4.326   4.752 -2.0282 -1.4535 -0.2627
  271DG     H14 6224   1.865   4.313   4.869  2.6894 -0.2824  1.2410
  271DG     H15 6225   1.895   4.655   5.313 -2.4569 -0.8528  2.6394
  271DG     H16 6226   1.792   4.712   5.205  1.2070  0.7972 -0.4774
  271DG     C17 6227   1.995   4.477   4.914 -0.1435  0.8618 -0.2437
  271DG     C18 6228   1.952   4.582   5.123  0.6790 -0.4682 -0.0415
  271DG     O19 6229   1.898   4.533   5.002  0.7747 -0.6384 -0.1189
  271DG     H20 6230   2.044   4.560   4.864  2.5758  0.0695  0.9355
  271DG     H21 6231   2.072   4.413   4.956 -2.7359 -3.2118 -1.1712
  271DG     H22 6232   2.007   4.675   5.105 -1.4105  0.9149  0.3256
  271DG     H23 6233   2.019   4.503   5.157  1.0157 -0.2334 -0.1498
  272DG      C1 6234   5.282   3.986   2.438 -0.3858 -0.5891 -0.5225
  272DG      C2 6235   4.763   3.599   2.804 -0.3534  0.8390  0.6900
  272DG      H3 6236   5.389   3.992   2.422 -0.4083  1.7663 -0.0986
  272DG      H4 6237   5.249   4.076   2.491 -1.2313 -0.4272 -1.2987
  272DG      H5 6238   5.227   3.987   2.344  0.8116 -1.6567 -1.2596
  272DG      H6 6239   4.769   3.596   2.913  1.2554 -0.9670  0.6020
  272DG      H7 6240   4.701   3.685   2.780  0.5074  1.2104 -0.2842
  272DG      H8 6241   4.713   3.510   2.765  0.8191 -0.0463  1.1542
  272DG      O9 6242   5.261   3.868   2.512 -0.9105  0.6743  0.3205
  272DG     O10 6243   4.894   3.618   2.746 -0.2812  0.3759 -0.2262
  272DG     C11 6244   5.281   3.747   2.433  0.0730  0.0973  0.1057
  272DG     C12 6245   4.975   3.501   2.746 -0.2042  0.2157  0.2247
  272DG     H13 6246   5.375   3.738   2.378 -1.5428 -1.1961 -2.6095
  272DG     H14 6247   5.214   3.742   2.348 -0.9084  0.9562  0.7986
  272DG     H15 6248   4.921   3.427   2.686 -0.4646 -1.0391  1.9548
  272DG     H16 6249   4.980   3.453   2.843  0.9088 -1.6887 -0.7083
  272DG     C17 6250   5.270   3.627   2.526  0.7123 -0.2428 -0.5217
  272DG     C18 6251   5.126   3.518   2.687  0.7823  0.1006 -0.6163
  272DG     O19 6252   5.138   3.609   2.578  0.0065  0.3476 -0.1363
  272DG     H20 6253   5.328   3.656   2.614 -1.8003  0.2451  1.0681
  272DG     H21 6254   5.293   3.536   2.471  0.0539 -1.3394  0.9516
  272DG     H22 6255   5.189   3.546   2.771  0.9950 -2.8433  0.3274
  272DG     H23 6256   5.164   3.424   2.648 -2.2037 -0.9532 -1.2741
  273DG      C1 6257   0.784   1.786   4.082 -0.0931  0.3587 -0.1915
  273DG      C2 6258   0.703   2.360   3.659  0.5820  0.0906  1.2629
  273DG      H3 6259   0.779   1.679   4.103 -0.3701  0.2311 -0.8815
  273DG      H4 6260   0.685   1.830   4.096  0.3992  1.2093  0.8043
  273DG      H5 6261   0.833   1.825   4.171  0.4526 -0.9325  0.0954
  273DG      H6 6262   0.737   2.430   3.583 -0.9899 -0.5564 -0.1191
  273DG      H7 6263   0.618   2.313   3.610  1.7688 -0.1697 -0.6571
  273DG      H8 6264   0.677   2.426   3.741  0.5263 -0.5813  1.7962
  273DG      O9 6265   0.853   1.830   3.966 -0.5182  0.1091 -0.4348
  273DG     O10 6266   0.809   2.281   3.710 -0.3869  0.7921 -0.2659
  273DG     C11 6267   0.774   1.805   3.855 -0.2947 -0.3904  0.0319
  273DG     C12 6268   0.858   2.178   3.618 -0.3889 -0.2042 -0.6680
  273DG     H13 6269   0.677   1.855   3.860  0.3861  1.3583 -2.2833
  273DG     H14 6270   0.761   1.696   3.850  2.0356 -0.7342  0.5184
  273DG     H15 6271   0.926   2.225   3.547  2.8225 -0.4977  1.9809
  273DG     H16 6272   0.770   2.133   3.571 -0.1166  0.3284 -1.7378
  273DG     C17 6273   0.856   1.866   3.743 -0.7039 -0.1366  0.3414
  273DG     C18 6274   0.943   2.075   3.686 -0.4431 -0.4041 -1.1005
  273DG     O19 6275   0.875   2.000   3.778  0.0032 -0.4108  0.7373
  273DG     H20 6276   0.798   1.867   3.651 -1.3487  0.8683  0.7416
  273DG     H21 6277   0.949   1.812   3.723  0.1421  1.9074 -1.6712
  273DG     H22 6278   0.970   2.021   3.595  0.2648  0.7698 -1.6116
  273DG     H23 6279   1.029   2.122   3.735 -0.8957  0.4901 -1.1465
  274DG      C1 6280   3.500   1.724   3.796 -0.6002 -0.4532  0.1403
  274DG      C2 6281   3.688   2.241   4.193  0.0682 -0.3551  0.3930
  274DG      H3 6282   3.445   1.713   3.702 -0.4641  4.3984 -0.7455
  274DG      H4 6283   3.609   1.732   3.794 -0.6037  0.2915  1.7447
  274DG      H5 6284   3.484   1.829   3.818  0.2991  0.4896 -3.1618
  274DG      H6 6285   3.753   2.289   4.120 -2.1389  1.1054 -0.7180
  274DG      H7 6286   3.608   2.315   4.195 -1.0923 -1.5782  0.3522
  274DG      H8 6287   3.744   2.244   4.286  0.3408 -0.9612  0.2523
  274DG      O9 6288   3.458   1.643   3.903 -0.0167  0.3470  0.0635
  274DG     O10 6289   3.642   2.107   4.160  0.1972 -0.3356 -0.5572
  274DG     C11 6290   3.548   1.635   4.014  0.0337 -0.5449  0.1378
  274DG     C12 6291   3.504   2.095   4.124  0.0911 -0.4207 -0.4825
  274DG     H13 6292   3.654   1.647   3.992 -0.1741  0.7935 -0.2016
  274DG     H14 6293   3.535   1.530   4.042  1.8541 -1.1916 -1.2428
  274DG     H15 6294   3.494   2.118   4.018  1.4930 -2.1187 -1.0206
  274DG     H16 6295   3.443   2.162   4.185  0.2212  0.3648 -1.2017
  274DG     C17 6296   3.505   1.731   4.123  0.1218  0.6739  0.3172
  274DG     C18 6297   3.457   1.956   4.161  0.0802 -0.3895 -0.4325
  274DG     O19 6298   3.526   1.861   4.077 -0.8101  0.0759 -0.6661
  274DG     H20 6299   3.555   1.709   4.217 -0.1311 -1.6142 -0.0112
  274DG     H21 6300   3.397   1.731   4.140  0.2157  3.4512  1.3814
  274DG     H22 6301   3.484   1.926   4.262  1.5574 -0.1277 -0.7266
  274DG     H23 6302   3.349   1.951   4.151  0.0055  1.3655 -0.8109
  275DG      C1 6303   3.901   0.245   2.697 -0.0428 -0.4585 -0.1988
  275DG      C2 6304   3.997   0.413   3.382  0.9226 -0.0905  0.4216
  275DG      H3 6305   3.909   0.138   2.676 -1.9499 -0.2672 -2.3397
  275DG      H4 6306   3.952   0.296   2.615  0.1543 -1.8388 -0.9660
  275DG      H5 6307   3.802   0.289   2.689 -0.7777 -2.2507 -1.6717
  275DG      H6 6308   4.095   0.412   3.430  0.0601 -2.0606  2.2816
  275DG      H7 6309   3.964   0.515   3.362  2.2259  0.5756  1.4857
  275DG      H8 6310   3.921   0.380   3.453 -0.8863  0.6942 -1.0501
  275DG      O9 6311   3.957   0.284   2.825 -0.5539 -0.0940  0.2625
  275DG     O10 6312   3.975   0.327   3.262 -0.1336 -0.3880 -0.5597
  275DG     C11 6313   4.099   0.249   2.841  0.4916  0.1226  0.0751
  275DG     C12 6314   4.003   0.186   3.285  0.4031  0.1021 -0.3439
  275DG     H13 6315   4.158   0.337   2.866  1.3526 -0.4373  0.0592
  275DG     H14 6316   4.141   0.191   2.759 -1.1317 -2.1426  0.7454
  275DG     H15 6317   3.909   0.135   3.264  0.4080 -0.1148  0.1477
  275DG     H16 6318   4.033   0.159   3.386  1.7114 -1.3121 -1.0571
  275DG     C17 6319   4.110   0.147   2.949 -0.1793 -0.4542 -0.8332
  275DG     C18 6320   4.109   0.146   3.180  0.3371 -0.8291  0.0037
  275DG     O19 6321   4.063   0.213   3.064  0.1994  1.0365 -0.8761
  275DG     H20 6322   4.213   0.114   2.963  0.4223  1.2809 -0.8491
  275DG     H21 6323   4.043   0.066   2.923 -0.3229 -1.3101  1.8734
  275DG     H22 6324   4.210   0.181   3.204  0.5452 -3.1939  3.2464
  275DG     H23 6325   4.098   0.040   3.157 -0.1648 -0.2697 -2.6696
  276DG      C1 6326   2.362   2.777   2.528 -0.1229  0.0662  0.2867
  276DG      C2 6327   1.815   3.242   2.258 -0.3775  0.2804  0.1082
  276DG      H3 6328   2.469   2.787   2.549  0.6428 -1.0034 -2.6076
  276DG      H4 6329   2.340   2.690   2.465 -0.2862  1.0682 -1.0809
  276DG      H5 6330   2.303   2.773   2.619 -3.1986 -1.7179 -1.5896
  276DG      H6 6331   1.752   3.294   2.330  0.8014  0.5466  0.9751
  276DG      H7 6332   1.828   3.318   2.181  0.5721  0.3516  0.3269
  276DG      H8 6333   1.752   3.159   2.224  0.7037 -0.5734  0.1040
  276DG      O9 6334   2.323   2.880   2.453 -0.6372 -0.7069 -0.3546
  276DG     O10 6335   1.934   3.185   2.310 -0.0892 -0.2254  0.3382
  276DG     C11 6336   2.361   2.875   2.318  0.6880  1.1625 -0.0424
  276DG     C12 6337   2.004   3.118   2.211  0.0401  0.2904  0.6301
  276DG     H13 6338   2.298   2.803   2.266 -1.6711  3.7589 -1.0686
  276DG     H14 6339   2.461   2.833   2.319  0.6965  0.6442  5.1947
  276DG     H15 6340   2.015   3.178   2.121  2.0182  0.2973  0.8427
  276DG     H16 6341   1.957   3.022   2.190  3.1742 -1.1061 -0.5678
  276DG     C17 6342   2.350   3.002   2.246  0.5725  0.2836 -0.3820
  276DG     C18 6343   2.135   3.099   2.280  0.3917 -0.3803  0.3110
  276DG     O19 6344   2.216   3.013   2.201 -0.1496 -0.0519 -0.3436
  276DG     H20 6345   2.402   2.990   2.151  1.0478 -2.2892  0.1109
  276DG     H21 6346   2.380   3.096   2.292 -2.5036  1.3358 -0.2992
  276DG     H22 6347   2.186   3.192   2.305 -0.5045  0.2235 -0.0618
  276DG     H23 6348   2.108   3.053   2.375 -3.5782  0.3550 -0.2901
  277DG      C1 6349   3.155   3.703   3.782  0.9885  0.2253  0.5061
  277DG      C2 6350   3.215   3.757   4.480 -0.6996  0.1624  0.3135
  277DG      H3 6351   3.217   3.743   3.863  1.0752  1.0636  0.0317
  277DG      H4 6352   3.152   3.766   3.694 -1.4672  1.2271  1.2174
  277DG      H5 6353   3.202   3.607   3.758 -0.3823 -0.5291  0.7536
  277DG      H6 6354   3.210   3.752   4.589 -0.5382 -0.2021  0.3060
  277DG      H7 6355   3.212   3.656   4.438  1.2409  1.1861 -2.5454
  277DG      H8 6356   3.303   3.812   4.449  1.0157 -3.6827 -2.4889
  277DG      O9 6357   3.017   3.673   3.807  0.0951  0.0863 -0.4069
  277DG     O10 6358   3.094   3.813   4.437 -0.7377  0.1798 -0.0774
  277DG     C11 6359   2.946   3.757   3.888 -0.1369 -0.3071 -0.0069
  277DG     C12 6360   3.089   3.831   4.297 -0.2935  0.2984 -0.7784
  277DG     H13 6361   2.840   3.756   3.866  0.2321  0.2497 -2.0207
  277DG     H14 6362   2.975   3.862   3.876 -0.8118  0.1716  2.1345
  277DG     H15 6363   3.170   3.780   4.245  0.7088 -1.6267  2.4365
  277DG     H16 6364   3.108   3.938   4.288  0.6238  0.5756  2.8584
  277DG     C17 6365   2.962   3.713   4.035  0.4884  0.0757 -0.0006
  277DG     C18 6366   2.946   3.798   4.261 -0.6474 -0.1093  0.1134
  277DG     O19 6367   2.922   3.817   4.120 -0.2101  0.4847 -0.3710
  277DG     H20 6368   3.064   3.686   4.063  0.6557  1.1291  0.4697
  277DG     H21 6369   2.895   3.628   4.047 -1.1452  1.2999 -0.0138
  277DG     H22 6370   2.934   3.696   4.299 -0.7527 -0.9556 -2.0308
  277DG     H23 6371   2.883   3.871   4.312 -0.5671  0.6993 -0.9105
  278DG      C1 6372   5.072   4.950   2.668 -0.2872  0.5256  0.2971
  278DG      C2 6373   5.316   5.430   2.265 -1.6592  0.0280  0.3412
  278DG      H3 6374   5.009   4.862   2.671 -0.0757  0.0533 -3.5294
  278DG      H4 6375   5.013   5.038   2.696  1.2859  1.4489  0.8585
  278DG      H5 6376   5.154   4.939   2.739  0.5926  2.4637 -0.3337
  278DG      H6 6377   5.333   5.460   2.162  0.8671  2.5416  1.3550
  278DG      H7 6378   5.239   5.499   2.299 -2.9943 -0.6002 -1.3020
  278DG      H8 6379   5.404   5.448   2.327 -2.2694 -0.8502  1.4908
  278DG      O9 6380   5.106   4.945   2.528  0.1142  0.0839  0.3079
  278DG     O10 6381   5.268   5.294   2.276 -0.9561 -0.3343 -0.0786
  278DG     C11 6382   5.178   4.835   2.480 -0.0271 -0.5436  0.4923
  278DG     C12 6383   5.368   5.204   2.229  0.3184  0.6681 -0.4159
  278DG     H13 6384   5.121   4.742   2.488  1.5480 -1.5447  0.5166
  278DG     H14 6385   5.276   4.816   2.525  0.6356 -1.9248 -1.4044
  278DG     H15 6386   5.462   5.215   2.282 -0.0511 -0.7696  0.5720
  278DG     H16 6387   5.394   5.241   2.130  1.0544  0.6186 -0.2464
  278DG     C17 6388   5.218   4.872   2.336 -0.8420  0.0990 -0.2687
  278DG     C18 6389   5.316   5.057   2.210 -0.3441  0.2812 -0.8037
  278DG     O19 6390   5.284   4.999   2.336 -0.1791  0.2583 -0.5164
  278DG     H20 6391   5.130   4.868   2.272 -0.3838 -2.1615 -0.8557
  278DG     H21 6392   5.288   4.797   2.301  0.9848  0.9916  1.3116
  278DG     H22 6393   5.233   5.045   2.140 -1.1078 -2.4490  0.4008
  278DG     H23 6394   5.404   4.998   2.186  0.5067  1.0292  0.3541
  279DG      C1 6395   0.850   3.567   0.390  0.0513  0.2292  0.8048
  279DG      C2 6396   0.931   3.623   1.050 -0.2727 -0.5320 -0.4294
  279DG      H3 6397   0.747   3.602   0.395 -0.4605 -0.9041 -0.8790
  279DG      H4 6398   0.862   3.520   0.292 -2.0686 -0.7987  0.9910
  279DG      H5 6399   0.918   3.651   0.381 -1.3092  1.1697 -1.2174
  279DG      H6 6400   0.998   3.707   1.031  0.2836 -0.8655  0.0502
  279DG      H7 6401   0.825   3.645   1.036 -0.0848  0.6104 -0.1845
  279DG      H8 6402   0.940   3.594   1.155 -1.8211 -0.7067 -0.3102
  279DG      O9 6403   0.893   3.480   0.493  0.3154  0.6375 -0.0196
  279DG     O10 6404   0.948   3.520   0.954 -0.1103  0.1556  0.1220
  279DG     C11 6405   0.812   3.362   0.519 -0.0402  0.3666 -0.5526
  279DG     C12 6406   0.886   3.398   0.986  0.2214  0.3249  0.1318
  279DG     H13 6407   0.820   3.295   0.433 -0.5589 -1.3602  0.6944
  279DG     H14 6408   0.713   3.394   0.549  0.5107 -0.1236  2.0277
  279DG     H15 6409   0.780   3.421   0.997  0.1264  0.5558 -1.0798
  279DG     H16 6410   0.932   3.361   1.078  1.7089  0.6233 -0.4646
  279DG     C17 6411   0.866   3.288   0.644 -0.5262  0.9738  0.0119
  279DG     C18 6412   0.898   3.292   0.875  0.3574 -0.5972  0.2381
  279DG     O19 6413   0.866   3.365   0.755 -0.0603  0.3239 -0.4617
  279DG     H20 6414   0.968   3.252   0.630 -1.1504 -0.1256 -2.2975
  279DG     H21 6415   0.796   3.205   0.658 -0.3355  1.2408  3.0166
  279DG     H22 6416   0.998   3.254   0.856 -0.0421 -0.8353 -1.5965
  279DG     H23 6417   0.825   3.213   0.893 -0.7262 -0.0995 -1.6468
  280DG      C1 6418   2.486   1.277   0.418 -0.0342  0.4961 -0.0361
  280DG      C2 6419   2.241   1.821   0.519 -0.5383  0.1110  0.5505
  280DG      H3 6420   2.527   1.178   0.398 -0.1246  0.5025 -0.2641
  280DG      H4 6421   2.394   1.287   0.360 -1.1508  1.1109  1.7466
  280DG      H5 6422   2.463   1.292   0.523 -1.1880  1.5243 -0.4060
  280DG      H6 6423   2.223   1.827   0.411 -2.9794 -0.3408  0.8561
  280DG      H7 6424   2.154   1.770   0.561 -0.9200  1.2052  1.1155
  280DG      H8 6425   2.252   1.923   0.554  2.1391  0.0592  0.0371
  280DG      O9 6426   2.572   1.380   0.379  0.1557 -0.5517 -0.4362
  280DG     O10 6427   2.362   1.752   0.537 -0.3180  0.3857  0.4368
  280DG     C11 6428   2.688   1.403   0.457 -0.7122 -0.2215 -0.2898
  280DG     C12 6429   2.385   1.731   0.675 -0.1916  0.3566  0.6985
  280DG     H13 6430   2.754   1.474   0.408  0.3225 -1.4857 -0.7894
  280DG     H14 6431   2.742   1.316   0.494 -1.3518 -0.1217  0.9612
  280DG     H15 6432   2.297   1.679   0.712  0.3903  1.4718  4.0639
  280DG     H16 6433   2.391   1.820   0.739 -4.7861 -0.6580  2.9196
  280DG     C17 6434   2.654   1.476   0.593  0.1741 -0.5807  0.2198
  280DG     C18 6435   2.509   1.638   0.694  0.5419  0.3492  0.1605
  280DG     O19 6436   2.533   1.548   0.585  0.4887 -0.2606 -0.0150
  280DG     H20 6437   2.741   1.540   0.604  0.6789 -0.5662 -3.1203
  280DG     H21 6438   2.639   1.416   0.683 -2.3042  0.7228  0.8068
  280DG     H22 6439   2.604   1.688   0.712  0.7100 -0.2489  0.9746
  280DG     H23 6440   2.488   1.578   0.782  2.0364 -1.0150 -0.3730
  281DG      C1 6441   1.321   2.204   3.304  0.7274  0.3799  0.4950
  281DG      C2 6442   0.768   2.489   3.187  0.2428  0.4433 -0.3550
  281DG      H3 6443   1.389   2.166   3.381 -0.8040 -0.4491  1.4753
  281DG      H4 6444   1.371   2.271   3.234 -1.3144 -0.0284 -1.4610
  281DG      H5 6445   1.289   2.124   3.237  0.6423  1.1540 -0.4216
  281DG      H6 6446   0.735   2.419   3.111  1.4208  0.1906 -0.6513
  281DG      H7 6447   0.752   2.439   3.282 -0.6961 -2.2374 -1.8321
  281DG      H8 6448   0.688   2.563   3.180 -0.8836 -0.7772 -0.9040
  281DG      O9 6449   1.209   2.266   3.355 -0.5459 -0.3945  0.1698
  281DG     O10 6450   0.886   2.549   3.152  0.2825  0.3355  0.1062
  281DG     C11 6451   1.235   2.386   3.437  0.3825  0.3656  0.2107
  281DG     C12 6452   0.911   2.667   3.226 -0.4566 -0.5818  0.0736
  281DG     H13 6453   1.312   2.444   3.388  0.2785 -0.6463 -1.2091
  281DG     H14 6454   1.265   2.350   3.536 -1.0465 -0.3221  0.4247
  281DG     H15 6455   0.825   2.733   3.239  1.1492  1.3192  1.5924
  281DG     H16 6456   0.980   2.732   3.171 -2.1589  1.2429 -0.0065
  281DG     C17 6457   1.106   2.468   3.472 -0.6434  0.2390 -0.3618
  281DG     C18 6458   0.970   2.629   3.367  0.1352  0.3890 -0.2464
  281DG     O19 6459   1.057   2.514   3.345  0.0951  0.2233  0.2125
  281DG     H20 6460   1.128   2.554   3.535  0.6367 -0.3230  0.0009
  281DG     H21 6461   1.030   2.414   3.529 -0.0395  0.5254  0.7564
  281DG     H22 6462   1.035   2.706   3.407  0.5836  0.1322 -0.4626
  281DG     H23 6463   0.897   2.613   3.446 -0.1489  1.3992 -0.2969
  282DG      C1 6464   0.541   0.084   4.429 -0.6690  0.1525  0.0659
  282DG      C2 6465   0.329  -0.490   4.570 -0.2666 -0.4028  0.1168
  282DG      H3 6466   0.444   0.091   4.380 -0.6187 -2.9144 -0.6734
  282DG      H4 6467   0.619   0.143   4.382 -0.6857 -0.2004 -0.4130
  282DG      H5 6468   0.534   0.134   4.526 -0.0644 -0.2663  0.3324
  282DG      H6 6469   0.329  -0.599   4.575  0.2683 -0.3781  0.8418
  282DG      H7 6470   0.298  -0.455   4.668 -2.3916 -1.1296 -0.2381
  282DG      H8 6471   0.265  -0.465   4.485  1.0272 -0.1280 -0.8238
  282DG      O9 6472   0.581  -0.049   4.440  0.1120 -0.1636 -0.2723
  282DG     O10 6473   0.461  -0.454   4.537  0.1347  0.5180  0.6676
  282DG     C11 6474   0.713  -0.073   4.491  0.9539 -0.5355  0.2878
  282DG     C12 6475   0.562  -0.500   4.629 -0.0587 -0.1775 -0.0816
  282DG     H13 6476   0.717  -0.046   4.597 -1.9695  1.4365 -0.0017
  282DG     H14 6477   0.783  -0.010   4.436 -2.3074  0.9026 -2.6177
  282DG     H15 6478   0.560  -0.609   4.620 -0.9314 -0.2300  0.5636
  282DG     H16 6479   0.539  -0.480   4.734 -2.1810 -2.2674 -0.0492
  282DG     C17 6480   0.759  -0.224   4.488  0.3060 -0.3309 -0.3987
  282DG     C18 6481   0.688  -0.432   4.566 -0.4423  0.3312  0.3891
  282DG     O19 6482   0.663  -0.295   4.563 -0.5851 -0.4867 -0.1935
  282DG     H20 6483   0.857  -0.239   4.533  0.0036 -3.0312 -0.5198
  282DG     H21 6484   0.764  -0.263   4.387  0.1932  0.5460 -0.7547
  282DG     H22 6485   0.779  -0.462   4.617 -0.9787 -2.4667 -0.1303
  282DG     H23 6486   0.686  -0.472   4.465  0.8864  0.1614  0.4229
  283DG      C1 6487   3.662   1.515   2.720  0.1537 -0.6327  0.3733
  283DG      C2 6488   3.432   2.140   2.680 -0.5531 -0.3693 -0.2699
  283DG      H3 6489   3.681   1.543   2.616  0.6391 -2.5001 -0.0736
  283DG      H4 6490   3.644   1.408   2.735 -0.5718 -0.7455 -1.1275
  283DG      H5 6491   3.756   1.566   2.740 -1.1751  3.2924 -2.1412
  283DG      H6 6492   3.427   2.132   2.572  1.1500  1.6466 -0.5582
  283DG      H7 6493   3.350   2.209   2.698  0.8451  1.0677  0.9583
  283DG      H8 6494   3.533   2.178   2.697 -0.6273 -0.7645  1.2628
  283DG      O9 6495   3.571   1.599   2.785 -0.4609  0.3463 -0.6026
  283DG     O10 6496   3.419   2.015   2.749  0.0729  0.5604  0.3566
  283DG     C11 6497   3.571   1.589   2.927 -0.5083 -0.0433  0.4097
  283DG     C12 6498   3.375   2.034   2.878 -0.8550  0.9556 -0.0731
  283DG     H13 6499   3.663   1.633   2.967 -0.5842  1.6710 -1.1449
  283DG     H14 6500   3.564   1.486   2.960  1.3671  0.3732  2.3989
  283DG     H15 6501   3.282   2.089   2.890  0.3807  2.7525  2.0605
  283DG     H16 6502   3.454   2.087   2.932 -0.8551  0.3005  0.5905
  283DG     C17 6503   3.456   1.683   2.969 -0.0714 -0.0453 -0.2244
  283DG     C18 6504   3.359   1.893   2.944  0.2890  0.5488  0.1892
  283DG     O19 6505   3.478   1.816   2.930  0.7866  0.3783  0.0671
  283DG     H20 6506   3.456   1.676   3.078 -1.8749 -1.0820 -0.2355
  283DG     H21 6507   3.361   1.637   2.942  0.0088 -0.1023 -0.4105
  283DG     H22 6508   3.327   1.907   3.048 -1.8293 -0.9832 -0.1861
  283DG     H23 6509   3.276   1.853   2.886  0.2916 -2.7623  2.2298
  284DG      C1 6510   2.542   2.182   3.493 -0.2604 -0.4910  0.3904
  284DG      C2 6511   2.779   2.831   3.214 -0.5143  0.9345  0.0913
  284DG      H3 6512   2.476   2.212   3.575 -1.6390 -1.9384 -0.1213
  284DG      H4 6513   2.590   2.088   3.521  2.2302  0.8384  0.8465
  284DG      H5 6514   2.480   2.161   3.406  2.5889 -0.3597 -1.7837
  284DG      H6 6515   2.859   2.878   3.157 -1.5764  1.2901 -1.1781
  284DG      H7 6516   2.690   2.834   3.150 -0.4243  1.2055 -0.0215
  284DG      H8 6517   2.758   2.898   3.298 -2.2673 -0.7305  1.0496
  284DG      O9 6518   2.642   2.288   3.477 -0.2530 -0.3107  0.2700
  284DG     O10 6519   2.812   2.702   3.261 -0.0868 -0.1762 -0.2329
  284DG     C11 6520   2.720   2.317   3.592  0.3880 -0.5854 -0.2337
  284DG     C12 6521   2.919   2.690   3.355  0.8880  0.2714  0.4746
  284DG     H13 6522   2.743   2.233   3.657 -0.2436  0.0810  0.9000
  284DG     H14 6523   2.659   2.379   3.659  1.6089  0.1798  0.1896
  284DG     H15 6524   2.913   2.763   3.435 -1.8777  0.4119  0.2384
  284DG     H16 6525   2.999   2.725   3.289  0.1614  1.5615  0.2443
  284DG     C17 6526   2.857   2.379   3.552 -0.3898  0.2645 -0.5437
  284DG     C18 6527   2.939   2.547   3.401 -1.0808  0.1143  0.0032
  284DG     O19 6528   2.827   2.496   3.469 -0.4541  0.2594  0.0523
  284DG     H20 6529   2.925   2.309   3.504  1.1976  1.4449 -0.1333
  284DG     H21 6530   2.909   2.404   3.644 -0.8294 -1.0541  0.0895
  284DG     H22 6531   2.983   2.482   3.325 -0.5480 -0.5091  0.8188
  284DG     H23 6532   3.018   2.562   3.475  0.3610 -0.2188 -1.4229
  285DG      C1 6533   4.356   1.025   2.812 -0.2628  0.1142  0.0468
  285DG      C2 6534   3.928   1.440   3.131 -0.2605  0.1089  0.2271
  285DG      H3 6535   4.309   0.979   2.899 -0.3637  0.5117  0.2057
  285DG      H4 6536   4.418   0.945   2.771 -0.4582  0.0221 -0.0654
  285DG      H5 6537   4.285   1.053   2.734  1.3990  0.5781 -1.3599
  285DG      H6 6538   3.847   1.510   3.111 -0.6904 -0.6206 -0.6870
  285DG      H7 6539   3.899   1.339   3.162  0.3135 -0.1007  0.0965
  285DG      H8 6540   3.989   1.484   3.210 -0.7301  1.6854 -0.2580
  285DG      O9 6541   4.440   1.133   2.840  0.2241 -0.1264 -0.0877
  285DG     O10 6542   4.008   1.441   3.009  0.2940  0.3186  0.3930
  285DG     C11 6543   4.395   1.240   2.925 -0.1553 -0.2903 -0.0355
  285DG     C12 6544   3.976   1.357   2.902  0.5964  0.2155 -0.0433
  285DG     H13 6545   4.479   1.297   2.965 -1.5353  0.6248  1.6886
  285DG     H14 6546   4.333   1.200   3.005  0.2975 -4.8751 -1.6862
  285DG     H15 6547   3.883   1.386   2.853  0.3061 -2.1610 -0.9966
  285DG     H16 6548   3.961   1.254   2.933  2.5639 -0.2055 -0.3548
  285DG     C17 6549   4.302   1.337   2.858  0.2902  0.7498  0.3207
  285DG     C18 6550   4.083   1.348   2.788  0.0535 -0.1567 -0.5101
  285DG     O19 6551   4.180   1.267   2.836  0.4929 -0.2021  0.1145
  285DG     H20 6552   4.341   1.375   2.764  0.1742  0.1658  0.0317
  285DG     H21 6553   4.279   1.411   2.935 -0.2693  0.7335  0.1718
  285DG     H22 6554   4.040   1.305   2.698 -0.3467 -1.3753  0.2375
  285DG     H23 6555   4.118   1.447   2.759  1.3315 -0.3168  0.4032
  286DG      C1 6556   4.982   1.753   1.458 -0.1776 -0.0610 -0.1007
  286DG      C2 6557   4.378   1.495   0.986  0.5774  0.3571 -0.2350
  286DG      H3 6558   4.994   1.852   1.414  0.4119  0.0536  0.3044
  286DG      H4 6559   5.077   1.705   1.436 -1.1751 -1.3008 -1.8529
  286DG      H5 6560   4.978   1.754   1.567  1.3969  1.6827 -0.0159
  286DG      H6 6561   4.468   1.467   0.931 -0.8696 -1.4845 -1.7870
  286DG      H7 6562   4.320   1.408   1.013 -0.4677  1.3133  0.7149
  286DG      H8 6563   4.309   1.551   0.923  0.3009 -1.5985 -1.7739
  286DG      O9 6564   4.863   1.693   1.413 -0.6223  0.7971  0.5881
  286DG     O10 6565   4.410   1.554   1.109 -0.5014  0.2570  0.1445
  286DG     C11 6566   4.748   1.774   1.446 -0.0217 -1.0826 -0.3349
  286DG     C12 6567   4.486   1.468   1.190  0.8765 -0.3921  0.3632
  286DG     H13 6568   4.761   1.871   1.399 -0.4613 -0.6924  0.3203
  286DG     H14 6569   4.751   1.812   1.548 -2.0771  1.7869 -1.2134
  286DG     H15 6570   4.586   1.453   1.149  1.4785 -0.6815  1.8875
  286DG     H16 6571   4.430   1.375   1.200 -0.6599  0.4366 -0.0900
  286DG     C17 6572   4.607   1.712   1.439  0.1277 -0.1264  0.3568
  286DG     C18 6573   4.503   1.535   1.321  1.0207 -0.3401 -0.7030
  286DG     O19 6574   4.578   1.655   1.310 -0.2978  0.3201 -0.0244
  286DG     H20 6575   4.535   1.794   1.450 -0.8297 -0.4336 -2.6687
  286DG     H21 6576   4.588   1.639   1.518 -1.1901 -3.1470 -2.5253
  286DG     H22 6577   4.401   1.555   1.352  1.5210  1.2816  0.0437
  286DG     H23 6578   4.541   1.467   1.398  1.7340 -0.1299 -0.8610
  287DG      C1 6579   3.467   0.377   4.795 -0.2663  0.2710 -0.3231
  287DG      C2 6580   3.761   0.756   5.292 -0.0397  0.3170  0.4907
  287DG      H3 6581   3.555   0.316   4.819  0.9351  2.7897  2.2184
  287DG      H4 6582   3.444   0.362   4.689 -0.9042  2.6564 -0.5650
  287DG      H5 6583   3.375   0.351   4.847 -0.4002  3.7070  1.4045
  287DG      H6 6584   3.816   0.844   5.326  0.4502 -0.2974  1.3159
  287DG      H7 6585   3.664   0.737   5.336 -0.5703  0.1100 -0.7131
  287DG      H8 6586   3.836   0.680   5.314  1.9122  1.8484 -0.5078
  287DG      O9 6587   3.503   0.507   4.817  0.1987 -0.2336  0.0324
  287DG     O10 6588   3.726   0.770   5.152 -0.4124 -0.2381 -0.3397
  287DG     C11 6589   3.609   0.550   4.734 -0.4512 -0.1307  0.4175
  287DG     C12 6590   3.827   0.817   5.063 -0.0392  0.5959 -0.2929
  287DG     H13 6591   3.586   0.532   4.629  1.0270  0.2246  0.0060
  287DG     H14 6592   3.696   0.489   4.757 -0.0459  0.8742  1.6297
  287DG     H15 6593   3.916   0.754   5.059  0.6467  1.5408 -0.2759
  287DG     H16 6594   3.848   0.918   5.099  0.2964 -0.7053  3.6457
  287DG     C17 6595   3.650   0.690   4.766 -0.5500  0.2324 -0.2407
  287DG     C18 6596   3.766   0.822   4.925 -0.0616  0.0002 -0.2698
  287DG     O19 6597   3.703   0.701   4.902  0.6433  0.1839 -0.1731
  287DG     H20 6598   3.582   0.773   4.745  1.0434  1.1815 -1.9028
  287DG     H21 6599   3.724   0.714   4.690 -0.0066  0.1861  0.2664
  287DG     H22 6600   3.687   0.898   4.930  0.5648  0.6988 -0.7833
  287DG     H23 6601   3.838   0.852   4.850  0.0974  0.6327  0.1247
  288DG      C1 6602   4.080   0.592   2.749  0.0052  0.5149 -0.1644
  288DG      C2 6603   3.642   0.161   3.112 -0.1259  0.1296 -0.6122
  288DG      H3 6604   4.169   0.576   2.809 -0.1175 -1.0992 -0.3738
  288DG      H4 6605   4.096   0.681   2.688 -1.8093  0.8833 -0.1674
  288DG      H5 6606   4.088   0.502   2.689 -0.2273  0.9724 -0.9004
  288DG      H6 6607   3.560   0.166   3.185  1.7768  0.1653  1.6501
  288DG      H7 6608   3.625   0.073   3.050  0.8716 -1.7087  1.5636
  288DG      H8 6609   3.732   0.129   3.165 -0.9143  0.1953  0.8188
  288DG      O9 6610   3.969   0.597   2.827  0.1780 -0.0471 -0.4852
  288DG     O10 6611   3.642   0.287   3.039 -0.1260 -0.2989 -0.7656
  288DG     C11 6612   3.853   0.610   2.745  0.0163  0.3860 -0.1425
  288DG     C12 6613   3.641   0.403   3.117  1.1547 -0.4493 -0.2883
  288DG     H13 6614   3.827   0.519   2.690 -1.4750 -0.2265  1.4715
  288DG     H14 6615   3.857   0.694   2.676 -0.5205  2.5617  2.3179
  288DG     H15 6616   3.715   0.409   3.197 -0.2227  3.6726  0.9422
  288DG     H16 6617   3.545   0.404   3.169  1.4187 -2.3022  0.3244
  288DG     C17 6618   3.735   0.629   2.842 -0.0408 -0.0133  0.3084
  288DG     C18 6619   3.629   0.534   3.038 -0.4439  0.2841  0.2335
  288DG     O19 6620   3.725   0.525   2.936 -0.3762  0.1022 -0.9735
  288DG     H20 6621   3.642   0.638   2.787  0.4864  1.2787 -0.4291
  288DG     H21 6622   3.745   0.728   2.887  0.1883  0.2687 -0.3594
  288DG     H22 6623   3.533   0.558   2.993  0.1509 -0.5094 -1.5686
  288DG     H23 6624   3.649   0.613   3.110 -0.3669  0.5318 -0.0583
  289DG      C1 6625   1.306   1.886   2.964  0.8320 -0.2516 -0.4317
  289DG      C2 6626   1.360   1.239   3.421  0.1371 -0.2731 -0.5350
  289DG      H3 6627   1.388   1.946   2.924  0.5098  0.5544  0.1022
  289DG      H4 6628   1.288   1.905   3.070 -1.7389  1.8469 -1.1311
  289DG      H5 6629   1.218   1.929   2.917  1.2981  1.4154  0.1252
  289DG      H6 6630   1.390   1.138   3.393 -0.8830 -1.2934  1.8123
  289DG      H7 6631   1.437   1.282   3.485  0.1191 -1.1959  0.1342
  289DG      H8 6632   1.262   1.236   3.469 -0.1754 -0.8719 -1.1962
  289DG      O9 6633   1.315   1.758   2.913 -0.6909  0.0079  0.1116
  289DG     O10 6634   1.342   1.325   3.310 -0.4416  0.2185  0.4024
  289DG     C11 6635   1.334   1.664   3.020  0.0985  0.1096  0.0580
  289DG     C12 6636   1.247   1.274   3.218  0.1540  0.0046  0.1591
  289DG     H13 6637   1.243   1.656   3.080  0.3711  2.0730  0.8018
  289DG     H14 6638   1.418   1.698   3.080  0.6814 -1.0383 -0.0965
  289DG     H15 6639   1.148   1.256   3.261 -0.0705  1.0326  0.0888
  289DG     H16 6640   1.296   1.192   3.165  1.0595  2.4672 -3.1081
  289DG     C17 6641   1.369   1.526   2.972 -0.1530 -0.2793  0.1268
  289DG     C18 6642   1.233   1.380   3.106 -0.6578  0.2333  0.1607
  289DG     O19 6643   1.364   1.430   3.078  0.0905  0.1555  0.0099
  289DG     H20 6644   1.475   1.524   2.945  0.1485  1.9706  0.8778
  289DG     H21 6645   1.309   1.487   2.890  0.7257 -1.2007 -0.0971
  289DG     H22 6646   1.186   1.339   3.016  1.9419 -0.8698 -0.7952
  289DG     H23 6647   1.171   1.467   3.127  0.7681  1.3794 -0.1464
  290DG      C1 6648   0.178   1.163   5.311  0.6033  0.3527  0.3058
  290DG      C2 6649   0.116   0.495   5.901 -0.0682  0.3662 -0.0353
  290DG      H3 6650   0.268   1.119   5.268 -0.0414  2.1322 -3.2353
  290DG      H4 6651   0.201   1.258   5.359  0.8965  0.6225 -0.3589
  290DG      H5 6652   0.104   1.181   5.233  0.6962 -1.0586 -0.1443
  290DG      H6 6653   0.105   0.487   5.793  0.2530  3.5504 -0.4098
  290DG      H7 6654   0.207   0.437   5.919  0.1932  0.1054 -2.0118
  290DG      H8 6655   0.025   0.437   5.916 -0.9715  2.2446  2.5122
  290DG      O9 6656   0.122   1.068   5.414  0.1893 -0.2715 -0.5931
  290DG     O10 6657   0.114   0.632   5.943  0.2848  0.1929  0.6413
  290DG     C11 6658   0.228   1.006   5.494  0.8976  0.0819  0.6680
  290DG     C12 6659   0.206   0.708   5.868  0.1033 -0.2485 -0.1534
  290DG     H13 6660   0.260   1.062   5.582 -3.2294  1.3129  1.5937
  290DG     H14 6661   0.311   0.972   5.433  0.4594 -0.6634  0.4742
  290DG     H15 6662   0.296   0.659   5.831  0.9954  0.3553  1.1145
  290DG     H16 6663   0.249   0.784   5.935 -1.6057  1.4476 -0.8801
  290DG     C17 6664   0.157   0.883   5.551 -0.6604 -0.0159  0.1423
  290DG     C18 6665   0.131   0.780   5.762 -0.4382 -0.0658 -0.2603
  290DG     O19 6666   0.216   0.853   5.676 -0.5794 -0.3539 -0.1020
  290DG     H20 6667   0.158   0.795   5.488 -0.5726 -1.6306  2.2881
  290DG     H21 6668   0.052   0.910   5.564 -1.0474 -0.4625 -1.7261
  290DG     H22 6669   0.089   0.696   5.706  1.3486  0.4849 -2.6102
  290DG     H23 6670   0.054   0.851   5.793  0.6814  0.7441  0.7736
  291DG      C1 6671   1.957   2.368   3.947 -0.1942 -0.7670  0.7166
  291DG      C2 6672   1.895   3.101   3.909  0.2584  0.3700 -0.0593
  291DG      H3 6673   2.033   2.329   3.879 -0.2919 -1.0363  0.7611
  291DG      H4 6674   1.884   2.289   3.958 -0.9445 -0.5849 -2.2212
  291DG      H5 6675   2.006   2.381   4.044  0.5382 -2.0832  0.5434
  291DG      H6 6676   1.900   3.170   3.825  2.1790  1.2830  0.7467
  291DG      H7 6677   1.820   3.127   3.984  0.4923 -1.1084  0.7248
  291DG      H8 6678   1.997   3.095   3.946  0.0402 -0.4792  0.4334
  291DG      O9 6679   1.901   2.493   3.907 -0.0071 -0.5918 -0.0902
  291DG     O10 6680   1.840   2.985   3.849  0.3237  0.0486 -0.3088
  291DG     C11 6681   1.855   2.489   3.765  0.0401  0.4574  0.8241
  291DG     C12 6682   1.927   2.916   3.764 -0.2217 -0.3506  0.1893
  291DG     H13 6683   1.819   2.389   3.741  0.7140 -0.0355  1.8000
  291DG     H14 6684   1.951   2.497   3.714 -0.3563 -0.4420 -0.1171
  291DG     H15 6685   2.008   2.873   3.822  1.0337 -2.4146 -2.8578
  291DG     H16 6686   1.979   2.985   3.697  1.1006  0.5116  2.0050
  291DG     C17 6687   1.747   2.598   3.738 -0.7245 -0.2029  0.2343
  291DG     C18 6688   1.847   2.809   3.689  0.0581  0.1784 -0.9926
  291DG     O19 6689   1.775   2.734   3.786 -0.0952 -0.1353 -0.8320
  291DG     H20 6690   1.662   2.573   3.801 -1.5585 -2.9375 -1.7533
  291DG     H21 6691   1.728   2.595   3.631 -0.3451 -2.3636  0.1756
  291DG     H22 6692   1.781   2.852   3.614 -0.6701 -0.3455 -0.6680
  291DG     H23 6693   1.920   2.746   3.638 -1.0707 -1.3115 -0.8733
  292DG      C1 6694   2.478   1.397   4.911 -0.3192 -0.0104 -0.4225
  292DG      C2 6695   2.930   1.176   4.966  0.1646 -0.0785  0.5133
  292DG      H3 6696   2.469   1.395   4.802  2.4692  0.2154 -0.7225
  292DG      H4 6697   2.557   1.465   4.939  0.8541 -1.1167 -0.9182
  292DG      H5 6698   2.389   1.437   4.959  0.8519  1.4400  0.6121
  292DG      H6 6699   2.983   1.214   5.053  1.0171  0.8205 -0.3740
  292DG      H7 6700   3.006   1.121   4.909 -0.2441  1.8310 -2.0698
  292DG      H8 6701   2.897   1.260   4.905 -0.8560  0.2741  1.5301
  292DG      O9 6702   2.508   1.261   4.955 -0.2701 -0.5360 -0.0656
  292DG     O10 6703   2.804   1.105   4.985  0.3426 -0.5167 -0.2450
  292DG     C11 6704   2.535   1.251   5.097 -0.1479 -0.6379  0.0528
  292DG     C12 6705   2.814   1.017   5.094 -0.0290 -0.5194 -0.1966
  292DG     H13 6706   2.456   1.313   5.139  0.6683 -0.2114  0.9980
  292DG     H14 6707   2.634   1.292   5.111 -0.4754  0.5633 -0.9921
  292DG     H15 6708   2.839   1.068   5.187 -2.8702  0.6731  0.0204
  292DG     H16 6709   2.901   0.951   5.087 -0.7468 -1.4905 -0.1064
  292DG     C17 6710   2.506   1.112   5.146  0.4399  0.4743 -0.2223
  292DG     C18 6711   2.684   0.941   5.100  0.1873 -0.2176 -0.7200
  292DG     O19 6712   2.567   1.009   5.060  0.5448  0.4670  0.1418
  292DG     H20 6713   2.398   1.103   5.157 -0.0354  1.0613 -3.4333
  292DG     H21 6714   2.543   1.093   5.247 -1.2449 -1.9631  0.0331
  292DG     H22 6715   2.695   0.849   5.042 -0.4756  0.2724 -1.6450
  292DG     H23 6716   2.675   0.898   5.199 -2.9181 -0.3870 -1.0027
  293DG      C1 6717   3.280   0.853   4.841 -0.1281 -0.0178 -0.3341
  293DG      C2 6718   3.685   0.343   5.127  0.2263 -0.3601 -0.1189
  293DG      H3 6719   3.228   0.852   4.745  0.4030  1.5483 -0.6675
  293DG      H4 6720   3.378   0.900   4.833  1.1713 -1.8423  3.0149
  293DG      H5 6721   3.219   0.916   4.906  0.5657  0.4900 -0.1609
  293DG      H6 6722   3.708   0.263   5.198  1.2775  0.2095  0.2132
  293DG      H7 6723   3.667   0.302   5.028 -1.3111  0.0658 -0.0359
  293DG      H8 6724   3.762   0.420   5.123 -0.6726  0.5034 -2.7221
  293DG      O9 6725   3.313   0.737   4.911 -0.2919  0.6677  0.4821
  293DG     O10 6726   3.571   0.418   5.163  0.2292 -0.3501  0.1727
  293DG     C11 6727   3.199   0.659   4.930 -0.2869  0.4966 -0.2234
  293DG     C12 6728   3.457   0.341   5.187  0.3139  0.5616  0.5161
  293DG     H13 6729   3.208   0.584   4.851  0.8457 -1.3817  1.5905
  293DG     H14 6730   3.106   0.716   4.922 -1.1830 -0.7765  0.6989
  293DG     H15 6731   3.461   0.287   5.282 -0.1107 -1.6657 -0.6619
  293DG     H16 6732   3.451   0.268   5.106 -0.6106 -0.2909  1.3239
  293DG     C17 6733   3.211   0.598   5.068 -0.2050  0.7783 -0.9497
  293DG     C18 6734   3.328   0.428   5.180  0.2346 -0.2898 -0.6157
  293DG     O19 6735   3.330   0.510   5.067  0.5331  0.0532  0.1334
  293DG     H20 6736   3.116   0.546   5.081  0.7282 -1.0646 -1.1752
  293DG     H21 6737   3.214   0.678   5.142  1.8478 -0.4588  0.4154
  293DG     H22 6738   3.249   0.353   5.177  0.2112 -0.7865  4.3037
  293DG     H23 6739   3.311   0.478   5.276 -1.3427 -0.1383 -0.9605
  294DG      C1 6740   1.378   3.464   2.850 -0.2793  0.5993  0.4199
  294DG      C2 6741   1.691   3.736   3.450  0.9900 -0.1148 -0.0192
  294DG      H3 6742   1.293   3.480   2.784 -0.4528 -0.1390  0.4610
  294DG      H4 6743   1.382   3.359   2.876  0.1912  0.6994  0.7730
  294DG      H5 6744   1.470   3.477   2.792  0.9343 -1.1979  1.8656
  294DG      H6 6745   1.780   3.796   3.435 -0.4068  2.1037  0.1335
  294DG      H7 6746   1.667   3.708   3.553 -0.2283  0.8108 -0.0286
  294DG      H8 6747   1.702   3.637   3.406 -0.2235 -0.9611  1.4711
  294DG      O9 6748   1.372   3.537   2.972 -0.7247 -0.4649  0.2863
  294DG     O10 6749   1.578   3.799   3.387  0.3408  0.5509  0.2665
  294DG     C11 6750   1.364   3.678   2.938  0.4013 -0.4686 -0.1446
  294DG     C12 6751   1.445   3.741   3.409 -0.2822 -0.4067 -0.5174
  294DG     H13 6752   1.298   3.689   2.852  0.8056  0.1213 -0.3819
  294DG     H14 6753   1.462   3.717   2.909  1.3555 -2.4551  0.2284
  294DG     H15 6754   1.406   3.778   3.504 -3.1650  0.2249 -1.8310
  294DG     H16 6755   1.444   3.632   3.414  1.2672 -0.3934  1.1232
  294DG     C17 6756   1.312   3.748   3.062 -0.0538 -0.0688 -0.4925
  294DG     C18 6757   1.357   3.798   3.297  0.0270  0.3190  0.0477
  294DG     O19 6758   1.408   3.743   3.170 -0.5060 -0.5045  0.1316
  294DG     H20 6759   1.214   3.710   3.093  0.3321  0.2314  1.2121
  294DG     H21 6760   1.306   3.855   3.048  2.2763  0.4863  1.9083
  294DG     H22 6761   1.253   3.772   3.316  0.1580 -1.2145 -1.0706
  294DG     H23 6762   1.351   3.907   3.304 -2.3757  0.1637  1.6457
  295DG      C1 6763   3.661   1.513   4.955 -0.1984 -0.1228  0.0863
  295DG      C2 6764   3.731   1.982   4.487 -0.3339  0.9395  0.0118
  295DG      H3 6765   3.618   1.468   5.044  0.2597  0.9080  0.8559
  295DG      H4 6766   3.767   1.488   4.942 -0.6770 -2.3183 -0.0193
  295DG      H5 6767   3.615   1.475   4.863  0.7943 -1.8029  0.2339
  295DG      H6 6768   3.749   1.884   4.442  0.5187 -0.7058  3.6357
  295DG      H7 6769   3.680   2.045   4.414 -0.0473  2.0468  0.7551
  295DG      H8 6770   3.828   2.030   4.497  0.0384 -0.0748  1.5598
  295DG      O9 6771   3.651   1.657   4.963 -0.6619 -0.5426  0.6016
  295DG     O10 6772   3.672   1.960   4.611  0.2696  0.5049  0.9416
  295DG     C11 6773   3.524   1.707   4.971  0.6282 -0.4129 -0.3570
  295DG     C12 6774   3.689   2.061   4.710  0.1767 -0.2954  0.8925
  295DG     H13 6775   3.472   1.676   5.061  1.4885  2.0758  1.0850
  295DG     H14 6776   3.475   1.672   4.879 -1.5907 -0.6197  0.8464
  295DG     H15 6777   3.670   2.159   4.666  2.6313 -0.7284 -1.4067
  295DG     H16 6778   3.794   2.069   4.736  0.2693 -0.8086  0.6983
  295DG     C17 6779   3.522   1.861   4.963  0.8005  0.0146 -0.0680
  295DG     C18 6780   3.607   2.034   4.831  0.1959 -0.1828  0.3261
  295DG     O19 6781   3.620   1.897   4.868 -0.1851  0.2517  0.4265
  295DG     H20 6782   3.552   1.895   5.062  1.6768 -0.9931  0.0319
  295DG     H21 6783   3.418   1.893   4.951  0.5708  0.2131  2.0118
  295DG     H22 6784   3.618   2.102   4.916 -2.1714  0.2500  0.3648
  295DG     H23 6785   3.501   2.046   4.810  0.1437 -0.6441  0.3124
  296DG      C1 6786   2.225   3.398   1.028  0.9892  0.6551  0.1847
  296DG      C2 6787   1.563   3.539   1.069  0.1291 -0.2960 -0.3610
  296DG      H3 6788   2.326   3.418   1.062  1.8385 -1.8928 -0.5558
  296DG      H4 6789   2.227   3.392   0.919  0.0512  0.8482  0.1417
  296DG      H5 6790   2.196   3.300   1.068 -0.9247  0.3845 -1.6286
  296DG      H6 6791   1.568   3.527   0.961 -1.5557  1.1909 -0.6459
  296DG      H7 6792   1.535   3.444   1.114 -1.5678  1.2137  2.0030
  296DG      H8 6793   1.474   3.600   1.085 -0.8497 -0.6265 -3.6812
  296DG      O9 6794   2.137   3.501   1.083 -0.0573  0.0441 -0.3400
  296DG     O10 6795   1.687   3.596   1.111  0.2933 -0.0073  0.1046
  296DG     C11 6796   2.175   3.634   1.061  0.0891 -0.0535 -0.0950
  296DG     C12 6797   1.708   3.731   1.097  1.1106 -0.0665 -0.7786
  296DG     H13 6798   2.187   3.658   0.955 -0.3043  1.0478  0.0999
  296DG     H14 6799   2.266   3.654   1.117  0.9125 -1.9226 -0.6697
  296DG     H15 6800   1.629   3.779   1.154 -0.3781 -2.2980 -0.8289
  296DG     H16 6801   1.696   3.764   0.994  1.0264  2.7731  0.0472
  296DG     C17 6802   2.072   3.735   1.115 -0.0224  0.3886  0.6463
  296DG     C18 6803   1.844   3.774   1.144  0.6008 -0.0891 -1.0019
  296DG     O19 6804   1.939   3.695   1.080  0.3251  0.1395 -0.1980
  296DG     H20 6805   2.106   3.822   1.059 -1.2982  2.2473  2.6605
  296DG     H21 6806   2.072   3.759   1.221  0.8960  0.7676  0.5692
  296DG     H22 6807   1.853   3.879   1.115 -1.0109  0.6228  0.8564
  296DG     H23 6808   1.856   3.773   1.252  1.4650  1.9769 -1.0260
  297DG      C1 6809   4.044   5.377   4.545  0.1257  0.4652  0.1008
  297DG      C2 6810   3.991   4.937   5.019  0.3365 -0.3310  0.0301
  297DG      H3 6811   4.111   5.312   4.490 -0.1942  0.8657 -0.7772
  297DG      H4 6812   4.100   5.429   4.624  1.0506 -1.7878  1.0263
  297DG      H5 6813   4.001   5.447   4.474  1.7072 -0.4358 -1.8421
  297DG      H6 6814   3.952   4.880   5.103  0.1442  1.0396  0.8941
  297DG      H7 6815   4.044   4.885   4.939  0.9911  0.3198  0.0273
  297DG      H8 6816   4.049   5.013   5.071  1.0477 -0.8744  0.0369
  297DG      O9 6817   3.954   5.293   4.616 -0.0630 -0.2621  0.0961
  297DG     O10 6818   3.897   5.014   4.945 -0.3091 -0.1982  0.1852
  297DG     C11 6819   3.850   5.251   4.523 -0.3043  0.1590  0.0616
  297DG     C12 6820   3.790   4.946   4.886  0.7296  0.2485 -0.6799
  297DG     H13 6821   3.878   5.192   4.436 -1.5850 -0.7644  0.2621
  297DG     H14 6822   3.799   5.342   4.490 -1.2850 -0.4917 -0.2669
  297DG     H15 6823   3.734   4.887   4.958 -0.1692 -0.1561 -1.6847
  297DG     H16 6824   3.848   4.870   4.833  1.6267  0.0665  0.5080
  297DG     C17 6825   3.742   5.169   4.595 -0.8192  0.1576  0.2921
  297DG     C18 6826   3.714   5.030   4.790  0.1361 -0.7942 -0.6229
  297DG     O19 6827   3.809   5.077   4.691  0.0826  0.2313 -0.2710
  297DG     H20 6828   3.685   5.110   4.525  3.1260 -1.5777 -1.7818
  297DG     H21 6829   3.669   5.235   4.643 -0.1141 -0.0865  1.7643
  297DG     H22 6830   3.631   4.973   4.748 -1.2585  1.2879 -0.8533
  297DG     H23 6831   3.676   5.107   4.858  0.7149 -0.2250 -0.9384
  298DG      C1 6832   3.013   2.445   3.017 -0.6202  0.0428  0.2149
  298DG      C2 6833   2.486   2.601   3.360  0.2051 -0.6302 -0.0891
  298DG      H3 6834   3.015   2.348   2.968 -1.9611 -0.3807  0.9641
  298DG      H4 6835   3.049   2.443   3.119  0.2955 -2.8989 -0.0904
  298DG      H5 6836   3.076   2.516   2.962 -1.0765  0.2254 -0.0771
  298DG      H6 6837   2.577   2.617   3.419 -0.2656  0.3158  0.3942
  298DG      H7 6838   2.476   2.692   3.300 -0.2091 -0.1424  0.7133
  298DG      H8 6839   2.392   2.595   3.414  0.6866 -0.0679  0.8360
  298DG      O9 6840   2.879   2.485   3.019 -0.1232  0.1732  0.1060
  298DG     O10 6841   2.504   2.491   3.266 -0.0495 -0.0799  0.0058
  298DG     C11 6842   2.829   2.539   2.901 -0.3323 -0.0284 -0.0007
  298DG     C12 6843   2.419   2.500   3.152  0.3681  0.2358 -0.0173
  298DG     H13 6844   2.818   2.462   2.824  0.0984 -0.3820  0.2776
  298DG     H14 6845   2.897   2.604   2.845 -0.1731 -1.0948 -1.1002
  298DG     H15 6846   2.324   2.550   3.171  0.8251  1.1308 -0.0684
  298DG     H16 6847   2.384   2.404   3.113 -1.7417  0.1564  1.8271
  298DG     C17 6848   2.691   2.603   2.925  0.2392  0.5880 -0.1252
  298DG     C18 6849   2.491   2.580   3.049 -0.0274  0.3732 -0.3714
  298DG     O19 6850   2.621   2.522   3.021 -0.4316  0.1513 -0.4420
  298DG     H20 6851   2.639   2.623   2.832  2.3442 -0.6408 -1.6606
  298DG     H21 6852   2.717   2.702   2.964  0.1040  0.3970  0.4677
  298DG     H22 6853   2.444   2.585   2.951 -1.1756  1.2338  0.1954
  298DG     H23 6854   2.499   2.684   3.082 -0.5212 -0.3764  2.3731
  299DG      C1 6855   2.450   0.604   4.503  0.1288  0.0137  0.2051
  299DG      C2 6856   2.488   0.449   3.886 -0.2072 -0.1381 -0.5573
  299DG      H3 6857   2.507   0.514   4.478 -0.4214 -1.4293  3.5751
  299DG      H4 6858   2.358   0.566   4.547 -1.1394  0.9691 -1.5002
  299DG      H5 6859   2.514   0.636   4.585  0.4509 -2.2742  0.9367
  299DG      H6 6860   2.408   0.378   3.901  0.6622 -1.0576 -0.1803
  299DG      H7 6861   2.506   0.467   3.780 -1.3627  1.2786 -0.5394
  299DG      H8 6862   2.575   0.401   3.931 -1.6992 -1.0117  1.5534
  299DG      O9 6863   2.427   0.702   4.396 -0.1449 -0.0670 -0.0106
  299DG     O10 6864   2.463   0.575   3.956  0.4103  0.1626  0.0289
  299DG     C11 6865   2.541   0.789   4.386 -0.2038 -0.1976  0.2879
  299DG     C12 6866   2.566   0.662   3.928  0.1850  0.9578 -0.4121
  299DG     H13 6867   2.633   0.731   4.397  0.4976  0.5300 -1.4147
  299DG     H14 6868   2.535   0.865   4.465 -0.4870 -0.0363  0.1123
  299DG     H15 6869   2.566   0.667   3.819  0.0569  0.9483 -0.4121
  299DG     H16 6870   2.658   0.619   3.969 -1.1726  0.5115  2.4067
  299DG     C17 6871   2.537   0.858   4.245  0.7347  0.3694  0.1763
  299DG     C18 6872   2.548   0.788   4.012  0.9453 -0.1395 -0.4741
  299DG     O19 6873   2.537   0.750   4.151 -0.4055 -0.4049 -0.4816
  299DG     H20 6874   2.624   0.920   4.224  1.7464 -1.2535 -0.6221
  299DG     H21 6875   2.442   0.910   4.232 -0.7398 -2.3089 -0.3886
  299DG     H22 6876   2.640   0.845   4.001  1.5618 -0.4376  2.3543
  299DG     H23 6877   2.471   0.858   3.981  0.4442 -0.3313  0.2888
  300DG      C1 6878   1.270   3.630   0.890 -0.3551 -0.6563 -0.5734
  300DG      C2 6879   0.653   3.656   0.727  0.2328  0.3223 -0.2111
  300DG      H3 6880   1.261   3.631   0.999 -0.3914  1.0748 -0.5742
  300DG      H4 6881   1.369   3.637   0.846 -0.5169  0.0630 -0.8379
  300DG      H5 6882   1.233   3.530   0.868 -0.8648 -0.8691  1.1480
  300DG      H6 6883   0.595   3.698   0.644 -1.1726 -0.5141  0.3103
  300DG      H7 6884   0.667   3.552   0.697 -0.6896  0.3354 -0.7654
  300DG      H8 6885   0.601   3.670   0.822  1.5846  0.1543  0.5663
  300DG      O9 6886   1.183   3.722   0.824  0.3197  0.6052 -0.5399
  300DG     O10 6887   0.773   3.727   0.727  0.1768 -0.2418  0.3337
  300DG     C11 6888   1.202   3.860   0.856  0.2879  0.2312 -0.1542
  300DG     C12 6889   0.751   3.864   0.764 -0.0192 -0.7973 -0.4678
  300DG     H13 6890   1.307   3.887   0.844  1.0517 -0.8193  3.1522
  300DG     H14 6891   1.194   3.884   0.962 -0.4495 -0.1849 -0.1142
  300DG     H15 6892   0.711   3.865   0.865  0.2245 -1.9792 -0.3458
  300DG     H16 6893   0.667   3.912   0.713 -1.3918  1.2921  3.4036
  300DG     C17 6894   1.116   3.944   0.764 -0.6495  0.1918  0.3737
  300DG     C18 6895   0.877   3.955   0.737 -0.1165 -0.3234 -0.0344
  300DG     O19 6896   0.991   3.891   0.781  0.0118  0.2720  0.3824
  300DG     H20 6897   1.152   3.931   0.662 -3.0751  1.6390 -0.7373
  300DG     H21 6898   1.114   4.045   0.804  0.7831 -0.0950  1.2312
  300DG     H22 6899   0.883   3.968   0.629  1.4699  1.2447  0.1856
  300DG     H23 6900   0.862   4.056   0.775 -0.0339 -0.6510  0.8987
  301THF     O1 6901   0.937   0.556   2.361 -0.2907 -0.2247  0.0124
  301THF     C2 6902   0.837   0.514   2.451  0.6242  0.1754  0.5828
  301THF     C3 6903   0.923   0.463   2.253 -0.7772 -1.0305 -0.5589
  301THF     H4 6904   0.821   0.588   2.529 -2.6089 -1.0181  1.2050
  301THF     H5 6905   0.855   0.421   2.505 -1.6408 -0.1070  0.9636
  301THF     H6 6906   0.989   0.500   2.176  1.8079 -0.5107  1.7495
  301THF     H7 6907   0.972   0.375   2.295  0.4575 -0.1234 -0.0502
  301THF     C8 6908   0.769   0.448   2.225 -0.3251 -0.4213  0.6533
  301THF     C9 6909   0.712   0.481   2.367 -0.1271 -0.0916  0.3265
  301THF    H10 6910   0.747   0.349   2.184  2.8501 -0.2641 -1.8938
  301THF    H11 6911   0.735   0.517   2.147 -2.7003 -0.4436  1.5954
  301THF    H12 6912   0.654   0.573   2.365  0.7283  0.4654  0.7204
  301THF    H13 6913   0.641   0.407   2.404 -2.3154  2.7710  2.2394
  302THF     O1 6914   1.431   3.916   4.728  0.9022 -0.0448  0.0245
  302THF     C2 6915   1.330   3.840   4.799  0.3954 -0.1414 -0.0942
  302THF     C3 6916   1.555   3.875   4.766  0.2373 -0.0840 -0.4906
  302THF     H4 6917   1.242   3.841   4.736 -0.3355  0.1340  0.9021
  302THF     H5 6918   1.308   3.889   4.894  1.0466  1.4035 -0.6989
  302THF     H6 6919   1.639   3.898   4.700  0.5029  0.6167  0.0838
  302THF     H7 6920   1.574   3.908   4.868 -0.3610 -1.1977 -0.0055
  302THF     C8 6921   1.530   3.726   4.782  0.2399  0.6569 -0.2107
  302THF     C9 6922   1.387   3.704   4.833 -0.5609 -0.0100 -0.2833
  302THF    H10 6923   1.602   3.682   4.851  0.3506 -0.3862 -0.9805
  302THF    H11 6924   1.547   3.665   4.693  2.1339  0.2352  0.3844
  302THF    H12 6925   1.333   3.613   4.804 -0.3964  0.0323 -0.7214
  302THF    H13 6926   1.384   3.708   4.942  0.4375 -0.6283 -0.2228
  303THF     O1 6927   2.249   0.151   1.743 -0.1138 -0.7179 -0.0352
  303THF     C2 6928   2.170   0.126   1.852 -0.2887 -0.6388  0.1428
  303THF     C3 6929   2.320   0.271   1.777  0.1880 -0.1496 -0.0461
  303THF     H4 6930   2.156   0.019   1.860 -0.0934 -0.5532  2.0308
  303THF     H5 6931   2.072   0.175   1.842 -0.2736 -0.1126  2.1095
  303THF     H6 6932   2.423   0.278   1.742  0.6920  0.0911  1.4054
  303THF     H7 6933   2.255   0.340   1.723 -1.5265 -2.1323 -0.6215
  303THF     C8 6934   2.312   0.289   1.923 -0.3076 -0.3766 -0.3464
  303THF     C9 6935   2.254   0.162   1.972  0.2832 -0.0685 -0.0837
  303THF    H10 6936   2.243   0.372   1.935  0.0609 -0.2721  1.2520
  303THF    H11 6937   2.399   0.331   1.974  0.0704 -0.5443 -0.8481
  303THF    H12 6938   2.339   0.095   1.990 -0.3210 -0.3130  2.2476
  303THF    H13 6939   2.190   0.169   2.060 -0.0787  1.1339 -0.4204
  304THF     O1 6940   0.333   0.943   1.263 -0.5553 -0.1770  0.0742
  304THF     C2 6941   0.271   1.025   1.352  0.9088 -0.4521 -0.5848
  304THF     C3 6942   0.381   1.014   1.148  0.2920 -0.1158 -0.4745
  304THF     H4 6943   0.346   1.074   1.414  0.5452  0.9127 -1.1874
  304THF     H5 6944   0.206   0.972   1.420  1.5955  2.1429  2.3093
  304THF     H6 6945   0.474   1.060   1.180 -1.4977  1.1861  3.5348
  304THF     H7 6946   0.402   0.954   1.059  0.7500 -1.6209  0.5984
  304THF     C8 6947   0.281   1.132   1.135  0.0399 -0.8191 -0.2065
  304THF     C9 6948   0.192   1.115   1.260 -0.3118 -0.2006 -0.5607
  304THF    H10 6949   0.236   1.135   1.035 -1.4412  3.7290  0.3973
  304THF    H11 6950   0.326   1.230   1.148 -1.1069 -0.2186 -0.5787
  304THF    H12 6951   0.160   1.208   1.306 -0.6629 -1.0567  0.9945
  304THF    H13 6952   0.099   1.063   1.236  0.9709 -1.2995 -3.6378
  305THF     O1 6953   2.249   4.720   4.900  0.2714 -0.3783 -0.0963
  305THF     C2 6954   2.281   4.655   5.022 -0.3482  0.6866 -0.7364
  305THF     C3 6955   2.245   4.864   4.923  0.1153 -0.6517  0.1023
  305THF     H4 6956   2.386   4.624   5.016 -0.3382  0.6229 -0.2197
  305THF     H5 6957   2.228   4.562   5.038  0.4611  0.3486  0.0451
  305THF     H6 6958   2.351   4.885   4.908 -0.2482  0.5941 -0.9159
  305THF     H7 6959   2.179   4.915   4.852  1.3055  0.0416 -0.5286
  305THF     C8 6960   2.212   4.883   5.067  0.4060  0.3168  0.5186
  305THF     C9 6961   2.262   4.751   5.137 -0.4830  0.2779  0.0675
  305THF    H10 6962   2.105   4.875   5.085  0.7924 -1.7175  2.2691
  305THF    H11 6963   2.254   4.979   5.097  1.6993  0.8534 -2.5970
  305THF    H12 6964   2.353   4.776   5.190 -0.8625  2.0070 -0.0322
  305THF    H13 6965   2.197   4.729   5.222 -2.3466  0.6298 -1.2079
  306THF     O1 6966   2.533   0.623   2.199  0.0184 -0.0479 -0.0426
  306THF     C2 6967   2.665   0.675   2.217 -0.0582 -0.1562  0.2951
  306THF     C3 6968   2.475   0.621   2.332  0.1790 -0.4526  0.4366
  306THF     H4 6969   2.714   0.729   2.136 -0.0042  3.4967  2.5784
  306THF     H5 6970   2.733   0.598   2.254 -1.2170 -1.9123 -1.0482
  306THF     H6 6971   2.367   0.611   2.318  0.0596  0.0680  0.9477
  306THF     H7 6972   2.521   0.544   2.395  2.1738 -0.4591 -0.9381
  306THF     C8 6973   2.506   0.760   2.382 -0.7991 -0.2484 -0.2699
  306THF     C9 6974   2.646   0.785   2.327 -0.5029  0.4851 -0.4012
  306THF    H10 6975   2.505   0.770   2.491 -0.5829 -0.9774 -0.1938
  306THF    H11 6976   2.451   0.834   2.324  1.7462  1.1387 -1.0884
  306THF    H12 6977   2.638   0.887   2.289 -3.8767 -0.1962 -1.8801
  306THF    H13 6978   2.721   0.781   2.407 -0.4603 -0.3625 -0.4735
  307THF     O1 6979   2.098   4.719   0.091  0.0064  0.1061 -0.4185
  307THF     C2 6980   2.190   4.734   0.194 -0.3269  0.4276 -0.3100
  307THF     C3 6981   1.963   4.680   0.138 -0.1501 -0.0947 -0.1658
  307THF     H4 6982   2.214   4.838   0.212  0.2429 -0.0958  2.2724
  307THF     H5 6983   2.277   4.672   0.171  0.1109  0.0836  2.0981
  307THF     H6 6984   1.901   4.753   0.086  0.6588  0.5262 -0.2847
  307THF     H7 6985   1.940   4.579   0.103  0.0056  0.3514 -1.6381
  307THF     C8 6986   1.974   4.702   0.280  0.1531  0.3895  0.2267
  307THF     C9 6987   2.118   4.675   0.317  0.0581  0.3834  0.4134
  307THF    H10 6988   1.902   4.639   0.332 -0.4211  1.6617  1.0211
  307THF    H11 6989   1.955   4.807   0.304 -0.0915  0.6822 -1.1908
  307THF    H12 6990   2.148   4.730   0.407  1.4316  0.6542 -0.1772
  307THF    H13 6991   2.132   4.568   0.327 -1.5681  0.2469  1.5445
  308THF     O1 6992   0.315   2.166   1.008  0.2315 -0.6611  0.6824
  308THF     C2 6993   0.238   2.119   1.118 -0.3085 -0.1619 -0.1548
  308THF     C3 6994   0.252   2.104   0.896  0.5177  0.3686 -0.8817
  308THF     H4 6995   0.253   2.177   1.209  0.0282  2.6470 -1.8527
  308THF     H5 6996   0.276   2.017   1.130  0.1330 -0.2822 -2.2066
  308THF     H6 6997   0.284   2.151   0.803  2.0297 -1.0323 -1.1295
  308THF     H7 6998   0.282   1.999   0.890  0.6044  0.3460 -0.1376
  308THF     C8 6999   0.099   2.112   0.923 -0.1248 -0.7485 -0.4475
  308THF     C9 7000   0.093   2.144   1.069  0.8484  0.1226 -0.5161
  308THF    H10 7001   0.048   2.018   0.903 -1.8884  0.1107 -0.1811
  308THF    H11 7002   0.053   2.193   0.867  0.3876 -0.9922 -1.2357
  308THF    H12 7003   0.073   2.251   1.064  2.0293  0.5207  1.8284
  308THF    H13 7004   0.009   2.091   1.115  0.4757  2.3252  1.5371
  309THF     O1 7005   0.361   0.087   5.314 -0.7089  0.3234 -0.0579
  309THF     C2 7006   0.306   0.048   5.440  0.5127 -0.0062  0.3926
  309THF     C3 7007   0.306   0.006   5.209  0.5045  0.1228 -0.4365
  309THF     H4 7008   0.321   0.128   5.514  1.0377 -1.7984  2.3232
  309THF     H5 7009   0.349  -0.042   5.484  0.6948  0.4155  1.1075
  309THF     H6 7010   0.279   0.064   5.120  3.6063 -1.5118 -2.6423
  309THF     H7 7011   0.371  -0.076   5.179 -1.2680 -0.9277 -1.6391
  309THF     C8 7012   0.179  -0.048   5.262 -0.0509  0.1225  0.1389
  309THF     C9 7013   0.158   0.026   5.396 -0.4999 -0.4566 -0.5623
  309THF    H10 7014   0.189  -0.156   5.274  1.5689 -0.1205 -2.5950
  309THF    H11 7015   0.096  -0.039   5.192 -0.3781 -0.1332  0.4837
  309THF    H12 7016   0.112   0.123   5.377  2.0374  0.6544 -1.3720
  309THF    H13 7017   0.109  -0.025   5.480 -2.2103  0.0069 -1.2324
  310THF     O1 7018   0.727   0.538   3.957 -0.3945  0.0706  0.0557
  310THF     C2 7019   0.620   0.614   3.900 -0.4796 -0.7775  0.2581
  310THF     C3 7020   0.822   0.535   3.857  0.0225 -0.3538  0.5529
  310THF     H4 7021   0.635   0.721   3.916  0.7347 -0.7197 -1.1216
  310THF     H5 7022   0.527   0.588   3.950 -0.6198 -1.6001 -0.3930
  310THF     H6 7023   0.878   0.629   3.859 -0.1422 -0.2242 -0.2962
  310THF     H7 7024   0.900   0.460   3.873  0.8664  0.4736  0.4218
  310THF     C8 7025   0.753   0.523   3.725 -0.1687  0.2231 -0.2308
  310THF     C9 7026   0.615   0.569   3.753 -0.3317 -0.5719 -0.0295
  310THF    H10 7027   0.738   0.418   3.697  0.4907  0.6839 -2.5823
  310THF    H11 7028   0.799   0.584   3.647 -0.7943  0.7681 -0.1822
  310THF    H12 7029   0.585   0.650   3.685  1.6227  0.5116  0.3239
  310THF    H13 7030   0.535   0.496   3.746 -0.6671 -0.1773 -0.4450
  311THF     O1 7031   3.107   2.187   2.373 -0.0654  0.5196  0.3464
  311THF     C2 7032   3.013   2.100   2.422 -0.1433  0.4469 -0.2586
  311THF     C3 7033   3.046   2.318   2.379  0.0900 -0.1501 -0.1976
  311THF     H4 7034   3.046   1.998   2.443 -0.6170  0.6373  1.6293
  311THF     H5 7035   2.939   2.090   2.343 -0.3093  1.0728 -0.1866
  311THF     H6 7036   3.120   2.397   2.369  1.9822 -1.7128  0.7211
  311THF     H7 7037   2.981   2.335   2.294 -1.8427 -0.6029  1.1426
  311THF     C8 7038   2.971   2.327   2.512 -0.1005 -0.0535  0.5085
  311THF     C9 7039   2.939   2.179   2.538 -0.4071  0.8384 -0.2939
  311THF    H10 7040   2.884   2.393   2.504  2.0125  2.9694  0.5766
  311THF    H11 7041   3.039   2.372   2.584 -0.4464  0.1286  0.7256
  311THF    H12 7042   2.978   2.160   2.638 -2.3844  0.0211  0.3656
  311THF    H13 7043   2.834   2.153   2.547 -0.2031  0.4790  1.2369
  312THF     O1 7044   2.121   5.123   4.746  0.3033 -0.4240 -0.2211
  312THF     C2 7045   2.000   5.203   4.756 -0.3294 -0.7556  0.3492
  312THF     C3 7046   2.219   5.199   4.814  0.2578  0.1500  0.2849
  312THF     H4 7047   1.901   5.157   4.760 -1.1794  1.0422  1.2301
  312THF     H5 7048   2.003   5.268   4.668 -0.7695 -0.9622  0.1758
  312THF     H6 7049   2.313   5.147   4.833 -0.9280 -1.5745  1.8079
  312THF     H7 7050   2.231   5.273   4.735 -0.4276 -0.0430 -0.0063
  312THF     C8 7051   2.142   5.241   4.939 -0.4520  0.0999  0.1132
  312THF     C9 7052   2.017   5.295   4.877 -0.3803  0.4070  0.1522
  312THF    H10 7053   2.192   5.322   4.992  1.7213 -0.4015 -1.0684
  312THF    H11 7054   2.129   5.152   5.001 -1.9871 -0.8263 -1.4353
  312THF    H12 7055   1.930   5.291   4.942 -0.3901 -2.8376  0.1376
  312THF    H13 7056   2.021   5.397   4.841 -2.6159  0.4178 -0.1981
  313THF     O1 7057   0.897   1.029   2.956  0.3404 -0.4658  0.4403
  313THF     C2 7058   0.818   1.075   2.848 -0.3249  0.5416 -0.4897
  313THF     C3 7059   0.872   1.096   3.072 -0.1938 -0.0113  0.5242
  313THF     H4 7060   0.756   0.991   2.816 -2.0639  1.3879  0.5021
  313THF     H5 7061   0.893   1.095   2.771  1.4765 -3.3828 -0.0216
  313THF     H6 7062   0.876   1.036   3.163  1.1086  2.7008  2.4282
  313THF     H7 7063   0.950   1.172   3.080  1.4724 -1.3138 -1.9230
  313THF     C8 7064   0.728   1.157   3.059  0.1830 -0.5494  0.4946
  313THF     C9 7065   0.744   1.191   2.906 -0.7464  1.0689  0.0015
  313THF    H10 7066   0.719   1.246   3.120  0.1359  0.2038 -0.5853
  313THF    H11 7067   0.654   1.078   3.077  1.4371 -1.6776  0.8621
  313THF    H12 7068   0.652   1.215   2.853 -0.8037 -1.1194 -1.0396
  313THF    H13 7069   0.803   1.280   2.883  0.5126 -0.2457 -2.2969
  314THF     O1 7070   1.869   1.300   5.283 -0.6305  0.2647 -0.1133
  314THF     C2 7071   1.972   1.396   5.291  0.1077 -0.1266  0.5304
  314THF     C3 7072   1.814   1.311   5.152  0.2333  0.0880  0.0475
  314THF     H4 7073   2.053   1.358   5.229 -0.2403  0.7629 -0.4924
  314THF     H5 7074   1.996   1.406   5.397  0.4508 -0.4015  0.4805
  314THF     H6 7075   1.884   1.252   5.093  1.3747 -0.9417  2.2926
  314THF     H7 7076   1.716   1.264   5.143  1.1592 -2.0212  0.2234
  314THF     C8 7077   1.817   1.463   5.128 -0.0564 -0.0127 -0.4163
  314THF     C9 7078   1.911   1.519   5.230  0.3157  0.0132  0.0286
  314THF    H10 7079   1.717   1.506   5.135  0.0958  0.3514 -0.4195
  314THF    H11 7080   1.848   1.473   5.024 -1.1125 -3.0245 -1.1081
  314THF    H12 7081   1.988   1.590   5.200 -1.9266  3.1370  1.1716
  314THF    H13 7082   1.862   1.587   5.300  0.7980  1.5015 -1.0188
  315THF     O1 7083   0.134   1.364   2.648  0.3417 -0.3520 -0.2745
  315THF     C2 7084   0.058   1.424   2.549  1.1957  0.0970 -0.0834
  315THF     C3 7085   0.044   1.298   2.743 -0.0642  0.1518  0.0160
  315THF     H4 7086   0.104   1.422   2.450 -1.4829  0.7918 -1.4373
  315THF     H5 7087   0.058   1.531   2.566 -1.0595 -0.0259  1.0138
  315THF     H6 7088   0.098   1.215   2.789 -1.4511 -0.1856  1.0939
  315THF     H7 7089   0.017   1.372   2.818  0.7059 -2.7423  3.4263
  315THF     C8 7090  -0.066   1.252   2.650 -0.0441  0.3921 -0.3486
  315THF     C9 7091  -0.080   1.361   2.558  0.6424  0.0741 -0.8728
  315THF    H10 7092  -0.163   1.238   2.698  0.3820 -1.5461  0.0338
  315THF    H11 7093  -0.042   1.159   2.598 -3.1808  0.2291 -1.6918
  315THF    H12 7094  -0.131   1.334   2.466 -1.8456  0.2218  0.3858
  315THF    H13 7095  -0.144   1.437   2.602  2.9146  2.9550 -2.1797
  316THF     O1 7096   1.651   3.098   1.854  0.2382  0.6975  0.1093
  316THF     C2 7097   1.737   3.200   1.909 -0.0319  0.3426  0.0063
  316THF     C3 7098   1.564   3.145   1.748  0.2439 -0.3928 -0.1641
  316THF     H4 7099   1.817   3.160   1.970 -1.2694  0.1132  1.5529
  316THF     H5 7100   1.683   3.272   1.971 -0.2227  1.8217 -1.7782
  316THF     H6 7101   1.521   3.067   1.685  1.7908 -1.2526 -0.2031
  316THF     H7 7102   1.481   3.194   1.797  1.7034 -0.4030  2.5518
  316THF     C8 7103   1.665   3.240   1.682 -0.4356 -0.6654  1.0165
  316THF     C9 7104   1.782   3.264   1.776  0.1054 -0.2856  0.0490
  316THF    H10 7105   1.607   3.327   1.650 -0.2524 -0.6496  0.7182
  316THF    H11 7106   1.701   3.182   1.597  1.0419 -0.0606  1.2136
  316THF    H12 7107   1.868   3.213   1.731  0.8525  1.8479 -1.0817
  316THF    H13 7108   1.808   3.368   1.794 -0.9499 -0.2692  1.7067
  317THF     O1 7109   2.397   4.294   4.616 -0.0818 -0.0409  0.0165
  317THF     C2 7110   2.450   4.175   4.683 -0.5602 -0.8964  0.0489
  317THF     C3 7111   2.277   4.336   4.676  0.3119  1.0997 -0.6013
  317THF     H4 7112   2.556   4.165   4.663 -0.3554  0.9085  0.0212
  317THF     H5 7113   2.393   4.086   4.656 -0.1663 -0.9249 -0.7207
  317THF     H6 7114   2.260   4.442   4.659  2.3973  1.4356 -0.9399
  317THF     H7 7115   2.192   4.285   4.632  1.0268  0.1345 -0.8880
  317THF     C8 7116   2.307   4.309   4.828  0.1000  0.2553  0.5150
  317THF     C9 7117   2.434   4.219   4.827 -1.3196 -0.3957  0.3269
  317THF    H10 7118   2.226   4.249   4.867  1.1515 -1.0636  0.7406
  317THF    H11 7119   2.304   4.389   4.902 -0.3756 -0.1164  0.9049
  317THF    H12 7120   2.521   4.283   4.843  0.3659 -2.7277  0.9676
  317THF    H13 7121   2.434   4.137   4.898 -1.6338 -0.4375  0.2795
  318THF     O1 7122   5.103   1.910   2.249 -0.4005 -0.3068  0.1158
  318THF     C2 7123   5.186   2.021   2.276  0.1816 -0.2935  0.6677
  318THF     C3 7124   5.137   1.851   2.127  0.9937  0.5438  0.2373
  318THF     H4 7125   5.221   2.007   2.378  0.0165  3.3001  1.3256
  318THF     H5 7126   5.152   2.124   2.266  0.7491 -0.0812  0.8895
  318THF     H6 7127   5.118   1.744   2.140  0.6975  0.6778  0.9554
  318THF     H7 7128   5.069   1.889   2.051 -0.6235 -1.1920  0.7225
  318THF     C8 7129   5.281   1.884   2.109  0.0481  0.5635 -0.3797
  318THF     C9 7130   5.305   2.016   2.177  0.0069 -0.6145 -0.4152
  318THF    H10 7131   5.301   1.893   2.002 -1.7739  1.7857 -0.6564
  318THF    H11 7132   5.329   1.799   2.159  0.1258  0.2887 -0.9158
  318THF    H12 7133   5.402   2.008   2.228 -0.7856  0.1412  1.2822
  318THF    H13 7134   5.305   2.093   2.100 -0.0294  1.0598  1.1989
  319THF     O1 7135   3.108   0.544   2.764  0.2695 -0.3492  0.1891
  319THF     C2 7136   3.194   0.614   2.851  0.2678 -0.1063  0.2867
  319THF     C3 7137   3.125   0.598   2.634  0.2460  0.1566  0.0313
  319THF     H4 7138   3.295   0.578   2.827 -0.5281 -1.9250 -0.5397
  319THF     H5 7139   3.174   0.598   2.957  0.0230  2.2287  0.6424
  319THF     H6 7140   3.206   0.541   2.588  0.3974  0.9305 -0.6755
  319THF     H7 7141   3.033   0.591   2.576  0.1581  2.6562 -0.2067
  319THF     C8 7142   3.165   0.740   2.655 -0.4182  0.0292 -0.0446
  319THF     C9 7143   3.185   0.763   2.804 -0.5083 -0.6894  0.7248
  319THF    H10 7144   3.086   0.799   2.607 -2.8674 -2.7844  0.2491
  319THF    H11 7145   3.249   0.759   2.588 -0.7156 -1.2552 -0.8164
  319THF    H12 7146   3.272   0.826   2.820  0.1056 -1.5601  0.9020
  319THF    H13 7147   3.103   0.818   2.850 -0.0888  0.3911  0.2137
  320THF     O1 7148   2.613   4.835   3.782  0.2202  0.2314 -0.8439
  320THF     C2 7149   2.689   4.945   3.751 -0.1206  0.3578  0.2483
  320THF     C3 7150   2.680   4.719   3.751 -0.3916 -0.1999  0.4961
  320THF     H4 7151   2.754   4.954   3.838  1.0516 -0.7591 -0.4768
  320THF     H5 7152   2.636   5.041   3.752 -0.6696  0.0558  0.7497
  320THF     H6 7153   2.753   4.707   3.831  0.2095  0.4509  0.0631
  320THF     H7 7154   2.606   4.639   3.746 -0.9993  0.3939 -0.4537
  320THF     C8 7155   2.752   4.752   3.617 -0.8881  0.1977  0.3976
  320THF     C9 7156   2.771   4.903   3.625  0.3343 -0.1622 -0.2660
  320THF    H10 7157   2.701   4.742   3.521 -0.2186 -0.5913  0.1096
  320THF    H11 7158   2.848   4.705   3.595  0.1652  2.2691  0.3385
  320THF    H12 7159   2.875   4.925   3.646 -0.3504  1.1259  2.1928
  320THF    H13 7160   2.759   4.959   3.533  3.1422  1.1776  0.0696
  321THF     O1 7161   3.046   2.545   4.901  0.8608 -0.3018 -0.0219
  321THF     C2 7162   3.121   2.655   4.854 -0.1468 -0.3929  0.1760
  321THF     C3 7163   3.119   2.419   4.871  0.0788  1.4837 -0.4934
  321THF     H4 7164   3.178   2.698   4.936 -1.2415  0.0689  0.7185
  321THF     H5 7165   3.056   2.731   4.813 -0.1957 -0.2469  0.5209
  321THF     H6 7166   3.187   2.397   4.953 -2.4902 -0.4365  1.2843
  321THF     H7 7167   3.044   2.340   4.877  0.2135  1.4372  1.5393
  321THF     C8 7168   3.176   2.459   4.734 -0.1895 -0.2228  0.5972
  321THF     C9 7169   3.225   2.605   4.756 -0.0556  0.0602 -0.1799
  321THF    H10 7170   3.101   2.440   4.657 -0.0393 -1.8419  0.8116
  321THF    H11 7171   3.255   2.390   4.705 -2.7131 -1.8924 -3.0175
  321THF    H12 7172   3.327   2.622   4.792  0.2834  0.3904 -1.2566
  321THF    H13 7173   3.228   2.659   4.661  1.8482  1.1634  0.4513
  322THF     O1 7174   1.401   2.149   1.134  0.1156 -0.3720 -0.2116
  322THF     C2 7175   1.408   2.184   0.996  0.3946 -0.5173 -0.0056
  322THF     C3 7176   1.279   2.074   1.140 -0.0091  0.5485  0.3530
  322THF     H4 7177   1.507   2.221   0.969 -0.0147  1.0906  0.5665
  322THF     H5 7178   1.339   2.267   0.979  0.9769 -0.1317 -0.5162
  322THF     H6 7179   1.261   2.015   1.231 -0.3213 -2.6087 -1.5890
  322THF     H7 7180   1.199   2.147   1.142  0.3542  0.9485  2.2442
  322THF     C8 7181   1.278   1.984   1.017  0.3433 -1.2641 -0.3453
  322THF     C9 7182   1.362   2.064   0.922  0.3172  0.6373 -0.2947
  322THF    H10 7183   1.180   1.979   0.969 -0.3983  0.5400  0.8458
  322THF    H11 7184   1.321   1.887   1.041 -0.4591 -2.0001 -1.7686
  322THF    H12 7185   1.434   2.000   0.871 -0.2828 -0.6180  0.3745
  322THF    H13 7186   1.297   2.092   0.839 -0.3519  3.3497  1.0235
  323THF     O1 7187   2.729   5.447   0.049  0.0765  0.2445  0.3462
  323THF     C2 7188   2.683   5.319   0.011 -0.1553  0.8422 -0.5756
  323THF     C3 7189   2.856   5.432   0.104 -0.3596 -0.1688 -0.0301
  323THF     H4 7190   2.612   5.325  -0.072  1.6521  2.2865 -2.1066
  323THF     H5 7191   2.631   5.269   0.093  2.2819  2.5893  2.2356
  323THF     H6 7192   2.903   5.530   0.112 -0.2635 -0.3813  2.7358
  323THF     H7 7193   2.858   5.385   0.202  0.9057 -2.4100 -1.0487
  323THF     C8 7194   2.918   5.332   0.005 -0.5697 -0.0227  0.4090
  323THF     C9 7195   2.806   5.239  -0.032  0.0182  0.4433  0.0179
  323THF    H10 7196   3.011   5.287   0.041 -0.3914  1.9637  2.6468
  323THF    H11 7197   2.934   5.389  -0.087 -1.5836 -0.5816 -0.1358
  323THF    H12 7198   2.794   5.200  -0.133 -0.8958 -3.6899  1.5507
  323THF    H13 7199   2.804   5.147   0.026  0.1915  1.0274  0.9715
  324THF     O1 7200   3.607   2.569   1.479 -0.1622  0.4368  0.3668
  324THF     C2 7201   3.494   2.485   1.507  0.2163  0.0721  0.1745
  324THF     C3 7202   3.595   2.613   1.344 -0.4051  0.6374  0.1898
  324THF     H4 7203   3.455   2.498   1.608 -0.0294  1.6754 -0.1083
  324THF     H5 7204   3.514   2.378   1.502  1.7402  0.3699 -0.8767
  324THF     H6 7205   3.600   2.721   1.344  0.0610  0.6684  2.3711
  324THF     H7 7206   3.672   2.574   1.277 -1.2975 -2.6351  0.8686
  324THF     C8 7207   3.462   2.560   1.286 -0.4520  0.4756  0.4193
  324THF     C9 7208   3.382   2.527   1.410 -0.1497 -0.3258  1.2551
  324THF    H10 7209   3.478   2.462   1.240 -1.4255  0.4016  0.2212
  324THF    H11 7210   3.417   2.622   1.209  0.7875  1.0902  0.1547
  324THF    H12 7211   3.313   2.601   1.451 -2.7133 -2.2057  0.6170
  324THF    H13 7212   3.317   2.442   1.389  0.3871 -0.2878 -0.7128
  325THF     O1 7213   5.293   2.545   4.099  0.0404  0.2131  0.1696
  325THF     C2 7214   5.408   2.522   4.176  0.4007 -0.6498  0.2160
  325THF     C3 7215   5.301   2.463   3.985 -0.9974  0.7049  0.2294
  325THF     H4 7216   5.412   2.583   4.266 -1.4715 -1.4050  0.8626
  325THF     H5 7217   5.483   2.566   4.111  0.7469 -1.1067  0.3029
  325THF     H6 7218   5.211   2.454   3.924 -0.3610  1.9840 -0.9647
  325THF     H7 7219   5.373   2.512   3.919  1.1064 -1.2519  0.9255
  325THF     C8 7220   5.343   2.321   4.042  0.5363 -0.4850  0.4183
  325THF     C9 7221   5.414   2.360   4.170  0.7561  0.0191 -0.3467
  325THF    H10 7222   5.410   2.262   3.980  1.2750  0.3921  0.3491
  325THF    H11 7223   5.255   2.266   4.075 -0.0441 -0.5967 -1.2445
  325THF    H12 7224   5.354   2.328   4.254 -1.3162  2.1498 -0.9158
  325THF    H13 7225   5.502   2.302   4.198  0.1002 -0.8168  0.0375
  326THF     O1 7226   2.866   0.048   1.366  1.0557  0.5278  0.6001
  326THF     C2 7227   2.860   0.189   1.342 -0.9402 -0.6207 -0.9213
  326THF     C3 7228   2.779   0.027   1.479  0.1575 -0.0664  0.0507
  326THF     H4 7229   2.876   0.218   1.238  2.6387 -1.2818 -0.6818
  326THF     H5 7230   2.944   0.236   1.394  0.3169 -2.9292 -0.7149
  326THF     H6 7231   2.691  -0.031   1.450 -1.3304  2.8024 -1.5626
  326THF     H7 7232   2.832  -0.033   1.553  1.1538 -0.1445 -0.7003
  326THF     C8 7233   2.734   0.163   1.539 -0.3647 -0.0304 -0.2926
  326THF     C9 7234   2.729   0.241   1.410 -0.2284  0.0440  0.7103
  326THF    H10 7235   2.813   0.214   1.595  3.0192 -3.6419 -1.3312
  326THF    H11 7236   2.648   0.155   1.605  0.8698  2.1126  1.7139
  326THF    H12 7237   2.646   0.210   1.346  1.1346 -0.0497 -1.1005
  326THF    H13 7238   2.728   0.349   1.424 -0.7061  0.0355  0.7624
  327THF     O1 7239   0.778   3.324   2.376  0.5246  0.1656  0.0848
  327THF     C2 7240   0.898   3.387   2.418  0.4533  0.3575  0.1633
  327THF     C3 7241   0.801   3.241   2.269 -0.0490  0.1918 -0.5403
  327THF     H4 7242   0.962   3.320   2.477  1.0985  0.2946 -0.5912
  327THF     H5 7243   0.887   3.475   2.481  1.7892  0.6321  0.0426
  327THF     H6 7244   0.830   3.142   2.304  0.5036  0.0799 -1.2958
  327THF     H7 7245   0.712   3.218   2.211 -0.0128 -2.7128  0.3853
  327THF     C8 7246   0.905   3.314   2.188 -0.4188 -0.7093  0.2015
  327THF     C9 7247   0.961   3.416   2.280  0.1126  0.0715 -0.4690
  327THF    H10 7248   0.853   3.359   2.104 -0.9454 -1.5360  0.0694
  327THF    H11 7249   0.982   3.246   2.151  3.2370  2.5016  1.1994
  327THF    H12 7250   1.070   3.410   2.272 -0.0273  0.2536 -3.3262
  327THF    H13 7251   0.945   3.521   2.257  0.2095  0.4342  1.0061
  328THF     O1 7252   2.806   2.960   5.241  0.1396 -0.2233  0.5115
  328THF     C2 7253   2.676   2.911   5.196 -0.0870  0.6575  0.5280
  328THF     C3 7254   2.914   2.916   5.145  0.7205  1.0456 -0.0824
  328THF     H4 7255   2.622   2.998   5.157 -0.7605  1.2800  2.7005
  328THF     H5 7256   2.637   2.867   5.288  1.8039 -0.4171  0.8568
  328THF     H6 7257   2.935   2.983   5.061  1.6688  0.2540 -0.4924
  328THF     H7 7258   3.010   2.897   5.194  0.7149  1.9412  0.3123
  328THF     C8 7259   2.847   2.793   5.082  0.2272  0.1812 -0.0107
  328THF     C9 7260   2.699   2.806   5.093 -0.3306 -0.4597  0.2270
  328THF    H10 7261   2.881   2.701   5.129 -1.4908 -0.8050 -0.6197
  328THF    H11 7262   2.875   2.775   4.978 -0.2743 -0.2689 -0.0699
  328THF    H12 7263   2.648   2.839   5.003 -1.6291  1.4851  1.6178
  328THF    H13 7264   2.653   2.713   5.125 -1.9463  0.0456 -0.5477
  329THF     O1 7265   2.110   1.067   2.061  0.1626  0.3050  0.6523
  329THF     C2 7266   2.229   1.141   2.106 -0.2831 -0.2003 -0.7389
  329THF     C3 7267   2.039   1.007   2.169 -0.4592 -0.1050  0.4686
  329THF     H4 7268   2.240   1.224   2.036 -2.6905  0.9737  0.1679
  329THF     H5 7269   2.322   1.085   2.097 -0.8615 -1.0212 -1.8892
  329THF     H6 7270   1.933   1.028   2.181 -1.1540 -2.8334 -0.2341
  329THF     H7 7271   2.045   0.899   2.155 -1.8226  0.0843 -2.1749
  329THF     C8 7272   2.118   1.050   2.289  0.0395  0.3848  0.1868
  329THF     C9 7273   2.190   1.176   2.250 -0.1187 -0.5830 -0.2557
  329THF    H10 7274   2.192   0.974   2.316 -0.8165 -0.3874  0.4094
  329THF    H11 7275   2.054   1.054   2.378 -0.8231 -0.0264 -0.4066
  329THF    H12 7276   2.125   1.263   2.243  3.3037  2.0978 -1.8791
  329THF    H13 7277   2.272   1.211   2.313  0.7429 -0.6366 -1.3172
  330THF     O1 7278   5.344   5.015   4.093 -0.7980 -0.3392  0.0943
  330THF     C2 7279   5.255   5.120   4.058  0.0664 -0.5136  0.0510
  330THF     C3 7280   5.454   5.013   4.006  0.3173  0.2395  0.4576
  330THF     H4 7281   5.203   5.175   4.137  0.0588 -0.6694  0.1549
  330THF     H5 7282   5.180   5.084   3.989  0.9913 -0.2960 -1.0946
  330THF     H6 7283   5.535   5.015   4.079  2.4187 -2.3630 -1.5879
  330THF     H7 7284   5.485   4.921   3.956  3.4675  1.3031  0.2412
  330THF     C8 7285   5.441   5.129   3.909  0.4626  0.1599 -0.2054
  330THF     C9 7286   5.337   5.220   3.968 -0.9338  0.3715  0.8141
  330THF    H10 7287   5.404   5.090   3.814 -2.0596 -0.6438  1.0130
  330THF    H11 7288   5.537   5.180   3.896  0.8655 -0.6710 -0.6143
  330THF    H12 7289   5.376   5.292   4.040 -1.5214  0.0460  1.4724
  330THF    H13 7290   5.271   5.272   3.899  0.3934 -1.2703 -1.8492
  331THF     O1 7291   4.690   1.890   0.483  0.6284  0.1194  0.0520
  331THF     C2 7292   4.823   1.863   0.477 -0.1825 -0.1697 -0.0017
  331THF     C3 7293   4.675   2.023   0.438  0.0215  0.0431  0.2811
  331THF     H4 7294   4.852   1.835   0.376  0.9396  0.3810  0.1573
  331THF     H5 7295   4.841   1.776   0.541 -0.2106 -2.0198 -2.3786
  331THF     H6 7296   4.672   2.020   0.329  1.7136  2.0989  0.1203
  331THF     H7 7297   4.583   2.061   0.483  0.0348  1.5821 -0.8979
  331THF     C8 7298   4.795   2.102   0.494  0.3749 -0.3923  0.1954
  331THF     C9 7299   4.894   1.989   0.523  0.8089 -0.2731 -0.3507
  331THF    H10 7300   4.765   2.163   0.579  0.4600  0.8166 -0.6191
  331THF    H11 7301   4.826   2.175   0.420  2.2521  1.6119  2.7728
  331THF    H12 7302   4.985   1.987   0.463  1.6117  0.1053  0.8286
  331THF    H13 7303   4.923   1.973   0.626 -1.5527 -3.0181  0.0244
  332THF     O1 7304   3.070   3.862   0.020 -0.0568 -0.4265 -0.1792
  332THF     C2 7305   3.086   3.786  -0.100 -0.8535 -0.2971 -0.7073
  332THF     C3 7306   3.144   3.804   0.126 -0.0765 -0.2841  0.4774
  332THF     H4 7307   3.172   3.815  -0.160  0.1076 -0.7337  0.4362
  332THF     H5 7308   2.998   3.808  -0.162 -1.8174 -1.2120  0.2992
  332THF     H6 7309   3.250   3.819   0.108  0.2255 -3.0411 -0.6153
  332THF     H7 7310   3.116   3.839   0.225  2.0191 -0.8272  1.3118
  332THF     C8 7311   3.114   3.657   0.089  0.0550 -0.0186 -0.2901
  332THF     C9 7312   3.109   3.642  -0.062  0.5032  0.1110 -0.2583
  332THF    H10 7313   3.027   3.627   0.147 -0.2687  1.2363 -0.0861
  332THF    H11 7314   3.189   3.583   0.116 -0.0837 -0.4229 -0.9842
  332THF    H12 7315   3.205   3.608  -0.101  0.3947  1.0929 -1.4244
  332THF    H13 7316   3.026   3.575  -0.085 -1.0749  1.6675  0.6583
  333THF     O1 7317   2.998   1.589   3.689  0.3314 -0.5510  0.3061
  333THF     C2 7318   2.983   1.503   3.806  0.6141  0.4128 -0.0006
  333THF     C3 7319   3.123   1.575   3.640 -1.0701  0.3588 -0.1732
  333THF     H4 7320   2.887   1.453   3.808  0.7306 -0.0806 -2.7159
  333THF     H5 7321   3.001   1.555   3.900  0.1570  0.5181  0.0310
  333THF     H6 7322   3.108   1.583   3.533  0.5531  4.0135 -0.2881
  333THF     H7 7323   3.183   1.661   3.672  1.4207 -1.8142  1.4241
  333THF     C8 7324   3.181   1.440   3.671 -0.0170  0.9551 -0.3779
  333THF     C9 7325   3.099   1.393   3.794  0.5660  0.5587 -0.0966
  333THF    H10 7326   3.286   1.441   3.700 -0.3439 -0.9108  1.0664
  333THF    H11 7327   3.169   1.365   3.593  0.0699  0.7838 -0.2280
  333THF    H12 7328   3.050   1.297   3.782  0.4521  0.0881  3.2252
  333THF    H13 7329   3.161   1.391   3.884  3.1712  0.4911 -1.7838
  334THF     O1 7330   2.567   4.391   3.454  0.1343 -0.0823  0.8383
  334THF     C2 7331   2.548   4.255   3.411  0.0487 -1.0876  0.2600
  334THF     C3 7332   2.682   4.437   3.384 -0.4267 -0.7427  0.1965
  334THF     H4 7333   2.445   4.230   3.437  0.2405 -1.3787  0.7652
  334THF     H5 7334   2.625   4.194   3.459  1.8700  1.8985  1.4111
  334THF     H6 7335   2.688   4.545   3.370 -0.7015 -0.6094  1.0438
  334THF     H7 7336   2.772   4.401   3.435  0.3473  2.4035  1.3612
  334THF     C8 7337   2.674   4.376   3.242 -0.3359 -0.3739 -0.3052
  334THF     C9 7338   2.576   4.257   3.269 -0.2459  0.7719  0.0363
  334THF    H10 7339   2.771   4.344   3.206 -0.3164  0.0579 -0.6493
  334THF    H11 7340   2.637   4.446   3.167  2.9946  0.0907 -1.6908
  334THF    H12 7341   2.487   4.281   3.211  1.4531  0.0979 -3.0639
  334THF    H13 7342   2.617   4.165   3.227  0.6460  1.0129  0.3663
  335THF     O1 7343   1.861   5.367   1.786 -0.0135 -0.3997 -0.0406
  335THF     C2 7344   1.964   5.331   1.697 -0.2923  0.8787 -0.0177
  335THF     C3 7345   1.765   5.267   1.772  0.1758  0.4723 -0.7225
  335THF     H4 7346   2.052   5.306   1.757  0.6125  1.5922 -1.0169
  335THF     H5 7347   1.981   5.414   1.629 -1.2528  0.4105 -0.8453
  335THF     H6 7348   1.703   5.260   1.861  0.1800  1.7148 -0.6078
  335THF     H7 7349   1.691   5.289   1.695 -0.1509  1.6510 -0.0933
  335THF     C8 7350   1.827   5.131   1.742 -0.1873  0.5570 -0.8107
  335THF     C9 7351   1.924   5.191   1.642  0.2833 -0.9934  0.1745
  335THF    H10 7352   1.748   5.068   1.703 -1.1187  1.6309 -0.7021
  335THF    H11 7353   1.873   5.095   1.834 -0.6858 -1.9286 -1.4648
  335THF    H12 7354   2.014   5.131   1.629  0.4471 -0.9211  0.9414
  335THF    H13 7355   1.872   5.211   1.549 -1.4918 -1.1315  1.1011
  336THF     O1 7356   0.041   2.569   2.837 -0.2980  0.2268  0.2637
  336THF     C2 7357   0.102   2.506   2.949 -0.0124  0.0671 -0.6845
  336THF     C3 7358  -0.028   2.683   2.881 -0.2834 -0.1898 -0.1895
  336THF     H4 7359   0.198   2.556   2.963  1.2941 -2.5181  0.2656
  336THF     H5 7360   0.126   2.401   2.933 -1.8867 -0.4332 -0.3899
  336THF     H6 7361   0.027   2.776   2.864 -0.0500 -0.4148 -0.6614
  336THF     H7 7362  -0.117   2.692   2.819 -0.5145 -0.9959  0.0105
  336THF     C8 7363  -0.053   2.675   3.033  0.2182 -0.1481  0.8695
  336THF     C9 7364  -0.003   2.534   3.071 -0.1279 -0.3173  0.4351
  336THF    H10 7365  -0.152   2.693   3.075  1.3995  0.9792  3.3745
  336THF    H11 7366   0.017   2.743   3.081  0.8081  0.3998 -0.7170
  336THF    H12 7367   0.031   2.527   3.174 -0.7409 -1.7547  0.5621
  336THF    H13 7368  -0.084   2.461   3.063 -2.0618  1.3613  3.1485
  337THF     O1 7369   2.979   2.178   3.817 -0.3570  0.1422  0.5624
  337THF     C2 7370   3.040   2.055   3.861  0.3741  0.1728  0.4287
  337THF     C3 7371   3.066   2.284   3.863 -0.1883  0.3372  0.5413
  337THF     H4 7372   3.012   1.978   3.789  0.5533  1.0291 -0.5993
  337THF     H5 7373   3.015   2.035   3.965 -1.7347 -0.6908 -0.1970
  337THF     H6 7374   3.054   2.381   3.816 -4.0278  1.0032  2.5239
  337THF     H7 7375   3.048   2.307   3.968 -1.9268  1.6385 -0.0033
  337THF     C8 7376   3.206   2.226   3.858 -0.6824 -0.3247  0.1414
  337THF     C9 7377   3.186   2.077   3.842  0.4678 -0.0960  0.1157
  337THF    H10 7378   3.277   2.262   3.932 -0.1898  1.1731 -0.9982
  337THF    H11 7379   3.242   2.269   3.764  0.0149 -0.2768  0.4260
  337THF    H12 7380   3.217   2.046   3.742 -0.2986 -0.6527  0.0408
  337THF    H13 7381   3.242   2.014   3.911 -0.4783  0.3095  1.3015
  338THF     O1 7382   0.923   1.354   2.606 -0.1048 -0.1497 -0.1437
  338THF     C2 7383   1.058   1.316   2.588 -0.4579 -0.3578 -0.4346
  338THF     C3 7384   0.927   1.474   2.677  0.5618 -0.4848  0.7975
  338THF     H4 7385   1.098   1.376   2.506  5.0404 -0.5261  1.7156
  338THF     H5 7386   1.053   1.214   2.552 -3.4883  0.3693 -2.5059
  338THF     H6 7387   0.956   1.558   2.613  1.1378 -0.5618  0.9568
  338THF     H7 7388   0.829   1.488   2.723  0.7898  0.8434  0.9136
  338THF     C8 7389   1.033   1.445   2.784  0.3650  0.1351 -0.0270
  338THF     C9 7390   1.134   1.354   2.717  0.5418 -0.5172  0.2170
  338THF    H10 7391   0.995   1.389   2.869  3.6204 -1.1636  0.7165
  338THF    H11 7392   1.064   1.541   2.825 -0.5506 -0.0036  1.0417
  338THF    H12 7393   1.224   1.404   2.681 -0.3398 -0.0313 -1.3670
  338THF    H13 7394   1.171   1.271   2.779 -1.2192  0.3027  2.5155
  339THF     O1 7395   0.666   1.481   1.573  0.1088  0.6459  0.3646
  339THF     C2 7396   0.747   1.553   1.652 -0.2397 -0.8827  0.1998
  339THF     C3 7397   0.626   1.570   1.463 -0.0328 -0.1151 -0.1599
  339THF     H4 7398   0.842   1.559   1.601  0.2537 -0.0506  1.1784
  339THF     H5 7399   0.787   1.510   1.744  0.7427  0.9913  0.7058
  339THF     H6 7400   0.709   1.578   1.392  0.4048 -1.4470  0.1663
  339THF     H7 7401   0.544   1.520   1.410 -1.1122  1.2918  0.1353
  339THF     C8 7402   0.596   1.700   1.533  0.8571 -0.0603 -0.0648
  339THF     C9 7403   0.678   1.692   1.664  0.3207 -0.1710 -0.4521
  339THF    H10 7404   0.487   1.709   1.539  0.9028 -0.2795  1.2866
  339THF    H11 7405   0.623   1.786   1.472 -0.6912  1.3672  1.1805
  339THF    H12 7406   0.750   1.774   1.669  1.0095 -0.6232 -2.3905
  339THF    H13 7407   0.606   1.684   1.746  0.6259  1.0003 -0.0487
  340THF     O1 7408   5.398   0.479   2.562 -0.0322 -0.2136 -0.3887
  340THF     C2 7409   5.476   0.518   2.683  0.4293  0.0315 -1.1180
  340THF     C3 7410   5.319   0.362   2.599  0.1384  0.9582  0.2520
  340THF     H4 7411   5.508   0.622   2.669  1.5581 -0.1058  0.1660
  340THF     H5 7412   5.565   0.456   2.692  0.0644 -0.4088 -0.5140
  340THF     H6 7413   5.238   0.346   2.528 -1.0246  0.2149  1.6855
  340THF     H7 7414   5.386   0.278   2.580 -2.1953 -0.4294 -2.5911
  340THF     C8 7415   5.277   0.373   2.748 -0.0381  0.5544  0.2445
  340THF     C9 7416   5.365   0.496   2.792 -0.2590 -0.1224 -0.5035
  340THF    H10 7417   5.312   0.282   2.797  1.6260 -0.9753 -3.3928
  340THF    H11 7418   5.172   0.396   2.768  0.4351  1.5826  1.6810
  340THF    H12 7419   5.286   0.568   2.812 -3.2239 -3.2530  0.2309
  340THF    H13 7420   5.402   0.496   2.894  2.0822  0.0738 -1.3037
  341THF     O1 7421   1.944   1.490   1.115 -0.0883 -0.0375  0.3183
  341THF     C2 7422   1.982   1.423   1.003 -0.5291  0.4527 -0.1297
  341THF     C3 7423   1.804   1.520   1.094  0.4547  0.4159  0.0838
  341THF     H4 7424   2.081   1.379   1.017 -1.6201 -2.6214 -1.1581
  341THF     H5 7425   1.977   1.490   0.918  0.0119  0.6428 -0.0170
  341THF     H6 7426   1.758   1.552   1.187  1.5557 -0.8467  1.0972
  341THF     H7 7427   1.802   1.607   1.028  3.6040  2.7331  2.7182
  341THF     C8 7428   1.745   1.398   1.012  0.3949 -0.0177  0.2491
  341THF     C9 7429   1.872   1.330   0.968 -0.0622  0.3880 -0.4617
  341THF    H10 7430   1.690   1.432   0.925  1.9606  1.8185 -0.0807
  341THF    H11 7431   1.678   1.326   1.060  0.1771 -1.8285 -2.5685
  341THF    H12 7432   1.888   1.243   1.032  4.1443 -0.2531 -2.0274
  341THF    H13 7433   1.863   1.295   0.865 -3.1585 -2.5593  0.6033
  342THF     O1 7434   3.349   0.374   1.989  0.1608  0.3315 -0.7682
  342THF     C2 7435   3.335   0.249   2.057  0.7891  1.1537 -0.5999
  342THF     C3 7436   3.399   0.473   2.071 -0.2839 -0.6672 -0.3337
  342THF     H4 7437   3.415   0.188   2.016 -0.1320 -0.0784 -0.6259
  342THF     H5 7438   3.247   0.188   2.035 -0.2521  2.3636  0.0695
  342THF     H6 7439   3.507   0.487   2.065 -0.4804  1.4691  0.2133
  342THF     H7 7440   3.370   0.573   2.040 -0.5490 -1.4252 -2.7490
  342THF     C8 7441   3.355   0.427   2.211 -0.4416 -0.3248 -0.3066
  342THF     C9 7442   3.336   0.282   2.209 -0.1427  0.1971 -0.1955
  342THF    H10 7443   3.262   0.474   2.244  0.1127  0.2435  0.4994
  342THF    H11 7444   3.437   0.450   2.280  2.0444 -1.0175 -2.8786
  342THF    H12 7445   3.410   0.214   2.253 -0.8156 -0.5947 -0.2624
  342THF    H13 7446   3.237   0.265   2.251  0.1877 -0.4294  0.3583
  343THF     O1 7447   2.246   4.696   4.169 -0.1991 -0.5672 -0.3495
  343THF     C2 7448   2.262   4.620   4.053  0.2066  1.1575 -0.3938
  343THF     C3 7449   2.377   4.719   4.221  0.0831 -0.3515 -0.0832
  343THF     H4 7450   2.167   4.622   3.998  0.7062 -0.6589 -1.4037
  343THF     H5 7451   2.297   4.522   4.084 -2.6779  0.0519 -0.2554
  343THF     H6 7452   2.386   4.817   4.268  3.0830  0.1645 -1.5140
  343THF     H7 7453   2.397   4.635   4.287  2.9287  1.3579  1.4152
  343THF     C8 7454   2.473   4.716   4.096 -0.3876 -0.5467  0.2062
  343THF     C9 7455   2.372   4.692   3.981  0.5277 -0.8563  0.4160
  343THF    H10 7456   2.550   4.640   4.111 -0.4421 -0.4609  0.9975
  343THF    H11 7457   2.522   4.812   4.083 -0.1350 -0.5857  0.8240
  343THF    H12 7458   2.338   4.792   3.954 -0.3042 -1.3186 -0.2669
  343THF    H13 7459   2.415   4.653   3.889  0.1339  0.2912 -0.2845
  344THF     O1 7460   5.243   4.499   2.464  0.3214 -0.3239 -0.2306
  344THF     C2 7461   5.142   4.408   2.510  0.4681 -0.4530 -0.0194
  344THF     C3 7462   5.282   4.458   2.338 -0.2906  0.2147  0.3382
  344THF     H4 7463   5.101   4.445   2.604 -0.3599  2.7026 -1.5010
  344THF     H5 7464   5.183   4.308   2.524  0.0344 -0.7687 -0.9043
  344THF     H6 7465   5.326   4.541   2.284  1.3732 -0.9367 -0.1598
  344THF     H7 7466   5.357   4.380   2.338  1.0567  1.4081 -2.0858
  344THF     C8 7467   5.147   4.405   2.274 -0.6387 -0.1537  0.3196
  344THF     C9 7468   5.048   4.403   2.389  0.3721 -0.6444 -0.7136
  344THF    H10 7469   5.169   4.308   2.230  0.2462  0.3736 -0.4286
  344THF    H11 7470   5.111   4.475   2.199 -0.4605  0.6951  1.0031
  344THF    H12 7471   4.988   4.494   2.391 -1.1086 -1.5448 -1.4763
  344THF    H13 7472   4.981   4.317   2.391  1.0675 -1.2339 -1.9295
  345THF     O1 7473   1.973   0.063   0.720 -0.3022 -0.0419  0.0312
  345THF     C2 7474   1.948  -0.044   0.810 -0.2441  0.0688 -0.0913
  345THF     C3 7475   1.991   0.188   0.797 -0.0247 -0.0293  0.0628
  345THF     H4 7476   1.956  -0.133   0.748  0.7024 -0.3979  0.6733
  345THF     H5 7477   1.844  -0.039   0.842  0.0452  1.6838  0.7116
  345THF     H6 7478   2.044   0.260   0.734  0.1573 -0.6062 -0.4518
  345THF     H7 7479   1.903   0.252   0.804 -0.6609 -0.6112 -1.9490
  345THF     C8 7480   2.056   0.133   0.924 -0.3963 -0.0774  0.1373
  345THF     C9 7481   2.053  -0.019   0.921  1.0053 -0.3886  0.5906
  345THF    H10 7482   2.024   0.179   1.018 -1.2839  1.9568 -1.0919
  345THF    H11 7483   2.161   0.161   0.918  0.2027 -2.3931 -1.3711
  345THF    H12 7484   2.146  -0.060   0.880 -0.8228 -2.9290 -1.4203
  345THF    H13 7485   2.036  -0.065   1.018 -1.3818 -2.8178 -0.8231
  346THF     O1 7486   5.119   1.123   4.169 -0.6098 -0.2848  0.9916
  346THF     C2 7487   5.052   1.072   4.289 -0.4974  0.5031  0.5889
  346THF     C3 7488   5.114   1.262   4.171  0.3510 -1.0064 -0.3046
  346THF     H4 7489   5.129   1.042   4.360 -0.7430 -2.3260 -0.1953
  346THF     H5 7490   4.995   0.982   4.266 -1.3541  1.0888  0.3677
  346THF     H6 7491   5.211   1.289   4.213 -0.6508  2.1850  0.2014
  346THF     H7 7492   5.118   1.298   4.068 -0.7671  2.1797  0.6348
  346THF     C8 7493   4.981   1.306   4.241 -0.1000  0.1374  0.1497
  346THF     C9 7494   4.964   1.189   4.337  0.4679  0.1083 -0.4829
  346THF    H10 7495   4.899   1.303   4.170 -1.3002  1.5468  1.4040
  346THF    H11 7496   4.987   1.403   4.290  1.6948 -0.5456  1.4114
  346THF    H12 7497   4.997   1.211   4.439  2.0818  0.9211 -1.1567
  346THF    H13 7498   4.859   1.159   4.337 -0.4824  3.0549 -0.4841
  347THF     O1 7499   0.618   2.428   1.161 -0.2916  0.0530 -0.6177
  347THF     C2 7500   0.741   2.426   1.238 -0.0021 -0.0087 -0.6954
  347THF     C3 7501   0.592   2.303   1.113  0.2820 -0.1278 -0.1455
  347THF     H4 7502   0.728   2.456   1.342  1.0727  1.7082 -1.0217
  347THF     H5 7503   0.816   2.491   1.193  1.6674 -1.0750  0.4429
  347THF     H6 7504   0.525   2.262   1.189  0.1103  0.4522  0.0183
  347THF     H7 7505   0.529   2.312   1.025 -1.9773  2.0568  1.5571
  347THF     C8 7506   0.727   2.241   1.116  0.2455  0.1955 -0.0811
  347THF     C9 7507   0.797   2.290   1.241  0.0772  0.5139  1.3416
  347THF    H10 7508   0.788   2.273   1.032 -1.8457  2.5313 -0.8161
  347THF    H11 7509   0.733   2.132   1.125  1.0780  0.3816  2.4370
  347THF    H12 7510   0.770   2.232   1.329  0.1409 -1.6880 -0.0097
  347THF    H13 7511   0.904   2.277   1.227 -0.1428 -1.7793  1.3085
  348THF     O1 7512   5.267   0.204   4.218 -0.2947 -0.4638 -0.3397
  348THF     C2 7513   5.225   0.218   4.084  0.4342 -0.7575 -0.9197
  348THF     C3 7514   5.241   0.070   4.247 -0.0536  0.0196  0.0651
  348THF     H4 7515   5.322   0.196   4.040  1.8173  0.7778  1.1956
  348THF     H5 7516   5.198   0.322   4.069 -0.7119 -1.1153 -1.5094
  348THF     H6 7517   5.322   0.012   4.203  1.1361  1.5431  0.1558
  348THF     H7 7518   5.247   0.058   4.355  2.8104 -0.2520 -0.0647
  348THF     C8 7519   5.111   0.034   4.167  0.1999  0.1471 -0.3413
  348THF     C9 7520   5.110   0.129   4.049 -0.1253  0.7976  0.0386
  348THF    H10 7521   5.023   0.058   4.226 -0.0788 -0.6363 -0.4315
  348THF    H11 7522   5.114  -0.074   4.151  0.7165  0.1376 -0.1983
  348THF    H12 7523   5.138   0.067   3.964  0.9951  0.8998  0.3235
  348THF    H13 7524   5.012   0.174   4.030 -1.3115 -1.5635  0.1434
  349THF     O1 7525   2.032   2.902   0.668  0.0164  0.1896  0.0700
  349THF     C2 7526   2.119   3.011   0.630  0.6165 -0.0485 -0.3326
  349THF     C3 7527   2.002   2.916   0.805 -0.0411  0.6067 -0.1320
  349THF     H4 7528   2.063   3.090   0.580  1.9139 -0.6646 -2.9471
  349THF     H5 7529   2.190   2.971   0.557  0.8332 -0.8209  0.2936
  349THF     H6 7530   1.924   2.991   0.819  1.1267  1.7047  0.6647
  349THF     H7 7531   1.969   2.820   0.844  2.7992 -0.5729 -0.3887
  349THF     C8 7532   2.139   2.956   0.864 -0.0748  0.0573  0.4908
  349THF     C9 7533   2.197   3.053   0.759  0.1421  0.0479 -0.6519
  349THF    H10 7534   2.213   2.879   0.884  1.1127  1.0599  0.0839
  349THF    H11 7535   2.124   2.992   0.966 -0.3864 -0.6257  0.6865
  349THF    H12 7536   2.168   3.153   0.790  0.8366 -0.2852  1.2170
  349THF    H13 7537   2.303   3.026   0.762  0.3234  0.7628 -0.4674
  350THF     O1 7538   2.332   4.730   3.365 -0.0133  0.0269 -0.5706
  350THF     C2 7539   2.236   4.834   3.335 -0.2999 -0.4053 -0.6586
  350THF     C3 7540   2.381   4.758   3.496 -0.4115 -0.1208  0.2062
  350THF     H4 7541   2.159   4.814   3.260  0.3357 -0.4837 -1.3040
  350THF     H5 7542   2.285   4.928   3.309 -1.1974  0.7305  1.4926
  350THF     H6 7543   2.445   4.682   3.542 -0.2512 -0.1447 -0.0518
  350THF     H7 7544   2.447   4.845   3.488  1.4747 -1.5693 -1.2335
  350THF     C8 7545   2.264   4.812   3.576 -0.4404 -0.7319  0.0495
  350THF     C9 7546   2.169   4.856   3.468 -0.1637 -0.2571 -0.3428
  350THF    H10 7547   2.295   4.879   3.656  0.1233 -0.6122 -0.2650
  350THF    H11 7548   2.220   4.725   3.626 -0.3807  0.2699  1.9044
  350THF    H12 7549   2.074   4.803   3.467  0.0888 -0.8679  2.3353
  350THF    H13 7550   2.137   4.959   3.488  1.7599  0.6050 -1.4143
  351THF     O1 7551   4.968   5.336   2.993 -0.4933 -0.1345  0.7990
  351THF     C2 7552   4.833   5.327   2.962  0.0257  0.0210  0.1685
  351THF     C3 7553   5.033   5.212   2.971  0.2493 -0.7700 -0.0037
  351THF     H4 7554   4.813   5.316   2.855  0.2544 -0.1169  0.1380
  351THF     H5 7555   4.776   5.411   3.000  0.0737 -0.1732  0.6713
  351THF     H6 7556   5.083   5.206   2.874  0.2463  1.2366 -0.1810
  351THF     H7 7557   5.119   5.219   3.037  0.7067  0.0368 -0.6543
  351THF     C8 7558   4.926   5.111   3.010 -0.2669  0.5303 -0.1284
  351THF     C9 7559   4.795   5.191   3.020 -1.2809  0.1458 -0.4059
  351THF    H10 7560   4.955   5.066   3.105 -0.8240  1.5539  0.5405
  351THF    H11 7561   4.913   5.031   2.938 -2.1358  0.4321  0.2696
  351THF    H12 7562   4.717   5.147   2.958 -1.3394  0.8652 -0.8630
  351THF    H13 7563   4.764   5.201   3.124  0.0822  0.0341  0.0256
  352THF     O1 7564   0.219   5.316   4.400 -0.0588  0.2928 -0.7187
  352THF     C2 7565   0.083   5.275   4.436 -0.2372  0.1576  0.5330
  352THF     C3 7566   0.211   5.397   4.288  0.4029 -0.6040  0.0383
  352THF     H4 7567   0.046   5.326   4.525 -1.6576  0.1505 -0.0193
  352THF     H5 7568   0.090   5.168   4.453  2.1452  0.3076  0.7868
  352THF     H6 7569   0.178   5.492   4.329 -0.6839 -0.5417 -0.9541
  352THF     H7 7570   0.301   5.401   4.228  0.0339  0.8731 -0.4531
  352THF     C8 7571   0.092   5.346   4.199  0.0354  0.5239  0.0938
  352THF     C9 7572  -0.010   5.309   4.310  0.1541 -0.4175  0.5129
  352THF    H10 7573   0.120   5.260   4.138 -3.7248 -0.9340  0.2014
  352THF    H11 7574   0.062   5.427   4.132 -1.3890  0.0235  0.1047
  352THF    H12 7575  -0.052   5.409   4.322  1.0056  0.5942 -3.3465
  352THF    H13 7576  -0.077   5.232   4.270  1.4144 -0.4101 -1.8241
  353THF     O1 7577   0.153   2.576   1.076 -0.2802  0.0676 -0.1069
  353THF     C2 7578   0.213   2.534   0.953 -0.0536  0.3664  0.0157
  353THF     C3 7579   0.015   2.538   1.076  0.3124  0.6971 -0.3806
  353THF     H4 7580   0.243   2.429   0.948  1.2612  0.6906  0.5517
  353THF     H5 7581   0.303   2.590   0.926 -0.3833  0.5581 -0.7124
  353THF     H6 7582  -0.003   2.440   1.119 -0.5665  0.1869 -1.8319
  353THF     H7 7583  -0.053   2.593   1.142 -1.9425 -0.7993 -1.3084
  353THF     C8 7584  -0.028   2.560   0.930 -0.4658  0.0125 -0.6323
  353THF     C9 7585   0.108   2.572   0.856  0.4699  0.1425 -0.2217
  353THF    H10 7586  -0.112   2.629   0.919 -0.5251 -0.2053 -1.6380
  353THF    H11 7587  -0.083   2.475   0.889 -1.4530  0.9150 -1.2364
  353THF    H12 7588   0.110   2.501   0.774  1.2254  1.4454 -1.3927
  353THF    H13 7589   0.129   2.669   0.810  0.4625 -0.0871 -0.7145
  354THF     O1 7590   3.261   0.716   1.321 -0.1206 -0.3414  0.2763
  354THF     C2 7591   3.192   0.663   1.432 -0.5637 -0.1876 -0.2663
  354THF     C3 7592   3.252   0.630   1.208  0.3166  0.6838 -0.3950
  354THF     H4 7593   3.166   0.742   1.503 -0.5930  1.6965 -2.2752
  354THF     H5 7594   3.250   0.584   1.481  0.8328  1.5209  0.9551
  354THF     H6 7595   3.243   0.688   1.116 -2.1049  0.8763 -0.0937
  354THF     H7 7596   3.343   0.570   1.207  0.6536  1.0774 -3.7988
  354THF     C8 7597   3.131   0.544   1.227  0.7501  0.3737 -0.4751
  354THF     C9 7598   3.077   0.601   1.359 -0.2375 -0.2373 -0.5401
  354THF    H10 7599   3.165   0.440   1.234  0.7713  0.4823  2.5836
  354THF    H11 7600   3.053   0.555   1.151  0.6207  0.5023 -0.3230
  354THF    H12 7601   2.994   0.667   1.338  0.4698  1.0866  0.6368
  354THF    H13 7602   3.033   0.517   1.413 -0.2277  0.3896  0.4840
  355THF     O1 7603   2.177   3.349   0.160  0.6531  0.0535 -0.2207
  355THF     C2 7604   2.189   3.240   0.069  0.1441  0.0556  0.3536
  355THF     C3 7605   2.195   3.299   0.295  0.7147 -0.3080 -0.1656
  355THF     H4 7606   2.288   3.204   0.040 -0.2745 -0.1974 -0.8403
  355THF     H5 7607   2.146   3.258  -0.030 -0.2318 -2.1144  0.0703
  355THF     H6 7608   2.298   3.309   0.329  0.3406  0.4804  0.7792
  355THF     H7 7609   2.139   3.358   0.367 -2.3628 -4.0918  0.8987
  355THF     C8 7610   2.143   3.156   0.283 -0.4782 -0.0287  0.0659
  355THF     C9 7611   2.113   3.130   0.135  0.2746 -0.1715 -0.2313
  355THF    H10 7612   2.052   3.148   0.343 -0.9223  2.1458 -0.2202
  355THF    H11 7613   2.210   3.083   0.328 -0.0785  0.5508  0.4388
  355THF    H12 7614   2.144   3.031   0.099 -0.1648 -0.4761  0.2100
  355THF    H13 7615   2.005   3.141   0.121  0.0261 -0.0558  1.5694
  356THF     O1 7616   1.435   4.146   1.182  0.4045  0.8363 -0.0507
  356THF     C2 7617   1.465   4.034   1.262  0.1707 -0.2082 -0.2596
  356THF     C3 7618   1.486   4.255   1.247 -0.1417  0.1630 -0.4514
  356THF     H4 7619   1.451   3.938   1.213 -1.8537  1.3080 -2.9555
  356THF     H5 7620   1.403   4.027   1.351 -1.6391 -0.1998 -1.4697
  356THF     H6 7621   1.504   4.347   1.191  0.6371  0.3203  0.0490
  356THF     H7 7622   1.425   4.290   1.330 -0.7074  1.5617 -1.4222
  356THF     C8 7623   1.626   4.206   1.278 -0.3316 -0.3268 -0.2362
  356THF     C9 7624   1.616   4.058   1.289 -0.0648  0.3567 -0.3874
  356THF    H10 7625   1.669   4.252   1.367  1.6068 -0.9770 -0.7766
  356THF    H11 7626   1.692   4.235   1.195 -1.7744  0.9103 -1.0123
  356THF    H12 7627   1.674   4.016   1.207  0.8894 -1.2707  1.0423
  356THF    H13 7628   1.648   4.023   1.387 -1.3506 -0.3367 -0.1883
  357THF     O1 7629   0.430   4.077   1.981 -0.4478  0.0282  0.2915
  357THF     C2 7630   0.553   4.059   2.041 -0.2970  0.7326  0.1526
  357THF     C3 7631   0.385   4.207   2.025 -0.7499  0.2738  0.0889
  357THF     H4 7632   0.641   4.092   1.986 -0.4973 -1.2961 -1.4816
  357THF     H5 7633   0.564   3.951   2.047 -2.0033  0.4460 -1.1932
  357THF     H6 7634   0.425   4.274   1.949  1.6845  0.9739  1.9040
  357THF     H7 7635   0.277   4.220   2.034 -0.8011  0.4691 -0.6821
  357THF     C8 7636   0.463   4.249   2.155  0.5471  0.4649  0.3927
  357THF     C9 7637   0.537   4.122   2.178  0.2772  0.4296 -0.0495
  357THF    H10 7638   0.401   4.273   2.241 -0.3251 -0.7486  0.1312
  357THF    H11 7639   0.538   4.327   2.144  1.2514 -0.0715  1.2854
  357THF    H12 7640   0.631   4.134   2.233 -0.2994  0.2061  1.0018
  357THF    H13 7641   0.473   4.053   2.232  1.3513  0.3447  1.1953
  358THF     O1 7642   2.419   3.588   4.533 -0.4741 -0.5266  0.0510
  358THF     C2 7643   2.394   3.621   4.665 -0.1628  0.0232  0.6274
  358THF     C3 7644   2.523   3.674   4.488 -0.1564 -0.6830 -0.3830
  358THF     H4 7645   2.474   3.571   4.719  4.9016  1.5120 -4.5053
  358THF     H5 7646   2.293   3.591   4.692 -1.3192  2.0221 -1.1442
  358THF     H6 7647   2.613   3.642   4.541  0.2269  0.1684 -0.4873
  358THF     H7 7648   2.545   3.671   4.381  0.0490 -1.1640 -0.3301
  358THF     C8 7649   2.494   3.815   4.553 -0.3928 -0.0682 -0.0319
  358THF     C9 7650   2.400   3.773   4.665  0.2133 -0.2126 -0.0870
  358THF    H10 7651   2.441   3.881   4.484  0.0794  1.7331  1.2290
  358THF    H11 7652   2.591   3.855   4.585  0.7713 -2.2809 -0.5736
  358THF    H12 7653   2.426   3.830   4.754  0.7640  2.3987 -1.7998
  358THF    H13 7654   2.303   3.801   4.624 -0.5374 -0.6564  1.3223
  359THF     O1 7655   2.285   3.398   1.384 -0.0933  0.3738  0.4766
  359THF     C2 7656   2.338   3.522   1.412 -0.1869  0.2559 -0.0640
  359THF     C3 7657   2.316   3.307   1.488  0.5961 -0.1172  0.6685
  359THF     H4 7658   2.263   3.595   1.443  0.2547  0.3820  0.7437
  359THF     H5 7659   2.386   3.566   1.324  2.4816  0.6336  1.4447
  359THF     H6 7660   2.255   3.322   1.577  0.9428  0.7682  0.7735
  359THF     H7 7661   2.305   3.204   1.455 -0.7639 -0.1373  1.1202
  359THF     C8 7662   2.460   3.346   1.516  0.1471  0.0695 -0.1962
  359THF     C9 7663   2.451   3.499   1.515  0.2550  0.0940 -0.5202
  359THF    H10 7664   2.531   3.328   1.436 -0.4414  1.2228 -1.0054
  359THF    H11 7665   2.499   3.313   1.612 -0.5710  0.4772  0.2417
  359THF    H12 7666   2.407   3.520   1.612  0.6471 -2.8745  0.3946
  359THF    H13 7667   2.540   3.559   1.498  1.2064 -1.0334  0.3727
  360THF     O1 7668   3.805   0.816   1.274  0.2850  0.0375 -0.2720
  360THF     C2 7669   3.664   0.841   1.253 -0.7483  1.5481  0.1163
  360THF     C3 7670   3.820   0.683   1.247 -0.2129  0.0178 -0.2646
  360THF     H4 7671   3.631   0.841   1.149 -0.7798  2.2579  0.1206
  360THF     H5 7672   3.641   0.930   1.312 -2.2290  0.8968  0.5746
  360THF     H6 7673   3.808   0.669   1.140  1.1964 -1.7945 -0.2217
  360THF     H7 7674   3.916   0.655   1.289  0.4032  0.0619 -1.6019
  360THF     C8 7675   3.708   0.616   1.328 -0.1745  0.3202 -0.3383
  360THF     C9 7676   3.596   0.719   1.329  0.1704 -0.5404 -0.4728
  360THF    H10 7677   3.746   0.582   1.424  0.8786 -1.1503 -1.2476
  360THF    H11 7678   3.678   0.527   1.272  0.3725  0.6277 -1.1356
  360THF    H12 7679   3.505   0.693   1.274 -1.6470  0.6404  1.8085
  360THF    H13 7680   3.569   0.749   1.430  0.5218  1.2834 -0.8846
  361THF     O1 7681   1.744   0.291   3.275  0.7480  0.7885 -0.1428
  361THF     C2 7682   1.661   0.326   3.391 -0.1564 -0.1192  0.0883
  361THF     C3 7683   1.878   0.315   3.313  1.3517  0.4329  0.1314
  361THF     H4 7684   1.560   0.286   3.386 -0.0218 -0.6756  1.2804
  361THF     H5 7685   1.664   0.435   3.390 -0.2271 -0.1171 -1.2702
  361THF     H6 7686   1.948   0.254   3.255  0.1769 -0.8951  0.0461
  361THF     H7 7687   1.899   0.421   3.298  0.1976  0.4952 -1.2910
  361THF     C8 7688   1.886   0.263   3.461 -0.1050  0.3121 -0.1117
  361THF     C9 7689   1.740   0.271   3.507 -1.1685  0.1286  0.1318
  361THF    H10 7690   1.963   0.315   3.518  1.7795 -1.0684 -1.2736
  361THF    H11 7691   1.906   0.156   3.464 -0.4967  0.2270 -0.4516
  361THF    H12 7692   1.704   0.169   3.525 -0.0417 -0.2219  0.4915
  361THF    H13 7693   1.737   0.328   3.599 -1.1587  1.3162 -0.5879
  362THF     O1 7694   1.041   1.415   2.073 -1.2190  0.0671  0.7606
  362THF     C2 7695   1.062   1.385   2.211 -0.4921  0.3329  0.4862
  362THF     C3 7696   1.089   1.551   2.044 -0.2863  0.6206  0.1427
  362THF     H4 7697   1.047   1.277   2.217 -2.2996  0.0769 -4.1114
  362THF     H5 7698   0.990   1.432   2.278 -1.6882 -0.6073 -0.0941
  362THF     H6 7699   1.088   1.575   1.938 -0.1021 -1.2545 -0.3169
  362THF     H7 7700   1.029   1.628   2.094 -0.8256 -1.3150  2.6811
  362THF     C8 7701   1.219   1.541   2.123 -0.3126  0.1281 -0.8337
  362THF     C9 7702   1.203   1.451   2.246  0.4561 -0.0590 -0.9527
  362THF    H10 7703   1.262   1.638   2.148  3.3656 -2.1329  2.8413
  362THF    H11 7704   1.294   1.503   2.054  1.7418  0.0284  1.3140
  362THF    H12 7705   1.273   1.370   2.269  1.0319  1.1893  2.3189
  362THF    H13 7706   1.213   1.513   2.335  2.2292  0.4487 -1.4502
  363THF     O1 7707   1.486   4.783   0.485  0.6699 -0.8314 -0.5386
  363THF     C2 7708   1.544   4.850   0.590 -0.4083  0.4369 -0.1078
  363THF     C3 7709   1.455   4.654   0.527 -0.6683 -0.0399  0.0384
  363THF     H4 7710   1.467   4.895   0.653 -0.7105  1.9251 -1.4549
  363THF     H5 7711   1.604   4.937   0.565 -0.3857  0.6572  0.7016
  363THF     H6 7712   1.346   4.648   0.538 -0.5850  0.6288  1.3967
  363THF     H7 7713   1.467   4.584   0.445 -0.2534 -0.2534  0.2812
  363THF     C8 7714   1.532   4.628   0.657  0.5438 -0.1032  0.5088
  363THF     C9 7715   1.615   4.743   0.668  0.3117 -0.5124  0.6061
  363THF    H10 7716   1.596   4.540   0.651 -0.6811 -1.3397  3.5254
  363THF    H11 7717   1.461   4.619   0.739  0.7403 -0.0870  0.6797
  363THF    H12 7718   1.641   4.775   0.769 -1.0929 -0.6060  1.0157
  363THF    H13 7719   1.708   4.717   0.617  0.7491  0.7751  0.7164
  364THF     O1 7720   3.563   1.817   0.934 -0.6149 -0.0179  0.6026
  364THF     C2 7721   3.633   1.881   0.823  0.5903  0.3494  0.2064
  364THF     C3 7722   3.546   1.914   1.031  0.4117 -0.1239 -0.2303
  364THF     H4 7723   3.561   1.950   0.779 -0.7600 -1.4401 -0.5010
  364THF     H5 7724   3.663   1.808   0.748  0.8067 -0.5242  1.1334
  364THF     H6 7725   3.455   1.969   1.007  1.1270  1.4627  0.5444
  364THF     H7 7726   3.528   1.854   1.120 -0.7534  0.2103 -0.2320
  364THF     C8 7727   3.675   1.995   1.034 -0.0797 -0.7538  0.4146
  364THF     C9 7728   3.743   1.961   0.894  0.7635 -1.0797 -0.0829
  364THF    H10 7729   3.745   1.970   1.113  2.7904  1.1005 -1.3468
  364THF    H11 7730   3.648   2.100   1.042  0.8100 -0.2919 -1.8429
  364THF    H12 7731   3.773   2.046   0.832 -0.1891 -0.7706 -0.1336
  364THF    H13 7732   3.832   1.899   0.904  1.1589 -0.4765  0.2042
  365THF     O1 7733   2.175   2.655   1.386  0.1373  0.1895 -0.0993
  365THF     C2 7734   2.131   2.628   1.253 -0.3894  0.9075 -0.8507
  365THF     C3 7735   2.102   2.761   1.430  0.2804 -0.4382 -0.2243
  365THF     H4 7736   2.032   2.582   1.260 -0.6766  1.6920  0.7599
  365THF     H5 7737   2.205   2.562   1.209 -0.1003  0.3503  0.4233
  365THF     H6 7738   2.001   2.732   1.457 -1.6482  0.2756 -5.4829
  365THF     H7 7739   2.148   2.817   1.512 -2.2591  1.3135  0.1091
  365THF     C8 7740   2.082   2.857   1.304  0.2895  0.3889  0.4762
  365THF     C9 7741   2.123   2.762   1.189 -1.1432 -0.3431 -0.5053
  365THF    H10 7742   2.148   2.943   1.318  2.6973 -1.3159  0.1672
  365THF    H11 7743   1.981   2.892   1.283  0.6081 -0.3934 -2.8546
  365THF    H12 7744   2.060   2.761   1.100 -0.8101  1.3497 -0.7978
  365THF    H13 7745   2.218   2.803   1.153 -1.3867  0.3505 -0.3535
  366THF     O1 7746   0.998   0.477   0.709  0.4995  0.3454  0.4278
  366THF     C2 7747   1.141   0.504   0.678 -0.1906  0.0494 -0.2802
  366THF     C3 7748   0.967   0.347   0.673 -0.0552  0.5324 -0.4371
  366THF     H4 7749   1.175   0.585   0.743  3.1575  0.3219 -2.1611
  366THF     H5 7750   1.150   0.548   0.579  1.4983  2.4328  0.8314
  366THF     H6 7751   0.868   0.311   0.700  0.1561  0.6374  0.5290
  366THF     H7 7752   0.967   0.336   0.565 -0.1769  1.7455 -0.5750
  366THF     C8 7753   1.091   0.269   0.727  0.6470  0.6154 -0.1851
  366THF     C9 7754   1.206   0.373   0.707  0.6348  0.2457 -0.2870
  366THF    H10 7755   1.128   0.189   0.662 -1.4901 -0.5890 -0.0139
  366THF    H11 7756   1.088   0.234   0.830  1.2160  0.5591 -0.1828
  366THF    H12 7757   1.250   0.391   0.805  1.2500 -0.5311 -0.4129
  366THF    H13 7758   1.288   0.349   0.639 -0.3500  2.1998 -2.2770
  367THF     O1 7759   3.835   3.594   0.515 -0.0975  0.1822 -0.5782
  367THF     C2 7760   3.966   3.603   0.570  0.0222 -0.6583 -0.3887
  367THF     C3 7761   3.793   3.729   0.484  0.5863  0.5684 -0.0639
  367THF     H4 7762   4.017   3.510   0.543 -0.7550 -1.0444 -0.5364
  367THF     H5 7763   3.960   3.628   0.676 -0.5179 -0.6681 -0.4172
  367THF     H6 7764   3.716   3.733   0.406  1.0962 -0.0051 -0.6081
  367THF     H7 7765   3.754   3.792   0.564  0.9858 -0.0607  0.6241
  367THF     C8 7766   3.917   3.798   0.430  0.6171  0.7557 -0.1254
  367THF     C9 7767   4.023   3.732   0.510 -0.7273 -0.4745  0.0256
  367THF    H10 7768   3.928   3.906   0.419  1.3201  0.6323 -0.7200
  367THF    H11 7769   3.923   3.747   0.334 -0.9594  0.2494  0.0183
  367THF    H12 7770   4.099   3.704   0.437 -2.8709 -0.2198 -2.4546
  367THF    H13 7771   4.070   3.795   0.585  0.3544 -1.9050  0.6022
  368THF     O1 7772   3.749   1.192   0.776  0.1814  0.4366  0.0391
  368THF     C2 7773   3.812   1.146   0.655 -0.3137  0.2427 -0.1270
  368THF     C3 7774   3.661   1.099   0.829  0.1444  0.0184 -0.2274
  368THF     H4 7775   3.901   1.206   0.637 -2.4030  3.3058 -1.0331
  368THF     H5 7776   3.749   1.165   0.568  0.1542  2.1533 -0.0930
  368THF     H6 7777   3.622   1.121   0.929  1.1935 -0.7755  0.3921
  368THF     H7 7778   3.572   1.087   0.768 -0.6187  2.0327  0.3999
  368THF     C8 7779   3.769   0.984   0.829  0.5916 -0.0994 -0.3900
  368THF     C9 7780   3.837   1.001   0.697 -0.2259 -0.3831  0.3146
  368THF    H10 7781   3.722   0.886   0.843  0.2892  0.0248 -0.5192
  368THF    H11 7782   3.837   0.986   0.914  0.7338 -2.1542 -0.4044
  368THF    H12 7783   3.943   0.977   0.700  0.0298  0.6062 -0.3254
  368THF    H13 7784   3.791   0.942   0.617 -0.8065 -0.7879  0.9389
  369THF     O1 7785   2.095   3.393   4.871  0.0087 -0.0919 -0.0281
  369THF     C2 7786   1.975   3.434   4.818  0.1529 -0.3936 -0.3996
  369THF     C3 7787   2.111   3.251   4.856  0.8267  0.1531  0.0452
  369THF     H4 7788   1.988   3.493   4.727 -1.1576  2.0531  0.8831
  369THF     H5 7789   1.931   3.503   4.891  0.0307  1.3028 -1.9927
  369THF     H6 7790   2.210   3.220   4.823  1.2548 -0.0324  1.4343
  369THF     H7 7791   2.086   3.196   4.947 -5.1151 -0.0112 -1.2821
  369THF     C8 7792   1.997   3.211   4.765  0.0410 -0.4438  0.6335
  369THF     C9 7793   1.888   3.312   4.797 -0.2016  0.8399 -0.1027
  369THF    H10 7794   1.959   3.109   4.768 -2.8630  0.4406 -1.2713
  369THF    H11 7795   2.037   3.225   4.665 -1.5054  1.2133  0.1881
  369THF    H12 7796   1.807   3.331   4.726  0.3001 -0.7315 -1.1373
  369THF    H13 7797   1.850   3.281   4.895  2.2470 -0.8345  0.3930
  370THF     O1 7798   4.523   1.257   0.192  0.4103 -0.7307  0.3931
  370THF     C2 7799   4.663   1.228   0.211  0.4304  0.3015  0.2235
  370THF     C3 7800   4.455   1.138   0.166 -0.5451  0.2667 -0.3170
  370THF     H4 7801   4.683   1.252   0.315 -1.4252 -0.9695  0.9264
  370THF     H5 7802   4.710   1.303   0.147  0.6358 -0.0472 -0.0366
  370THF     H6 7803   4.351   1.144   0.201 -1.0593  0.1890 -1.7496
  370THF     H7 7804   4.451   1.111   0.061  1.4367 -2.2892  0.1797
  370THF     C8 7805   4.549   1.032   0.239 -0.3003 -0.2622  0.8192
  370THF     C9 7806   4.683   1.080   0.191 -0.8664 -0.7328 -0.5701
  370THF    H10 7807   4.526   0.932   0.202 -1.6486  0.2704  0.1248
  370THF    H11 7808   4.529   1.033   0.346 -4.2111  0.0837  0.2119
  370THF    H12 7809   4.748   1.045   0.271  0.3133 -1.1854 -1.6987
  370THF    H13 7810   4.724   1.059   0.092  1.9752  1.4480 -0.0136
  371THF     O1 7811   3.142   2.289   4.215 -0.4989 -0.5904  0.4362
  371THF     C2 7812   3.224   2.403   4.252 -0.2669 -0.3048  0.9450
  371THF     C3 7813   3.023   2.300   4.298  0.1446  0.8508 -0.1937
  371THF     H4 7814   3.300   2.420   4.176 -2.1184 -1.6704 -1.3702
  371THF     H5 7815   3.284   2.374   4.338 -1.3284 -0.5516  1.6296
  371THF     H6 7816   2.931   2.265   4.251 -0.4075  1.6786  0.2462
  371THF     H7 7817   3.046   2.240   4.386 -0.5811 -2.0403 -1.8538
  371THF     C8 7818   3.006   2.449   4.340  0.2568  0.0625 -0.1000
  371THF     C9 7819   3.128   2.519   4.279  0.2224  0.3769  0.0071
  371THF    H10 7820   3.024   2.447   4.448  2.5570 -0.9137 -0.4454
  371THF    H11 7821   2.916   2.506   4.318 -0.2376 -1.3180 -1.8281
  371THF    H12 7822   3.102   2.556   4.180  0.6489 -0.4663 -0.4291
  371THF    H13 7823   3.169   2.597   4.344  4.1060 -0.6007 -0.9772
  372THF     O1 7824   3.960   1.641   5.012  0.1444 -0.1263 -0.1230
  372THF     C2 7825   4.032   1.526   4.981 -0.1322  0.1813 -0.2424
  372THF     C3 7826   4.037   1.711   5.112 -0.0423  0.2916  0.1966
  372THF     H4 7827   4.114   1.566   4.921 -1.5733  2.4942 -0.8352
  372THF     H5 7828   3.995   1.449   4.913  0.8850  0.0337 -0.6349
  372THF     H6 7829   4.125   1.755   5.064 -1.2194  1.7068 -0.7304
  372THF     H7 7830   3.984   1.790   5.164  1.0217 -0.1191  1.9978
  372THF     C8 7831   4.092   1.603   5.197 -0.4611 -0.0149 -0.0576
  372THF     C9 7832   4.090   1.476   5.111 -0.5075 -0.1401 -0.6142
  372THF    H10 7833   4.021   1.594   5.280  0.0870  0.4844  0.4820
  372THF    H11 7834   4.188   1.636   5.238 -0.6877  2.0036 -1.0846
  372THF    H12 7835   4.193   1.441   5.102 -0.7421 -0.7937 -0.8116
  372THF    H13 7836   4.029   1.396   5.154  0.5836 -1.2950 -1.1388
  373THF     O1 7837   5.401   4.669   1.980 -0.1082 -1.0058  0.2009
  373THF     C2 7838   5.509   4.682   2.065 -0.2619  1.1050 -0.2482
  373THF     C3 7839   5.446   4.674   1.842  0.2162  0.0342 -0.0308
  373THF     H4 7840   5.569   4.593   2.043 -1.0597  0.4410  0.2176
  373THF     H5 7841   5.499   4.693   2.173 -2.6956  0.6281 -0.3678
  373THF     H6 7842   5.510   4.592   1.811 -0.3216  0.2599 -1.8315
  373THF     H7 7843   5.358   4.682   1.778  0.5579  1.2139 -0.3638
  373THF     C8 7844   5.525   4.800   1.863  0.3017  0.1595  0.6958
  373THF     C9 7845   5.580   4.800   2.005 -0.2383  0.8298  0.3421
  373THF    H10 7846   5.457   4.881   1.840 -0.4737 -0.2650  1.4328
  373THF    H11 7847   5.598   4.817   1.784 -2.4947  0.1454 -2.0325
  373THF    H12 7848   5.689   4.795   2.006 -0.2919 -0.4137  0.5318
  373THF    H13 7849   5.536   4.894   2.039  0.4679  0.5243  2.2054
  374THF     O1 7850   3.527   4.781   2.954 -0.4866  0.1934 -0.3138
  374THF     C2 7851   3.672   4.783   2.971  0.4896  0.0528  0.3659
  374THF     C3 7852   3.470   4.809   3.080 -0.0653 -0.1108 -0.4325
  374THF     H4 7853   3.720   4.880   2.972  0.1154  0.2742 -0.9015
  374THF     H5 7854   3.720   4.724   2.892 -2.8235 -2.2451 -0.1705
  374THF     H6 7855   3.473   4.916   3.097 -0.9877  0.0230 -1.0438
  374THF     H7 7856   3.370   4.768   3.092  0.2587 -0.5548  0.9052
  374THF     C8 7857   3.560   4.740   3.180  0.6958  0.0412 -0.1074
  374THF     C9 7858   3.683   4.701   3.100 -0.4201  0.2197 -0.6652
  374THF    H10 7859   3.503   4.656   3.218 -3.8288  2.3097 -1.2718
  374THF    H11 7860   3.582   4.808   3.263  0.2474  1.8213 -1.3898
  374THF    H12 7861   3.772   4.719   3.159  0.0304 -2.1649 -0.5126
  374THF    H13 7862   3.674   4.597   3.066 -0.4575 -0.2107  0.6021
  375THF     O1 7863   5.456   1.588   2.967  0.0977 -0.5099 -0.0550
  375THF     C2 7864   5.579   1.628   3.029 -0.1694 -0.2142  0.5104
  375THF     C3 7865   5.369   1.696   2.963  0.2198  0.8550  0.8451
  375THF     H4 7866   5.665   1.583   2.978 -0.5157 -0.9303  0.5457
  375THF     H5 7867   5.599   1.597   3.131  0.9819 -0.0891  0.3408
  375THF     H6 7868   5.329   1.714   2.863  0.8488  0.3422  0.4933
  375THF     H7 7869   5.281   1.668   3.021  0.2445 -1.0288  0.0645
  375THF     C8 7870   5.438   1.816   3.020 -0.8420  0.1829 -1.1177
  375THF     C9 7871   5.580   1.777   3.004  0.1857 -0.2379 -0.0965
  375THF    H10 7872   5.415   1.816   3.127  0.7779  0.8622 -0.7372
  375THF    H11 7873   5.407   1.910   2.974 -0.7311  0.5652 -0.4360
  375THF    H12 7874   5.608   1.803   2.902 -0.5154 -0.0739 -0.2525
  375THF    H13 7875   5.658   1.819   3.067 -0.4830 -1.8836  1.9440
  376THF     O1 7876   2.584   2.430   3.893 -0.0601 -0.1334 -0.3649
  376THF     C2 7877   2.573   2.312   3.966 -0.5175 -0.3337  0.3117
  376THF     C3 7878   2.723   2.478   3.912  0.0308  0.0277 -0.3381
  376THF     H4 7879   2.609   2.227   3.908 -1.4641 -1.8738  1.8684
  376THF     H5 7880   2.466   2.303   3.984 -0.4854 -0.1980  0.5710
  376THF     H6 7881   2.776   2.426   3.832 -3.7701 -1.5043 -2.1184
  376THF     H7 7882   2.740   2.585   3.904  1.2358 -0.1334 -0.1624
  376THF     C8 7883   2.766   2.423   4.050  0.4737 -0.0250  0.0821
  376THF     C9 7884   2.650   2.344   4.098  0.2420 -0.2422 -0.2062
  376THF    H10 7885   2.789   2.507   4.115 -0.6625 -0.4826  1.1248
  376THF    H11 7886   2.857   2.363   4.043 -0.4162 -1.2393 -2.0191
  376THF    H12 7887   2.680   2.258   4.159  2.1652 -1.8346 -3.1521
  376THF    H13 7888   2.590   2.415   4.154  1.2346 -0.0955  0.7230
  377THF     O1 7889   5.249   3.516   3.044 -0.0959 -0.4387 -0.5335
  377THF     C2 7890   5.168   3.425   3.120 -0.1746 -0.1800 -0.3468
  377THF     C3 7891   5.377   3.467   3.032  0.4341  0.1486  0.7052
  377THF     H4 7892   5.134   3.342   3.059  0.9328 -1.4392  0.6803
  377THF     H5 7893   5.082   3.483   3.153 -0.7545 -0.8194 -0.7200
  377THF     H6 7894   5.373   3.402   2.945 -1.2843  0.6153  0.4019
  377THF     H7 7895   5.447   3.543   2.999 -0.1061  0.7159  0.8555
  377THF     C8 7896   5.409   3.415   3.173  0.2428 -0.2081  0.6013
  377THF     C9 7897   5.266   3.387   3.225  0.4355 -0.1508 -0.2535
  377THF    H10 7898   5.454   3.487   3.242 -2.0208  1.4135  0.4915
  377THF    H11 7899   5.482   3.335   3.163 -1.3791 -1.4452 -2.7861
  377THF    H12 7900   5.242   3.282   3.247 -4.0025  0.5169 -1.0428
  377THF    H13 7901   5.241   3.444   3.315  0.4032  0.8352 -0.8837
  378THF     O1 7902   2.214   0.642   1.844 -0.4250 -0.8267 -0.4517
  378THF     C2 7903   2.275   0.733   1.746 -0.0453  0.8971 -0.2824
  378THF     C3 7904   2.294   0.656   1.959  0.1536  0.1069 -0.3897
  378THF     H4 7905   2.201   0.758   1.670  1.0498 -1.0824 -2.1029
  378THF     H5 7906   2.356   0.688   1.688 -2.7288 -3.6513 -1.0274
  378THF     H6 7907   2.237   0.629   2.049  0.1871  0.6000 -0.2195
  378THF     H7 7908   2.381   0.592   1.943  1.1004  1.4263 -0.6340
  378THF     C8 7909   2.337   0.802   1.962  0.7248  0.3760 -0.2677
  378THF     C9 7910   2.313   0.846   1.823 -0.5870 -0.6606 -0.3556
  378THF    H10 7911   2.444   0.805   1.987  0.2500  2.8075  1.9102
  378THF    H11 7912   2.281   0.854   2.039  0.3983  0.0943 -0.3146
  378THF    H12 7913   2.239   0.927   1.824 -0.0621 -0.1476 -1.1801
  378THF    H13 7914   2.400   0.899   1.785  0.0220 -1.9419 -0.7863
  379THF     O1 7915   0.102   3.655   4.937 -0.1922 -0.7532  0.2790
  379THF     C2 7916   0.012   3.741   4.870  0.1365 -0.5519  0.0627
  379THF     C3 7917   0.058   3.648   5.076 -0.3744  0.5773  0.2680
  379THF     H4 7918   0.026   3.728   4.763  1.6537 -0.5077  0.2283
  379THF     H5 7919   0.023   3.848   4.891  0.7028 -0.2432 -1.6333
  379THF     H6 7920   0.114   3.574   5.133 -1.8701 -2.2817 -1.7683
  379THF     H7 7921   0.088   3.742   5.122  1.0574  0.1889  0.1512
  379THF     C8 7922  -0.089   3.636   5.065  0.3476  0.1210  0.2847
  379THF     C9 7923  -0.123   3.698   4.924  0.2081 -0.0775  0.3653
  379THF    H10 7924  -0.148   3.692   5.138 -0.8745 -1.4130  0.5151
  379THF    H11 7925  -0.118   3.533   5.086 -0.0452  0.0750 -0.4689
  379THF    H12 7926  -0.171   3.616   4.869 -2.3437  1.0850  0.7281
  379THF    H13 7927  -0.196   3.779   4.923  0.6526  0.3376 -0.7254
  380THF     O1 7928   1.372   1.365   3.962 -0.0210 -0.0498  0.0773
  380THF     C2 7929   1.401   1.482   3.891  0.0480 -0.1688  0.1913
  380THF     C3 7930   1.446   1.259   3.907 -0.5789  0.6005  0.1734
  380THF     H4 7931   1.490   1.534   3.927  0.0519 -2.0981  3.3471
  380THF     H5 7932   1.318   1.553   3.894  0.7594  0.8646 -2.2047
  380THF     H6 7933   1.530   1.240   3.973  0.3952  2.1895 -0.5458
  380THF     H7 7934   1.390   1.166   3.902 -0.9052  0.8272 -3.6405
  380THF     C8 7935   1.483   1.304   3.766  0.3873  0.5591  0.0599
  380THF     C9 7936   1.420   1.445   3.741 -0.1375  0.3430  0.0121
  380THF    H10 7937   1.471   1.231   3.686  2.1722 -0.5227  0.7128
  380THF    H11 7938   1.591   1.315   3.763  0.3494  1.2125  0.8336
  380THF    H12 7939   1.487   1.513   3.687  0.7255  0.3616  1.0696
  380THF    H13 7940   1.330   1.426   3.683  0.0135 -2.0698  0.4834
  381THF     O1 7941   3.545   3.882   1.772  0.8108 -1.0837 -0.3000
  381THF     C2 7942   3.488   3.779   1.697  0.1735 -0.5113  0.1133
  381THF     C3 7943   3.479   3.899   1.896  0.0480  0.5647 -0.2386
  381THF     H4 7944   3.561   3.728   1.634  0.3265 -0.7429  0.4786
  381THF     H5 7945   3.410   3.823   1.633  1.9490  0.3152 -1.6063
  381THF     H6 7946   3.556   3.928   1.968  1.9712 -0.3703 -1.8152
  381THF     H7 7947   3.402   3.976   1.892 -0.5038  0.1388  1.4981
  381THF     C8 7948   3.418   3.761   1.921  0.5946 -0.2509  0.1797
  381THF     C9 7949   3.450   3.679   1.801  0.0639  0.1433  0.0013
  381THF    H10 7950   3.310   3.779   1.932  0.5416  0.2799 -1.0599
  381THF    H11 7951   3.448   3.722   2.018 -0.3414 -1.1941  0.1072
  381THF    H12 7952   3.532   3.611   1.825  0.9322  1.0301 -0.3467
  381THF    H13 7953   3.356   3.638   1.767  0.7651  0.5530 -2.6400
  382THF     O1 7954   4.355   3.621   3.027  0.2286  0.1065  0.2823
  382THF     C2 7955   4.320   3.496   3.092  0.2499 -0.0770 -0.5607
  382THF     C3 7956   4.492   3.650   3.052  0.6119  0.0661 -0.3446
  382THF     H4 7957   4.309   3.416   3.020 -0.6023  0.1172 -0.6613
  382THF     H5 7958   4.223   3.510   3.140  0.5254 -1.2308  0.3606
  382THF     H6 7959   4.530   3.642   2.951  0.3298 -4.8696 -0.2682
  382THF     H7 7960   4.500   3.750   3.096  0.8848 -0.4353  0.7747
  382THF     C8 7961   4.552   3.537   3.140 -0.3133 -0.1006 -0.4635
  382THF     C9 7962   4.420   3.482   3.197  0.6989  0.0781 -0.0991
  382THF    H10 7963   4.615   3.582   3.217  3.1250 -1.2938 -2.3519
  382THF    H11 7964   4.616   3.467   3.087  1.2558  1.8190 -1.2226
  382THF    H12 7965   4.418   3.376   3.223 -4.6377  0.0954  0.5893
  382THF    H13 7966   4.411   3.526   3.297  2.2087  3.1837 -1.1741
  383THF     O1 7967   2.421   4.541   1.513 -0.3818 -0.4652  0.4654
  383THF     C2 7968   2.329   4.521   1.406  0.1163 -0.8994  0.7478
  383THF     C3 7969   2.366   4.470   1.624  0.2363 -0.1010  0.3134
  383THF     H4 7970   2.365   4.540   1.306 -1.2768  1.5373  0.6432
  383THF     H5 7971   2.242   4.586   1.418 -0.6599 -1.9496  0.9838
  383THF     H6 7972   2.439   4.449   1.703  0.6841  0.8647  0.1693
  383THF     H7 7973   2.288   4.527   1.674  0.3627 -0.3981  0.8654
  383THF     C8 7974   2.317   4.340   1.566  0.3712  0.3450  0.8641
  383THF     C9 7975   2.296   4.372   1.419  0.4170 -0.1955 -0.2568
  383THF    H10 7976   2.216   4.325   1.606 -0.0570  0.8155 -0.0188
  383THF    H11 7977   2.378   4.252   1.587  0.0626 -0.4824 -1.4244
  383THF    H12 7978   2.364   4.309   1.361  1.1865  0.5198 -0.1513
  383THF    H13 7979   2.193   4.351   1.390  0.2730 -0.1805  0.2288
  384THF     O1 7980   4.355   3.973   5.133  0.4098 -0.4396  0.5921
  384THF     C2 7981   4.457   4.060   5.097 -0.4755 -0.0452 -0.5676
  384THF     C3 7982   4.228   4.010   5.065  0.0535  0.4733  0.2347
  384THF     H4 7983   4.557   4.022   5.115 -0.2649  1.1423  0.9446
  384THF     H5 7984   4.443   4.152   5.154  0.4907 -0.2596  0.0315
  384THF     H6 7985   4.162   3.924   5.055  0.4626 -0.1804  2.5502
  384THF     H7 7986   4.172   4.086   5.119  0.9689  1.7602 -0.5641
  384THF     C8 7987   4.282   4.058   4.931  0.4698  0.2235  0.3115
  384THF     C9 7988   4.430   4.082   4.951 -0.0922  0.4976  0.4266
  384THF    H10 7989   4.222   4.140   4.891  1.6944  0.3918 -1.3056
  384THF    H11 7990   4.283   3.986   4.849 -2.6687  0.5638 -0.1448
  384THF    H12 7991   4.491   4.014   4.892  0.6805  1.2940  0.2836
  384THF    H13 7992   4.460   4.183   4.921  1.7570 -0.4790 -1.2017
  385THF     O1 7993   4.838   2.373   3.175 -0.0950 -0.0581  0.6563
  385THF     C2 7994   4.909   2.430   3.068 -0.4446 -0.2725 -0.7225
  385THF     C3 7995   4.831   2.463   3.278 -0.1047  0.0978  0.0511
  385THF     H4 7996   4.833   2.462   2.996 -0.3363  0.9209 -0.3410
  385THF     H5 7997   4.979   2.370   3.010  0.4387  1.8568 -2.0034
  385THF     H6 7998   4.747   2.527   3.255 -1.5358 -1.1877  1.4941
  385THF     H7 7999   4.815   2.400   3.365  0.5509 -0.9904 -0.5859
  385THF     C8 8000   4.961   2.543   3.271  0.4134 -0.0227  0.5518
  385THF     C9 8001   4.973   2.561   3.116  0.0982  0.7114 -0.4066
  385THF    H10 8002   5.045   2.481   3.303  0.9347  0.7949  0.7913
  385THF    H11 8003   4.959   2.632   3.334 -3.1503 -0.5840  1.4392
  385THF    H12 8004   4.916   2.643   3.074 -0.1911  1.1638  0.8186
  385THF    H13 8005   5.077   2.579   3.088  0.5084 -2.3061 -1.2535
  386THF     O1 8006   5.386   4.655   5.079  0.0802  0.0550  0.4785
  386THF     C2 8007   5.283   4.608   4.993  0.2538 -0.0298 -0.1983
  386THF     C3 8008   5.327   4.683   5.205 -0.2298 -0.3624 -0.5778
  386THF     H4 8009   5.246   4.508   5.013 -1.8405  0.6547 -0.4246
  386THF     H5 8010   5.309   4.618   4.888 -1.3839 -0.6281 -0.6946
  386THF     H6 8011   5.323   4.595   5.270 -0.1489  0.6629  0.8420
  386THF     H7 8012   5.384   4.760   5.257  0.3651 -2.0054  1.3473
  386THF     C8 8013   5.197   4.744   5.174  0.8037 -0.3184 -0.0649
  386THF     C9 8014   5.171   4.714   5.029 -0.1713  0.4249 -0.3393
  386THF    H10 8015   5.194   4.851   5.195  0.5605 -0.7175  2.2633
  386THF    H11 8016   5.117   4.698   5.231  0.4128  0.1737 -0.2132
  386THF    H12 8017   5.081   4.663   4.995  1.0977 -3.2899  1.2718
  386THF    H13 8018   5.182   4.801   4.965  0.7730 -0.5600 -1.5607
  387THF     O1 8019   1.080   1.657   0.995 -0.6031  0.9465  0.3359
  387THF     C2 8020   1.195   1.602   1.059  0.4018  0.0270 -0.2509
  387THF     C3 8021   1.096   1.627   0.855 -0.5092 -0.2163  0.5077
  387THF     H4 8022   1.172   1.536   1.142  0.6875  1.1477  0.7474
  387THF     H5 8023   1.248   1.691   1.093  0.7881 -0.9396  1.8444
  387THF     H6 8024   1.040   1.534   0.846 -2.9471  1.2204 -0.1850
  387THF     H7 8025   1.052   1.712   0.803  2.7359  1.6135  0.4992
  387THF     C8 8026   1.243   1.619   0.835  0.0874 -0.4050 -0.3594
  387THF     C9 8027   1.284   1.542   0.955 -0.3232  0.1195  0.2714
  387THF    H10 8028   1.282   1.720   0.841  1.9019 -1.0960  0.2541
  387THF    H11 8029   1.273   1.575   0.740 -1.8497  0.3785 -1.3944
  387THF    H12 8030   1.257   1.438   0.934  1.4183 -0.0652 -1.3642
  387THF    H13 8031   1.392   1.541   0.969 -0.4957 -0.1316  1.7589
  388THF     O1 8032   4.364   4.352   3.655 -0.3070 -0.3950 -0.6625
  388THF     C2 8033   4.298   4.349   3.788  0.4182  0.3420 -0.2587
  388THF     C3 8034   4.498   4.401   3.669 -0.0194 -0.1689  0.1934
  388THF     H4 8035   4.232   4.265   3.805  0.9706 -0.2156 -0.7933
  388THF     H5 8036   4.236   4.438   3.792  0.4866  0.3462  1.4910
  388THF     H6 8037   4.562   4.313   3.662 -0.3246 -0.3470 -0.5227
  388THF     H7 8038   4.522   4.478   3.596 -1.3168 -0.0411 -0.1195
  388THF     C8 8039   4.513   4.466   3.810 -0.0657  0.0445 -0.2794
  388THF     C9 8040   4.416   4.372   3.888 -0.5968 -0.8003 -0.4187
  388THF    H10 8041   4.469   4.565   3.806 -0.9561 -0.2063  1.9232
  388THF    H11 8042   4.615   4.464   3.849 -1.1783 -0.0622  2.9402
  388THF    H12 8043   4.472   4.281   3.909  0.2473  0.1127  1.6567
  388THF    H13 8044   4.386   4.413   3.985 -3.0549  0.1842 -1.5241
  389THF     O1 8045   0.277   1.334   3.247  0.1941 -0.3811 -0.7775
  389THF     C2 8046   0.214   1.249   3.149 -0.4864 -0.7024 -0.0084
  389THF     C3 8047   0.375   1.411   3.181 -0.0892  0.1486  0.4667
  389THF     H4 8048   0.151   1.307   3.082 -0.1851 -1.8205 -1.3147
  389THF     H5 8049   0.152   1.173   3.197  0.6162 -0.0249  2.6256
  389THF     H6 8050   0.334   1.493   3.121  1.7510  1.0658  0.3922
  389THF     H7 8051   0.444   1.457   3.252 -2.9988  1.6760  2.4967
  389THF     C8 8052   0.443   1.301   3.105  0.7972 -0.1740 -0.5907
  389THF     C9 8053   0.329   1.204   3.066  1.1188  0.6045  0.3705
  389THF    H10 8054   0.502   1.244   3.177  1.5194  0.1246 -0.9323
  389THF    H11 8055   0.505   1.329   3.019  1.7001 -2.7356 -0.8618
  389THF    H12 8056   0.313   1.196   2.958  1.2942 -0.6653  0.4236
  389THF    H13 8057   0.364   1.106   3.098  0.3581  0.2230  0.0533
  390THF     O1 8058   1.625   1.822   0.551  0.2796 -0.4781  0.0799
  390THF     C2 8059   1.526   1.748   0.619 -0.0877  0.1184 -0.1325
  390THF     C3 8060   1.736   1.743   0.543  0.1451  0.4473 -0.1707
  390THF     H4 8061   1.477   1.689   0.541 -0.2150 -1.2751  0.9490
  390THF     H5 8062   1.449   1.812   0.661  1.5599  1.6487  0.6959
  390THF     H6 8063   1.720   1.662   0.472  0.1793 -1.9042  2.3732
  390THF     H7 8064   1.827   1.799   0.518 -0.6137  1.8366  0.0693
  390THF     C8 8065   1.753   1.675   0.671  0.0713 -0.2749  0.1190
  390THF     C9 8066   1.609   1.671   0.717  0.4160  0.2172 -0.2854
  390THF    H10 8067   1.816   1.717   0.749  0.2310  0.8671 -0.6104
  390THF    H11 8068   1.795   1.578   0.644  1.9064  0.9364 -1.6507
  390THF    H12 8069   1.572   1.569   0.729  2.2876 -0.4267  0.3793
  390THF    H13 8070   1.612   1.724   0.812 -0.8463  0.6261 -0.4526
  391THF     O1 8071   1.113   3.703   5.307  0.1635  0.0778 -0.5973
  391THF     C2 8072   1.037   3.736   5.430  0.1268 -0.1091 -0.9674
  391THF     C3 8073   1.086   3.803   5.216  0.5522  0.2036 -0.4231
  391THF     H4 8074   1.106   3.789   5.497 -0.8172  0.6689 -0.5856
  391THF     H5 8075   1.013   3.650   5.492 -0.1557  2.1751  2.4028
  391THF     H6 8076   1.153   3.886   5.236  2.4325 -1.0000 -1.3588
  391THF     H7 8077   1.117   3.776   5.114 -2.5662  0.2133 -1.4836
  391THF     C8 8078   0.942   3.834   5.234  0.7494  0.4872 -0.3049
  391THF     C9 8079   0.916   3.816   5.381  0.5513  0.0843 -0.2322
  391THF    H10 8080   0.882   3.774   5.165  0.4951  1.4324 -0.9323
  391THF    H11 8081   0.919   3.936   5.201 -2.0837 -0.1443 -0.5868
  391THF    H12 8082   0.909   3.917   5.421  0.7439  0.4621 -1.1194
  391THF    H13 8083   0.818   3.771   5.393  0.8509 -0.3615  0.6204
  392THF     O1 8084   4.789   1.858   3.461 -0.1931 -0.5229 -0.0515
  392THF     C2 8085   4.779   1.756   3.562 -0.1286 -0.1121  0.3702
  392THF     C3 8086   4.672   1.935   3.458  0.0458  0.2484  0.8207
  392THF     H4 8087   4.866   1.751   3.627  0.5487  1.6720 -0.3468
  392THF     H5 8088   4.762   1.662   3.509  1.4789  0.4614 -1.2838
  392THF     H6 8089   4.688   2.033   3.413  2.8950  0.0414  1.1734
  392THF     H7 8090   4.599   1.884   3.395  0.5207 -0.6050  0.9336
  392THF     C8 8091   4.619   1.938   3.597 -0.2364  0.1459 -0.3139
  392THF     C9 8092   4.653   1.797   3.641  0.2192 -0.1122  0.1982
  392THF    H10 8093   4.512   1.958   3.598 -0.6107 -1.6245  0.5386
  392THF    H11 8094   4.663   2.015   3.661  0.4307 -0.4136 -0.0831
  392THF    H12 8095   4.675   1.776   3.745  0.3488 -1.7014 -0.1281
  392THF    H13 8096   4.580   1.719   3.617  2.1381 -1.8171 -0.3136
  393THF     O1 8097   4.715   3.689   1.581  0.1436 -0.2372  0.2636
  393THF     C2 8098   4.796   3.772   1.658 -0.1385  0.1121  0.0577
  393THF     C3 8099   4.780   3.658   1.455  0.1595  0.4674 -0.2851
  393THF     H4 8100   4.853   3.720   1.735 -2.4667  0.1494  1.8844
  393THF     H5 8101   4.751   3.849   1.719 -0.9749 -0.6598  0.4437
  393THF     H6 8102   4.855   3.581   1.468  0.3617  0.9686  2.1390
  393THF     H7 8103   4.698   3.626   1.392  0.6985  0.4983 -1.0057
  393THF     C8 8104   4.851   3.789   1.428  0.7634  1.0934  0.4825
  393THF     C9 8105   4.901   3.830   1.563 -0.4438 -0.8190 -0.9094
  393THF    H10 8106   4.778   3.858   1.385  0.7395  1.2387  0.7576
  393THF    H11 8107   4.938   3.784   1.362  3.5391 -2.1754  3.8982
  393THF    H12 8108   5.000   3.791   1.586 -0.0305 -0.8612 -2.6641
  393THF    H13 8109   4.906   3.939   1.561  1.6741 -0.8730 -0.8970
  394THF     O1 8110   1.490   3.208   2.143  0.0564  0.0699 -0.2874
  394THF     C2 8111   1.412   3.093   2.106  0.2586 -0.1802  0.0029
  394THF     C3 8112   1.413   3.278   2.238 -0.0049 -0.0506  0.2807
  394THF     H4 8113   1.463   3.008   2.059 -2.9604 -1.3067 -1.6995
  394THF     H5 8114   1.338   3.119   2.031 -0.7323 -0.9790  0.6722
  394THF     H6 8115   1.482   3.351   2.280  0.8921 -0.3708 -0.6057
  394THF     H7 8116   1.330   3.333   2.195 -0.9308  0.8684  3.0463
  394THF     C8 8117   1.377   3.162   2.332  0.1886 -0.5831 -0.3948
  394THF     C9 8118   1.353   3.045   2.245  0.3452  0.0809  0.0608
  394THF    H10 8119   1.287   3.193   2.386  0.0689 -0.7565 -0.4967
  394THF    H11 8120   1.457   3.145   2.404 -0.7679  1.5723  1.3127
  394THF    H12 8121   1.395   2.955   2.290 -1.9626 -1.1680 -0.0719
  394THF    H13 8122   1.249   3.023   2.220  0.3888  0.2965 -0.3258
  395THF     O1 8123   4.328   2.686   2.777 -0.2272  0.9342  0.2255
  395THF     C2 8124   4.410   2.718   2.889  0.4675  0.7123 -1.0643
  395THF     C3 8125   4.205   2.734   2.815  0.8784 -0.4062 -1.4122
  395THF     H4 8126   4.508   2.733   2.844  0.7610  0.7534 -0.4059
  395THF     H5 8127   4.425   2.639   2.961 -0.2929  0.7674 -0.8397
  395THF     H6 8128   4.128   2.741   2.738 -0.3910  2.2485 -0.0505
  395THF     H7 8129   4.169   2.663   2.890 -2.9766  1.6546 -1.0572
  395THF     C8 8130   4.230   2.868   2.889 -0.5337 -0.2583 -0.1260
  395THF     C9 8131   4.355   2.842   2.961 -0.3364  0.4683 -0.2324
  395THF    H10 8132   4.156   2.900   2.963 -1.4680 -2.6173  0.0308
  395THF    H11 8133   4.233   2.949   2.817  0.8033  0.6600  0.8998
  395THF    H12 8134   4.425   2.925   2.977  1.3484 -0.9286 -0.0831
  395THF    H13 8135   4.343   2.821   3.067  0.2926 -1.2082 -0.4671
  396THF     O1 8136   2.841   1.500   0.002 -1.0618  0.1071 -0.1554
  396THF     C2 8137   2.954   1.474  -0.081 -0.2568 -0.7712 -0.3553
  396THF     C3 8138   2.760   1.384   0.015  0.4140 -0.0395  0.2654
  396THF     H4 8139   3.040   1.416  -0.046  1.2085  1.1068 -0.6455
  396THF     H5 8140   3.001   1.563  -0.124  2.7092 -2.0684 -0.0299
  396THF     H6 8141   2.776   1.318   0.100 -2.4584 -2.1112 -0.6435
  396THF     H7 8142   2.652   1.397   0.027  0.1312 -2.0150  0.1825
  396THF     C8 8143   2.783   1.311  -0.113  1.3982 -0.0112  0.0236
  396THF     C9 8144   2.886   1.396  -0.189  0.3538 -0.0299  0.6723
  396THF    H10 8145   2.690   1.294  -0.168  0.4291  3.9444  0.1744
  396THF    H11 8146   2.815   1.207  -0.101  0.4663 -0.1972  1.0187
  396THF    H12 8147   2.949   1.342  -0.259  1.2632 -1.1483  2.2912
  396THF    H13 8148   2.827   1.466  -0.248 -1.2084 -0.1666  1.9922
  397THF     O1 8149   5.380   0.715   2.346 -0.7849 -0.0904 -0.1811
  397THF     C2 8150   5.259   0.663   2.301 -0.0516  0.1153  0.5842
  397THF     C3 8151   5.444   0.792   2.245  0.4616 -0.3437  0.7155
  397THF     H4 8152   5.169   0.703   2.348 -0.8669 -0.8670 -0.0792
  397THF     H5 8153   5.264   0.556   2.321 -1.3620  0.3949  2.8316
  397THF     H6 8154   5.412   0.896   2.246 -1.5099 -0.9127  1.3135
  397THF     H7 8155   5.552   0.777   2.244  0.3864 -0.8915 -0.2944
  397THF     C8 8156   5.405   0.733   2.111 -0.0844  0.0665 -0.4031
  397THF     C9 8157   5.259   0.689   2.151 -0.2112 -0.0434  0.1923
  397THF    H10 8158   5.471   0.648   2.096  0.1860  0.0575  0.7978
  397THF    H11 8159   5.420   0.809   2.035  1.0359  0.1001 -0.1621
  397THF    H12 8160   5.181   0.760   2.126  1.8235  2.4499  0.5867
  397THF    H13 8161   5.239   0.600   2.090  2.1597  0.2216 -1.0838
  398THF     O1 8162   4.114   0.320   5.068  0.4521  0.4535  0.0182
  398THF     C2 8163   4.194   0.286   5.176  0.0314 -0.0806 -0.1577
  398THF     C3 8164   4.140   0.455   5.028 -0.1517 -0.2954 -0.2557
  398THF     H4 8165   4.300   0.271   5.153  0.0290  0.4366 -0.5134
  398THF     H5 8166   4.175   0.193   5.231  2.2682 -0.4766  0.0350
  398THF     H6 8167   4.234   0.442   4.974 -2.5932 -0.2080 -5.0912
  398THF     H7 8168   4.058   0.509   4.980  1.4078 -0.0310 -2.8335
  398THF     C8 8169   4.170   0.530   5.159  0.4230  0.1372  0.0217
  398THF     C9 8170   4.158   0.415   5.262 -0.4269  0.2470  0.1283
  398THF    H10 8171   4.095   0.604   5.186  0.6131  0.4663 -0.3384
  398THF    H11 8172   4.267   0.577   5.170  0.0322  0.6230  1.7524
  398THF    H12 8173   4.233   0.426   5.341 -0.4458  0.9757  0.0502
  398THF    H13 8174   4.058   0.407   5.302 -0.0844 -1.5208  0.7327
  399THF     O1 8175   5.232   2.124   0.219  0.2858 -0.3803  1.0684
  399THF     C2 8176   5.330   2.094   0.127  0.3656 -0.9108 -0.1501
  399THF     C3 8177   5.154   2.231   0.166  0.5102  0.7458 -0.5057
  399THF     H4 8178   5.291   2.048   0.037  0.7575 -1.1899 -0.1815
  399THF     H5 8179   5.405   2.029   0.174  1.5921  1.5785  1.5544
  399THF     H6 8180   5.084   2.189   0.094 -3.2320  0.1872  3.0935
  399THF     H7 8181   5.101   2.269   0.253  0.1210  0.5017 -0.6320
  399THF     C8 8182   5.268   2.323   0.108  0.3457 -0.1952 -0.5330
  399THF     C9 8183   5.383   2.230   0.094 -0.0139 -0.2755 -0.3272
  399THF    H10 8184   5.294   2.413   0.164  0.8351 -1.0815  0.7052
  399THF    H11 8185   5.242   2.357   0.008 -3.2298 -0.3299  0.2148
  399THF    H12 8186   5.417   2.225  -0.009 -0.2008 -1.4480 -0.3476
  399THF    H13 8187   5.465   2.246   0.164  0.1089 -0.8363 -0.3391
  400THF     O1 8188   4.246   4.750   2.794  0.0254 -0.1669  0.3228
  400THF     C2 8189   4.166   4.672   2.876 -0.2502  0.1255 -0.6086
  400THF     C3 8190   4.160   4.821   2.710  0.0212 -0.3907 -0.4597
  400THF     H4 8191   4.211   4.648   2.972 -0.1508  0.9062 -0.4530
  400THF     H5 8192   4.144   4.581   2.820  0.9207  0.7534 -2.1737
  400THF     H6 8193   4.196   4.909   2.657  0.3372  2.1791  3.6756
  400THF     H7 8194   4.112   4.753   2.639 -1.4580  0.9396 -0.7887
  400THF     C8 8195   4.057   4.869   2.812 -0.4600 -0.0334 -0.0615
  400THF     C9 8196   4.040   4.753   2.908 -0.5084 -0.0376  0.0019
  400THF    H10 8197   3.976   4.902   2.747  0.7728  1.4263 -0.9262
  400THF    H11 8198   4.091   4.960   2.863 -2.7767  1.0552 -0.3276
  400THF    H12 8199   4.047   4.790   3.010  0.1841 -0.0729 -0.0250
  400THF    H13 8200   3.953   4.689   2.896 -0.4804 -0.0954  0.0973
  401THF     O1 8201   3.574   0.735   1.781 -0.0137  0.9394  0.2955
  401THF     C2 8202   3.487   0.629   1.735 -0.6430  0.0204  0.1867
  401THF     C3 8203   3.658   0.677   1.880 -0.4115 -0.1155 -0.8773
  401THF     H4 8204   3.440   0.667   1.644  1.2988  1.0535 -0.4536
  401THF     H5 8205   3.426   0.615   1.824  1.4661  0.6467  1.8400
  401THF     H6 8206   3.749   0.736   1.893 -1.6671  1.8665 -0.7385
  401THF     H7 8207   3.603   0.673   1.973  1.2854 -0.3727  0.1688
  401THF     C8 8208   3.688   0.533   1.823 -0.2831  0.4624 -0.4986
  401THF     C9 8209   3.585   0.514   1.716 -0.4503 -0.0687  0.2546
  401THF    H10 8210   3.677   0.454   1.897 -0.1622  1.2392  0.3625
  401THF    H11 8211   3.794   0.536   1.798 -0.4542  0.3347 -1.2610
  401THF    H12 8212   3.638   0.536   1.623 -0.2571 -2.5324 -0.2737
  401THF    H13 8213   3.549   0.412   1.703  0.4620 -0.2816 -0.7953
  402THF     O1 8214   3.451   1.118   3.817 -0.5541  0.4477 -0.0210
  402THF     C2 8215   3.550   1.014   3.826 -0.1916 -0.3083 -0.3078
  402THF     C3 8216   3.331   1.066   3.755  0.0377  0.1749  0.4574
  402THF     H4 8217   3.609   1.027   3.916  0.3037  1.2904 -0.8257
  402THF     H5 8218   3.620   1.012   3.743  2.0397 -1.3826  1.5030
  402THF     H6 8219   3.240   1.110   3.796 -0.4938  0.3310 -0.8238
  402THF     H7 8220   3.332   1.084   3.648  0.1846 -0.0178  0.4255
  402THF     C8 8221   3.339   0.911   3.763  0.7088 -0.3980 -0.4031
  402THF     C9 8222   3.472   0.879   3.826  0.2105 -0.4496 -0.4629
  402THF    H10 8223   3.336   0.872   3.661 -0.5360 -0.5537 -0.3248
  402THF    H11 8224   3.255   0.864   3.816  1.2181  0.6461  1.4278
  402THF    H12 8225   3.444   0.836   3.923 -2.5925  1.4466 -0.2939
  402THF    H13 8226   3.533   0.808   3.771  0.2050 -1.4316  0.7366
  403THF     O1 8227   1.528   4.872   1.797 -0.3128  0.2695 -0.1920
  403THF     C2 8228   1.540   4.913   1.934 -0.0815  0.0464  0.4628
  403THF     C3 8229   1.547   4.729   1.810 -0.6223 -0.0057  0.9370
  403THF     H4 8230   1.459   4.880   1.999 -1.7694 -0.6294 -1.8829
  403THF     H5 8231   1.552   5.022   1.935 -1.8122  0.2817 -0.7731
  403THF     H6 8232   1.459   4.689   1.861 -1.0735  0.9506  0.9226
  403THF     H7 8233   1.566   4.679   1.715  0.6326  0.2632  1.0286
  403THF     C8 8234   1.672   4.715   1.897  0.3442 -0.6777  0.5669
  403THF     C9 8235   1.670   4.843   1.975 -0.9101 -0.7237  0.5501
  403THF    H10 8236   1.755   4.692   1.830 -0.9397 -2.2542 -0.5715
  403THF    H11 8237   1.653   4.632   1.965 -3.7129 -1.1125 -0.8561
  403THF    H12 8238   1.680   4.832   2.083  0.9133 -2.7049  0.2356
  403THF    H13 8239   1.759   4.896   1.941  0.2056 -1.8547  1.6526
  404THF     O1 8240   3.039   4.875   0.378  0.4253  0.1641 -0.6223
  404THF     C2 8241   3.155   4.931   0.318 -0.3772 -0.2287  0.4606
  404THF     C3 8242   2.934   4.891   0.275 -0.7186  0.5710  0.2358
  404THF     H4 8243   3.233   4.854   0.318  1.8514  1.8948 -0.6064
  404THF     H5 8244   3.200   5.016   0.369 -0.8063  0.1850  0.1532
  404THF     H6 8245   2.857   4.814   0.283  1.7034 -2.3163 -2.1214
  404THF     H7 8246   2.891   4.988   0.300  1.1175  1.3651  0.4909
  404THF     C8 8247   2.999   4.889   0.146  0.3488  0.0464  0.0974
  404THF     C9 8248   3.123   4.965   0.173 -0.3967  0.3115  0.6816
  404THF    H10 8249   2.947   4.922   0.057 -2.4199 -1.5786  1.0124
  404THF    H11 8250   3.021   4.784   0.130 -0.1955 -0.1717  0.7381
  404THF    H12 8251   3.201   4.938   0.102 -2.1831 -1.5860 -0.6577
  404THF    H13 8252   3.099   5.071   0.162  0.4202  0.4908  0.5732
  405THF     O1 8253   1.019   4.473   0.546  0.0711  0.0933 -0.2688
  405THF     C2 8254   0.939   4.365   0.595  0.5453  0.0983  0.3203
  405THF     C3 8255   1.152   4.430   0.530  0.5168  0.0245  0.2037
  405THF     H4 8256   0.854   4.353   0.528 -0.3887  3.2626  0.7699
  405THF     H5 8257   0.894   4.398   0.688 -1.4999 -0.1030 -0.5363
  405THF     H6 8258   1.201   4.495   0.458  2.5186 -0.2695  1.2358
  405THF     H7 8259   1.206   4.425   0.625  0.1407 -2.5905  0.3551
  405THF     C8 8260   1.129   4.282   0.492 -0.3544 -0.4185 -0.2748
  405THF     C9 8261   1.025   4.244   0.591 -0.6052  0.0291 -0.3735
  405THF    H10 8262   1.221   4.225   0.511  0.5537  0.9773 -0.3743
  405THF    H11 8263   1.089   4.283   0.391 -0.1892  1.0363 -0.3356
  405THF    H12 8264   0.975   4.151   0.565 -0.8471 -0.5419  1.9496
  405THF    H13 8265   1.082   4.221   0.681  0.9853 -0.0431 -1.3557
  406THF     O1 8266   2.451   2.410   2.566  0.1448  0.4491  0.5736
  406THF     C2 8267   2.590   2.392   2.550 -0.1656 -0.0505  0.2098
  406THF     C3 8268   2.389   2.373   2.447 -0.2400 -0.2511 -0.6774
  406THF     H4 8269   2.593   2.285   2.568 -4.0218 -0.2607  0.4832
  406THF     H5 8270   2.652   2.442   2.626  0.2613  0.4814 -0.4770
  406THF     H6 8271   2.377   2.265   2.437  1.7158 -0.4411 -1.4750
  406THF     H7 8272   2.291   2.420   2.446 -0.2747 -0.2866  0.3032
  406THF     C8 8273   2.484   2.418   2.340 -0.0467 -0.4007  0.3869
  406THF     C9 8274   2.616   2.429   2.404 -0.2225  0.3746 -0.1103
  406THF    H10 8275   2.446   2.515   2.308 -0.3806  0.4485  3.1085
  406THF    H11 8276   2.489   2.352   2.253 -0.6755  0.8759 -0.6631
  406THF    H12 8277   2.691   2.363   2.359  0.2940 -0.2777  1.6416
  406THF    H13 8278   2.647   2.532   2.389  2.1456 -0.1361  0.7904
  407THF     O1 8279   3.058   0.769   1.789  0.0820  0.3601  0.1744
  407THF     C2 8280   3.133   0.652   1.816 -0.3919  0.1843 -0.0667
  407THF     C3 8281   2.921   0.725   1.798 -0.0272  0.3424 -0.8425
  407THF     H4 8282   3.159   0.653   1.922  1.7419  0.4457 -0.5560
  407THF     H5 8283   3.226   0.652   1.759 -0.1280 -2.1795  0.2613
  407THF     H6 8284   2.898   0.700   1.901 -0.3145 -0.2427 -1.0458
  407THF     H7 8285   2.840   0.792   1.768 -0.9226 -0.0890  0.5055
  407THF     C8 8286   2.923   0.586   1.732  0.0206 -0.3031  0.0954
  407THF     C9 8287   3.054   0.529   1.773 -0.4477 -0.6547 -0.1665
  407THF    H10 8288   2.916   0.606   1.625  4.2318  2.6406  0.1324
  407THF    H11 8289   2.832   0.539   1.770 -1.4768  0.4703 -2.3094
  407THF    H12 8290   3.044   0.469   1.864  1.3248 -1.0580 -0.2029
  407THF    H13 8291   3.101   0.471   1.694  0.1929  0.7616 -0.8398
  408THF     O1 8292   2.020   0.816   3.168 -0.2066 -0.0173  0.0829
  408THF     C2 8293   2.085   0.853   3.288  0.2598 -0.3915  0.5184
  408THF     C3 8294   1.938   0.709   3.192  0.6429  0.6670  0.5045
  408THF     H4 8295   2.068   0.956   3.319  0.6992  0.6421 -2.3673
  408THF     H5 8296   2.192   0.833   3.283  0.0932 -1.0953 -0.6855
  408THF     H6 8297   1.849   0.723   3.130  0.6988 -1.9360 -0.2759
  408THF     H7 8298   1.983   0.613   3.166  0.7757  0.5698  1.0904
  408THF     C8 8299   1.896   0.723   3.338  0.3218  0.3795 -0.0322
  408THF     C9 8300   2.022   0.768   3.396  0.1142 -0.1753 -0.9050
  408THF    H10 8301   1.855   0.630   3.378  1.3003  0.4864  1.2782
  408THF    H11 8302   1.827   0.806   3.344  0.2667  0.3138  0.2741
  408THF    H12 8303   2.001   0.829   3.484  4.1718  0.8773 -0.4214
  408THF    H13 8304   2.086   0.686   3.427  1.7620  1.5824  0.5890
  409THF     O1 8305   5.423   3.573   3.652 -0.6009 -0.4711  0.4133
  409THF     C2 8306   5.375   3.623   3.772  0.3797 -0.0820 -0.0663
  409THF     C3 8307   5.447   3.677   3.560  0.0817 -0.1430  0.5147
  409THF     H4 8308   5.448   3.606   3.852 -0.3050  0.7988  0.7809
  409THF     H5 8309   5.285   3.566   3.794  0.6045 -0.4638 -0.1261
  409THF     H6 8310   5.544   3.669   3.511  0.4152 -0.7329  1.2406
  409THF     H7 8311   5.372   3.667   3.482  0.3201 -1.0225  0.3783
  409THF     C8 8312   5.428   3.803   3.633 -0.1086  0.2074 -0.2085
  409THF     C9 8313   5.342   3.776   3.757  0.1760 -0.2559 -0.2417
  409THF    H10 8314   5.385   3.879   3.568 -1.3508 -1.9826 -2.0954
  409THF    H11 8315   5.525   3.828   3.676  0.4942 -3.6436  1.0071
  409THF    H12 8316   5.367   3.851   3.831 -0.2388 -0.8948  0.5654
  409THF    H13 8317   5.234   3.776   3.738  0.2611 -1.0860 -0.8143
  410THF     O1 8318   0.825   1.453   4.865  0.6201 -0.6204  0.0431
  410THF     C2 8319   0.757   1.364   4.956  0.9940 -1.0860 -0.0927
  410THF     C3 8320   0.726   1.485   4.760 -0.2239 -0.1216 -0.2847
  410THF     H4 8321   0.698   1.431   5.018  0.8856 -0.8110 -0.4892
  410THF     H5 8322   0.837   1.314   5.010  2.0271  1.4714  0.8916
  410THF     H6 8323   0.668   1.570   4.795 -1.0087 -1.2120  1.1720
  410THF     H7 8324   0.780   1.525   4.674  0.6795  3.1190  1.6247
  410THF     C8 8325   0.639   1.358   4.746  0.2655 -0.2727  0.1388
  410THF     C9 8326   0.675   1.277   4.860 -0.6855 -0.2826  0.2047
  410THF    H10 8327   0.655   1.302   4.653 -0.0352 -0.6121  0.2886
  410THF    H11 8328   0.535   1.388   4.753  0.9945  3.1025 -1.4869
  410THF    H12 8329   0.579   1.246   4.900 -1.7123  1.8420 -0.4324
  410THF    H13 8330   0.737   1.192   4.831  1.3474  1.3262 -0.4384
  411THF     O1 8331   3.985   1.806   2.006  0.2514 -0.3323  0.4203
  411THF     C2 8332   3.901   1.837   1.899 -0.0733 -0.1015 -0.4386
  411THF     C3 8333   4.006   1.924   2.082  0.0267  0.0274  0.1716
  411THF     H4 8334   3.854   1.753   1.848  3.5339 -1.1972 -2.2927
  411THF     H5 8335   3.936   1.907   1.823 -1.2323  0.2602 -0.6610
  411THF     H6 8336   4.025   1.898   2.186  2.8170 -1.2028 -0.5397
  411THF     H7 8337   4.098   1.974   2.051  0.0508 -0.6833 -0.9649
  411THF     C8 8338   3.878   2.010   2.066 -0.1675 -0.0744 -0.4297
  411THF     C9 8339   3.798   1.924   1.974  0.2148  1.2098 -0.8252
  411THF    H10 8340   3.913   2.106   2.027 -0.7571  0.6257  0.7284
  411THF    H11 8341   3.830   2.035   2.160  1.0532  1.7917 -0.2508
  411THF    H12 8342   3.733   1.858   2.031  1.3883  2.1108  1.6900
  411THF    H13 8343   3.749   1.996   1.909  2.3623  2.8337 -0.7571
  412THF     O1 8344   3.366   4.847   3.544  0.3125  0.3385 -0.6602
  412THF     C2 8345   3.358   4.735   3.622  0.5927  0.0074 -0.3495
  412THF     C3 8346   3.273   4.829   3.434 -0.4825 -0.1034  0.3431
  412THF     H4 8347   3.355   4.761   3.728 -1.2038  0.1905 -0.4227
  412THF     H5 8348   3.442   4.666   3.612  0.9945  0.4839 -0.3567
  412THF     H6 8349   3.257   4.932   3.402  1.3471 -0.2844 -1.3392
  412THF     H7 8350   3.308   4.772   3.348 -0.1816 -0.3787  0.6499
  412THF     C8 8351   3.147   4.760   3.498 -0.0139  0.1690  0.4193
  412THF     C9 8352   3.227   4.667   3.589  0.3003 -0.1103  0.2368
  412THF    H10 8353   3.086   4.695   3.436 -1.7451 -1.3340  3.4515
  412THF    H11 8354   3.079   4.820   3.559 -0.0234 -0.1108  0.6877
  412THF    H12 8355   3.173   4.654   3.683  0.0898 -1.9464 -0.0972
  412THF    H13 8356   3.242   4.567   3.548 -2.0687 -0.5885  0.3543
  413THF     O1 8357   4.203   2.333   2.007 -0.2003  0.5788  0.8275
  413THF     C2 8358   4.338   2.282   1.999 -0.0794 -0.4056  0.2686
  413THF     C3 8359   4.165   2.365   2.141  0.5034 -0.4873  1.1196
  413THF     H4 8360   4.409   2.360   1.974  2.0440 -2.1003  0.6702
  413THF     H5 8361   4.344   2.194   1.935 -0.8041 -1.7699  1.9968
  413THF     H6 8362   4.145   2.472   2.149 -0.8122 -0.3561 -2.1746
  413THF     H7 8363   4.069   2.314   2.148  0.2095 -0.4667 -1.6111
  413THF     C8 8364   4.275   2.317   2.230 -0.2444 -0.3900  0.5288
  413THF     C9 8365   4.357   2.226   2.135  0.1507  0.1492  0.1295
  413THF    H10 8366   4.229   2.269   2.316  1.8057  0.0432  1.9412
  413THF    H11 8367   4.348   2.391   2.263  1.9912 -1.8617 -0.8174
  413THF    H12 8368   4.458   2.206   2.171 -0.1109  1.2990  1.6135
  413THF    H13 8369   4.306   2.130   2.126 -1.8469  1.3471 -3.2152
  414THF     O1 8370   4.416   1.627   4.641 -0.4867  0.0356 -0.4939
  414THF     C2 8371   4.471   1.658   4.772  1.1586 -0.0297 -0.4915
  414THF     C3 8372   4.363   1.493   4.634 -0.4910 -0.5126 -0.2470
  414THF     H4 8373   4.411   1.733   4.824  1.2091 -2.1033  2.7935
  414THF     H5 8374   4.573   1.695   4.770  1.9681 -2.1540 -0.9083
  414THF     H6 8375   4.264   1.491   4.587  0.4980  1.0632 -2.5934
  414THF     H7 8376   4.420   1.421   4.576 -1.5617 -2.8428  1.4172
  414THF     C8 8377   4.362   1.445   4.782 -0.4571  0.1320  0.9946
  414THF     C9 8378   4.473   1.531   4.847 -0.1896  0.2413 -0.5192
  414THF    H10 8379   4.375   1.337   4.788 -2.7340 -0.4584 -2.2788
  414THF    H11 8380   4.270   1.455   4.840  1.1640 -0.5498  3.8641
  414THF    H12 8381   4.466   1.530   4.956  0.1665 -0.7645 -0.4977
  414THF    H13 8382   4.566   1.485   4.815 -0.2796  0.8910 -1.7803
  415THF     O1 8383   3.376   0.973   5.226 -0.5423  0.1972 -0.1368
  415THF     C2 8384   3.306   1.091   5.190  0.2857 -0.8084 -0.5669
  415THF     C3 8385   3.303   0.916   5.330  0.4510  0.1102 -0.4048
  415THF     H4 8386   3.214   1.072   5.134 -0.3737  0.3682  0.0890
  415THF     H5 8387   3.366   1.157   5.127  1.9212 -0.1861  1.5570
  415THF     H6 8388   3.218   0.859   5.292 -0.5198  0.2105  1.5165
  415THF     H7 8389   3.362   0.846   5.389 -1.2890 -2.2868 -1.3228
  415THF     C8 8390   3.257   1.028   5.422  0.7586 -0.1953 -0.2436
  415THF     C9 8391   3.266   1.148   5.328  0.0581 -0.2467  0.1755
  415THF    H10 8392   3.303   1.040   5.520  0.4666  2.4924 -0.3660
  415THF    H11 8393   3.154   1.009   5.453  0.7773 -0.7163 -0.4913
  415THF    H12 8394   3.177   1.210   5.337 -0.1877 -0.9090  3.1292
  415THF    H13 8395   3.340   1.215   5.370 -1.3237  0.4438  1.5976
  416THF     O1 8396   2.129   3.725   2.628 -0.1501  0.7419  0.4847
  416THF     C2 8397   2.108   3.769   2.487  0.2721 -0.2233 -0.4669
  416THF     C3 8398   2.055   3.610   2.661  0.1741 -0.4912  0.1312
  416THF     H4 8399   2.197   3.784   2.426  0.8106 -1.9319 -0.1428
  416THF     H5 8400   2.049   3.861   2.492 -1.1683 -1.1098 -0.5071
  416THF     H6 8401   2.121   3.525   2.679  0.2144  0.2162  4.2527
  416THF     H7 8402   2.000   3.627   2.754  2.7322  1.4334  1.4140
  416THF     C8 8403   1.966   3.581   2.543  0.8102 -0.2257  0.8008
  416THF     C9 8404   2.035   3.651   2.425  0.5052  0.6410 -0.0329
  416THF    H10 8405   1.869   3.631   2.546  0.9710  0.2805 -1.0885
  416THF    H11 8406   1.951   3.476   2.515 -3.9255  0.5620 -0.4765
  416THF    H12 8407   2.111   3.580   2.394 -1.7480 -1.3482 -1.3408
  416THF    H13 8408   1.970   3.681   2.343  0.0811  0.7738  0.3463
  417THF     O1 8409   3.538   3.202   5.066 -0.9731  0.0085  0.3600
  417THF     C2 8410   3.567   3.082   5.140 -0.1577  0.3237 -0.0939
  417THF     C3 8411   3.474   3.296   5.145  0.1545  0.2380  0.2108
  417THF     H4 8412   3.639   3.016   5.092 -0.7388 -1.2385  1.1057
  417THF     H5 8413   3.471   3.037   5.165 -0.0898  0.8100  1.1036
  417THF     H6 8414   3.471   3.399   5.108  0.0181  0.8797  1.9129
  417THF     H7 8415   3.378   3.244   5.151  0.8109 -0.8973  1.5587
  417THF     C8 8416   3.549   3.283   5.280 -0.1662 -0.0975 -0.1549
  417THF     C9 8417   3.619   3.148   5.269 -0.1211 -0.3658 -0.7096
  417THF    H10 8418   3.489   3.301   5.369 -0.6094  0.7561 -0.6096
  417THF    H11 8419   3.631   3.355   5.277  0.0604 -0.3322  0.4111
  417THF    H12 8420   3.728   3.155   5.261 -0.2996  0.6780 -2.7409
  417THF    H13 8421   3.596   3.090   5.359  2.1275 -1.7720 -0.9402
  418THF     O1 8422   4.721   4.790   2.020  0.2007 -0.8087  0.3440
  418THF     C2 8423   4.637   4.686   1.972 -0.5585 -0.0188  0.0295
  418THF     C3 8424   4.718   4.794   2.162  0.0506  0.5356 -0.0454
  418THF     H4 8425   4.700   4.606   1.935 -1.2159  0.4924 -2.3387
  418THF     H5 8426   4.582   4.715   1.883  0.3286  0.3038 -0.4235
  418THF     H6 8427   4.779   4.719   2.214  1.7363  1.5593 -0.4873
  418THF     H7 8428   4.743   4.890   2.206 -0.1054  1.5305 -2.0343
  418THF     C8 8429   4.572   4.760   2.188  0.1575 -0.3458 -0.3553
  418THF     C9 8430   4.534   4.655   2.086 -0.1793  0.7871  0.0292
  418THF    H10 8431   4.506   4.845   2.168 -0.9310 -1.3817 -1.3066
  418THF    H11 8432   4.554   4.720   2.287 -1.1172  2.2746  0.5841
  418THF    H12 8433   4.543   4.552   2.121 -1.8921  1.2899  2.1700
  418THF    H13 8434   4.431   4.659   2.051 -0.0346 -1.1971 -0.7602
  419THF     O1 8435   0.252   2.980   1.464  0.2960  0.7865 -0.1267
  419THF     C2 8436   0.367   2.969   1.386 -0.2721 -0.3375  0.2162
  419THF     C3 8437   0.173   2.859   1.443 -0.4213 -0.1141  0.3631
  419THF     H4 8438   0.429   3.053   1.417 -1.4796  0.7659 -0.2663
  419THF     H5 8439   0.343   2.984   1.281  0.5194  1.2721  0.2416
  419THF     H6 8440   0.101   2.852   1.525  1.4972  2.8932  2.4997
  419THF     H7 8441   0.133   2.868   1.342  0.3116  0.2881  0.0957
  419THF     C8 8442   0.297   2.762   1.451  0.0376 -1.0079  0.0791
  419THF     C9 8443   0.428   2.844   1.448 -0.0155 -0.4493 -0.3813
  419THF    H10 8444   0.287   2.695   1.365 -2.1050  0.9600 -1.3278
  419THF    H11 8445   0.300   2.702   1.542  0.1271 -0.5931  0.3494
  419THF    H12 8446   0.460   2.873   1.548 -1.0546 -0.9269  0.1094
  419THF    H13 8447   0.507   2.794   1.393 -0.6644 -2.4643  0.4175
  420THF     O1 8448   2.999   5.044   2.824 -0.8272  0.0336  0.0722
  420THF     C2 8449   2.912   5.017   2.716 -0.3061 -0.1803  0.1852
  420THF     C3 8450   3.127   5.046   2.764 -1.3727  0.1820  0.3146
  420THF     H4 8451   2.895   5.106   2.654  0.7245 -0.4548 -0.5181
  420THF     H5 8452   2.817   4.977   2.751 -0.4720 -0.8357 -0.9645
  420THF     H6 8453   3.139   5.143   2.715 -1.7655 -0.4699 -1.1229
  420THF     H7 8454   3.205   5.049   2.841 -0.1736 -0.0805 -0.8550
  420THF     C8 8455   3.128   4.931   2.657  0.6206  0.2196 -0.0107
  420THF     C9 8456   2.977   4.912   2.632 -0.2805 -0.4790 -0.0280
  420THF    H10 8457   3.156   4.832   2.692  1.2133  0.1367 -0.6885
  420THF    H11 8458   3.174   4.966   2.564 -2.4171  1.1831 -1.2806
  420THF    H12 8459   2.945   4.944   2.533  1.1664 -0.5186 -0.5320
  420THF    H13 8460   2.936   4.813   2.652 -2.8502  0.9172  2.4233
  421THF     O1 8461   4.074   3.774   1.102  0.5865  0.1428  0.0551
  421THF     C2 8462   4.113   3.829   1.227 -0.2120 -0.6070  0.2177
  421THF     C3 8463   4.036   3.891   1.025  0.1901 -0.1890  0.3717
  421THF     H4 8464   4.171   3.760   1.289  0.4993  0.6696  1.0070
  421THF     H5 8465   4.021   3.859   1.278 -2.4048 -1.7415 -2.7818
  421THF     H6 8466   4.038   3.861   0.920  1.0229 -0.2419  0.4012
  421THF     H7 8467   3.932   3.918   1.046 -0.8119 -0.9912 -2.8710
  421THF     C8 8468   4.131   4.005   1.068 -0.1846  0.2905  0.5300
  421THF     C9 8469   4.192   3.958   1.195  0.8027  0.5049 -1.0024
  421THF    H10 8470   4.076   4.096   1.090  0.8620  0.3622  3.1444
  421THF    H11 8471   4.204   4.012   0.987 -1.0114  1.8257 -0.1250
  421THF    H12 8472   4.297   3.940   1.174  0.1510 -0.7957 -3.6929
  421THF    H13 8473   4.181   4.032   1.274  0.8334  0.7468 -1.2230
  422THF     O1 8474   5.326   0.226   5.489 -0.3873 -1.1279 -0.2514
  422THF     C2 8475   5.260   0.100   5.502 -0.1633  0.0962 -0.5423
  422THF     C3 8476   5.367   0.269   5.620  0.0064 -1.0013  0.6479
  422THF     H4 8477   5.275   0.027   5.423  1.2672  0.4942 -0.6683
  422THF     H5 8478   5.154   0.127   5.505 -0.0316  0.5588  0.5339
  422THF     H6 8479   5.452   0.337   5.611 -2.1017  1.6120 -1.2180
  422THF     H7 8480   5.292   0.328   5.671  0.3149 -0.7009  0.7592
  422THF     C8 8481   5.406   0.146   5.689 -0.2526  0.2375 -0.4633
  422THF     C9 8482   5.329   0.038   5.621  0.4902  0.2147  0.5636
  422THF    H10 8483   5.391   0.165   5.795  0.3558  1.8766 -0.6415
  422THF    H11 8484   5.511   0.126   5.668 -0.6785 -0.8880 -1.6574
  422THF    H12 8485   5.401  -0.036   5.586 -0.7605  0.4355 -2.9036
  422THF    H13 8486   5.263  -0.009   5.695  0.2461 -1.9602 -0.9389
  423THF     O1 8487   1.512   3.952   5.344 -0.2050 -0.2082  0.4648
  423THF     C2 8488   1.500   4.007   5.207  0.3192  1.1679 -0.3646
  423THF     C3 8489   1.406   4.005   5.426  0.5856  0.2523 -0.1602
  423THF     H4 8490   1.442   3.949   5.135 -0.1402  0.0984  0.8210
  423THF     H5 8491   1.603   4.026   5.178  1.1247 -2.4050 -0.3715
  423THF     H6 8492   1.320   3.939   5.411  0.3528  0.4913  0.1010
  423THF     H7 8493   1.424   4.002   5.533  0.4109  0.6761 -0.1182
  423THF     C8 8494   1.400   4.149   5.367  0.2979  0.2301  0.1739
  423THF     C9 8495   1.431   4.134   5.221 -0.5817  0.1581 -0.1836
  423THF    H10 8496   1.467   4.219   5.416  1.9905  0.7899 -2.7126
  423THF    H11 8497   1.297   4.184   5.371 -0.5227 -1.5775 -2.3861
  423THF    H12 8498   1.331   4.134   5.176 -0.2770  2.5037 -1.0213
  423THF    H13 8499   1.475   4.226   5.182  0.1773  0.1040  0.5152
  424THF     O1 8500   0.459   4.726   5.446 -0.3773  0.1783 -0.2718
  424THF     C2 8501   0.526   4.659   5.332  0.5038 -0.1419  0.1002
  424THF     C3 8502   0.545   4.713   5.557  0.1818 -0.1765  0.1717
  424THF     H4 8503   0.472   4.693   5.244  2.7104 -0.4951 -1.4753
  424THF     H5 8504   0.527   4.550   5.330  0.9318 -0.1421  0.1575
  424THF     H6 8505   0.517   4.765   5.649 -0.4081  0.5213 -0.3828
  424THF     H7 8506   0.539   4.605   5.571  1.5155 -0.3529 -0.4181
  424THF     C8 8507   0.680   4.739   5.489  0.3988 -0.2544  0.5650
  424THF     C9 8508   0.669   4.714   5.335 -0.3192 -0.4764  0.4805
  424THF    H10 8509   0.754   4.665   5.519  0.4024 -0.8924 -0.9334
  424THF    H11 8510   0.710   4.843   5.500 -2.5251  0.7905 -0.2631
  424THF    H12 8511   0.685   4.808   5.283  0.5961 -0.6796  0.3712
  424THF    H13 8512   0.739   4.637   5.303  0.8106  0.5462  0.4293
  425THF     O1 8513   1.086   0.841   4.206 -0.5959  0.4606 -0.5176
  425THF     C2 8514   1.073   0.728   4.121  0.3790 -0.2035  0.1310
  425THF     C3 8515   1.203   0.914   4.164  0.0323  0.1320 -0.2112
  425THF     H4 8516   0.977   0.741   4.071  0.3923 -2.2158 -0.5009
  425THF     H5 8517   1.065   0.631   4.171 -0.3231  0.0038  0.4412
  425THF     H6 8518   1.192   1.023   4.171 -0.4645 -0.0008  1.4953
  425THF     H7 8519   1.279   0.893   4.239 -0.3438 -0.1889  0.0874
  425THF     C8 8520   1.228   0.876   4.018  0.4926 -0.7359 -0.7114
  425THF     C9 8521   1.191   0.733   4.025 -0.3449  0.4647  0.1217
  425THF    H10 8522   1.330   0.897   3.988  0.7196  0.4621  0.7494
  425THF    H11 8523   1.164   0.934   3.952  1.7661  0.3532 -1.0279
  425THF    H12 8524   1.176   0.687   3.928 -1.8070 -1.8137  1.3339
  425THF    H13 8525   1.270   0.681   4.079  0.8749  0.8138 -1.2670
  426THF     O1 8526   0.900   0.126   0.943  1.0959 -0.3437  0.3755
  426THF     C2 8527   0.774   0.121   0.879  0.1485  0.4708 -0.1356
  426THF     C3 8528   0.932   0.002   1.000  0.6196  0.0560  0.1207
  426THF     H4 8529   0.781   0.074   0.781 -1.3368 -0.5655  0.2215
  426THF     H5 8530   0.725   0.218   0.877 -1.3763 -0.2456  0.4772
  426THF     H6 8531   0.974  -0.061   0.921  2.0025  2.2631 -1.0175
  426THF     H7 8532   1.016   0.015   1.068  1.5007  1.2156 -1.1148
  426THF     C8 8533   0.801  -0.028   1.075  0.5404  0.1802  0.1912
  426THF     C9 8534   0.704   0.028   0.973 -0.1434 -0.0989 -0.0442
  426THF    H10 8535   0.800   0.022   1.171  0.4611  1.4542 -0.4525
  426THF    H11 8536   0.784  -0.135   1.070  0.2867  0.2467 -0.4569
  426THF    H12 8537   0.638  -0.045   0.925 -1.5045  1.9947 -1.5700
  426THF    H13 8538   0.637   0.091   1.032 -0.7882 -1.1714  0.3914
  427THF     O1 8539   4.367   2.804   2.306 -0.1074  0.3069 -0.2125
  427THF     C2 8540   4.291   2.682   2.323  0.7148  0.1966 -0.6274
  427THF     C3 8541   4.278   2.903   2.256 -0.0677 -0.0180  0.1802
  427THF     H4 8542   4.340   2.601   2.376 -1.4434  0.2397  1.6339
  427THF     H5 8543   4.268   2.646   2.223  1.0873 -1.9843  0.0263
  427THF     H6 8544   4.308   3.003   2.288 -0.0918 -0.5246  1.8477
  427THF     H7 8545   4.277   2.896   2.147  0.5606 -1.2774  0.2289
  427THF     C8 8546   4.148   2.878   2.330  0.0370  0.1084 -0.3184
  427THF     C9 8547   4.161   2.733   2.394  0.3507  0.0262  0.3556
  427THF    H10 8548   4.064   2.877   2.261 -0.5229 -2.8493  0.2996
  427THF    H11 8549   4.131   2.944   2.416 -3.2023 -1.0287  0.0420
  427THF    H12 8550   4.162   2.736   2.503 -1.4627 -3.4405  0.6020
  427THF    H13 8551   4.075   2.673   2.364  0.4691  0.2351 -0.4321
  428THF     O1 8552   0.218   1.400   0.363 -0.3480 -0.1845  0.0312
  428THF     C2 8553   0.183   1.460   0.238 -0.4393 -0.2270  0.0568
  428THF     C3 8554   0.140   1.292   0.366  0.0881  0.2404 -0.0530
  428THF     H4 8555   0.214   1.402   0.151  0.6207 -0.0977  0.3320
  428THF     H5 8556   0.225   1.561   0.230 -1.5739  0.5903  3.0925
  428THF     H6 8557   0.158   1.218   0.288 -1.0746 -0.0933 -0.0161
  428THF     H7 8558   0.150   1.227   0.453 -0.1654  0.9161  0.4855
  428THF     C8 8559   0.001   1.348   0.335 -0.5664 -0.6398  0.3298
  428THF     C9 8560   0.033   1.472   0.242  0.0582  0.2743 -0.2181
  428THF    H10 8561  -0.054   1.379   0.424 -2.0099 -0.8318 -0.4627
  428THF    H11 8562  -0.065   1.284   0.276  1.7209  0.1163 -3.3350
  428THF    H12 8563  -0.016   1.470   0.144 -0.8293  1.7694  0.1618
  428THF    H13 8564   0.009   1.565   0.292  1.1961  0.3832  0.1359
  429THF     O1 8565   5.386   2.930   3.528  0.5700 -0.5827 -0.1129
  429THF     C2 8566   5.281   2.960   3.429 -0.6125  0.2625  0.7761
  429THF     C3 8567   5.421   2.796   3.530 -0.1384  0.5478  0.2058
  429THF     H4 8568   5.279   3.066   3.401  0.8836  0.1897  0.3099
  429THF     H5 8569   5.192   2.931   3.484  0.2488 -0.6403  1.7327
  429THF     H6 8570   5.529   2.805   3.535 -0.1824  2.6946 -1.1994
  429THF     H7 8571   5.396   2.750   3.626 -0.8466 -0.4586 -0.4453
  429THF     C8 8572   5.365   2.731   3.405 -0.2577  0.5490  0.8128
  429THF     C9 8573   5.304   2.849   3.327 -0.1918  0.5718  0.3605
  429THF    H10 8574   5.286   2.657   3.421  1.6311 -1.8867 -0.4361
  429THF    H11 8575   5.431   2.675   3.338  2.0709  1.2768  2.3886
  429THF    H12 8576   5.384   2.884   3.262 -0.8985  0.2253 -0.7169
  429THF    H13 8577   5.217   2.834   3.263  1.9146 -0.6426 -2.4361
  430THF     O1 8578   3.222   0.279   0.357  1.3701  0.0212 -0.3337
  430THF     C2 8579   3.087   0.241   0.393  0.6401 -0.8702 -0.3074
  430THF     C3 8580   3.311   0.206   0.449 -0.0764 -0.0187 -0.1353
  430THF     H4 8581   3.070   0.144   0.346  0.1580 -0.6732 -0.5462
  430THF     H5 8582   3.013   0.314   0.362  1.5153 -0.8011 -2.4779
  430THF     H6 8583   3.325   0.103   0.417  2.1184  0.0294  0.5223
  430THF     H7 8584   3.417   0.232   0.455  0.9865 -3.4234 -1.5883
  430THF     C8 8585   3.235   0.206   0.576 -0.2775 -0.3339 -0.0481
  430THF     C9 8586   3.090   0.216   0.547 -0.1577 -0.1361 -0.2581
  430THF    H10 8587   3.264   0.282   0.648  1.5455 -0.3904 -0.6641
  430THF    H11 8588   3.253   0.111   0.627 -0.2049 -0.4738 -0.3294
  430THF    H12 8589   3.038   0.126   0.578  0.9397 -0.9234 -0.6354
  430THF    H13 8590   3.055   0.302   0.604  1.5020  0.8944 -0.7292
  431THF     O1 8591   2.616   3.895   1.136  0.0397 -0.1351  0.5637
  431THF     C2 8592   2.669   3.809   1.039 -0.3289  0.3200 -0.7209
  431THF     C3 8593   2.471   3.876   1.136 -0.1739 -0.0716 -0.7603
  431THF     H4 8594   2.665   3.703   1.060  1.0383  0.4529  0.3997
  431THF     H5 8595   2.772   3.826   1.007  0.0463 -0.0193  0.2543
  431THF     H6 8596   2.454   3.789   1.200 -0.5998  0.0635 -0.6846
  431THF     H7 8597   2.433   3.958   1.197  0.3988  1.0825 -1.9122
  431THF     C8 8598   2.436   3.876   0.990 -0.7678 -0.2396  0.2397
  431THF     C9 8599   2.565   3.828   0.924  0.4490  0.1247  0.2895
  431THF    H10 8600   2.419   3.979   0.957 -0.3427 -0.0975  0.4560
  431THF    H11 8601   2.342   3.826   0.965 -0.6994  0.2372 -1.0454
  431THF    H12 8602   2.552   3.736   0.867  1.6226 -0.8256  1.4646
  431THF    H13 8603   2.580   3.909   0.853 -0.3220  0.8257  0.9027
  432THF     O1 8604   2.435   2.259   1.244  0.2379  0.1183 -0.5983
  432THF     C2 8605   2.477   2.144   1.177 -0.1586 -0.3054 -1.3717
  432THF     C3 8606   2.526   2.365   1.213 -0.2943  0.1810 -0.3372
  432THF     H4 8607   2.421   2.127   1.085 -0.1859 -0.4422 -1.3288
  432THF     H5 8608   2.452   2.065   1.247 -1.1604  1.4356  0.3514
  432THF     H6 8609   2.503   2.401   1.113  0.6658  3.1095  0.3855
  432THF     H7 8610   2.509   2.455   1.273  0.2958  0.4871 -0.6166
  432THF     C8 8611   2.658   2.302   1.228  0.0094  0.5661  0.3702
  432THF     C9 8612   2.628   2.164   1.159  0.1483 -0.4233 -0.6368
  432THF    H10 8613   2.680   2.300   1.334 -1.0258 -1.2739  0.5925
  432THF    H11 8614   2.725   2.362   1.166 -0.0108 -0.7814 -1.0104
  432THF    H12 8615   2.660   2.173   1.055  3.3318  0.7590  0.3282
  432THF    H13 8616   2.681   2.084   1.209  0.6315  0.1381 -0.2343
  433THF     O1 8617   0.112   5.157   1.923 -0.5141 -0.1896 -0.6223
  433THF     C2 8618   0.158   5.145   1.789 -0.6713 -0.0188  0.0774
  433THF     C3 8619   0.225   5.171   2.012 -0.0493 -0.4587  0.0213
  433THF     H4 8620   0.104   5.219   1.730  1.7324  2.4331  0.7172
  433THF     H5 8621   0.135   5.048   1.746  1.4208 -1.4709  1.9967
  433THF     H6 8622   0.212   5.219   2.109  0.3319 -1.2662  0.4868
  433THF     H7 8623   0.252   5.069   2.040 -0.3028 -0.9139 -1.3374
  433THF     C8 8624   0.335   5.225   1.926 -0.3520 -0.4401 -0.1009
  433THF     C9 8625   0.310   5.161   1.790 -0.6421  0.3747 -0.3053
  433THF    H10 8626   0.434   5.206   1.967 -0.4524 -1.4172 -0.2991
  433THF    H11 8627   0.305   5.330   1.929  0.3337 -0.1546 -1.7923
  433THF    H12 8628   0.334   5.217   1.699  1.0595  0.2923  0.0637
  433THF    H13 8629   0.363   5.067   1.774 -0.6521  0.2188  0.5674
  434THF     O1 8630   1.182   0.304   3.079  0.2037 -0.0461 -0.1412
  434THF     C2 8631   1.076   0.395   3.062  0.4831 -0.2252 -0.4125
  434THF     C3 8632   1.177   0.226   3.191 -0.0236  0.4898  0.3048
  434THF     H4 8633   1.044   0.397   2.958  0.6318 -0.1281 -0.4550
  434THF     H5 8634   1.103   0.495   3.096  1.5111  0.1179 -2.1341
  434THF     H6 8635   1.167   0.120   3.167 -1.1029  0.3655  1.2031
  434THF     H7 8636   1.270   0.241   3.245 -0.6775  0.8939  1.3465
  434THF     C8 8637   1.043   0.266   3.256 -0.3529  0.4317 -0.5260
  434THF     C9 8638   0.966   0.324   3.142  0.1588  0.2850  0.1274
  434THF    H10 8639   1.066   0.343   3.330  0.2811 -0.9010  0.7108
  434THF    H11 8640   0.992   0.178   3.295 -0.2588  0.4338 -0.3986
  434THF    H12 8641   0.928   0.245   3.077 -0.7354  0.1173  0.8277
  434THF    H13 8642   0.881   0.386   3.172  0.1856  0.0817  0.6287
  435THF     O1 8643   2.156   1.572   3.142  0.1182 -0.9933 -0.0129
  435THF     C2 8644   2.087   1.696   3.147 -0.2760 -0.3806 -0.2546
  435THF     C3 8645   2.250   1.581   3.032  0.1519 -1.0082  0.2442
  435THF     H4 8646   2.046   1.700   3.248  0.5691 -0.4363  0.1054
  435THF     H5 8647   2.010   1.709   3.071  0.1164  0.8215 -0.4627
  435THF     H6 8648   2.339   1.521   3.051  0.6939 -0.2156  0.2760
  435THF     H7 8649   2.195   1.550   2.943 -0.0479  0.8940 -0.3481
  435THF     C8 8650   2.277   1.731   3.015 -0.0294  0.5155  0.1586
  435THF     C9 8651   2.204   1.793   3.121 -0.2150  0.3582  0.2127
  435THF    H10 8652   2.240   1.763   2.917  2.8914  2.0832 -0.5429
  435THF    H11 8653   2.385   1.747   3.019  0.3711 -1.5785 -0.7402
  435THF    H12 8654   2.260   1.792   3.215  0.6961  0.4280 -0.3260
  435THF    H13 8655   2.178   1.895   3.094  0.4080  1.0853  2.1565
  436THF     O1 8656   4.443   3.507   0.849 -0.6256 -0.0365 -0.1190
  436THF     C2 8657   4.413   3.405   0.744  0.3984  0.1693 -0.4862
  436THF     C3 8658   4.327   3.519   0.919  0.4320  0.0258 -0.7293
  436THF     H4 8659   4.447   3.309   0.785 -3.5843 -0.2842  2.3037
  436THF     H5 8660   4.449   3.441   0.648  1.8485 -1.5807 -0.6506
  436THF     H6 8661   4.322   3.434   0.987 -0.4429 -0.6211 -1.5701
  436THF     H7 8662   4.328   3.603   0.988  1.3915 -0.5265 -0.0632
  436THF     C8 8663   4.206   3.513   0.832 -0.7953 -0.2399  0.1505
  436THF     C9 8664   4.259   3.402   0.741 -0.2811  0.5138  0.2415
  436THF    H10 8665   4.201   3.612   0.786  1.5177  0.3724  1.0737
  436THF    H11 8666   4.119   3.492   0.893  0.6137 -3.2002  1.3498
  436THF    H12 8667   4.222   3.303   0.766 -1.9058  0.8652 -0.6371
  436THF    H13 8668   4.215   3.412   0.641 -2.0623 -3.1803  0.4959
  437THF     O1 8669   2.461   0.343   1.151  0.0683  0.3316  0.0261
  437THF     C2 8670   2.351   0.432   1.169 -0.1944  0.2208  0.5303
  437THF     C3 8671   2.571   0.423   1.112 -0.4899 -0.2951 -0.2687
  437THF     H4 8672   2.302   0.422   1.266 -1.9261 -0.9354 -0.3947
  437THF     H5 8673   2.271   0.412   1.098  2.3426  0.5503 -2.6051
  437THF     H6 8674   2.658   0.369   1.148 -0.7280 -0.1244  0.5713
  437THF     H7 8675   2.569   0.439   1.004  1.2787  1.0220 -0.1471
  437THF     C8 8676   2.564   0.556   1.177 -0.6266 -0.9503 -0.0201
  437THF     C9 8677   2.413   0.569   1.154 -0.5382 -0.1487  0.4066
  437THF    H10 8678   2.614   0.638   1.124 -0.7062 -1.8365 -1.5406
  437THF    H11 8679   2.594   0.546   1.281  0.1075  0.3011 -0.0974
  437THF    H12 8680   2.369   0.634   1.229 -1.1334  1.7873 -1.4963
  437THF    H13 8681   2.387   0.616   1.059 -0.1300  0.4101  0.5606
  438THF     O1 8682   4.678   2.574   2.001 -0.4501 -0.2684  0.4799
  438THF     C2 8683   4.744   2.670   1.912  0.0863 -0.2385 -0.7311
  438THF     C3 8684   4.570   2.653   2.057  0.1562  0.4253  0.0370
  438THF     H4 8685   4.688   2.674   1.819 -1.7334 -0.4878  0.2952
  438THF     H5 8686   4.847   2.643   1.889  0.6338  0.1543  1.1103
  438THF     H6 8687   4.497   2.685   1.983 -0.8730  1.1523  1.3115
  438THF     H7 8688   4.520   2.598   2.137 -0.2980 -0.2385 -0.6925
  438THF     C8 8689   4.636   2.788   2.102 -0.3213 -0.1235 -0.6722
  438THF     C9 8690   4.731   2.808   1.992  0.1474  1.1912  1.2810
  438THF    H10 8691   4.679   2.783   2.202 -1.2521  0.8543 -0.2055
  438THF    H11 8692   4.565   2.870   2.102 -0.0183  0.1533 -1.5641
  438THF    H12 8693   4.683   2.880   1.925 -0.4944 -1.3247 -1.1561
  438THF    H13 8694   4.828   2.847   2.021  0.5356  1.5501 -0.3609
  439THF     O1 8695   1.745   4.968   5.193  0.1119  0.1269  0.4045
  439THF     C2 8696   1.707   5.007   5.324  0.1135 -0.2862  0.1302
  439THF     C3 8697   1.835   5.065   5.147 -0.2462 -0.5275  0.0166
  439THF     H4 8698   1.671   4.925   5.386  0.2459  0.4097  1.1467
  439THF     H5 8699   1.636   5.089   5.330  1.4187  0.7868  4.1455
  439THF     H6 8700   1.894   5.045   5.058 -1.3755  0.2677 -0.9565
  439THF     H7 8701   1.791   5.164   5.134  0.0343 -0.4046 -0.0144
  439THF     C8 8702   1.929   5.082   5.262  0.2638 -0.3420  0.6907
  439THF     C9 8703   1.834   5.055   5.383 -0.9869 -0.1470 -0.3261
  439THF    H10 8704   1.958   5.187   5.260 -1.9680  0.3428 -1.2826
  439THF    H11 8705   2.014   5.014   5.264  0.9115  0.4610  1.4541
  439THF    H12 8706   1.885   4.973   5.434 -3.0428 -2.4969 -1.8372
  439THF    H13 8707   1.814   5.137   5.452  2.4304  0.8544 -0.3179
  440THF     O1 8708   3.140   1.171   4.521 -0.2974  0.5094  0.2768
  440THF     C2 8709   3.097   1.303   4.538 -0.2758 -0.7620  0.6384
  440THF     C3 8710   3.270   1.156   4.568 -0.4602  0.3258 -0.5153
  440THF     H4 8711   2.990   1.327   4.532  0.2232  1.5438  0.1234
  440THF     H5 8712   3.145   1.351   4.453  1.5034 -1.6823  1.0761
  440THF     H6 8713   3.293   1.049   4.570  0.9043  0.6048  0.2186
  440THF     H7 8714   3.335   1.219   4.508 -0.3900 -1.2003 -2.1019
  440THF     C8 8715   3.260   1.220   4.708 -0.4865  0.3870  0.4973
  440THF     C9 8716   3.156   1.333   4.684 -0.2345 -0.6504 -0.3073
  440THF    H10 8717   3.363   1.231   4.742 -0.5069 -0.8251  1.0191
  440THF    H11 8718   3.211   1.159   4.784  2.1217 -0.7375  1.4009
  440THF    H12 8719   3.075   1.335   4.756  0.6232  0.0392  0.6850
  440THF    H13 8720   3.202   1.432   4.681 -0.3629 -0.5856 -3.2938
  441THF     O1 8721   3.393   4.684   4.936  0.0531  0.7414 -0.2802
  441THF     C2 8722   3.528   4.640   4.959  0.3290 -0.1428 -0.3555
  441THF     C3 8723   3.361   4.695   4.798 -0.0983  0.4001  0.1496
  441THF     H4 8724   3.527   4.577   5.048 -1.0844  2.9517  2.0220
  441THF     H5 8725   3.594   4.722   4.985  0.2840  0.3452 -1.7403
  441THF     H6 8726   3.287   4.618   4.783  0.8133 -0.7863  1.4716
  441THF     H7 8727   3.324   4.791   4.761 -0.9104 -0.4865 -1.4063
  441THF     C8 8728   3.494   4.667   4.733  0.8757  0.0628 -0.0287
  441THF     C9 8729   3.566   4.578   4.830 -0.1303  0.2528  0.0202
  441THF    H10 8730   3.544   4.763   4.736 -0.0024  0.7516 -3.2724
  441THF    H11 8731   3.484   4.634   4.629 -1.6859  2.1166 -0.5486
  441THF    H12 8732   3.529   4.476   4.835  0.8242 -0.1237 -0.4130
  441THF    H13 8733   3.673   4.561   4.821 -0.2519 -1.2441  1.0141
  442THF     O1 8734   4.412   4.172   1.957 -0.3091  0.0825 -0.1592
  442THF     C2 8735   4.491   4.215   2.062 -0.4303 -0.2828  0.2614
  442THF     C3 8736   4.449   4.251   1.852 -0.0873 -0.7826  0.5101
  442THF     H4 8737   4.499   4.148   2.148 -1.3130 -0.6673  0.0472
  442THF     H5 8738   4.453   4.313   2.090  0.5453  0.0780  0.3594
  442THF     H6 8739   4.420   4.185   1.770 -2.5202 -0.6876  1.2142
  442THF     H7 8740   4.386   4.340   1.853 -0.8813 -1.3319  1.6750
  442THF     C8 8741   4.599   4.257   1.847 -0.6057 -0.3564 -0.8503
  442THF     C9 8742   4.626   4.226   1.993  0.1287 -0.5393  0.2262
  442THF    H10 8743   4.642   4.353   1.816  0.5705 -0.2380  1.0052
  442THF    H11 8744   4.646   4.192   1.774  0.4977  1.2085 -1.5805
  442THF    H12 8745   4.678   4.131   2.010 -1.7562 -1.6738  0.0026
  442THF    H13 8746   4.689   4.305   2.034 -0.0731  0.6281 -1.5964
  443THF     O1 8747   3.371   1.487   4.463 -1.1474 -0.4697  0.6882
  443THF     C2 8748   3.502   1.463   4.411  0.2063  0.1436 -0.6941
  443THF     C3 8749   3.350   1.617   4.501  0.0956 -0.0148 -1.2046
  443THF     H4 8750   3.501   1.500   4.309  0.8997 -0.8559 -1.0869
  443THF     H5 8751   3.525   1.356   4.410  0.5076  0.1788  0.5678
  443THF     H6 8752   3.306   1.678   4.423  1.6597  1.8761 -0.7069
  443THF     H7 8753   3.288   1.642   4.587 -1.5859 -0.4474 -2.2562
  443THF     C8 8754   3.490   1.679   4.524 -0.6596  0.2132  0.2331
  443THF     C9 8755   3.591   1.570   4.480  0.1740  0.5755  0.3856
  443THF    H10 8756   3.511   1.703   4.628  1.1215  1.1120 -0.2978
  443THF    H11 8757   3.497   1.768   4.463 -2.1618 -0.0926 -0.4420
  443THF    H12 8758   3.667   1.605   4.410  0.4769 -1.0089 -0.1274
  443THF    H13 8759   3.648   1.533   4.565  2.2779 -1.4447 -1.7426
  444THF     O1 8760   5.334   1.250   0.034 -0.3954 -0.1164  0.2455
  444THF     C2 8761   5.249   1.155   0.089  0.1316 -0.2418  0.4980
  444THF     C3 8762   5.338   1.230  -0.107  0.1669 -0.3797 -0.0191
  444THF     H4 8763   5.225   1.171   0.194 -0.3780  2.1375  0.0758
  444THF     H5 8764   5.297   1.058   0.083 -1.3875 -1.1425  2.1335
  444THF     H6 8765   5.378   1.316  -0.161  1.5292 -0.7858  0.2953
  444THF     H7 8766   5.407   1.147  -0.126  2.6786  1.5044  0.3788
  444THF     C8 8767   5.191   1.196  -0.147 -0.1218  0.1983 -0.5274
  444THF     C9 8768   5.133   1.167  -0.010  0.5579  0.4659 -0.0346
  444THF    H10 8769   5.191   1.102  -0.202 -0.0998 -0.6896  0.9274
  444THF    H11 8770   5.133   1.273  -0.198 -1.0904 -1.0947 -1.4491
  444THF    H12 8771   5.062   1.241   0.026 -2.6399 -1.2712 -2.2098
  444THF    H13 8772   5.070   1.078  -0.009 -0.3524  1.0745 -0.8342
  445THF     O1 8773   5.145   5.118   4.658 -0.0905 -0.2776  0.1671
  445THF     C2 8774   5.140   5.084   4.514  0.3736 -0.2906 -0.3228
  445THF     C3 8775   5.238   5.217   4.668  0.1821  0.4760 -0.8695
  445THF     H4 8776   5.044   5.037   4.495  0.1477  0.2067 -0.4193
  445THF     H5 8777   5.215   5.012   4.482  2.0658  1.1331  0.2617
  445THF     H6 8778   5.205   5.251   4.766  1.0908  1.3063 -0.8342
  445THF     H7 8779   5.335   5.167   4.661  0.1786  0.6896 -3.5456
  445THF     C8 8780   5.214   5.312   4.548  0.2484  0.0996 -0.5962
  445THF     C9 8781   5.141   5.217   4.447  0.1960 -0.5066  0.3870
  445THF    H10 8782   5.304   5.355   4.505  0.9483 -2.5521 -2.0503
  445THF    H11 8783   5.143   5.394   4.559 -0.7636 -0.7544 -0.6267
  445THF    H12 8784   5.044   5.259   4.419  0.1781 -0.3764  0.6402
  445THF    H13 8785   5.197   5.208   4.355  0.7555 -1.4606  0.8073
  446THF     O1 8786   3.695   5.096   3.506 -0.0001  0.1776  0.3231
  446THF     C2 8787   3.758   5.152   3.620 -0.2760 -0.4472  0.5282
  446THF     C3 8788   3.648   4.972   3.557 -0.1022  0.1851 -0.2180
  446THF     H4 8789   3.784   5.257   3.608  2.2923 -1.2396 -2.5040
  446THF     H5 8790   3.857   5.107   3.635 -1.3921 -3.0811  0.4498
  446THF     H6 8791   3.572   4.936   3.488 -2.0593  2.4085  0.6199
  446THF     H7 8792   3.735   4.907   3.564  1.2556  1.9034 -0.3268
  446THF     C8 8793   3.576   5.016   3.686  0.2890 -0.8753 -0.1313
  446THF     C9 8794   3.662   5.136   3.736 -0.6525  0.6313 -0.1658
  446THF    H10 8795   3.568   4.951   3.774 -0.1889 -0.8628 -0.1628
  446THF    H11 8796   3.474   5.051   3.670  0.5361 -0.3914 -0.6777
  446THF    H12 8797   3.604   5.227   3.749  1.3075  2.0858 -1.0710
  446THF    H13 8798   3.707   5.120   3.834 -2.6908  2.6619  1.1834
  447THF     O1 8799   2.168   0.793   3.958 -0.1545 -0.8575  0.2509
  447THF     C2 8800   2.147   0.931   3.904 -0.3407  0.5518  0.4430
  447THF     C3 8801   2.060   0.715   3.920 -0.2347 -0.2841 -0.4634
  447THF     H4 8802   2.239   0.979   3.871 -0.8817  0.4219 -1.3731
  447THF     H5 8803   2.093   1.000   3.969  0.7385  1.6371  0.2189
  447THF     H6 8804   2.081   0.608   3.915 -0.0340 -0.1732 -3.5127
  447THF     H7 8805   1.980   0.740   3.990 -0.8597 -1.5882 -0.6957
  447THF     C8 8806   2.030   0.748   3.780 -0.4270  0.4021 -0.3945
  447THF     C9 8807   2.063   0.899   3.781 -0.0886  0.0134 -0.3554
  447THF    H10 8808   1.926   0.734   3.753 -0.7519 -0.3841  1.1706
  447THF    H11 8809   2.095   0.692   3.713 -1.9463  0.7397 -2.2306
  447THF    H12 8810   2.114   0.921   3.688 -1.6121  0.1820 -1.1772
  447THF    H13 8811   1.971   0.957   3.786 -0.3406 -0.4505  2.4287
  448THF     O1 8812   4.495   3.831   0.752 -0.4304  0.3704  0.5876
  448THF     C2 8813   4.475   3.762   0.631 -0.1823 -1.1437 -0.6634
  448THF     C3 8814   4.447   3.964   0.747 -0.0402 -0.4126 -0.2171
  448THF     H4 8815   4.390   3.697   0.648 -1.1607  0.3377  0.3136
  448THF     H5 8816   4.560   3.695   0.615 -0.0493 -1.4681  1.2080
  448THF     H6 8817   4.366   3.981   0.818  0.9353  0.3419  0.7486
  448THF     H7 8818   4.523   4.038   0.773 -1.3929  0.9711 -0.0231
  448THF     C8 8819   4.393   3.988   0.600 -0.1743 -0.0350 -0.1193
  448THF     C9 8820   4.458   3.873   0.529 -0.0443  0.5550 -0.4686
  448THF    H10 8821   4.420   4.086   0.560  0.9816 -0.5525 -0.6802
  448THF    H11 8822   4.286   3.975   0.586  0.1575 -3.5985 -0.4345
  448THF    H12 8823   4.395   3.841   0.446 -1.0986 -0.8130  0.8067
  448THF    H13 8824   4.553   3.909   0.490 -0.0026  1.8458  0.7405
  449THF     O1 8825   3.511   5.412   3.276 -0.1808 -0.1766 -0.7507
  449THF     C2 8826   3.411   5.375   3.189  0.4803 -0.3122  0.2638
  449THF     C3 8827   3.626   5.336   3.244 -0.1372 -0.5128 -0.4812
  449THF     H4 8828   3.438   5.420   3.093 -0.5168  0.1315  0.1790
  449THF     H5 8829   3.316   5.412   3.225 -0.0698 -2.5548  1.2925
  449THF     H6 8830   3.665   5.385   3.155 -1.9476  0.1962 -0.9180
  449THF     H7 8831   3.704   5.346   3.319 -0.2988 -1.0170 -0.2421
  449THF     C8 8832   3.565   5.191   3.220 -0.5339 -0.6902 -0.3575
  449THF     C9 8833   3.417   5.223   3.185 -0.3026  0.4564  0.5209
  449THF    H10 8834   3.570   5.125   3.306  1.3274 -0.7622 -0.4685
  449THF    H11 8835   3.626   5.155   3.137  0.1629  3.2315 -1.7397
  449THF    H12 8836   3.389   5.190   3.085  2.1274 -0.0969 -0.0545
  449THF    H13 8837   3.358   5.182   3.267  1.6337  1.7248  2.6725
  450THF     O1 8838   2.759   3.690   4.926  0.5175 -0.0261 -0.0738
  450THF     C2 8839   2.831   3.676   5.047 -0.1643  0.2011  0.4442
  450THF     C3 8840   2.784   3.830   4.883  0.3648 -0.8460  0.2181
  450THF     H4 8841   2.844   3.572   5.078 -1.3030 -0.6058 -1.6398
  450THF     H5 8842   2.778   3.723   5.130 -1.2722 -0.4892  0.1608
  450THF     H6 8843   2.741   3.866   4.789 -2.0895 -1.5937  0.9805
  450THF     H7 8844   2.741   3.891   4.962  1.7825 -1.3442  1.4023
  450THF     C8 8845   2.931   3.838   4.908 -0.6019 -0.2151 -0.7762
  450THF     C9 8846   2.963   3.739   5.018  0.6171 -0.4917  0.6463
  450THF    H10 8847   2.973   3.937   4.925 -1.3382  0.2451 -1.5573
  450THF    H11 8848   2.976   3.802   4.815  0.3354  0.2827 -0.5320
  450THF    H12 8849   3.042   3.667   4.997  0.4303 -0.9737  1.5227
  450THF    H13 8850   3.004   3.792   5.104  0.1373  1.1390 -0.0978
  451THF     O1 8851   3.599   4.509   2.092 -0.5159 -0.5366 -0.2311
  451THF     C2 8852   3.482   4.446   2.129  0.7524  0.2754  0.8312
  451THF     C3 8853   3.645   4.574   2.213 -0.3399  0.2480  0.3505
  451THF     H4 8854   3.458   4.368   2.057 -1.0258  1.3280  0.2177
  451THF     H5 8855   3.398   4.515   2.130  0.6487  0.1809 -0.1751
  451THF     H6 8856   3.742   4.617   2.190 -0.2486 -1.1629 -2.3375
  451THF     H7 8857   3.571   4.651   2.234 -0.3919  0.4201 -0.4427
  451THF     C8 8858   3.642   4.456   2.309 -0.0661  0.4992  0.3229
  451THF     C9 8859   3.518   4.384   2.268  0.7277 -0.0370 -0.7624
  451THF    H10 8860   3.630   4.499   2.409  2.0638 -0.6391  1.1468
  451THF    H11 8861   3.730   4.392   2.310 -0.2078  0.1527 -2.2675
  451THF    H12 8862   3.517   4.275   2.264 -2.3279 -0.3907  2.9396
  451THF    H13 8863   3.438   4.413   2.337  0.3064 -0.4196 -1.0858
  452THF     O1 8864   1.343   2.249   4.590  0.4383 -0.4815  0.4815
  452THF     C2 8865   1.414   2.256   4.461  0.2368 -0.4741 -0.6164
  452THF     C3 8866   1.423   2.161   4.670  0.1380  0.0453 -1.0139
  452THF     H4 8867   1.477   2.344   4.474  0.0548 -0.6736  2.5074
  452THF     H5 8868   1.330   2.271   4.393  0.1520  0.6056 -0.2914
  452THF     H6 8869   1.511   2.215   4.705 -0.2467  0.8014 -1.2015
  452THF     H7 8870   1.371   2.140   4.764 -1.7097  1.2428 -1.7126
  452THF     C8 8871   1.473   2.050   4.581  0.0024  0.9452 -0.2519
  452THF     C9 8872   1.484   2.120   4.448 -0.0230 -0.0402  0.6673
  452THF    H10 8873   1.401   1.970   4.565  0.7349  0.2779 -0.2713
  452THF    H11 8874   1.571   2.009   4.604 -0.5120 -0.5137 -0.5661
  452THF    H12 8875   1.589   2.138   4.424  0.5907 -0.2735  2.9542
  452THF    H13 8876   1.446   2.058   4.367  0.0431  1.1426 -0.2870
  453THF     O1 8877   0.081   3.854   1.940 -0.0989 -0.0424  0.2473
  453THF     C2 8878   0.097   3.915   2.058 -0.4349 -0.3848 -0.4105
  453THF     C3 8879   0.031   3.953   1.849  0.5463  0.1112  0.2739
  453THF     H4 8880   0.196   3.960   2.056 -0.3021 -0.6398  0.2727
  453THF     H5 8881   0.094   3.856   2.149 -0.7043 -0.8880 -0.7390
  453THF     H6 8882   0.111   3.999   1.791 -0.5352  0.6862 -0.8102
  453THF     H7 8883  -0.025   3.895   1.776 -0.3449  0.2547  0.8361
  453THF     C8 8884  -0.053   4.053   1.925 -0.7938  0.0059 -0.1636
  453THF     C9 8885  -0.014   4.017   2.069  0.0030  0.7348  0.9783
  453THF    H10 8886  -0.162   4.045   1.925 -0.8918  1.1248 -1.2267
  453THF    H11 8887  -0.030   4.157   1.900 -2.6830  0.8144  1.1588
  453THF    H12 8888   0.014   4.104   2.128  1.8367  0.8295  0.0286
  453THF    H13 8889  -0.098   3.979   2.127 -1.0417  1.2528 -0.1453
  454THF     O1 8890   0.243   5.224   3.121 -0.4952  0.0803  0.2128
  454THF     C2 8891   0.313   5.293   3.020  0.2989  0.0272 -0.2448
  454THF     C3 8892   0.308   5.108   3.159  0.6723  0.5969 -0.3500
  454THF     H4 8893   0.337   5.396   3.047 -1.9471  0.0120  2.2737
  454THF     H5 8894   0.252   5.306   2.931  2.1519 -1.9126 -1.9102
  454THF     H6 8895   0.363   5.111   3.253  0.6019 -0.8462 -0.2375
  454THF     H7 8896   0.236   5.032   3.187  1.0389  0.1102 -0.7144
  454THF     C8 8897   0.410   5.079   3.050 -0.0966  0.8909 -0.6478
  454THF     C9 8898   0.435   5.215   2.997 -0.2063  0.0672 -0.2824
  454THF    H10 8899   0.370   5.011   2.976 -0.8576  0.7846 -0.1457
  454THF    H11 8900   0.504   5.036   3.086  0.6376  2.0611 -1.0801
  454THF    H12 8901   0.506   5.253   3.070 -1.8661 -1.0945  2.0915
  454THF    H13 8902   0.463   5.224   2.892  0.4020 -1.5542 -0.2897
  455THF     O1 8903   0.917   0.753   3.421 -0.1667  0.3734  0.0634
  455THF     C2 8904   0.945   0.848   3.515  0.4207  0.3938  0.5792
  455THF     C3 8905   1.037   0.735   3.346 -0.0101  0.0518  0.3601
  455THF     H4 8906   0.945   0.810   3.617  0.3474  0.6838  0.6868
  455THF     H5 8907   0.859   0.914   3.507 -1.1733 -1.8232 -2.3167
  455THF     H6 8908   1.100   0.657   3.389  0.2377 -1.1282 -1.9679
  455THF     H7 8909   1.020   0.706   3.243 -1.6361 -0.6393  0.7905
  455THF     C8 8910   1.106   0.870   3.346 -0.4130  0.0265 -0.2712
  455THF     C9 8911   1.071   0.931   3.474 -0.2902 -0.0777 -0.6986
  455THF    H10 8912   1.064   0.928   3.264  0.5144 -1.4265 -1.8078
  455THF    H11 8913   1.211   0.876   3.319 -0.8008  1.7936 -1.6056
  455THF    H12 8914   1.151   0.921   3.548 -0.9349 -2.0534 -0.2313
  455THF    H13 8915   1.047   1.036   3.456 -1.7418 -0.0163  1.1943
  456THF     O1 8916   4.738   4.663   3.520  0.2816  0.4389  0.5118
  456THF     C2 8917   4.819   4.550   3.544  0.5745  0.3679 -0.0191
  456THF     C3 8918   4.727   4.734   3.646  0.5430 -1.1015  0.4042
  456THF     H4 8919   4.861   4.512   3.451  1.3682  0.9105  0.1017
  456THF     H5 8920   4.779   4.473   3.610 -0.0768  1.5280  0.9769
  456THF     H6 8921   4.731   4.842   3.629  0.3508 -0.9242  1.4178
  456THF     H7 8922   4.641   4.716   3.710  0.4097 -0.7290  0.3369
  456THF     C8 8923   4.852   4.698   3.717  0.1946  0.0708 -0.3198
  456THF     C9 8924   4.929   4.615   3.626  0.0663  0.4830  0.5277
  456THF    H10 8925   4.820   4.625   3.792  0.2165 -0.6119 -0.9674
  456THF    H11 8926   4.909   4.774   3.770  0.9387 -0.9390  0.3604
  456THF    H12 8927   4.993   4.676   3.562 -1.0654  2.0681  0.8589
  456THF    H13 8928   4.991   4.547   3.685  1.0319 -0.1850 -1.1536
  457THF     O1 8929   4.686   3.225   2.689 -0.1250  0.0518 -0.3649
  457THF     C2 8930   4.713   3.171   2.564 -0.2804 -0.0396  0.0580
  457THF     C3 8931   4.713   3.128   2.785  0.3645  0.7255  0.0276
  457THF     H4 8932   4.813   3.207   2.540  0.5581 -1.5966  1.0205
  457THF     H5 8933   4.641   3.196   2.486 -0.6311 -0.6539  0.1739
  457THF     H6 8934   4.818   3.134   2.811  0.2403  2.1523  0.3006
  457THF     H7 8935   4.638   3.146   2.862 -1.1582  1.2638 -1.5108
  457THF     C8 8936   4.672   2.996   2.720 -0.6196 -0.6460  0.0482
  457THF     C9 8937   4.729   3.021   2.581  0.8900 -0.4856  0.1771
  457THF    H10 8938   4.565   2.988   2.697 -0.5030  0.6492 -1.0565
  457THF    H11 8939   4.697   2.904   2.773 -1.4041 -0.6016  0.5111
  457THF    H12 8940   4.831   2.984   2.589  1.0751  0.3098  1.8881
  457THF    H13 8941   4.687   2.970   2.495 -0.7692  1.5966 -0.3505
  458THF     O1 8942   3.497   5.168   5.333  0.1010  0.2356 -0.0768
  458THF     C2 8943   3.476   5.025   5.308  0.6279 -0.2104 -0.4485
  458THF     C3 8944   3.634   5.188   5.293  0.3640 -0.0370  0.0986
  458THF     H4 8945   3.371   4.999   5.305  0.7937 -0.8155 -1.3629
  458THF     H5 8946   3.537   4.963   5.374  0.3473 -0.8293 -0.7632
  458THF     H6 8947   3.663   5.291   5.274  0.7315 -0.0338  0.6651
  458THF     H7 8948   3.689   5.162   5.383 -0.4467  1.1330  0.9595
  458THF     C8 8949   3.651   5.097   5.167  0.1184 -0.4438  0.2947
  458THF     C9 8950   3.526   5.013   5.170 -0.0693  0.6526  1.0822
  458THF    H10 8951   3.748   5.048   5.166  0.6333  0.5370 -0.3547
  458THF    H11 8952   3.642   5.155   5.075 -1.5437 -2.1534 -0.6858
  458THF    H12 8953   3.442   5.046   5.109  1.0701 -0.8210 -1.4523
  458THF    H13 8954   3.541   4.911   5.134 -0.5725  1.6561 -2.2948
  459THF     O1 8955   3.951   4.954   4.164  0.2673 -0.0327 -0.5314
  459THF     C2 8956   3.844   5.012   4.091  0.2663  0.5893 -0.3250
  459THF     C3 8957   4.063   5.044   4.168  0.4010 -0.2527  0.6759
  459THF     H4 8958   3.765   5.026   4.164 -0.3872 -0.4429 -0.8131
  459THF     H5 8959   3.803   4.939   4.021 -1.6055  1.2805 -0.0028
  459THF     H6 8960   4.108   5.059   4.266  1.6509  1.9652 -0.1458
  459THF     H7 8961   4.135   5.011   4.093 -0.7372  1.1615 -1.1481
  459THF     C8 8962   4.008   5.179   4.127  0.2572  0.7314 -0.4935
  459THF     C9 8963   3.890   5.142   4.049 -0.5307  0.0632  0.9747
  459THF    H10 8964   4.077   5.250   4.082  0.7420  0.8816  0.4637
  459THF    H11 8965   3.979   5.222   4.223  0.5749  0.2508 -0.1752
  459THF    H12 8966   3.803   5.208   4.050 -0.5420  0.3758 -3.2336
  459THF    H13 8967   3.923   5.136   3.945 -1.6999  1.5424  0.4789
  460THF     O1 8968   2.792   3.808   3.592 -0.2679  0.0905 -0.4847
  460THF     C2 8969   2.696   3.846   3.493  0.6125  0.4159 -0.4314
  460THF     C3 8970   2.899   3.896   3.573 -0.3078 -0.1472 -0.5065
  460THF     H4 8971   2.652   3.940   3.526 -2.3382 -1.6720  2.2772
  460THF     H5 8972   2.625   3.764   3.479  0.9081 -0.1456  1.0949
  460THF     H6 8973   2.871   3.989   3.624  0.9881 -1.1676  2.2460
  460THF     H7 8974   2.989   3.847   3.610 -0.7437  0.2091  1.0671
  460THF     C8 8975   2.896   3.929   3.422 -0.0437 -0.3824  0.0336
  460THF     C9 8976   2.776   3.870   3.366  0.2350 -0.0695 -0.1216
  460THF    H10 8977   2.990   3.905   3.372 -0.1619 -0.0085 -0.3732
  460THF    H11 8978   2.891   4.038   3.412 -1.7792 -0.4164  0.1438
  460THF    H12 8979   2.713   3.929   3.299  0.7044  0.4766 -0.0937
  460THF    H13 8980   2.799   3.774   3.319 -0.7617  0.4796 -1.8316
  461THF     O1 8981   5.031   1.776   2.929  0.2320 -0.2755 -0.2115
  461THF     C2 8982   4.956   1.773   3.047 -0.0364 -0.4726  0.1113
  461THF     C3 8983   5.070   1.909   2.912  0.3700 -0.3935  0.1642
  461THF     H4 8984   5.033   1.778   3.125  0.0963 -0.7956  0.0021
  461THF     H5 8985   4.907   1.676   3.058 -1.5281  0.3309  0.8184
  461THF     H6 8986   5.154   1.945   2.972 -0.2049 -0.0143  0.7489
  461THF     H7 8987   5.096   1.932   2.809 -3.6433  2.2379 -0.4646
  461THF     C8 8988   4.941   1.986   2.949 -0.4946 -0.3484  0.0594
  461THF     C9 8989   4.859   1.893   3.039 -0.8850 -0.4528 -0.0370
  461THF    H10 8990   4.876   2.000   2.862  1.3115  1.6396 -1.0945
  461THF    H11 8991   4.968   2.085   2.987 -0.8674  0.0577 -0.6938
  461THF    H12 8992   4.837   1.942   3.133 -0.1143  1.5109 -0.8173
  461THF    H13 8993   4.773   1.854   2.984 -0.7166 -0.7254 -0.1103
  462THF     O1 8994   0.795   1.125   3.965 -0.0773  0.0245  0.0399
  462THF     C2 8995   0.672   1.179   3.920 -0.2895  0.1065 -0.3274
  462THF     C3 8996   0.832   1.013   3.899 -0.3743 -0.0813  0.0071
  462THF     H4 8997   0.702   1.265   3.860 -1.4963 -0.0730 -1.2405
  462THF     H5 8998   0.615   1.228   3.999  1.4489  3.8462 -1.1962
  462THF     H6 8999   0.933   1.020   3.861 -0.8978  0.2301 -1.3671
  462THF     H7 9000   0.846   0.926   3.963  1.4196 -0.7414 -1.2291
  462THF     C8 9001   0.727   1.004   3.782 -0.2643 -0.1216 -0.3402
  462THF     C9 9002   0.605   1.067   3.834  0.1307  0.2581  0.3767
  462THF    H10 9003   0.703   0.906   3.741 -1.4048 -0.1930  0.4658
  462THF    H11 9004   0.769   1.059   3.698  0.8518 -0.6201 -0.1283
  462THF    H12 9005   0.535   1.118   3.768 -0.6068  1.6752  2.1692
  462THF    H13 9006   0.551   0.995   3.896 -0.0672 -0.0751 -0.1748
  463THF     O1 9007   0.890   4.800   4.840  0.4588  0.2465 -0.0423
  463THF     C2 9008   0.858   4.739   4.712  0.0274  0.2283  0.0676
  463THF     C3 9009   0.863   4.698   4.934  0.1126 -0.1238  0.0292
  463THF     H4 9010   0.879   4.808   4.631  1.1978 -0.9736 -0.6993
  463THF     H5 9011   0.752   4.715   4.708 -0.1785  1.2477 -2.4259
  463THF     H6 9012   0.889   4.726   5.037  0.9121  1.1083 -0.4818
  463THF     H7 9013   0.758   4.673   4.919 -1.2202  3.0632  2.6076
  463THF     C8 9014   0.938   4.583   4.870 -0.3356  1.3561 -0.2075
  463THF     C9 9015   0.947   4.611   4.720  0.0807 -0.7007  0.1771
  463THF    H10 9016   0.900   4.481   4.881 -1.2267  1.6373 -0.6090
  463THF    H11 9017   1.041   4.589   4.906 -0.4255 -0.9624  0.6096
  463THF    H12 9018   1.047   4.628   4.678  0.3957  3.5927  2.1393
  463THF    H13 9019   0.905   4.532   4.658 -0.9418 -0.0618  0.0399
  464THF     O1 9020   0.201   4.459   1.083  0.0995 -0.2723  0.6112
  464THF     C2 9021   0.072   4.498   1.115 -0.6442  0.3438  0.2818
  464THF     C3 9022   0.181   4.337   1.016  0.9058 -0.1369 -0.4564
  464THF     H4 9023   0.012   4.533   1.030 -0.4222  2.6790  1.0134
  464THF     H5 9024   0.074   4.578   1.189  0.0614  0.2914  0.3208
  464THF     H6 9025   0.151   4.349   0.912 -0.2160  0.0813 -0.1202
  464THF     H7 9026   0.275   4.283   1.010  1.1531  0.2726 -0.2858
  464THF     C8 9027   0.087   4.260   1.113  0.0205  0.0638  0.8251
  464THF     C9 9028   0.013   4.371   1.182 -0.1650  0.0836  0.0010
  464THF    H10 9029   0.140   4.192   1.180  0.8579 -1.8642 -1.6505
  464THF    H11 9030   0.014   4.194   1.065 -0.4831 -1.3785  3.3895
  464THF    H12 9031  -0.095   4.364   1.172 -0.2962  2.1024 -0.3513
  464THF    H13 9032   0.031   4.347   1.286 -0.2752 -1.1906 -0.2592
  465THF     O1 9033   3.222   4.249   0.741  0.2965  0.4273  0.2995
  465THF     C2 9034   3.182   4.252   0.879 -0.0804  0.1226 -0.2013
  465THF     C3 9035   3.355   4.213   0.729  0.5665 -0.2574  0.6261
  465THF     H4 9036   3.150   4.155   0.917 -3.6470  2.0401  2.2781
  465THF     H5 9037   3.095   4.316   0.891  0.1241  0.3958 -0.1619
  465THF     H6 9038   3.381   4.108   0.739 -1.6252 -0.9816 -0.7094
  465THF     H7 9039   3.398   4.237   0.632 -0.1158 -0.3135  0.3031
  465THF     C8 9040   3.421   4.297   0.844 -0.7182  0.0437  0.1391
  465THF     C9 9041   3.308   4.300   0.953  0.2671 -0.1987 -0.1438
  465THF    H10 9042   3.437   4.397   0.806  1.5700 -0.2496  0.1675
  465THF    H11 9043   3.505   4.246   0.891 -0.7895 -0.9786 -0.7973
  465THF    H12 9044   3.321   4.231   1.036  1.6034  0.3997  0.1667
  465THF    H13 9045   3.292   4.399   0.996 -0.3812  0.1751 -1.1881
  466THF     O1 9046   5.264   2.477   1.314  0.2913  0.5393 -0.0842
  466THF     C2 9047   5.137   2.537   1.311  0.9062  0.3452 -0.4497
  466THF     C3 9048   5.252   2.341   1.338  0.1133 -0.0569  0.5361
  466THF     H4 9049   5.094   2.519   1.213 -2.0025 -0.8113  0.9034
  466THF     H5 9050   5.140   2.645   1.317 -0.8550  0.4211 -0.3964
  466THF     H6 9051   5.202   2.293   1.254 -0.8512  4.1180 -1.5691
  466THF     H7 9052   5.344   2.285   1.355  1.0218  1.2407  0.0376
  466THF     C8 9053   5.162   2.348   1.462  0.0002  0.1713 -0.0699
  466THF     C9 9054   5.075   2.461   1.428  0.0776 -0.1957 -0.0145
  466THF    H10 9055   5.230   2.375   1.543 -0.1146 -1.5462  0.6483
  466THF    H11 9056   5.107   2.256   1.483  1.1957 -0.1225  2.0650
  466THF    H12 9057   4.974   2.434   1.397  0.4766  1.2596 -2.8828
  466THF    H13 9058   5.059   2.520   1.518 -1.4439  1.6946 -1.4367
  467THF     O1 9059   0.573   3.265   1.784 -0.2493  0.1898 -0.4680
  467THF     C2 9060   0.529   3.140   1.733 -0.1775 -0.5614 -0.0220
  467THF     C3 9061   0.709   3.259   1.834 -0.0602  0.3856  0.6402
  467THF     H4 9062   0.539   3.147   1.625 -2.5456  0.5943 -0.2167
  467THF     H5 9063   0.429   3.120   1.770 -0.8338  3.6345  0.9784
  467THF     H6 9064   0.771   3.319   1.767 -2.3733 -0.1960 -2.2340
  467THF     H7 9065   0.708   3.300   1.935 -1.7721 -2.2052  1.7798
  467THF     C8 9066   0.746   3.114   1.822 -0.8657 -0.7931  0.3695
  467THF     C9 9067   0.624   3.030   1.783 -0.4484 -0.4758 -0.1353
  467THF    H10 9068   0.771   3.079   1.923 -0.1597  0.5861  0.6862
  467THF    H11 9069   0.840   3.105   1.768 -0.2698  2.5511  0.6753
  467THF    H12 9070   0.651   2.958   1.707 -0.6247  1.3457 -2.0200
  467THF    H13 9071   0.574   2.980   1.865 -1.0574 -2.0100 -1.4015
  468THF     O1 9072   3.805   5.208   2.972 -0.1578 -0.1768  0.0231
  468THF     C2 9073   3.722   5.157   2.866 -0.1242  0.0860  0.5303
  468THF     C3 9074   3.870   5.332   2.942 -0.2805 -0.7300 -0.0434
  468THF     H4 9075   3.643   5.089   2.899 -1.4724  1.1864 -0.3084
  468THF     H5 9076   3.782   5.095   2.799 -1.1170  0.0337 -0.3288
  468THF     H6 9077   3.891   5.398   3.026 -0.4927  0.5438 -0.9545
  468THF     H7 9078   3.965   5.306   2.895 -0.3120 -0.3505 -0.3164
  468THF     C8 9079   3.773   5.396   2.845  0.9537 -0.1489 -0.1059
  468THF     C9 9080   3.668   5.293   2.810 -0.8581  0.5243  0.2018
  468THF    H10 9081   3.813   5.428   2.749 -0.6596  0.2773 -0.6631
  468THF    H11 9082   3.729   5.489   2.880 -1.1999 -1.4479  0.8641
  468THF    H12 9083   3.579   5.324   2.864 -0.8973  0.2281  0.3146
  468THF    H13 9084   3.646   5.289   2.704 -0.9629  1.4801  0.1847
  469THF     O1 9085   3.532   4.712   5.456 -0.3007 -0.1238  0.4910
  469THF     C2 9086   3.420   4.656   5.517  0.5799  0.0372  1.3324
  469THF     C3 9087   3.556   4.637   5.340 -0.3678  0.5805 -1.0164
  469THF     H4 9088   3.379   4.724   5.592  1.5044  0.0354  1.8537
  469THF     H5 9089   3.440   4.559   5.562  0.1677 -1.0924 -0.8138
  469THF     H6 9090   3.628   4.689   5.277  1.2649  1.4401  1.4123
  469THF     H7 9091   3.596   4.536   5.348  1.3057  1.3073  0.4780
  469THF     C8 9092   3.411   4.647   5.281  0.0118 -0.1878  0.6361
  469THF     C9 9093   3.322   4.650   5.402 -0.2155 -0.1482 -0.1068
  469THF    H10 9094   3.395   4.563   5.214 -0.3739  0.8926 -0.6652
  469THF    H11 9095   3.408   4.744   5.232  2.4931 -0.2658  0.1638
  469THF    H12 9096   3.258   4.738   5.398  1.2907  0.9927  0.2580
  469THF    H13 9097   3.256   4.563   5.400 -2.0931  1.2051 -0.9407
  470THF     O1 9098   0.243   0.265   2.862 -0.3068  0.1341 -0.1674
  470THF     C2 9099   0.239   0.298   3.001 -0.0093 -0.0696  0.2827
  470THF     C3 9100   0.147   0.166   2.829 -0.0762 -0.8608  0.4504
  470THF     H4 9101   0.161   0.373   3.005 -3.0694 -2.9205 -0.9400
  470THF     H5 9102   0.331   0.341   3.041 -1.1103  0.5980  2.2089
  470THF     H6 9103   0.073   0.214   2.764 -1.3705  0.2587  2.6437
  470THF     H7 9104   0.209   0.092   2.780  0.9180  0.3644 -0.2059
  470THF     C8 9105   0.094   0.110   2.959 -0.1794 -0.2172  0.1523
  470THF     C9 9106   0.193   0.171   3.065  0.0919 -0.0597 -0.0793
  470THF    H10 9107   0.112   0.003   2.959  1.0244 -0.1006 -2.6041
  470THF    H11 9108  -0.007   0.145   2.979 -1.0871 -1.1366 -2.3592
  470THF    H12 9109   0.143   0.204   3.156 -2.3947  1.7043 -1.9444
  470THF    H13 9110   0.281   0.109   3.081  0.7737  0.9732  0.2516
  471THF     O1 9111   0.445   3.854   5.213  0.7960  0.1166 -0.0528
  471THF     C2 9112   0.397   3.825   5.081 -0.6974  0.2136 -0.3586
  471THF     C3 9113   0.572   3.917   5.205  0.1424  0.6357 -0.2089
  471THF     H4 9114   0.288   3.818   5.081 -0.6947  0.1532 -1.2016
  471THF     H5 9115   0.441   3.736   5.036 -0.3360 -0.6111  1.4951
  471THF     H6 9116   0.595   3.961   5.303  0.4660 -0.9600  0.4624
  471THF     H7 9117   0.658   3.862   5.168 -0.9133  0.1234 -2.0195
  471THF     C8 9118   0.546   4.020   5.103  0.4654 -0.2994  0.5825
  471THF     C9 9119   0.442   3.953   5.011  0.0667 -0.2010  0.5519
  471THF    H10 9120   0.637   4.046   5.049 -0.7512 -2.4338 -2.8263
  471THF    H11 9121   0.502   4.104   5.157  0.0395  0.3407 -0.7044
  471THF    H12 9122   0.365   4.029   5.004 -0.0797 -0.1863  1.9685
  471THF    H13 9123   0.482   3.926   4.913 -2.2351 -1.0754 -0.2051
  472THF     O1 9124   4.737   2.429   2.628  0.7922 -0.0659 -0.1991
  472THF     C2 9125   4.598   2.416   2.625 -0.8120  0.4316 -0.5744
  472THF     C3 9126   4.767   2.565   2.658  0.1445 -0.1696  0.3893
  472THF     H4 9127   4.557   2.408   2.725 -0.0726  2.0179 -0.1271
  472THF     H5 9128   4.569   2.319   2.583  0.2045  0.2759 -0.9304
  472THF     H6 9129   4.747   2.579   2.764 -0.6332 -3.1302  0.7251
  472THF     H7 9130   4.869   2.589   2.630  0.4821 -0.3464  1.4172
  472THF     C8 9131   4.664   2.635   2.565 -0.5372  0.1039  0.2161
  472THF     C9 9132   4.549   2.535   2.552 -0.0106 -0.8451  0.0841
  472THF    H10 9133   4.709   2.646   2.466  2.2719 -0.8383  1.2985
  472THF    H11 9134   4.629   2.734   2.595  0.2833  0.9273 -1.4197
  472THF    H12 9135   4.448   2.565   2.577 -0.5738 -2.6148  0.0848
  472THF    H13 9136   4.547   2.506   2.447 -2.6074  0.1383 -0.2172
  473THF     O1 9137   1.612   0.638   3.029  0.2314  0.4254 -0.0806
  473THF     C2 9138   1.620   0.498   3.042 -0.3264 -0.0046  0.1169
  473THF     C3 9139   1.541   0.692   3.153  0.6516 -0.2874  0.2997
  473THF     H4 9140   1.704   0.470   3.106  1.1539  1.9296 -0.8608
  473THF     H5 9141   1.615   0.441   2.950  0.5353 -0.6046  0.4307
  473THF     H6 9142   1.600   0.744   3.228  0.9996 -0.4634  0.1523
  473THF     H7 9143   1.474   0.763   3.105  0.9417 -0.0003  0.3105
  473THF     C8 9144   1.466   0.572   3.219 -0.1997 -0.2640  1.0136
  473THF     C9 9145   1.495   0.459   3.118 -0.1549  0.1253 -0.8405
  473THF    H10 9146   1.358   0.589   3.219 -0.1453  0.1817 -0.0438
  473THF    H11 9147   1.501   0.559   3.321 -2.1962 -4.1658  1.3943
  473THF    H12 9148   1.501   0.362   3.167  0.3837  1.6964  2.5311
  473THF    H13 9149   1.407   0.467   3.054 -0.5189  0.2593 -0.3289
  474THF     O1 9150   2.454   0.227   0.016  0.3714  0.4686 -0.0520
  474THF     C2 9151   2.331   0.190  -0.045  0.6811 -0.5764 -0.4397
  474THF     C3 9152   2.477   0.118   0.107 -0.2217 -0.1166 -0.4576
  474THF     H4 9153   2.339   0.102  -0.108 -3.8024  0.4168 -2.8263
  474THF     H5 9154   2.295   0.265  -0.115 -1.6580 -1.8059 -0.6456
  474THF     H6 9155   2.509   0.030   0.053  1.1522 -0.3825  0.7309
  474THF     H7 9156   2.545   0.141   0.189 -0.6520 -0.3350 -0.0289
  474THF     C8 9157   2.338   0.099   0.165 -0.5926  0.1745 -0.6671
  474THF     C9 9158   2.238   0.174   0.077  0.6780 -0.0833  0.7910
  474THF    H10 9159   2.335   0.156   0.258 -1.5538  0.5744 -0.9250
  474THF    H11 9160   2.318  -0.005   0.190 -1.1727  0.6839  1.1387
  474THF    H12 9161   2.143   0.120   0.070  0.7003  0.1266 -2.5290
  474THF    H13 9162   2.218   0.271   0.123 -1.0914 -0.1982  0.3741
  475THF     O1 9163   3.643   2.986   4.322  0.1112  0.1337 -0.5160
  475THF     C2 9164   3.754   2.901   4.346  0.1457 -0.0399 -0.0363
  475THF     C3 9165   3.549   2.930   4.233 -0.4593 -0.5994  0.5222
  475THF     H4 9166   3.769   2.903   4.453  0.8670  1.8184 -0.1451
  475THF     H5 9167   3.855   2.924   4.312  0.5541  0.1611  1.2962
  475THF     H6 9168   3.454   2.977   4.259  1.0585  2.5971  0.7162
  475THF     H7 9169   3.566   2.963   4.131  0.6835 -3.2258 -0.2242
  475THF     C8 9170   3.561   2.782   4.276  0.4010  0.0737  0.3029
  475THF     C9 9171   3.709   2.757   4.302 -0.6251 -0.1347  0.2134
  475THF    H10 9172   3.521   2.707   4.207 -0.2967  0.4711  0.2579
  475THF    H11 9173   3.502   2.762   4.366 -0.6767 -1.0231 -0.6089
  475THF    H12 9174   3.719   2.677   4.375 -1.3638 -0.9327 -0.5358
  475THF    H13 9175   3.762   2.732   4.210  0.6364 -0.2532  0.9477
  476THF     O1 9176   3.560   3.172   2.446 -0.3387 -0.2980 -0.5899
  476THF     C2 9177   3.686   3.195   2.386 -0.2559 -0.4399  0.0065
  476THF     C3 9178   3.503   3.289   2.510 -0.2339  0.1641  0.5525
  476THF     H4 9179   3.671   3.247   2.291 -0.5289 -0.8163 -0.1552
  476THF     H5 9180   3.742   3.102   2.377 -0.8239 -0.7272 -0.6142
  476THF     H6 9181   3.450   3.337   2.428  1.8133  1.1226 -0.2774
  476THF     H7 9182   3.434   3.282   2.594 -0.6809  0.8274  0.2536
  476THF     C8 9183   3.632   3.376   2.542  0.6393  0.1842  0.0854
  476THF     C9 9184   3.745   3.290   2.490  0.4746  0.2068  1.1243
  476THF    H10 9185   3.637   3.397   2.649 -0.2327  1.6477 -0.1288
  476THF    H11 9186   3.630   3.466   2.480 -0.8509  0.1752  0.0667
  476THF    H12 9187   3.829   3.341   2.444  0.1576  1.1461  1.5576
  476THF    H13 9188   3.784   3.225   2.568  0.6357  0.6906  1.4505
  477THF     O1 9189   2.035   1.639   0.031 -0.0136 -0.7717 -0.0608
  477THF     C2 9190   2.066   1.768   0.082  0.0323  0.0987 -0.0536
  477THF     C3 9191   1.932   1.578   0.104  0.4945  0.0018 -0.2930
  477THF     H4 9192   2.059   1.847   0.007 -1.4177  1.5927  1.5580
  477THF     H5 9193   2.167   1.769   0.124 -0.3014  1.0804  0.7926
  477THF     H6 9194   1.850   1.577   0.033 -0.2359 -1.6754  0.5104
  477THF     H7 9195   1.949   1.474   0.133 -0.5532  0.0011  0.3710
  477THF     C8 9196   1.903   1.664   0.228  0.0170 -0.6327  0.2015
  477THF     C9 9197   1.959   1.799   0.189 -0.2341 -0.3624 -0.7043
  477THF    H10 9198   1.955   1.613   0.310 -1.4974  0.1114  1.6951
  477THF    H11 9199   1.801   1.678   0.263 -0.2278 -0.1388 -0.6983
  477THF    H12 9200   1.885   1.864   0.142 -0.7690 -1.2315 -1.0928
  477THF    H13 9201   2.000   1.851   0.275 -0.9208 -1.0234  0.0362
  478THF     O1 9202   0.032   1.659   2.058 -0.2491  0.1511 -0.0328
  478THF     C2 9203   0.065   1.552   2.144 -0.2378 -0.0450  0.1423
  478THF     C3 9204   0.124   1.769   2.073  0.3245  0.1377 -0.3159
  478THF     H4 9205   0.077   1.459   2.088  1.5113  1.4615 -2.1635
  478THF     H5 9206  -0.016   1.545   2.216 -0.2224  1.3282  0.3085
  478THF     H6 9207   0.120   1.824   1.979  1.2578 -1.1145 -1.1343
  478THF     H7 9208   0.084   1.835   2.149 -0.9148 -2.2906  1.2860
  478THF     C8 9209   0.252   1.697   2.122  0.0371  0.2632 -0.4947
  478THF     C9 9210   0.193   1.600   2.216  0.0923  0.0873 -0.2902
  478THF    H10 9211   0.318   1.759   2.182  1.1340 -2.1154  0.9026
  478THF    H11 9212   0.305   1.657   2.036 -1.8205  0.9739 -2.0614
  478THF    H12 9213   0.261   1.516   2.229  2.7989  1.9429 -1.5208
  478THF    H13 9214   0.169   1.638   2.315 -0.5985  0.1871 -0.4859
  479THF     O1 9215   2.840   4.763   1.926 -0.4000 -0.9460  0.2253
  479THF     C2 9216   2.795   4.636   1.969  0.0388 -0.2148 -0.1587
  479THF     C3 9217   2.806   4.854   2.027 -0.5269 -0.3965 -0.3632
  479THF     H4 9218   2.871   4.605   2.042  0.1287 -1.6738 -0.8340
  479THF     H5 9219   2.790   4.560   1.891 -2.0874 -1.0071  0.6717
  479THF     H6 9220   2.893   4.858   2.094  0.2194 -0.1214 -1.3237
  479THF     H7 9221   2.801   4.958   1.995 -2.1622  0.2902  1.8338
  479THF     C8 9222   2.666   4.817   2.068  0.3701 -0.1431  0.1224
  479THF     C9 9223   2.663   4.659   2.045 -0.3471 -0.2274  0.2936
  479THF    H10 9224   2.596   4.880   2.014  0.2352 -0.0610  0.3910
  479THF    H11 9225   2.649   4.831   2.175  1.5179  0.3036  0.2558
  479THF    H12 9226   2.660   4.612   2.143 -1.8514  0.0284  0.4031
  479THF    H13 9227   2.578   4.634   1.981 -0.1971  1.8498 -0.7810
  480THF     O1 9228   3.802   0.206   3.709  0.3212 -0.5732 -0.3231
  480THF     C2 9229   3.698   0.282   3.647  0.2984  0.7156  0.0862
  480THF     C3 9230   3.795   0.070   3.660 -0.6469  0.4742  0.0886
  480THF     H4 9231   3.712   0.390   3.642  0.2947  0.6995 -0.2468
  480THF     H5 9232   3.610   0.253   3.705  0.2868  1.0867  0.2565
  480THF     H6 9233   3.896   0.031   3.643 -0.9269 -0.2583  0.0638
  480THF     H7 9234   3.744   0.008   3.733 -0.8703  1.9143  1.1938
  480THF     C8 9235   3.710   0.063   3.530  0.1370 -0.5343 -0.1044
  480THF     C9 9236   3.684   0.215   3.511 -0.0522 -0.1704 -0.2432
  480THF    H10 9237   3.617   0.014   3.559 -0.1678  0.8721  1.4820
  480THF    H11 9238   3.753   0.007   3.448 -2.2241 -2.4691 -0.1373
  480THF    H12 9239   3.756   0.247   3.436  0.3957 -1.6206 -0.4534
  480THF    H13 9240   3.585   0.238   3.470 -1.1914 -2.1074  1.2222
  481THF     O1 9241   1.826   2.850   4.131  0.0465 -0.0758 -0.9104
  481THF     C2 9242   1.860   2.907   4.254 -0.2172  0.2306  0.4755
  481THF     C3 9243   1.934   2.759   4.091 -0.2462 -0.5335  0.2528
  481THF     H4 9244   1.831   2.833   4.329 -1.8523 -1.8965 -2.0986
  481THF     H5 9245   1.794   2.994   4.249  1.4987  1.5980  0.8235
  481THF     H6 9246   1.942   2.662   4.142 -0.4662 -1.3244 -1.1694
  481THF     H7 9247   1.935   2.746   3.983 -1.6198 -1.1236  0.2954
  481THF     C8 9248   2.059   2.839   4.124  1.3845 -0.6140 -0.4923
  481THF     C9 9249   2.014   2.922   4.247 -0.1072  0.5594  0.2998
  481THF    H10 9250   2.102   2.905   4.049  0.5673  0.5605  0.0444
  481THF    H11 9251   2.134   2.762   4.145  1.3444  0.0722  2.7939
  481THF    H12 9252   2.070   2.894   4.336 -1.7316 -2.4939  0.4979
  481THF    H13 9253   2.035   3.027   4.229  1.1519  0.1888 -0.6018
  482THF     O1 9254   5.114   3.009   2.733 -0.2006 -0.3393  0.9531
  482THF     C2 9255   5.040   2.907   2.798 -0.0064 -0.0835 -0.1515
  482THF     C3 9256   5.178   3.096   2.821 -0.5337  0.4826  0.4369
  482THF     H4 9257   5.028   2.819   2.734 -0.0794 -1.0128  1.0880
  482THF     H5 9258   4.944   2.944   2.835  0.5021  0.1743  0.9416
  482THF     H6 9259   5.269   3.139   2.778  0.6859  0.1238  2.5296
  482THF     H7 9260   5.114   3.178   2.853 -0.4328 -0.2720  2.7451
  482THF     C8 9261   5.206   3.017   2.944 -0.2367  0.0034  0.2236
  482THF     C9 9262   5.133   2.884   2.921  0.3617 -0.9925 -0.5101
  482THF    H10 9263   5.182   3.072   3.035  2.0405  1.3762  0.0770
  482THF    H11 9264   5.314   3.003   2.946 -0.1366  0.3969 -1.2530
  482THF    H12 9265   5.203   2.807   2.891  1.0209 -0.4315 -0.4228
  482THF    H13 9266   5.068   2.862   3.006  0.9823  3.6966  1.4810
  483THF     O1 9267   2.424   2.299   0.035  0.4106  1.3854  0.2932
  483THF     C2 9268   2.567   2.302   0.052 -0.6853  0.1289  0.0705
  483THF     C3 9269   2.384   2.174   0.080 -0.1380  0.3398  0.2575
  483THF     H4 9270   2.599   2.334   0.151 -2.0719  1.0781  0.2370
  483THF     H5 9271   2.612   2.372  -0.018  0.4472 -1.2705 -0.6673
  483THF     H6 9272   2.387   2.189   0.188 -1.1720 -0.0133  0.3488
  483THF     H7 9273   2.282   2.141   0.057  0.5572 -2.1691  0.4946
  483THF     C8 9274   2.484   2.078   0.017  0.1442  0.0555  0.3469
  483THF     C9 9275   2.617   2.161   0.027 -0.1528  0.7129  0.2391
  483THF    H10 9276   2.444   2.069  -0.084 -1.1734  2.2102  0.6200
  483THF    H11 9277   2.497   1.981   0.065  1.3392  0.7921  1.5712
  483THF    H12 9278   2.675   2.132   0.115  0.7948  1.3086 -0.1747
  483THF    H13 9279   2.688   2.156  -0.055 -1.6634 -0.4302 -1.0496
  484THF     O1 9280   5.348   3.948   4.079 -0.2082 -0.8678  0.3560
  484THF     C2 9281   5.242   3.861   4.110 -0.6423 -0.1156  0.4608
  484THF     C3 9282   5.343   4.051   4.183  0.1899 -0.1378 -0.2697
  484THF     H4 9283   5.281   3.785   4.178  1.3231  0.7414  0.3589
  484THF     H5 9284   5.212   3.812   4.018  0.6057  0.5997 -0.3628
  484THF     H6 9285   5.386   3.999   4.269 -0.6723 -2.4690 -1.1826
  484THF     H7 9286   5.401   4.141   4.161 -0.1018  0.1493  0.1130
  484THF     C8 9287   5.190   4.079   4.200 -0.3594 -0.0019  0.3582
  484THF     C9 9288   5.127   3.938   4.169  0.7432  0.4069  0.0417
  484THF    H10 9289   5.172   4.160   4.129  0.3979 -0.6791 -0.6507
  484THF    H11 9290   5.165   4.117   4.298  1.8567 -0.1127  1.0300
  484THF    H12 9291   5.086   3.887   4.256  0.1870 -0.7079 -0.8525
  484THF    H13 9292   5.047   3.945   4.096  1.6701 -2.3898 -1.3686
  485THF     O1 9293   4.060   3.449   0.012 -0.4705  0.2170  0.8535
  485THF     C2 9294   4.047   3.314  -0.047 -0.1657  0.3266 -0.4940
  485THF     C3 9295   3.933   3.482   0.066 -0.6134  0.2749 -0.0998
  485THF     H4 9296   4.142   3.261  -0.038 -0.1940  0.1086 -1.4457
  485THF     H5 9297   4.025   3.298  -0.152  2.6698  0.7239 -1.2292
  485THF     H6 9298   3.950   3.502   0.172  0.8726  5.3767 -1.0053
  485THF     H7 9299   3.890   3.574   0.025  0.8452  1.0427  0.0173
  485THF     C8 9300   3.843   3.344   0.054 -0.9479  0.2657 -0.2334
  485THF     C9 9301   3.950   3.244   0.046 -0.0499  0.5634 -0.0545
  485THF    H10 9302   3.786   3.364  -0.037  0.1410  1.7452 -0.6322
  485THF    H11 9303   3.782   3.317   0.140 -1.3321  0.7196 -0.3538
  485THF    H12 9304   4.007   3.231   0.138  1.3654 -2.5348 -1.2266
  485THF    H13 9305   3.927   3.142   0.015  3.0036 -0.0263 -0.6702
  486THF     O1 9306   4.622   3.072   0.609 -0.0816  0.2707 -0.7106
  486THF     C2 9307   4.588   3.061   0.744  0.2124  0.2310 -0.5202
  486THF     C3 9308   4.584   2.954   0.544 -0.8308  0.3046 -0.1588
  486THF     H4 9309   4.485   3.085   0.773  0.2938  0.3595 -0.3386
  486THF     H5 9310   4.660   3.118   0.802  0.7212  0.2912 -1.1952
  486THF     H6 9311   4.475   2.950   0.541 -0.7803 -1.0800 -1.5708
  486THF     H7 9312   4.626   2.939   0.444 -0.0999  0.8343  0.0622
  486THF     C8 9313   4.649   2.859   0.638 -0.0413  0.4342  0.0454
  486THF     C9 9314   4.606   2.908   0.769  0.4151  0.1833  0.0738
  486THF    H10 9315   4.755   2.862   0.611 -0.0997  0.8679 -0.1466
  486THF    H11 9316   4.606   2.765   0.604 -2.1841  0.9545  1.1443
  486THF    H12 9317   4.507   2.873   0.798 -0.7911  3.6580  0.6399
  486THF    H13 9318   4.670   2.878   0.852 -0.9880 -0.7784  0.8461
  487THF     O1 9319   5.463   5.354   3.413 -0.1590 -0.0807  0.3489
  487THF     C2 9320   5.329   5.381   3.453  0.2184 -0.1517  0.0317
  487THF     C3 9321   5.468   5.382   3.272 -0.4792 -0.1512 -0.2193
  487THF     H4 9322   5.324   5.406   3.559  2.0692 -1.7272  0.5482
  487THF     H5 9323   5.273   5.295   3.420  1.2223 -0.1295 -1.8702
  487THF     H6 9324   5.564   5.433   3.255 -1.5359  3.1423  2.5055
  487THF     H7 9325   5.479   5.290   3.215  1.5612 -0.9595  1.3330
  487THF     C8 9326   5.343   5.466   3.236 -0.2562 -0.5214 -0.3283
  487THF     C9 9327   5.298   5.508   3.372 -0.3032  0.3263 -0.1039
  487THF    H10 9328   5.265   5.410   3.184 -0.4069 -0.3624 -0.2769
  487THF    H11 9329   5.365   5.559   3.183 -2.0265  0.9153  1.3196
  487THF    H12 9330   5.345   5.600   3.407 -1.3304  0.8094  0.0456
  487THF    H13 9331   5.191   5.522   3.358 -0.1070  1.0834 -0.9169
  488THF     O1 9332   3.199   0.214   1.613  0.0029 -0.4989 -0.5245
  488THF     C2 9333   3.271   0.232   1.485  0.1991  0.4447 -0.5352
  488THF     C3 9334   3.298   0.205   1.717  0.2936 -0.3629 -0.4016
  488THF     H4 9335   3.295   0.338   1.476 -0.5472  0.5449 -1.4989
  488THF     H5 9336   3.215   0.216   1.393  2.4202 -1.6414 -1.6057
  488THF     H6 9337   3.346   0.298   1.747  1.0020 -1.1260  0.8858
  488THF     H7 9338   3.257   0.156   1.805 -0.5276 -0.7698 -0.9965
  488THF     C8 9339   3.394   0.107   1.659 -0.0994  0.1528  0.6414
  488THF     C9 9340   3.395   0.142   1.509 -0.2632 -0.4995 -0.1280
  488THF    H10 9341   3.349   0.009   1.675 -1.8928  0.8416  0.0260
  488THF    H11 9342   3.494   0.113   1.703  0.9922  2.3756 -1.8759
  488THF    H12 9343   3.485   0.199   1.486  0.7262 -2.0987 -0.4149
  488THF    H13 9344   3.401   0.055   1.443 -0.6323  0.1168 -0.9959
  489THF     O1 9345   0.780   2.016   5.267 -0.2841  0.3413 -0.3020
  489THF     C2 9346   0.704   1.973   5.382 -0.8163  0.6590 -1.0338
  489THF     C3 9347   0.700   2.006   5.153  0.1088  0.6434  0.2297
  489THF     H4 9348   0.713   2.048   5.462  0.6501 -1.6006  1.0689
  489THF     H5 9349   0.752   1.881   5.415 -3.7990 -0.4497  0.6389
  489THF     H6 9350   0.664   2.108   5.143  0.6746  0.7558 -0.8166
  489THF     H7 9351   0.758   1.977   5.066 -0.2163  1.1799 -0.1714
  489THF     C8 9352   0.573   1.924   5.188  0.1772  0.3371 -0.5453
  489THF     C9 9353   0.565   1.942   5.338  0.0869 -0.1275  0.7032
  489THF    H10 9354   0.582   1.818   5.164  0.2782  0.0570  0.6559
  489THF    H11 9355   0.481   1.961   5.145 -1.0052 -0.5099  1.1645
  489THF    H12 9356   0.494   2.019   5.368  1.0229  1.4127 -0.7943
  489THF    H13 9357   0.523   1.850   5.378  1.3965 -0.4952  1.2947
  490THF     O1 9358   4.032   4.625   3.836  0.5212  0.2448 -0.1862
  490THF     C2 9359   4.035   4.738   3.914 -0.0085 -0.6906  0.4990
  490THF     C3 9360   4.065   4.656   3.700  0.0521 -0.6024 -0.3220
  490THF     H4 9361   4.138   4.740   3.950  1.3584 -0.5939 -3.0580
  490THF     H5 9362   3.958   4.739   3.991  0.0229  2.2056  0.5899
  490THF     H6 9363   4.168   4.629   3.678 -0.2664 -0.7532 -1.6937
  490THF     H7 9364   3.989   4.614   3.634 -2.1444 -2.4326  3.0377
  490THF     C8 9365   4.058   4.809   3.688 -0.0535 -0.2386 -0.2907
  490THF     C9 9366   3.992   4.854   3.821 -0.2916 -0.4607  0.0038
  490THF    H10 9367   4.010   4.850   3.599  0.3861  1.4104  0.1977
  490THF    H11 9368   4.158   4.852   3.685 -0.2630  0.3482  0.9585
  490THF    H12 9369   4.018   4.952   3.860  2.8770 -1.8190  1.6135
  490THF    H13 9370   3.884   4.855   3.802 -0.0967 -2.6014 -1.5873
  491THF     O1 9371   0.409   1.666   3.900 -0.5238 -0.4123 -0.2987
  491THF     C2 9372   0.303   1.641   3.802 -0.8884  0.8455 -0.4120
  491THF     C3 9373   0.432   1.548   3.972 -0.6575 -0.2587  0.5183
  491THF     H4 9374   0.302   1.707   3.716  0.3565  1.3921 -0.0234
  491THF     H5 9375   0.219   1.665   3.868 -0.5619 -0.1349  0.3883
  491THF     H6 9376   0.534   1.556   4.010  0.4426 -0.2397 -2.1814
  491THF     H7 9377   0.360   1.539   4.053 -0.7039  0.7756  0.6073
  491THF     C8 9378   0.417   1.435   3.864 -0.0134  0.3156  0.2308
  491THF     C9 9379   0.322   1.498   3.767  0.0571 -0.4043 -0.0974
  491THF    H10 9380   0.384   1.342   3.910  0.5230  1.0119  2.1010
  491THF    H11 9381   0.515   1.419   3.820  0.8971 -1.3411  2.6817
  491THF    H12 9382   0.367   1.484   3.668  1.6139  1.0661  0.3471
  491THF    H13 9383   0.232   1.438   3.777  1.0461 -2.1418 -1.1212
  492THF     O1 9384   1.937   1.132   1.489  0.7088  0.3586 -0.4688
  492THF     C2 9385   2.006   1.022   1.439  0.4726 -0.5250 -0.3473
  492THF     C3 9386   1.994   1.250   1.429 -0.0427  0.7468 -0.1054
  492THF     H4 9387   1.962   0.990   1.344  0.1115 -0.4681 -0.2010
  492THF     H5 9388   1.988   0.941   1.510  1.5686 -0.0878  0.4573
  492THF     H6 9389   1.952   1.264   1.330 -0.7124 -0.8395 -0.0838
  492THF     H7 9390   1.972   1.342   1.484 -0.2791  1.8172 -1.9324
  492THF     C8 9391   2.146   1.218   1.427  0.0946  0.8116  1.0218
  492THF     C9 9392   2.148   1.067   1.443 -0.5579  0.0535  0.9764
  492THF    H10 9393   2.195   1.269   1.509  0.8296 -2.5801  2.8528
  492THF    H11 9394   2.189   1.262   1.337  0.5429 -2.5168 -0.5273
  492THF    H12 9395   2.217   1.014   1.378 -0.4715 -1.1694  2.0339
  492THF    H13 9396   2.185   1.060   1.545  2.2878  1.9963  0.1885
  493THF     O1 9397   1.001   0.808   1.413 -0.3638 -0.0470  0.2112
  493THF     C2 9398   1.074   0.721   1.336 -0.4517  0.2932  0.3044
  493THF     C3 9399   1.074   0.834   1.535  0.7235 -0.0989  0.2464
  493THF     H4 9400   1.146   0.778   1.276 -2.1757  0.9921 -1.2041
  493THF     H5 9401   1.007   0.669   1.268 -0.9700  1.2386  0.0770
  493THF     H6 9402   1.161   0.898   1.523 -0.7199  2.2615  1.5725
  493THF     H7 9403   1.007   0.893   1.599  0.8483  1.2495 -0.8223
  493THF     C8 9404   1.113   0.691   1.574 -0.6304 -0.0434  0.0406
  493THF     C9 9405   1.141   0.623   1.439 -0.8552  0.0604 -0.2304
  493THF    H10 9406   1.032   0.636   1.621 -0.2846 -0.7385 -0.1613
  493THF    H11 9407   1.186   0.675   1.653 -0.7765 -0.7362  0.0404
  493THF    H12 9408   1.248   0.603   1.433 -1.2609 -2.7875  0.4740
  493THF    H13 9409   1.092   0.525   1.445  0.3782 -0.6291 -0.9766
  494THF     O1 9410   1.288   5.130   5.184 -0.1784  0.5685 -0.4485
  494THF     C2 9411   1.370   5.195   5.273  0.0779  0.2052  0.1355
  494THF     C3 9412   1.206   5.229   5.117 -0.2466  0.6210 -0.6583
  494THF     H4 9413   1.453   5.247   5.225 -1.3366  1.3175 -1.1655
  494THF     H5 9414   1.412   5.134   5.354 -0.9203 -0.6269  0.0560
  494THF     H6 9415   1.240   5.256   5.017  0.5440 -0.1713 -0.6196
  494THF     H7 9416   1.108   5.181   5.119 -0.6950  1.4513  2.2957
  494THF     C8 9417   1.198   5.353   5.207 -0.5838  0.1486 -0.0915
  494THF     C9 9418   1.281   5.309   5.322 -0.0367 -0.7024 -0.3689
  494THF    H10 9419   1.101   5.386   5.245 -0.5575  0.8515 -0.6135
  494THF    H11 9420   1.233   5.438   5.148 -0.4734 -0.0624 -0.3332
  494THF    H12 9421   1.329   5.385   5.385  1.1680 -1.4903 -0.3162
  494THF    H13 9422   1.211   5.269   5.395  1.0383  0.0394  1.1295
  495THF     O1 9423   2.077   0.275   4.765 -0.1284  0.0443 -0.1801
  495THF     C2 9424   1.946   0.248   4.723  0.3450  0.1873 -1.1870
  495THF     C3 9425   2.156   0.282   4.649 -0.1780 -0.2879  0.0837
  495THF     H4 9426   1.904   0.344   4.692  0.6348  0.8065  0.2474
  495THF     H5 9427   1.891   0.202   4.805 -0.6528  0.0967 -1.8923
  495THF     H6 9428   2.148   0.381   4.605 -2.2062 -0.0801  0.7979
  495THF     H7 9429   2.256   0.266   4.689  0.6497  1.8737 -0.9452
  495THF     C8 9430   2.095   0.172   4.556 -0.0235 -0.2539 -0.0217
  495THF     C9 9431   1.955   0.148   4.605 -0.1009 -0.3664 -0.0266
  495THF    H10 9432   2.153   0.081   4.569  0.5349 -0.0891 -1.2592
  495THF    H11 9433   2.093   0.199   4.451 -2.3817 -0.2984 -0.0330
  495THF    H12 9434   1.873   0.156   4.533 -1.1493 -2.7278  0.7963
  495THF    H13 9435   1.950   0.044   4.639  0.1769 -0.1785  0.5929
  496THF     O1 9436   1.214   2.575   1.261 -0.0099 -0.3208 -0.3998
  496THF     C2 9437   1.226   2.704   1.199  0.3230 -0.1062 -0.8258
  496THF     C3 9438   1.223   2.482   1.165 -0.0692  0.4526 -0.1900
  496THF     H4 9439   1.244   2.791   1.262 -3.2736  0.0884  0.1853
  496THF     H5 9440   1.139   2.721   1.136  0.4239  1.9586 -0.4728
  496THF     H6 9441   1.261   2.390   1.209 -1.8615 -0.2899 -0.1356
  496THF     H7 9442   1.134   2.458   1.106 -0.2914 -1.8450  0.9940
  496THF     C8 9443   1.332   2.532   1.071  0.7057 -0.4272  0.2321
  496THF     C9 9444   1.337   2.679   1.098  0.0421  0.0504  0.2837
  496THF    H10 9445   1.305   2.519   0.966  0.0440 -0.8153  0.4417
  496THF    H11 9446   1.419   2.470   1.093  0.0669 -1.4582 -0.1164
  496THF    H12 9447   1.430   2.696   1.151 -1.1967 -0.1249  2.6261
  496THF    H13 9448   1.333   2.753   1.018  1.8607  2.0286  1.9333
  497THF     O1 9449   1.682   0.308   3.894  0.0057  0.0798 -0.7026
  497THF     C2 9450   1.572   0.225   3.871 -0.0912  0.1878 -0.3146
  497THF     C3 9451   1.640   0.444   3.906  0.8354 -0.4285  0.3055
  497THF     H4 9452   1.599   0.122   3.898  2.2830  0.9674  0.5545
  497THF     H5 9453   1.544   0.238   3.766  2.3951  1.2413 -0.9160
  497THF     H6 9454   1.715   0.506   3.955  0.4573 -0.6767  1.2311
  497THF     H7 9455   1.623   0.481   3.805  1.8738 -1.9244 -0.4486
  497THF     C8 9456   1.510   0.429   3.987  0.3645 -0.5720  0.2355
  497THF     C9 9457   1.465   0.286   3.971 -0.2789  0.3349  0.5751
  497THF    H10 9458   1.425   0.490   3.955  0.2622  0.2306  1.9157
  497THF    H11 9459   1.534   0.467   4.086  2.0582 -0.7573 -0.0698
  497THF    H12 9460   1.476   0.241   4.069 -1.3891  0.3224  0.7058
  497THF    H13 9461   1.363   0.285   3.931 -0.2014 -0.5553  0.3782
  498THF     O1 9462   3.739   5.056   0.247  0.1660 -0.3409  0.0252
  498THF     C2 9463   3.651   5.074   0.350 -0.1036 -0.0311 -0.8026
  498THF     C3 9464   3.652   5.040   0.139 -0.7155 -0.3482 -0.0989
  498THF     H4 9465   3.602   5.172   0.361  0.6592  0.3531 -0.7667
  498THF     H5 9466   3.707   5.053   0.441  0.1595  0.6635 -0.7947
  498THF     H6 9467   3.613   5.140   0.119 -0.8828 -0.1199  1.2615
  498THF     H7 9468   3.700   5.015   0.044 -1.1508 -0.6690 -0.2388
  498THF     C8 9469   3.552   4.938   0.185 -0.6354 -0.1388  0.1312
  498THF     C9 9470   3.533   4.978   0.329  0.4535 -0.1727 -0.6781
  498THF    H10 9471   3.600   4.840   0.183 -0.9784 -0.3109  0.1124
  498THF    H11 9472   3.456   4.949   0.134 -2.0067 -0.9594  2.3705
  498THF    H12 9473   3.440   5.033   0.326 -1.5813 -3.3308 -0.4368
  498THF    H13 9474   3.525   4.891   0.395 -1.0508 -2.0743 -3.1478
  499THF     O1 9475   3.575   3.542   1.228 -0.4800 -0.2532 -0.2746
  499THF     C2 9476   3.709   3.567   1.277 -0.3117  0.4042 -0.2124
  499THF     C3 9477   3.599   3.468   1.109  0.1135  0.3902  0.7419
  499THF     H4 9478   3.775   3.499   1.331  0.6106  1.7460  0.4034
  499THF     H5 9479   3.697   3.649   1.348 -1.2247  1.3827 -1.4362
  499THF     H6 9480   3.586   3.361   1.127  0.5853  0.3068  0.6045
  499THF     H7 9481   3.518   3.505   1.047 -0.0802 -0.6169  0.3735
  499THF     C8 9482   3.735   3.512   1.055 -0.7043  0.4198  0.2192
  499THF     C9 9483   3.784   3.612   1.156  0.3985  0.3686  0.1208
  499THF    H10 9484   3.734   3.565   0.959  2.7180  0.7119  0.2350
  499THF    H11 9485   3.803   3.427   1.051  0.3690  1.2766 -0.3255
  499THF    H12 9486   3.891   3.616   1.177  0.6721 -0.4515 -1.0257
  499THF    H13 9487   3.742   3.712   1.139 -0.2816 -0.0402 -0.6588
  500THF     O1 9488   1.294   0.221   3.592 -0.1245  0.4430 -0.1007
  500THF     C2 9489   1.336   0.348   3.562 -0.5311 -0.8187 -0.1544
  500THF     C3 9490   1.157   0.231   3.613  0.2614  0.0435 -0.2300
  500THF     H4 9491   1.306   0.360   3.458  0.3405 -1.1028 -0.4435
  500THF     H5 9492   1.444   0.364   3.570 -0.5487 -0.8641  0.1804
  500THF     H6 9493   1.098   0.251   3.524 -0.9299  0.0693  0.5527
  500THF     H7 9494   1.104   0.144   3.652 -1.2134  0.7614 -0.5903
  500THF     C8 9495   1.153   0.344   3.710  0.2411 -0.8137  0.5334
  500THF     C9 9496   1.260   0.440   3.654  0.0670 -0.1263 -0.6535
  500THF    H10 9497   1.187   0.301   3.805  0.3050  0.1945  0.9732
  500THF    H11 9498   1.056   0.392   3.711 -0.1943 -1.6429 -0.1299
  500THF    H12 9499   1.214   0.514   3.589 -0.3138  0.3016  0.0836
  500THF    H13 9500   1.321   0.484   3.733 -0.3921  1.1727 -1.0067
  501THF     O1 9501   2.000   3.232   2.790  0.2629  0.1418 -0.1162
  501THF     C2 9502   2.035   3.199   2.663 -0.9226 -0.8282 -0.1586
  501THF     C3 9503   1.893   3.157   2.836  0.1417  0.7964 -0.7532
  501THF     H4 9504   2.141   3.206   2.638 -1.3462  0.4456 -1.8111
  501THF     H5 9505   1.995   3.262   2.583 -0.3868 -0.5552 -0.2150
  501THF     H6 9506   1.906   3.154   2.944  0.0670  0.6307 -0.7485
  501THF     H7 9507   1.797   3.193   2.801 -0.7253 -0.2959  0.4101
  501THF     C8 9508   1.922   3.027   2.770 -0.4617 -0.5703  0.8767
  501THF     C9 9509   1.984   3.059   2.637  0.2595  0.4105 -0.0100
  501THF    H10 9510   1.836   2.963   2.751  0.7141 -1.9246 -0.1763
  501THF    H11 9511   1.988   2.959   2.825  2.8075  1.4656 -0.2081
  501THF    H12 9512   2.055   2.980   2.612 -1.8574 -1.9215  0.9587
  501THF    H13 9513   1.907   3.061   2.560  0.0642 -1.7703  0.0666
  502THF     O1 9514   3.501   4.022   1.101  0.0172 -0.6453 -0.8027
  502THF     C2 9515   3.431   3.905   1.064  0.6037  0.6336 -0.3945
  502THF     C3 9516   3.561   3.996   1.225  0.0600  0.3760 -0.7644
  502THF     H4 9517   3.498   3.830   1.022  0.4702  1.6660 -2.5885
  502THF     H5 9518   3.356   3.932   0.990 -2.4437  1.6399  2.7779
  502THF     H6 9519   3.658   3.952   1.200  0.9910  2.0710 -0.2932
  502THF     H7 9520   3.579   4.091   1.276  1.6252  0.2835 -1.0749
  502THF     C8 9521   3.471   3.905   1.308 -0.1452 -0.2106 -0.1449
  502THF     C9 9522   3.367   3.868   1.198  0.2062  0.1679  0.1293
  502THF    H10 9523   3.435   3.957   1.397 -0.2263  0.1137 -0.3655
  502THF    H11 9524   3.519   3.814   1.343 -1.8081 -1.3020 -0.6481
  502THF    H12 9525   3.325   3.767   1.193 -1.4882  0.9018 -1.5357
  502THF    H13 9526   3.285   3.938   1.212  1.8056  1.8581  1.7281
  503THF     O1 9527   5.093   3.270   4.138  0.5340 -0.1509 -0.1383
  503THF     C2 9528   5.204   3.316   4.211 -0.5017 -0.1807  0.0458
  503THF     C3 9529   5.003   3.384   4.134 -1.1814  0.0959 -0.3266
  503THF     H4 9530   5.287   3.247   4.194 -0.2201  0.7076 -2.5746
  503THF     H5 9531   5.177   3.320   4.317  0.6902 -0.3756  0.3670
  503THF     H6 9532   4.929   3.377   4.054 -1.8861  0.7159  0.2629
  503THF     H7 9533   4.954   3.382   4.231  1.5409 -1.1199  1.1130
  503THF     C8 9534   5.083   3.511   4.119 -0.3853 -0.3272 -0.4004
  503THF     C9 9535   5.219   3.462   4.167  0.2435 -0.2221  0.9435
  503THF    H10 9536   5.046   3.588   4.186 -0.6329  1.0211 -2.0284
  503THF    H11 9537   5.092   3.538   4.014 -0.1159 -1.0003 -0.5547
  503THF    H12 9538   5.294   3.468   4.089  0.3082  1.6555  1.1106
  503THF    H13 9539   5.264   3.518   4.249 -0.8940  0.1016  1.3727
  504THF     O1 9540   4.552   2.519   1.070 -0.7653  0.4606 -0.0555
  504THF     C2 9541   4.504   2.518   0.937 -0.2239 -0.0533 -0.0377
  504THF     C3 9542   4.662   2.605   1.083  0.6800  0.4996  0.2699
  504THF     H4 9543   4.461   2.617   0.925  2.6739  1.2760 -0.2866
  504THF     H5 9544   4.424   2.445   0.922 -0.3826 -0.0028  0.5572
  504THF     H6 9545   4.631   2.710   1.076  0.7923  0.4086 -2.0817
  504THF     H7 9546   4.721   2.586   1.173  2.5372 -0.2705 -1.0608
  504THF     C8 9547   4.732   2.574   0.948  0.4809  0.7179 -0.6919
  504THF     C9 9548   4.636   2.504   0.856  0.3779  0.2772  0.1866
  504THF    H10 9549   4.808   2.501   0.974 -0.6013 -0.2810 -0.2364
  504THF    H11 9550   4.783   2.658   0.901  0.5240 -0.2917 -2.5413
  504THF    H12 9551   4.635   2.558   0.761  0.4147  1.9301  1.0886
  504THF    H13 9552   4.666   2.400   0.842  0.4764  0.1414  1.3351
  505THF     O1 9553   1.683   1.201   2.714 -0.8171 -0.4511  0.1616
  505THF     C2 9554   1.721   1.271   2.594  0.6762  0.4638 -0.4261
  505THF     C3 9555   1.550   1.186   2.701  0.4308  0.1374 -0.6810
  505THF     H4 9556   1.735   1.200   2.513 -2.6569 -0.3668 -0.4479
  505THF     H5 9557   1.820   1.315   2.604  1.1122 -0.7125  0.8268
  505THF     H6 9558   1.529   1.100   2.637 -0.9714  0.3174 -0.5065
  505THF     H7 9559   1.510   1.165   2.801 -1.6701  0.3673 -1.4094
  505THF     C8 9560   1.501   1.319   2.648  0.1021 -0.1017  0.0961
  505THF     C9 9561   1.612   1.366   2.560 -0.5946 -0.3360  0.1964
  505THF    H10 9562   1.494   1.380   2.739  1.4923  0.2891 -0.0301
  505THF    H11 9563   1.408   1.322   2.591 -0.0715  0.2422  0.3846
  505THF    H12 9564   1.577   1.355   2.457  0.8606 -0.1059 -0.3439
  505THF    H13 9565   1.643   1.466   2.589 -0.8944 -0.0129 -0.5838
  506THF     O1 9566   0.391   3.376   0.997  0.7257  0.3367  0.3564
  506THF     C2 9567   0.403   3.309   0.871 -0.1897 -0.0087 -0.0910
  506THF     C3 9568   0.479   3.314   1.089  0.1544  0.0813 -0.4291
  506THF     H4 9569   0.455   3.375   0.801  1.0765  0.3994  1.1774
  506THF     H5 9570   0.308   3.303   0.818 -0.9957  3.4043  0.7349
  506THF     H6 9571   0.580   3.352   1.071 -0.5982  0.9494 -3.4291
  506THF     H7 9572   0.451   3.324   1.194 -1.6335  2.0270 -1.0207
  506THF     C8 9573   0.482   3.168   1.043  0.2119  0.3032 -0.6027
  506THF     C9 9574   0.477   3.174   0.896 -0.5261 -0.7340 -0.0324
  506THF    H10 9575   0.402   3.099   1.073  0.6139  0.3354  0.5929
  506THF    H11 9576   0.568   3.120   1.091  0.1074  1.1805  0.5111
  506THF    H12 9577   0.579   3.178   0.860 -0.6353 -0.1639 -0.2844
  506THF    H13 9578   0.427   3.089   0.848 -0.0872 -0.7123 -0.5368
  507THF     O1 9579   1.908   0.585   5.438  0.3716 -0.0009  0.3078
  507THF     C2 9580   1.888   0.448   5.402  0.3711  0.0474  0.2910
  507THF     C3 9581   1.794   0.636   5.500  0.1679 -0.1576 -0.1860
  507THF     H4 9582   1.957   0.394   5.466  2.0233 -0.4312 -1.7975
  507THF     H5 9583   1.933   0.438   5.303  2.2511 -0.8453  1.2000
  507THF     H6 9584   1.803   0.634   5.608 -1.6152 -1.6298 -0.0081
  507THF     H7 9585   1.781   0.741   5.473  0.8662  0.3221  1.2641
  507THF     C8 9586   1.675   0.545   5.459  0.0096 -0.2113  1.0091
  507THF     C9 9587   1.742   0.412   5.427 -0.6606 -0.0987  1.1320
  507THF    H10 9588   1.631   0.571   5.363  1.3387 -1.0112  0.1545
  507THF    H11 9589   1.604   0.519   5.539 -0.9815  0.9100  0.5161
  507THF    H12 9590   1.735   0.340   5.508  1.0319  0.1363  1.5074
  507THF    H13 9591   1.693   0.378   5.335  1.5946 -0.8221  0.1387
  508THF     O1 9592   1.029   4.903   3.919 -0.7305 -0.5069  0.0503
  508THF     C2 9593   1.019   4.816   4.027  0.2864  0.1707  0.7582
  508THF     C3 9594   1.161   4.863   3.860  0.4513 -0.7227 -0.3063
  508THF     H4 9595   0.999   4.714   3.994 -0.6053  0.2318  1.0780
  508THF     H5 9596   0.936   4.848   4.090  0.1836 -0.1411  0.7856
  508THF     H6 9597   1.129   4.786   3.789 -0.4988  1.0095 -1.8538
  508THF     H7 9598   1.212   4.935   3.797  1.6891 -0.6553  0.7548
  508THF     C8 9599   1.249   4.837   3.977 -0.7822 -0.2706  0.0488
  508THF     C9 9600   1.156   4.835   4.097 -0.2182 -0.9484  0.6792
  508THF    H10 9601   1.314   4.923   3.991 -2.2770  1.3698 -2.2904
  508THF    H11 9602   1.315   4.751   3.968  0.3940  0.5541  0.4758
  508THF    H12 9603   1.181   4.753   4.164 -0.6357 -1.4361  0.2473
  508THF    H13 9604   1.144   4.933   4.144  0.4832 -0.7654  0.4892
  509THF     O1 9605   2.285   4.979   2.956  0.0884 -0.3838 -0.0324
  509THF     C2 9606   2.169   5.031   3.023 -0.0970  0.5575 -0.1770
  509THF     C3 9607   2.350   5.088   2.888  0.3254 -0.1336 -0.4168
  509THF     H4 9608   2.175   4.993   3.125  2.3985  1.3598  0.0361
  509THF     H5 9609   2.078   4.992   2.976 -1.5289  1.3852  1.7527
  509THF     H6 9610   2.457   5.072   2.899  0.3352 -0.7844 -1.3057
  509THF     H7 9611   2.315   5.098   2.785 -1.1869  2.2333  0.2500
  509THF     C8 9612   2.302   5.212   2.965 -0.2274  0.2294 -0.4468
  509THF     C9 9613   2.157   5.183   3.011 -0.1630 -0.1861 -0.4263
  509THF    H10 9614   2.293   5.301   2.902 -2.4851  0.7024  0.4205
  509THF    H11 9615   2.364   5.248   3.047  0.0918  2.3796 -1.5533
  509THF    H12 9616   2.141   5.235   3.105 -2.1513 -1.6719  0.1184
  509THF    H13 9617   2.090   5.223   2.936  0.8944  0.6061 -0.9696
  510THF     O1 9618   1.693   0.268   1.359 -0.5095 -0.4195 -0.2776
  510THF     C2 9619   1.716   0.353   1.245 -0.3067  0.3488  0.6350
  510THF     C3 9620   1.822   0.209   1.373 -0.1771  0.1784 -0.1500
  510THF     H4 9621   1.774   0.445   1.258  0.7741  0.0849 -1.8376
  510THF     H5 9622   1.625   0.384   1.195 -0.4271 -0.6917  0.1918
  510THF     H6 9623   1.893   0.289   1.393  0.3671  0.1849 -1.9173
  510THF     H7 9624   1.836   0.130   1.447  0.5089 -1.3113 -1.7905
  510THF     C8 9625   1.863   0.156   1.240  0.6235 -0.2250 -0.3297
  510THF     C9 9626   1.790   0.256   1.157  0.1735  0.1863  0.2812
  510THF    H10 9627   1.816   0.061   1.214 -4.2391  1.4132  1.3930
  510THF    H11 9628   1.970   0.138   1.227  0.3892 -0.2761 -2.6447
  510THF    H12 9629   1.856   0.311   1.090  0.1465 -1.5802 -1.3028
  510THF    H13 9630   1.719   0.211   1.087  2.4486 -1.6705 -0.9924
  511THF     O1 9631   1.224   3.509   1.734 -0.0509 -0.4979 -1.0765
  511THF     C2 9632   1.133   3.414   1.779 -0.5355 -1.5388  0.3594
  511THF     C3 9633   1.359   3.479   1.782 -0.3419 -0.0572  0.2945
  511THF     H4 9634   1.138   3.326   1.715  0.7854 -1.2882  0.0725
  511THF     H5 9635   1.042   3.472   1.788  0.9917  0.8315  1.5704
  511THF     H6 9636   1.407   3.414   1.709  0.9927  0.8292  0.3306
  511THF     H7 9637   1.414   3.573   1.788 -0.5342  0.0226  0.7995
  511THF     C8 9638   1.336   3.414   1.916  0.5055 -0.2362 -0.1048
  511THF     C9 9639   1.192   3.372   1.910  0.1494  0.6143  0.0729
  511THF    H10 9640   1.337   3.486   1.998 -0.4368  0.1360 -0.3946
  511THF    H11 9641   1.407   3.334   1.936 -0.4285 -1.2233 -0.6210
  511THF    H12 9642   1.166   3.269   1.934 -2.4362  1.2345  0.1510
  511THF    H13 9643   1.132   3.431   1.978 -2.5042 -0.4000 -1.2637
  512THF     O1 9644   2.185   0.269   2.445 -0.3889  0.1349  0.3061
  512THF     C2 9645   2.165   0.121   2.435  0.5227 -0.2772 -0.2090
  512THF     C3 9646   2.252   0.306   2.330 -0.4779 -0.1186 -0.2093
  512THF     H4 9647   2.060   0.101   2.412 -0.2729  0.9681  1.9488
  512THF     H5 9648   2.190   0.085   2.535  0.0615 -0.9866 -0.3442
  512THF     H6 9649   2.177   0.319   2.252  0.8164  0.4494 -1.4015
  512THF     H7 9650   2.306   0.398   2.350  1.2114 -1.7571  3.8117
  512THF     C8 9651   2.346   0.191   2.294 -0.6878  0.2459 -0.3997
  512THF     C9 9652   2.259   0.071   2.333  0.2266 -0.3422 -0.3099
  512THF    H10 9653   2.435   0.196   2.357 -0.3507  2.4391 -0.9473
  512THF    H11 9654   2.373   0.193   2.189 -1.0342 -0.3307 -0.5040
  512THF    H12 9655   2.212   0.041   2.239  0.1324 -1.3147  0.0426
  512THF    H13 9656   2.312  -0.018   2.367 -0.2158  0.1708  1.8027
  513THF     O1 9657   3.276   3.396   4.858 -0.1902  0.0043 -0.3451
  513THF     C2 9658   3.282   3.486   4.747  0.3750  0.4263  0.4460
  513THF     C3 9659   3.155   3.327   4.858 -0.5701  1.0273  0.5939
  513THF     H4 9660   3.381   3.497   4.702  1.0242 -1.4797  1.2961
  513THF     H5 9661   3.251   3.584   4.782 -0.4398  0.4627 -0.3293
  513THF     H6 9662   3.170   3.222   4.830  0.2831  0.9585  1.2615
  513THF     H7 9663   3.101   3.333   4.952  0.2399  0.8447  1.0820
  513THF     C8 9664   3.068   3.399   4.751 -0.4955  0.0403 -0.2114
  513THF     C9 9665   3.175   3.430   4.650  0.2589  0.5908 -0.1991
  513THF    H10 9666   3.027   3.487   4.800  2.0510  0.4583  1.3437
  513THF    H11 9667   2.983   3.344   4.713 -0.6200  1.0874 -1.5362
  513THF    H12 9668   3.206   3.336   4.605  0.2284  0.6717 -0.3917
  513THF    H13 9669   3.140   3.505   4.580 -1.7828 -1.7342 -1.8353
  514THF     O1 9670   3.063   5.402   5.106  0.5612  0.0540 -0.4382
  514THF     C2 9671   3.042   5.530   5.159 -0.1074 -0.7440 -0.1870
  514THF     C3 9672   2.945   5.378   5.032 -0.3331  0.0286  0.0516
  514THF     H4 9673   3.138   5.559   5.201  0.4437 -0.3149 -1.7153
  514THF     H5 9674   2.967   5.524   5.238 -2.0238 -0.2242 -1.8816
  514THF     H6 9675   2.944   5.293   4.963  0.3189 -0.1563  0.2598
  514THF     H7 9676   2.873   5.343   5.106  0.2723 -2.4005 -0.3976
  514THF     C8 9677   2.905   5.509   4.966  0.2129 -0.4208  0.0667
  514THF     C9 9678   2.994   5.610   5.040 -0.0818 -0.4705  0.3715
  514THF    H10 9679   2.805   5.546   4.989  1.2064  1.2401  2.0951
  514THF    H11 9680   2.935   5.516   4.862  2.2265  0.3510  0.6509
  514THF    H12 9681   3.076   5.643   4.977 -0.2789  1.4218  1.0362
  514THF    H13 9682   2.943   5.700   5.074 -1.0316 -0.6645 -0.4812
  515THF     O1 9683   4.063   3.192   1.245 -0.5407  0.2421  0.3305
  515THF     C2 9684   3.940   3.195   1.304  1.1195  0.3149  0.0966
  515THF     C3 9685   4.157   3.193   1.356  0.2365  0.7199 -0.0261
  515THF     H4 9686   3.920   3.090   1.325 -1.2914  0.5020 -1.0279
  515THF     H5 9687   3.859   3.234   1.243 -0.4681  0.0705  1.9440
  515THF     H6 9688   4.167   3.094   1.402  0.4271  1.1355  0.8382
  515THF     H7 9689   4.255   3.224   1.320  0.6992 -2.7517 -2.2765
  515THF     C8 9690   4.097   3.286   1.456 -0.3263  0.4974 -0.2952
  515THF     C9 9691   3.947   3.267   1.432 -0.2656 -0.4130 -0.0975
  515THF    H10 9692   4.149   3.379   1.431 -0.6654  1.1134  1.1798
  515THF    H11 9693   4.130   3.268   1.558  3.2979  0.9916 -1.2318
  515THF    H12 9694   3.913   3.200   1.511 -0.5467  0.4611  0.5333
  515THF    H13 9695   3.879   3.352   1.425 -3.3121 -2.8101 -2.5918
  516THF     O1 9696   1.655   4.080   0.884 -0.0764  0.7051 -0.2482
  516THF     C2 9697   1.523   4.140   0.896 -0.0789 -0.4952  1.1398
  516THF     C3 9698   1.740   4.177   0.822  0.1307  0.7020 -0.8012
  516THF     H4 9699   1.519   4.222   0.968 -2.3690  0.1068  0.4334
  516THF     H5 9700   1.449   4.062   0.914 -0.5986 -0.7719 -1.6776
  516THF     H6 9701   1.750   4.261   0.891  1.7441  0.1009 -0.2678
  516THF     H7 9702   1.843   4.142   0.811 -0.4543 -1.7761  0.6941
  516THF     C8 9703   1.654   4.209   0.704  0.2985 -0.3010  0.1347
  516THF     C9 9704   1.508   4.192   0.750  0.4982  0.1518  0.2086
  516THF    H10 9705   1.677   4.140   0.623  0.2242  0.3443 -0.4513
  516THF    H11 9706   1.677   4.309   0.669 -0.6264  0.7149  2.2463
  516THF    H12 9707   1.448   4.283   0.753 -1.1955 -0.8691  3.4262
  516THF    H13 9708   1.446   4.125   0.690 -0.3874 -0.6321  1.9020
  517THF     O1 9709   1.467   1.077   5.120 -0.1894  0.3350  0.2785
  517THF     C2 9710   1.465   1.020   5.248  0.5861 -0.3748 -0.4232
  517THF     C3 9711   1.530   0.994   5.028 -0.1860  0.0836  0.2769
  517THF     H4 9712   1.365   1.044   5.284  0.5272 -1.5711  0.2416
  517THF     H5 9713   1.549   1.060   5.306 -0.3670  0.2278  0.5825
  517THF     H6 9714   1.505   0.995   4.922  0.3903 -0.4308  0.1329
  517THF     H7 9715   1.637   1.004   5.047 -0.1702 -0.2278  0.3662
  517THF     C8 9716   1.504   0.853   5.084  0.2342 -0.7842 -0.3653
  517THF     C9 9717   1.497   0.878   5.229  0.8449  0.2587 -0.5050
  517THF    H10 9718   1.566   0.773   5.043 -1.4790 -2.8390  0.7778
  517THF    H11 9719   1.406   0.831   5.041  0.4322 -0.3369 -1.0754
  517THF    H12 9720   1.414   0.816   5.263 -0.2281  0.0924 -3.1583
  517THF    H13 9721   1.590   0.845   5.275  0.2230 -0.1876  0.4658
  518THF     O1 9722   4.430   4.754   4.808 -0.6512 -0.1155 -0.0402
  518THF     C2 9723   4.421   4.618   4.782 -0.5414  0.2375 -0.5961
  518THF     C3 9724   4.478   4.777   4.939  1.1043  0.6931  0.2554
  518THF     H4 9725   4.440   4.595   4.677 -1.7403  1.7711 -1.1877
  518THF     H5 9726   4.317   4.584   4.792 -0.9311  1.0977 -1.5878
  518THF     H6 9727   4.516   4.879   4.941  0.2943  1.0204 -0.3163
  518THF     H7 9728   4.401   4.764   5.015  1.1977  1.8572  0.5711
  518THF     C8 9729   4.591   4.674   4.947  0.8589  0.2645 -0.2237
  518THF     C9 9730   4.523   4.557   4.879 -0.3556 -0.4137  0.6506
  518THF    H10 9731   4.612   4.664   5.054  1.7132 -0.2213 -0.4302
  518THF    H11 9732   4.681   4.707   4.897  1.5421 -1.0937  0.0731
  518THF    H12 9733   4.588   4.484   4.831  0.3555  0.1157  0.7841
  518THF    H13 9734   4.466   4.505   4.956  1.2172  1.6356  3.3715
  519THF     O1 9735   1.336   3.408   1.368  0.5547 -0.4210  0.4183
  519THF     C2 9736   1.213   3.401   1.297 -0.3166  0.4483  0.5617
  519THF     C3 9737   1.355   3.282   1.418 -0.7969  0.3330 -0.8524
  519THF     H4 9738   1.187   3.494   1.247  0.1767  0.7598  0.8674
  519THF     H5 9739   1.140   3.372   1.373 -0.6677 -1.2826 -0.3799
  519THF     H6 9740   1.459   3.270   1.445  0.3566  2.9201 -3.5226
  519THF     H7 9741   1.291   3.263   1.504 -1.1708 -0.5916 -1.3231
  519THF     C8 9742   1.319   3.191   1.299  1.0831 -0.4180  0.7248
  519THF     C9 9743   1.235   3.277   1.208  0.4815 -0.5960 -0.1546
  519THF    H10 9744   1.263   3.106   1.339  0.5069 -0.3195  0.1493
  519THF    H11 9745   1.413   3.150   1.264  2.0928  2.3063  0.0157
  519THF    H12 9746   1.294   3.303   1.121  1.4680 -0.0583  0.6448
  519THF    H13 9747   1.144   3.228   1.174  1.0782 -1.6161 -0.3196
  520THF     O1 9748   3.559   0.557   0.526 -0.1062 -0.2143 -0.6433
  520THF     C2 9749   3.599   0.442   0.600 -0.1628  0.6908 -0.1008
  520THF     C3 9750   3.585   0.672   0.611 -0.0011  0.3691  0.5744
  520THF     H4 9751   3.617   0.358   0.533 -0.4905 -0.3452  1.0820
  520THF     H5 9752   3.507   0.421   0.653 -0.9792 -1.5078 -2.2212
  520THF     H6 9753   3.628   0.759   0.562  0.3038 -1.0469 -1.8270
  520THF     H7 9754   3.497   0.700   0.669  0.8025  3.0972  0.5870
  520THF     C8 9755   3.685   0.624   0.716  0.2877 -0.5074  0.1154
  520THF     C9 9756   3.723   0.485   0.676 -0.1562  0.1143 -0.5393
  520THF    H10 9757   3.663   0.620   0.823  3.6359 -1.8141  0.8888
  520THF    H11 9758   3.770   0.692   0.709  0.5660 -0.8394  0.2404
  520THF    H12 9759   3.812   0.481   0.613  0.2354 -2.3487  0.0480
  520THF    H13 9760   3.723   0.422   0.764 -0.2623  0.2958 -0.4089
  521THF     O1 9761   0.560   2.266   2.897  0.0774 -0.2423  0.0982
  521THF     C2 9762   0.431   2.281   2.837  1.0675  0.5790  0.7166
  521THF     C3 9763   0.540   2.200   3.019  0.8650  0.1802 -0.3125
  521THF     H4 9764   0.437   2.299   2.729 -0.7621  0.8829  0.6334
  521THF     H5 9765   0.395   2.374   2.879  1.7545  1.2488 -0.1411
  521THF     H6 9766   0.633   2.180   3.072  0.1540  0.3225  1.0243
  521THF     H7 9767   0.484   2.269   3.081 -0.1778  1.0053 -2.0943
  521THF     C8 9768   0.458   2.086   2.980  0.7090  0.0590  0.6474
  521THF     C9 9769   0.362   2.145   2.874 -0.3129  0.5456 -0.4516
  521THF    H10 9770   0.401   2.033   3.056  0.0742 -0.8698 -0.4516
  521THF    H11 9771   0.527   2.014   2.936 -0.0410 -0.1370 -0.2324
  521THF    H12 9772   0.357   2.080   2.786  2.2888  1.4324 -1.3641
  521THF    H13 9773   0.263   2.165   2.915  0.0534 -0.0087  0.7368
  522THF     O1 9774   3.969   4.336   1.919 -0.2393 -0.1965  0.1841
  522THF     C2 9775   4.093   4.279   1.954 -0.7132  0.0569  0.9653
  522THF     C3 9776   3.884   4.311   2.031 -0.6798 -0.2562 -0.9480
  522THF     H4 9777   4.165   4.310   1.879 -1.4289 -0.4693  0.0471
  522THF     H5 9778   4.094   4.170   1.957  0.7323  0.0483  3.8995
  522THF     H6 9779   3.790   4.366   2.028 -0.8741 -0.6226 -1.8823
  522THF     H7 9780   3.862   4.206   2.050 -0.6397 -0.5696 -2.5569
  522THF     C8 9781   3.969   4.357   2.153  0.5576  0.2033  1.2369
  522THF     C9 9782   4.108   4.340   2.098 -0.1138 -0.6060  0.4455
  522THF    H10 9783   3.947   4.291   2.237  0.4138 -0.4370  0.7029
  522THF    H11 9784   3.961   4.461   2.185 -1.7080 -0.0287  1.5853
  522THF    H12 9785   4.166   4.432   2.085 -1.1690 -0.1039 -0.9811
  522THF    H13 9786   4.165   4.273   2.162  0.7714  0.5034  0.8686
  523THF     O1 9787   1.235   4.856   2.926 -0.2658 -0.5655  0.2567
  523THF     C2 9788   1.348   4.786   2.877 -0.0595 -0.4287  0.2341
  523THF     C3 9789   1.281   4.985   2.948 -0.6443  0.2593 -0.0362
  523THF     H4 9790   1.357   4.814   2.772  0.2161  0.0776  0.3888
  523THF     H5 9791   1.338   4.677   2.878  2.4386 -0.7589 -1.6557
  523THF     H6 9792   1.287   5.038   2.852 -2.2753 -0.3262 -0.4937
  523THF     H7 9793   1.197   5.023   3.007 -1.7005 -3.4002  1.0645
  523THF     C8 9794   1.417   4.969   3.023 -0.2190 -0.5191  0.2350
  523THF     C9 9795   1.469   4.835   2.969  0.5831  0.1380  0.2595
  523THF    H10 9796   1.396   4.964   3.130  0.9986  2.6278  0.7325
  523THF    H11 9797   1.496   5.041   3.003  1.9792 -2.9251 -0.3725
  523THF    H12 9798   1.565   4.838   2.918 -0.4766 -1.1044 -1.9282
  523THF    H13 9799   1.469   4.768   3.055 -1.6255 -1.3655 -0.8186
  524THF     O1 9800   0.198   0.842   5.121  1.1343  0.1505  0.0217
  524THF     C2 9801   0.061   0.810   5.077 -0.1775 -0.2994 -0.1339
  524THF     C3 9802   0.283   0.769   5.031 -0.8874  0.5760  0.7762
  524THF     H4 9803  -0.008   0.877   5.128  0.3270  0.9888 -1.0965
  524THF     H5 9804   0.041   0.707   5.107 -1.7903  0.1565  0.4399
  524THF     H6 9805   0.384   0.809   5.037 -0.7262  0.7034 -1.7106
  524THF     H7 9806   0.287   0.666   5.065  1.1123 -1.2922 -4.1355
  524THF     C8 9807   0.214   0.781   4.890  0.2695 -0.4779 -0.2009
  524THF     C9 9808   0.075   0.829   4.927  0.3962 -0.6194 -0.3404
  524THF    H10 9809   0.226   0.688   4.834 -1.9612 -1.1401  0.3339
  524THF    H11 9810   0.265   0.852   4.824  1.5517  0.4359  1.6950
  524THF    H12 9811   0.072   0.934   4.899 -0.6189 -0.6124 -0.2312
  524THF    H13 9812  -0.005   0.775   4.876  0.1366  0.4748 -1.1274
  525THF     O1 9813   1.827   0.887   0.799 -0.4795  0.0835  0.1307
  525THF     C2 9814   1.786   0.859   0.667  0.1347 -0.1877  0.6289
  525THF     C3 9815   1.905   1.002   0.796 -0.4372 -0.3048 -0.5167
  525THF     H4 9816   1.693   0.915   0.659  0.3474  0.6437  3.0904
  525THF     H5 9817   1.771   0.753   0.646 -1.8873  0.5201 -1.8450
  525THF     H6 9818   1.862   1.084   0.854 -0.2593  0.3011 -1.2218
  525THF     H7 9819   1.998   0.971   0.843  0.6005 -0.8449 -2.7716
  525THF     C8 9820   1.937   1.030   0.653  0.6579 -0.4330  0.0802
  525THF     C9 9821   1.910   0.902   0.587  0.4461 -0.2626 -0.5868
  525THF    H10 9822   2.039   1.065   0.636  0.2678  0.7076 -0.0312
  525THF    H11 9823   1.861   1.101   0.621 -0.5803 -1.7756 -0.0592
  525THF    H12 9824   1.879   0.918   0.484 -3.0105  0.1182  0.3911
  525THF    H13 9825   1.982   0.823   0.609 -0.2432 -0.7110  0.1061
  526THF     O1 9826   2.178   2.467   2.914 -0.1136 -0.3573 -0.1409
  526THF     C2 9827   2.065   2.384   2.941  0.3897 -0.2146  0.1816
  526THF     C3 9828   2.248   2.405   2.808 -0.6451 -0.6652  0.2256
  526THF     H4 9829   1.989   2.401   2.865 -0.6849 -2.6921  0.6112
  526THF     H5 9830   2.027   2.409   3.041 -0.1478 -0.4792  0.0501
  526THF     H6 9831   2.206   2.441   2.714  0.4502  1.7705  0.5752
  526THF     H7 9832   2.346   2.453   2.807 -0.9773  0.0859  1.2805
  526THF     C8 9833   2.255   2.263   2.840  0.3175  0.4719 -0.0142
  526THF     C9 9834   2.135   2.245   2.929 -0.4378 -0.1029 -0.2310
  526THF    H10 9835   2.346   2.247   2.897  0.0220 -1.9874 -0.1234
  526THF    H11 9836   2.250   2.199   2.752 -1.7334  1.8132 -0.9641
  526THF    H12 9837   2.065   2.178   2.880 -0.1653 -1.0520  0.6582
  526THF    H13 9838   2.164   2.206   3.026  1.5636 -0.9340 -1.1067
  527THF     O1 9839   2.773   4.199   5.339 -0.3898  0.6247  0.7510
  527THF     C2 9840   2.694   4.227   5.225 -0.1246 -0.2867  0.0749
  527THF     C3 9841   2.904   4.179   5.298 -0.0170  0.3122  0.2625
  527THF     H4 9842   2.694   4.336   5.217  1.5244 -0.3551 -1.5129
  527THF     H5 9843   2.587   4.207   5.230 -0.3356  0.8925  0.6805
  527THF     H6 9844   2.950   4.277   5.289  0.9220  0.0310  1.5843
  527THF     H7 9845   2.964   4.112   5.360  1.0160 -0.0547 -1.0778
  527THF     C8 9846   2.890   4.111   5.157  0.2836 -0.6916 -0.1828
  527THF     C9 9847   2.756   4.161   5.103 -0.3122  0.2809  0.4889
  527THF    H10 9848   2.880   4.002   5.158 -0.9569 -0.7824 -4.0892
  527THF    H11 9849   2.977   4.135   5.095  2.4792 -2.0164  2.1609
  527THF    H12 9850   2.779   4.233   5.025 -0.2969 -0.3945 -0.1503
  527THF    H13 9851   2.693   4.089   5.050  0.5197  0.0080 -0.1383
  528THF     O1 9852   3.490   0.424   1.012 -0.5952  0.5329 -0.0594
  528THF     C2 9853   3.550   0.295   1.045 -1.4375  0.0085  0.1706
  528THF     C3 9854   3.369   0.405   0.944 -0.6196  0.3415 -0.5638
  528THF     H4 9855   3.613   0.301   1.134 -1.2787  0.6830  0.0205
  528THF     H5 9856   3.612   0.254   0.965  2.8267  1.9935  2.1105
  528THF     H6 9857   3.295   0.485   0.947 -1.0336 -0.0472 -0.2039
  528THF     H7 9858   3.393   0.391   0.839  1.0236 -0.2671 -0.1396
  528THF     C8 9859   3.315   0.268   0.992  0.0255 -0.2570  0.1517
  528THF     C9 9860   3.424   0.205   1.078 -0.5219 -0.2386 -0.0857
  528THF    H10 9861   3.290   0.204   0.907  0.1656 -0.8256  0.5274
  528THF    H11 9862   3.227   0.288   1.053  1.3758  0.2913  2.0149
  528THF    H12 9863   3.404   0.204   1.185  2.2838  2.3977  0.6228
  528THF    H13 9864   3.444   0.099   1.066  0.4897 -0.1768  0.8861
  529THF     O1 9865   0.175   4.102   2.522  0.1426  0.1580 -0.6605
  529THF     C2 9866   0.226   4.001   2.434 -0.8004  0.1839  0.4026
  529THF     C3 9867   0.189   4.051   2.655  0.6436  0.6094  0.4823
  529THF     H4 9868   0.333   4.018   2.421 -0.7560 -0.1812  0.2713
  529THF     H5 9869   0.181   4.008   2.335  1.0067  1.1140 -0.3948
  529THF     H6 9870   0.279   4.094   2.699  0.3480 -0.7455  2.5366
  529THF     H7 9871   0.105   4.068   2.722  0.2160  1.3816 -0.2360
  529THF     C8 9872   0.202   3.898   2.636 -0.6061 -0.0658  0.1784
  529THF     C9 9873   0.182   3.869   2.491  0.6240  0.3988 -0.3450
  529THF    H10 9874   0.145   3.830   2.699  1.1360 -1.0752  0.7437
  529THF    H11 9875   0.308   3.880   2.654 -0.2987  1.3960 -0.0557
  529THF    H12 9876   0.232   3.789   2.435 -0.8307  0.0286 -1.1609
  529THF    H13 9877   0.074   3.860   2.487  0.7341 -1.0794 -0.9232
  530THF     O1 9878   3.776   0.300   1.355 -0.7328 -0.3727  0.3884
  530THF     C2 9879   3.775   0.250   1.489 -0.2212 -0.6280  0.0460
  530THF     C3 9880   3.907   0.299   1.303  0.7060 -0.2890  0.2169
  530THF     H4 9881   3.777   0.143   1.472 -1.3915 -0.3939 -1.8726
  530THF     H5 9882   3.679   0.272   1.535 -0.1971  1.6413 -0.8676
  530THF     H6 9883   3.914   0.204   1.249 -2.0106 -1.2906  1.4834
  530THF     H7 9884   3.933   0.379   1.234 -0.1882 -1.1501 -1.1867
  530THF     C8 9885   3.993   0.299   1.429 -0.6822  0.3537  0.3131
  530THF     C9 9886   3.909   0.313   1.553  0.3809  0.1667  0.3311
  530THF    H10 9887   4.069   0.377   1.423 -0.4704  0.1480  0.2605
  530THF    H11 9888   4.045   0.204   1.444 -2.1612 -0.2963  1.5345
  530THF    H12 9889   3.941   0.260   1.643 -0.4062 -0.6972  0.1301
  530THF    H13 9890   3.894   0.417   1.581 -0.7088  0.7838 -2.2616
  531THF     O1 9891   0.126   2.059   1.513 -0.8869 -0.3784 -0.1201
  531THF     C2 9892   0.251   1.984   1.529  0.2165  0.5411  0.0864
  531THF     C3 9893   0.026   1.957   1.526  0.3368  0.4818  0.1519
  531THF     H4 9894   0.335   2.048   1.559  0.2428  0.6033 -0.1178
  531THF     H5 9895   0.266   1.936   1.432 -1.0396  0.5691 -0.1313
  531THF     H6 9896  -0.068   2.000   1.559  0.0682 -1.7439  2.6159
  531THF     H7 9897   0.016   1.912   1.427 -0.1235  0.6244  0.1334
  531THF     C8 9898   0.078   1.857   1.633 -0.7584 -0.2834 -0.3659
  531THF     C9 9899   0.234   1.872   1.629  0.2441 -0.7727  0.5874
  531THF    H10 9900   0.049   1.753   1.626  0.9677 -0.9303  1.3161
  531THF    H11 9901   0.047   1.892   1.732  3.3174  0.9064  0.6878
  531THF    H12 9902   0.287   1.895   1.722  0.6401  0.0494  0.1677
  531THF    H13 9903   0.279   1.774   1.617  0.1028 -1.0715  2.2447
  532THF     O1 9904   0.415   3.780   4.614 -0.3090 -0.5543  0.6139
  532THF     C2 9905   0.293   3.819   4.674 -0.3356  0.5283  0.4404
  532THF     C3 9906   0.406   3.841   4.488 -0.9445  0.1143 -0.5251
  532THF     H4 9907   0.291   3.788   4.779 -0.1316 -1.0804  0.0034
  532THF     H5 9908   0.224   3.744   4.635  0.3479 -0.9045  1.8555
  532THF     H6 9909   0.503   3.857   4.442 -0.1435  0.3122  1.1669
  532THF     H7 9910   0.368   3.765   4.419 -1.8820  1.4918 -1.5992
  532THF     C8 9911   0.322   3.965   4.491  0.4649  0.0399  0.2887
  532THF     C9 9912   0.261   3.959   4.633 -0.2223  0.1937 -0.4656
  532THF    H10 9913   0.252   3.970   4.408  1.1313  2.6644 -0.2187
  532THF    H11 9914   0.385   4.053   4.477 -0.6704  0.7468 -0.5260
  532THF    H12 9915   0.314   4.037   4.687  1.0503 -1.8335  1.3337
  532THF    H13 9916   0.153   3.966   4.646 -0.4325 -0.8785 -1.4184
  533THF     O1 9917   4.968   2.956   0.135 -0.2748 -0.3971 -0.1003
  533THF     C2 9918   5.106   2.968   0.105  0.5151 -0.2107 -0.1104
  533THF     C3 9919   4.959   2.904   0.266 -0.3309 -0.8285 -0.6235
  533THF     H4 9920   5.144   3.059   0.151  1.7182  0.6659 -2.6059
  533THF     H5 9921   5.118   2.985  -0.002 -0.5962 -1.5263 -0.4769
  533THF     H6 9922   4.941   2.997   0.321 -0.3154 -1.3233  0.2357
  533THF     H7 9923   4.884   2.828   0.284  0.3034 -1.3372 -0.0861
  533THF     C8 9924   5.099   2.853   0.309 -0.0206 -0.6763  0.0008
  533THF     C9 9925   5.156   2.843   0.169  0.2480  0.7389 -0.0117
  533THF    H10 9926   5.082   2.751   0.341 -2.9341 -0.3685 -0.3105
  533THF    H11 9927   5.161   2.911   0.377 -2.5069  3.3284 -0.7988
  533THF    H12 9928   5.265   2.837   0.168  0.2745  1.1188 -1.0958
  533THF    H13 9929   5.118   2.753   0.122 -0.0494  0.4048  0.8567
  534THF     O1 9930   0.582   5.408   3.443  0.0534  0.4605 -0.5472
  534THF     C2 9931   0.490   5.387   3.332 -0.4637 -0.6553  0.1182
  534THF     C3 9932   0.658   5.520   3.423  0.3461  0.9068 -0.7802
  534THF     H4 9933   0.394   5.344   3.362 -0.2896 -0.7618  0.5198
  534THF     H5 9934   0.547   5.327   3.261 -2.5221 -1.7897 -0.6789
  534THF     H6 9935   0.699   5.561   3.515  1.0312  0.0382 -0.6828
  534THF     H7 9936   0.745   5.496   3.362 -0.1031 -1.3783 -0.5997
  534THF     C8 9937   0.571   5.611   3.350 -0.1203  0.3815 -0.3316
  534THF     C9 9938   0.478   5.527   3.272 -0.2901  0.2969 -0.0536
  534THF    H10 9939   0.628   5.687   3.295 -1.4739  1.7942  0.1577
  534THF    H11 9940   0.513   5.673   3.418  0.7057 -0.8168  1.5289
  534THF    H12 9941   0.378   5.570   3.277 -0.0901  1.1787 -2.3319
  534THF    H13 9942   0.500   5.538   3.166  2.2880  3.6581  0.6627
  535THF     O1 9943   4.944   2.844   1.336 -0.2135 -0.5457 -0.4701
  535THF     C2 9944   4.957   2.914   1.460  0.2071 -0.2044  0.2327
  535THF     C3 9945   5.040   2.901   1.260 -0.6743 -0.6064  0.3512
  535THF     H4 9946   4.889   2.874   1.535 -0.2234 -0.2564 -0.1834
  535THF     H5 9947   4.916   3.014   1.446  0.4392  0.3218  2.7649
  535THF     H6 9948   5.066   2.852   1.166 -3.9352  0.1816 -1.0938
  535THF     H7 9949   5.002   2.996   1.222  0.3074 -0.3723 -0.0942
  535THF     C8 9950   5.162   2.926   1.352 -0.6114  0.5577 -0.2339
  535THF     C9 9951   5.106   2.922   1.495 -0.2968 -0.2913 -0.2869
  535THF    H10 9952   5.220   3.015   1.327  0.9868  0.1080  1.6834
  535THF    H11 9953   5.226   2.838   1.343 -0.4082  0.6622  0.1902
  535THF    H12 9954   5.151   2.837   1.546 -0.7265 -0.1759  0.2990
  535THF    H13 9955   5.119   3.015   1.551 -1.5077  0.7416 -1.6669
  536THF     O1 9956   0.299   2.457   3.247  0.2388  0.3796 -0.4632
  536THF     C2 9957   0.366   2.578   3.247 -0.5427 -0.5946 -0.6236
  536THF     C3 9958   0.225   2.465   3.367 -0.1300 -0.3602 -0.0467
  536THF     H4 9959   0.306   2.662   3.212 -1.2948 -0.2483  1.3474
  536THF     H5 9960   0.441   2.568   3.169 -1.5006 -2.3926 -1.3582
  536THF     H6 9961   0.150   2.544   3.363  1.2661  1.1473  1.8215
  536THF     H7 9962   0.178   2.367   3.377 -1.4533  0.2468 -0.1403
  536THF     C8 9963   0.335   2.498   3.467 -0.0857 -0.1451 -0.1881
  536THF     C9 9964   0.409   2.600   3.389 -0.3238  0.1119 -0.3477
  536THF    H10 9965   0.387   2.404   3.489  1.0797  0.0351 -2.0133
  536THF    H11 9966   0.288   2.547   3.552 -1.4852 -2.3128  0.3987
  536THF    H12 9967   0.368   2.698   3.412 -0.2570  0.3599 -1.2161
  536THF    H13 9968   0.518   2.607   3.398 -0.4019  0.8677  0.1076
  537THF     O1 9969   3.162   4.917   4.447 -0.2982 -0.1993 -0.4687
  537THF     C2 9970   3.196   4.998   4.558 -0.1336 -0.9356 -0.2607
  537THF     C3 9971   3.105   4.805   4.497 -0.0890  0.2841 -0.1887
  537THF     H4 9972   3.223   5.102   4.539  2.8583 -1.5334  0.1928
  537THF     H5 9973   3.291   4.962   4.597  0.6371  0.5310 -0.6716
  537THF     H6 9974   3.057   4.752   4.415 -2.0135 -0.2354  1.2191
  537THF     H7 9975   3.185   4.750   4.547  0.7048  1.9396  0.4675
  537THF     C8 9976   3.016   4.850   4.614  0.5025  0.1144  0.1580
  537THF     C9 9977   3.073   4.983   4.647  0.6733 -0.3166 -0.9172
  537THF    H10 9978   3.005   4.790   4.704 -1.3199  0.9908  0.5436
  537THF    H11 9979   2.920   4.863   4.565  0.8364  1.3575 -0.2135
  537THF    H12 9980   3.004   5.065   4.628  0.4755  0.8246  3.6575
  537THF    H13 9981   3.084   4.978   4.755 -0.4994  1.9349 -0.6512
  538THF     O1 9982   0.588   0.125   4.008  0.6775 -0.0096 -0.2942
  538THF     C2 9983   0.594   0.150   3.870  0.5619  0.0246  0.3512
  538THF     C3 9984   0.723   0.083   4.048 -0.0125  0.1670  0.2146
  538THF     H4 9985   0.649   0.240   3.844  2.6470 -0.9214  1.2277
  538THF     H5 9986   0.498   0.143   3.819  0.6171 -2.8201  0.4733
  538THF     H6 9987   0.779   0.154   4.109 -0.0327 -0.6169  1.1748
  538THF     H7 9988   0.728   0.003   4.122  4.0462  0.9365  1.0159
  538THF     C8 9989   0.786   0.030   3.924  0.0250  0.0828  0.8003
  538THF     C9 9990   0.680   0.041   3.814  0.2171  0.0906 -0.4740
  538THF    H10 9991   0.828  -0.070   3.930  2.1768  0.8155 -0.6045
  538THF    H11 9992   0.874   0.089   3.898  1.2217 -1.9549  0.0299
  538THF    H12 9993   0.728   0.067   3.720 -0.7388  0.6812 -0.8152
  538THF    H13 9994   0.631  -0.056   3.804  1.0748 -0.6747  1.9566
  539THF     O1 9995   2.424   0.893   0.491 -0.2269 -0.3231  0.3812
  539THF     C2 9996   2.510   0.801   0.560  0.1766  0.0942 -1.2500
  539THF     C3 9997   2.291   0.887   0.542  0.1159  0.9652 -0.1566
  539THF     H4 9998   2.616   0.817   0.545  1.1230 -3.3325  0.8271
  539THF     H5 9999   2.477   0.705   0.522  1.3293 -1.7647  2.0448
  539THF     H610000   2.255   0.990   0.537 -0.0768  0.8709 -0.8508
  539THF     H710001   2.220   0.828   0.484 -1.8703  0.3520  2.7048
  539THF     C810002   2.305   0.828   0.680 -0.6916  0.2001  0.5146
  539THF     C910003   2.455   0.820   0.704 -0.0009 -0.2042  0.9635
  539THF    H1010004   2.271   0.724   0.680  1.5429 -0.5928 -1.2560
  539THF    H1110005   2.238   0.878   0.750 -0.7433  0.5575  0.2061
  539THF    H1210006   2.484   0.916   0.746  0.3079 -0.0878  0.4930
  539THF    H1310007   2.483   0.751   0.783  1.3798  0.4765  1.1084
  540THF     O110008   3.498   3.693   5.483  0.2167 -0.0911 -0.9546
  540THF     C210009   3.534   3.559   5.457 -0.5057  0.2331 -0.0257
  540THF     C310010   3.561   3.726   5.605  0.7205 -0.2708 -0.6126
  540THF     H410011   3.640   3.549   5.437 -0.0653  2.0003  1.2591
  540THF     H510012   3.468   3.507   5.386  0.7589 -1.8759  0.2525
  540THF     H610013   3.657   3.767   5.575  1.1005 -0.1405  0.7429
  540THF     H710014   3.512   3.803   5.664  1.6501 -0.0740 -0.0773
  540THF     C810015   3.573   3.592   5.680 -0.8353 -0.2314 -0.0280
  540THF     C910016   3.513   3.493   5.596 -0.0431  0.0564 -0.1199
  540THF    H1010017   3.529   3.594   5.780  2.0662  2.0713  1.3533
  540THF    H1110018   3.679   3.571   5.698  0.0166  2.1886 -1.6898
  540THF    H1210019   3.560   3.395   5.597  1.4593  0.7503  1.1844
  540THF    H1310020   3.407   3.475   5.616  0.2417 -0.9788  0.5032
  541THF     O110021   3.776   5.152   1.647  0.0233 -0.0917  0.0337
  541THF     C210022   3.741   5.016   1.675 -0.4367  0.1658  0.0553
  541THF     C310023   3.696   5.238   1.727  0.1615  0.4448  0.2311
  541THF     H410024   3.793   4.983   1.765 -0.8404 -1.2877 -0.2236
  541THF     H510025   3.772   4.947   1.596 -1.5768 -1.9075  1.3301
  541THF     H610026   3.753   5.280   1.810  0.3483 -2.0240  1.4514
  541THF     H710027   3.666   5.319   1.660 -0.1015  0.8881  0.8840
  541THF     C810028   3.574   5.157   1.769  0.2212 -0.0603 -0.3571
  541THF     C910029   3.594   5.020   1.699  0.1085 -0.1492 -0.1497
  541THF    H1010030   3.479   5.199   1.736 -0.7908 -3.2931 -1.8786
  541THF    H1110031   3.586   5.140   1.876 -0.5078 -1.3875 -0.4740
  541THF    H1210032   3.562   4.931   1.753 -1.4784  1.0025  0.8933
  541THF    H1310033   3.548   5.019   1.600  2.6112 -0.8996 -1.4033
  542THF     O110034   0.208   2.070   2.564  0.2689 -0.1600 -0.2393
  542THF     C210035   0.210   1.947   2.502 -0.8556  0.2177  0.0840
  542THF     C310036   0.069   2.107   2.567  0.2308 -0.7187  0.6649
  542THF     H410037   0.310   1.904   2.510 -0.8297 -0.0585 -1.4976
  542THF     H510038   0.213   1.984   2.399 -1.6791  0.8978  0.2913
  542THF     H610039   0.041   2.192   2.631 -1.0051  1.0061 -1.9834
  542THF     H710040   0.040   2.137   2.467  0.8977  1.3538  1.0449
  542THF     C810041  -0.006   1.984   2.605 -0.3667 -0.0495 -0.2405
  542THF     C910042   0.086   1.877   2.551  0.7282  0.7600  0.5006
  542THF    H1010043  -0.106   1.980   2.561  0.3671  1.4720 -2.2138
  542THF    H1110044  -0.016   1.973   2.713 -1.6403  3.0314  0.0582
  542THF    H1210045   0.113   1.809   2.631 -3.1276  0.6759  1.9363
  542THF    H1310046   0.037   1.824   2.470  0.1957  0.1318  1.2219
  543THF     O110047   2.551   3.679   2.066 -0.0996 -0.1252 -0.1723
  543THF     C210048   2.529   3.723   2.198 -0.4501 -0.0704 -0.0643
  543THF     C310049   2.653   3.765   2.011 -0.0675 -0.3865  0.4221
  543THF     H410050   2.470   3.655   2.261  1.8628 -0.6010  1.6735
  543THF     H510051   2.465   3.811   2.207 -1.1169 -0.0009 -3.8195
  543THF     H610052   2.706   3.720   1.927 -2.5356  0.4976 -1.7500
  543THF     H710053   2.625   3.864   1.972  0.8595 -0.9463 -1.8185
  543THF     C810054   2.753   3.782   2.125  0.6481  0.2937  0.5846
  543THF     C910055   2.669   3.749   2.248 -0.4542 -0.2773 -0.2972
  543THF    H1010056   2.778   3.888   2.122  1.8469  0.0149  0.3421
  543THF    H1110057   2.848   3.730   2.127 -0.7244 -2.3726  0.6859
  543THF    H1210058   2.697   3.647   2.276  0.4201  0.4093  1.5146
  543THF    H1310059   2.658   3.819   2.332 -1.1110  0.7958 -1.2476
  544THF     O110060   3.170   2.502   2.174 -0.7188  0.2110 -0.4925
  544THF     C210061   3.131   2.454   2.048  0.5262 -0.1203  0.0456
  544THF     C310062   3.310   2.478   2.168  0.1029  0.2837 -1.0601
  544THF     H410063   3.124   2.536   1.975 -1.4618 -2.1221 -2.2079
  544THF     H510064   3.027   2.420   2.049  0.6143 -0.5423 -1.6781
  544THF     H610065   3.363   2.549   2.104 -0.3041 -1.5143 -3.5275
  544THF     H710066   3.355   2.466   2.267  0.5254 -1.6490 -1.4535
  544THF     C810067   3.327   2.334   2.114 -0.0198  0.4119  0.0850
  544THF     C910068   3.226   2.340   1.998  0.2451 -0.1098 -0.0589
  544THF    H1010069   3.299   2.264   2.193  0.5497 -0.4882 -0.4886
  544THF    H1110070   3.430   2.307   2.088  0.5313  1.7911  0.7529
  544THF    H1210071   3.285   2.362   1.909 -0.3134 -2.7942 -1.1803
  544THF    H1310072   3.189   2.238   1.992  1.5539 -0.7098  1.3113
  545THF     O110073   1.141   2.181   1.431 -0.1272 -0.7593 -0.1347
  545THF     C210074   1.025   2.207   1.500 -0.4266  0.5720 -0.2591
  545THF     C310075   1.240   2.260   1.492 -0.7238 -0.3191 -0.1156
  545THF     H410076   0.951   2.128   1.499 -1.3433  1.4124 -0.8904
  545THF     H510077   0.974   2.285   1.444  2.6534  1.8342 -1.5253
  545THF     H610078   1.338   2.223   1.463  0.4235 -0.1781  3.1461
  545THF     H710079   1.222   2.362   1.458 -1.5201 -0.3744  0.1176
  545THF     C810080   1.212   2.258   1.645  0.1535 -0.6089 -0.0873
  545THF     C910081   1.062   2.259   1.646  0.3192 -0.0373  0.3621
  545THF    H1010082   1.250   2.348   1.694 -2.9923  0.5391  0.4657
  545THF    H1110083   1.254   2.163   1.677 -0.9235 -1.7444 -1.8985
  545THF    H1210084   1.015   2.200   1.725  0.1672 -1.0876 -0.4882
  545THF    H1310085   1.030   2.363   1.651 -0.9361 -0.3646 -0.4320
  546THF     O110086   3.379   4.569   0.373  0.1507  0.1521 -0.3863
  546THF     C210087   3.239   4.571   0.387  0.2144  0.0591  0.1716
  546THF     C310088   3.429   4.434   0.387  0.0464 -0.3385 -0.0906
  546THF     H410089   3.201   4.600   0.289  1.8554  1.2852 -0.1387
  546THF     H510090   3.206   4.638   0.466 -1.8871  0.6351 -1.1094
  546THF     H610091   3.507   4.423   0.311  1.0364 -1.6286  1.0614
  546THF     H710092   3.479   4.425   0.483  0.0375  0.3604 -0.0160
  546THF     C810093   3.314   4.336   0.363  1.0219 -0.3247 -0.9702
  546THF     C910094   3.204   4.421   0.425 -1.1490  0.3595 -0.2184
  546THF    H1010095   3.318   4.235   0.403 -2.4060 -0.0333  0.4252
  546THF    H1110096   3.289   4.321   0.258 -2.6239 -2.2180  0.0075
  546THF    H1210097   3.104   4.399   0.389 -1.3276 -2.7352  1.8281
  546THF    H1310098   3.213   4.410   0.533 -0.5761  0.1221 -0.2874
  547THF     O110099   3.972   3.560   2.721  0.1241  0.2760 -0.2493
  547THF     C210100   3.873   3.660   2.735  0.2348 -0.5503 -0.0596
  547THF     C310101   4.028   3.554   2.856  0.7502  0.4583  0.5378
  547THF     H410102   3.798   3.642   2.658  0.3793  2.1225 -0.9074
  547THF     H510103   3.920   3.754   2.706 -0.1092 -0.2974  0.1977
  547THF     H610104   4.094   3.469   2.872  1.1561  1.0691  2.3759
  547THF     H710105   4.092   3.641   2.871 -0.1588  1.8091 -2.5450
  547THF     C810106   3.910   3.541   2.951 -0.1026  0.3660  0.2835
  547THF     C910107   3.822   3.646   2.886  0.1949 -0.7645  0.0139
  547THF    H1010108   3.929   3.567   3.055 -0.2653  1.0904  0.1412
  547THF    H1110109   3.862   3.445   2.934 -1.7368  0.8258  1.9793
  547THF    H1210110   3.716   3.618   2.886 -0.5035  1.6390  0.2349
  547THF    H1310111   3.820   3.744   2.934 -1.1767 -0.7332 -0.0534
  548THF     O110112   0.715   2.020   2.402 -0.2748  0.2071  0.0042
  548THF     C210113   0.725   1.977   2.537 -0.1537  0.1037 -0.1484
  548THF     C310114   0.590   2.089   2.397  0.6257 -0.0586  0.3188
  548THF     H410115   0.829   1.978   2.569 -0.3222 -1.7540  0.5498
  548THF     H510116   0.670   1.883   2.535 -0.4565  0.2513 -2.4729
  548THF     H610117   0.581   2.147   2.306 -1.8116 -0.4518  0.2360
  548THF     H710118   0.503   2.023   2.405 -1.0649  2.2293  2.9889
  548THF     C810119   0.594   2.178   2.520  0.3781  0.1188  0.4064
  548THF     C910120   0.638   2.079   2.620  0.3867  1.3104  0.1076
  548THF    H1010121   0.497   2.215   2.554  0.3194 -0.8879  1.3930
  548THF    H1110122   0.669   2.257   2.513  1.5975 -1.0737 -0.5008
  548THF    H1210123   0.687   2.120   2.708 -0.0948  1.2021  0.4288
  548THF    H1310124   0.551   2.028   2.662  0.8441 -0.0503 -0.5500
  549THF     O110125   2.634   4.586   4.711 -0.8951  0.2389 -0.1823
  549THF     C210126   2.686   4.654   4.822  0.3033 -0.5257 -0.9443
  549THF     C310127   2.518   4.654   4.664  0.0051  0.2787 -0.3686
  549THF     H410128   2.790   4.626   4.841  1.0476  2.9899  1.1320
  549THF     H510129   2.636   4.621   4.913 -0.2896 -0.9068 -1.4078
  549THF     H610130   2.500   4.610   4.566 -1.6351 -0.4492  0.2332
  549THF     H710131   2.427   4.647   4.724 -0.7119 -0.2170 -1.4830
  549THF     C810132   2.578   4.800   4.660 -0.8608  0.5089 -0.1456
  549THF     C910133   2.669   4.797   4.782  0.0928 -1.2090 -0.4613
  549THF    H1010134   2.502   4.874   4.687 -1.8029 -0.9575  1.4341
  549THF    H1110135   2.625   4.812   4.563  0.0212 -1.9973 -0.0941
  549THF    H1210136   2.771   4.835   4.773  0.0785  0.1194  3.2575
  549THF    H1310137   2.633   4.864   4.860  0.1611 -0.1391 -1.3207
  550THF     O110138   4.827   4.022   0.393  0.0682  0.2859  0.4385
  550THF     C210139   4.943   4.089   0.349 -0.0768 -1.0547  0.1035
  550THF     C310140   4.724   4.108   0.357 -1.2771 -0.5588  0.0576
  550THF     H410141   4.961   4.078   0.242  1.8531 -0.2388  0.3027
  550THF     H510142   5.035   4.057   0.398 -0.1721 -1.2292  0.1722
  550THF     H610143   4.714   4.125   0.250 -1.1934 -0.4655  0.0644
  550THF     H710144   4.620   4.083   0.378 -0.5934 -2.3722  1.5625
  550THF     C810145   4.774   4.234   0.419 -0.3067  0.1162  0.4626
  550THF     C910146   4.917   4.234   0.374 -0.5003 -0.6459 -0.3727
  550THF    H1010147   4.769   4.218   0.527 -0.8381 -1.2427  0.2520
  550THF    H1110148   4.705   4.311   0.383 -1.3141 -0.2335  1.5774
  550THF    H1210149   4.942   4.293   0.286  0.4964  0.0146  0.3319
  550THF    H1310150   4.980   4.274   0.453 -0.6410  0.4934 -0.8259
  551THF     O110151   2.803   0.177   2.116 -0.0392  0.4255 -0.3833
  551THF     C210152   2.676   0.157   2.062  0.6873  0.7021 -0.8117
  551THF     C310153   2.903   0.094   2.050  0.1607  0.1391  0.0922
  551THF     H410154   2.616   0.248   2.067  1.8092  1.4164  0.1395
  551THF     H510155   2.633   0.079   2.124  1.2664  0.8690 -0.1867
  551THF     H610156   3.004   0.132   2.064  0.5146  0.0484 -1.8747
  551THF     H710157   2.901  -0.008   2.086  1.9423 -0.2287 -0.7628
  551THF     C810158   2.846   0.096   1.905  0.5433  1.0326  0.7777
  551THF     C910159   2.693   0.101   1.919  0.0164  0.6188 -0.1328
  551THF    H1010160   2.896   0.013   1.855  0.4000  1.2703  0.2277
  551THF    H1110161   2.872   0.183   1.845 -1.0188  0.4094 -0.9527
  551THF    H1210162   2.646   0.170   1.849 -3.4590  1.0110  2.3537
  551THF    H1310163   2.665  -0.003   1.906  3.1929 -0.8525  3.0952
  552THF     O110164   2.193   1.329   1.760 -0.0613 -0.0050 -0.3619
  552THF     C210165   2.054   1.369   1.775  0.8592  0.1412  0.0863
  552THF     C310166   2.272   1.439   1.798 -1.1465 -0.8062  0.5970
  552THF     H410167   2.033   1.356   1.882 -2.0764  0.1508 -0.3932
  552THF     H510168   1.973   1.310   1.733  0.3670  1.9308 -1.6177
  552THF     H610169   2.266   1.440   1.907 -4.7865 -0.8205  0.4983
  552THF     H710170   2.374   1.438   1.758 -0.5067  0.5188  2.0597
  552THF     C810171   2.189   1.558   1.743 -0.5078  0.3444 -0.3549
  552THF     C910172   2.043   1.518   1.761  0.2926 -0.1150 -0.5996
  552THF    H1010173   2.219   1.573   1.639  1.0511 -0.4813 -0.0587
  552THF    H1110174   2.217   1.646   1.802  0.4479  1.2353 -2.0605
  552THF    H1210175   2.008   1.572   1.848  1.4371  3.5308 -2.2265
  552THF    H1310176   1.983   1.542   1.674 -0.8489 -3.4988 -0.9020
  553THF     O110177   5.419   1.391   3.390  0.3469  0.7693  0.2701
  553THF     C210178   5.535   1.431   3.458  0.2137  0.0685 -0.9515
  553THF     C310179   5.356   1.283   3.450 -0.2086 -0.3836  0.7285
  553THF     H410180   5.525   1.525   3.512 -1.5852 -0.9970  0.6857
  553THF     H510181   5.612   1.446   3.382  0.4753  0.9684 -0.5296
  553THF     H610182   5.300   1.327   3.532  0.1910 -0.9211  1.2934
  553THF     H710183   5.297   1.231   3.374  1.0670  1.4007 -1.6204
  553THF     C810184   5.480   1.204   3.498  0.9644  0.3015  0.3083
  553THF     C910185   5.572   1.318   3.550 -0.1450 -0.1101 -0.3235
  553THF    H1010186   5.530   1.144   3.422 -0.0448  0.8466 -0.8311
  553THF    H1110187   5.451   1.129   3.572 -0.1416  0.0055 -0.3951
  553THF    H1210188   5.552   1.343   3.654 -0.7784 -0.0694 -0.4509
  553THF    H1310189   5.680   1.309   3.539  0.0032 -0.4019  1.2181
  554THF     O110190   4.160   1.991   1.572 -0.3990 -0.0501  0.0350
  554THF     C210191   4.251   2.096   1.527  0.5341 -0.1103  0.1242
  554THF     C310192   4.201   1.947   1.703  0.5701  0.0189 -0.2679
  554THF     H410193   4.230   2.185   1.586 -1.8352 -0.7700  0.4112
  554THF     H510194   4.225   2.122   1.425 -1.9320 -2.4781  0.0215
  554THF     H610195   4.177   2.019   1.782 -1.0612 -0.5349 -0.2249
  554THF     H710196   4.161   1.850   1.730  2.8317 -0.7418  0.5629
  554THF     C810197   4.353   1.923   1.684 -0.0144 -0.0961 -0.2640
  554THF     C910198   4.378   2.015   1.564  0.1206  0.4676 -0.2605
  554THF    H1010199   4.360   1.817   1.658  1.8653  0.1699 -0.9484
  554THF    H1110200   4.419   1.946   1.767  0.2043  1.5440 -0.8522
  554THF    H1210201   4.471   2.071   1.570  1.2949 -0.9181 -3.4296
  554THF    H1310202   4.390   1.949   1.478 -1.9484  2.0687 -1.8774
  555THF     O110203   5.112   0.153   0.350 -0.4034  0.1781 -0.5350
  555THF     C210204   5.111   0.147   0.495 -0.3273 -0.3074  0.5279
  555THF     C310205   5.020   0.248   0.302  0.4415 -0.6151  0.2680
  555THF     H410206   5.211   0.164   0.535 -0.0294  1.7716 -0.9500
  555THF     H510207   5.073   0.056   0.541  2.5185 -1.0319  1.6587
  555THF     H610208   5.055   0.347   0.276 -0.7424  0.1354  1.4137
  555THF     H710209   4.969   0.209   0.214  0.5436  0.1885 -0.1489
  555THF     C810210   4.925   0.268   0.429 -0.0779  0.4912 -0.4209
  555THF     C910211   5.033   0.267   0.541 -0.1436 -0.3793  0.4437
  555THF    H1010212   4.860   0.185   0.453  0.2630  0.5287  0.6669
  555THF    H1110213   4.874   0.363   0.412 -1.0587 -0.1507 -1.1620
  555THF    H1210214   5.097   0.355   0.537  0.7120 -0.8238  2.8106
  555THF    H1310215   4.989   0.263   0.641 -0.2945  1.4024  0.4774
  556THF     O110216   4.450   1.665   3.321  0.0342  0.3691  0.4112
  556THF     C210217   4.414   1.550   3.389  0.5864  0.2033 -0.3290
  556THF     C310218   4.570   1.629   3.254 -0.0143 -0.3691 -0.3622
  556THF     H410219   4.306   1.540   3.388  0.5617 -0.8132  2.3968
  556THF     H510220   4.458   1.556   3.489  2.2743  1.6407 -1.1022
  556THF     H610221   4.606   1.713   3.195 -1.0730  2.0138  2.1788
  556THF     H710222   4.647   1.615   3.331  0.7052  1.7897 -0.6117
  556THF     C810223   4.536   1.496   3.186  0.1395  0.0411  0.1379
  556THF     C910224   4.467   1.431   3.304 -0.2093  0.4544 -0.1254
  556THF    H1010225   4.619   1.443   3.138 -0.8512  0.4170 -2.1360
  556THF    H1110226   4.464   1.509   3.105  0.3946  0.2236 -0.0613
  556THF    H1210227   4.403   1.347   3.275  3.1321 -1.6396 -2.1070
  556THF    H1310228   4.535   1.372   3.367 -1.8217  0.2087  1.4873
  557THF     O110229   3.493   4.066   2.603  1.0035  0.3188 -0.2802
  557THF     C210230   3.593   4.127   2.676 -0.9869  0.4175  0.2374
  557THF     C310231   3.497   3.922   2.640 -0.6084 -0.0033  0.1164
  557THF     H410232   3.546   4.203   2.738  2.1907 -0.1619  3.7440
  557THF     H510233   3.663   4.173   2.606  0.8823 -2.2869  0.1897
  557THF     H610234   3.399   3.874   2.641 -0.5968 -0.0574 -0.5537
  557THF     H710235   3.565   3.870   2.572  1.3049  4.1265 -1.4843
  557THF     C810236   3.560   3.921   2.779  0.3655 -0.0404 -1.1810
  557THF     C910237   3.663   4.028   2.768  0.2399  0.3900  0.4716
  557THF    H1010238   3.605   3.827   2.811  3.2051  1.6815  0.3154
  557THF    H1110239   3.490   3.958   2.854  0.7802 -0.3096 -0.6508
  557THF    H1210240   3.712   4.067   2.857  0.6079  0.8505  0.0757
  557THF    H1310241   3.741   3.979   2.710 -0.0868  1.4870 -0.9594
  558THF     O110242   3.548   2.566   5.184 -0.3426  0.2215 -0.0689
  558THF     C210243   3.679   2.620   5.205  0.0325  0.0828  1.0144
  558THF     C310244   3.561   2.478   5.073  0.1114 -0.5762 -0.1917
  558THF     H410245   3.711   2.627   5.310  2.9740  1.0762  0.1479
  558THF     H510246   3.678   2.722   5.168 -0.9357 -0.4743 -0.5856
  558THF     H610247   3.483   2.402   5.067 -2.1316  1.6407 -0.6145
  558THF     H710248   3.565   2.534   4.980  1.3620 -0.6991 -0.2283
  558THF     C810249   3.699   2.406   5.095 -1.1416  0.2724 -0.4664
  558THF     C910250   3.785   2.524   5.133  0.1772 -0.3462  0.3684
  558THF    H1010251   3.736   2.350   5.009  2.5283 -1.5196  2.0296
  558THF    H1110252   3.685   2.348   5.186  1.6085  0.3285  0.0663
  558THF    H1210253   3.868   2.509   5.202 -0.2969 -0.6598  0.8849
  558THF    H1310254   3.824   2.579   5.048 -1.6249 -0.6817 -0.7235
  559THF     O110255   2.727   2.181   3.166 -0.9099 -0.8655 -0.0650
  559THF     C210256   2.819   2.097   3.098 -0.3791 -0.4863 -0.1057
  559THF     C310257   2.611   2.194   3.087  0.2494 -0.3826  0.0101
  559THF     H410258   2.798   1.990   3.110 -2.3028 -0.1293  0.0020
  559THF     H510259   2.924   2.111   3.121 -0.7982 -0.2284  1.7810
  559THF     H610260   2.553   2.105   3.109 -0.3626  0.7989  3.9880
  559THF     H710261   2.546   2.273   3.124 -2.4715 -1.5962 -1.9362
  559THF     C810262   2.661   2.189   2.941  0.6491  0.2334 -0.0481
  559THF     C910263   2.796   2.121   2.946  0.0271  0.0323 -0.3392
  559THF    H1010264   2.660   2.294   2.914  0.8758  0.1179 -0.5245
  559THF    H1110265   2.600   2.134   2.870 -0.9828 -0.0774  1.5364
  559THF    H1210266   2.772   2.027   2.896 -0.9542 -0.5956  1.2199
  559THF    H1310267   2.867   2.178   2.886 -2.8290  1.8309 -2.2983
  560THF     O110268   2.739   5.293   3.803  0.5093  0.7845  0.3416
  560THF     C210269   2.616   5.362   3.829 -0.3950 -0.4389  0.5912
  560THF     C310270   2.801   5.270   3.929  0.4624 -0.0742 -0.1859
  560THF     H410271   2.547   5.325   3.753 -0.9656 -1.1616  1.4355
  560THF     H510272   2.633   5.469   3.815  2.1322 -1.0268 -1.5757
  560THF     H610273   2.864   5.181   3.925  2.2952  1.1531  0.2605
  560THF     H710274   2.858   5.358   3.958  0.3356 -0.7819  2.4349
  560THF     C810275   2.679   5.238   4.016  0.1107  0.2888  0.4619
  560THF     C910276   2.578   5.336   3.970  0.1024 -0.1608  1.0254
  560THF    H1010277   2.698   5.252   4.122  0.5931 -0.7400  0.5172
  560THF    H1110278   2.646   5.135   4.006 -0.7005  0.4180  1.5816
  560THF    H1210279   2.485   5.281   3.983  0.1974 -0.5262  0.2393
  560THF    H1310280   2.560   5.419   4.039  0.9330 -1.0742  2.3858
  561THF     O110281   4.965   1.323   2.982  0.6150  0.0202 -0.1408
  561THF     C210282   5.032   1.410   3.070  0.5414 -0.3367 -0.1952
  561THF     C310283   5.063   1.253   2.909 -0.0214 -1.1837  0.1109
  561THF     H410284   4.967   1.429   3.156  0.8917  0.5817 -0.1204
  561THF     H510285   5.039   1.499   3.009 -1.7602 -0.4479 -0.7123
  561THF     H610286   5.041   1.146   2.910 -2.2074 -0.7986 -0.2251
  561THF     H710287   5.071   1.285   2.805  1.7055 -0.6459  0.3770
  561THF     C810288   5.198   1.271   2.978 -0.2390  0.2743 -0.5778
  561THF     C910289   5.161   1.336   3.106  0.0429 -0.4125 -0.1690
  561THF    H1010290   5.265   1.339   2.927  2.4272  0.1809  2.4306
  561THF    H1110291   5.259   1.182   2.998 -0.3657 -0.0777 -1.7205
  561THF    H1210292   5.146   1.273   3.194 -0.8283 -2.9610 -2.0615
  561THF    H1310293   5.243   1.402   3.137  1.7288 -1.8301 -1.4498
  562THF     O110294   2.842   1.085   2.160 -0.0139 -0.0287 -0.1440
  562THF     C210295   2.969   1.106   2.092 -0.2217 -0.6700  0.7660
  562THF     C310296   2.738   1.084   2.056  0.1821  0.0401 -0.0760
  562THF     H410297   3.053   1.084   2.158  2.1330  1.8690 -1.1707
  562THF     H510298   2.989   1.210   2.067 -1.6438 -0.1724  1.5636
  562THF     H610299   2.648   1.035   2.093  0.1356  0.7750  0.8404
  562THF     H710300   2.713   1.188   2.033  1.6226  0.8976  1.9224
  562THF     C810301   2.818   1.031   1.935 -0.2667  0.0884  0.0723
  562THF     C910302   2.962   1.005   1.974  1.0950  0.0379  0.0119
  562THF    H1010303   2.824   1.105   1.855 -0.5232 -1.6802 -1.6656
  562THF    H1110304   2.765   0.943   1.897 -0.5613  0.3248 -0.0722
  562THF    H1210305   2.980   0.904   2.010  1.5255  0.6882  1.7521
  562THF    H1310306   3.030   1.035   1.894  0.9800  0.4389  0.0590
  563THF     O110307   1.336   3.239   4.668 -0.8392  0.3342  0.1773
  563THF     C210308   1.366   3.253   4.802  0.5110 -0.4450 -0.4354
  563THF     C310309   1.248   3.128   4.645 -0.1147  0.6840  0.7507
  563THF     H410310   1.324   3.340   4.853  0.5014  0.4219 -1.8616
  563THF     H510311   1.472   3.266   4.824  0.6067 -1.0440 -0.5418
  563THF     H610312   1.149   3.174   4.652 -0.2572  1.1065 -2.4895
  563THF     H710313   1.262   3.087   4.545  0.8002  0.2345  1.0571
  563THF     C810314   1.291   3.035   4.755  0.3622  0.5609  0.5746
  563THF     C910315   1.329   3.117   4.868 -0.0373  0.4420 -0.0884
  563THF    H1010316   1.367   2.962   4.726  0.4766  0.6726  0.5948
  563THF    H1110317   1.198   2.979   4.758 -0.3806  1.5932 -1.3420
  563THF    H1210318   1.248   3.137   4.938 -0.0896 -1.0217  0.3037
  563THF    H1310319   1.415   3.075   4.919  2.1237  0.6583 -3.2483
  564THF     O110320   2.546   2.048   2.478 -0.2960 -0.0555 -0.0151
  564THF     C210321   2.611   1.946   2.408  0.3801 -0.4240 -0.1383
  564THF     C310322   2.469   1.977   2.571 -0.0504 -0.1226  0.1215
  564THF     H410323   2.695   1.980   2.347  0.2990 -1.3555 -0.7924
  564THF     H510324   2.542   1.901   2.337  0.8386 -0.1384 -0.7794
  564THF     H610325   2.431   2.039   2.651 -3.1202 -1.2867 -0.3063
  564THF     H710326   2.384   1.921   2.530  1.1696 -0.7989 -1.6096
  564THF     C810327   2.573   1.888   2.632  0.1077 -0.0806  0.5815
  564THF     C910328   2.655   1.847   2.516  0.1338 -0.4458 -0.4343
  564THF    H1010329   2.523   1.803   2.678 -1.7339 -0.8121 -2.5057
  564THF    H1110330   2.631   1.944   2.706 -2.4510  0.6345  2.1445
  564THF    H1210331   2.758   1.875   2.538 -0.1393 -0.8246  1.4739
  564THF    H1310332   2.634   1.743   2.489  1.1667 -0.9451  0.5571
  565THF     O110333   5.351   2.576   1.997  0.5477 -0.1911  0.2983
  565THF     C210334   5.282   2.702   2.021  0.7935  0.6191 -0.0386
  565THF     C310335   5.339   2.539   1.854 -0.0177 -0.3335  0.1570
  565THF     H410336   5.357   2.780   2.036  0.6528  0.4664  1.6138
  565THF     H510337   5.211   2.695   2.103  1.1850  2.1094  0.4656
  565THF     H610338   5.427   2.484   1.821 -0.9087 -0.5937 -1.9543
  565THF     H710339   5.258   2.466   1.854 -1.5576  1.3116 -0.4186
  565THF     C810340   5.305   2.662   1.773  0.6356  0.2851 -0.7650
  565THF     C910341   5.216   2.735   1.882 -0.4932  1.3143 -0.3087
  565THF    H1010342   5.246   2.650   1.681  3.3957  1.1243 -2.7601
  565THF    H1110343   5.387   2.728   1.747  0.8441  0.7716  0.9857
  565THF    H1210344   5.209   2.842   1.863  1.1621  1.6522  0.7389
  565THF    H1310345   5.123   2.681   1.873  0.7597 -1.2709  1.0336
  566THF     O110346   5.004   3.308   1.429  0.3934  0.1693  0.3010
  566THF     C210347   5.116   3.388   1.462 -0.0549  0.1758  0.5364
  566THF     C310348   4.979   3.324   1.287 -0.3355 -0.6799 -0.0945
  566THF     H410349   5.172   3.350   1.547  0.9437  0.8376  0.1959
  566THF     H510350   5.102   3.496   1.456  1.0661  0.2678 -1.1254
  566THF     H610351   4.911   3.248   1.249 -1.0137 -0.3380  0.4245
  566THF     H710352   4.939   3.421   1.258 -1.6125 -0.5719  1.8493
  566THF     C810353   5.119   3.299   1.237 -0.6821  0.0123  0.2844
  566THF     C910354   5.209   3.347   1.346 -0.7978  0.0402  0.3852
  566THF    H1010355   5.137   3.359   1.147  1.4257 -0.1762  0.5397
  566THF    H1110356   5.150   3.198   1.213  1.4766  0.6784  0.0504
  566THF    H1210357   5.266   3.260   1.378 -1.4836 -0.3627  0.5335
  566THF    H1310358   5.278   3.430   1.328 -0.1392 -0.4945  0.3743
  567THF     O110359   1.025   1.084   1.760 -0.6018  0.2082  0.7496
  567THF     C210360   0.977   1.185   1.671 -0.4750 -0.1897 -0.3721
  567THF     C310361   1.161   1.105   1.790  0.2333 -0.0127 -0.0582
  567THF     H410362   0.878   1.215   1.707 -0.2787 -0.9865  0.9041
  567THF     H510363   0.977   1.155   1.566  1.0352  0.9075 -0.7091
  567THF     H610364   1.180   1.048   1.880 -1.7547 -0.9635 -0.2005
  567THF     H710365   1.232   1.074   1.714 -0.5469 -0.2690 -0.6957
  567THF     C810366   1.174   1.261   1.795  0.1029 -0.1841 -0.1152
  567THF     C910367   1.073   1.305   1.692  0.3783 -0.0917 -0.1121
  567THF    H1010368   1.269   1.305   1.767  1.1377 -1.6610  0.9261
  567THF    H1110369   1.154   1.293   1.897 -0.9140 -1.2196  0.0421
  567THF    H1210370   1.022   1.394   1.729 -0.5897 -0.5512 -0.2954
  567THF    H1310371   1.109   1.344   1.597 -0.6917  3.8367  0.8701
  568THF     O110372   5.129   4.960   3.654 -0.1461 -0.8232  0.2936
  568THF     C210373   5.029   5.058   3.653 -0.2954 -0.5444 -1.0482
  568THF     C310374   5.193   4.963   3.529  0.1954 -0.1826 -0.4746
  568THF     H410375   5.085   5.144   3.691 -0.9776 -0.4244 -0.2625
  568THF     H510376   4.955   5.036   3.730  1.8228 -3.3150  0.3650
  568THF     H610377   5.276   5.034   3.525  0.9685 -1.0302 -0.0644
  568THF     H710378   5.247   4.870   3.509 -1.0245 -0.9019 -0.5046
  568THF     C810379   5.086   4.995   3.427  0.4045  0.4972 -0.4403
  568THF     C910380   4.972   5.052   3.517  0.2068  0.2054 -0.0157
  568THF    H1010381   5.057   4.897   3.389  1.7323 -1.0033  2.1157
  568THF    H1110382   5.119   5.065   3.350 -1.1807 -1.4927 -3.0947
  568THF    H1210383   4.925   5.145   3.484  0.3882 -0.4710 -2.3988
  568THF    H1310384   4.887   4.986   3.497  0.7235 -0.6334  0.4798
  569THF     O110385   2.922   1.130   0.239  0.4380 -0.5496  0.7091
  569THF     C210386   2.878   1.112   0.368 -0.5326 -0.5925 -0.0082
  569THF     C310387   2.860   1.023   0.164 -0.2116  0.3178  0.1682
  569THF     H410388   2.779   1.155   0.361  0.1534  0.8613 -1.7078
  569THF     H510389   2.940   1.169   0.438 -0.5887  0.6375 -0.9121
  569THF     H610390   2.765   1.055   0.120  0.0366 -1.1726 -1.5590
  569THF     H710391   2.921   0.993   0.079 -2.3403 -1.6347 -0.7725
  569THF     C810392   2.824   0.914   0.265  0.2366 -0.4722 -0.4515
  569THF     C910393   2.872   0.963   0.398 -0.4799 -0.7001 -0.0557
  569THF    H1010394   2.869   0.817   0.244 -0.9662 -0.8745 -1.2886
  569THF    H1110395   2.717   0.897   0.264  0.1707 -0.1325  0.0625
  569THF    H1210396   2.803   0.938   0.478 -0.3265  2.6423  1.2872
  569THF    H1310397   2.971   0.920   0.416  0.9464  2.9356  2.0721
  570THF     O110398   0.490   3.494   0.385 -0.2860  0.3029 -0.6942
  570THF     C210399   0.434   3.507   0.254 -0.1301 -0.2488 -0.1197
  570THF     C310400   0.388   3.432   0.464 -0.3142 -0.0021 -0.5161
  570THF     H410401   0.456   3.410   0.210 -0.2689 -1.3550  2.0672
  570THF     H510402   0.477   3.583   0.189 -0.8491 -1.1680 -1.7193
  570THF     H610403   0.400   3.324   0.450  0.7832 -0.0435  0.5629
  570THF     H710404   0.402   3.449   0.571 -1.0103  2.0037 -0.7054
  570THF     C810405   0.264   3.493   0.419  0.2310 -0.5219  0.5200
  570THF     C910406   0.280   3.518   0.271  1.1756  0.5887 -0.9185
  570THF    H1010407   0.253   3.593   0.461 -0.6237 -1.3244  2.2944
  570THF    H1110408   0.168   3.447   0.439 -0.5577  0.6432 -0.4619
  570THF    H1210409   0.237   3.434   0.217 -1.1281 -0.6084  2.5205
  570THF    H1310410   0.230   3.609   0.236 -2.2676 -1.7720 -2.7443
  571THF     O110411   5.110   0.886   0.275 -0.4882  0.4451  0.8142
  571THF     C210412   5.037   0.865   0.395  0.3836  0.2527  0.2946
  571THF     C310413   5.230   0.811   0.286  0.4802 -0.3316 -0.5657
  571THF     H410414   4.931   0.849   0.370  0.7088 -0.6361 -0.6184
  571THF     H510415   5.041   0.947   0.466 -0.8704  0.0360  0.6473
  571THF     H610416   5.249   0.789   0.181  0.7204 -0.6754 -0.4528
  571THF     H710417   5.311   0.865   0.334  0.6125 -0.8305 -0.2140
  571THF     C810418   5.188   0.688   0.367  0.3268  0.2839  0.6434
  571THF     C910419   5.098   0.745   0.470  0.8019 -0.1882 -0.2032
  571THF    H1010420   5.283   0.641   0.394  3.3178  4.4191 -1.4787
  571THF    H1110421   5.143   0.630   0.286  2.9594 -0.0228 -0.7486
  571THF    H1210422   5.016   0.682   0.503 -0.7763  1.6675 -0.4442
  571THF    H1310423   5.151   0.769   0.562 -0.7591 -1.5357  1.1238
  572THF     O110424   2.880   1.579   4.779 -0.2038  0.7738  0.0822
  572THF     C210425   2.938   1.656   4.679  0.2019  0.2543 -0.5980
  572THF     C310426   2.765   1.652   4.827  0.2964 -0.2948 -0.5536
  572THF     H410427   3.015   1.607   4.620 -0.1870 -0.6194 -0.4011
  572THF     H510428   2.984   1.742   4.728 -1.0063  1.8460 -2.0903
  572THF     H610429   2.701   1.589   4.888  0.7531 -1.1626 -0.9587
  572THF     H710430   2.789   1.729   4.901  0.4372 -1.7100  0.9337
  572THF     C810431   2.704   1.703   4.705 -0.5812  0.0705 -0.4429
  572THF     C910432   2.821   1.724   4.606  0.8992 -0.0296  0.3388
  572THF    H1010433   2.643   1.793   4.711  1.4577  2.0000 -4.3617
  572THF    H1110434   2.621   1.643   4.669 -1.2131  0.7361 -0.1053
  572THF    H1210435   2.803   1.682   4.506  3.2596  0.1925 -0.2517
  572THF    H1310436   2.836   1.831   4.590 -0.1726  0.0872  0.0354
  573THF     O110437   2.127   2.504   0.964  0.4703 -0.1547  0.6919
  573THF     C210438   2.218   2.422   0.898 -0.0196  0.7384 -0.2951
  573THF     C310439   2.004   2.442   0.967  0.0808 -0.4617 -0.7436
  573THF     H410440   2.264   2.345   0.960  1.9002  1.0108 -1.3063
  573THF     H510441   2.290   2.480   0.841 -1.7659  1.1113 -2.2546
  573THF     H610442   1.965   2.435   1.068  0.5925  4.3391  0.0229
  573THF     H710443   1.934   2.506   0.911  0.2621 -1.3911 -2.0807
  573THF     C810444   2.014   2.311   0.884  0.6874 -0.2604 -0.0321
  573THF     C910445   2.130   2.353   0.796 -0.1022  0.0974 -0.1021
  573THF    H1010446   1.923   2.288   0.828  0.9408  0.4187 -0.7401
  573THF    H1110447   2.037   2.214   0.929 -1.5425 -1.1577 -0.6664
  573THF    H1210448   2.182   2.267   0.754  2.4870  2.7762 -2.9205
  573THF    H1310449   2.105   2.420   0.713  0.7754  0.0769 -0.3945
  574THF     O110450   5.167   1.812   0.596 -0.1242  0.3473  0.8710
  574THF     C210451   5.133   1.678   0.576 -0.1841 -0.7336  0.6079
  574THF     C310452   5.303   1.833   0.561 -0.8710 -0.0067  0.1600
  574THF     H410453   5.082   1.655   0.482  0.5496  0.0749 -0.0052
  574THF     H510454   5.068   1.655   0.660  1.0896 -0.0675  1.8087
  574THF     H610455   5.298   1.898   0.473 -0.6046 -0.1267  0.0560
  574THF     H710456   5.357   1.881   0.642 -0.1470  1.5287 -1.1646
  574THF     C810457   5.366   1.705   0.528 -0.7586 -0.2667  0.2154
  574THF     C910458   5.266   1.607   0.585  0.1612  0.7061  0.3951
  574THF    H1010459   5.457   1.698   0.586 -0.0705  1.4444 -0.5620
  574THF    H1110460   5.383   1.691   0.421 -0.7179  0.6105  0.0956
  574THF    H1210461   5.276   1.518   0.524 -0.6063 -1.6816  3.4761
  574THF    H1310462   5.293   1.583   0.688 -0.3739  0.1516  0.4099
  575THF     O110463   4.930   1.409   0.486  0.2404  0.0855 -0.8223
  575THF     C210464   5.033   1.358   0.410  0.0522 -0.3118  1.1338
  575THF     C310465   4.882   1.310   0.577 -0.1132 -0.2392 -0.3654
  575THF     H410466   5.108   1.429   0.375  0.7573 -1.6475 -0.1770
  575THF     H510467   4.994   1.315   0.318 -0.8531  0.6798  1.0286
  575THF     H610468   4.823   1.363   0.651  0.7340 -1.9107  1.6020
  575THF     H710469   4.819   1.231   0.535  0.3953 -0.6497 -0.3717
  575THF     C810470   5.012   1.267   0.637  0.6259 -0.0032 -0.2569
  575THF     C910471   5.108   1.281   0.518 -0.1158 -0.5477 -0.2154
  575THF    H1010472   5.002   1.166   0.677 -1.9485 -0.9828 -2.9923
  575THF    H1110473   5.038   1.337   0.716 -0.8876 -0.8921  1.0860
  575THF    H1210474   5.198   1.333   0.552  0.4509 -0.7631 -1.3442
  575THF    H1310475   5.147   1.185   0.484  2.0059 -0.3944  1.5973
  576THF     O110476   5.066   5.111   1.741 -0.1095  0.5071 -0.2647
  576THF     C210477   5.096   5.152   1.867 -0.1127  0.0469 -0.1779
  576THF     C310478   5.072   4.969   1.730  0.6012  0.6375  0.3442
  576THF     H410479   5.061   5.253   1.889 -1.7012 -0.7880  1.4441
  576THF     H510480   5.202   5.144   1.890 -0.7614 -0.6305  3.2538
  576THF     H610481   5.001   4.925   1.659  0.9223 -0.5748  0.7526
  576THF     H710482   5.172   4.943   1.696  0.2835  0.7172 -0.7002
  576THF     C810483   5.040   4.925   1.876 -0.2346  0.1425  0.0738
  576THF     C910484   5.017   5.051   1.950 -0.2611 -0.5720 -0.1437
  576THF    H1010485   5.126   4.880   1.926 -0.4373 -0.2457  0.0753
  576THF    H1110486   4.956   4.855   1.874 -0.9061  0.9142  0.6524
  576THF    H1210487   4.917   5.094   1.948 -0.2787 -0.3806  2.3866
  576THF    H1310488   5.048   5.053   2.054  0.4565 -0.9182 -0.3439
  577THF     O110489   2.504   1.019   3.643 -0.3878 -0.1130 -0.0402
  577THF     C210490   2.387   1.097   3.622 -0.0376 -0.4571  0.2449
  577THF     C310491   2.503   0.915   3.548  1.0197  0.4121  0.1487
  577THF     H410492   2.408   1.196   3.664 -0.9119  0.0824 -0.5532
  577THF     H510493   2.303   1.058   3.678  1.4350 -1.2582  1.9978
  577THF     H610494   2.597   0.923   3.494  0.2922  2.8570 -0.8986
  577THF     H710495   2.480   0.817   3.591 -3.5256  0.6755 -1.2037
  577THF     C810496   2.390   0.946   3.443 -0.0490  0.4772  0.2333
  577THF     C910497   2.350   1.091   3.470 -0.9597 -0.0335  0.4634
  577THF    H1010498   2.300   0.888   3.463  0.8740 -0.8135  0.8317
  577THF    H1110499   2.418   0.929   3.339  0.0629  1.1981  0.1368
  577THF    H1210500   2.428   1.146   3.417 -0.7504 -1.6524 -1.0097
  577THF    H1310501   2.253   1.124   3.433  0.0166  0.6367 -1.6628
  578THF     O110502   3.594   1.166   3.043 -0.4435  0.0561 -0.1227
  578THF     C210503   3.645   1.132   2.916  0.2842  0.1010 -0.1962
  578THF     C310504   3.578   1.043   3.119  0.0964 -0.7153 -0.3472
  578THF     H410505   3.750   1.113   2.937  0.0804 -1.0596 -0.2078
  578THF     H510506   3.633   1.217   2.848 -0.9920  2.5041  2.7515
  578THF     H610507   3.675   1.016   3.162  0.8925 -0.7121 -2.0452
  578THF     H710508   3.513   1.062   3.205  0.4395  3.7312 -0.8605
  578THF     C810509   3.539   0.935   3.021 -0.6502 -0.2547  0.1942
  578THF     C910510   3.574   0.996   2.882 -0.0823  0.6068 -0.3935
  578THF    H1010511   3.432   0.913   3.019 -0.8802  0.2760  2.8607
  578THF    H1110512   3.590   0.841   3.038  1.9803  0.9799 -0.4534
  578THF    H1210513   3.640   0.939   2.817  0.9693 -0.8330  1.8007
  578THF    H1310514   3.483   1.017   2.825 -0.1698  0.2923 -0.3735
  579THF     O110515   4.866   1.569   4.613 -0.3178  0.4687 -0.1227
  579THF     C210516   4.906   1.646   4.717 -1.0205 -0.4057  0.4678
  579THF     C310517   4.871   1.654   4.494 -0.1792 -0.2720  0.2138
  579THF     H410518   5.013   1.635   4.736 -0.4232  2.8869 -0.4094
  579THF     H510519   4.864   1.605   4.809 -3.6954  2.0308  0.4694
  579THF     H610520   4.977   1.667   4.472  0.1442 -0.0986  1.7028
  579THF     H710521   4.810   1.608   4.417 -1.3083 -0.3997  1.1521
  579THF     C810522   4.812   1.781   4.543 -0.0574 -0.4699 -0.1766
  579THF     C910523   4.875   1.791   4.685  0.7098 -0.1148  0.2238
  579THF    H1010524   4.706   1.780   4.568  0.6473  0.5287  3.4541
  579THF    H1110525   4.820   1.867   4.476  3.0380  1.3122  2.1783
  579THF    H1210526   4.967   1.849   4.676  2.0321 -2.0797  0.3705
  579THF    H1310527   4.812   1.836   4.761 -1.2549 -0.8719 -0.8817
  580THF     O110528   2.911   4.954   5.065  0.0774 -0.1341 -0.4521
  580THF     C210529   2.844   4.848   5.134 -0.0042  0.1348 -0.5838
  580THF     C310530   3.050   4.958   5.106  0.3064 -0.5247  0.5847
  580THF     H410531   2.870   4.752   5.091  2.4888  0.3709  0.2388
  580THF     H510532   2.735   4.853   5.132 -0.3885 -3.4783  2.0825
  580THF     H610533   3.101   4.898   5.031 -0.4304  1.0799 -1.2606
  580THF     H710534   3.095   5.057   5.100  0.9132 -0.5149  3.6081
  580THF     C810535   3.036   4.900   5.251 -0.0796  0.0384 -0.0395
  580THF     C910536   2.890   4.860   5.275  0.4072 -0.1218 -0.3446
  580THF    H1010537   3.048   4.975   5.329 -0.9900  1.3433 -1.1046
  580THF    H1110538   3.101   4.814   5.265 -0.1372  0.1536  0.9579
  580THF    H1210539   2.878   4.779   5.347  0.5566 -0.2235 -0.4330
  580THF    H1310540   2.831   4.942   5.315 -1.6080 -1.7311  0.1929
  581THF     O110541   2.612   1.927   5.258 -0.3976  0.0499  0.3093
  581THF     C210542   2.563   1.815   5.182  0.4762  0.3979  0.2820
  581THF     C310543   2.749   1.906   5.298 -0.1660 -0.5274  0.2342
  581THF     H410544   2.539   1.847   5.081 -2.5736 -1.0401  0.4401
  581THF     H510545   2.468   1.776   5.219  0.9502 -1.4361 -0.3075
  581THF     H610546   2.806   1.997   5.279  0.5501 -0.9260  0.4516
  581THF     H710547   2.753   1.880   5.404 -0.0829  1.4055  0.7435
  581THF     C810548   2.803   1.799   5.206  0.0367 -0.8540 -0.8043
  581THF     C910549   2.677   1.712   5.188 -0.1691  0.2213 -0.1150
  581THF    H1010550   2.884   1.749   5.259 -0.2746 -0.2606  0.2465
  581THF    H1110551   2.842   1.834   5.110  2.0990  0.1033  0.3312
  581THF    H1210552   2.684   1.649   5.099  2.8104  1.7756 -1.1402
  581THF    H1310553   2.686   1.649   5.276  0.3172 -2.4944 -1.9657
  582THF     O110554   3.004   3.376   5.277 -0.2924  0.7228 -0.7355
  582THF     C210555   2.940   3.293   5.374  0.0797 -0.4034 -0.1157
  582THF     C310556   3.118   3.300   5.238 -0.0363  0.8660 -0.2984
  582THF     H410557   2.890   3.209   5.327  2.3908 -1.0413 -1.5295
  582THF     H510558   2.875   3.359   5.433  0.4538  0.4688 -0.6648
  582THF     H610559   3.088   3.209   5.186  0.9718  0.8020 -0.7892
  582THF     H710560   3.179   3.354   5.166 -0.3963 -0.9428 -2.0501
  582THF     C810561   3.172   3.264   5.381 -0.3393 -0.0496  0.1379
  582THF     C910562   3.048   3.225   5.451  0.0777 -1.0621 -0.0388
  582THF    H1010563   3.224   3.347   5.430  1.3169 -0.3058 -1.1340
  582THF    H1110564   3.230   3.172   5.385  2.6905  1.7259  0.3390
  582THF    H1210565   3.020   3.119   5.445 -1.2624 -0.8092  1.1967
  582THF    H1310566   3.069   3.260   5.552  2.6313 -1.1132 -0.4865
  583THF     O110567   4.754   0.648   4.298 -0.7372 -0.3744  0.1117
  583THF     C210568   4.809   0.772   4.270  0.3076 -0.7940 -0.1609
  583THF     C310569   4.671   0.664   4.408  0.3988  0.4642 -0.3452
  583THF     H410570   4.811   0.788   4.163 -0.9748  1.3710  0.0711
  583THF     H510571   4.911   0.785   4.305 -0.1778  0.6093  0.8428
  583THF     H610572   4.610   0.573   4.405 -0.4340  1.0087 -0.3114
  583THF     H710573   4.721   0.660   4.504 -1.5903  0.6986  0.7588
  583THF     C810574   4.605   0.803   4.400  0.4900 -0.4471  0.7879
  583THF     C910575   4.725   0.875   4.337  0.1519 -0.1470  0.7528
  583THF    H1010576   4.573   0.832   4.500 -2.0857 -0.4054  0.0154
  583THF    H1110577   4.520   0.816   4.334  0.2138 -2.2341  0.7440
  583THF    H1210578   4.704   0.961   4.273  0.4629  0.0138  0.8670
  583THF    H1310579   4.769   0.921   4.426  0.6187 -1.2393  1.0936
  584THF     O110580   1.082   1.476   0.539  0.2743  0.2903 -0.7513
  584THF     C210581   1.074   1.343   0.595 -0.3115 -0.6207  0.0215
  584THF     C310582   0.950   1.520   0.507 -0.5220 -0.0406 -0.6342
  584THF     H410583   1.107   1.340   0.698  0.3451 -3.5060 -0.1868
  584THF     H510584   1.143   1.290   0.529  0.4951  3.4697 -2.8470
  584THF     H610585   0.933   1.624   0.534 -1.9768 -0.3563 -0.2756
  584THF     H710586   0.950   1.514   0.398 -0.6743 -1.3803 -0.5773
  584THF     C810587   0.855   1.427   0.578 -0.0959  0.4626 -0.0009
  584THF     C910588   0.929   1.298   0.572  0.1841  0.4873 -0.7197
  584THF    H1010589   0.750   1.429   0.549 -0.6801 -0.2171  1.9384
  584THF    H1110590   0.853   1.465   0.680  0.6265  0.2815  0.0881
  584THF    H1210591   0.902   1.228   0.651  0.4285  1.2521  0.0557
  584THF    H1310592   0.915   1.250   0.475 -0.8784  0.0157 -0.3551
  585THF     O110593   0.168   5.368   3.789 -0.4147  0.2784 -0.1681
  585THF     C210594   0.080   5.480   3.774 -0.0840 -0.2821 -0.4243
  585THF     C310595   0.297   5.422   3.788  0.2778 -0.4745  0.5263
  585THF     H410596   0.062   5.541   3.863  1.2538 -0.8289  0.2416
  585THF     H510597  -0.020   5.446   3.746 -0.9185 -0.3042  2.3116
  585THF     H610598   0.310   5.493   3.870 -0.3612  1.8457 -1.2728
  585THF     H710599   0.374   5.345   3.791  0.7252 -0.0225  0.8468
  585THF     C810600   0.292   5.489   3.660  0.3429  0.0762 -0.1345
  585THF     C910601   0.155   5.551   3.667 -0.5852  0.0836 -0.5312
  585THF    H1010602   0.296   5.416   3.579 -1.6483  0.6844 -0.8339
  585THF    H1110603   0.376   5.558   3.651  0.8606 -0.5892 -0.5068
  585THF    H1210604   0.167   5.656   3.692 -2.3270 -0.0765  1.1818
  585THF    H1310605   0.093   5.546   3.577 -1.6798 -0.7551  0.2336
  586THF     O110606   2.985   1.531   2.633  0.6321 -0.6389 -0.8130
  586THF     C210607   2.861   1.504   2.704  0.1458  0.2309  0.0941
  586THF     C310608   2.990   1.674   2.616 -0.0625  0.4496  0.1397
  586THF     H410609   2.844   1.403   2.741 -0.5316  0.2139 -0.2682
  586THF     H510610   2.774   1.533   2.645 -0.1350 -0.9520 -0.0953
  586THF     H610611   3.091   1.703   2.585 -0.3173  2.4823  1.0375
  586THF     H710612   2.928   1.727   2.543 -1.5198 -0.8823  0.3750
  586THF     C810613   2.946   1.711   2.761  0.2473 -0.5912 -0.3576
  586THF     C910614   2.852   1.607   2.818  0.3970  0.3272  0.1309
  586THF    H1010615   2.900   1.810   2.764 -1.5219 -1.3982  0.5070
  586THF    H1110616   3.030   1.713   2.831  0.0217  0.5319 -0.0931
  586THF    H1210617   2.874   1.570   2.918 -0.7523  0.3708  0.4212
  586THF    H1310618   2.748   1.637   2.832  0.2336 -0.5305  0.8618
  587THF     O110619   0.750   5.150   4.994 -0.3257 -0.0339 -0.1788
  587THF     C210620   0.696   5.259   4.920 -0.4571  0.4220 -0.1855
  587THF     C310621   0.861   5.099   4.920 -0.3196  0.3399 -0.1536
  587THF     H410622   0.633   5.324   4.981  0.3160 -0.6443  1.8241
  587THF     H510623   0.644   5.214   4.836 -1.1595  2.3849 -0.8497
  587THF     H610624   0.933   5.037   4.974  1.4873  0.4152 -2.3448
  587THF     H710625   0.828   5.032   4.841  0.9643  0.4310 -0.7957
  587THF     C810626   0.928   5.219   4.849 -0.3645 -0.0910 -0.8368
  587THF     C910627   0.834   5.332   4.885 -0.3071 -0.0336  0.1000
  587THF    H1010628   0.926   5.199   4.742  0.6524  0.7121 -1.0298
  587THF    H1110629   1.034   5.235   4.870  0.2891  0.2485 -3.8849
  587THF    H1210630   0.875   5.368   4.980 -0.1579  0.3485 -0.1058
  587THF    H1310631   0.819   5.416   4.816  0.3049  1.6980  1.9692
  588THF     O110632   3.841   2.011   0.596 -0.1329  0.3073  0.0386
  588THF     C210633   3.948   1.919   0.597 -0.2571 -0.0253 -0.2569
  588THF     C310634   3.884   2.104   0.489  0.2097 -0.6148 -0.3131
  588THF     H410635   3.942   1.855   0.509  1.2890  2.1294 -2.0312
  588THF     H510636   3.953   1.867   0.692 -0.4174  0.3482 -0.0424
  588THF     H610637   3.887   2.066   0.387  0.3745  0.9150 -0.9041
  588THF     H710638   3.813   2.186   0.478 -0.2922 -1.0137 -0.0380
  588THF     C810639   4.025   2.140   0.532 -0.3359  0.7904 -1.1737
  588THF     C910640   4.077   2.002   0.584 -0.1741  0.3161 -0.6509
  588THF    H1010641   4.035   2.220   0.606  0.0327 -0.6321  0.3792
  588THF    H1110642   4.080   2.168   0.443 -1.8913  1.9243 -1.8437
  588THF    H1210643   4.139   1.951   0.510 -0.0270  0.2013 -0.4452
  588THF    H1310644   4.138   2.009   0.674 -1.1702 -0.1366  0.0792
  589THF     O110645   2.676   5.259   0.424  0.8784 -0.2024 -0.0990
  589THF     C210646   2.627   5.386   0.460 -0.4484  0.0103 -0.6293
  589THF     C310647   2.808   5.246   0.487  0.0503  0.6167  0.0942
  589THF     H410648   2.582   5.385   0.559  2.1055  0.6206  0.6078
  589THF     H510649   2.550   5.423   0.391 -0.5149 -2.2108 -1.8540
  589THF     H610650   2.801   5.197   0.584  0.4321  1.3280  0.4925
  589THF     H710651   2.866   5.182   0.420  0.4835  1.1874 -0.0827
  589THF     C810652   2.868   5.388   0.509 -0.3152 -0.0681 -0.0815
  589THF     C910653   2.748   5.479   0.464 -0.6951  0.6006 -0.5772
  589THF    H1010654   2.950   5.397   0.437 -1.0169  0.9942 -0.7847
  589THF    H1110655   2.896   5.405   0.613 -0.5945 -1.0296  0.1637
  589THF    H1210656   2.736   5.570   0.524  0.3506  1.7631 -2.0769
  589THF    H1310657   2.775   5.509   0.363 -1.4744  0.4779 -0.8358
  590THF     O110658   0.105   4.777   4.340  0.0373  0.0333  0.1143
  590THF     C210659   0.084   4.754   4.477 -0.1347  0.4756  0.0136
  590THF     C310660  -0.025   4.811   4.284 -0.2350  0.2399 -0.1463
  590THF     H410661   0.064   4.843   4.536 -2.8337 -1.3225  2.0393
  590THF     H510662   0.165   4.692   4.515  0.2047  1.6167  1.2093
  590THF     H610663  -0.031   4.919   4.296  0.8274  0.1978  1.0028
  590THF     H710664  -0.017   4.792   4.177  1.7417  0.3215 -0.0645
  590THF     C810665  -0.125   4.720   4.346 -0.2203 -0.4984  0.0734
  590THF     C910666  -0.049   4.674   4.471  0.5022  1.2843 -0.3244
  590THF    H1010667  -0.133   4.634   4.279 -0.2487  1.1089 -2.0681
  590THF    H1110668  -0.213   4.779   4.373  0.5999  0.4697  0.7124
  590THF    H1210669  -0.101   4.679   4.566  0.5910 -0.8420 -0.1127
  590THF    H1310670  -0.038   4.567   4.456  0.7445  1.2982 -0.2425
  591THF     O110671   5.076   3.810   5.122  0.1557  0.5547 -0.1618
  591THF     C210672   5.036   3.867   5.002  0.6096 -0.1342  0.2638
  591THF     C310673   4.966   3.724   5.164  0.1012  0.0072 -1.1705
  591THF     H410674   5.112   3.918   4.944  1.4764  0.4789  1.8878
  591THF     H510675   4.956   3.939   5.022  1.1129 -0.2560  3.0732
  591THF     H610676   4.992   3.664   5.250 -0.4260  1.8793  0.3747
  591THF     H710677   4.883   3.775   5.213  2.5770  1.8539  1.4756
  591THF     C810678   4.928   3.653   5.035 -0.6619 -0.1108  0.4498
  591THF     C910679   4.973   3.746   4.928 -0.5220  0.1155  0.0162
  591THF    H1010680   4.821   3.630   5.034 -1.2258  2.0584  2.2647
  591THF    H1110681   4.992   3.565   5.027  1.1895  1.3089 -1.7177
  591THF    H1210682   5.047   3.697   4.864 -1.6324  0.4893 -1.6193
  591THF    H1310683   4.886   3.761   4.863 -0.8877 -1.3004  0.1481
  592THF     O110684   1.046   4.636   0.983  0.2437 -0.2297 -0.1382
  592THF     C210685   1.158   4.627   0.891 -0.3738  0.9960 -0.1863
  592THF     C310686   0.998   4.506   0.990 -0.1568  0.3927  0.1646
  592THF     H410687   1.222   4.714   0.903 -0.6574  0.9075  2.8315
  592THF     H510688   1.123   4.624   0.788  1.4190  1.0503 -0.8232
  592THF     H610689   0.942   4.501   1.084 -0.3688 -1.2038 -0.0143
  592THF     H710690   0.930   4.482   0.909 -0.4176  0.0630  0.4778
  592THF     C810691   1.116   4.410   0.986 -0.1129 -0.2808 -0.2082
  592THF     C910692   1.224   4.488   0.914  0.9507 -0.1999 -0.9652
  592THF    H1010693   1.092   4.316   0.936 -3.5222  1.3550 -2.0051
  592THF    H1110694   1.143   4.384   1.088  1.2767 -2.2988 -1.0223
  592THF    H1210695   1.311   4.499   0.979 -0.9145  0.1120  1.6652
  592THF    H1310696   1.265   4.447   0.822  1.5262 -1.4281 -0.1924
  593THF     O110697   5.226   5.324   0.485  0.4932 -0.3987 -0.1310
  593THF     C210698   5.238   5.218   0.575  0.5902  0.2092 -0.7190
  593THF     C310699   5.113   5.300   0.404 -0.5597 -0.0647  0.1459
  593THF     H410700   5.310   5.241   0.654 -0.4421  0.1756  0.2610
  593THF     H510701   5.282   5.133   0.524 -0.1003  0.1128 -1.1644
  593THF     H610702   5.079   5.388   0.350  0.5799  1.5776  1.9650
  593THF     H710703   5.134   5.218   0.334  1.0627  0.6860 -0.3020
  593THF     C810704   5.011   5.257   0.507  0.4648 -0.3033  0.0072
  593THF     C910705   5.092   5.198   0.622 -0.2279 -0.7051 -0.1193
  593THF    H1010706   4.950   5.180   0.459  0.1652  0.0190 -0.1344
  593THF    H1110707   4.943   5.336   0.538  1.0281 -0.1167  0.8047
  593THF    H1210708   5.067   5.253   0.713  1.3393  1.5297 -0.9484
  593THF    H1310709   5.081   5.093   0.649 -1.8770 -0.8699 -1.2641
  594THF     O110710   0.719   4.730   3.263  0.5601 -1.2202 -0.8819
  594THF     C210711   0.642   4.817   3.345  0.5869 -0.7926  0.2644
  594THF     C310712   0.628   4.698   3.157 -0.7133  0.5023  0.5508
  594THF     H410713   0.641   4.922   3.313  1.3100  0.7032  4.4793
  594THF     H510714   0.691   4.832   3.442  0.1202 -3.4429  0.9724
  594THF     H610715   0.627   4.782   3.088 -0.3366 -0.8438 -1.1705
  594THF     H710716   0.660   4.618   3.089 -3.3891  0.7673 -1.1573
  594THF     C810717   0.493   4.674   3.217  0.5163  0.3055  1.1560
  594THF     C910718   0.513   4.734   3.359 -0.2636 -0.9464  0.1502
  594THF    H1010719   0.467   4.569   3.205 -0.2590  0.6600 -0.4443
  594THF    H1110720   0.426   4.736   3.159  1.5904 -0.6063 -1.1836
  594THF    H1210721   0.430   4.792   3.399  1.7929  0.1589  3.1114
  594THF    H1310722   0.534   4.655   3.431 -0.6131 -0.7757  0.4406
  595THF     O110723   4.115   0.562   3.076 -0.1167  0.4589  0.6215
  595THF     C210724   4.257   0.527   3.102  0.6190  0.1567  0.2659
  595THF     C310725   4.087   0.704   3.083 -0.3963  0.0856 -1.1483
  595THF     H410726   4.304   0.515   3.005 -1.3887 -0.3938 -0.6958
  595THF     H510727   4.263   0.430   3.152  1.9897 -0.9531 -1.8558
  595THF     H610728   4.087   0.771   2.997  1.3150  1.5160 -0.0910
  595THF     H710729   3.982   0.712   3.111 -0.8080 -1.0456 -2.2388
  595THF     C810730   4.188   0.758   3.196 -0.3452  0.3141  0.3023
  595THF     C910731   4.303   0.651   3.184  0.0885 -0.8880  1.0983
  595THF    H1010732   4.145   0.753   3.296 -1.5193 -0.0668 -0.2044
  595THF    H1110733   4.224   0.859   3.174  1.0200  0.3636  2.4844
  595THF    H1210734   4.381   0.704   3.130 -0.1263 -1.3239  0.3401
  595THF    H1310735   4.346   0.624   3.281  1.2037 -2.4413  0.2287
  596THF     O110736   2.737   4.009   1.747 -0.2648 -0.1109  0.2836
  596THF     C210737   2.682   4.100   1.846  0.3302 -0.1942  0.4425
  596THF     C310738   2.701   4.056   1.618  0.4983  0.5898  0.3125
  596THF     H410739   2.709   4.083   1.950 -1.0744 -0.3640  0.8106
  596THF     H510740   2.573   4.104   1.839  0.3898  0.3398 -0.2398
  596THF     H610741   2.771   4.017   1.544  0.7000 -0.8526  1.2049
  596THF     H710742   2.598   4.039   1.586  1.1704  2.7908 -3.7139
  596THF     C810743   2.720   4.204   1.639  0.0019  0.0624 -0.5730
  596THF     C910744   2.733   4.232   1.790 -0.2341 -0.1385 -0.4276
  596THF    H1010745   2.649   4.270   1.589 -0.1386 -0.9079 -1.6981
  596THF    H1110746   2.816   4.230   1.593  1.1441  1.2330  2.2796
  596THF    H1210747   2.840   4.238   1.811 -0.2988  1.7548 -0.4459
  596THF    H1310748   2.692   4.327   1.825  4.4058  1.3829  1.6845
  597THF     O110749   0.531   3.542   2.172  0.3715 -0.4414  0.4283
  597THF     C210750   0.535   3.688   2.140 -0.5729  0.4938  0.3677
  597THF     C310751   0.503   3.526   2.308  0.1307 -0.1125  0.8354
  597THF     H410752   0.429   3.705   2.122 -0.1973  2.8439  0.0797
  597THF     H510753   0.595   3.695   2.050  2.5500  0.0607  2.2729
  597THF     H610754   0.394   3.529   2.321  0.0599 -0.9538  0.4989
  597THF     H710755   0.540   3.433   2.352  2.3019  0.6668  0.7794
  597THF     C810756   0.560   3.649   2.376 -0.5909 -0.4441  0.2654
  597THF     C910757   0.610   3.743   2.259  0.3809 -0.2426 -0.0199
  597THF    H1010758   0.648   3.621   2.434 -0.1935 -0.1951 -0.2054
  597THF    H1110759   0.486   3.699   2.438  3.1326  1.2226  3.7984
  597THF    H1210760   0.598   3.848   2.287  1.8922  0.2934 -1.2048
  597THF    H1310761   0.718   3.734   2.244  0.9140  1.6829  2.1115
  598THF     O110762   0.186   2.927   4.164  0.0360  0.2974  0.4449
  598THF     C210763   0.327   2.939   4.145 -0.1742  0.4845  0.3777
  598THF     C310764   0.173   2.796   4.212  0.4434 -0.3190 -0.1777
  598THF     H410765   0.363   3.040   4.124  2.1118 -0.6915 -1.9620
  598THF     H510766   0.363   2.870   4.068 -0.8841  0.1232  0.3632
  598THF     H610767   0.069   2.781   4.244  0.9062 -3.3811  0.1745
  598THF     H710768   0.186   2.722   4.134  0.3016  2.3104 -2.8670
  598THF     C810769   0.289   2.773   4.305  0.0638  0.1006  0.3865
  598THF     C910770   0.385   2.888   4.267 -0.0753  0.8478  0.3249
  598THF    H1010771   0.335   2.680   4.270  0.7634  1.2009 -1.8770
  598THF    H1110772   0.257   2.773   4.409  0.6353 -0.0484  0.5662
  598THF    H1210773   0.389   2.978   4.329  0.1811  0.6578  0.5843
  598THF    H1310774   0.485   2.851   4.244 -0.0325  0.6538  0.8104
  599THF     O110775   0.199   2.931   2.951 -0.4645  0.3587 -0.7616
  599THF     C210776   0.256   2.980   3.073  0.5146 -0.1297  0.2809
  599THF     C310777   0.144   3.045   2.885 -0.7301  0.0683 -0.0202
  599THF     H410778   0.343   3.041   3.051  2.2672 -2.6195 -0.0659
  599THF     H510779   0.290   2.900   3.139 -1.3409 -2.5465 -1.4766
  599THF     H610780   0.224   3.091   2.827 -1.6295 -0.1594 -1.4889
  599THF     H710781   0.064   3.017   2.817 -0.9076 -1.1660  0.6701
  599THF     C810782   0.088   3.136   3.001  0.0214 -0.0166 -0.0169
  599THF     C910783   0.145   3.066   3.127 -0.2260 -0.3919  0.7817
  599THF    H1010784  -0.021   3.136   3.003  0.0098  1.3517  0.0135
  599THF    H1110785   0.119   3.240   2.998  2.7077 -0.7345 -0.1616
  599THF    H1210786   0.189   3.114   3.215  2.6983 -1.9167  0.2883
  599THF    H1310787   0.065   3.004   3.167  0.6158 -1.4898  0.8258
  600THF     O110788   3.837   0.317   4.583  0.0066 -0.2081 -0.2089
  600THF     C210789   3.814   0.197   4.649 -0.0189 -0.0655 -0.0842
  600THF     C310790   3.980   0.328   4.564  1.3038 -0.1500  0.7060
  600THF     H410791   3.810   0.116   4.576 -1.8241  0.0054 -0.1242
  600THF     H510792   3.718   0.203   4.700 -0.1322  2.0728 -0.4832
  600THF     H610793   3.991   0.250   4.488  1.5804  0.6749 -0.1247
  600THF     H710794   4.020   0.425   4.536 -1.0834  0.8482  0.5241
  600THF     C810795   4.029   0.287   4.694  1.1296  0.3878 -0.1881
  600THF     C910796   3.927   0.186   4.744  0.2615 -0.0153 -0.1891
  600THF    H1010797   4.041   0.374   4.759  1.9157  0.3039 -0.2043
  600THF    H1110798   4.127   0.240   4.686  0.6671 -0.4059 -1.3318
  600THF    H1210799   3.956   0.081   4.752 -2.1427 -0.6684  0.9393
  600THF    H1310800   3.900   0.226   4.842 -0.6912  1.7064 -1.1135
  601THF     O110801   3.176   2.042   1.036 -0.3657 -0.4912  0.5799
  601THF     C210802   3.101   1.924   0.996  0.1469 -0.1897  0.4402
  601THF     C310803   3.082   2.150   1.051  0.1529 -0.0093 -0.1409
  601THF     H410804   3.047   1.874   1.077 -4.0216  1.1290 -1.2514
  601THF     H510805   3.170   1.851   0.954  0.8452  0.7510 -0.0865
  601THF     H610806   3.043   2.160   1.152  0.1059  1.5185 -0.2854
  601THF     H710807   3.111   2.251   1.020 -0.1793  0.0572 -0.2429
  601THF     C810808   2.973   2.128   0.942  0.0663 -0.7204 -0.2899
  601THF     C910809   3.009   1.987   0.886  0.0484 -0.4857 -0.9518
  601THF    H1010810   2.971   2.201   0.861  0.3951 -0.3341  0.0458
  601THF    H1110811   2.873   2.124   0.985  0.3899  0.3907  0.5897
  601THF    H1210812   2.922   1.929   0.856 -0.3638 -0.5784  0.3677
  601THF    H1310813   3.051   1.995   0.786 -0.2799  1.7060 -0.9613
  602THF     O110814   0.856   0.959   0.957  0.3589  0.1202  0.6231
  602THF     C210815   0.977   0.889   0.965 -0.9288 -0.0912  0.0368
  602THF     C310816   0.811   0.957   0.819  0.5000 -0.8291  0.5294
  602THF     H410817   0.984   0.841   1.062 -0.4938  1.5463  0.8480
  602THF     H510818   1.045   0.974   0.973 -0.8749 -0.0295 -0.9646
  602THF     H610819   0.713   0.911   0.805 -0.6745  1.8747 -1.0498
  602THF     H710820   0.782   1.054   0.780  0.0492 -1.0015  0.4355
  602THF     C810821   0.925   0.908   0.737  0.8005  0.5304  0.7088
  602THF     C910822   0.989   0.812   0.836 -0.1696 -0.2917 -0.5135
  602THF    H1010823   0.996   0.988   0.719  2.3726 -0.6999  1.2520
  602THF    H1110824   0.893   0.863   0.643  1.0260  0.9190  0.4430
  602THF    H1210825   0.958   0.708   0.837 -1.7137  0.1361 -1.0044
  602THF    H1310826   1.095   0.800   0.816 -0.1248 -0.0168 -0.4408
  603THF     O110827   5.496   1.367   3.938  0.4787 -0.0991  0.7420
  603THF     C210828   5.368   1.371   3.877  0.0702  0.1395 -0.2880
  603THF     C310829   5.488   1.408   4.070 -0.1333 -0.2802 -0.4505
  603THF     H410830   5.317   1.277   3.899 -0.0530  0.4008  0.5874
  603THF     H510831   5.367   1.376   3.768  1.2498  0.5257 -0.2983
  603THF     H610832   5.459   1.336   4.147 -0.9120  0.8088  0.3027
  603THF     H710833   5.583   1.454   4.096 -0.1527  1.6627 -3.3011
  603THF     C810834   5.379   1.508   4.072 -0.0085  0.3277  0.3008
  603THF     C910835   5.301   1.502   3.939 -0.0026  0.3499 -0.2708
  603THF    H1010836   5.414   1.611   4.083  0.4769  0.1497  0.4746
  603THF    H1110837   5.305   1.473   4.143  0.9983 -2.3681  0.1593
  603THF    H1210838   5.194   1.490   3.953 -0.4942  2.8023 -1.3105
  603THF    H1310839   5.320   1.589   3.876  0.7098  1.1980  1.0667
  604THF     O110840   0.056   3.251   3.842 -0.1808  0.0866 -0.4854
  604THF     C210841  -0.031   3.246   3.955 -0.4862  0.5137  0.1598
  604THF     C310842   0.184   3.221   3.902 -0.2794 -0.6464 -0.6245
  604THF     H410843  -0.033   3.139   3.975 -0.7319  0.5850  0.5219
  604THF     H510844  -0.134   3.266   3.927 -0.8478 -1.5087 -0.1379
  604THF     H610845   0.209   3.115   3.909 -0.5903 -0.7021 -0.3106
  604THF     H710846   0.267   3.263   3.845 -0.4281  0.4678 -0.0571
  604THF     C810847   0.185   3.289   4.040  0.6972 -0.0357 -0.6317
  604THF     C910848   0.043   3.325   4.065  0.8982 -0.4342 -0.5448
  604THF    H1010849   0.251   3.375   4.046  0.6892 -0.0267 -0.6727
  604THF    H1110850   0.217   3.213   4.111 -0.8164 -0.0300  0.1114
  604THF    H1210851   0.007   3.306   4.166 -2.4190  1.4906 -1.2048
  604THF    H1310852   0.031   3.430   4.039 -0.1640 -0.3943  0.0408
  605THF     O110853   3.021   1.003   3.323 -0.3198  0.4814  0.3474
  605THF     C210854   3.153   0.962   3.337 -0.6013 -0.0955 -0.5021
  605THF     C310855   2.967   0.938   3.210  0.5328  0.4857 -0.2971
  605THF     H410856   3.163   0.872   3.397  2.4028  1.1066  1.0771
  605THF     H510857   3.200   1.038   3.401  1.0170 -2.0725  0.8036
  605THF     H610858   2.968   0.831   3.228  0.6356  0.5047 -0.1899
  605THF     H710859   2.865   0.963   3.181  0.9671  0.4333 -1.9889
  605THF     C810860   3.078   0.968   3.110  1.0048 -0.3856  0.6938
  605THF     C910861   3.199   0.956   3.198  0.2186  0.4986 -0.4252
  605THF    H1010862   3.070   1.069   3.070 -0.1267 -1.3921 -1.8271
  605THF    H1110863   3.083   0.893   3.031 -0.3364  0.3890 -0.1600
  605THF    H1210864   3.241   0.858   3.176 -2.1959 -0.5417 -0.7689
  605THF    H1310865   3.283   1.022   3.180  1.5863  0.0546  3.4485
  606THF     O110866   2.250   5.246   0.664 -0.6744 -0.3536 -0.1617
  606THF     C210867   2.191   5.130   0.607 -0.1677 -0.0769  0.0757
  606THF     C310868   2.243   5.343   0.554 -0.0147  0.7674 -0.6171
  606THF     H410869   2.083   5.129   0.620 -0.2655 -1.4999 -0.6537
  606THF     H510870   2.227   5.044   0.664 -1.2745 -2.3348 -2.4276
  606THF     H610871   2.141   5.381   0.551 -0.9540 -1.5623 -0.3581
  606THF     H710872   2.309   5.428   0.569 -2.9522  3.1217  0.1158
  606THF     C810873   2.275   5.261   0.429  0.3364  0.9105  0.4995
  606THF     C910874   2.231   5.120   0.461 -0.5786  0.5997 -0.6929
  606THF    H1010875   2.383   5.256   0.410  0.1489  2.4553 -1.3724
  606THF    H1110876   2.231   5.300   0.337  0.4756  0.2460  0.1470
  606THF    H1210877   2.133   5.101   0.417 -1.8824  0.8920  1.8731
  606THF    H1310878   2.307   5.043   0.442  1.0765  1.9104  0.3653
  607THF     O110879   0.099   1.233   4.853  0.4178  0.0304 -0.4764
  607THF     C210880   0.046   1.200   4.733 -0.4240  0.1622 -0.5289
  607THF     C310881   0.235   1.256   4.831 -0.0880 -0.7591 -0.5283
  607THF     H410882  -0.063   1.203   4.737 -0.4167 -0.6002  1.1274
  607THF     H510883   0.080   1.099   4.715  1.9337  0.3268  2.2802
  607THF     H610884   0.254   1.338   4.900  1.1194 -0.3782 -1.2808
  607THF     H710885   0.309   1.181   4.861  2.0291  1.5112  0.3206
  607THF     C810886   0.255   1.291   4.689 -0.1832 -0.2905 -0.5166
  607THF     C910887   0.113   1.304   4.642  0.7670 -0.4000 -0.1362
  607THF    H1010888   0.306   1.215   4.629  0.7974  1.0517 -1.4575
  607THF    H1110889   0.320   1.378   4.679  1.1636 -1.0778  1.0919
  607THF    H1210890   0.071   1.399   4.676  1.2207  0.0570 -0.8314
  607THF    H1310891   0.089   1.284   4.537  0.5087  0.1338 -0.1801
  608THF     O110892   2.184   2.177   3.464 -0.0754 -0.3960  0.4129
  608THF     C210893   2.192   2.322   3.468 -0.1379  0.0837 -0.2996
  608THF     C310894   2.063   2.137   3.413  0.2277  0.0181  0.5604
  608THF     H410895   2.296   2.352   3.480 -0.3362  0.2674  1.0249
  608THF     H510896   2.126   2.360   3.545 -1.4036 -1.0649 -0.7711
  608THF     H610897   2.083   2.040   3.368  0.7963 -0.0797  1.0128
  608THF     H710898   1.980   2.128   3.484 -1.2888 -2.3585 -1.3480
  608THF     C810899   2.031   2.245   3.304  0.3031  0.5233  0.2355
  608THF     C910900   2.135   2.345   3.333  0.2579 -0.0100  0.8604
  608THF    H1010901   1.932   2.290   3.312  0.6907  1.4379  0.0172
  608THF    H1110902   2.026   2.205   3.203 -0.4318 -2.1136  1.2404
  608THF    H1210903   2.214   2.344   3.259 -0.4608  1.0126  0.0487
  608THF    H1310904   2.092   2.445   3.325  1.5219  0.4031 -2.4021
  609THF     O110905   3.652   1.231   5.268  0.2762 -0.1526 -0.2509
  609THF     C210906   3.672   1.150   5.376 -0.0749 -0.0057 -0.3517
  609THF     C310907   3.781   1.286   5.235  0.4028  0.2113 -0.4239
  609THF     H410908   3.731   1.063   5.347  0.4188 -0.0205  0.6509
  609THF     H510909   3.578   1.105   5.409  0.2350 -0.3004  0.1413
  609THF     H610910   3.822   1.210   5.169  0.6471 -1.4374  1.5370
  609THF     H710911   3.779   1.384   5.186 -2.6229  0.6143  0.3152
  609THF     C810912   3.858   1.287   5.360 -0.3285  0.0667 -0.0156
  609THF     C910913   3.750   1.245   5.470 -0.2310  0.3091  0.0161
  609THF    H1010914   3.899   1.386   5.379  1.5890 -0.2289 -2.1106
  609THF    H1110915   3.947   1.226   5.344 -0.9107 -0.7939 -0.0517
  609THF    H1210916   3.805   1.199   5.552 -0.6391  1.2491  0.8302
  609THF    H1310917   3.695   1.326   5.517  2.4806  0.5840  3.1638
  610THF     O110918   0.538   1.722   2.743 -0.7342  0.1132  0.5899
  610THF     C210919   0.426   1.703   2.822  0.6181  0.9162  0.3466
  610THF     C310920   0.523   1.651   2.619 -0.1443 -0.1666 -0.4855
  610THF     H410921   0.345   1.772   2.797  0.2386  0.3479 -0.0274
  610THF     H510922   0.461   1.721   2.924  1.5630 -0.7621  0.3507
  610THF     H610923   0.447   1.692   2.552  0.9753  0.3588 -1.4703
  610THF     H710924   0.618   1.644   2.565  0.3666 -1.2296  0.5147
  610THF     C810925   0.473   1.522   2.677 -0.0038  1.2095 -0.2239
  610THF     C910926   0.383   1.558   2.790 -0.4543 -0.1243  0.4231
  610THF    H1010927   0.555   1.462   2.716  0.2064  0.2243 -2.0680
  610THF    H1110928   0.437   1.452   2.601  2.4378 -0.6670  0.2218
  610THF    H1210929   0.278   1.543   2.765  0.4233 -0.8820 -3.3982
  610THF    H1310930   0.404   1.493   2.875  1.7245 -1.6726 -1.1622
  611THF     O110931   4.024   2.377   1.140 -0.6696 -0.7416  0.0158
  611THF     C210932   3.963   2.455   1.045  0.3515  0.0548  0.2176
  611THF     C310933   4.092   2.262   1.086 -0.2049 -0.2318 -0.6146
  611THF     H410934   4.039   2.528   1.019 -0.5459  0.4560 -1.4085
  611THF     H510935   3.876   2.507   1.088 -1.0190 -1.9226 -0.0552
  611THF     H610936   4.200   2.279   1.087 -0.2224 -0.1198  0.1792
  611THF     H710937   4.077   2.186   1.162 -1.8689  0.3082 -0.3661
  611THF     C810938   4.018   2.224   0.959  0.4102 -0.0271  0.2236
  611THF     C910939   3.930   2.357   0.937 -0.0183 -0.4034 -0.0515
  611THF    H1010940   3.944   2.153   0.995 -2.3978  2.0417 -1.0185
  611THF    H1110941   4.073   2.194   0.869  1.3281 -1.3532  1.1955
  611THF    H1210942   3.956   2.407   0.844  0.1666  0.8182  0.6267
  611THF    H1310943   3.828   2.320   0.940 -0.1934  0.0799  0.0703
  612THF     O110944   0.154   3.199   5.164  0.1517 -0.0777  0.2259
  612THF     C210945   0.079   3.294   5.089 -0.4970 -0.3819  0.5019
  612THF     C310946   0.090   3.071   5.162  0.4676 -0.2860 -0.2318
  612THF     H410947   0.156   3.349   5.034  2.1667 -0.0156  4.2027
  612THF     H510948   0.027   3.360   5.158  1.6595  1.1433  0.7594
  612THF     H610949   0.156   2.999   5.114 -0.4477 -1.7521  0.6175
  612THF     H710950   0.063   3.028   5.258 -2.4163  0.0367 -0.7838
  612THF     C810951  -0.038   3.088   5.081 -0.7346 -0.2919 -0.3860
  612THF     C910952  -0.015   3.214   5.005  0.2741 -0.5621 -0.2911
  612THF    H1010953  -0.125   3.105   5.144  1.7569 -0.3787  3.3767
  612THF    H1110954  -0.053   2.998   5.021  0.9759 -0.1404 -1.1200
  612THF    H1210955   0.032   3.182   4.912 -2.3443 -1.7409 -1.2997
  612THF    H1310956  -0.110   3.256   4.972 -0.1894 -0.2555  1.3639
  613THF     O110957   4.573   0.655   0.363  0.0848  0.0565 -0.1060
  613THF     C210958   4.544   0.542   0.441 -0.1382 -0.5394  0.2626
  613THF     C310959   4.649   0.744   0.447 -0.1742  0.3518  0.0147
  613THF     H410960   4.627   0.477   0.412 -1.1690 -1.1359 -1.5129
  613THF     H510961   4.447   0.501   0.413 -0.7058  0.4903  0.6783
  613THF     H610962   4.747   0.695   0.449  0.0189  0.6734 -0.8862
  613THF     H710963   4.652   0.846   0.408  0.7721  1.1725  2.1024
  613THF     C810964   4.591   0.729   0.582  0.2353 -0.4005  0.0640
  613THF     C910965   4.544   0.581   0.588  0.3272 -0.1253  0.0819
  613THF    H1010966   4.499   0.785   0.594  0.6941  0.2460  0.6222
  613THF    H1110967   4.643   0.765   0.671 -1.9012  0.9597  0.8415
  613THF    H1210968   4.616   0.524   0.647 -0.7900 -3.1366 -1.2685
  613THF    H1310969   4.448   0.561   0.636  0.1690  0.5031  0.0398
  614THF     O110970   0.871   3.601   3.785 -0.6600  0.2198  1.0426
  614THF     C210971   0.910   3.732   3.807  0.2854 -0.8131  0.8245
  614THF     C310972   0.851   3.530   3.898  0.2414  0.5311 -0.1387
  614THF     H410973   0.822   3.796   3.794  0.1556 -1.1887 -0.3186
  614THF     H510974   0.991   3.768   3.743 -2.0507  1.0297 -1.3144
  614THF     H610975   0.753   3.544   3.943  0.5768 -0.6410  1.0219
  614THF     H710976   0.867   3.423   3.884  0.6759  0.4691  0.7902
  614THF     C810977   0.950   3.576   3.997  0.2525 -0.8533 -0.1183
  614THF     C910978   0.953   3.722   3.954  0.5449 -0.1881  0.1861
  614THF    H1010979   1.039   3.515   3.985  1.3075  0.7968 -1.0523
  614THF    H1110980   0.916   3.581   4.101  0.0298  3.4118 -0.2248
  614THF    H1210981   0.875   3.777   4.007 -0.5208 -1.8760  0.4286
  614THF    H1310982   1.053   3.764   3.966  0.7944 -0.7955  0.2393
  615THF     O110983   5.271   3.392   0.823  0.6612  0.5999 -0.4180
  615THF     C210984   5.362   3.350   0.719 -0.4923 -0.1799 -0.3423
  615THF     C310985   5.351   3.447   0.934  0.0521  0.2273 -0.1219
  615THF     H410986   5.376   3.433   0.650 -2.6295  0.8597  0.3806
  615THF     H510987   5.325   3.259   0.671 -0.9206 -0.4424  0.4663
  615THF     H610988   5.323   3.549   0.961  1.6827  0.8141 -0.5139
  615THF     H710989   5.330   3.389   1.024 -2.3530  0.7179 -0.2854
  615THF     C810990   5.494   3.440   0.888  0.1271 -1.2714 -0.1137
  615THF     C910991   5.493   3.320   0.792  0.4630 -0.1781 -0.0467
  615THF    H1010992   5.567   3.433   0.969  2.0308  1.9338 -1.3907
  615THF    H1110993   5.523   3.525   0.826 -2.0115 -0.4908 -0.1050
  615THF    H1210994   5.576   3.317   0.721  0.9237 -1.9191  0.5224
  615THF    H1310995   5.496   3.227   0.849  0.3095  0.0140  0.2756
  616THF     O110996   4.213   1.060   5.106  0.2345  0.4707 -0.5047
  616THF     C210997   4.188   0.921   5.105 -0.7851 -0.2471  0.2816
  616THF     C310998   4.323   1.083   5.013  0.5101 -0.2852 -0.2365
  616THF     H410999   4.150   0.891   5.008  0.2363  1.9669 -0.8797
  616THF     H511000   4.115   0.890   5.180  0.0254  0.8390  1.5753
  616THF     H611001   4.299   1.051   4.912 -0.0206 -3.4694  0.7978
  616THF     H711002   4.356   1.187   5.009 -2.2747  0.7301  0.7348
  616THF     C811003   4.421   0.972   5.063 -0.3826  0.4705 -0.4487
  616THF     C911004   4.333   0.853   5.108 -0.0802  0.2476 -0.5064
  616THF    H1011005   4.472   1.004   5.153 -0.8766  0.1068 -0.0303
  616THF    H1111006   4.491   0.944   4.984  1.9553 -1.9181  2.2528
  616THF    H1211007   4.339   0.765   5.044  0.0927 -0.0436 -0.0970
  616THF    H1311008   4.348   0.826   5.212 -0.3976  2.4381  0.1540
  617THF     O111009   4.053   0.257   1.000 -0.2771 -0.1131  0.1421
  617THF     C211010   4.089   0.132   1.055  0.1496  0.0142 -0.3316
  617THF     C311011   3.997   0.236   0.867 -0.6184 -0.1532 -0.2949
  617THF     H411012   4.007   0.068   1.087  1.2942  0.0017  2.9873
  617THF     H511013   4.160   0.141   1.137  0.4878  1.3193 -0.7329
  617THF     H611014   3.907   0.175   0.862  0.2351 -1.3226 -2.9780
  617THF     H711015   3.972   0.323   0.806 -0.2418 -0.8135 -1.4139
  617THF     C811016   4.107   0.152   0.805 -0.2392  0.2006 -0.4655
  617THF     C911017   4.145   0.058   0.923  0.8029  0.2306 -0.2875
  617THF    H1011018   4.189   0.218   0.775  0.0414 -0.2899 -0.7943
  617THF    H1111019   4.067   0.097   0.720  1.3197  1.8694 -2.3904
  617THF    H1211020   4.082  -0.030   0.908 -0.2975  0.8435  0.5628
  617THF    H1311021   4.251   0.034   0.928  0.9066  0.7058 -0.0863
  618THF     O111022   5.251   2.456   4.474  0.0889  0.0174  0.3942
  618THF     C211023   5.151   2.358   4.488 -0.6558  0.3487  0.1259
  618THF     C311024   5.183   2.582   4.483  0.1321 -0.0311 -0.3922
  618THF     H411025   5.185   2.265   4.532  2.2321  1.3895  0.3208
  618THF     H511026   5.101   2.349   4.391  0.0423 -0.1312 -0.1955
  618THF     H611027   5.246   2.647   4.544 -1.0129 -0.1255  0.9487
  618THF     H711028   5.177   2.642   4.392  0.6236  0.7681  0.0903
  618THF     C811029   5.046   2.566   4.548  0.0570 -0.4779 -0.4018
  618THF     C911030   5.064   2.422   4.590  0.2286  0.1678  0.1613
  618THF    H1011031   4.961   2.580   4.482 -1.0357  0.9394  1.2306
  618THF    H1111032   5.032   2.642   4.625 -0.3719  0.6412 -1.5383
  618THF    H1211033   5.111   2.419   4.689 -1.6722  0.6293  1.1262
  618THF    H1311034   4.966   2.375   4.589 -0.7290  2.0280  0.4140
  619THF     O111035   3.084   2.016   4.496  0.6450 -0.3461 -0.0019
  619THF     C211036   3.073   2.066   4.629  0.4405 -0.6293 -0.5959
  619THF     C311037   3.216   2.017   4.464 -0.0286 -0.1164 -0.3244
  619THF     H411038   2.973   2.046   4.669  1.4375 -1.4552  1.6489
  619THF     H511039   3.082   2.175   4.631 -1.8131 -0.3868 -0.5899
  619THF     H611040   3.257   1.955   4.384  1.6134 -0.8625  1.0137
  619THF     H711041   3.233   2.122   4.438  0.8526 -0.3608 -0.7825
  619THF     C811042   3.273   1.970   4.602 -0.2408 -0.0781  0.1509
  619THF     C911043   3.170   1.996   4.714  0.2564 -0.5185  0.2573
  619THF    H1011044   3.364   2.028   4.618 -0.7969  0.5762  0.9902
  619THF    H1111045   3.303   1.866   4.586 -0.5625 -0.4013  1.5325
  619THF    H1211046   3.133   1.899   4.745  0.9771 -1.6064 -2.0368
  619THF    H1311047   3.207   2.057   4.796 -0.9207 -1.8466  1.8461
  620THF     O111048   4.354   2.563   1.552 -0.3474 -0.1111 -0.2605
  620THF     C211049   4.439   2.482   1.637 -0.4417  0.1708 -0.2133
  620THF     C311050   4.404   2.540   1.421  0.2264  0.4204 -0.0544
  620THF     H411051   4.371   2.405   1.672  0.3046 -0.3707  0.0684
  620THF     H511052   4.471   2.532   1.728  2.2249 -0.5421 -0.6721
  620THF     H611053   4.355   2.448   1.387 -0.2403  0.1515  1.3044
  620THF     H711054   4.390   2.619   1.348  5.0370 -0.4958 -2.3887
  620THF     C811055   4.549   2.507   1.437  0.9287  0.6948  0.1032
  620THF     C911056   4.559   2.423   1.557  0.2390 -0.1674  0.2385
  620THF    H1011057   4.610   2.597   1.430 -1.1648  2.2440  0.7615
  620THF    H1111058   4.586   2.454   1.349  0.4897  0.0700  0.2860
  620THF    H1211059   4.561   2.316   1.538  2.4081 -0.8763  3.5993
  620THF    H1311060   4.651   2.448   1.610 -0.6557  0.6122  1.4942
  621THF     O111061   0.492   5.192   4.280  0.4862  0.0066  0.4800
  621THF     C211062   0.471   5.058   4.225 -0.0261 -0.1107 -0.3413
  621THF     C311063   0.548   5.266   4.173  0.3900 -0.5846 -0.3384
  621THF     H411064   0.399   4.997   4.279 -1.7532  1.5348 -0.6588
  621THF     H511065   0.574   5.029   4.242  0.1992  1.5609  1.5644
  621THF     H611066   0.535   5.374   4.187 -1.4738 -0.9998  1.5682
  621THF     H711067   0.651   5.235   4.152  0.2666 -0.4414 -1.2233
  621THF     C811068   0.459   5.226   4.056 -0.8301  0.3402  0.2455
  621THF     C911069   0.428   5.083   4.084 -0.2188 -0.0434  0.3177
  621THF    H1011070   0.506   5.220   3.958  1.2353  0.9474  1.1536
  621THF    H1111071   0.375   5.294   4.039 -0.7692  0.7897  1.6349
  621THF    H1211072   0.319   5.083   4.088 -0.3219 -0.9063 -1.5464
  621THF    H1311073   0.449   5.007   4.009 -1.8213 -0.0926 -0.1168
  622THF     O111074   1.213   1.801   3.310  0.3650  0.3497 -0.3034
  622THF     C211075   1.113   1.753   3.404 -0.0697  0.2289 -1.0672
  622THF     C311076   1.341   1.762   3.368 -0.1867  0.0738  0.5215
  622THF     H411077   1.092   1.646   3.391  0.5261  0.1735 -1.6389
  622THF     H511078   1.012   1.793   3.396  0.0212  1.0160  1.2267
  622THF     H611079   1.395   1.687   3.310 -1.5303  0.6483 -1.5893
  622THF     H711080   1.403   1.850   3.349 -1.1675  1.1989  2.2594
  622THF     C811081   1.324   1.740   3.516  0.1422 -0.0044 -0.2876
  622THF     C911082   1.175   1.783   3.541 -0.3968 -0.3346  1.0195
  622THF    H1011083   1.392   1.801   3.575 -0.3504  2.0640 -1.7222
  622THF    H1111084   1.333   1.634   3.538 -1.6685 -0.4645 -1.5588
  622THF    H1211085   1.124   1.736   3.625 -2.4638  1.8875  1.1133
  622THF    H1311086   1.172   1.889   3.563 -0.2159  0.4649 -2.2787
  623THF     O111087   2.217   3.951   4.111 -0.5646 -0.5534  0.3026
  623THF     C211088   2.285   3.863   4.195  0.0039  0.4482 -0.3196
  623THF     C311089   2.078   3.920   4.127 -0.2056  0.0217 -0.3144
  623THF     H411090   2.383   3.896   4.230  0.8177 -1.5391 -0.5905
  623THF     H511091   2.297   3.773   4.134  0.3511  1.2267 -1.4182
  623THF     H611092   2.011   4.005   4.119  1.6883  1.8045  1.7334
  623THF     H711093   2.047   3.837   4.063 -0.0127 -0.4270  0.1625
  623THF     C811094   2.062   3.869   4.272  0.1045 -0.0150  0.6577
  623THF     C911095   2.201   3.829   4.315  0.3273 -0.0732  0.1277
  623THF    H1011096   1.988   3.789   4.269  2.5077 -2.7357  4.2278
  623THF    H1111097   2.025   3.935   4.351  0.2550  0.4955  0.3056
  623THF    H1211098   2.227   3.892   4.399  0.1421 -0.0585  0.1745
  623THF    H1311099   2.205   3.726   4.352 -2.2091 -0.2809  0.0350
  624THF     O111100   0.851   1.026   4.434  0.2419 -0.7250  0.8595
  624THF     C211101   0.862   1.104   4.551  0.2528  0.4020 -0.4727
  624THF     C311102   0.867   1.119   4.325  0.5281  0.7548 -0.3226
  624THF     H411103   0.893   1.039   4.633  1.9151  0.0437 -1.3377
  624THF     H511104   0.760   1.135   4.575  0.0555 -1.0054  0.6055
  624THF     H611105   0.891   1.057   4.239 -2.1336 -0.3364 -0.3650
  624THF     H711106   0.789   1.192   4.304 -1.1229 -1.1370 -1.0335
  624THF     C811107   0.983   1.205   4.364  0.5739  0.2053 -0.4326
  624THF     C911108   0.951   1.225   4.513  0.2929  0.3947  0.1355
  624THF    H1011109   1.000   1.301   4.314  0.0799 -0.7400 -2.5028
  624THF    H1111110   1.076   1.150   4.350 -0.7232 -2.1109 -0.3257
  624THF    H1211111   1.040   1.221   4.576 -1.7771  1.3038  3.3690
  624THF    H1311112   0.903   1.321   4.530  2.5193  1.3576  1.3466
  625THF     O111113   5.467   0.529   3.860  0.1575 -0.8109 -0.0479
  625THF     C211114   5.495   0.536   3.721  0.3169 -0.2361  0.0665
  625THF     C311115   5.573   0.596   3.921  0.5197  0.1037 -0.7960
  625THF     H411116   5.402   0.537   3.665  0.5936  0.5277 -0.3856
  625THF     H511117   5.548   0.441   3.706  1.9162  0.6492 -0.1826
  625THF     H611118   5.530   0.689   3.958 -2.3375 -0.7757 -1.7067
  625THF     H711119   5.615   0.548   4.010  1.4315  1.3733 -0.4985
  625THF     C811120   5.675   0.632   3.815 -0.2297 -0.1965  0.0305
  625THF     C911121   5.589   0.649   3.693 -0.7459 -0.2541 -0.3025
  625THF    H1011122   5.749   0.553   3.803  1.2590  1.0067  0.8218
  625THF    H1111123   5.731   0.721   3.843  3.3529 -2.1233 -0.4098
  625THF    H1211124   5.543   0.745   3.715 -1.2987 -0.2741 -1.3450
  625THF    H1311125   5.644   0.645   3.599  2.8617  2.0258  1.4808
  626THF     O111126   2.191   4.177   2.176 -0.7771  0.3447  0.0829
  626THF     C211127   2.102   4.153   2.065  0.6377  0.3021 -0.1329
  626THF     C311128   2.134   4.101   2.279 -0.2420 -0.2150 -0.6311
  626THF     H411129   2.154   4.191   1.977  0.8528  2.3478  0.8081
  626THF     H511130   2.005   4.201   2.075  0.5396  0.0201  0.2773
  626THF     H611131   2.197   4.083   2.366 -0.7214 -0.8865 -0.4118
  626THF     H711132   2.048   4.155   2.320  0.0123  0.6858 -1.2511
  626THF     C811133   2.103   3.968   2.213 -0.4762  0.0624  0.0639
  626THF     C911134   2.071   4.004   2.069 -0.2268  0.1929  0.6702
  626THF    H1011135   2.029   3.909   2.266 -0.6438  1.2978  1.2775
  626THF    H1111136   2.198   3.914   2.210 -0.5674 -0.0645 -2.5973
  626THF    H1211137   2.146   3.956   2.006  0.8559  2.4472  0.1488
  626THF    H1311138   1.980   3.967   2.022 -1.2093  2.5353  0.5781
  627THF     O111139   0.799   0.208   2.591  0.6304 -0.5048 -0.2406
  627THF     C211140   0.858   0.230   2.721 -0.4538 -0.0624 -0.2786
  627THF     C311141   0.668   0.155   2.629 -0.8920 -0.0882  0.3896
  627THF     H411142   0.956   0.278   2.724 -1.1358  1.4992 -1.2864
  627THF     H511143   0.900   0.147   2.777  0.8870  0.2875 -0.7230
  627THF     H611144   0.600   0.163   2.543 -0.2551  1.9434  0.0253
  627THF     H711145   0.678   0.048   2.647 -1.2045 -0.3882 -1.0337
  627THF     C811146   0.618   0.246   2.744  0.0632 -0.2082 -0.3996
  627THF     C911147   0.744   0.290   2.811  0.0474  0.3956 -0.0591
  627THF    H1011148   0.558   0.198   2.821  0.8233 -2.3320 -1.0783
  627THF    H1111149   0.578   0.336   2.697  0.8116  0.9534  1.0813
  627THF    H1211150   0.748   0.399   2.807 -0.9018  0.4160 -0.6296
  627THF    H1311151   0.767   0.255   2.912 -0.6024 -1.8263 -0.6433
  628THF     O111152   2.908   0.728   3.816 -0.9747 -0.4343  0.2529
  628THF     C211153   2.834   0.790   3.716  0.6507 -0.5756  0.4145
  628THF     C311154   3.019   0.657   3.757  0.4601  0.0881  0.4062
  628THF     H411155   2.778   0.879   3.746  0.2570 -0.3829 -0.8083
  628THF     H511156   2.765   0.722   3.667 -0.5378  0.5771  0.4214
  628THF     H611157   3.108   0.656   3.820  1.0141 -0.5215 -0.3615
  628THF     H711158   2.981   0.555   3.748  0.8046 -0.1326  1.3930
  628THF     C811159   3.044   0.725   3.624  0.6913  0.0939 -0.4488
  628THF     C911160   2.945   0.837   3.627  0.4113 -0.4479  0.2347
  628THF    H1011161   3.026   0.643   3.554 -0.6633 -0.6607  0.7329
  628THF    H1111162   3.149   0.756   3.616  1.4064 -1.5429  1.7800
  628THF    H1211163   2.998   0.922   3.670  0.1521  1.3807 -2.7429
  628THF    H1311164   2.908   0.863   3.527 -0.8829 -0.9407  0.5551
  629THF     O111165   2.058   0.945   0.053  0.0016  0.1683 -0.4203
  629THF     C211166   1.997   1.050  -0.018  0.1606  0.4689 -1.2189
  629THF     C311167   1.990   0.927   0.180  0.0934  0.5910  0.3251
  629THF     H411168   1.904   1.016  -0.062 -0.6991  1.4578 -0.2327
  629THF     H511169   2.069   1.079  -0.095  1.9005  0.7643  0.4322
  629THF     H611170   1.894   0.875   0.179  1.3265 -1.8653  1.1249
  629THF     H711171   2.053   0.876   0.253  0.1124 -3.7247 -2.3578
  629THF     C811172   1.965   1.078   0.217  0.0214  0.3312 -0.3401
  629THF     C911173   1.965   1.154   0.086 -0.8927  0.0227  0.0990
  629THF    H1011174   2.044   1.113   0.283 -0.6901 -0.9941  1.3104
  629THF    H1111175   1.871   1.089   0.271  0.1464  0.5310 -0.1622
  629THF    H1211176   1.869   1.204   0.074  0.8258  4.4947  2.2794
  629THF    H1311177   2.016   1.251   0.081 -0.9564  0.0037 -1.3191
  630THF     O111178   4.802   1.667   1.811  0.0578  0.6657 -0.3961
  630THF     C211179   4.902   1.710   1.910  0.6404 -0.4779  0.7802
  630THF     C311180   4.679   1.628   1.877  0.0103 -0.5593 -0.1058
  630THF     H411181   4.880   1.812   1.941  0.7913  0.0261 -0.6760
  630THF     H511182   5.005   1.723   1.878 -0.1664  1.9713 -1.0309
  630THF     H611183   4.610   1.712   1.875  0.2909 -0.2239  2.1380
  630THF     H711184   4.643   1.548   1.812 -2.3158  1.0684 -0.9515
  630THF     C811185   4.722   1.589   2.016 -0.2973 -0.1092 -0.1250
  630THF     C911186   4.873   1.613   2.022  0.1462 -0.0711 -0.4157
  630THF    H1011187   4.703   1.483   2.034  0.6593 -0.0875  1.1318
  630THF    H1111188   4.677   1.661   2.084  2.1588 -0.3837  1.9623
  630THF    H1211189   4.899   1.660   2.117 -0.3332 -0.0462 -0.2955
  630THF    H1311190   4.938   1.526   2.016 -0.2210 -0.7269  3.1228
  631THF     O111191   2.095   5.498   1.403  0.3475  0.8066 -0.1145
  631THF     C211192   2.130   5.405   1.295 -0.1389  0.0339 -0.6429
  631THF     C311193   2.212   5.558   1.453 -0.3550  0.1059 -0.3182
  631THF     H411194   2.053   5.358   1.235  0.2016 -0.4753 -0.6882
  631THF     H511195   2.168   5.316   1.346 -1.2316  0.4059  0.8895
  631THF     H611196   2.197   5.664   1.472  1.8821  0.6391 -1.2214
  631THF     H711197   2.235   5.502   1.544 -0.0156 -1.2213 -1.1915
  631THF     C811198   2.323   5.538   1.342 -0.3638  0.1233  0.1220
  631THF     C911199   2.248   5.468   1.229  0.0175 -0.2573 -0.0333
  631THF    H1011200   2.407   5.478   1.376  1.8976  2.4489 -1.0011
  631THF    H1111201   2.362   5.633   1.305 -2.7095  2.1514  2.4701
  631THF    H1211202   2.209   5.545   1.162  3.5582 -0.9580 -3.2082
  631THF    H1311203   2.315   5.399   1.178  1.3043  0.1640  1.0227
  632THF     O111204   4.709   0.512   1.618  0.3642 -0.1700 -0.2762
  632THF     C211205   4.792   0.472   1.728 -0.6919 -0.0701  0.5935
  632THF     C311206   4.596   0.566   1.681 -0.0781 -0.4952  0.1175
  632THF     H411207   4.892   0.446   1.692 -0.6360 -0.5636  1.1028
  632THF     H511208   4.742   0.383   1.767 -0.9985 -0.8336 -1.4114
  632THF     H611209   4.539   0.624   1.608 -2.9879 -0.3212  2.3669
  632THF     H711210   4.527   0.496   1.729  1.1791 -1.2307  0.8885
  632THF     C811211   4.653   0.653   1.795  0.4567 -0.4442  1.1723
  632THF     C911212   4.783   0.590   1.824 -0.7100  0.1008 -0.6135
  632THF    H1011213   4.589   0.639   1.881  0.0335  0.6441  1.0544
  632THF    H1111214   4.669   0.756   1.762 -0.8631 -1.0570 -1.7102
  632THF    H1211215   4.857   0.661   1.786  1.3391 -0.4667  1.9946
  632THF    H1311216   4.816   0.571   1.926  0.9140  1.4861 -0.8367
  633THF     O111217   0.383   3.623   3.651 -0.3226 -0.5873 -0.1360
  633THF     C211218   0.522   3.636   3.618 -0.2194 -0.1261 -0.2855
  633THF     C311219   0.364   3.488   3.680 -0.3302  1.0979  0.3328
  633THF     H411220   0.575   3.681   3.703  2.2807 -1.8432 -0.8097
  633THF     H511221   0.528   3.702   3.532 -2.3239  1.0461  0.4010
  633THF     H611222   0.408   3.469   3.778 -0.0719  1.8003  0.3556
  633THF     H711223   0.260   3.460   3.668 -0.5155  1.0301  1.9300
  633THF     C811224   0.443   3.415   3.575  0.0011  0.0230  0.0287
  633THF     C911225   0.567   3.500   3.560  0.0550 -0.6396  0.2752
  633THF    H1011226   0.388   3.411   3.482  0.6197 -2.6151 -0.3198
  633THF    H1111227   0.448   3.313   3.615  1.3402  0.8719  2.2430
  633THF    H1211228   0.658   3.470   3.612  0.6866 -1.2336 -1.1435
  633THF    H1311229   0.602   3.510   3.458 -2.8031  1.1519 -0.6451
  634THF     O111230   1.660   5.356   2.933  0.2960 -0.3217 -1.1374
  634THF     C211231   1.692   5.490   2.897  0.4383 -0.3182 -0.7515
  634THF     C311232   1.549   5.355   3.026 -0.4202 -0.0476  0.0714
  634THF     H411233   1.685   5.499   2.788 -0.8157 -0.7286 -0.7260
  634THF     H511234   1.784   5.526   2.943 -0.1540  0.2820  0.0025
  634THF     H611235   1.460   5.336   2.965  0.8503 -1.0581 -1.5351
  634THF     H711236   1.553   5.284   3.108 -0.5095  1.4440  1.4279
  634THF     C811237   1.536   5.495   3.083  0.7438 -0.3759 -0.3546
  634THF     C911238   1.592   5.580   2.976  0.5232 -0.4651 -0.2769
  634THF    H1011239   1.604   5.508   3.168 -2.6810  0.6498  2.4530
  634THF    H1111240   1.433   5.515   3.110  0.1602 -1.9003 -1.3068
  634THF    H1211241   1.510   5.612   2.911 -0.3231 -2.8889 -0.5362
  634THF    H1311242   1.633   5.676   3.006 -0.9675  0.5234 -1.2462
  635THF     O111243   0.765   4.308   1.800  0.3700  0.3475 -0.0957
  635THF     C211244   0.674   4.275   1.698 -0.4633  0.0673  0.7542
  635THF     C311245   0.859   4.401   1.759  0.6811 -0.1619 -0.3034
  635THF     H411246   0.610   4.361   1.681  1.3476  0.7788 -3.6562
  635THF     H511247   0.620   4.182   1.715 -0.3497 -0.6570 -2.3433
  635THF     H611248   0.850   4.501   1.803 -1.0374  0.4144 -1.8573
  635THF     H711249   0.955   4.361   1.791  0.9548  0.7127  0.0189
  635THF     C811250   0.854   4.392   1.603  0.2398  0.1307  0.4557
  635THF     C911251   0.771   4.275   1.576 -0.3283  0.8653  0.3801
  635THF    H1011252   0.949   4.404   1.550 -1.1829  2.0775 -1.8593
  635THF    H1111253   0.799   4.485   1.584  3.5942  1.8661 -1.7510
  635THF    H1211254   0.718   4.278   1.481 -1.2122  1.4361  0.8845
  635THF    H1311255   0.823   4.179   1.577  1.4906  1.7919 -0.5819
  636THF     O111256   2.420   4.091   0.203 -0.5522  0.2984  0.3423
  636THF     C211257   2.494   4.203   0.159  1.2314  0.0462 -0.6700
  636THF     C311258   2.289   4.133   0.226  0.4173 -0.0662 -0.4327
  636THF     H411259   2.489   4.221   0.052  0.5592  0.5881 -0.5534
  636THF     H511260   2.600   4.193   0.182  0.6250  0.1999  2.7741
  636THF     H611261   2.225   4.162   0.143 -0.0544  1.0556  0.2847
  636THF     H711262   2.228   4.056   0.274  0.7479 -1.3685 -2.0655
  636THF     C811263   2.313   4.265   0.311 -0.4337 -0.1461  0.1541
  636THF     C911264   2.434   4.331   0.246  0.1514  0.2464  1.0418
  636THF    H1011265   2.339   4.219   0.406 -0.8729 -1.2382 -0.2359
  636THF    H1111266   2.228   4.333   0.314  0.1960  0.7438 -1.1444
  636THF    H1211267   2.407   4.416   0.183 -3.1319 -1.8674 -0.6781
  636THF    H1311268   2.507   4.362   0.322  0.9585  0.0264  0.3697
  637THF     O111269   0.526   0.769   4.160 -0.0576 -0.1795  0.2012
  637THF     C211270   0.409   0.845   4.124 -0.7235 -0.2043 -0.6476
  637THF     C311271   0.633   0.858   4.157 -0.2156 -0.0215 -0.1302
  637THF     H411272   0.319   0.790   4.152 -0.4808  0.1633  1.0099
  637THF     H511273   0.412   0.840   4.016 -0.0313  1.2517 -0.7193
  637THF     H611274   0.719   0.818   4.211  0.3569  2.9257  1.3507
  637THF     H711275   0.668   0.880   4.056 -0.8236 -1.0072 -0.5601
  637THF     C811276   0.575   0.987   4.225  0.0999  0.3515 -0.5292
  637THF     C911277   0.437   0.985   4.178 -0.1831 -0.3979 -0.3105
  637THF    H1011278   0.623   1.082   4.199 -2.7049  2.4463  1.4274
  637THF    H1111279   0.570   0.981   4.333 -1.7142 -3.0716 -0.6635
  637THF    H1211280   0.371   1.015   4.260  1.1791  1.1325  0.2672
  637THF    H1311281   0.431   1.054   4.093 -0.8782 -1.3379 -1.0550
  638THF     O111282   0.114   2.825   1.756 -0.2367 -0.1011  0.4755
  638THF     C211283   0.149   2.699   1.813  0.1685  0.0445 -0.0621
  638THF     C311284   0.228   2.913   1.785  0.7381  0.1311  0.4617
  638THF     H411285   0.236   2.657   1.763 -0.1557  0.3397 -0.9038
  638THF     H511286   0.071   2.622   1.811 -1.1898  1.3781 -1.7297
  638THF     H611287   0.308   2.862   1.732  0.7264 -2.2039  2.5147
  638THF     H711288   0.223   3.019   1.758  0.0921  0.2080  0.8611
  638THF     C811289   0.237   2.892   1.934  0.3977 -0.6458  0.7271
  638THF     C911290   0.174   2.744   1.950 -0.7204  0.1615 -0.2701
  638THF    H1011291   0.180   2.974   1.978 -1.5552 -1.2118 -0.6255
  638THF    H1111292   0.341   2.898   1.966  0.8163  1.4679 -0.7875
  638THF    H1211293   0.255   2.683   1.990 -1.1292 -0.7111 -0.7226
  638THF    H1311294   0.085   2.747   2.014 -0.7939  0.4208 -0.3825
  639THF     O111295   3.154   5.296   3.661 -0.2025  0.4360 -0.4196
  639THF     C211296   3.030   5.334   3.608  0.5362 -0.8563  0.0936
  639THF     C311297   3.220   5.232   3.552 -0.7317  0.0748 -0.3469
  639THF     H411298   2.994   5.413   3.673  2.2883  2.1033 -2.2851
  639THF     H511299   2.956   5.254   3.613  1.0715 -1.3231  0.6555
  639THF     H611300   3.325   5.222   3.581 -0.8924  2.5699  1.4387
  639THF     H711301   3.172   5.137   3.535  0.2240 -0.7004  1.0296
  639THF     C811302   3.194   5.318   3.434 -0.2325 -0.7152 -0.2146
  639THF     C911303   3.056   5.373   3.462  0.2413  0.1167  0.0290
  639THF    H1011304   3.193   5.264   3.339  2.0880 -1.8830  0.3591
  639THF    H1111305   3.266   5.400   3.438 -2.0562  1.0423 -1.2269
  639THF    H1211306   3.047   5.482   3.455  0.7347  0.1571  0.0179
  639THF    H1311307   2.978   5.337   3.395  0.8195 -0.7316 -0.1957
  640THF     O111308   4.105   2.448   2.799 -0.6490  0.0041 -0.3231
  640THF     C211309   4.011   2.430   2.688 -0.1805  0.4234  0.1944
  640THF     C311310   4.222   2.371   2.785  0.2798  0.7009 -0.3151
  640THF     H411311   4.008   2.523   2.631  0.7131  0.0746 -0.4490
  640THF     H511312   3.913   2.401   2.726  0.2245 -0.3721  0.6617
  640THF     H611313   4.311   2.427   2.814  0.5075 -1.3269  3.4759
  640THF     H711314   4.215   2.290   2.857 -2.0726  2.1773  1.2602
  640THF     C811315   4.210   2.327   2.642 -0.5206  0.5302  0.3483
  640THF     C911316   4.066   2.315   2.612  0.7345  0.0058  0.7580
  640THF    H1011317   4.263   2.234   2.620 -0.4568  0.7382 -0.3701
  640THF    H1111318   4.257   2.405   2.582 -1.4642 -0.3906 -1.6861
  640THF    H1211319   4.053   2.330   2.505 -0.9829  1.4771  1.1354
  640THF    H1311320   4.035   2.213   2.636 -0.8800  0.0814 -0.8091
  641THF     O111321   3.587   5.379   1.333  0.3735  0.1851 -0.0492
  641THF     C211322   3.621   5.248   1.308  0.5792  0.3966 -0.1635
  641THF     C311323   3.651   5.451   1.232 -0.8524 -0.1168  0.0832
  641THF     H411324   3.569   5.198   1.226 -1.9859  0.7219  1.1598
  641THF     H511325   3.602   5.187   1.396 -2.1923  0.4518 -0.6467
  641THF     H611326   3.618   5.449   1.129 -0.4467 -0.4504 -0.0437
  641THF     H711327   3.668   5.557   1.252  0.4616 -0.0330 -1.3152
  641THF     C811328   3.798   5.388   1.228 -0.0219  0.0372  0.0960
  641THF     C911329   3.774   5.246   1.287 -0.1379  0.3078  0.4921
  641THF    H1011330   3.864   5.456   1.282  0.0197  0.5980 -0.6333
  641THF    H1111331   3.837   5.386   1.126 -2.0550 -1.0500 -0.7239
  641THF    H1211332   3.806   5.172   1.214 -1.6563 -0.2547  0.3688
  641THF    H1311333   3.821   5.241   1.386  1.0811 -1.3216 -0.1289
  642THF     O111334   4.386   1.800   1.973 -0.3625 -0.4993 -0.1860
  642THF     C211335   4.392   1.813   2.114 -0.4823  1.3445  0.2565
  642THF     C311336   4.310   1.686   1.928 -0.0641  0.5468  0.2670
  642THF     H411337   4.362   1.913   2.144 -0.9923  0.9029  1.2644
  642THF     H511338   4.497   1.798   2.141 -0.3360  0.1226 -0.8922
  642THF     H611339   4.210   1.721   1.902 -0.8279 -1.1803  0.7664
  642THF     H711340   4.358   1.634   1.845 -1.3247 -0.6563  0.2599
  642THF     C811341   4.299   1.600   2.053  0.1429  0.2078 -0.4418
  642THF     C911342   4.301   1.703   2.164  0.4800  0.1815 -0.3980
  642THF    H1011343   4.394   1.547   2.048  0.5541  0.7383  1.2164
  642THF    H1111344   4.220   1.525   2.050  0.8891 -0.5959 -0.2553
  642THF    H1211345   4.199   1.740   2.177  0.3089 -0.1573 -0.7643
  642THF    H1311346   4.331   1.671   2.264 -0.7223  2.0768  0.6254
  643THF     O111347   4.122   0.702   0.761 -0.2210  0.1725 -0.4635
  643THF     C211348   4.232   0.738   0.832 -0.1354  0.5324 -0.0699
  643THF     C311349   4.064   0.585   0.821 -0.4379 -0.7306  0.4477
  643THF     H411350   4.271   0.838   0.814 -0.3201  0.4024 -1.2742
  643THF     H511351   4.308   0.663   0.812 -2.1455 -1.7327  0.3555
  643THF     H611352   3.961   0.567   0.791  0.1369 -1.1766 -1.3537
  643THF     H711353   4.124   0.496   0.805  0.9143 -0.3140  2.6980
  643THF     C811354   4.077   0.620   0.969 -0.2076  0.5498  0.1432
  643THF     C911355   4.186   0.722   0.975  0.2022  0.9434 -0.2451
  643THF    H1011356   4.108   0.527   1.017 -0.7458  0.7252  0.8329
  643THF    H1111357   3.985   0.659   1.011  0.2286  0.4551  1.2158
  643THF    H1211358   4.132   0.810   1.012  0.2914  0.3429  1.3879
  643THF    H1311359   4.266   0.695   1.043 -0.1393 -2.9097 -1.1461
  644THF     O111360   4.732   3.534   3.942  0.3375 -0.0036 -0.5388
  644THF     C211361   4.818   3.555   3.833  0.1911  0.8963  0.4662
  644THF     C311362   4.663   3.650   3.960  0.3383 -0.4901 -0.4136
  644THF     H411363   4.777   3.505   3.746  1.2103  0.7165  0.0705
  644THF     H511364   4.918   3.518   3.858  0.5582  0.4247 -1.5659
  644THF     H611365   4.583   3.646   3.887 -2.4709  1.5404  2.2839
  644THF     H711366   4.606   3.665   4.052 -0.5081  2.4585 -1.3214
  644THF     C811367   4.769   3.758   3.940  0.5203 -0.1363  0.2719
  644THF     C911368   4.837   3.705   3.814  0.3544 -0.0319  0.2666
  644THF    H1011369   4.833   3.768   4.028  1.3082 -0.5492 -0.2377
  644THF    H1111370   4.730   3.858   3.926  0.2265 -0.3575 -0.5573
  644THF    H1211371   4.786   3.743   3.726  0.3510  0.0448  0.3016
  644THF    H1311372   4.945   3.722   3.814  0.3348  0.7008 -3.2206
  645THF     O111373   3.881   0.008   4.055  0.4256 -0.2515 -0.3271
  645THF     C211374   3.767   0.095   4.050  0.4058 -0.0995 -0.0073
  645THF     C311375   3.983   0.084   4.112 -0.3123  0.7331 -0.0200
  645THF     H411376   3.680   0.030   4.064  0.5060 -0.1895  0.2029
  645THF     H511377   3.749   0.135   3.950 -1.7283 -2.0299 -0.4879
  645THF     H611378   4.057   0.013   4.149  0.5902  1.5133 -0.2988
  645THF     H711379   4.036   0.147   4.041 -0.4295 -0.8936 -1.6180
  645THF     C811380   3.909   0.160   4.223  0.4662 -0.0982  0.1738
  645THF     C911381   3.774   0.191   4.170 -0.4716 -0.5499  0.1910
  645THF    H1011382   3.960   0.252   4.252  0.4463 -0.5157  1.6454
  645THF    H1111383   3.907   0.110   4.320  3.4635 -1.1333 -0.1721
  645THF    H1211384   3.697   0.162   4.242  0.1055  0.2827  1.1721
  645THF    H1311385   3.776   0.297   4.143  2.7097 -0.1310  1.6251
  646THF     O111386   1.699   0.740   4.182 -0.1441 -0.1868  0.3380
  646THF     C211387   1.689   0.846   4.274  0.1853 -0.3161  0.0270
  646THF     C311388   1.642   0.778   4.060  0.0767  0.0722  0.5925
  646THF     H411389   1.773   0.827   4.341  0.0214 -1.1175  0.0082
  646THF     H511390   1.602   0.847   4.340  1.7898  1.2455  2.2804
  646THF     H611391   1.694   0.731   3.977  1.2489  0.5304  1.0396
  646THF     H711392   1.540   0.740   4.055  0.9745 -2.3336 -2.0592
  646THF     C811393   1.658   0.929   4.054  0.5812  0.4536  0.3750
  646THF     C911394   1.704   0.971   4.190  0.0155 -0.3325  0.1946
  646THF    H1011395   1.574   0.995   4.029  1.1567  1.9157  2.1090
  646THF    H1111396   1.742   0.939   3.986  1.4138 -2.5465  0.8460
  646THF    H1211397   1.803   1.012   4.208  0.6800 -1.8308  0.1007
  646THF    H1311398   1.638   1.053   4.219 -1.0879 -1.3556  0.7053
  647THF     O111399   2.254   2.998   1.682  0.0702  0.1257 -0.5888
  647THF     C211400   2.356   3.025   1.768  0.0610 -0.5550  1.2798
  647THF     C311401   2.131   3.003   1.742  0.6184 -0.6318  0.1783
  647THF     H411402   2.441   3.070   1.715 -1.8856  2.8983  0.8253
  647THF     H511403   2.392   2.939   1.824  0.2416  0.3521  2.5950
  647THF     H611404   2.063   3.069   1.688  0.2876 -0.7703  0.4265
  647THF     H711405   2.082   2.906   1.739  1.5946 -1.1188 -1.2298
  647THF     C811406   2.155   3.055   1.880 -0.4388  0.7286  0.2557
  647THF     C911407   2.286   3.117   1.861 -0.1971  0.1419 -0.3166
  647THF    H1011408   2.173   2.978   1.956  3.7695  2.2408  1.0644
  647THF    H1111409   2.093   3.132   1.926 -1.0321 -1.8507  4.3251
  647THF    H1211410   2.270   3.214   1.813  0.9312 -0.5180 -2.1012
  647THF    H1311411   2.337   3.126   1.957 -1.4624  1.1875  0.2935
  648THF     O111412   0.272   1.700   5.091 -0.7475 -0.1651  0.9281
  648THF     C211413   0.184   1.779   5.014 -0.5442 -0.6804  0.7633
  648THF     C311414   0.355   1.648   4.994 -0.0703 -0.0841 -0.1744
  648THF     H411415   0.134   1.853   5.076 -1.3295 -0.7713  0.2446
  648THF     H511416   0.117   1.720   4.951 -1.7195  0.7760  0.6033
  648THF     H611417   0.442   1.623   5.054 -0.1712 -0.0527 -0.0156
  648THF     H711418   0.328   1.552   4.951  1.2313 -1.1395  1.2810
  648THF     C811419   0.381   1.750   4.889  0.3453 -0.6900  0.0934
  648THF     C911420   0.273   1.845   4.915  0.3059  0.5307 -0.5377
  648THF    H1011421   0.380   1.715   4.786 -1.4487  1.2480 -0.6248
  648THF    H1111422   0.477   1.800   4.902  1.2817 -2.3075 -0.3256
  648THF    H1211423   0.316   1.937   4.954  0.7064  0.6265 -1.1915
  648THF    H1311424   0.217   1.856   4.822 -0.5667  0.4149 -0.0383
  649THF     O111425   5.248   1.832   3.479 -0.0302 -0.0422 -0.4452
  649THF     C211426   5.149   1.787   3.392  0.1186 -0.1621  0.2080
  649THF     C311427   5.212   1.771   3.598  0.1510 -0.1280 -0.0328
  649THF     H411428   5.179   1.832   3.297  0.3480  2.6328  1.5135
  649THF     H511429   5.049   1.827   3.408 -0.0941 -1.0084  1.1171
  649THF     H611430   5.295   1.768   3.669  0.4642  0.0332 -0.3936
  649THF     H711431   5.131   1.831   3.639  0.1284 -0.3280  0.2206
  649THF     C811432   5.171   1.625   3.560 -1.8924 -0.9582 -0.4611
  649THF     C911433   5.154   1.638   3.415  0.0507  0.1482 -0.0852
  649THF    H1011434   5.077   1.591   3.603 -2.9701  0.9280 -1.1765
  649THF    H1111435   5.248   1.550   3.579 -1.2430 -0.0887  0.4709
  649THF    H1211436   5.246   1.597   3.373 -0.3651 -0.8871 -0.0147
  649THF    H1311437   5.061   1.596   3.377 -1.3777  1.0566  2.1827
  650THF     O111438   1.697   0.702   1.321  0.1314  0.1073 -0.2518
  650THF     C211439   1.649   0.754   1.449 -1.2058  0.0706 -0.3098
  650THF     C311440   1.657   0.787   1.218 -0.3640  0.0229  0.0314
  650THF     H411441   1.708   0.841   1.477 -0.6670 -0.7495  1.2038
  650THF     H511442   1.653   0.677   1.526 -1.9569 -1.4970 -1.7471
  650THF     H611443   1.735   0.863   1.220  0.6456 -0.9972  1.7761
  650THF     H711444   1.654   0.739   1.120  0.5123 -3.8356  1.6835
  650THF     C811445   1.524   0.843   1.258 -0.6025 -0.1238 -0.0091
  650THF     C911446   1.509   0.790   1.407  0.7217 -0.3931  0.1291
  650THF    H1011447   1.457   0.801   1.182  1.0429 -1.6919 -0.6541
  650THF    H1111448   1.521   0.952   1.256  0.6725 -0.0543  0.8664
  650THF    H1211449   1.457   0.868   1.462  0.8438 -0.9282  1.0283
  650THF    H1311450   1.444   0.703   1.401 -0.6586  0.5455  0.7488
  651THF     O111451   0.843   2.202   0.781  0.2446 -1.1504  0.9562
  651THF     C211452   0.886   2.198   0.646  0.3090  0.6740 -0.8501
  651THF     C311453   0.778   2.077   0.807  0.1066  0.6287 -0.5152
  651THF     H411454   0.961   2.277   0.639  1.0535  0.0606 -0.1004
  651THF     H511455   0.812   2.215   0.568 -0.0509  1.5007 -0.3412
  651THF     H611456   0.751   2.058   0.911  1.0552 -0.6322 -0.4727
  651THF     H711457   0.690   2.077   0.744 -0.3104 -1.4269 -0.0287
  651THF     C811458   0.881   1.982   0.746 -0.0370 -0.6823 -0.2407
  651THF     C911459   0.944   2.058   0.637 -0.3402  0.4742 -0.7268
  651THF    H1011460   0.826   1.896   0.708  0.7368 -1.6521  0.7974
  651THF    H1111461   0.964   1.959   0.813 -0.2164 -1.7056 -0.3646
  651THF    H1211462   1.053   2.047   0.638 -0.4559 -1.2759  1.9137
  651THF    H1311463   0.920   2.015   0.539  0.7735  0.0933 -0.8468
  652THF     O111464   2.839   3.180   4.884 -0.2614  0.6252 -0.0543
  652THF     C211465   2.786   3.117   4.765 -0.4518 -0.7450 -0.3100
  652THF     C311466   2.770   3.296   4.918  0.1681  0.2503  0.4013
  652THF     H411467   2.813   3.011   4.759 -1.1412 -0.9960  0.6737
  652THF     H511468   2.805   3.169   4.672  1.0563 -1.2341 -0.2977
  652THF     H611469   2.788   3.329   5.021  3.1219 -1.4183  0.5266
  652THF     H711470   2.797   3.377   4.850 -1.3600  0.1185 -0.3911
  652THF     C811471   2.625   3.263   4.877  0.4894  0.1115 -0.1676
  652THF     C911472   2.630   3.139   4.782  0.2061  0.5130 -0.2883
  652THF    H1011473   2.571   3.349   4.837 -0.7581 -0.8198 -0.5338
  652THF    H1111474   2.568   3.240   4.967  1.8998 -0.4489  0.6084
  652THF    H1211475   2.596   3.050   4.834  2.9101 -1.0956 -1.0748
  652THF    H1311476   2.580   3.140   4.686  1.6413  0.1856 -1.0717
  653THF     O111477   4.911   3.031   0.793 -0.0445  0.0697  0.5614
  653THF     C211478   5.013   2.945   0.755 -0.7173 -0.0509  0.2291
  653THF     C311479   4.936   3.077   0.925 -0.0333  0.5249  0.5210
  653THF     H411480   5.024   2.926   0.648  1.3726 -1.3701  0.6098
  653THF     H511481   5.011   2.847   0.802 -1.3083  0.0354  0.3914
  653THF     H611482   4.874   3.157   0.966 -0.6825  1.2189 -1.6446
  653THF     H711483   4.925   2.989   0.988  0.6677 -2.1562 -2.7620
  653THF     C811484   5.083   3.112   0.921  1.0537 -0.3678 -0.7798
  653THF     C911485   5.136   3.019   0.809 -0.4264 -0.3931 -0.4271
  653THF    H1011486   5.120   3.078   1.018 -2.9449  1.8550  1.7901
  653THF    H1111487   5.082   3.219   0.904 -0.9780 -0.2012  0.1421
  653THF    H1211488   5.181   3.082   0.731  0.2681  1.8296  1.6411
  653THF    H1311489   5.210   2.951   0.852 -0.4727 -1.0679 -1.3834
  654THF     O111490   0.869   1.941   1.078  0.0141 -0.2318 -0.6605
  654THF     C211491   0.937   1.940   1.201 -0.5091  0.1711  0.0696
  654THF     C311492   0.770   1.842   1.074 -0.0242 -0.2695  0.3750
  654THF     H411493   0.968   2.039   1.232 -2.2007  1.1162 -1.0930
  654THF     H511494   1.019   1.868   1.201 -2.0508 -1.6913  0.3356
  654THF     H611495   0.689   1.853   1.001 -0.0536  1.4812  0.6145
  654THF     H711496   0.814   1.745   1.054 -1.1251 -0.6569 -0.2439
  654THF     C811497   0.715   1.843   1.217 -0.2985  0.1103 -0.2613
  654THF     C911498   0.832   1.894   1.299  0.5933 -0.4302 -0.3636
  654THF    H1011499   0.675   1.746   1.247 -0.8727  0.5075  0.3006
  654THF    H1111500   0.637   1.919   1.217 -0.6209 -0.2174 -0.6221
  654THF    H1211501   0.806   1.984   1.356 -0.1982 -1.2496  0.6192
  654THF    H1311502   0.867   1.824   1.375 -0.5904 -0.4318  0.1944
  655THF     O111503   0.153   3.962   3.333 -0.2379 -0.2516 -0.1406
  655THF     C211504   0.226   3.903   3.437  0.5363 -0.7111  0.0815
  655THF     C311505   0.240   3.984   3.223 -0.1459 -0.8586  0.1755
  655THF     H411506   0.221   3.795   3.428 -0.2490 -0.6526 -0.3346
  655THF     H511507   0.175   3.922   3.532  1.1148 -0.7802  0.4098
  655THF     H611508   0.216   3.917   3.140  1.0945 -1.7253  0.5034
  655THF     H711509   0.226   4.089   3.195  1.1578 -0.6876  0.1072
  655THF     C811510   0.376   3.987   3.285  0.4078  0.2206  0.3795
  655THF     C911511   0.362   3.973   3.431  0.9397  0.6125  0.0314
  655THF    H1011512   0.431   4.073   3.249  0.3827  0.3387  0.6221
  655THF    H1111513   0.416   3.898   3.236 -1.7413  0.2252 -1.5726
  655THF    H1211514   0.443   3.919   3.481  0.3711  0.7323  1.1145
  655THF    H1311515   0.352   4.066   3.486 -0.6767 -0.3279  1.4585
  656THF     O111516   0.512   1.048   2.499  0.9810  0.1710 -0.0136
  656THF     C211517   0.572   1.034   2.373  0.5442 -0.1326  0.1705
  656THF     C311518   0.560   1.159   2.574 -0.1606  0.1827  0.8812
  656THF     H411519   0.498   1.015   2.295 -0.2826  0.7059  0.7331
  656THF     H511520   0.625   0.939   2.368  3.0843  1.1902  0.0686
  656THF     H611521   0.489   1.239   2.591  0.0604  0.7523 -0.7170
  656THF     H711522   0.586   1.125   2.674  2.6119 -0.1432  0.1345
  656THF     C811523   0.685   1.204   2.500  0.5544  0.0018  0.1809
  656THF     C911524   0.661   1.164   2.353  0.3510 -0.5672 -0.2043
  656THF    H1011525   0.775   1.157   2.540  0.1138 -1.3275 -0.3483
  656THF    H1111526   0.702   1.312   2.498  0.3254  0.1941 -4.6236
  656THF    H1211527   0.611   1.239   2.292  2.4494  0.7604 -0.3806
  656THF    H1311528   0.754   1.151   2.298 -0.7403 -0.6786 -2.1180
  657THF     O111529   2.069   5.426   3.763 -0.4966 -0.1437  0.1672
  657THF     C211530   2.040   5.565   3.776 -0.0962 -0.3075 -0.0219
  657THF     C311531   2.210   5.418   3.738  0.0537 -0.1508  0.6090
  657THF     H411532   1.937   5.587   3.801 -1.1027 -0.4775 -3.5626
  657THF     H511533   2.058   5.612   3.679  2.8755 -1.9234 -0.4076
  657THF     H611534   2.247   5.315   3.746  1.3735  0.3295  0.8131
  657THF     H711535   2.237   5.457   3.640  0.9488  1.6280  1.5333
  657THF     C811536   2.271   5.512   3.845  0.3515  0.1366 -0.1606
  657THF     C911537   2.151   5.607   3.873  0.1393 -0.2891  0.3207
  657THF    H1011538   2.358   5.567   3.810  0.2418 -0.5987 -1.6572
  657THF    H1111539   2.302   5.450   3.929  0.3089 -0.9987 -0.9578
  657THF    H1211540   2.126   5.598   3.979  1.5927 -1.4140  0.5918
  657THF    H1311541   2.176   5.711   3.852 -0.8357  0.2658  1.7479
  658THF     O111542   3.484   0.103   2.654  0.0372 -0.1140 -0.1650
  658THF     C211543   3.490   0.208   2.744  0.3391  0.4795  0.2071
  658THF     C311544   3.560   0.150   2.540  0.2427  0.1614  0.0948
  658THF     H411545   3.585   0.185   2.794 -1.1645 -1.9773  2.2144
  658THF     H511546   3.414   0.207   2.823 -0.3124  1.2780 -0.3882
  658THF     H611547   3.666   0.139   2.564  0.3033  0.5662  0.0273
  658THF     H711548   3.528   0.100   2.448  0.3581  1.1153 -0.4813
  658THF     C811549   3.526   0.293   2.525 -0.7997 -0.9897 -0.4913
  658THF     C911550   3.485   0.335   2.666  0.2986 -0.6766 -0.0074
  658THF    H1011551   3.453   0.299   2.445 -1.1982 -0.0311 -0.0639
  658THF    H1111552   3.616   0.351   2.503 -0.3567 -1.2978  0.4273
  658THF    H1211553   3.556   0.410   2.697  0.2127 -0.4298 -0.4049
  658THF    H1311554   3.384   0.377   2.671  0.8794  0.8865 -1.0992
  659THF     O111555   1.792   3.765   0.522  0.4262  0.3741  0.2653
  659THF     C211556   1.657   3.755   0.478 -0.6068 -0.3615 -0.0481
  659THF     C311557   1.790   3.791   0.666  0.4890  0.3646  0.3612
  659THF     H411558   1.656   3.682   0.396  0.3961 -1.2070  0.6565
  659THF     H511559   1.626   3.855   0.448 -2.0642 -1.4188 -2.3509
  659THF     H611560   1.851   3.724   0.726  1.4252  0.2911 -0.6445
  659THF     H711561   1.827   3.894   0.670 -1.2038  1.0402 -0.1579
  659THF     C811562   1.641   3.786   0.704  0.4522 -0.1189  0.2733
  659THF     C911563   1.573   3.706   0.589  0.7894  0.0901 -0.8802
  659THF    H1011564   1.597   3.886   0.711 -1.5594 -1.0701  2.8326
  659THF    H1111565   1.623   3.742   0.802  1.4313 -0.0925  0.4721
  659THF    H1211566   1.588   3.599   0.603  0.6931  0.2794  0.9427
  659THF    H1311567   1.471   3.742   0.576  0.9590 -0.1772 -3.4227
  660THF     O111568   1.220   4.353   4.267  0.5268  0.6409 -0.1698
  660THF     C211569   1.295   4.354   4.143  0.2317 -0.2539  0.1282
  660THF     C311570   1.084   4.393   4.238  0.4394  0.0307  0.3199
  660THF     H411571   1.358   4.266   4.156 -0.1064 -0.5722 -0.3260
  660THF     H511572   1.353   4.446   4.141  0.6842 -0.5444 -0.3799
  660THF     H611573   1.013   4.344   4.305 -0.6316  1.9085  0.6328
  660THF     H711574   1.078   4.501   4.241  1.2622  0.1186 -0.6186
  660THF     C811575   1.057   4.352   4.098  0.6848  0.0487  0.2523
  660THF     C911576   1.191   4.336   4.033 -0.1506  0.4872  0.2084
  660THF    H1011577   0.987   4.418   4.046  1.3612  0.1090 -0.6060
  660THF    H1111578   1.014   4.252   4.101 -0.5656  0.5732  0.8610
  660THF    H1211579   1.194   4.238   3.985  0.3823  1.0586 -0.9670
  660THF    H1311580   1.197   4.404   3.947  1.3617 -0.9915 -0.9395
  661THF     O111581   1.049   5.436   3.049 -0.3026  0.2607  0.8507
  661THF     C211582   0.965   5.378   3.143 -0.1060  0.6575  0.0772
  661THF     C311583   1.062   5.356   2.930 -0.1249 -0.1605  0.3866
  661THF     H411584   0.928   5.440   3.225 -0.5835 -1.2848  1.3821
  661THF     H511585   1.026   5.306   3.197 -0.0850  1.5814  1.3375
  661THF     H611586   1.101   5.417   2.848 -0.1375 -1.8030 -0.9057
  661THF     H711587   1.128   5.271   2.949  0.3434  0.2791  0.7612
  661THF     C811588   0.918   5.297   2.919 -0.3041 -0.5834 -0.2670
  661THF     C911589   0.858   5.317   3.060 -0.3207  0.6168 -0.3220
  661THF    H1011590   0.924   5.190   2.903 -1.2903 -0.7770  0.5681
  661THF    H1111591   0.864   5.331   2.831 -2.1492 -2.2450  0.1516
  661THF    H1211592   0.767   5.377   3.061 -1.5603 -1.1533  2.1053
  661THF    H1311593   0.819   5.221   3.094 -3.6232  2.0338  0.2635
  662THF     O111594   1.331   1.026   2.167 -0.8058  0.1231  0.2796
  662THF     C211595   1.301   0.948   2.279 -0.2515  0.0832  0.0743
  662THF     C311596   1.444   1.103   2.197  0.2451 -0.8518  0.3276
  662THF     H411597   1.301   0.846   2.239  0.8979  1.8749 -5.2767
  662THF     H511598   1.205   0.987   2.313 -0.3504  0.6104 -0.7892
  662THF     H611599   1.505   1.135   2.112 -1.7500 -3.8301 -2.4812
  662THF     H711600   1.408   1.197   2.238 -0.4659 -1.6025  1.4719
  662THF     C811601   1.518   1.036   2.312 -0.0796  0.6352 -0.2835
  662THF     C911602   1.399   0.967   2.388 -0.9026  0.3882  0.8852
  662THF    H1011603   1.589   1.091   2.373  1.4780 -1.3538 -0.1783
  662THF    H1111604   1.571   0.948   2.275  0.2692  0.6281  0.2260
  662THF    H1211605   1.431   0.872   2.430  1.5242  0.1147 -1.3556
  662THF    H1311606   1.366   1.036   2.466  2.6919  2.5381  0.7759
  663THF     O111607   3.400   2.765   2.645  0.3986  0.3323 -0.1966
  663THF     C211608   3.471   2.664   2.717  0.5516 -0.4539  0.0105
  663THF     C311609   3.290   2.703   2.585 -0.8667 -0.6942  0.0344
  663THF     H411610   3.556   2.702   2.775 -1.6667  3.7421  0.9292
  663THF     H511611   3.521   2.599   2.645  1.6837  1.3476 -0.9125
  663THF     H611612   3.209   2.766   2.550 -0.9293 -1.0298 -0.4396
  663THF     H711613   3.330   2.640   2.506 -1.6150  0.1371 -1.0349
  663THF     C811614   3.240   2.618   2.707  0.5650  0.0169  0.5523
  663THF     C911615   3.362   2.579   2.788 -0.5574 -0.0809  0.2325
  663THF    H1011616   3.182   2.531   2.676  1.9367 -0.6782 -0.1468
  663THF    H1111617   3.167   2.681   2.758 -2.0700 -2.0360 -0.4202
  663THF    H1211618   3.358   2.595   2.896  1.0153 -0.5420  0.3808
  663THF    H1311619   3.374   2.470   2.787  0.6606  0.0330 -0.5759
  664THF     O111620   2.838   1.603   1.749 -0.5092 -0.1481  0.5161
  664THF     C211621   2.762   1.528   1.839  0.2250  0.3103 -0.5628
  664THF     C311622   2.961   1.539   1.748  0.0963 -0.2302  0.1891
  664THF     H411623   2.655   1.532   1.821 -0.0446 -1.6209  0.4185
  664THF     H511624   2.769   1.579   1.935  0.3017  1.6054 -1.2302
  664THF     H611625   3.027   1.558   1.664  0.7005 -0.8608  0.5068
  664THF     H711626   3.011   1.561   1.843 -1.8892 -1.0620  1.4968
  664THF     C811627   2.930   1.396   1.739 -0.2845 -0.1524  0.7453
  664THF     C911628   2.814   1.388   1.844  0.8058  0.7848 -0.2245
  664THF    H1011629   3.005   1.325   1.771  0.1663  0.3665  0.8523
  664THF    H1111630   2.897   1.383   1.635 -0.4591  0.8006  0.6639
  664THF    H1211631   2.748   1.306   1.818 -1.2129  2.2882 -0.0740
  664THF    H1311632   2.847   1.371   1.947 -1.2157  1.6365  0.6220
  665THF     O111633   0.131   1.523   0.869  0.1418 -0.1496 -0.2056
  665THF     C211634   0.179   1.582   0.743 -0.1200 -0.3395 -1.1307
  665THF     C311635   0.017   1.595   0.900  0.4159  0.6207  0.5438
  665THF     H411636   0.122   1.539   0.660 -0.9863 -0.8075 -0.3141
  665THF     H511637   0.286   1.566   0.734  0.1105  0.8420 -0.7194
  665THF     H611638  -0.061   1.548   0.840  2.1138  0.5121 -1.6772
  665THF     H711639  -0.018   1.597   1.004 -0.1233  1.6509  0.3524
  665THF     C811640   0.042   1.742   0.855  0.0657 -0.4956 -0.2803
  665THF     C911641   0.155   1.735   0.760  0.4580  0.4529 -0.4855
  665THF    H1011642   0.068   1.802   0.942 -0.7524 -0.8682  0.2294
  665THF    H1111643  -0.048   1.790   0.817 -0.1393 -0.2616  0.4862
  665THF    H1211644   0.130   1.786   0.667 -1.9497  0.8195  0.2793
  665THF    H1311645   0.244   1.788   0.794  0.2467  0.8265 -0.5100
  666THF     O111646   3.130   4.394   2.807  0.0312  0.3200 -0.6123
  666THF     C211647   3.257   4.410   2.865 -0.1315 -0.2722  0.4130
  666THF     C311648   3.133   4.444   2.674  0.0907  0.4131  0.4529
  666THF     H411649   3.300   4.309   2.868  2.1216  0.6042 -0.2570
  666THF     H511650   3.233   4.454   2.962 -4.4380  1.0570 -1.0348
  666THF     H611651   3.072   4.376   2.614  1.8205 -0.6904 -0.1518
  666THF     H711652   3.086   4.542   2.677  0.4871  0.7023 -1.4319
  666THF     C811653   3.279   4.465   2.631 -0.8148 -1.0599 -0.6228
  666THF     C911654   3.335   4.504   2.770  0.7056  0.0808 -0.4014
  666THF    H1011655   3.293   4.539   2.553  1.0644  0.3059  0.9106
  666THF    H1111656   3.328   4.378   2.588 -0.3001 -1.1484  0.1251
  666THF    H1211657   3.442   4.487   2.778  0.2741 -2.8669  0.0239
  666THF    H1311658   3.315   4.604   2.809 -0.0379 -0.9648  2.1113
  667THF     O111659   2.272   2.704   3.920  0.3775  0.2726 -0.7026
  667THF     C211660   2.396   2.739   3.865 -0.2661  0.2478 -0.4947
  667THF     C311661   2.215   2.594   3.845  0.3112 -0.0744 -0.7829
  667THF     H411662   2.480   2.706   3.926  1.4254  1.6925 -1.9289
  667THF     H511663   2.407   2.846   3.880  3.2738 -0.1497  0.6755
  667THF     H611664   2.209   2.504   3.906 -2.3165  0.3724 -0.2587
  667THF     H711665   2.117   2.634   3.818  0.7418  0.4015 -1.6837
  667THF     C811666   2.307   2.566   3.729 -0.1935 -0.1342  0.4546
  667THF     C911667   2.381   2.698   3.718 -0.2146  0.0381  0.2102
  667THF    H1011668   2.259   2.539   3.634 -0.0375  0.6982  0.1361
  667THF    H1111669   2.382   2.493   3.761  1.6334  2.2906  2.0116
  667THF    H1211670   2.469   2.693   3.654 -0.6656 -1.4309 -0.3534
  667THF    H1311671   2.314   2.771   3.674 -0.0490  1.6582  2.4690
  668THF     O111672   2.896   4.593   0.109  0.2890 -0.7393  0.1162
  668THF     C211673   2.869   4.526   0.236 -0.2280 -0.0399 -0.4448
  668THF     C311674   2.982   4.514   0.039  0.0031  0.0824  0.1047
  668THF     H411675   2.770   4.547   0.277  1.1609  0.5083  2.9674
  668THF     H511676   2.944   4.554   0.310 -0.0263 -0.6999 -0.3983
  668THF     H611677   2.999   4.549  -0.062  0.9266 -0.4081  0.0825
  668THF     H711678   3.083   4.519   0.080  0.4704 -0.4042 -0.9700
  668THF     C811679   2.924   4.380   0.058  0.4727 -0.7614  0.0497
  668THF     C911680   2.878   4.379   0.205 -0.3929  0.3490  0.4151
  668THF    H1011681   2.991   4.296   0.036  0.8437  0.1296 -2.6741
  668THF    H1111682   2.837   4.379  -0.007  0.7719  1.1161 -0.4329
  668THF    H1211683   2.785   4.325   0.224  1.4233 -2.3966  2.2031
  668THF    H1311684   2.956   4.331   0.264  0.0901  0.3182 -0.2275
  669THF     O111685   2.680   5.177   3.419  0.5046  0.0429 -0.0112
  669THF     C211686   2.677   5.315   3.454 -0.3308  0.6440 -0.4247
  669THF     C311687   2.589   5.154   3.315 -0.1812 -0.1919  0.4052
  669THF     H411688   2.737   5.363   3.377 -0.8988  1.1791 -0.5368
  669THF     H511689   2.715   5.340   3.553  0.7607 -0.5572 -0.5002
  669THF     H611690   2.648   5.155   3.223 -1.7355  0.4918 -0.6158
  669THF     H711691   2.538   5.060   3.337  0.0662 -0.8365 -1.6225
  669THF     C811692   2.492   5.273   3.319 -0.1744 -0.5801 -0.1401
  669THF     C911693   2.536   5.358   3.433  0.6509  0.7777  0.3791
  669THF    H1011694   2.388   5.241   3.316  0.0511 -1.4968  1.0940
  669THF    H1111695   2.509   5.333   3.230 -0.3719  0.6216  0.6056
  669THF    H1211696   2.533   5.466   3.420 -0.8580  0.8871  1.3255
  669THF    H1311697   2.473   5.342   3.521  1.6555 -1.0771  0.8086
  670THF     O111698   1.563   5.028   0.163  0.3476  0.2104 -0.2061
  670THF     C211699   1.571   4.891   0.217 -0.5952 -0.1088 -0.1182
  670THF     C311700   1.430   5.081   0.176  0.4100  0.4023 -0.0104
  670THF     H411701   1.615   4.887   0.317 -1.7154 -3.9053  0.3893
  670THF     H511702   1.649   4.844   0.157  0.8416  0.9591  0.8339
  670THF     H611703   1.417   5.170   0.237 -1.4875 -0.1558  0.4624
  670THF     H711704   1.398   5.114   0.077 -0.1945 -1.2276 -0.3888
  670THF     C811705   1.343   4.951   0.219  0.0767 -0.2408  0.1542
  670THF     C911706   1.435   4.836   0.183  0.3487 -0.5347 -0.2650
  670THF    H1011707   1.239   4.947   0.184 -0.4906  1.5728  1.4601
  670THF    H1111708   1.336   4.951   0.328 -0.1040 -1.8445  0.1596
  670THF    H1211709   1.413   4.748   0.244  3.5604 -1.2628 -0.0028
  670THF    H1311710   1.422   4.819   0.076  0.5834  1.1633 -0.5924
  671THF     O111711   4.642   2.001   1.058  0.0118  0.4516 -0.3424
  671THF     C211712   4.779   1.972   1.061  0.3583  0.4838  0.2523
  671THF     C311713   4.627   2.143   1.085 -0.0863 -0.0752 -0.2939
  671THF     H411714   4.813   1.961   0.958 -0.7099 -2.6320  0.1070
  671THF     H511715   4.799   1.877   1.111  1.5417  1.1344  1.0584
  671THF     H611716   4.632   2.198   0.992 -1.5061  1.5278  0.5334
  671THF     H711717   4.525   2.166   1.116  0.2950  1.4009 -0.0860
  671THF     C811718   4.738   2.173   1.177 -0.2675 -0.4242  0.4914
  671THF     C911719   4.852   2.086   1.125 -0.5392 -0.2697 -0.5103
  671THF    H1011720   4.724   2.162   1.284 -2.5429  0.5860  0.3497
  671THF    H1111721   4.759   2.280   1.165  1.1566 -0.5879  1.2509
  671THF    H1211722   4.924   2.127   1.054  1.1192  0.1525  1.3255
  671THF    H1311723   4.912   2.049   1.207  1.6120  0.8812 -1.4838
  672THF     O111724   0.086   2.046   4.205  0.0320  0.5137  0.5352
  672THF     C211725   0.002   1.983   4.117 -0.0511  0.2544  0.0141
  672THF     C311726   0.221   2.030   4.158  0.5883  0.3733 -0.0660
  672THF     H411727  -0.017   2.048   4.031  1.6614 -0.0084 -0.5903
  672THF     H511728  -0.096   1.952   4.153  0.3091 -1.8186 -0.6298
  672THF     H611729   0.239   2.113   4.089  0.6235 -1.3310 -2.1934
  672THF     H711730   0.299   2.035   4.234  1.0276 -0.8192 -0.4153
  672THF     C811731   0.226   1.889   4.074  0.0456 -0.5964 -0.2349
  672THF     C911732   0.075   1.856   4.076 -0.6064 -0.1724  0.3019
  672THF    H1011733   0.274   1.810   4.133  0.0336 -0.0880  0.4656
  672THF    H1111734   0.272   1.900   3.976  0.3332  0.2481 -0.0144
  672THF    H1211735   0.054   1.818   3.976 -0.5277  2.1671 -0.6644
  672THF    H1311736   0.057   1.777   4.150  0.1431 -0.3709  0.2820
  673THF     O111737   4.193   0.891   4.745  0.2800  0.0508 -0.5601
  673THF     C211738   4.309   0.911   4.661  0.2168  0.6075  0.3411
  673THF     C311739   4.146   0.761   4.721  0.2533  0.8687 -0.4669
  673THF     H411740   4.401   0.906   4.719 -1.0771 -0.7269  2.4251
  673THF     H511741   4.299   1.014   4.627 -0.0060  0.5910  0.3513
  673THF     H611742   4.205   0.681   4.765 -0.5827  0.6988  0.3503
  673THF     H711743   4.040   0.751   4.745  0.5351 -0.3891  0.3141
  673THF     C811744   4.156   0.747   4.570  0.6420  0.1072 -0.5092
  673THF     C911745   4.293   0.805   4.544 -0.0090 -0.1676  0.0447
  673THF    H1011746   4.072   0.791   4.516 -0.5844 -0.6301  0.7414
  673THF    H1111747   4.149   0.640   4.547 -0.1296 -0.2080  1.0731
  673THF    H1211748   4.361   0.719   4.548  0.2679  0.0468 -0.0349
  673THF    H1311749   4.296   0.857   4.449 -0.2594  1.6744  0.9982
  674THF     O111750   0.055   3.697   5.416  0.2506 -0.2934  0.0420
  674THF     C211751   0.062   3.784   5.530  0.0338 -0.1391  0.2469
  674THF     C311752  -0.069   3.636   5.429  0.0377 -0.5048  0.1001
  674THF     H411753   0.030   3.881   5.492  1.1131 -0.4981 -1.6812
  674THF     H511754   0.163   3.808   5.562  0.0646  0.8245 -0.5398
  674THF     H611755  -0.151   3.704   5.404 -1.2467 -2.1318 -0.3220
  674THF     H711756  -0.086   3.548   5.366  0.2093 -0.0145 -0.6402
  674THF     C811757  -0.057   3.602   5.583  0.2256  1.0219 -0.6733
  674THF     C911758  -0.026   3.733   5.640  0.1283  0.2412 -0.4973
  674THF    H1011759   0.004   3.518   5.617 -1.3096  1.0832  2.6336
  674THF    H1111760  -0.159   3.568   5.604  0.3640  1.3132  0.5499
  674THF    H1211761  -0.117   3.793   5.639  0.0096  0.0620 -0.7396
  674THF    H1311762   0.021   3.734   5.738  0.0971  3.1958 -0.4182
  675THF     O111763   3.228   1.159   1.587 -0.1586  0.0536 -0.1547
  675THF     C211764   3.173   1.050   1.505 -0.1531  0.2742 -0.2521
  675THF     C311765   3.247   1.271   1.512  0.2150 -0.2948  0.1158
  675THF     H411766   3.068   1.074   1.485 -0.7606 -0.7411  1.5597
  675THF     H511767   3.180   0.953   1.554  1.9956  0.7351  0.4548
  675THF     H611768   3.162   1.333   1.484  0.5249  0.5227  0.9464
  675THF     H711769   3.312   1.343   1.563 -0.8136 -0.1347  1.2395
  675THF     C811770   3.320   1.212   1.391  0.2312  0.1057 -0.4388
  675THF     C911771   3.267   1.065   1.386 -0.0727 -0.0849  0.3690
  675THF    H1011772   3.428   1.201   1.399  0.0180 -0.9902  1.4754
  675THF    H1111773   3.308   1.257   1.292  1.4396  0.5180 -0.4146
  675THF    H1211774   3.210   1.040   1.298 -1.5584 -0.0861  1.3006
  675THF    H1311775   3.347   0.991   1.389 -0.3740 -0.4528 -0.4961
  676THF     O111776   4.554   0.112   3.375  0.5867  0.1122  0.0900
  676THF     C211777   4.468   0.117   3.487  0.8603 -0.0284 -0.1279
  676THF     C311778   4.528   0.227   3.296  0.2934  0.6646 -0.4784
  676THF     H411779   4.514   0.071   3.574 -1.5997 -1.7638  0.3472
  676THF     H511780   4.387   0.050   3.457  1.1466  1.1150 -4.0334
  676THF     H611781   4.616   0.247   3.236  0.9620 -3.6252 -1.2941
  676THF     H711782   4.444   0.203   3.229 -0.7297  0.9627  0.6613
  676THF     C811783   4.493   0.340   3.397 -0.4022  0.3922 -0.4595
  676THF     C911784   4.418   0.264   3.506 -0.3130 -0.3921 -0.6418
  676THF    H1011785   4.445   0.428   3.355  1.5439  1.7188  0.0025
  676THF    H1111786   4.583   0.380   3.443 -1.3561  1.6512  0.3885
  676THF    H1211787   4.446   0.289   3.608 -2.4329 -0.1173 -0.0871
  676THF    H1311788   4.311   0.271   3.487 -0.2622  0.3113 -0.7026
  677THF     O111789   1.059   3.024   2.693 -0.0027 -0.2151  0.0974
  677THF     C211790   1.125   3.135   2.762 -0.8485  0.4479  0.1312
  677THF     C311791   1.113   2.905   2.740  0.0467 -0.6657 -0.7797
  677THF     H411792   1.079   3.234   2.760  1.1147  1.4343  1.1702
  677THF     H511793   1.220   3.152   2.712 -1.8867 -0.1640 -2.1775
  677THF     H611794   1.039   2.825   2.739 -0.4430 -0.2350 -0.3397
  677THF     H711795   1.195   2.883   2.672  0.2329 -0.0544 -0.7630
  677THF     C811796   1.150   2.929   2.885 -0.0511 -0.0091  0.2676
  677THF     C911797   1.142   3.083   2.901  0.2444 -0.6708 -0.3145
  677THF    H1011798   1.249   2.887   2.901 -1.1427 -2.5914  0.6239
  677THF    H1111799   1.079   2.877   2.949 -0.2256 -0.4610 -0.2840
  677THF    H1211800   1.043   3.103   2.944 -0.1106 -0.7218 -1.0936
  677THF    H1311801   1.224   3.125   2.960 -0.5380  0.0610  0.2869
  678THF     O111802   0.928   0.493   0.245  0.1103 -0.8986  0.4425
  678THF     C211803   0.953   0.594   0.334  0.1994 -0.8274  0.4716
  678THF     C311804   1.042   0.410   0.251  0.5116  0.1828  0.2688
  678THF     H411805   0.940   0.562   0.437 -2.2200 -2.0073 -0.1389
  678THF     H511806   0.879   0.672   0.315  2.4010  1.1274 -0.6721
  678THF     H611807   1.046   0.346   0.340  0.1626  0.7420  0.6927
  678THF     H711808   1.040   0.349   0.161  0.8903 -0.3853  0.6396
  678THF     C811809   1.158   0.505   0.263  0.4117  0.3060 -0.1920
  678THF     C911810   1.096   0.636   0.302  0.6066 -1.0051  0.2264
  678THF    H1011811   1.212   0.517   0.170  0.3239 -0.4746 -0.3490
  678THF    H1111812   1.229   0.477   0.341  1.8261  1.0832 -1.1562
  678THF    H1211813   1.145   0.697   0.378 -1.2639 -1.8933  2.2510
  678THF    H1311814   1.096   0.691   0.209 -1.7014  1.3477  1.4975
  679THF     O111815   0.691   0.831   0.006  0.5315 -0.0026 -0.6005
  679THF     C211816   0.707   0.767   0.132 -0.6956  0.3157  0.2833
  679THF     C311817   0.580   0.771  -0.055 -0.6841 -0.4098 -0.4517
  679THF     H411818   0.759   0.817   0.214 -1.7082  2.2670 -0.2248
  679THF     H511819   0.759   0.673   0.111  1.9370  1.5619  0.8149
  679THF     H611820   0.518   0.843  -0.109  1.9839  1.9583 -0.5944
  679THF     H711821   0.608   0.699  -0.133  2.4929 -0.9269  0.9933
  679THF     C811822   0.502   0.694   0.055 -0.0380  0.1572 -0.1564
  679THF     C911823   0.560   0.747   0.182  0.1969 -0.1483 -0.7042
  679THF    H1011824   0.525   0.588   0.054  1.0213  0.3443  1.2124
  679THF    H1111825   0.393   0.686   0.056 -0.2498  1.2639  3.7769
  679THF    H1211826   0.521   0.838   0.228 -0.8655  0.9826 -3.6096
  679THF    H1311827   0.556   0.676   0.264 -2.8409  2.9189  2.1053
  680THF     O111828   0.924   4.078   2.225 -0.4984  0.8048  0.7268
  680THF     C211829   0.963   4.136   2.343  0.0220  1.0555  0.0039
  680THF     C311830   0.969   4.150   2.119 -0.3810 -0.3277  0.1741
  680THF     H411831   1.010   4.057   2.402 -1.5375  0.8575  1.0395
  680THF     H511832   0.869   4.160   2.392  1.8683  0.4081  4.3146
  680THF     H611833   1.057   4.101   2.078 -1.0943 -1.1098 -0.4468
  680THF     H711834   0.883   4.144   2.051 -1.2433  0.6345  1.1316
  680THF     C811835   1.000   4.289   2.175  0.1841 -0.0261 -0.4573
  680THF     C911836   1.047   4.251   2.310 -0.1829 -0.6620  0.4684
  680THF    H1011837   0.915   4.356   2.183  0.7835  0.5876  1.3271
  680THF    H1111838   1.076   4.344   2.120  0.2606  0.9757  0.6211
  680THF    H1211839   1.154   4.230   2.313  0.3449  1.7754  1.0211
  680THF    H1311840   1.034   4.340   2.371  1.3920 -0.3383  0.3668
  681THF     O111841   1.927   4.927   3.229  0.4712  0.3550 -0.3957
  681THF     C211842   1.834   4.976   3.333 -0.1339 -0.0571  0.0655
  681THF     C311843   1.845   4.858   3.139 -0.8520  0.4102 -0.0547
  681THF     H411844   1.821   5.083   3.349 -0.6363 -0.1991  0.6487
  681THF     H511845   1.873   4.931   3.424 -0.4809 -1.4981 -0.4632
  681THF     H611846   1.807   4.935   3.072 -0.8076  0.4973  0.0208
  681THF     H711847   1.893   4.779   3.082  3.3636  3.6213 -1.4376
  681THF     C811848   1.745   4.780   3.222  1.0201  0.0499  0.2272
  681THF     C911849   1.699   4.898   3.311 -0.7156  0.3326  0.0950
  681THF    H1011850   1.787   4.699   3.281  0.2309 -1.5672 -1.3652
  681THF    H1111851   1.674   4.749   3.146  1.6790  0.8022 -0.7167
  681THF    H1211852   1.624   4.956   3.257 -0.8919  0.5320  0.5433
  681THF    H1311853   1.644   4.863   3.399 -2.1225 -1.7544 -1.4941
  682THF     O111854   5.177   3.369   5.370 -0.1981  0.0345  0.1832
  682THF     C211855   5.162   3.357   5.225 -0.3130  0.3269 -0.0244
  682THF     C311856   5.116   3.262   5.438 -0.1133 -0.1234  0.2031
  682THF     H411857   5.247   3.308   5.179 -0.9543 -0.9453  0.0847
  682THF     H511858   5.130   3.455   5.190 -2.0693 -0.0646  0.3622
  682THF     H611859   5.187   3.180   5.435 -0.9900 -0.9196  0.7735
  682THF     H711860   5.100   3.287   5.543  1.7184 -0.0435  0.5102
  682THF     C811861   4.996   3.240   5.345 -0.7126 -0.5257  0.4044
  682THF     C911862   5.038   3.266   5.200 -0.5393 -0.5979  0.1435
  682THF    H1011863   4.943   3.335   5.359  1.0135  0.5762 -0.2435
  682THF    H1111864   4.922   3.162   5.360  0.1376 -1.1325  1.5873
  682THF    H1211865   5.060   3.169   5.155 -0.4857 -0.3482 -0.3725
  682THF    H1311866   4.959   3.312   5.140 -3.3713 -0.1519  3.8367
  683THF     O111867   1.904   5.302   0.199 -0.0461  0.0287  0.0587
  683THF     C211868   1.899   5.404   0.302  0.6347  0.6532 -1.1997
  683THF     C311869   1.778   5.228   0.199 -0.3347 -0.4243 -0.4356
  683THF     H411870   1.836   5.485   0.266 -0.8084 -0.4481 -1.2306
  683THF     H511871   2.001   5.436   0.324  0.5185  1.5009 -1.8176
  683THF     H611872   1.719   5.269   0.118  0.0817  2.1746  0.4655
  683THF     H711873   1.802   5.127   0.168 -2.9381 -0.9273 -1.0553
  683THF     C811874   1.722   5.248   0.343  0.4272 -1.0274 -0.1113
  683THF     C911875   1.831   5.330   0.415  0.2871 -0.1497  0.5386
  683THF    H1011876   1.708   5.152   0.394 -0.5182 -0.1109  1.4181
  683THF    H1111877   1.626   5.298   0.333 -1.9433 -4.9148  1.1335
  683THF    H1211878   1.793   5.388   0.500 -0.7214  0.0545 -0.0433
  683THF    H1311879   1.901   5.258   0.459  2.0432  1.0519 -0.1895
  684THF     O111880   0.506   1.009   1.792  0.2331  0.8840  0.0569
  684THF     C211881   0.631   1.057   1.747 -0.6392 -0.0295 -0.7025
  684THF     C311882   0.511   0.999   1.926  0.3140  0.1568  0.1397
  684THF     H411883   0.623   1.080   1.641 -0.3699  0.8586 -0.5375
  684THF     H511884   0.712   0.984   1.758 -0.4667 -0.0286 -1.8312
  684THF     H611885   0.415   0.984   1.975  1.0489 -0.6218  1.3748
  684THF     H711886   0.562   0.907   1.954 -0.5310  0.2523  2.1857
  684THF     C811887   0.589   1.119   1.968  0.0651 -0.2106 -0.3296
  684THF     C911888   0.665   1.166   1.845  0.0355 -0.0388  0.1392
  684THF    H1011889   0.638   1.095   2.062 -2.1955 -1.0748  0.6752
  684THF    H1111890   0.532   1.206   1.998 -0.9480 -0.8482 -0.3629
  684THF    H1211891   0.632   1.254   1.790 -0.5419  0.2755  0.9603
  684THF    H1311892   0.772   1.162   1.864  0.4419 -0.2124 -2.0100
  685THF     O111893   0.942   0.592   4.398  0.1800  0.0813  0.0811
  685THF     C211894   0.945   0.486   4.495  0.1253 -0.2523 -0.4302
  685THF     C311895   0.819   0.567   4.329  0.2967  0.0536 -0.0645
  685THF     H411896   0.865   0.478   4.568  1.1728  0.2221  0.8135
  685THF     H511897   1.035   0.480   4.557 -0.2926 -0.3889  0.1750
  685THF     H611898   0.731   0.598   4.384 -0.8433 -0.4153 -1.5717
  685THF     H711899   0.829   0.622   4.235  1.2562 -0.1417 -0.0846
  685THF     C811900   0.814   0.415   4.303 -0.2643 -0.0991  0.4681
  685THF     C911901   0.914   0.367   4.406 -0.4746 -0.1456 -0.0878
  685THF    H1011902   0.847   0.400   4.200 -3.1431  2.1115 -0.9445
  685THF    H1111903   0.716   0.369   4.312  0.4818 -1.8053  0.2690
  685THF    H1211904   0.875   0.285   4.468 -0.2703 -1.1758 -1.2796
  685THF    H1311905   1.007   0.330   4.363  1.9487  2.6663  2.2696
  686THF     O111906   5.385   1.032   3.976  0.0690  0.2313  0.0078
  686THF     C211907   5.513   1.030   3.917 -0.1374  0.6033 -0.2072
  686THF     C311908   5.389   0.936   4.081  0.5707 -0.1778  0.5289
  686THF     H411909   5.549   1.121   3.871  0.7143  0.3457 -0.0734
  686THF     H511910   5.528   0.939   3.858 -0.7827 -2.5106  3.9262
  686THF     H611911   5.295   0.925   4.136  1.5354 -1.8893  1.9912
  686THF     H711912   5.398   0.847   4.018 -0.8228  1.2676 -1.8227
  686THF     C811913   5.527   0.972   4.149  0.4049  0.0688  0.2928
  686THF     C911914   5.609   1.014   4.034  0.1261  0.4399 -0.0883
  686THF    H1011915   5.569   0.887   4.202  0.0925 -0.6616 -0.6004
  686THF    H1111916   5.515   1.056   4.217 -0.0119 -0.5519  0.9955
  686THF    H1211917   5.659   1.109   4.051  0.5845  0.5806 -1.9589
  686THF    H1311918   5.685   0.939   4.009  1.0099  0.8220  1.3413
  687THF     O111919   5.065   4.882   1.014  0.3629  0.4065  0.9878
  687THF     C211920   5.022   4.975   1.121 -0.5842 -0.0108  0.0464
  687THF     C311921   5.207   4.883   1.023  0.3609 -0.0471  0.5292
  687THF     H411922   5.018   4.927   1.219 -0.8109 -1.9032 -0.8424
  687THF     H511923   4.934   5.034   1.096 -1.2794 -0.8424  0.4840
  687THF     H611924   5.243   4.838   1.116  1.8104 -1.1602 -0.5469
  687THF     H711925   5.252   4.846   0.931 -1.5676  2.7942 -1.7333
  687THF     C811926   5.237   5.029   1.033  0.1185 -0.9669  0.5503
  687THF     C911927   5.139   5.085   1.129  0.3829 -0.1295 -0.1009
  687THF    H1011928   5.227   5.070   0.932  0.8832 -0.3902  0.7069
  687THF    H1111929   5.341   5.048   1.058  0.6449  0.5561 -2.3174
  687THF    H1211930   5.179   5.069   1.229 -0.5955 -1.3622  0.1275
  687THF    H1311931   5.105   5.187   1.112  1.4290  0.2975  0.3293
  688THF     O111932   0.627   1.667   2.034 -0.6098  0.4146  0.2437
  688THF     C211933   0.652   1.756   2.143  0.2613 -0.2810  0.0097
  688THF     C311934   0.668   1.538   2.077 -0.6182  0.1524 -0.0381
  688THF     H411935   0.586   1.843   2.144 -2.0464 -1.9611  0.4728
  688THF     H511936   0.751   1.802   2.132  0.2395 -0.5282 -1.4836
  688THF     H611937   0.619   1.454   2.029 -1.0667  0.6928 -0.5340
  688THF     H711938   0.776   1.538   2.060 -0.6458 -1.1636 -0.2930
  688THF     C811939   0.648   1.536   2.229 -0.9781 -0.2888 -0.2689
  688THF     C911940   0.635   1.676   2.275 -0.7053  0.0334  0.5122
  688THF    H1011941   0.730   1.483   2.276 -1.7886 -1.6789 -0.3455
  688THF    H1111942   0.550   1.490   2.245 -0.8308 -1.8786 -3.2349
  688THF    H1211943   0.537   1.679   2.322 -1.1867  0.4843 -0.4879
  688THF    H1311944   0.709   1.712   2.346 -1.5973  2.6653  0.2116
  689THF     O111945   5.191   4.395   1.672  0.0258 -0.0065 -0.7747
  689THF     C211946   5.227   4.368   1.806 -0.4243 -0.0897  0.0278
  689THF     C311947   5.045   4.387   1.673 -0.4154  0.0027  0.8178
  689THF     H411948   5.329   4.402   1.822 -0.6990  0.6101  0.3533
  689THF     H511949   5.227   4.259   1.816 -1.1808 -0.1402 -0.4169
  689THF     H611950   5.015   4.453   1.591  1.7099 -2.4435 -2.1332
  689THF     H711951   5.013   4.284   1.664  0.7191 -0.4481  1.7198
  689THF     C811952   5.001   4.438   1.809 -0.0564  0.2350 -0.0754
  689THF     C911953   5.122   4.431   1.901  0.1227  0.0311 -0.7588
  689THF    H1011954   4.915   4.377   1.837 -0.5172  0.9684  0.1203
  689THF    H1111955   4.959   4.538   1.816 -1.4565 -0.3215 -0.2148
  689THF    H1211956   5.158   4.529   1.932  0.0195 -0.6878  1.8049
  689THF    H1311957   5.111   4.376   1.994  3.3142 -1.8352 -1.3115
  690THF     O111958   1.570   5.491   0.992  0.5236 -0.3113  0.4223
  690THF     C211959   1.602   5.556   0.865  0.3426 -0.7392 -0.6355
  690THF     C311960   1.432   5.472   1.017 -0.1793 -0.2231 -0.5688
  690THF     H411961   1.616   5.482   0.787  0.7688  1.7152 -3.0422
  690THF     H511962   1.685   5.627   0.863  1.0902 -1.6084 -0.7041
  690THF     H611963   1.413   5.366   1.037 -0.8969  0.1870  1.0540
  690THF     H711964   1.407   5.540   1.098  2.5926  0.4333 -0.1809
  690THF     C811965   1.359   5.524   0.892  0.8265 -0.4605 -0.0759
  690THF     C911966   1.468   5.616   0.830 -0.6375  0.1714  0.4059
  690THF    H1011967   1.261   5.569   0.909  1.6762  1.5497 -0.1915
  690THF    H1111968   1.348   5.441   0.821  0.7034 -2.9475  2.6708
  690THF    H1211969   1.451   5.614   0.722 -0.1170  1.1215  0.2968
  690THF    H1311970   1.463   5.718   0.869  2.7481  0.8806 -0.7083
  691THF     O111971   0.009   2.094   0.584  0.1010  0.0614  0.0315
  691THF     C211972   0.139   2.085   0.531 -0.6366  0.0196 -0.4599
  691THF     C311973  -0.054   2.205   0.528 -0.0237 -0.0348 -0.0304
  691THF     H411974   0.152   2.047   0.429  0.8322  3.3811 -1.6673
  691THF     H511975   0.198   2.031   0.605  0.1448 -0.0973 -1.1555
  691THF     H611976  -0.120   2.167   0.449 -0.5788  0.3819  0.2296
  691THF     H711977  -0.130   2.247   0.593 -1.0456 -0.8064 -0.6938
  691THF     C811978   0.061   2.296   0.482 -0.4271 -0.2871 -0.0994
  691THF     C911979   0.183   2.225   0.535 -0.0510 -0.4373  0.2239
  691THF    H1011980   0.055   2.401   0.511 -0.0535  0.0235 -1.1175
  691THF    H1111981   0.082   2.294   0.375  0.9201  0.6720  0.1256
  691THF    H1211982   0.274   2.248   0.479  0.1091 -1.5920 -0.0159
  691THF    H1311983   0.212   2.255   0.635  1.4336 -2.3089  0.4250
  692THF     O111984   4.512   3.366   0.341 -0.8821  0.1257  0.1901
  692THF     C211985   4.651   3.351   0.309 -0.6157 -0.0779 -0.2085
  692THF     C311986   4.449   3.466   0.257  0.2229  0.1955  0.6740
  692THF     H411987   4.664   3.262   0.247 -0.6156  0.2405 -0.6676
  692THF     H511988   4.715   3.336   0.396  0.4189  0.5116 -0.8397
  692THF     H611989   4.384   3.417   0.184 -0.6030 -0.1705  1.6296
  692THF     H711990   4.389   3.537   0.314 -0.9415 -0.2824  0.0758
  692THF     C811991   4.562   3.559   0.198 -0.5234  0.4690  0.1128
  692THF     C911992   4.689   3.484   0.226 -0.5035 -0.2327  0.0498
  692THF    H1011993   4.567   3.662   0.233  0.8028  0.3285  0.3758
  692THF    H1111994   4.554   3.548   0.090  0.6334  3.0533 -0.3085
  692THF    H1211995   4.745   3.478   0.133 -0.9608 -0.6610 -0.2021
  692THF    H1311996   4.750   3.551   0.287 -2.2407  0.7367  0.8088
  693THF     O111997   3.167   1.479   3.061 -0.1937 -0.5756  0.5858
  693THF     C211998   3.170   1.358   2.991  0.2204  0.7211  0.3390
  693THF     C311999   3.229   1.464   3.190 -0.1658 -0.0711 -0.2003
  693THF     H412000   3.187   1.364   2.884 -2.3428 -2.6560 -0.4136
  693THF     H512001   3.077   1.304   3.009  0.6459 -0.4486 -0.8725
  693THF     H612002   3.319   1.526   3.199 -1.8517  2.6104 -0.7965
  693THF     H712003   3.170   1.485   3.279  1.9099 -1.0061  1.4990
  693THF     C812004   3.275   1.319   3.198  0.1813 -0.1291 -0.2512
  693THF     C912005   3.290   1.285   3.056 -0.1107  0.5098  0.1475
  693THF    H1012006   3.186   1.268   3.236 -1.1530  1.1685 -1.5127
  693THF    H1112007   3.353   1.301   3.272  0.1248  1.0234  0.0973
  693THF    H1212008   3.387   1.320   3.019  0.4874 -0.6667  0.5206
  693THF    H1312009   3.285   1.181   3.024 -0.3469  1.1868 -2.1832
  694THF     O112010   0.754   2.188   4.015 -0.0204 -0.0034  0.4980
  694THF     C212011   0.709   2.234   4.143  0.2535 -0.1372 -0.1241
  694THF     C312012   0.633   2.158   3.945  0.5283  0.6665  0.1449
  694THF     H412013   0.672   2.336   4.143  1.4708  0.3375  1.1499
  694THF     H512014   0.793   2.223   4.212  1.7634  0.7262 -1.7530
  694THF     H612015   0.590   2.250   3.906  0.2117  0.7195  0.6053
  694THF     H712016   0.645   2.092   3.859  0.5773  1.2132 -0.2717
  694THF     C812017   0.543   2.085   4.049 -0.1706 -0.0084  0.1440
  694THF     C912018   0.602   2.135   4.184 -0.4549 -0.1673 -0.1888
  694THF    H1012019   0.530   1.978   4.038 -1.9271  0.2370 -0.4684
  694THF    H1112020   0.444   2.131   4.048 -0.4138 -0.5365 -0.1179
  694THF    H1212021   0.529   2.182   4.249 -0.2700 -0.4767  0.2455
  694THF    H1312022   0.645   2.058   4.249  0.6599  0.5452 -0.0578
  695THF     O112023   1.632   4.161   2.509 -0.1435 -0.0332 -0.3748
  695THF     C212024   1.724   4.061   2.467  0.1965  0.0850 -0.6278
  695THF     C312025   1.627   4.262   2.409  0.2295 -0.8110  0.7966
  695THF     H412026   1.712   3.964   2.516 -3.7670  0.0352 -1.3977
  695THF     H512027   1.823   4.095   2.499  0.0436  0.5220 -0.6201
  695THF     H612028   1.523   4.264   2.375  0.6963  1.1724 -0.6738
  695THF     H712029   1.646   4.363   2.447 -0.2398 -0.4093 -0.0113
  695THF     C812030   1.720   4.213   2.297  0.5882 -0.5417  0.5178
  695THF     C912031   1.721   4.068   2.312  0.0579 -0.3647 -0.8263
  695THF    H1012032   1.822   4.250   2.310  0.7599 -0.6448 -0.4185
  695THF    H1112033   1.704   4.260   2.200  1.0015  1.7425  1.4796
  695THF    H1212034   1.634   4.015   2.273  0.5503 -1.5368 -0.3701
  695THF    H1312035   1.813   4.033   2.266 -0.2450  0.2952 -1.9921
  696THF     O112036   5.253   1.862   1.325 -0.5189  0.3000  0.1768
  696THF     C212037   5.224   2.000   1.309  0.7562  0.0819  0.1629
  696THF     C312038   5.322   1.817   1.205  0.5444  0.0688 -0.1627
  696THF     H412039   5.300   2.059   1.359  0.1708  0.0936  1.0604
  696THF     H512040   5.129   2.005   1.362 -0.4305 -2.9564 -1.4098
  696THF     H612041   5.422   1.856   1.188  0.2725  0.5577 -0.7059
  696THF     H712042   5.335   1.709   1.213  1.1280  0.1348 -0.2158
  696THF     C812043   5.236   1.876   1.099  0.4627 -0.5234 -0.0261
  696THF     C912044   5.211   2.014   1.155  0.7211 -0.0733  0.5571
  696THF    H1012045   5.143   1.820   1.095  1.4189 -2.2482  0.5485
  696THF    H1112046   5.293   1.884   1.006 -0.4889 -1.5199 -0.7167
  696THF    H1212047   5.283   2.093   1.131  1.8958 -1.5852 -1.1502
  696THF    H1312048   5.110   2.048   1.134  0.3882 -0.9404  0.7070
  697THF     O112049   0.764   1.575   3.159  0.0915 -0.1434 -0.3196
  697THF     C212050   0.679   1.647   3.071 -0.2077 -0.5768  0.0104
  697THF     C312051   0.900   1.580   3.116 -0.5426 -0.3931 -0.6259
  697THF     H412052   0.582   1.668   3.116  0.2341 -0.4976  0.9408
  697THF     H512053   0.680   1.586   2.980 -0.1887 -1.4865  0.6038
  697THF     H612054   0.962   1.576   3.205 -0.7584 -3.8547 -0.4770
  697THF     H712055   0.910   1.491   3.054 -2.3876 -1.5374  0.6195
  697THF     C812056   0.901   1.706   3.029  0.2829 -0.3587 -0.1955
  697THF     C912057   0.767   1.774   3.048  0.3115 -0.3581  0.6811
  697THF    H1012058   0.919   1.679   2.925 -1.9364  1.0809 -1.0124
  697THF    H1112059   0.979   1.775   3.062 -2.0795  2.4577 -0.1889
  697THF    H1212060   0.765   1.842   3.134  0.4102 -1.4418  1.5661
  697THF    H1312061   0.746   1.835   2.961  0.1604 -2.1834 -0.6239
  698THF     O112062   0.214   4.580   2.273 -0.8693  0.2206  0.2969
  698THF     C212063   0.183   4.516   2.396 -0.2665  0.4918 -0.8343
  698THF     C312064   0.303   4.685   2.305  0.6620  0.2321  1.1931
  698THF     H412065   0.263   4.449   2.428  0.6572  1.9799  0.0821
  698THF     H512066   0.095   4.451   2.395  0.2274 -0.2708  1.3061
  698THF     H612067   0.405   4.652   2.323  0.8364  0.9410  1.5353
  698THF     H712068   0.299   4.744   2.213 -0.8629 -1.2603  0.2350
  698THF     C812069   0.251   4.747   2.427 -0.1092  0.9055  0.4276
  698THF     C912070   0.175   4.633   2.497  0.1869  0.3983  0.4752
  698THF    H1012071   0.190   4.836   2.405 -0.8958 -0.0283 -1.4301
  698THF    H1112072   0.319   4.806   2.488 -2.2349  1.9323  1.9528
  698THF    H1212073   0.225   4.612   2.591  0.5103 -0.1336  0.1900
  698THF    H1312074   0.072   4.657   2.525  0.2534  0.3001  0.8049
  699THF     O112075   2.422   1.557   2.746 -0.3797  0.1451  0.7269
  699THF     C212076   2.397   1.543   2.605  0.1336 -0.2964 -0.0328
  699THF     C312077   2.451   1.423   2.794 -0.0666 -0.4546 -0.2319
  699THF     H412078   2.489   1.551   2.547  0.3175 -0.6267  0.2105
  699THF     H512079   2.338   1.627   2.568  1.2174 -0.2649 -1.8165
  699THF     H612080   2.546   1.390   2.752  0.8714  0.5406  1.0134
  699THF     H712081   2.462   1.414   2.902 -0.7200 -0.1001 -0.1329
  699THF     C812082   2.346   1.347   2.728 -0.0206  1.0322  0.5409
  699THF     C912083   2.323   1.406   2.586  0.0933 -0.5364 -0.2858
  699THF    H1012084   2.256   1.349   2.789  1.7580  0.1833  3.3663
  699THF    H1112085   2.368   1.240   2.727 -2.0291  0.5166  2.8019
  699THF    H1212086   2.364   1.348   2.503 -0.4831 -0.4153 -0.6606
  699THF    H1312087   2.216   1.418   2.570  0.0728 -1.8993 -1.4272
  700THF     O112088   3.453   4.261   0.040 -0.0357 -0.0316 -0.2966
  700THF     C212089   3.374   4.146   0.061 -0.2614 -0.0957  0.2457
  700THF     C312090   3.459   4.275  -0.100  1.1791  0.7473 -0.5892
  700THF     H412091   3.272   4.173   0.033  0.4916  1.2786 -1.3275
  700THF     H512092   3.374   4.127   0.169  1.3660 -1.2185  0.0836
  700THF     H612093   3.368   4.314  -0.145  1.1267 -1.0563 -2.1729
  700THF     H712094   3.537   4.347  -0.127  1.9512  0.3270  0.4613
  700THF     C812095   3.477   4.136  -0.146 -0.2439 -0.0559  1.3380
  700THF     C912096   3.431   4.038  -0.034 -0.6185 -0.4398  0.2020
  700THF    H1012097   3.579   4.106  -0.171 -1.5235 -3.6523 -0.3649
  700THF    H1112098   3.423   4.112  -0.238 -0.6959 -2.3537  2.1366
  700THF    H1212099   3.354   3.972  -0.072 -0.4156  0.4225 -1.8282
  700THF    H1312100   3.514   3.979   0.006 -0.3320 -0.6192 -0.6409
  701THF     O112101   2.118   1.441   4.948 -0.3835  0.6781 -0.5129
  701THF     C212102   2.116   1.563   4.882 -0.3562 -0.5780 -0.6223
  701THF     C312103   2.084   1.340   4.846  0.0419  0.1837 -0.1288
  701THF     H412104   2.200   1.622   4.918 -1.7337  1.3452 -0.4113
  701THF     H512105   2.023   1.619   4.874  0.3313  0.6337 -0.4698
  701THF     H612106   2.110   1.239   4.877  0.6711  0.7071  1.1309
  701THF     H712107   1.977   1.339   4.829 -0.7923  0.7389  4.0761
  701THF     C812108   2.151   1.386   4.718 -0.9892 -0.4636 -0.2127
  701THF     C912109   2.146   1.533   4.732 -0.1977  0.0171 -0.0257
  701THF    H1012110   2.106   1.348   4.626  0.2920 -1.6127 -0.3984
  701THF    H1112111   2.250   1.344   4.733  0.5178  2.8397 -0.2065
  701THF    H1212112   2.240   1.578   4.700 -0.8520  0.5153 -1.3307
  701THF    H1312113   2.062   1.576   4.677  0.7360  0.0289 -1.5148
  702THF     O112114   3.561   5.384   4.908  0.1761 -0.4434 -0.3110
  702THF     C212115   3.446   5.350   4.828 -0.8465  0.0997 -0.4989
  702THF     C312116   3.524   5.503   4.975  0.0874  0.2822  0.3967
  702THF     H412117   3.451   5.243   4.809  2.3924  0.0294  0.1978
  702THF     H512118   3.436   5.390   4.727 -0.2852 -1.3152 -1.1397
  702THF     H612119   3.584   5.541   5.058  2.7464 -0.9820 -0.8415
  702THF     H712120   3.525   5.587   4.906  0.7596 -0.0436  0.0071
  702THF     C812121   3.377   5.475   5.022  0.4906  0.2323 -0.1436
  702THF     C912122   3.323   5.380   4.915 -0.8702  0.0356  0.1028
  702THF    H1012123   3.316   5.565   5.014  0.0566  0.0731  1.0499
  702THF    H1112124   3.391   5.437   5.123 -0.9856  0.2182  0.0837
  702THF    H1212125   3.297   5.279   4.948  0.4442  0.0033  1.1097
  702THF    H1312126   3.235   5.422   4.864  0.1254  4.5350  1.6032
  703THF     O112127   2.278   4.796   1.819 -0.4425 -0.8517 -0.6194
  703THF     C212128   2.198   4.837   1.706  0.1440  0.1990  0.1824
  703THF     C312129   2.199   4.704   1.897 -0.0447 -0.7178  0.3450
  703THF     H412130   2.204   4.756   1.633 -0.5097  1.1889 -1.0173
  703THF     H512131   2.234   4.925   1.652 -2.3411  0.7523 -0.6907
  703THF     H612132   2.192   4.603   1.858  0.7491 -0.4239 -0.5901
  703THF     H712133   2.245   4.689   1.995  2.5143  1.3998 -0.4183
  703THF     C812134   2.061   4.768   1.898 -0.5900 -0.9023 -0.7016
  703THF     C912135   2.065   4.858   1.771 -0.2145 -0.3507 -0.7676
  703THF    H1012136   2.050   4.831   1.987  1.7182 -1.9180  0.4073
  703THF    H1112137   1.988   4.687   1.895 -1.7429  0.1424 -1.9774
  703THF    H1212138   1.981   4.846   1.703 -0.8036 -0.6507 -0.0068
  703THF    H1312139   2.060   4.958   1.813 -1.3735  0.4941 -2.7806
  704THF     O112140   0.354   0.774   2.849 -0.1072 -0.5833 -0.2377
  704THF     C212141   0.323   0.886   2.931 -0.7317  0.0804  0.3726
  704THF     C312142   0.282   0.659   2.903  0.1182  0.0007  0.3189
  704THF     H412143   0.344   0.982   2.884  2.4663 -1.1474 -0.9961
  704THF     H512144   0.384   0.884   3.021  1.5709  3.3403 -0.9188
  704THF     H612145   0.264   0.586   2.824  0.3978  0.8953 -0.5940
  704THF     H712146   0.341   0.599   2.972 -0.4505 -1.0654 -0.1087
  704THF     C812147   0.158   0.717   2.968  0.2799  0.3562 -0.5831
  704THF     C912148   0.172   0.874   2.961  0.0552  0.3101 -0.1705
  704THF    H1012149   0.144   0.680   3.070 -0.4390 -0.4699 -0.9677
  704THF    H1112150   0.076   0.683   2.905  1.9766  2.0060 -3.9787
  704THF    H1212151   0.120   0.906   2.870  0.2307  1.3969  0.0929
  704THF    H1312152   0.121   0.922   3.045  0.6067  0.9453 -0.1910
  705THF     O112153   4.683   5.434   0.415  0.0936  0.4039  0.5165
  705THF     C212154   4.652   5.338   0.318 -0.6459 -0.0754  0.3389
  705THF     C312155   4.567   5.504   0.449 -0.0780  0.4369 -0.3073
  705THF     H412156   4.714   5.248   0.313 -0.1503  0.3215 -1.3302
  705THF     H512157   4.647   5.380   0.218 -1.6357  1.1951  0.8936
  705THF     H612158   4.568   5.562   0.541  0.0484 -1.6386  1.0850
  705THF     H712159   4.555   5.574   0.367 -1.7951  2.0247  1.1904
  705THF     C812160   4.462   5.399   0.453  0.3966 -0.9555 -0.7199
  705THF     C912161   4.510   5.302   0.347  0.7812  0.1941 -0.5901
  705THF    H1012162   4.366   5.445   0.431  0.9008  0.6340  0.1915
  705THF    H1112163   4.472   5.366   0.556  0.2334  3.8197  1.0708
  705THF    H1212164   4.485   5.206   0.391 -1.6744  0.5235 -1.0835
  705THF    H1312165   4.454   5.317   0.254  0.1492  2.1157  0.0399
  706THF     O112166   4.933   5.166   0.085 -0.6540 -0.3714  0.2439
  706THF     C212167   4.816   5.115   0.022 -0.7159 -0.4677  0.6396
  706THF     C312168   4.938   5.310   0.072 -0.4376 -0.0030  0.7441
  706THF     H412169   4.736   5.122   0.096  0.2886 -1.6501  1.8776
  706THF     H512170   4.834   5.014  -0.014  0.2223  0.6473 -2.2628
  706THF     H612171   4.873   5.361   0.143 -0.8731  1.3709 -0.6034
  706THF     H712172   5.041   5.334   0.098 -0.6658 -0.1493  1.8355
  706THF     C812173   4.883   5.323  -0.067  0.4858 -0.5607 -0.4109
  706THF     C912174   4.797   5.204  -0.103  0.2579  0.7938 -0.0171
  706THF    H1012175   4.971   5.335  -0.130  0.2831  3.0567 -0.2450
  706THF    H1112176   4.832   5.419  -0.074  1.2481 -0.0076  1.2518
  706THF    H1212177   4.692   5.229  -0.116 -0.2008 -0.6407  0.7151
  706THF    H1312178   4.840   5.147  -0.186  1.0839  2.4873 -0.8061
  707THF     O112179   4.207   5.413   1.679 -0.3414 -0.5394  0.5366
  707THF     C212180   4.232   5.364   1.545  0.5428 -0.3393 -0.1367
  707THF     C312181   4.070   5.375   1.706 -0.4578 -1.0175  1.1782
  707THF     H412182   4.255   5.257   1.540  0.0817 -0.4783  0.5912
  707THF     H512183   4.312   5.418   1.495 -0.6500  0.2812 -1.4492
  707THF     H612184   4.068   5.266   1.718  2.1741 -1.3323 -0.3313
  707THF     H712185   4.022   5.426   1.790  0.7381  0.1471  1.1893
  707THF     C812186   3.996   5.427   1.583 -0.0175 -0.5383 -0.0255
  707THF     C912187   4.102   5.408   1.476  0.0435  0.4624  0.9627
  707THF    H1012188   3.970   5.532   1.597 -0.4632 -0.5771 -0.5253
  707THF    H1112189   3.905   5.371   1.562 -1.6117  2.0689 -0.5675
  707THF    H1212190   4.069   5.341   1.397  2.4292 -1.1497  1.2296
  707THF    H1312191   4.119   5.505   1.428 -2.7767 -0.4110 -2.1815
  708THF     O112192   4.878   1.857   4.125 -0.6341  0.3221  0.6801
  708THF     C212193   4.904   1.827   3.983  0.8010  0.6665 -0.5190
  708THF     C312194   4.952   1.765   4.203  0.1218  0.0358  0.0352
  708THF     H412195   4.861   1.901   3.916 -2.0134  0.3764  0.8561
  708THF     H512196   4.855   1.731   3.967  1.5794 -0.1913  1.8042
  708THF     H612197   4.964   1.811   4.301  0.6879  1.4892 -0.6796
  708THF     H712198   4.902   1.669   4.214 -0.5224  0.1652 -1.4549
  708THF     C812199   5.081   1.745   4.123  0.0000 -0.3624  0.0713
  708THF     C912200   5.053   1.785   3.975 -0.1679  0.1285  0.6785
  708THF    H1012201   5.127   1.648   4.140  0.9339  0.0902  0.1888
  708THF    H1112202   5.155   1.818   4.156 -0.3596 -0.0802  0.2590
  708THF    H1212203   5.123   1.864   3.949 -0.4690 -0.5316 -2.5796
  708THF    H1312204   5.072   1.705   3.903 -1.2268  0.9285 -0.5207
  709THF     O112205   2.034   0.509   1.090 -0.4240  0.8261  0.3510
  709THF     C212206   2.046   0.519   0.946 -0.3645 -0.3642 -0.3865
  709THF     C312207   1.959   0.616   1.135  0.6585  0.4037 -0.0765
  709THF     H412208   1.957   0.479   0.897 -0.2891  0.0353 -0.8524
  709THF     H512209   2.135   0.464   0.916  0.0436  0.1956 -0.2200
  709THF     H612210   1.858   0.605   1.094  1.0225  1.3915 -1.2874
  709THF     H712211   1.955   0.636   1.242 -1.3429 -5.2143  1.2509
  709THF     C812212   2.021   0.730   1.061  0.9233 -0.2643 -0.2832
  709THF     C912213   2.050   0.670   0.924  0.1194  0.7883 -0.7525
  709THF    H1012214   2.116   0.761   1.105  0.2038  2.5094 -0.4717
  709THF    H1112215   1.965   0.823   1.063  1.7023  0.2049  0.5631
  709THF    H1212216   1.961   0.704   0.871 -0.3042  1.8895  0.6018
  709THF    H1312217   2.146   0.710   0.893  0.5285 -0.1318 -0.7105
  710THF     O112218   3.304   0.310   3.259  0.3805  0.6874  0.1114
  710THF     C212219   3.268   0.205   3.347 -0.1059 -0.5946  0.7865
  710THF     C312220   3.300   0.437   3.322 -0.0658  0.0148  0.4933
  710THF     H412221   3.363   0.152   3.361  1.5253  1.5343 -1.3006
  710THF     H512222   3.191   0.141   3.304 -0.8539 -0.8770  2.5069
  710THF     H612223   3.371   0.513   3.289 -1.2258  0.9656  0.1349
  710THF     H712224   3.205   0.483   3.294  0.0789 -0.3476 -0.6411
  710THF     C812225   3.295   0.413   3.468  0.1815  0.4991 -0.0859
  710THF     C912226   3.222   0.271   3.476 -0.2577  0.2895  0.5615
  710THF    H1012227   3.247   0.485   3.534  0.5443 -1.5796  2.6284
  710THF    H1112228   3.393   0.404   3.514  0.1636  1.6724  0.2166
  710THF    H1212229   3.242   0.212   3.565  0.5849 -3.9727 -2.1402
  710THF    H1312230   3.114   0.278   3.464 -0.3196  1.0055  1.4886
  711THF     O112231   1.124   2.932   1.939 -0.4699  0.1629  0.1347
  711THF     C212232   1.101   2.956   1.803 -0.6153  0.1461 -0.0901
  711THF     C312233   1.161   2.795   1.950 -0.1313 -0.3166 -1.3918
  711THF     H412234   1.095   3.065   1.795  1.8162  0.5724  2.2606
  711THF     H512235   1.004   2.919   1.771  0.4924 -0.2171 -3.5630
  711THF     H612236   1.242   2.790   2.023 -0.7113 -0.7603 -0.7704
  711THF     H712237   1.073   2.745   1.988 -0.9540  1.8037 -0.3145
  711THF     C812238   1.209   2.753   1.809 -0.8836  0.6111 -0.0179
  711THF     C912239   1.221   2.889   1.738  0.2140  0.2463 -0.3435
  711THF    H1012240   1.131   2.698   1.757 -3.0675  3.8217 -0.4327
  711THF    H1112241   1.298   2.693   1.829 -1.8470 -0.0287  2.8228
  711THF    H1212242   1.310   2.951   1.753  0.9865 -0.8305 -0.2894
  711THF    H1312243   1.202   2.879   1.631 -2.9091  0.6136  0.1005
  712THF     O112244   4.910   2.184   2.331 -0.0254 -0.1751  0.2160
  712THF     C212245   4.822   2.271   2.402  0.1025  0.3102 -0.5640
  712THF     C312246   4.837   2.083   2.268  0.4941 -0.6449 -0.3840
  712THF     H412247   4.868   2.367   2.424  0.9869 -0.1540 -0.3840
  712THF     H512248   4.776   2.222   2.487  1.1008 -2.0838 -1.3202
  712THF     H612249   4.884   2.050   2.176  0.4085 -0.9976 -0.3013
  712THF     H712250   4.823   2.007   2.345  1.7836  0.2724  0.7972
  712THF     C812251   4.702   2.149   2.245  0.4517 -0.2480  0.4928
  712THF     C912252   4.707   2.288   2.300  0.5445 -0.3262 -0.6043
  712THF    H1012253   4.621   2.092   2.292  0.5334  0.2341  1.2236
  712THF    H1112254   4.665   2.161   2.143  0.5400  2.7086  0.7299
  712THF    H1212255   4.733   2.361   2.223 -2.1020  0.3134 -0.9875
  712THF    H1312256   4.615   2.321   2.347 -0.3496 -2.2663 -0.8952
  713THF     O112257   2.905   4.119   4.734 -0.4928  1.0994 -0.3889
  713THF     C212258   2.979   4.082   4.611 -0.7401 -0.1353  0.6891
  713THF     C312259   2.868   4.251   4.712 -0.7528  0.3402 -0.5418
  713THF     H412260   2.912   4.064   4.527 -2.0010 -0.4745  1.7447
  713THF     H512261   3.044   3.997   4.632  1.1391  0.9225 -0.5018
  713THF     H612262   2.786   4.254   4.639  0.3679 -1.6702 -1.9651
  713THF     H712263   2.836   4.305   4.801  3.0371  0.1665  1.0811
  713THF     C812264   2.995   4.324   4.647 -0.2524  0.3923 -0.0215
  713THF     C912265   3.071   4.202   4.590  0.3270  0.1218  0.1042
  713THF    H1012266   3.051   4.377   4.725 -1.1243  0.5303  0.5196
  713THF    H1112267   2.976   4.395   4.567 -0.2546  1.6337  1.0458
  713THF    H1212268   3.102   4.223   4.487  1.5680  1.9820  0.8002
  713THF    H1312269   3.157   4.179   4.653 -0.3625 -1.2661  0.5736
  714THF     O112270   3.841   4.563   0.824 -0.2838  0.1734 -0.0890
  714THF     C212271   3.947   4.474   0.846  0.4032 -0.2052 -0.1337
  714THF     C312272   3.742   4.555   0.929  0.1591  0.5065 -0.0768
  714THF     H412273   4.016   4.514   0.920 -3.0203  1.1827  2.6143
  714THF     H512274   4.003   4.446   0.757 -2.5160  1.9795 -2.9263
  714THF     H612275   3.745   4.637   1.001  2.5873 -0.4717  1.0247
  714THF     H712276   3.644   4.546   0.883  1.3669 -2.0430 -2.4869
  714THF     C812277   3.771   4.428   1.009  0.0613 -0.4665  0.3438
  714THF     C912278   3.871   4.362   0.910 -0.3972  0.2848 -0.4745
  714THF    H1012279   3.674   4.380   1.016 -0.9490  1.2568 -1.2003
  714THF    H1112280   3.806   4.438   1.112  1.7374 -3.8320  0.2544
  714THF    H1212281   3.948   4.298   0.952 -1.5371 -1.8013 -1.4079
  714THF    H1312282   3.809   4.307   0.840 -0.0413  0.6351 -1.0770
  715THF     O112283   0.360   4.502   2.984 -0.3474 -0.8518  0.5886
  715THF     C212284   0.326   4.365   2.990 -0.4327 -0.1704 -0.6350
  715THF     C312285   0.239   4.570   2.964 -0.0803  0.1408 -0.1269
  715THF     H412286   0.267   4.338   3.077 -1.0712  2.6496 -0.0973
  715THF     H512287   0.411   4.298   2.993 -1.9619 -2.1586  0.3588
  715THF     H612288   0.193   4.582   3.063 -0.3456 -0.4823 -0.1710
  715THF     H712289   0.253   4.671   2.927 -0.6292  0.2796  0.0273
  715THF     C812290   0.165   4.480   2.867  0.5810  0.0258 -0.1775
  715THF     C912291   0.246   4.356   2.861 -0.9136 -0.0049  0.4746
  715THF    H1012292   0.148   4.530   2.772 -1.5371  1.0680  0.6828
  715THF    H1112293   0.067   4.460   2.909  0.7576 -1.9177 -0.6162
  715THF    H1212294   0.182   4.270   2.848 -0.5719  0.0226 -1.7173
  715THF    H1312295   0.316   4.350   2.778  1.8142  1.5309  2.4790
  716THF     O112296   5.408   3.064   1.045 -0.7732 -0.1519  0.0765
  716THF     C212297   5.468   3.129   1.158  0.6234 -0.4167  0.2595
  716THF     C312298   5.502   2.963   1.005 -0.8268 -0.6767  0.5758
  716THF     H412299   5.462   3.061   1.244 -0.5814 -1.5048 -0.6526
  716THF     H512300   5.413   3.222   1.172 -2.5159 -1.9795 -0.8032
  716THF     H612301   5.487   2.868   1.055 -3.5868 -1.5019 -1.5579
  716THF     H712302   5.486   2.946   0.898  0.1204 -0.7116  0.4271
  716THF     C812303   5.638   3.030   1.025  0.0966  0.3613  0.1852
  716THF     C912304   5.617   3.145   1.127  0.1462  0.7873  0.7553
  716THF    H1012305   5.684   3.061   0.931  0.7157 -3.4298 -0.9442
  716THF    H1112306   5.706   2.954   1.065  0.8013 -0.6500 -2.6805
  716THF    H1212307   5.678   3.136   1.218 -1.9198 -0.3989  2.0908
  716THF    H1312308   5.645   3.236   1.075  1.5438  1.2943  2.2865
  717THF     O112309   1.926   0.398   2.160  0.2767 -0.5045  0.3992
  717THF     C212310   1.978   0.525   2.125 -0.1637  0.7248 -0.0958
  717THF     C312311   1.840   0.407   2.268 -0.0425 -0.6878  0.0088
  717THF     H412312   1.899   0.577   2.072 -0.8398 -0.8403 -0.6766
  717THF     H512313   2.063   0.517   2.058 -1.7923 -0.0853 -2.1776
  717THF     H612314   1.745   0.449   2.235 -0.0680 -0.4083  0.4250
  717THF     H712315   1.833   0.309   2.316 -3.2715 -1.2481 -1.3366
  717THF     C812316   1.921   0.510   2.351  0.2454  0.7348 -0.0109
  717THF     C912317   2.002   0.590   2.252 -0.1753 -0.1468  0.7493
  717THF    H1012318   1.990   0.466   2.422  1.1340  0.2904 -1.1300
  717THF    H1112319   1.848   0.571   2.405  0.0014  0.8049 -0.4096
  717THF    H1212320   1.980   0.697   2.252 -0.6452 -0.2351  1.7217
  717THF    H1312321   2.107   0.592   2.282  0.5912  2.2046 -1.6641
  718THF     O112322   4.091   4.021   2.324  0.0094  0.0031 -0.2469
  718THF     C212323   4.124   4.106   2.432 -0.9502 -0.0826  0.1088
  718THF     C312324   3.959   3.968   2.343 -0.8944 -0.3823  0.0405
  718THF     H412325   4.180   4.195   2.404  0.5348 -0.8481  0.5176
  718THF     H512326   4.195   4.058   2.499 -2.2068  0.5666  1.9794
  718THF     H612327   3.919   3.953   2.243 -0.8205 -1.8254  0.2038
  718THF     H712328   3.955   3.871   2.393  2.0185 -1.3983 -1.5132
  718THF     C812329   3.881   4.076   2.421 -0.1130  0.2616 -0.1571
  718THF     C912330   3.993   4.134   2.503  0.1159  0.0371 -0.2564
  718THF    H1012331   3.802   4.036   2.484 -0.3573  1.2717  0.1930
  718THF    H1112332   3.849   4.157   2.356 -2.8030 -0.0637  0.6200
  718THF    H1212333   3.968   4.238   2.522 -4.4622 -0.6198 -1.5369
  718THF    H1312334   3.990   4.077   2.596 -2.2214 -2.7568 -1.8805
  719THF     O112335   1.272   2.417   4.917  0.7205  0.0683 -0.3662
  719THF     C212336   1.402   2.476   4.925  0.2088  0.0829 -0.6185
  719THF     C312337   1.191   2.526   4.867 -0.0214 -0.4424  0.2358
  719THF     H412338   1.485   2.410   4.952 -0.4085  0.2985  2.1546
  719THF     H512339   1.398   2.561   4.992 -0.4361  1.7446 -2.6555
  719THF     H612340   1.088   2.500   4.840 -0.0860  1.4665 -1.6195
  719THF     H712341   1.176   2.602   4.945  2.5957 -0.1543  0.5530
  719THF     C812342   1.276   2.573   4.747 -0.1880 -0.1635  0.1530
  719THF     C912343   1.411   2.542   4.785 -0.3305  0.8227  0.1420
  719THF    H1012344   1.273   2.682   4.742 -0.5577 -0.1751  0.0753
  719THF    H1112345   1.233   2.533   4.655  1.7656  0.9983 -1.3336
  719THF    H1212346   1.446   2.463   4.719  0.2112  0.5445  0.7555
  719THF    H1312347   1.482   2.624   4.798  0.4427 -0.1306  2.4688
  720THF     O112348   4.062   2.343   4.816 -0.4640 -0.4743  0.4197
  720THF     C212349   4.127   2.367   4.691 -0.9469  0.4603  0.0463
  720THF     C312350   4.099   2.446   4.904  0.2125 -0.3240 -0.5294
  720THF     H412351   4.071   2.448   4.644 -0.2312  2.0503  1.8258
  720THF     H512352   4.117   2.274   4.636 -0.4310  0.2619  0.2880
  720THF     H612353   4.062   2.546   4.878 -0.0709 -0.3593 -0.2675
  720THF     H712354   4.076   2.429   5.009  0.8450 -0.1111 -0.3497
  720THF     C812355   4.250   2.453   4.887  0.2319  0.3516  0.2416
  720THF     C912356   4.271   2.412   4.734  0.0299 -0.3742 -0.2637
  720THF    H1012357   4.278   2.369   4.951 -0.9691 -0.5285 -0.3567
  720THF    H1112358   4.320   2.533   4.910 -0.0472  0.7026 -0.1230
  720THF    H1212359   4.301   2.498   4.673  2.9465 -1.5834 -0.7120
  720THF    H1312360   4.348   2.334   4.733  0.5055  0.0681 -1.8277
  721THF     O112361   1.575   2.693   3.188  0.1018  0.0777  0.7917
  721THF     C212362   1.609   2.690   3.327 -0.0019  0.0496 -0.0049
  721THF     C312363   1.659   2.600   3.121 -0.1627  0.2853 -0.1195
  721THF     H412364   1.532   2.723   3.397  0.3339 -1.3276  1.0335
  721THF     H512365   1.695   2.754   3.347  0.2080 -0.7833  1.9052
  721THF     H612366   1.635   2.569   3.019  1.4097 -2.7173  0.3101
  721THF     H712367   1.755   2.651   3.114 -1.6805  3.1081 -2.8783
  721THF     C812368   1.641   2.483   3.225 -0.4074  0.4323  0.4517
  721THF     C912369   1.659   2.544   3.356 -0.4571 -0.5068 -0.2891
  721THF    H1012370   1.712   2.400   3.217 -1.1073 -0.3782  2.1242
  721THF    H1112371   1.544   2.433   3.221  0.2554 -1.2653  2.9155
  721THF    H1212372   1.596   2.492   3.428 -0.7175  0.2233  0.0159
  721THF    H1312373   1.759   2.537   3.400 -0.3412  1.2391 -0.1949
  722THF     O112374   3.544   3.585   4.315 -0.2409  0.0717  0.1894
  722THF     C212375   3.485   3.456   4.343  0.5133 -0.3579  0.0440
  722THF     C312376   3.477   3.649   4.204 -0.0356  0.1334  0.2052
  722THF     H412377   3.457   3.432   4.445 -1.3449 -0.5092 -0.4740
  722THF     H512378   3.550   3.375   4.309 -0.0475 -1.0746  0.6572
  722THF     H612379   3.419   3.729   4.249  0.7607  0.0675  1.3995
  722THF     H712380   3.548   3.697   4.136 -0.4198 -1.0283 -1.0527
  722THF     C812381   3.389   3.540   4.141  0.3616  0.3743  0.0226
  722THF     C912382   3.359   3.443   4.258  0.4324  0.7860 -0.1303
  722THF    H1012383   3.441   3.488   4.060 -1.8206 -3.3346  0.7736
  722THF    H1112384   3.292   3.579   4.109  0.4434  0.9427  0.4474
  722THF    H1212385   3.273   3.485   4.311  0.0020  0.9868 -0.9688
  722THF    H1312386   3.338   3.341   4.228  0.9100  0.0609  1.8251
  723THF     O112387   0.657   4.114   2.587  0.1095 -0.2492 -0.2504
  723THF     C212388   0.710   4.167   2.710  0.1337 -0.1798  0.6925
  723THF     C312389   0.682   3.971   2.588 -0.0104 -0.6313 -0.1744
  723THF     H412390   0.642   4.147   2.793  1.4346 -3.1824  1.1402
  723THF     H512391   0.718   4.276   2.708 -2.8657  0.1509  0.6654
  723THF     H612392   0.586   3.937   2.627 -0.2656  0.8422  0.5782
  723THF     H712393   0.687   3.922   2.491  2.0480 -0.9439  0.0375
  723THF     C812394   0.811   3.959   2.670 -0.0219 -0.3409  0.2196
  723THF     C912395   0.844   4.098   2.725 -0.3787  0.2877  0.5432
  723THF    H1012396   0.895   3.928   2.608 -0.6832 -2.2343  0.2260
  723THF    H1112397   0.802   3.886   2.750  0.9201 -0.3787  0.3048
  723THF    H1212398   0.883   4.086   2.826 -1.1441 -0.7092  0.7334
  723THF    H1312399   0.911   4.145   2.652 -2.5841  0.6507 -1.3537
  724THF     O112400   5.252   1.289   1.856 -0.4405 -0.2846 -0.9058
  724THF     C212401   5.133   1.352   1.817  0.2572  0.7949  0.9564
  724THF     C312402   5.361   1.345   1.790 -0.2362  0.6247  0.0531
  724THF     H412403   5.065   1.362   1.901 -0.7691 -2.7372  0.7062
  724THF     H512404   5.089   1.289   1.740 -0.6818  0.9644  1.3474
  724THF     H612405   5.413   1.396   1.871 -1.6576 -0.5104  1.7596
  724THF     H712406   5.428   1.279   1.734 -1.1763 -0.4839  0.1981
  724THF     C812407   5.306   1.440   1.686 -0.6892 -0.2402 -0.2248
  724THF     C912408   5.167   1.482   1.741 -0.5654 -0.2029 -0.6109
  724THF    H1012409   5.287   1.398   1.587  0.0052 -0.1163 -0.4099
  724THF    H1112410   5.368   1.524   1.654  0.1376 -1.6785 -2.6501
  724THF    H1212411   5.181   1.563   1.812  3.1502 -1.5568  0.4137
  724THF    H1312412   5.090   1.505   1.666 -1.5236  1.2643  0.7508
  725THF     O112413   1.586   5.261   1.417  0.0820  0.0757 -0.0824
  725THF     C212414   1.571   5.128   1.366 -0.2219 -0.2189 -0.4120
  725THF     C312415   1.650   5.337   1.307  0.0209 -0.1945  0.9342
  725THF     H412416   1.479   5.131   1.306 -2.9170 -2.5798  3.1491
  725THF     H512417   1.568   5.057   1.449  2.7795  0.9816  0.8551
  725THF     H612418   1.574   5.398   1.258 -0.6288 -0.6613  1.3442
  725THF     H712419   1.724   5.398   1.359 -0.3165  1.1139 -0.0469
  725THF     C812420   1.729   5.235   1.227  0.0698 -0.5466  0.4513
  725THF     C912421   1.696   5.103   1.288  0.1403 -1.0450 -0.2330
  725THF    H1012422   1.834   5.264   1.223 -0.1246  0.1702  0.2094
  725THF    H1112423   1.680   5.243   1.130  1.5385 -0.5920 -0.3244
  725THF    H1212424   1.681   5.024   1.215  0.4409 -0.1780 -1.2611
  725THF    H1312425   1.781   5.072   1.348 -0.2698  0.1033  0.9944
  726THF     O112426   4.952   4.853   4.279 -0.3693 -0.0818  0.0492
  726THF     C212427   4.950   4.951   4.177  0.3673 -0.1696  0.4753
  726THF     C312428   5.000   4.726   4.223 -0.7373  0.0416 -0.6981
  726THF     H412429   5.037   5.015   4.187 -0.0783  0.6297 -0.5733
  726THF     H512430   4.861   5.014   4.176 -0.6520 -1.5139 -1.9837
  726THF     H612431   5.108   4.731   4.215 -0.6592  0.3421  0.4370
  726THF     H712432   4.975   4.634   4.276 -3.2180  0.3645 -1.1768
  726THF     C812433   4.932   4.731   4.088 -0.2764 -0.0584 -0.1131
  726THF     C912434   4.961   4.866   4.045  0.3128 -0.8502 -0.1167
  726THF    H1012435   4.823   4.720   4.083 -0.2504 -0.0979 -0.7607
  726THF    H1112436   4.967   4.659   4.014  0.4870 -1.0232  1.1481
  726THF    H1212437   5.050   4.878   3.983  0.0093  0.5628 -0.2930
  726THF    H1312438   4.880   4.891   3.977 -1.0440 -1.9528  1.0216
  727THF     O112439   4.791   0.631   0.854  0.2159 -0.3977  0.1670
  727THF     C212440   4.884   0.531   0.806 -0.1421  0.8247 -0.7110
  727THF     C312441   4.863   0.751   0.859 -0.4014  0.0472  1.3120
  727THF     H412442   4.876   0.525   0.697 -0.9079  3.0038 -0.8280
  727THF     H512443   4.852   0.440   0.857  1.1327  0.4207 -0.5833
  727THF     H612444   4.877   0.785   0.757 -1.8505 -1.8094  0.4313
  727THF     H712445   4.812   0.836   0.904 -0.3253  0.7702  0.0847
  727THF     C812446   5.004   0.714   0.916 -0.0629 -0.0657 -0.2149
  727THF     C912447   5.021   0.581   0.850  0.1097 -0.3555 -0.8651
  727THF    H1012448   5.009   0.704   1.025  0.1443  0.6014 -0.1600
  727THF    H1112449   5.079   0.785   0.881 -1.3147  1.5020  0.1648
  727THF    H1212450   5.094   0.590   0.770  1.1646 -2.0598 -0.1618
  727THF    H1312451   5.070   0.516   0.923  0.5569 -0.6426 -1.4175
  728THF     O112452   0.958   0.664   1.949 -0.3644  0.6202  0.6130
  728THF     C212453   0.829   0.718   1.955 -0.4621  0.3077 -0.0092
  728THF     C312454   1.046   0.778   1.970  0.1576  0.3030  0.1140
  728THF     H412455   0.752   0.641   1.958 -0.9026  0.7719  2.1043
  728THF     H512456   0.826   0.773   1.861 -0.6368  0.6363  0.1892
  728THF     H612457   1.146   0.752   2.006 -0.7750 -0.9714  1.9605
  728THF     H712458   1.053   0.841   1.882 -0.7048 -0.7250 -0.7150
  728THF     C812459   0.971   0.856   2.075  0.2224 -0.6546 -0.8016
  728THF     C912460   0.829   0.804   2.080  0.0461 -0.1912  0.3590
  728THF    H1012461   0.990   0.963   2.074  3.1542 -1.0743 -0.0579
  728THF    H1112462   1.017   0.841   2.173  1.7446  0.4957 -1.2997
  728THF    H1212463   0.823   0.733   2.163  0.3548  0.0106  0.5543
  728THF    H1312464   0.748   0.877   2.077  0.2311  0.2099  2.8573
  729THF     O112465   1.601   3.201   0.112  0.3601 -0.1975 -0.6358
  729THF     C212466   1.524   3.261   0.214 -0.0402  0.2612 -0.3222
  729THF     C312467   1.696   3.121   0.182 -0.7893 -0.3338 -0.8955
  729THF     H412468   1.465   3.189   0.270 -1.0631  0.6559 -0.8632
  729THF     H512469   1.457   3.336   0.172 -0.7847 -0.7805 -1.0243
  729THF     H612470   1.634   3.037   0.213 -1.2633 -0.1461 -1.3161
  729THF     H712471   1.787   3.103   0.126  0.4475 -0.2708  1.0208
  729THF     C812472   1.740   3.207   0.304  0.0572 -0.2108  0.1156
  729THF     C912473   1.625   3.310   0.318 -0.7233  0.2641  0.7065
  729THF    H1012474   1.833   3.257   0.278  0.0594 -0.9272 -1.3348
  729THF    H1112475   1.763   3.145   0.390  3.0971  0.0826 -0.3867
  729THF    H1212476   1.588   3.323   0.419 -1.1296 -1.5428  0.8159
  729THF    H1312477   1.668   3.407   0.292  2.5968 -0.9151  1.2605
  730THF     O112478   4.710   1.192   5.041 -0.1855 -0.4784  0.2514
  730THF     C212479   4.852   1.197   5.052 -0.2152 -0.2206 -0.7019
  730THF     C312480   4.677   1.179   4.901  0.2174  0.1829  1.0584
  730THF     H412481   4.899   1.099   5.059  0.3373  0.1558  1.8075
  730THF     H512482   4.862   1.257   5.143 -1.7044  1.4080 -1.5520
  730THF     H612483   4.641   1.078   4.881  1.0892  0.1216 -0.3608
  730THF     H712484   4.594   1.239   4.865  1.2149  1.4898  0.8398
  730THF     C812485   4.805   1.225   4.821  0.0071 -0.1502  0.1410
  730THF     C912486   4.894   1.278   4.929 -1.0324  0.2840 -0.3681
  730THF    H1012487   4.789   1.301   4.745 -1.9517  0.3209  0.9737
  730THF    H1112488   4.842   1.136   4.769  1.2955  1.5596 -2.0228
  730THF    H1212489   4.998   1.268   4.900 -0.8892 -0.6347  0.4313
  730THF    H1312490   4.873   1.383   4.948 -2.8417 -0.1451  0.2711
  731THF     O112491   4.522   4.900   4.108 -0.3558 -0.2614  0.5256
  731THF     C212492   4.515   4.851   3.973  0.2166  0.9554 -0.6857
  731THF     C312493   4.520   5.041   4.098 -0.0340 -0.1413 -0.2424
  731THF     H412494   4.478   4.749   3.971  0.2702  0.9250 -0.1734
  731THF     H512495   4.613   4.862   3.927  0.7034 -1.3837 -0.3045
  731THF     H612496   4.507   5.095   4.192  0.2661 -0.7946  0.1849
  731THF     H712497   4.625   5.049   4.070  0.0781 -2.0299 -0.4901
  731THF     C812498   4.428   5.080   3.987  0.0312  0.0541  0.5592
  731THF     C912499   4.412   4.951   3.909  0.0834 -0.6225  0.0810
  731THF    H1012500   4.486   5.139   3.916  0.2672 -1.8701 -0.9220
  731THF    H1112501   4.336   5.125   4.025 -0.5496  1.1473 -1.9687
  731THF    H1212502   4.306   4.925   3.913 -0.2330  0.6472  0.1135
  731THF    H1312503   4.438   4.971   3.805 -0.2891  2.8059  0.5419
  732THF     O112504   2.907   4.653   3.194 -0.3768  0.0276 -0.1498
  732THF     C212505   2.858   4.781   3.215 -0.0067 -0.4417  0.3972
  732THF     C312506   2.996   4.645   3.083 -0.6334 -0.1649 -0.2398
  732THF     H412507   2.877   4.803   3.321 -1.1901 -0.3810  0.6066
  732THF     H512508   2.755   4.790   3.181  0.2348  1.6642  0.0401
  732THF     H612509   3.101   4.627   3.106 -0.7894 -0.4468  0.2567
  732THF     H712510   2.974   4.563   3.015  0.7278  1.6537 -3.0543
  732THF     C812511   2.987   4.776   3.018  0.5788  0.5231 -0.2506
  732THF     C912512   2.947   4.872   3.132 -0.5434 -0.2824 -0.0751
  732THF    H1012513   2.913   4.775   2.938  2.3460 -2.0461 -1.9891
  732THF    H1112514   3.073   4.794   2.954  1.2084  0.3547  0.5260
  732THF    H1212515   3.029   4.914   3.190 -1.8641  3.0024 -0.3610
  732THF    H1312516   2.894   4.962   3.101  1.5415  0.5851 -1.3135
  733THF     O112517   3.587   2.965   1.133 -0.2916  0.1501  0.1241
  733THF     C212518   3.521   2.891   1.035 -0.8221 -0.0610  0.0277
  733THF     C312519   3.718   2.918   1.159  1.1570  0.4703 -0.4906
  733THF     H412520   3.455   2.956   0.978  1.4195  0.7479 -1.7930
  733THF     H512521   3.452   2.818   1.077 -1.2877 -1.1277 -2.4573
  733THF     H612522   3.794   2.996   1.158  1.5733  0.0646 -1.4100
  733THF     H712523   3.725   2.864   1.253  2.2286 -0.0400 -0.8482
  733THF     C812524   3.743   2.810   1.055 -0.4257  0.2097 -0.2962
  733THF     C912525   3.635   2.831   0.956 -0.1139 -0.0826  0.6823
  733THF    H1012526   3.723   2.712   1.098 -1.2471 -0.7285 -2.6695
  733THF    H1112527   3.848   2.809   1.025  0.5697 -1.2524  2.8166
  733THF    H1212528   3.669   2.897   0.876  1.9765 -1.5135  0.2919
  733THF    H1312529   3.608   2.739   0.903 -1.1252  0.5965 -0.0174
  734THF     O112530   0.040   4.197   5.179 -0.2230 -0.1421 -0.2512
  734THF     C212531  -0.090   4.225   5.229 -0.0348  0.6493 -0.1075
  734THF     C312532   0.021   4.078   5.113  0.4487  0.1838  0.6670
  734THF     H412533  -0.146   4.266   5.145  1.1574 -1.4608 -2.0596
  734THF     H512534  -0.069   4.299   5.307  2.3669 -0.1461  0.0773
  734THF     H612535  -0.024   4.087   5.015 -0.8460 -3.5071  0.7753
  734THF     H712536   0.119   4.032   5.104  0.0026 -0.4357 -1.4461
  734THF     C812537  -0.062   3.990   5.206  0.0254 -0.0865  0.5674
  734THF     C912538  -0.138   4.094   5.288  0.1311  0.0982  0.0588
  734THF    H1012539   0.004   3.936   5.274  0.5085  2.8396  2.6198
  734THF    H1112540  -0.119   3.918   5.146  1.1846  0.0621 -0.7533
  734THF    H1212541  -0.247   4.093   5.296  0.1269  1.3495  0.4101
  734THF    H1312542  -0.109   4.079   5.392 -2.5350 -1.2806  0.6966
  735THF     O112543   4.474   3.371   5.427 -0.1262 -0.2675 -0.0529
  735THF     C212544   4.590   3.329   5.351  0.1118 -0.8851 -0.2311
  735THF     C312545   4.407   3.470   5.358 -0.4682 -0.0463 -0.2409
  735THF     H412546   4.627   3.234   5.389 -0.7907 -0.7287  1.1530
  735THF     H512547   4.663   3.409   5.360 -0.2237 -0.5724 -0.2624
  735THF     H612548   4.302   3.453   5.380 -0.3189 -0.2036  0.3541
  735THF     H712549   4.438   3.568   5.391 -1.0748  0.3138 -0.7070
  735THF     C812550   4.439   3.450   5.207 -0.1510  0.4245  1.3029
  735THF     C912551   4.541   3.335   5.209 -0.1449  0.1637 -0.5375
  735THF    H1012552   4.488   3.538   5.164 -0.5361  1.2531  2.4923
  735THF    H1112553   4.362   3.421   5.136  1.2918 -1.1293  0.2976
  735THF    H1212554   4.493   3.238   5.194 -1.1586  0.0005  2.8421
  735THF    H1312555   4.621   3.344   5.136  0.4297 -3.5340 -0.5888
  736THF     O112556   2.071   3.774   3.287 -0.0711 -0.0286  0.4695
  736THF     C212557   2.041   3.879   3.184  0.2378  0.0267 -0.3867
  736THF     C312558   2.218   3.757   3.302  0.3292 -0.3570  0.0963
  736THF     H412559   1.942   3.921   3.206 -0.3220 -0.8030 -1.2275
  736THF     H512560   2.058   3.834   3.086 -1.5389 -0.9293 -0.3092
  736THF     H612561   2.246   3.728   3.403 -0.8345  0.0158  0.5298
  736THF     H712562   2.262   3.690   3.228 -0.5385 -1.5877  0.6770
  736THF     C812563   2.271   3.895   3.260  0.2761 -0.0048 -0.0840
  736THF     C912564   2.149   3.976   3.215 -0.7025  0.4329 -0.3376
  736THF    H1012565   2.341   3.881   3.178  1.9129  2.0059  0.8728
  736THF    H1112566   2.322   3.936   3.348  0.2610 -1.4807  0.6390
  736THF    H1212567   2.126   4.040   3.301  0.0745  0.7486 -0.3626
  736THF    H1312568   2.178   4.034   3.128  0.8479 -2.3903 -1.8415
  737THF     O112569   5.396   0.289   0.683  0.3534 -0.5443  0.9237
  737THF     C212570   5.514   0.214   0.708 -0.2858 -0.2586 -0.3403
  737THF     C312571   5.419   0.425   0.715  0.2730 -0.0915  0.2729
  737THF     H412572   5.589   0.230   0.631  1.4607  0.2671  1.3971
  737THF     H512573   5.486   0.109   0.716 -0.9331 -0.0942 -0.3747
  737THF     H612574   5.475   0.467   0.631  1.2134  0.2561  1.0464
  737THF     H712575   5.324   0.475   0.732  0.6430  0.5053  0.6436
  737THF     C812576   5.500   0.416   0.844 -1.0364  0.4476  0.3885
  737THF     C912577   5.571   0.279   0.831  0.3120  0.3840  0.1883
  737THF    H1012578   5.446   0.408   0.938 -0.1957 -0.7876  0.7956
  737THF    H1112579   5.571   0.498   0.860  0.0334 -0.4035  0.1307
  737THF    H1212580   5.676   0.307   0.818 -0.0739  2.0180  0.4297
  737THF    H1312581   5.561   0.221   0.923 -1.3711  0.9247  0.3714
  738THF     O112582   0.546   4.645   1.217  0.3351  0.1679 -0.9651
  738THF     C212583   0.458   4.649   1.331  0.0632 -0.1706  0.0856
  738THF     C312584   0.548   4.512   1.172 -0.8676 -0.2788  0.2473
  738THF     H412585   0.367   4.705   1.310  1.0723  1.2287 -0.7874
  738THF     H512586   0.501   4.703   1.416  0.7386  1.4926 -1.2417
  738THF     H612587   0.464   4.497   1.105 -0.4161  2.8113 -1.1714
  738THF     H712588   0.639   4.487   1.117 -2.0706 -0.7266 -1.6192
  738THF     C812589   0.541   4.427   1.297  0.4157 -0.3139 -0.3304
  738THF     C912590   0.442   4.502   1.379 -0.7985 -0.6604  0.1988
  738THF    H1012591   0.633   4.432   1.356 -1.0121 -0.3659  2.0383
  738THF    H1112592   0.519   4.322   1.281 -0.3097  0.0791 -2.0160
  738THF    H1212593   0.345   4.468   1.345 -0.1958 -0.6292 -1.6374
  738THF    H1312594   0.440   4.496   1.488 -0.3985 -0.5003  0.2151
  739THF     O112595   5.232   1.695   0.142  0.1084 -0.8091  0.2112
  739THF     C212596   5.120   1.782   0.162 -0.1978 -0.4900  0.2784
  739THF     C312597   5.196   1.599   0.044  0.0768  0.2254  0.5281
  739THF     H412598   5.115   1.853   0.080  3.4606  1.1222  1.1951
  739THF     H512599   5.141   1.844   0.250  1.3799  0.1956 -0.5380
  739THF     H612600   5.205   1.652  -0.050 -1.2416  0.1704  0.3543
  739THF     H712601   5.265   1.515   0.033  1.2392  1.3037 -0.5901
  739THF     C812602   5.043   1.581   0.067 -0.1981  0.0331 -0.5544
  739THF     C912603   5.011   1.678   0.178 -0.0808  0.7035  0.3628
  739THF    H1012604   5.002   1.480   0.068 -0.3797  0.1031 -0.8664
  739THF    H1112605   4.989   1.615  -0.021 -0.0232 -2.2240 -1.6304
  739THF    H1212606   4.912   1.723   0.172 -0.3349  0.3791  1.7971
  739THF    H1312607   5.006   1.623   0.271 -1.4087 -1.6596 -1.0077
  740THF     O112608   3.497   3.171   3.164  0.2955  0.1305  0.5841
  740THF     C212609   3.627   3.213   3.207 -0.4049  0.3045  0.2129
  740THF     C312610   3.416   3.292   3.165  0.5835  0.2182 -0.1704
  740THF     H412611   3.689   3.174   3.126 -0.5720  0.0337  0.2130
  740THF     H512612   3.643   3.170   3.306 -1.0607 -1.3861 -0.3654
  740THF     H612613   3.412   3.331   3.064  0.2824 -0.4141 -0.4093
  740THF     H712614   3.313   3.264   3.187  0.7829 -0.5318 -0.1717
  740THF     C812615   3.483   3.393   3.258 -1.0167  0.3251 -0.1232
  740THF     C912616   3.629   3.367   3.233  0.2729 -0.5509 -0.6192
  740THF    H1012617   3.472   3.359   3.361  1.7836 -2.3523 -0.5588
  740THF    H1112618   3.460   3.495   3.227  1.3271  0.5506 -1.3427
  740THF    H1212619   3.659   3.411   3.138 -0.7251 -3.0405 -2.1957
  740THF    H1312620   3.694   3.411   3.309  0.4716  0.1046 -1.1592
  741THF     O112621   0.855   4.134   1.328 -0.1377 -0.0095 -1.0335
  741THF     C212622   0.951   4.206   1.247  0.6358 -0.0455  0.7872
  741THF     C312623   0.747   4.081   1.254  0.2681  0.0610 -0.2507
  741THF     H412624   1.050   4.198   1.293  0.0862 -2.8171  1.6613
  741THF     H512625   0.927   4.312   1.242 -0.6766 -0.3731 -1.7646
  741THF     H612626   0.699   4.012   1.324 -2.5547  2.0386 -0.0860
  741THF     H712627   0.680   4.162   1.229 -0.2994  0.0527  1.1465
  741THF     C812628   0.836   4.031   1.139 -0.4843  0.6913 -0.4167
  741THF     C912629   0.928   4.143   1.106 -0.5659  0.3107  0.1606
  741THF    H1012630   0.778   4.010   1.049  1.3556  2.1314 -2.0322
  741THF    H1112631   0.895   3.942   1.159 -0.7359 -0.2957 -3.5126
  741THF    H1212632   1.018   4.104   1.059  0.9002  0.4930  2.5936
  741THF    H1312633   0.889   4.220   1.040  0.2842  0.2745 -0.3956
  742THF     O112634   3.529   4.902   0.744  0.2006 -1.1725 -0.5503
  742THF     C212635   3.403   4.927   0.805 -0.6729 -0.0154 -0.2205
  742THF     C312636   3.539   4.768   0.691  0.1509 -0.2246 -0.1303
  742THF     H412637   3.369   5.028   0.782  2.0633  0.6053 -2.2326
  742THF     H512638   3.412   4.922   0.913  2.5429  0.9590 -0.3181
  742THF     H612639   3.530   4.751   0.584 -4.5623 -1.8996  0.2872
  742THF     H712640   3.632   4.718   0.719 -0.2247 -0.9003 -0.0744
  742THF     C812641   3.421   4.695   0.760 -0.5341  0.2198  0.4209
  742THF     C912642   3.315   4.807   0.767 -0.7016 -0.7713 -1.0491
  742THF    H1012643   3.459   4.667   0.858  1.6641 -0.6714 -0.6219
  742THF    H1112644   3.377   4.614   0.701 -2.8455  2.2938 -0.8706
  742THF    H1212645   3.279   4.825   0.666 -0.2561  0.9102 -0.9499
  742THF    H1312646   3.238   4.792   0.843  1.3240  0.8635  1.5042
  743THF     O112647   0.676   1.242   0.381  0.0092 -0.3484  0.1063
  743THF     C212648   0.544   1.291   0.366  0.5013  0.0775 -0.2890
  743THF     C312649   0.683   1.121   0.316 -0.3882  0.3073 -0.1294
  743THF     H412650   0.540   1.396   0.393  3.0653 -0.2736  1.8275
  743THF     H512651   0.489   1.225   0.433  1.6027  1.2242  1.8338
  743THF     H612652   0.787   1.088   0.309 -0.0881  1.5212 -2.8498
  743THF     H712653   0.626   1.043   0.366  0.6837 -0.4047  0.0223
  743THF     C812654   0.625   1.161   0.176  0.0612  0.3716 -0.1839
  743THF     C912655   0.519   1.265   0.218 -0.1608  0.2150  0.2546
  743THF    H1012656   0.588   1.073   0.125  1.0353 -0.3788  0.3805
  743THF    H1112657   0.700   1.205   0.110 -1.0618  0.3072 -1.5492
  743THF    H1212658   0.532   1.366   0.178 -0.1306 -0.0524 -0.4211
  743THF    H1312659   0.415   1.236   0.207  0.0103 -0.4377  0.3310
  744THF     O112660   4.135   2.595   0.116 -0.0442  0.3202 -0.2533
  744THF     C212661   4.048   2.497   0.052 -0.3827  0.3056 -0.9871
  744THF     C312662   4.132   2.570   0.253 -0.3032 -0.0665  0.1880
  744THF     H412663   4.062   2.491  -0.056 -0.6993 -1.0404 -0.9693
  744THF     H512664   3.942   2.506   0.074 -1.2082 -1.4521 -3.7647
  744THF     H612665   4.207   2.621   0.313 -0.4483  0.0936  0.2337
  744THF     H712666   4.034   2.606   0.285  0.4177  1.3508  0.8538
  744THF     C812667   4.141   2.420   0.265 -0.0447  0.2846  0.0521
  744THF     C912668   4.080   2.369   0.128  0.2691  0.9962 -0.0049
  744THF    H1012669   4.084   2.371   0.343  0.0949 -0.8755 -0.5494
  744THF    H1112670   4.242   2.379   0.264 -0.3639 -0.5538  1.1370
  744THF    H1212671   4.152   2.307   0.074  0.2132 -0.1142  1.1614
  744THF    H1312672   3.989   2.313   0.148 -0.1024  2.0758  1.4938
  745THF     O112673   1.467   4.603   5.117 -0.0595 -0.4198 -0.4396
  745THF     C212674   1.364   4.533   5.178  0.2834 -0.7300  0.1365
  745THF     C312675   1.463   4.730   5.182 -0.3006 -0.5566 -0.1987
  745THF     H412676   1.411   4.507   5.273 -0.2232 -0.5240  0.4502
  745THF     H512677   1.339   4.437   5.132  0.5989  0.1347 -1.9088
  745THF     H612678   1.517   4.723   5.277 -1.2835  0.5381  0.4701
  745THF     H712679   1.526   4.797   5.123  1.8551 -0.7219  1.7579
  745THF     C812680   1.318   4.773   5.187 -0.3160  0.1877 -0.0895
  745THF     C912681   1.252   4.638   5.203 -0.4994 -0.1466 -0.4112
  745THF    H1012682   1.278   4.820   5.097 -1.2536 -0.1309  0.1493
  745THF    H1112683   1.292   4.838   5.271 -2.3578  0.4460 -0.8636
  745THF    H1212684   1.211   4.623   5.303 -3.0606  1.0075 -1.1934
  745THF    H1312685   1.173   4.613   5.131 -0.4421  0.9753 -0.8720
  746THF     O112686   0.290   3.896   4.050 -0.0345 -0.1896  0.5071
  746THF     C212687   0.321   3.798   3.950 -0.2740 -0.3660  0.0206
  746THF     C312688   0.147   3.893   4.066 -0.5362 -0.1994 -0.4281
  746THF     H412689   0.429   3.790   3.937  0.0106  2.1236  0.2861
  746THF     H512690   0.283   3.838   3.856 -1.8582  3.5327  2.0664
  746THF     H612691   0.118   3.952   4.153 -0.8145  0.5739 -1.0330
  746THF     H712692   0.096   3.935   3.979 -0.0891 -0.6455 -0.9101
  746THF     C812693   0.129   3.740   4.080  0.1511  0.7462  0.4465
  746THF     C912694   0.254   3.678   4.013 -0.3509  0.1442 -0.4643
  746THF    H1012695   0.040   3.706   4.027 -0.2447 -0.8316  2.0310
  746THF    H1112696   0.117   3.707   4.183  0.6751  0.9540  0.5780
  746THF    H1212697   0.316   3.654   4.100  0.4849  1.8143 -0.5637
  746THF    H1312698   0.235   3.590   3.952  1.3996  0.5488 -1.6665
  747THF     O112699   3.843   1.197   4.802  0.1477  0.0943 -0.0690
  747THF     C212700   3.971   1.175   4.858  0.4891  0.2582  0.5436
  747THF     C312701   3.841   1.159   4.668 -0.0428  0.2734  0.1100
  747THF     H412702   3.966   1.067   4.873 -1.5115  0.2991  0.4609
  747THF     H512703   3.998   1.216   4.956  1.2372  1.1726 -0.0267
  747THF     H612704   3.802   1.060   4.648 -1.7586  0.9978 -0.3060
  747THF     H712705   3.777   1.224   4.608  1.4035 -0.3918 -2.3352
  747THF     C812706   3.992   1.165   4.619 -0.4795  0.2491  0.5008
  747THF     C912707   4.068   1.198   4.748 -0.5757  0.3805 -0.2435
  747THF    H1012708   4.006   1.237   4.538  0.3509 -1.1826 -0.6652
  747THF    H1112709   4.022   1.068   4.581  0.0653  0.7369 -0.3624
  747THF    H1212710   4.155   1.135   4.764 -0.8672 -0.0480 -0.3237
  747THF    H1312711   4.098   1.303   4.738 -0.4027  0.2609 -1.0545
  748THF     O112712   3.780   3.056   3.688 -0.0560 -0.7916  0.1917
  748THF     C212713   3.864   3.120   3.586 -0.0070  0.0683  0.1168
  748THF     C312714   3.652   3.070   3.636  0.0775  0.5429  0.1644
  748THF     H412715   3.863   3.059   3.495 -0.7422 -0.5475  0.5281
  748THF     H512716   3.966   3.128   3.621 -0.4154 -1.2122  1.7187
  748THF     H612717   3.637   2.992   3.562 -1.2050 -1.7690  2.6848
  748THF     H712718   3.580   3.048   3.715  1.1444  1.0712  1.3189
  748THF     C812719   3.639   3.218   3.604  0.6145 -0.4470  0.2521
  748THF     C912720   3.783   3.254   3.574  0.1421  0.9248 -0.0497
  748THF    H1012721   3.594   3.264   3.692  1.6700 -0.0283  0.5950
  748THF    H1112722   3.569   3.225   3.522  1.2538 -1.9610 -0.4435
  748THF    H1212723   3.794   3.303   3.478 -0.7673  1.1551 -0.0405
  748THF    H1312724   3.831   3.317   3.649  0.8653  1.0701 -0.6169
  749THF     O112725   2.612   4.791   5.346  0.5403  0.9221  0.3236
  749THF     C212726   2.612   4.841   5.481  0.0383  0.3885  0.3392
  749THF     C312727   2.634   4.648   5.352 -0.3945  1.6532 -0.0286
  749THF     H412728   2.565   4.939   5.489  0.7141  0.9825 -2.1794
  749THF     H512729   2.717   4.856   5.507  0.7610  1.9945 -2.9594
  749THF     H612730   2.603   4.598   5.261  1.5147  2.8108 -1.3905
  749THF     H712731   2.742   4.638   5.363 -0.8175 -1.5019  2.7331
  749THF     C812732   2.561   4.595   5.478 -0.3244  0.0854 -0.2461
  749THF     C912733   2.553   4.722   5.561  0.0750 -0.6155  0.1315
  749THF    H1012734   2.608   4.515   5.534 -0.8094  0.4948  0.7724
  749THF    H1112735   2.456   4.568   5.459 -0.4595 -0.4827  1.1926
  749THF    H1212736   2.449   4.751   5.576  0.3841  0.5492  0.1528
  749THF    H1312737   2.598   4.715   5.660  0.2960  2.0154  0.2910
  750THF     O112738   5.370   5.302   5.344  0.0620  0.2691  0.3626
  750THF     C212739   5.355   5.215   5.456  0.1707  0.0557  0.6147
  750THF     C312740   5.263   5.282   5.257  0.2076  0.1513 -0.0519
  750THF     H412741   5.290   5.267   5.525 -1.0907 -1.9819  1.0500
  750THF     H512742   5.443   5.183   5.514  0.0011 -1.2116  0.2087
  750THF     H612743   5.186   5.357   5.280  0.6337  0.2470  1.1311
  750THF     H712744   5.300   5.298   5.156 -0.3701  1.2801 -0.1014
  750THF     C812745   5.219   5.137   5.277  0.2781  0.3073 -0.5184
  750THF     C912746   5.290   5.084   5.402  0.2566  0.0808  0.3811
  750THF    H1012747   5.228   5.080   5.184  1.7311 -3.0773  1.5195
  750THF    H1112748   5.112   5.137   5.298  0.5499  2.8320  1.1972
  750THF    H1212749   5.216   5.052   5.475  1.0979  0.4186  1.3961
  750THF    H1312750   5.348   4.996   5.375 -0.8196 -0.0020 -1.9399
  751THF     O112751   1.588   2.301   3.599  0.2376  0.4651  0.1896
  751THF     C212752   1.656   2.188   3.549 -0.6417 -0.5337  0.2433
  751THF     C312753   1.521   2.264   3.721  0.8874 -0.3735 -0.1671
  751THF     H412754   1.762   2.197   3.569  0.1193 -2.1064 -2.5367
  751THF     H512755   1.656   2.188   3.440  0.2962  1.2716  0.2090
  751THF     H612756   1.589   2.254   3.806 -2.4464  2.2456  3.0805
  751THF     H712757   1.446   2.333   3.757 -0.2391 -2.7769  2.4986
  751THF     C812758   1.468   2.126   3.694 -0.0887  0.5151 -0.8794
  751THF     C912759   1.584   2.070   3.618 -0.6080 -0.1069  0.9211
  751THF    H1012760   1.375   2.140   3.640 -2.0404 -2.4982  1.3888
  751THF    H1112761   1.445   2.067   3.783 -0.2935  1.2751 -0.4131
  751THF    H1212762   1.656   2.026   3.688 -0.5016 -0.8141  0.3809
  751THF    H1312763   1.555   1.995   3.544  2.1701  0.6081 -1.0449
  752THF     O112764   0.712   4.790   4.312 -0.7517  0.4028  0.2888
  752THF     C212765   0.721   4.661   4.376 -0.0717 -0.0484  0.2683
  752THF     C312766   0.652   4.770   4.185 -0.1059  0.6649  0.5029
  752THF     H412767   0.643   4.655   4.452  0.4693  0.3636  0.8674
  752THF     H512768   0.820   4.656   4.422  0.0630  2.5737  0.4078
  752THF     H612769   0.569   4.840   4.182  0.2298  1.0262 -1.0190
  752THF     H712770   0.709   4.792   4.095 -1.1220 -2.2317 -0.9804
  752THF     C812771   0.607   4.625   4.176 -0.2909  0.7117 -0.9721
  752THF     C912772   0.704   4.555   4.273  0.0067  0.0346  0.0340
  752THF    H1012773   0.614   4.587   4.074 -2.5320  1.8031 -1.6111
  752THF    H1112774   0.501   4.612   4.199 -1.1602  0.0324 -4.6613
  752THF    H1212775   0.669   4.462   4.320  2.8401 -0.7686  0.7310
  752THF    H1312776   0.804   4.537   4.234  0.7414  1.2462  1.2763
  753THF     O112777   2.727   4.079   0.427  0.5551  0.6442  0.2398
  753THF     C212778   2.842   4.019   0.358 -0.1495 -0.8928  0.1705
  753THF     C312779   2.663   3.975   0.491  0.3204 -0.4444 -0.2230
  753THF     H412780   2.922   4.091   0.341  0.7143 -1.4000  1.8056
  753THF     H512781   2.800   3.976   0.268 -0.9034 -1.6010  0.8491
  753THF     H612782   2.589   4.015   0.560  1.7514 -0.4400  1.3544
  753THF     H712783   2.614   3.908   0.419  0.2461 -2.0337  1.2382
  753THF     C812784   2.784   3.910   0.561  0.5774 -0.2815 -0.7936
  753THF     C912785   2.894   3.925   0.464 -0.5089  0.4806  0.5163
  753THF    H1012786   2.758   3.808   0.589 -1.2717  0.3101 -0.2105
  753THF    H1112787   2.807   3.971   0.648 -3.1184  1.6182 -0.9530
  753THF    H1212788   2.987   3.965   0.505  0.6807 -1.8758  0.2691
  753THF    H1312789   2.923   3.830   0.420 -1.6334  0.7888 -0.9770
  754THF     O112790   4.921   2.262   1.681  0.8168  0.1355 -0.8507
  754THF     C212791   4.984   2.311   1.794  0.2640  0.3903  0.1829
  754THF     C312792   4.810   2.184   1.718 -0.0908 -0.1351 -0.0700
  754THF     H412793   4.923   2.386   1.845  1.1150 -0.2795  2.2934
  754THF     H512794   5.087   2.344   1.778  0.1262  0.9967  0.4997
  754THF     H612795   4.730   2.249   1.755  0.7393 -0.6755  2.9318
  754THF     H712796   4.773   2.115   1.642  0.7021 -1.1867  0.4709
  754THF     C812797   4.865   2.106   1.827  0.1689  0.1943 -0.6738
  754THF     C912798   4.981   2.187   1.878 -0.5678  0.9831  0.0131
  754THF    H1012799   4.896   2.004   1.805  0.5373  0.1101  0.1920
  754THF    H1112800   4.788   2.100   1.903 -0.3791  0.1265 -1.2226
  754THF    H1212801   4.964   2.209   1.984  2.3412 -0.0494  0.7892
  754THF    H1312802   5.075   2.138   1.853 -2.0154 -2.3769  0.5000
  755THF     O112803   1.005   5.401   3.692 -0.4060 -0.3200  0.0218
  755THF     C212804   0.932   5.290   3.647  0.2294  0.1880  0.5134
  755THF     C312805   1.120   5.367   3.764  0.3681 -0.1767 -0.2330
  755THF     H412806   0.991   5.265   3.558  1.3982  0.4327  1.1886
  755THF     H512807   0.828   5.301   3.618  0.4123 -0.8324 -0.6652
  755THF     H612808   1.217   5.395   3.723  1.4316 -2.8222  0.2904
  755THF     H712809   1.110   5.424   3.856 -1.0724 -2.5879  1.2059
  755THF     C812810   1.101   5.211   3.796 -0.0883 -0.2791  0.0581
  755THF     C912811   0.961   5.182   3.749  0.7390 -1.1097 -0.0422
  755THF    H1012812   1.130   5.188   3.899  1.7913 -0.6839 -0.5343
  755THF    H1112813   1.176   5.164   3.733  0.2935 -2.0363  1.7174
  755THF    H1212814   0.955   5.080   3.713 -0.3010 -1.1502  0.2047
  755THF    H1312815   0.891   5.185   3.833 -0.0133 -0.0165 -0.6732
  756THF     O112816   2.377   3.066   1.089 -0.4811 -0.4950  0.2348
  756THF     C212817   2.457   3.008   1.194 -0.1901  0.5103  0.4124
  756THF     C312818   2.464   3.128   0.992  0.1281 -0.5900  0.0841
  756THF     H412819   2.500   2.915   1.158 -1.1574  0.0901  0.3116
  756THF     H512820   2.394   2.986   1.281  0.6008 -2.1394  0.4086
  756THF     H612821   2.460   3.093   0.889  1.1951 -0.0071 -0.1750
  756THF     H712822   2.429   3.231   0.982  3.5013  0.5463 -1.9413
  756THF     C812823   2.603   3.132   1.049  0.9331 -0.0415 -0.0253
  756THF     C912824   2.575   3.104   1.201 -0.0118  0.1999  0.0808
  756THF    H1012825   2.662   3.223   1.041  1.6494 -0.4106  0.9085
  756THF    H1112826   2.645   3.048   0.993 -2.2131 -0.4404 -2.0974
  756THF    H1212827   2.656   3.062   1.259 -1.5318 -0.5943  1.7187
  756THF    H1312828   2.549   3.195   1.255  0.9627 -0.0377  0.9897
  757THF     O112829   3.356   2.959   2.323 -0.1922 -0.0433 -0.0165
  757THF     C212830   3.415   3.040   2.222 -0.0503 -0.1470  0.4983
  757THF     C312831   3.289   2.848   2.260  0.5158 -0.3090  0.2397
  757THF     H412832   3.522   3.020   2.219  0.6254  3.1083 -0.9191
  757THF     H512833   3.409   3.145   2.252  0.2245 -0.2821  1.0513
  757THF     H612834   3.365   2.772   2.239 -1.0851 -1.5004 -1.6044
  757THF     H712835   3.208   2.809   2.321  0.1412  0.8638  0.5258
  757THF     C812836   3.236   2.899   2.132 -0.2135 -0.4218 -0.7854
  757THF     C912837   3.326   3.017   2.107  0.6156  0.0392  0.8687
  757THF    H1012838   3.134   2.938   2.132  0.4864  1.7694  2.1722
  757THF    H1112839   3.244   2.832   2.047  1.7396 -0.2661 -0.7657
  757THF    H1212840   3.388   3.003   2.019  1.7792  0.6880  1.5590
  757THF    H1312841   3.270   3.107   2.084  1.3013  0.1405 -0.4814
  758THF     O112842   1.388   1.527   5.217 -1.3473 -0.1955  0.2389
  758THF     C212843   1.478   1.591   5.300  0.0730  0.2612 -0.4076
  758THF     C312844   1.302   1.451   5.312 -0.8268 -0.3427  0.0216
  758THF     H412845   1.426   1.669   5.357  0.3576  0.7227 -0.7697
  758THF     H512846   1.566   1.633   5.252  1.0001 -2.1036 -0.9147
  758THF     H612847   1.248   1.515   5.382  0.1581 -1.7082  2.1622
  758THF     H712848   1.231   1.391   5.256  0.3782 -2.2582  0.4406
  758THF     C812849   1.416   1.370   5.380 -0.0312  0.5592 -0.8883
  758THF     C912850   1.516   1.486   5.406  0.1911 -0.0531  0.2306
  758THF    H1012851   1.460   1.298   5.310 -0.3251 -0.0545 -0.4513
  758THF    H1112852   1.393   1.310   5.468 -1.4435  1.0343 -0.9180
  758THF    H1212853   1.510   1.529   5.506  2.4010 -1.6693  1.1413
  758THF    H1312854   1.618   1.451   5.390  0.5459  0.7008  0.7736
  759THF     O112855   0.968   3.517   3.463  0.0573 -0.4436  0.4852
  759THF     C212856   1.060   3.478   3.561  0.0241 -0.0521 -0.1367
  759THF     C312857   0.938   3.404   3.392  0.1059 -0.8262  0.1604
  759THF     H412858   1.011   3.427   3.643 -1.1372  1.8548  0.4295
  759THF     H512859   1.118   3.550   3.619  2.3855 -1.6887 -0.3581
  759THF     H612860   0.858   3.350   3.442 -1.0886  0.9870  0.2878
  759THF     H712861   0.901   3.423   3.292  1.5865 -0.2733 -0.3105
  759THF     C812862   1.060   3.314   3.379  0.1772 -0.1090  0.5476
  759THF     C912863   1.153   3.381   3.483  0.1985 -0.2428 -0.0410
  759THF    H1012864   1.100   3.312   3.277  0.7124  1.1644  0.7203
  759THF    H1112865   1.028   3.212   3.403 -0.1386 -0.2893 -0.5566
  759THF    H1212866   1.194   3.304   3.548 -0.8733 -1.0342 -0.2590
  759THF    H1312867   1.227   3.444   3.434 -2.8573  1.6125 -2.7248
  760THF     O112868   0.134   5.121   0.104 -0.4343  0.2241  0.0705
  760THF     C212869   0.097   5.049   0.217  0.3713  0.3429  0.4536
  760THF     C312870   0.214   5.222   0.162 -0.2226 -0.0858 -0.1778
  760THF     H412871   0.174   4.995   0.272 -0.8303 -2.3261 -0.3628
  760THF     H512872   0.021   4.976   0.191  1.1623  0.2274 -1.6801
  760THF     H612873   0.311   5.178   0.186 -0.8983 -0.7160  1.5264
  760THF     H712874   0.228   5.302   0.088 -0.8112  0.1616 -0.0273
  760THF     C812875   0.132   5.277   0.277  0.1000  0.6979 -0.0491
  760THF     C912876   0.034   5.161   0.309  0.0748  0.0970 -0.0118
  760THF    H1012877   0.084   5.372   0.254 -0.1457  1.1595  2.1187
  760THF    H1112878   0.190   5.289   0.369 -0.8362  1.9477  0.4106
  760THF    H1212879   0.013   5.142   0.414 -0.3503  0.2147 -0.0746
  760THF    H1312880  -0.059   5.196   0.264  0.0588  0.0641 -0.0047
  761THF     O112881   2.045   0.121   2.923 -0.4490 -0.4480  0.1959
  761THF     C212882   2.031   0.120   2.785  0.0232 -0.0438 -0.3248
  761THF     C312883   2.025   0.255   2.978  0.1098  0.5553 -0.2038
  761THF     H412884   1.948   0.058   2.751 -0.1047  1.4815 -3.1646
  761THF     H512885   2.125   0.089   2.740  1.2870  1.0866  1.4021
  761THF     H612886   1.918   0.268   2.994  0.3273  2.6886 -0.1347
  761THF     H712887   2.073   0.277   3.073  0.5060  2.4417 -0.7965
  761THF     C812888   2.057   0.344   2.864  0.4726 -0.5222  0.7141
  761THF     C912889   2.010   0.266   2.748  0.0303  0.3478 -0.0038
  761THF    H1012890   2.164   0.361   2.850 -0.2789  4.5026 -0.8930
  761THF    H1112891   2.009   0.442   2.865  2.1942  0.3742 -0.0449
  761THF    H1212892   1.904   0.279   2.730  0.2821 -0.9047 -3.1017
  761THF    H1312893   2.063   0.294   2.657  1.6970  0.2568  0.8977
  762THF     O112894   1.209   0.903   2.689  0.1514 -0.1417  0.2065
  762THF     C212895   1.110   0.813   2.720  0.4452 -0.3099 -0.3359
  762THF     C312896   1.227   0.982   2.806 -0.6360  0.2109  0.4687
  762THF     H412897   1.102   0.744   2.636  2.1430  0.0015 -0.7950
  762THF     H512898   1.013   0.862   2.731 -0.7335 -2.9213  2.2108
  762THF     H612899   1.316   1.044   2.808 -0.3645 -0.1747  1.6539
  762THF     H712900   1.144   1.051   2.820 -1.7059 -0.7664 -0.8906
  762THF     C812901   1.235   0.878   2.912 -0.1919  0.4006 -0.1818
  762THF     C912902   1.155   0.758   2.850 -0.1799  0.9183 -0.2093
  762THF    H1012903   1.216   0.915   3.013  0.9100  2.5960 -0.7185
  762THF    H1112904   1.339   0.844   2.913 -0.7263 -1.3347  1.2718
  762THF    H1212905   1.225   0.677   2.828  0.3628  1.0824  0.8736
  762THF    H1312906   1.088   0.723   2.928  1.6527  1.1384  1.5542
  763THF     O112907   4.407   2.253   3.082  0.5767  0.3522 -0.1924
  763THF     C212908   4.393   2.119   3.037 -0.2140  0.3162 -0.3235
  763THF     C312909   4.538   2.262   3.129  0.3881  0.0482  0.2885
  763THF     H412910   4.319   2.109   2.957 -0.0547 -0.1744 -0.4100
  763THF     H512911   4.349   2.067   3.121  1.4335  0.6579  0.7950
  763THF     H612912   4.571   2.364   3.148  2.6321 -0.4748 -0.4600
  763THF     H712913   4.545   2.198   3.217 -0.4927 -1.0248 -0.3993
  763THF     C812914   4.616   2.200   3.011  0.4148  0.3086  0.3568
  763THF     C912915   4.529   2.079   2.975 -0.8620 -0.0162  0.3062
  763THF    H1012916   4.718   2.169   3.031 -0.0508 -0.0708  2.3124
  763THF    H1112917   4.624   2.276   2.933 -0.1052 -0.9087 -0.9191
  763THF    H1212918   4.515   2.039   2.875  0.3950  0.6701 -0.1597
  763THF    H1312919   4.560   1.992   3.033  1.2990  0.1794 -0.4497
  764THF     O112920   0.449   3.704   3.056  0.0850  0.0352  0.4531
  764THF     C212921   0.445   3.601   3.156  0.2492  0.7463  0.9465
  764THF     C312922   0.361   3.679   2.948  0.3564  0.2649  0.1929
  764THF     H412923   0.437   3.658   3.249  0.8096 -0.4251  1.7399
  764THF     H512924   0.538   3.545   3.158 -0.3955 -0.4383 -0.5403
  764THF     H612925   0.326   3.769   2.897 -1.8678 -0.1326  0.9220
  764THF     H712926   0.401   3.614   2.870  3.9861 -0.6256  2.5678
  764THF     C812927   0.249   3.605   3.026 -0.6481 -0.1708  0.0371
  764THF     C912928   0.323   3.515   3.115 -0.0801 -0.0514 -0.1621
  764THF    H1012929   0.175   3.551   2.966 -0.6572 -0.1992  0.0742
  764THF    H1112930   0.195   3.683   3.081 -1.2709 -1.9413  2.0579
  764THF    H1212931   0.266   3.485   3.203 -0.2611  0.2090 -0.1888
  764THF    H1312932   0.364   3.420   3.081  0.8301  1.2093 -2.8477
  765THF     O112933   4.642   4.099   3.217  0.0992 -0.1215 -0.2942
  765THF     C212934   4.503   4.074   3.222 -0.3449 -0.1163 -0.2377
  765THF     C312935   4.665   4.186   3.331  0.3380 -0.6030 -0.3246
  765THF     H412936   4.478   3.976   3.262  0.1513 -0.8042 -1.5589
  765THF     H512937   4.472   4.073   3.118 -1.3709 -0.6547  0.0600
  765THF     H612938   4.670   4.141   3.430 -1.4398  0.0943  0.1121
  765THF     H712939   4.760   4.238   3.331  0.3180 -0.5581  0.3119
  765THF     C812940   4.552   4.286   3.325 -0.1066 -0.3436 -0.3362
  765THF     C912941   4.435   4.189   3.291 -0.7591  0.2019  0.0845
  765THF    H1012942   4.577   4.350   3.241 -0.9215  0.0873 -0.2552
  765THF    H1112943   4.535   4.341   3.417  0.7327 -0.7788  0.0897
  765THF    H1212944   4.379   4.160   3.380  0.2175 -1.1740  0.2942
  765THF    H1312945   4.371   4.244   3.224 -2.8309 -0.8450  1.1131
  766THF     O112946   2.732   1.068   1.181  0.1998 -0.3624  0.3118
  766THF     C212947   2.820   0.998   1.102 -0.0202 -0.0116  0.2402
  766THF     C312948   2.804   1.189   1.213  0.2322 -0.4137  0.1106
  766THF     H412949   2.821   1.024   0.996  1.2401 -0.9307  0.0007
  766THF     H512950   2.790   0.895   1.087 -1.2184  0.6166 -2.2701
  766THF     H612951   2.775   1.266   1.141  0.5863 -1.8001 -1.5831
  766THF     H712952   2.784   1.221   1.315  0.8020  0.2327  0.0259
  766THF     C812953   2.956   1.178   1.204  0.5643  0.3969 -0.3762
  766THF     C912954   2.952   1.028   1.169 -0.4486 -0.5727  0.3689
  766THF    H1012955   3.011   1.186   1.297  0.1376 -3.1177  0.3316
  766THF    H1112956   2.994   1.237   1.121 -1.1263 -0.2746 -1.7107
  766THF    H1212957   3.043   0.996   1.118 -0.8686 -1.6858  0.3106
  766THF    H1312958   2.958   0.977   1.265 -0.9775  0.5381  1.0169
  767THF     O112959   1.893   4.854   2.695 -0.0415 -0.4347  0.3890
  767THF     C212960   1.765   4.831   2.645  0.0442 -0.5668  0.1287
  767THF     C312961   1.927   4.989   2.676  0.0879 -0.0864 -0.0377
  767THF     H412962   1.734   4.746   2.706 -0.3487  0.8198  1.9360
  767THF     H512963   1.784   4.811   2.539  0.3508  0.9890 -0.1399
  767THF     H612964   2.007   5.018   2.744  0.2876  1.7103 -0.9669
  767THF     H712965   1.963   5.015   2.577 -1.5324 -0.0464 -0.6482
  767THF     C812966   1.803   5.056   2.721 -0.4809 -0.0969 -0.2627
  767THF     C912967   1.697   4.963   2.670  0.2113  0.7262 -0.0996
  767THF    H1012968   1.788   5.162   2.700  0.0457  0.4241  1.7246
  767THF    H1112969   1.807   5.049   2.830 -0.5428 -0.1669 -0.2655
  767THF    H1212970   1.610   4.951   2.736  1.5625 -1.4575  1.4019
  767THF    H1312971   1.657   5.001   2.575 -0.9015 -2.3721 -1.0012
  768THF     O112972   0.919   2.624   1.612  0.2874 -0.0272 -0.6173
  768THF     C212973   0.786   2.628   1.563 -0.2011  0.0726  0.8136
  768THF     C312974   1.001   2.618   1.497 -0.1076 -0.7479  0.3046
  768THF     H412975   0.717   2.664   1.639 -0.9742 -1.9967  1.1586
  768THF     H512976   0.761   2.525   1.538  0.5966  0.6036 -2.8042
  768THF     H612977   1.099   2.663   1.514 -1.2423  2.7844 -1.4228
  768THF     H712978   1.018   2.514   1.468  0.1449 -0.3153 -1.1753
  768THF     C812979   0.929   2.698   1.387 -0.1727 -0.6174 -0.8166
  768THF     C912980   0.794   2.727   1.449 -0.3110 -0.3057  0.5168
  768THF    H1012981   0.915   2.646   1.293  2.8235 -2.6784 -0.2833
  768THF    H1112982   0.983   2.790   1.361 -0.3863 -0.6693 -1.4435
  768THF    H1212983   0.784   2.830   1.481  1.9324  0.1492 -0.0012
  768THF    H1312984   0.726   2.695   1.370 -0.2961 -2.3498  1.2561
  769THF     O112985   3.010   0.804   4.220  0.4891 -0.2638 -0.5732
  769THF     C212986   2.889   0.732   4.218 -0.3649 -0.6786  0.2100
  769THF     C312987   3.104   0.724   4.148  0.0305  0.2164  0.0338
  769THF     H412988   2.852   0.756   4.118  0.4803  1.4509  0.3562
  769THF     H512989   2.813   0.757   4.291 -0.2140  0.3212  0.0312
  769THF     H612990   3.094   0.744   4.041  1.7170 -1.9525 -0.6144
  769THF     H712991   3.208   0.755   4.163 -0.4269  1.5832  0.4912
  769THF     C812992   3.067   0.578   4.172 -0.1759 -0.1530  0.2976
  769THF     C912993   2.932   0.586   4.240 -0.0954 -0.0953  0.0783
  769THF    H1012994   3.135   0.522   4.236  0.7639  1.0018  0.3457
  769THF    H1112995   3.085   0.528   4.077  0.0464  0.0643  0.2227
  769THF    H1212996   2.859   0.514   4.204  1.0781 -0.4146 -1.7613
  769THF    H1312997   2.929   0.575   4.349 -0.0530 -1.7846 -0.0663
  770THF     O112998   4.305   3.773   0.188  0.0424 -0.1576 -0.3174
  770THF     C212999   4.209   3.695   0.119  0.0444  0.0231  0.1943
  770THF     C313000   4.334   3.886   0.099 -0.4820 -0.3385 -1.0459
  770THF     H413001   4.146   3.647   0.193  0.6739 -1.0229  0.0759
  770THF     H513002   4.268   3.618   0.068  1.7973  1.8237 -0.6420
  770THF     H613003   4.308   3.984   0.139  0.1586 -0.0984 -1.2121
  770THF     H713004   4.441   3.890   0.078 -0.5115  0.4494 -1.0762
  770THF     C813005   4.255   3.870  -0.034 -0.2668 -0.9146 -0.6689
  770THF     C913006   4.145   3.776   0.008 -0.4807  0.1970  0.5622
  770THF    H1013007   4.311   3.816  -0.110 -1.7961 -2.1551 -0.9524
  770THF    H1113008   4.225   3.970  -0.065 -1.3528 -1.3583 -1.0860
  770THF    H1213009   4.063   3.822   0.063 -1.5581  2.0650 -2.3658
  770THF    H1313010   4.095   3.717  -0.068  0.7141 -3.7847  2.5852
  771THF     O113011   2.134   3.887   0.457 -0.0064  0.0394 -0.7187
  771THF     C213012   2.129   3.995   0.556  0.2341 -0.6565 -0.1153
  771THF     C313013   2.196   3.774   0.516  0.3550 -0.0221  0.0171
  771THF     H413014   2.030   3.999   0.601  0.1280 -1.2314 -0.2850
  771THF     H513015   2.158   4.087   0.506 -1.9057  0.2397  0.1861
  771THF     H613016   2.160   3.673   0.499  2.1303 -0.7567  0.4362
  771THF     H713017   2.299   3.765   0.483  0.4328 -0.5659  0.3872
  771THF     C813018   2.211   3.810   0.659  0.1850  0.1124 -0.8556
  771THF     C913019   2.235   3.958   0.665 -0.1713 -0.1236 -0.3934
  771THF    H1013020   2.289   3.757   0.714  0.1898 -0.1156 -1.0811
  771THF    H1113021   2.118   3.780   0.708  2.2025 -2.0699  2.0593
  771THF    H1213022   2.209   4.014   0.755  0.4981 -0.4747  0.0232
  771THF    H1313023   2.333   3.989   0.631 -0.0958  0.3235  0.2103
  772THF     O113024   3.130   4.362   3.360  0.4241  0.0943  0.2966
  772THF     C213025   3.264   4.354   3.326 -0.1915  0.2537  0.1726
  772THF     C313026   3.054   4.309   3.258 -0.2135  0.4804 -0.2748
  772THF     H413027   3.341   4.366   3.403  0.1100  0.8289 -0.2155
  772THF     H513028   3.281   4.426   3.247 -0.6597  1.0082  0.7456
  772THF     H613029   2.957   4.285   3.299  0.2248 -2.5576 -0.8203
  772THF     H713030   3.039   4.379   3.175  0.4408  1.6000  0.5268
  772THF     C813031   3.134   4.177   3.230  0.3008 -0.2530 -0.2120
  772THF     C913032   3.278   4.217   3.259 -0.0139  0.2680  0.3224
  772THF    H1013033   3.117   4.146   3.127  0.1302  0.0876 -0.2874
  772THF    H1113034   3.111   4.094   3.297 -1.7724 -1.2021 -1.9737
  772THF    H1213035   3.327   4.150   3.329  0.8923  0.5943  0.0112
  772THF    H1313036   3.327   4.223   3.162 -1.1558 -2.0612 -0.4764
  773THF     O113037   3.477   3.936   0.497  0.3983 -0.8325  0.4499
  773THF     C213038   3.355   3.913   0.430  0.1572  0.0660  0.4697
  773THF     C313039   3.484   3.844   0.604 -0.5207  0.0012 -0.9019
  773THF     H413040   3.360   3.826   0.363  0.4857 -0.8757  1.6835
  773THF     H513041   3.309   3.989   0.367  0.4180 -0.6197 -0.5701
  773THF     H613042   3.522   3.755   0.554  0.3152  0.7096 -1.5595
  773THF     H713043   3.550   3.858   0.689  0.3318 -2.7152 -1.0375
  773THF     C813044   3.337   3.812   0.643  0.5377  0.0690  0.5237
  773THF     C913045   3.253   3.884   0.537 -0.3983  0.3634  0.0760
  773THF    H1013046   3.304   3.837   0.744 -0.9664  2.9342 -0.5484
  773THF    H1113047   3.321   3.706   0.628  1.2398 -0.4289  2.9306
  773THF    H1213048   3.161   3.836   0.503 -0.6030  0.7359  0.1006
  773THF    H1313049   3.211   3.977   0.575 -0.7993 -0.0556  0.6733
  774THF     O113050   4.670   5.360   0.868  0.3717  0.3068  0.4484
  774THF     C213051   4.786   5.370   0.788 -0.1521 -0.3955 -0.1797
  774THF     C313052   4.610   5.492   0.862  0.1226  0.0420 -0.6530
  774THF     H413053   4.756   5.367   0.683 -0.0295 -1.0561 -0.2038
  774THF     H513054   4.856   5.288   0.808  0.6928  0.3580  0.0260
  774THF     H613055   4.548   5.504   0.773 -0.9991  0.6060  0.1709
  774THF     H713056   4.537   5.502   0.943 -0.1694 -1.4523 -0.7040
  774THF     C813057   4.730   5.590   0.869 -0.5903  0.7263 -0.1258
  774THF     C913058   4.841   5.506   0.827  0.1241  0.0296  0.4019
  774THF    H1013059   4.746   5.625   0.971 -2.1149 -0.2498  0.4876
  774THF    H1113060   4.713   5.681   0.812  0.8731  0.7511 -0.5497
  774THF    H1213061   4.905   5.541   0.746  0.3911  0.1384  0.6588
  774THF    H1313062   4.914   5.484   0.905  1.3503 -0.9553 -0.9581
  775THF     O113063   1.262   1.542   1.580 -0.8966 -0.1636 -0.2661
  775THF     C213064   1.352   1.524   1.471 -0.5267  0.9121 -0.6437
  775THF     C313065   1.179   1.644   1.553  0.7930  0.1620  0.2648
  775THF     H413066   1.301   1.481   1.384 -0.4890  0.9358 -0.6777
  775THF     H513067   1.428   1.448   1.488 -2.0476 -0.2020  1.6912
  775THF     H613068   1.095   1.611   1.492  0.6653 -0.3455  0.7120
  775THF     H713069   1.133   1.682   1.644  3.9307  3.6010  0.6948
  775THF     C813070   1.268   1.755   1.490  0.2112 -0.0441  0.1537
  775THF     C913071   1.393   1.667   1.449 -0.0518  0.5095 -0.0535
  775THF    H1013072   1.296   1.830   1.563 -0.0858 -1.0530  1.3240
  775THF    H1113073   1.216   1.811   1.412 -0.2786  0.7101  1.0055
  775THF    H1213074   1.430   1.678   1.347  1.9523 -1.8481  0.3296
  775THF    H1313075   1.474   1.705   1.511 -0.0021 -1.4897  1.2061
  776THF     O113076   1.846   2.507   2.514  0.5703  0.0331  0.4814
  776THF     C213077   1.985   2.518   2.529  0.1354  0.7483 -0.4653
  776THF     C313078   1.805   2.595   2.407 -0.1243 -0.5453  0.4635
  776THF     H413079   2.026   2.459   2.447 -1.5203  0.4896 -1.1363
  776THF     H513080   2.012   2.483   2.629  0.0448 -0.7688 -0.9454
  776THF     H613081   1.820   2.538   2.315  3.8707  1.1502 -0.1412
  776THF     H713082   1.697   2.610   2.413 -0.1554  0.1431 -1.1690
  776THF     C813083   1.898   2.715   2.413 -0.0497 -0.2397  0.5731
  776THF     C913084   2.013   2.668   2.508 -0.2083 -0.6873  0.0201
  776THF    H1013085   1.839   2.806   2.426 -0.8217 -0.4644 -1.0645
  776THF    H1113086   1.937   2.743   2.315 -1.6081 -1.3516 -0.4098
  776THF    H1213087   2.112   2.692   2.468  0.1182 -2.7929 -0.5848
  776THF    H1313088   2.027   2.729   2.597 -0.8879  0.8294 -0.8613
  777THF     O113089   0.876   3.443   2.793  0.0351  0.1051  0.6021
  777THF     C213090   0.886   3.579   2.757  0.1618 -0.4059 -0.4737
  777THF     C313091   0.830   3.432   2.924  0.1764  0.8258 -0.3866
  777THF     H413092   0.790   3.626   2.736 -1.3365 -0.6849  4.4124
  777THF     H513093   0.961   3.599   2.681  3.3878 -0.1285  2.5127
  777THF     H613094   0.722   3.425   2.935  0.2607 -0.6078 -0.2055
  777THF     H713095   0.870   3.338   2.964 -0.2800 -0.1112 -2.0338
  777THF     C813096   0.886   3.555   2.995 -0.0082 -0.5218 -0.4218
  777THF     C913097   0.941   3.644   2.885 -0.2654 -0.4405  0.7713
  777THF    H1013098   0.961   3.525   3.068 -1.5360 -2.3525  0.4820
  777THF    H1113099   0.803   3.594   3.052 -1.2096 -2.6788 -0.5896
  777THF    H1213100   0.911   3.747   2.905  0.5868 -0.0523  0.1423
  777THF    H1313101   1.049   3.631   2.897 -0.2053 -0.4909  0.1975
  778THF     O113102   3.276   1.521   4.931  0.2808  0.1460 -0.3315
  778THF     C213103   3.288   1.413   5.026  0.6844 -0.2322 -0.1093
  778THF     C313104   3.145   1.569   4.951  0.1078 -0.2648  0.3022
  778THF     H413105   3.394   1.388   5.039  0.4515 -0.0743  2.9161
  778THF     H513106   3.238   1.326   4.986 -0.7886  0.5359 -0.0072
  778THF     H613107   3.137   1.665   4.900  0.9184  0.2853  1.1880
  778THF     H713108   3.069   1.508   4.902 -0.2920 -0.7557  1.4964
  778THF     C813109   3.137   1.580   5.102 -0.0236 -0.6861  0.6211
  778THF     C913110   3.212   1.462   5.156  0.0971 -0.2375 -0.1461
  778THF    H1013111   3.035   1.599   5.137 -0.7599  1.1053 -2.1304
  778THF    H1113112   3.182   1.676   5.125 -1.5078 -0.2792  2.0075
  778THF    H1213113   3.268   1.497   5.243 -1.3038  0.7101  0.4046
  778THF    H1313114   3.149   1.383   5.197  0.1346  0.4851  1.4121
  779THF     O113115   3.008   0.070   2.623 -0.8908 -0.4459 -0.3812
  779THF     C213116   2.928   0.097   2.514  0.0955  1.0053  0.6573
  779THF     C313117   3.133   0.131   2.604  0.2749 -0.7530  0.1973
  779THF     H413118   2.822   0.114   2.532  0.0897  0.0294  1.6341
  779THF     H513119   2.935   0.011   2.447  0.3972  2.9763 -2.0175
  779THF     H613120   3.181   0.138   2.702 -3.0332 -0.3355  1.9558
  779THF     H713121   3.191   0.066   2.539  0.0799 -1.3355  0.6023
  779THF     C813122   3.096   0.257   2.537 -0.4302  0.1282 -0.5115
  779THF     C913123   2.991   0.213   2.439 -0.5148  0.1857  0.1279
  779THF    H1013124   3.185   0.308   2.499 -0.7871  0.4053 -0.9717
  779THF    H1113125   3.061   0.323   2.617  2.3094 -0.3455  1.2276
  779THF    H1213126   2.915   0.289   2.416 -1.6171 -0.8817  0.1546
  779THF    H1313127   3.040   0.179   2.348 -0.9786  1.9055 -0.8272
  780THF     O113128   0.247   1.416   1.844 -0.8680  0.2607  0.1888
  780THF     C213129   0.272   1.519   1.753  0.4484 -0.0277  0.2961
  780THF     C313130   0.286   1.296   1.777 -0.2715 -0.7099  0.0884
  780THF     H413131   0.378   1.542   1.743  0.3829  0.3038  0.3576
  780THF     H513132   0.212   1.604   1.784  0.2502 -0.0158 -0.1082
  780THF     H613133   0.393   1.277   1.765 -0.3006  0.3516 -2.6695
  780THF     H713134   0.255   1.203   1.824  0.7924 -1.0349  0.1671
  780THF     C813135   0.229   1.308   1.637  0.7883  0.3007 -0.4990
  780THF     C913136   0.227   1.452   1.621 -0.0654 -0.5787 -0.4881
  780THF    H1013137   0.125   1.276   1.636  0.7500  0.3262  0.8630
  780THF    H1113138   0.285   1.253   1.561  0.4597  0.5744 -0.9453
  780THF    H1213139   0.303   1.470   1.544  0.2745  0.0641 -0.0073
  780THF    H1313140   0.131   1.493   1.592  0.7004 -0.6579 -3.5715
  781THF     O113141   3.286   4.194   3.577  0.2763 -0.1911  0.0335
  781THF     C213142   3.408   4.238   3.638  0.1783  0.0086 -0.5191
  781THF     C313143   3.240   4.066   3.640 -0.7646 -0.3484 -0.5321
  781THF     H413144   3.381   4.301   3.722 -1.2938 -1.4695  0.1774
  781THF     H513145   3.474   4.286   3.566 -0.2083  2.2117  0.5193
  781THF     H613146   3.140   4.082   3.680  0.0080  0.1525  1.2722
  781THF     H713147   3.230   3.985   3.568 -0.0405 -0.3363 -0.6537
  781THF     C813148   3.352   4.033   3.739  0.2889  0.2601  0.3648
  781THF     C913149   3.468   4.105   3.686 -0.1475 -0.7981  0.4023
  781THF    H1013150   3.361   3.924   3.740 -0.1918  0.1375 -2.3935
  781THF    H1113151   3.319   4.072   3.835 -0.9113  0.8608 -0.2869
  781THF    H1213152   3.542   4.127   3.763 -0.2505  1.6617 -0.1303
  781THF    H1313153   3.519   4.045   3.610  0.8684  3.0499 -2.2351
  782THF     O113154   3.541   4.534   3.859  0.3125  0.5436  0.1735
  782THF     C213155   3.512   4.605   3.977  0.1714  0.2635  0.1551
  782THF     C313156   3.649   4.439   3.885  0.4393  0.6361 -0.1154
  782THF     H413157   3.461   4.552   4.057 -0.6834 -0.2544 -0.6954
  782THF     H513158   3.460   4.693   3.940  2.7336  1.5340 -0.6590
  782THF     H613159   3.612   4.343   3.921 -0.1637  1.1527  0.6990
  782THF     H713160   3.711   4.434   3.796  1.5957  3.8065  0.3669
  782THF     C813161   3.728   4.513   3.992  0.2073  1.0571 -0.3626
  782THF     C913162   3.656   4.642   4.009  0.2737 -0.5729  0.5107
  782THF    H1013163   3.831   4.525   3.957  0.5099 -0.5057 -0.1132
  782THF    H1113164   3.725   4.465   4.090  0.3796  2.7482  0.5127
  782THF    H1213165   3.681   4.684   4.106 -0.6594 -0.9174  0.9084
  782THF    H1313166   3.697   4.720   3.944  1.0075 -0.5444  0.9968
  783THF     O113167   0.984   2.493   4.532  0.5155  0.1608  0.0252
  783THF     C213168   1.016   2.365   4.465 -0.4629  0.2058  0.3755
  783THF     C313169   1.028   2.601   4.445  0.2437  0.8320 -0.2708
  783THF     H413170   0.936   2.291   4.470 -0.5072  0.2501  0.3392
  783THF     H513171   1.101   2.311   4.506 -1.1228 -0.2757  1.1315
  783THF     H613172   0.937   2.637   4.398 -1.1495  0.5464  2.0793
  783THF     H713173   1.092   2.669   4.501 -0.3510  1.2099 -0.0423
  783THF     C813174   1.124   2.526   4.346  0.2447 -0.3688 -0.1923
  783THF     C913175   1.049   2.400   4.321 -0.2258  0.2728 -0.5919
  783THF    H1013176   1.222   2.501   4.387  0.9918  0.3453 -1.4781
  783THF    H1113177   1.135   2.589   4.257  0.0027 -0.5311 -0.3373
  783THF    H1213178   0.956   2.413   4.266 -1.1684  1.4185  1.2064
  783THF    H1313179   1.113   2.329   4.268  0.0598  2.1318 -2.9134
  784THF     O113180   1.795   5.275   2.208  0.0094  0.3511 -0.1770
  784THF     C213181   1.818   5.141   2.162  0.0543 -0.8254  0.3793
  784THF     C313182   1.866   5.367   2.136 -0.0495 -0.0427 -0.0912
  784THF     H413183   1.760   5.120   2.072  2.4031 -1.7421 -1.0292
  784THF     H513184   1.795   5.062   2.233  0.8156 -1.0230  0.4235
  784THF     H613185   1.818   5.399   2.043  1.7913 -1.3091 -1.5511
  784THF     H713186   1.887   5.454   2.198  1.1304 -0.2947 -0.1046
  784THF     C813187   1.997   5.286   2.106 -0.0096  0.2055 -0.1246
  784THF     C913188   1.968   5.139   2.126  0.3302  0.1273  0.5725
  784THF    H1013189   2.086   5.319   2.159 -0.0072 -2.9964  2.1861
  784THF    H1113190   2.018   5.286   1.999 -0.6409 -1.0966 -0.2713
  784THF    H1213191   1.999   5.079   2.041  2.7755  2.2965 -0.2153
  784THF    H1313192   2.020   5.099   2.213  1.1239  0.4211  0.2390
  785THF     O113193   1.231   0.566   1.045 -0.5056 -0.1107 -0.0798
  785THF     C213194   1.132   0.464   1.060  0.0442  0.2526 -0.2598
  785THF     C313195   1.359   0.523   1.104  0.3804  0.3027  0.5312
  785THF     H413196   1.074   0.448   0.969  1.3532 -0.8917 -0.9362
  785THF     H513197   1.065   0.496   1.140 -2.2149 -0.0812 -1.9004
  785THF     H613198   1.438   0.520   1.029  0.9818  0.6464  1.1394
  785THF     H713199   1.388   0.585   1.189 -0.1858  1.1242  0.1427
  785THF     C813200   1.326   0.386   1.157  0.4243  0.1873 -0.2415
  785THF     C913201   1.205   0.342   1.086 -0.4486  0.6396  0.2012
  785THF    H1013202   1.309   0.401   1.264  2.6845 -1.9530  0.5095
  785THF    H1113203   1.408   0.316   1.174  0.3600  0.4454  1.2377
  785THF    H1213204   1.245   0.290   0.999 -1.6752 -0.6632  0.3732
  785THF    H1313205   1.161   0.260   1.143  0.2094  0.0740 -0.0984
  786THF     O113206   0.397   1.741   1.123 -0.2394 -0.2198  0.2830
  786THF     C213207   0.269   1.703   1.175 -0.8439 -0.0795 -0.1519
  786THF     C313208   0.429   1.642   1.025  0.2306 -0.0176  0.0232
  786THF     H413209   0.188   1.741   1.112 -0.1795 -0.9297 -1.5584
  786THF     H513210   0.256   1.754   1.271  1.9178  0.7354 -0.1022
  786THF     H613211   0.384   1.657   0.927  3.6164  1.3656 -1.4656
  786THF     H713212   0.535   1.633   1.000  0.3583  1.1863  0.0588
  786THF     C813213   0.402   1.509   1.099  1.5051 -0.0799  0.6699
  786THF     C913214   0.284   1.550   1.186 -0.2667 -0.2146 -0.5992
  786THF    H1013215   0.480   1.488   1.173  0.6160 -3.2872  0.8690
  786THF    H1113216   0.386   1.419   1.039 -3.5583  0.1522  1.2052
  786THF    H1213217   0.198   1.492   1.153  1.2933 -1.7818 -2.1972
  786THF    H1313218   0.296   1.510   1.287 -2.0244 -2.1930 -1.0867
  787THF     O113219   0.190   4.161   1.571 -0.1376  0.2330  0.5239
  787THF     C213220   0.326   4.196   1.572 -0.4753  0.9180 -0.2081
  787THF     C313221   0.165   4.053   1.483  0.3796  0.5756 -0.3564
  787THF     H413222   0.362   4.268   1.645  1.7829 -0.8492  0.5335
  787THF     H513223   0.348   4.244   1.476  0.6054  1.0619  0.1051
  787THF     H613224   0.087   3.992   1.527  0.6710  1.0872  0.9002
  787THF     H713225   0.127   4.080   1.384  0.6873  2.9420  0.1046
  787THF     C813226   0.309   3.980   1.471  0.0318 -0.3945  0.7727
  787THF     C913227   0.397   4.067   1.565  0.0562 -0.1212 -0.0263
  787THF    H1013228   0.334   3.994   1.366  0.0877 -0.9226  0.7164
  787THF    H1113229   0.297   3.878   1.506  0.5096 -0.1012  1.8251
  787THF    H1213230   0.411   4.029   1.666  1.0120 -0.8494 -0.4200
  787THF    H1313231   0.501   4.076   1.534  0.0805 -1.8852 -0.5321
  788THF     O113232   5.384   5.074   2.651  0.3898  0.1860  0.2414
  788THF     C213233   5.493   4.999   2.598 -0.5291  0.0246 -0.0828
  788THF     C313234   5.404   5.094   2.794 -0.3946 -0.1913  0.0827
  788THF     H413235   5.550   5.049   2.520 -0.4181 -0.2777 -0.1975
  788THF     H513236   5.450   4.908   2.555 -1.8390 -0.2904  1.7616
  788THF     H613237   5.462   5.185   2.809 -1.7935  0.7253  0.1213
  788THF     H713238   5.309   5.106   2.846 -0.5452  0.8908 -0.4094
  788THF     C813239   5.492   4.982   2.837 -0.5639  0.4271  0.2221
  788THF     C913240   5.579   4.970   2.711  0.6687  0.4759  0.4648
  788THF    H1013241   5.432   4.892   2.845 -0.4624  0.4723  1.6663
  788THF    H1113242   5.541   4.996   2.933  0.4497  0.7770 -0.3211
  788THF    H1213243   5.655   5.047   2.717  1.9087 -0.6102 -0.5992
  788THF    H1313244   5.626   4.872   2.723 -0.2759 -0.0575 -0.0424
  789THF     O113245   4.233   2.991   4.626  0.5766 -0.0040  0.5223
  789THF     C213246   4.193   2.870   4.680  0.0963 -0.0046 -0.1825
  789THF     C313247   4.121   3.086   4.639 -0.3893 -0.0277  1.1843
  789THF     H413248   4.218   2.856   4.785 -1.6107 -0.2960  0.2177
  789THF     H513249   4.219   2.783   4.619 -1.4966  0.0439 -0.9913
  789THF     H613250   4.134   3.118   4.742  0.0549 -0.5629  1.2941
  789THF     H713251   4.137   3.174   4.576 -1.8628 -0.4417  0.1877
  789THF     C813252   4.001   2.999   4.606  0.2504  0.1687 -0.0228
  789THF     C913253   4.035   2.867   4.670  0.4689  0.2388  0.2988
  789THF    H1013254   3.980   3.002   4.499 -4.1551  2.5981  0.6734
  789THF    H1113255   3.920   3.051   4.657  0.4541 -0.7164  1.2304
  789THF    H1213256   3.996   2.863   4.772  2.8771  0.2660  1.2770
  789THF    H1313257   3.992   2.779   4.624 -0.7789  0.6126  0.7058
  790THF     O113258   3.941   3.705   2.117  0.0634 -0.0524  0.0690
  790THF     C213259   4.032   3.598   2.162  0.1486 -0.0145  0.4613
  790THF     C313260   3.815   3.684   2.171  0.3584 -0.0583 -0.0204
  790THF     H413261   4.088   3.631   2.250  1.6805 -0.9276 -0.1382
  790THF     H513262   4.104   3.575   2.084  0.9828  1.8974  0.5978
  790THF     H613263   3.799   3.721   2.272 -0.3239  1.2392 -0.5807
  790THF     H713264   3.736   3.739   2.120 -0.5110 -0.2478  1.0708
  790THF     C813265   3.799   3.534   2.164 -0.1373  0.2771 -0.5154
  790THF     C913266   3.939   3.484   2.207 -0.3115 -0.0537  0.0218
  790THF    H1013267   3.773   3.511   2.061 -0.6795 -0.8228 -0.1402
  790THF    H1113268   3.727   3.494   2.234  1.0156 -0.8744  0.0553
  790THF    H1213269   3.923   3.484   2.315 -2.7323 -1.5324 -0.2726
  790THF    H1313270   3.975   3.385   2.178  0.6464 -0.3703  2.0817
  791THF     O113271   4.712   3.701   5.398  0.8404 -0.1454  0.6987
  791THF     C213272   4.813   3.747   5.484 -0.4881 -0.9491 -0.1694
  791THF     C313273   4.643   3.811   5.338  0.0890 -0.3197  0.2579
  791THF     H413274   4.908   3.772   5.437  0.5291 -2.7094  0.8528
  791THF     H513275   4.830   3.666   5.554  0.1263 -2.4431 -1.9735
  791THF     H613276   4.661   3.830   5.233 -0.2146  0.7938  0.3872
  791THF     H713277   4.539   3.778   5.344  0.9049 -3.3066 -0.5830
  791THF     C813278   4.682   3.936   5.411 -0.4357  0.2133  0.3968
  791THF     C913279   4.741   3.877   5.542 -0.0337 -0.2131  0.4686
  791THF    H1013280   4.598   4.003   5.424  0.8124  1.4025  3.2921
  791THF    H1113281   4.762   3.986   5.357  1.1876 -2.7775 -0.2419
  791THF    H1213282   4.812   3.942   5.592 -0.6286 -0.2998  1.4551
  791THF    H1313283   4.661   3.855   5.613  0.4358  0.0401  1.0790
  792THF     O113284   5.263   2.145   2.723 -0.3338 -0.2870  0.1202
  792THF     C213285   5.294   2.281   2.760  0.2669 -0.0362 -0.4119
  792THF     C313286   5.156   2.155   2.629  0.1264 -0.0133 -0.6790
  792THF     H413287   5.353   2.322   2.678  0.2364  0.1756 -0.3284
  792THF     H513288   5.346   2.292   2.855  0.0732 -0.6164 -0.2310
  792THF     H613289   5.184   2.162   2.524 -2.0474 -4.2929 -1.7657
  792THF     H713290   5.095   2.065   2.628 -0.9042  0.6353  0.4780
  792THF     C813291   5.064   2.272   2.674 -1.4368 -0.0693 -0.5242
  792THF     C913292   5.155   2.350   2.756 -1.7958 -0.4344 -0.2547
  792THF    H1013293   4.985   2.229   2.735  0.5202 -1.0809  1.4594
  792THF    H1113294   5.031   2.340   2.596 -1.4288  1.3289  0.6509
  792THF    H1213295   5.161   2.454   2.724 -2.7130 -0.6772 -1.2973
  792THF    H1313296   5.118   2.362   2.858  0.6521 -1.0140  0.7913
  793THF     O113297   1.712   4.695   1.050 -0.6484 -0.1905 -0.3086
  793THF     C213298   1.779   4.732   1.173 -0.2387  0.2870  0.7893
  793THF     C313299   1.720   4.552   1.031  0.0765  0.0275  0.0655
  793THF     H413300   1.705   4.724   1.254 -1.1172 -0.3849 -0.0600
  793THF     H513301   1.816   4.835   1.171  0.4101  0.0494 -0.4491
  793THF     H613302   1.628   4.495   1.041  0.3128 -0.4781 -0.6111
  793THF     H713303   1.744   4.542   0.925 -1.6003 -1.1535 -0.2405
  793THF     C813304   1.825   4.503   1.140 -0.8936 -0.2958 -0.5009
  793THF     C913305   1.885   4.629   1.177 -0.2405 -0.0222 -0.5551
  793THF    H1013306   1.909   4.441   1.111 -2.7594 -2.7993 -0.9026
  793THF    H1113307   1.790   4.445   1.225  3.3746 -0.3122  1.4657
  793THF    H1213308   1.932   4.606   1.273 -1.8852 -2.1849 -0.1743
  793THF    H1313309   1.965   4.663   1.112  0.2120  1.2594  0.6114
  794THF     O113310   4.974   5.184   5.056  0.0782  0.1977  0.1072
  794THF     C213311   4.992   5.321   5.013 -0.0291  0.2844 -0.0557
  794THF     C313312   4.870   5.132   4.972 -0.4937  0.2726  0.5997
  794THF     H413313   5.051   5.317   4.921  0.3278 -2.2110  0.2230
  794THF     H513314   5.040   5.384   5.088 -1.5115  1.4231  0.0022
  794THF     H613315   4.910   5.126   4.870  1.3396 -1.8986  1.3530
  794THF     H713316   4.841   5.030   4.998  1.9041 -0.4893  0.6084
  794THF     C813317   4.766   5.234   4.994 -0.3508 -0.3197 -1.3184
  794THF     C913318   4.846   5.365   4.997  0.5142 -0.2601 -0.0965
  794THF    H1013319   4.719   5.209   5.089 -1.5607  2.0483 -1.2344
  794THF    H1113320   4.681   5.236   4.926  0.2032  0.8237 -1.9991
  794THF    H1213321   4.843   5.431   4.910 -0.6185 -0.3755 -0.1556
  794THF    H1313322   4.820   5.424   5.085  0.8174  1.6776 -1.2411
  795THF     O113323   1.979   5.037   4.038 -0.0397  0.3744 -0.1252
  795THF     C213324   1.969   4.913   3.979 -0.2802  0.3699  1.1655
  795THF     C313325   2.111   5.087   4.005 -0.5448  0.6510  0.8349
  795THF     H413326   1.869   4.870   3.973 -0.0636 -0.0108 -0.2008
  795THF     H513327   2.023   4.835   4.033 -0.1772  0.4765  1.2162
  795THF     H613328   2.106   5.195   4.023 -0.5229  0.4257  2.3237
  795THF     H713329   2.180   5.044   4.077 -0.9488 -0.6101  0.4823
  795THF     C813330   2.134   5.039   3.861 -0.1243 -0.7488  0.3469
  795THF     C913331   2.022   4.930   3.842  0.0391  0.1564  0.7540
  795THF    H1013332   2.237   5.001   3.862 -0.3629 -1.4173  1.7987
  795THF    H1113333   2.123   5.124   3.793  2.9480 -0.0883  0.5000
  795THF    H1213334   1.943   4.971   3.779 -0.5305 -1.9914  0.0133
  795THF    H1313335   2.060   4.834   3.809 -1.6192 -0.8764  1.7516
  796THF     O113336   0.701   2.426   2.106  0.2570 -0.1127  0.3882
  796THF     C213337   0.789   2.356   2.192  0.1381  0.3626  0.7103
  796THF     C313338   0.722   2.404   1.966 -0.7016 -0.0967  0.3158
  796THF     H413339   0.732   2.264   2.207 -1.0508  0.7855 -0.9405
  796THF     H513340   0.805   2.394   2.293  1.5542  0.9839  0.2789
  796THF     H613341   0.642   2.344   1.923 -1.2416  2.2017 -2.1824
  796THF     H713342   0.730   2.495   1.907  1.9029 -0.9262 -0.7598
  796THF     C813343   0.856   2.327   1.963  0.3110  0.0625  0.3152
  796THF     C913344   0.911   2.338   2.107 -0.4634 -0.0062  0.2825
  796THF    H1013345   0.929   2.374   1.898 -0.1623  0.9697  0.4087
  796THF    H1113346   0.847   2.225   1.928  1.0561  0.7597 -2.0837
  796THF    H1213347   0.982   2.262   2.140  2.3243  2.6360  0.7782
  796THF    H1313348   0.970   2.429   2.102  0.5343 -0.6814 -0.6945
  797THF     O113349   0.050   2.395   2.336 -0.2244  0.1329  0.5409
  797THF     C213350  -0.074   2.343   2.282  0.4533  0.3404  0.2648
  797THF     C313351   0.043   2.538   2.330  0.1096  0.3026  0.3580
  797THF     H413352  -0.086   2.240   2.317 -1.0238  0.3567 -0.1381
  797THF     H513353  -0.080   2.355   2.174  0.5610  1.5933  0.3909
  797THF     H613354   0.133   2.579   2.375  1.1338 -0.8807 -0.5496
  797THF     H713355   0.042   2.575   2.227 -1.4011 -1.2189 -0.2173
  797THF     C813356  -0.100   2.560   2.380 -0.4379  0.4216  0.6079
  797THF     C913357  -0.176   2.435   2.333  0.0160  0.0384 -0.0327
  797THF    H1013358  -0.134   2.653   2.334 -1.8198 -0.4335 -0.1422
  797THF    H1113359  -0.099   2.567   2.488  1.5630  0.7518  0.6135
  797THF    H1213360  -0.226   2.385   2.416  1.3780  0.9159  1.3646
  797THF    H1313361  -0.254   2.466   2.263  0.3518  1.5259  0.2045
  798THF     O113362   5.142   0.937   2.669 -0.0546 -0.9404 -0.3441
  798THF     C213363   5.051   0.883   2.764  0.7009 -0.7187 -0.4602
  798THF     C313364   5.279   0.896   2.699  0.6973  0.2209 -0.4265
  798THF     H413365   5.014   0.789   2.723 -1.4088  0.3150 -1.0433
  798THF     H513366   4.977   0.962   2.777  1.1243 -0.2598 -0.8079
  798THF     H613367   5.286   0.794   2.661 -1.8749  0.7057 -2.5387
  798THF     H713368   5.362   0.962   2.675  1.4233  0.0704  1.4616
  798THF     C813369   5.268   0.884   2.859  0.3836 -0.4383  0.3160
  798THF     C913370   5.123   0.868   2.894 -0.6527 -0.1847  0.1933
  798THF    H1013371   5.313   0.968   2.912 -1.4586  0.9679 -0.2253
  798THF    H1113372   5.321   0.798   2.898 -1.7452 -1.9429  0.0944
  798THF    H1213373   5.108   0.770   2.939  0.6977 -0.8685 -0.7779
  798THF    H1313374   5.093   0.942   2.968 -0.0241 -0.9885  1.2602
  799THF     O113375   2.536   0.152   0.620  0.7950 -0.5296  0.5986
  799THF     C213376   2.598   0.277   0.586  0.0387  0.6771 -0.0873
  799THF     C313377   2.401   0.184   0.684 -0.2339  0.2171  0.2264
  799THF     H413378   2.658   0.274   0.495  0.2985 -0.3407  0.1062
  799THF     H513379   2.663   0.310   0.666  2.1963  0.6709 -1.7478
  799THF     H613380   2.321   0.142   0.623 -0.7544  0.9450  0.3923
  799THF     H713381   2.394   0.147   0.786 -2.2830 -0.4058 -0.1117
  799THF     C813382   2.381   0.334   0.671 -0.3880 -0.1874 -0.2475
  799THF     C913383   2.477   0.371   0.560  0.1843  0.1561  0.1655
  799THF    H1013384   2.411   0.392   0.758  0.4010 -2.0190  0.7626
  799THF    H1113385   2.276   0.362   0.659 -0.2794 -0.0399 -0.9054
  799THF    H1213386   2.432   0.357   0.462 -1.4157  2.2906  0.5090
  799THF    H1313387   2.506   0.476   0.557 -2.1700  0.8869  0.8770
  800THF     O113388   4.237   3.824   3.573  0.1690 -0.0451 -0.2457
  800THF     C213389   4.335   3.869   3.667 -0.1081 -0.0696 -0.4150
  800THF     C313390   4.300   3.805   3.448 -0.9830 -0.2284 -0.6806
  800THF     H413391   4.287   3.869   3.765  0.8204  1.0639  0.0576
  800THF     H513392   4.369   3.971   3.652  1.2207  0.1963  3.4404
  800THF     H613393   4.240   3.753   3.373  1.5019 -1.7196 -1.7698
  800THF     H713394   4.323   3.905   3.410 -0.5636  0.2933  0.8745
  800THF     C813395   4.426   3.731   3.489  0.0247 -0.0553  0.2288
  800THF     C913396   4.450   3.767   3.633  0.1667  0.5031 -0.3079
  800THF    H1013397   4.508   3.762   3.425 -0.2555  2.0186  0.8135
  800THF    H1113398   4.419   3.624   3.468 -0.2568  0.5393 -3.4482
  800THF    H1213399   4.427   3.678   3.691  2.0272  0.3367  0.2530
  800THF    H1313400   4.554   3.794   3.651  0.7767 -2.0867  0.4338
  801THF     O113401   4.189   0.347   4.163 -0.5335  0.4507 -0.0926
  801THF     C213402   4.291   0.269   4.231 -0.2761 -1.2742  0.3671
  801THF     C313403   4.253   0.476   4.154 -0.5948  0.5029  0.2694
  801THF     H413404   4.372   0.260   4.159 -1.3286 -1.2799 -0.8371
  801THF     H513405   4.252   0.173   4.264  0.7679 -1.3265  1.5382
  801THF     H613406   4.303   0.483   4.058  1.0630 -1.0599  0.9528
  801THF     H713407   4.177   0.553   4.146  0.2655  1.4849  1.2492
  801THF     C813408   4.336   0.498   4.280  0.9599  0.8655  0.1152
  801THF     C913409   4.344   0.361   4.343 -0.1878  0.3136  0.0977
  801THF    H1013410   4.289   0.570   4.346 -0.6924 -1.1855  1.2817
  801THF    H1113411   4.428   0.539   4.239  1.3317  0.2077  0.2669
  801THF    H1213412   4.449   0.330   4.338  0.6598  3.0795 -1.4406
  801THF    H1313413   4.299   0.346   4.441  0.2374  2.1780  0.6050
  802THF     O113414   1.511   5.200   3.488 -0.3492 -0.1811 -0.0489
  802THF     C213415   1.378   5.225   3.448 -0.6249 -0.6256  0.0591
  802THF     C313416   1.591   5.301   3.421  0.0358 -0.2183  0.7131
  802THF     H413417   1.307   5.172   3.512 -0.4837 -2.1818 -0.9928
  802THF     H513418   1.370   5.196   3.343  1.8759 -1.6196  0.0758
  802THF     H613419   1.693   5.295   3.458  0.7348 -0.0095 -1.0976
  802THF     H713420   1.591   5.281   3.314 -0.1277  1.7853  0.2983
  802THF     C813421   1.510   5.422   3.442  0.3384  1.2923 -0.5806
  802THF     C913422   1.365   5.378   3.432 -0.2778 -0.6059 -0.2637
  802THF    H1013423   1.533   5.504   3.374  1.8785  0.4870 -1.0840
  802THF    H1113424   1.515   5.462   3.543  0.4725 -0.7830  0.2849
  802THF    H1213425   1.299   5.419   3.509 -0.7454 -0.2031 -0.8699
  802THF    H1313426   1.330   5.402   3.331 -0.9452  1.4689  0.4121
  803THF     O113427   2.942   3.611   0.783 -0.3675  0.1188 -0.0583
  803THF     C213428   2.928   3.491   0.852 -0.3748  0.6607  0.0501
  803THF     C313429   3.012   3.702   0.868 -0.8923 -0.5970  0.3626
  803THF     H413430   2.903   3.407   0.787  1.1427  1.0771 -1.1177
  803THF     H513431   2.848   3.499   0.926  0.1357  0.4832  0.6283
  803THF     H613432   3.048   3.782   0.804 -2.1245 -1.3542 -1.3705
  803THF     H713433   2.955   3.754   0.945 -2.6534  2.0173 -2.4817
  803THF     C813434   3.115   3.616   0.936  0.0058 -0.2620 -0.2814
  803THF     C913435   3.063   3.478   0.933  0.3209 -0.2948  0.0411
  803THF    H1013436   3.136   3.643   1.040  0.9230 -0.5473 -0.3882
  803THF    H1113437   3.213   3.615   0.889  0.5923 -1.3133  0.8731
  803THF    H1213438   3.130   3.418   0.872 -1.8917 -0.7607 -2.1216
  803THF    H1313439   3.048   3.439   1.034 -1.8209 -0.1158 -0.1539
  804THF     O113440   0.154   4.946   1.073  0.7019 -0.1444 -0.0323
  804THF     C213441   0.196   5.083   1.060 -0.0149  0.2428  0.0823
  804THF     C313442   0.261   4.857   1.058 -0.5059 -0.4156 -0.2216
  804THF     H413443   0.168   5.143   1.146  0.4757  2.0942 -0.9852
  804THF     H513444   0.156   5.117   0.964  3.4784  0.7434 -1.3507
  804THF     H613445   0.256   4.758   1.104 -0.8692 -1.0804 -1.6381
  804THF     H713446   0.272   4.838   0.951  2.0413  1.1188 -0.3131
  804THF     C813447   0.388   4.936   1.101  0.5102  0.9383  0.2565
  804THF     C913448   0.350   5.068   1.037 -0.3393  0.4206 -0.0829
  804THF    H1013449   0.479   4.881   1.077  0.5728  0.7901  0.8199
  804THF    H1113450   0.397   4.953   1.208 -0.7672  2.0917  0.2138
  804THF    H1213451   0.411   5.145   1.083  0.6090 -0.1454 -0.3726
  804THF    H1313452   0.376   5.065   0.932  3.5650  0.5579  0.7249
  805THF     O113453   0.389   1.365   4.266 -0.1218 -0.2662 -0.2970
  805THF     C213454   0.330   1.481   4.325  0.7154 -0.1534  0.3691
  805THF     C313455   0.523   1.354   4.303 -0.3547  0.1352  0.3761
  805THF     H413456   0.285   1.461   4.422 -0.3753  0.8901  0.1094
  805THF     H513457   0.259   1.536   4.263  2.1673 -0.0463 -1.2682
  805THF     H613458   0.560   1.255   4.330 -0.0738 -0.1020 -0.8243
  805THF     H713459   0.575   1.385   4.212 -0.5560  2.0618  0.8814
  805THF     C813460   0.554   1.467   4.399  0.1130  0.1076 -0.4176
  805THF     C913461   0.444   1.570   4.364  0.0445  0.7066 -0.3320
  805THF    H1013462   0.651   1.515   4.389 -0.6555  1.4134 -2.4892
  805THF    H1113463   0.536   1.429   4.499 -1.6279  1.6445 -0.0743
  805THF    H1213464   0.421   1.632   4.451 -0.1388  0.4402 -0.1883
  805THF    H1313465   0.468   1.634   4.279 -0.0062  0.5143 -0.4914
  806THF     O113466   1.442   2.282   2.802  0.5947  0.3059 -0.5160
  806THF     C213467   1.479   2.270   2.939  0.6110  0.1232 -0.1256
  806THF     C313468   1.521   2.391   2.750  0.6404  0.0354 -0.2884
  806THF     H413469   1.457   2.179   2.994 -0.9702  1.6008  1.8538
  806THF     H513470   1.446   2.348   3.007 -1.4238 -0.2735 -0.6037
  806THF     H613471   1.500   2.402   2.643 -1.9171 -0.9163  0.0461
  806THF     H713472   1.482   2.482   2.795 -0.6085 -0.7531  0.2772
  806THF     C813473   1.662   2.376   2.806  0.3118 -0.3389  0.0844
  806THF     C913474   1.634   2.290   2.929 -0.5549 -0.0212 -0.1777
  806THF    H1013475   1.703   2.474   2.830  1.1732 -0.7793  0.4688
  806THF    H1113476   1.730   2.329   2.734 -0.4705 -1.0109 -0.2230
  806THF    H1213477   1.686   2.196   2.911  1.6634  1.1054 -0.0788
  806THF    H1313478   1.677   2.325   3.024 -1.4107  2.7081 -0.7248
  807THF     O113479   0.969   3.123   0.123 -0.1781 -0.1671  0.4814
  807THF     C213480   1.067   3.025   0.073  0.1710 -0.5096 -0.3024
  807THF     C313481   1.039   3.246   0.133  0.1992 -0.2408  0.4601
  807THF     H413482   1.015   2.943   0.024  0.3832 -0.0336 -1.3442
  807THF     H513483   1.115   2.980   0.160 -2.5561 -0.8595  1.1517
  807THF     H613484   0.962   3.322   0.134  0.2860 -0.1109 -0.8836
  807THF     H713485   1.096   3.243   0.226  1.9561  0.9700 -0.5185
  807THF     C813486   1.134   3.250   0.013 -1.1155  0.3367  0.2628
  807THF     C913487   1.145   3.107  -0.023  0.6427  0.0298 -0.7000
  807THF    H1013488   1.231   3.297   0.032 -0.3661 -0.7399 -0.7753
  807THF    H1113489   1.083   3.311  -0.062  1.7515  2.6572 -0.0246
  807THF    H1213490   1.106   3.096  -0.124 -1.2373 -2.2149  0.1685
  807THF    H1313491   1.245   3.063  -0.027  0.3802 -0.5673 -0.8534
  808THF     O113492   3.768   4.653   4.383  0.9499 -0.0942 -0.5116
  808THF     C213493   3.890   4.704   4.437  0.4756  0.2036  0.9530
  808THF     C313494   3.737   4.527   4.438  0.0322 -1.1761  0.1305
  808THF     H413495   3.902   4.810   4.416  1.8594 -0.2685 -0.9592
  808THF     H513496   3.971   4.656   4.382 -1.3634  0.5074 -2.3004
  808THF     H613497   3.632   4.510   4.458 -0.0202 -0.2428  0.7432
  808THF     H713498   3.767   4.443   4.376  0.9435 -1.2033  0.5734
  808THF     C813499   3.811   4.510   4.561 -0.6639  0.0674 -1.1063
  808THF     C913500   3.871   4.648   4.575 -0.2495  0.0922  0.0997
  808THF    H1013501   3.888   4.434   4.552  0.6916  1.4154 -1.1871
  808THF    H1113502   3.748   4.477   4.644 -0.6238  4.2390  0.8201
  808THF    H1213503   3.799   4.713   4.624 -1.9920 -1.5965 -0.1495
  808THF    H1313504   3.966   4.638   4.629 -0.7234 -1.4854  0.7010
  809THF     O113505   0.010   1.123   2.270  0.1491  0.4019 -0.7418
  809THF     C213506  -0.026   1.169   2.144  0.1922  0.2774 -0.4583
  809THF     C313507   0.154   1.120   2.286 -0.1388 -0.0375  0.0609
  809THF     H413508  -0.001   1.275   2.137 -2.7708  1.0646 -0.7341
  809THF     H513509  -0.130   1.162   2.112  0.3094  2.0136 -1.3315
  809THF     H613510   0.169   1.223   2.320 -0.5784 -0.2646  0.9643
  809THF     H713511   0.198   1.055   2.361  3.3954 -0.3121 -2.0147
  809THF     C813512   0.199   1.078   2.148  0.2425 -0.5596  0.6553
  809THF     C913513   0.081   1.095   2.059  0.2394 -0.0116 -0.1470
  809THF    H1013514   0.248   0.982   2.139  0.1517 -0.7701  2.2439
  809THF    H1113515   0.281   1.142   2.113 -0.7628  0.0313 -0.7236
  809THF    H1213516   0.113   1.141   1.965 -1.2916 -1.4992 -1.4553
  809THF    H1313517   0.053   0.995   2.026  3.0395 -0.7782 -0.5296
  810THF     O113518   3.494   1.931   1.857 -0.2013  0.3360  0.6034
  810THF     C213519   3.409   1.818   1.857  0.3107  0.3021  0.2695
  810THF     C313520   3.437   2.034   1.935 -0.4503  0.1837 -0.1774
  810THF     H413521   3.473   1.730   1.845  1.1460  1.2897 -5.3269
  810THF     H513522   3.332   1.817   1.780  3.1343  1.4683 -2.8142
  810THF     H613523   3.514   2.108   1.958  0.1093 -0.4018 -0.1289
  810THF     H713524   3.347   2.080   1.894 -0.2592  1.6679  0.9761
  810THF     C813525   3.394   1.952   2.055  0.3244 -0.1487 -0.5715
  810THF     C913526   3.367   1.817   2.004  0.1103  0.5828  0.2679
  810THF    H1013527   3.299   1.997   2.086  0.0868  1.6991 -3.5754
  810THF    H1113528   3.469   1.949   2.134  0.2690 -2.4477 -0.5492
  810THF    H1213529   3.429   1.747   2.060  0.3393 -1.8936 -2.8099
  810THF    H1313530   3.262   1.789   2.006  0.1682  0.3581  0.1268
  811THF     O113531   2.619   2.417   5.182  0.1636 -0.3514  0.2034
  811THF     C213532   2.680   2.447   5.060 -0.4320  0.5294  0.4650
  811THF     C313533   2.557   2.290   5.170  0.4409 -0.6284  0.0229
  811THF     H413534   2.757   2.522   5.079 -1.1760  1.7169 -0.9531
  811THF     H513535   2.618   2.495   4.984  0.7632  0.6214 -0.4997
  811THF     H613536   2.535   2.255   5.271  0.3645  2.0029  0.9983
  811THF     H713537   2.465   2.294   5.113  0.5214 -0.4435 -0.0952
  811THF     C813538   2.661   2.208   5.100 -0.4475 -0.0563  0.1655
  811THF     C913539   2.728   2.313   5.004 -0.2634  0.5444 -0.2575
  811THF    H1013540   2.620   2.132   5.033 -1.4464 -0.3567  1.0966
  811THF    H1113541   2.740   2.170   5.163 -0.5319 -0.2319  0.1655
  811THF    H1213542   2.836   2.295   5.003 -0.6392 -2.0675  0.2972
  811THF    H1313543   2.704   2.286   4.901  0.3830  1.4190 -0.6621
  812THF     O113544   1.729   1.595   1.811  0.0404 -0.1779 -0.2465
  812THF     C213545   1.660   1.491   1.744 -0.1466  0.0767  0.4270
  812THF     C313546   1.689   1.604   1.947  0.0727 -0.2361 -0.1537
  812THF     H413547   1.734   1.440   1.684  0.6216  1.7085 -0.0675
  812THF     H513548   1.572   1.526   1.690  0.7512  1.0127 -0.4579
  812THF     H613549   1.779   1.569   1.996 -0.8812 -0.8686  1.2036
  812THF     H713550   1.676   1.709   1.971 -0.0178 -0.1907 -0.3907
  812THF     C813551   1.573   1.508   1.956 -0.4227  0.1836 -0.1804
  812THF     C913552   1.612   1.400   1.855  0.1244 -0.1826 -0.5361
  812THF    H1013553   1.475   1.546   1.926 -0.1228  0.9734 -0.1728
  812THF    H1113554   1.565   1.469   2.058 -2.1270 -0.6784 -0.6042
  812THF    H1213555   1.687   1.339   1.905 -1.1285  0.1922  1.9914
  812THF    H1313556   1.529   1.336   1.825 -1.2084  1.9546 -1.6427
  813THF     O113557   2.134   0.781   5.072  0.7431  0.4448  0.1931
  813THF     C213558   2.130   0.883   5.163 -0.3686  0.1071  0.0001
  813THF     C313559   2.007   0.711   5.070  0.1197  0.4672 -0.0441
  813THF     H413560   2.214   0.950   5.142 -0.5128  0.8932  1.7814
  813THF     H513561   2.157   0.838   5.258  0.0399 -0.0203 -0.1741
  813THF     H613562   2.004   0.633   4.994  1.1532  0.0305  0.3394
  813THF     H713563   1.986   0.659   5.164  2.3254  0.0934  0.2846
  813THF     C813564   1.908   0.824   5.069  0.2936  0.0811  0.1681
  813THF     C913565   1.987   0.929   5.144 -0.4608  0.3035  0.3053
  813THF    H1013566   1.815   0.794   5.117 -0.4848 -0.4109 -1.6007
  813THF    H1113567   1.897   0.868   4.970 -2.3788 -0.0735  0.3313
  813THF    H1213568   1.989   1.031   5.106  2.6727  0.5015  0.7721
  813THF    H1313569   1.933   0.930   5.238 -1.9309  1.0213 -0.5107
  814THF     O113570   2.292   1.118   0.962 -0.1637 -0.3450  0.5632
  814THF     C213571   2.411   1.148   1.036  0.1683 -0.4486 -0.3460
  814THF     C313572   2.298   1.211   0.857 -0.0852  0.2267 -0.1827
  814THF     H413573   2.421   1.059   1.097 -1.4014  0.4371  1.2987
  814THF     H513574   2.402   1.229   1.108  0.6646 -1.0733  0.4389
  814THF     H613575   2.227   1.184   0.779 -0.9612  0.2029  0.5995
  814THF     H713576   2.265   1.308   0.895  0.6754 -0.1867  1.6498
  814THF     C813577   2.451   1.222   0.815  0.2926  0.4140  0.1362
  814THF     C913578   2.527   1.169   0.936  0.6916 -0.1301  0.5695
  814THF    H1013579   2.482   1.317   0.772  2.1675  0.6159  1.7971
  814THF    H1113580   2.471   1.161   0.727  1.2161 -1.7306  1.7451
  814THF    H1213581   2.569   1.072   0.911 -0.5233 -0.9025  1.4338
  814THF    H1313582   2.601   1.237   0.977  1.2319 -1.3750  1.6977
  815THF     O113583   2.085   3.408   1.928  0.1859 -0.2014 -0.3025
  815THF     C213584   2.060   3.526   1.840  0.1486  0.3496 -0.9524
  815THF     C313585   2.125   3.451   2.056 -0.1210  0.8060 -0.1620
  815THF     H413586   1.952   3.542   1.837  0.0298 -0.4333 -0.9757
  815THF     H513587   2.084   3.509   1.735 -0.5018  0.4977 -1.1300
  815THF     H613588   2.055   3.409   2.128 -0.5048  1.6753 -0.0263
  815THF     H713589   2.227   3.419   2.079  0.2181  1.1924 -1.0716
  815THF     C813590   2.104   3.603   2.051 -0.5494 -0.4139 -0.9811
  815THF     C913591   2.122   3.648   1.907  0.4942 -0.0796  0.4985
  815THF    H1013592   2.175   3.651   2.117 -1.2918  1.0640 -1.2289
  815THF    H1113593   2.004   3.624   2.089 -0.1670 -0.3295 -0.0098
  815THF    H1213594   2.071   3.739   1.877  3.7818  1.2780 -1.4415
  815THF    H1313595   2.228   3.656   1.885  0.4247 -0.2462  0.0913
  816THF     O113596   1.182   4.530   1.940  0.0125  0.2817  0.1942
  816THF     C213597   1.220   4.603   2.056  0.0920 -0.7106 -0.2566
  816THF     C313598   1.116   4.613   1.848  0.0985 -0.3811  0.4154
  816THF     H413599   1.325   4.630   2.064  0.2030 -0.8818 -1.0267
  816THF     H513600   1.202   4.531   2.136  1.5089 -1.0827 -0.2532
  816THF     H613601   1.184   4.682   1.797  1.1087 -1.3439  0.4136
  816THF     H713602   1.074   4.552   1.767  1.7200  0.4670 -1.1531
  816THF     C813603   1.024   4.686   1.944  0.0539 -0.5301 -0.2783
  816THF     C913604   1.130   4.729   2.053 -0.3186  0.5706  0.0338
  816THF    H1013605   0.951   4.614   1.982 -1.2012 -0.0505 -1.6508
  816THF    H1113606   0.974   4.763   1.885  3.6085  0.4893 -2.2983
  816THF    H1213607   1.193   4.810   2.017 -2.6201  1.4272 -2.3757
  816THF    H1313608   1.089   4.761   2.149 -0.8256 -1.7187  0.6611
  817THF     O113609   1.192   4.376   1.511 -0.2454  0.3071 -0.1595
  817THF     C213610   1.286   4.316   1.604 -0.2478  0.2895  0.1055
  817THF     C313611   1.233   4.499   1.468 -0.2380 -0.2389  0.0563
  817THF     H413612   1.323   4.221   1.565 -1.1363 -0.0102 -0.0436
  817THF     H513613   1.233   4.295   1.697  0.7817 -0.8951  0.4407
  817THF     H613614   1.229   4.509   1.359  0.4280  1.5010  0.1643
  817THF     H713615   1.170   4.578   1.509  0.0821 -1.3682  2.9303
  817THF     C813616   1.376   4.523   1.511 -0.0057  0.2372 -0.1304
  817THF     C913617   1.391   4.423   1.626  0.1395  0.0943  0.6706
  817THF    H1013618   1.397   4.626   1.540  2.6375  0.2408 -1.8142
  817THF    H1113619   1.448   4.502   1.433 -0.2329  2.2518 -0.9414
  817THF    H1213620   1.493   4.393   1.647  0.2293  1.4831  2.4889
  817THF    H1313621   1.361   4.478   1.715  0.6540 -0.2647  1.0692
  818THF     O113622   2.499   5.284   1.716 -0.1165 -0.1487  0.3256
  818THF     C213623   2.552   5.246   1.837 -0.0412  0.7753  0.2001
  818THF     C313624   2.363   5.230   1.718 -0.0899  0.8770 -0.0536
  818THF     H413625   2.645   5.299   1.859  2.2556 -1.9684 -1.9937
  818THF     H513626   2.590   5.143   1.839 -0.3523  0.6757  1.6264
  818THF     H613627   2.303   5.291   1.650  1.4687  2.5272 -0.0281
  818THF     H713628   2.375   5.130   1.678 -0.9012  1.1870 -1.1070
  818THF     C813629   2.314   5.230   1.867  0.0965  0.0951  0.0950
  818THF     C913630   2.439   5.269   1.938 -0.0001 -0.1430  0.2779
  818THF    H1013631   2.274   5.137   1.906 -1.7935  1.3589  1.3238
  818THF    H1113632   2.247   5.316   1.867 -0.5862 -0.4257 -0.4247
  818THF    H1213633   2.443   5.375   1.960 -0.8646 -0.2873  1.1892
  818THF    H1313634   2.466   5.221   2.033  1.2403 -3.0651 -1.3869
  819THF     O113635   1.825   4.135   3.285 -0.4732 -0.3222  0.2103
  819THF     C213636   1.746   4.084   3.387  0.5440 -0.1678  0.0247
  819THF     C313637   1.881   4.258   3.330 -0.0201  0.3990 -0.4620
  819THF     H413638   1.808   4.016   3.445 -2.1447 -1.2474  1.8684
  819THF     H513639   1.673   4.018   3.339  0.9630 -0.4447 -0.2387
  819THF     H613640   1.962   4.242   3.402 -1.3095 -0.3783  0.8616
  819THF     H713641   1.918   4.314   3.244  2.1797 -0.5783 -0.2272
  819THF     C813642   1.753   4.318   3.394  0.5215  0.1070  0.2314
  819THF     C913643   1.684   4.203   3.459  0.3486  0.3817 -0.9820
  819THF    H1013644   1.677   4.337   3.318  0.9411 -0.5165 -0.3622
  819THF    H1113645   1.777   4.403   3.457 -1.8273  1.5235 -0.6747
  819THF    H1213646   1.706   4.201   3.565  0.2790  1.7006 -0.9285
  819THF    H1313647   1.578   4.208   3.434  0.1504 -1.4832 -0.6611
  820THF     O113648   4.930   2.051   5.415  0.2628 -0.0775 -0.0280
  820THF     C213649   4.816   1.961   5.421 -0.6495 -0.0507  0.3134
  820THF     C313650   5.017   1.996   5.313 -0.5492 -0.2894 -0.7567
  820THF     H413651   4.728   2.019   5.448 -0.7987  0.0034 -0.2770
  820THF     H513652   4.836   1.886   5.497 -1.4283  1.6123  2.2550
  820THF     H613653   5.029   2.083   5.248  0.3565  1.5870  1.7612
  820THF     H713654   5.116   1.978   5.357  0.1646  2.6411 -0.9851
  820THF     C813655   4.946   1.886   5.248 -0.1559 -0.0007 -0.2717
  820THF     C913656   4.800   1.901   5.290 -0.2043 -0.4111  0.2474
  820THF    H1013657   4.964   1.791   5.300 -1.7429  0.4965  1.2797
  820THF    H1113658   4.964   1.872   5.142 -0.5139 -0.7592 -0.2461
  820THF    H1213659   4.750   1.979   5.231  0.1317 -0.0165  0.4764
  820THF    H1313660   4.735   1.814   5.283 -0.0730 -0.4175 -1.1613
  821THF     O113661   3.090   2.862   4.598  0.1227 -0.5237  0.0434
  821THF     C213662   3.032   2.882   4.469  0.5601 -0.7297  0.8448
  821THF     C313663   3.175   2.978   4.613 -0.8430  0.3307 -0.2175
  821THF     H413664   2.944   2.946   4.481  0.2465 -0.8099 -0.8205
  821THF     H513665   3.010   2.784   4.428  2.6142 -0.7305 -0.4355
  821THF     H613666   3.130   3.074   4.640  1.8572  1.3817  0.8391
  821THF     H713667   3.260   2.966   4.679  0.8456  2.0732 -1.9491
  821THF     C813668   3.251   2.988   4.481  0.1736  0.1036  0.3504
  821THF     C913669   3.146   2.940   4.380  0.3540 -0.5595 -0.1414
  821THF    H1013670   3.336   2.923   4.502  0.4549  0.7442  1.2228
  821THF    H1113671   3.284   3.091   4.470  0.0567  0.0132 -1.0842
  821THF    H1213672   3.114   3.028   4.324 -2.0765 -0.4240  1.3170
  821THF    H1313673   3.195   2.870   4.312  2.9596  0.8382  0.1807
  822THF     O113674   2.739   3.322   2.974  0.4750 -0.2619  0.3409
  822THF     C213675   2.716   3.197   3.033 -0.8753 -0.3920  0.7765
  822THF     C313676   2.843   3.387   3.046  0.8074  0.3264  0.0039
  822THF     H413677   2.663   3.124   2.972 -0.3120 -1.0318  1.0437
  822THF     H513678   2.664   3.205   3.128 -0.4206 -2.8706  1.3063
  822THF     H613679   2.880   3.478   3.000  0.7753  0.2041 -0.2684
  822THF     H713680   2.809   3.413   3.146  0.6531  1.7149 -0.3994
  822THF     C813681   2.953   3.276   3.033  0.1165  0.1920 -0.2267
  822THF     C913682   2.861   3.157   3.064 -0.3759  0.0082  0.3149
  822THF    H1013683   3.037   3.288   3.101 -0.3823 -0.2365  0.4771
  822THF    H1113684   2.994   3.267   2.933  1.9375  0.3322  0.4784
  822THF    H1213685   2.905   3.075   3.006  1.4210  0.2795  1.2239
  822THF    H1313686   2.873   3.115   3.163  0.5699 -3.0569 -0.9653
  823THF     O113687   4.782   4.575   0.148  0.3850 -0.6195  0.1104
  823THF     C213688   4.679   4.616   0.061  0.3469  0.5856 -0.5502
  823THF     C313689   4.900   4.575   0.067  0.2277 -0.5360  0.1274
  823THF     H413690   4.587   4.653   0.108 -0.1047  0.0649 -0.9994
  823THF     H513691   4.646   4.529   0.004  1.5693 -0.1768 -0.1120
  823THF     H613692   4.988   4.561   0.130 -1.2347 -2.4564  1.8547
  823THF     H713693   4.898   4.481   0.011  0.0999 -0.5891  0.2233
  823THF     C813694   4.886   4.704  -0.014  0.0776  0.4308 -0.5065
  823THF     C913695   4.733   4.719  -0.029  0.8808  0.0390  0.0711
  823THF    H1013696   4.934   4.722  -0.110  1.5347  1.5690  0.3794
  823THF    H1113697   4.919   4.790   0.046  0.8349  1.8211 -2.7881
  823THF    H1213698   4.711   4.824  -0.011 -0.1409  0.0449 -1.1077
  823THF    H1313699   4.706   4.699  -0.132 -0.6250 -0.6085  0.5750
  824THF     O113700   4.830   4.355   5.282 -0.3215  0.4977 -0.3001
  824THF     C213701   4.965   4.314   5.297  0.3482  0.2089  0.9383
  824THF     C313702   4.807   4.350   5.139  0.7896 -0.1338  0.2432
  824THF     H413703   4.977   4.205   5.296  0.3690  0.2105  0.9909
  824THF     H513704   5.017   4.358   5.382  2.2839 -0.2689  0.0644
  824THF     H613705   4.820   4.251   5.095  1.7209 -0.7278  1.7965
  824THF     H713706   4.710   4.390   5.107  0.2125 -0.2611  1.7613
  824THF     C813707   4.930   4.425   5.087  0.1511  0.1292  0.3492
  824THF     C913708   5.041   4.364   5.164  0.6501 -0.0477 -0.4819
  824THF    H1013709   4.934   4.526   5.127  1.2648 -0.7417  2.6322
  824THF    H1113710   4.929   4.420   4.978 -0.8096 -0.9294  0.3838
  824THF    H1213711   5.086   4.277   5.115 -0.7197 -0.9290 -0.2442
  824THF    H1313712   5.112   4.442   5.188  0.2877 -0.6564  3.1815
  825THF     O113713   5.156   3.328   4.597  0.4784 -0.1203 -0.1666
  825THF     C213714   5.015   3.340   4.561 -0.6629 -0.4670 -0.4570
  825THF     C313715   5.177   3.361   4.731  0.4702 -0.6588  1.2170
  825THF     H413716   4.992   3.237   4.534  0.8400 -0.7594 -0.7145
  825THF     H513717   5.001   3.415   4.483 -0.2422  0.3189  0.1940
  825THF     H613718   5.270   3.324   4.774  2.4260 -0.5854 -2.5330
  825THF     H713719   5.184   3.470   4.732 -0.0850 -0.5685 -0.7544
  825THF     C813720   5.046   3.335   4.802  0.2163  0.1967  0.3198
  825THF     C913721   4.947   3.384   4.694 -0.6104  0.3610 -0.7173
  825THF    H1013722   5.043   3.401   4.889 -0.3299  0.9438 -0.2477
  825THF    H1113723   5.024   3.233   4.835  3.3935 -1.0065 -0.9253
  825THF    H1213724   4.843   3.353   4.697 -0.0364 -1.7051  0.6604
  825THF    H1313725   4.954   3.492   4.701 -0.9840  0.3081  0.9506
  826THF     O113726   2.245   2.173   4.720 -0.0781 -0.2001 -0.1176
  826THF     C213727   2.343   2.073   4.671  0.1006  0.0305  0.2491
  826THF     C313728   2.187   2.121   4.837  0.3890  0.0200  0.6002
  826THF     H413729   2.438   2.125   4.658  0.0256  0.1014 -0.0343
  826THF     H513730   2.314   2.021   4.579 -0.4405  1.3396 -0.3463
  826THF     H613731   2.134   2.194   4.898 -2.4316 -1.5495  0.1726
  826THF     H713732   2.107   2.060   4.797  0.7122  1.7945 -3.1518
  826THF     C813733   2.295   2.035   4.902 -0.5260  0.2081 -0.1056
  826THF     C913734   2.367   1.975   4.785  0.0698  0.8696 -0.0769
  826THF    H1013735   2.250   1.960   4.968  0.1785 -0.3480 -0.2403
  826THF    H1113736   2.363   2.096   4.962  0.8371  0.8782 -2.2327
  826THF    H1213737   2.473   1.952   4.789  0.0896  0.7928 -0.9069
  826THF    H1313738   2.320   1.880   4.759  1.3848 -0.8971  3.3531
  827THF     O113739   2.784   2.861   4.265  0.0047 -0.3629 -0.0880
  827THF     C213740   2.842   2.918   4.153 -0.0819  0.2290  0.4722
  827THF     C313741   2.659   2.932   4.291  0.3893 -0.0749 -0.4703
  827THF     H413742   2.890   2.835   4.101  0.0500 -0.6182  1.9128
  827THF     H513743   2.909   3.003   4.165  2.3009 -0.4695 -4.8419
  827THF     H613744   2.596   2.868   4.353  0.9156 -0.5125 -0.3734
  827THF     H713745   2.681   3.024   4.345  0.5119 -0.4221  0.0876
  827THF     C813746   2.599   2.954   4.157 -0.3477 -0.2547  0.9715
  827THF     C913747   2.724   2.965   4.065  0.1881  0.1932  0.0389
  827THF    H1013748   2.554   3.053   4.165  3.4372  1.4839  3.1319
  827THF    H1113749   2.528   2.874   4.136  1.2976 -1.7630  0.9761
  827THF    H1213750   2.707   2.894   3.984 -0.1239 -1.5980  1.5783
  827THF    H1313751   2.736   3.070   4.039 -0.6610  0.7177  1.6282
  828THF     O113752   4.263   5.419   3.989 -0.1836  0.1593 -0.5753
  828THF     C213753   4.370   5.501   3.968 -0.0034 -0.5951 -0.8008
  828THF     C313754   4.192   5.416   3.871  0.3566 -0.3484  0.0138
  828THF     H413755   4.458   5.458   3.922  0.7310  0.7784 -0.7316
  828THF     H513756   4.412   5.532   4.064 -1.5972 -0.8039 -0.0060
  828THF     H613757   4.249   5.356   3.800  0.3574 -0.4152  0.0708
  828THF     H713758   4.092   5.372   3.876  0.0243  0.1720 -1.3877
  828THF     C813759   4.188   5.560   3.828  0.0683  0.1825  0.1719
  828THF     C913760   4.316   5.622   3.891  0.2828  0.1491  0.3086
  828THF    H1013761   4.096   5.609   3.860  0.6536  1.0059  0.6400
  828THF    H1113762   4.194   5.570   3.719  1.1522  1.8618  0.3509
  828THF    H1213763   4.380   5.673   3.819  0.6744  1.3936  1.5066
  828THF    H1313764   4.301   5.698   3.967 -1.3544  0.4721 -0.2882
  829THF     O113765   1.886   0.595   4.673 -0.5279  0.1313  0.2052
  829THF     C213766   2.003   0.680   4.670 -0.5961  0.6444  0.1258
  829THF     C313767   1.773   0.677   4.651  0.6263 -0.6116  0.3804
  829THF     H413768   2.050   0.675   4.572  1.5944  0.5567  1.1279
  829THF     H513769   2.073   0.631   4.737 -1.6419 -0.9319  0.0974
  829THF     H613770   1.739   0.686   4.549  0.1820  1.7925  0.6897
  829THF     H713771   1.686   0.654   4.712 -1.9515  2.7681 -1.7127
  829THF     C813772   1.812   0.821   4.689 -0.1197  0.2379 -0.3842
  829THF     C913773   1.964   0.826   4.687  0.5377 -0.0911 -0.2104
  829THF    H1013774   1.779   0.840   4.791  0.4032 -1.6677  0.1931
  829THF    H1113775   1.770   0.888   4.615 -0.9900 -0.7956 -0.8565
  829THF    H1213776   2.004   0.872   4.597 -0.4740 -0.7690 -1.0272
  829THF    H1313777   1.996   0.860   4.786  0.8856  1.1118 -0.7175
  830THF     O113778   5.244   3.137   3.693  0.1552  0.2962  0.0504
  830THF     C213779   5.186   3.268   3.691  0.2089 -0.0160 -0.2137
  830THF     C313780   5.146   3.044   3.733  0.0922  0.1011  0.6818
  830THF     H413781   5.159   3.300   3.590  2.4622  0.7919 -0.6178
  830THF     H513782   5.254   3.344   3.729  0.6160 -1.4418  2.0784
  830THF     H613783   5.072   3.023   3.656 -0.9840  0.7731  1.5053
  830THF     H713784   5.183   2.948   3.768  2.8879  1.0702  0.5652
  830THF     C813785   5.070   3.124   3.836 -0.4211 -0.1723 -0.1835
  830THF     C913786   5.064   3.261   3.778  0.1778  0.0990 -0.0355
  830THF    H1013787   5.141   3.136   3.918  2.4202  1.2174 -2.6466
  830THF    H1113788   4.976   3.077   3.864  0.0346 -0.1400  1.5170
  830THF    H1213789   4.976   3.293   3.723  1.2583  2.5299 -0.4862
  830THF    H1313790   5.083   3.347   3.843 -0.1449  0.1486 -0.0079
  831THF     O113791   2.987   3.958   2.978 -0.1372  0.1076 -0.8471
  831THF     C213792   2.864   4.030   2.943 -0.8000  0.7881  0.0505
  831THF     C313793   3.061   3.938   2.860 -0.3885  0.2465  0.8185
  831THF     H413794   2.792   4.049   3.022 -0.1890 -2.5630  1.5712
  831THF     H513795   2.820   3.950   2.883  0.5986 -1.5972  2.0163
  831THF     H613796   3.164   3.905   2.875 -0.0988  0.4157 -0.7254
  831THF     H713797   3.012   3.863   2.798 -0.6267 -0.2067  1.5412
  831THF     C813798   3.046   4.077   2.784  0.3349  0.0906 -0.3910
  831THF     C913799   2.927   4.138   2.850 -1.2864  0.0781  0.1339
  831THF    H1013800   3.041   4.078   2.675 -0.2893  1.6621 -0.3685
  831THF    H1113801   3.132   4.139   2.807 -0.9935  1.7986  0.1647
  831THF    H1213802   2.958   4.221   2.912 -0.1461  0.4350 -0.8630
  831THF    H1313803   2.851   4.178   2.783 -2.5813 -0.4335  1.2598
  832THF     O113804   4.352   2.975   1.095 -0.4447 -0.1569 -0.2328
  832THF     C213805   4.331   2.833   1.111  0.3738  0.1974 -0.0184
  832THF     C313806   4.262   3.006   0.989 -0.2260  0.1608 -0.4526
  832THF     H413807   4.376   2.805   1.206 -0.2871  0.2511  0.3094
  832THF     H513808   4.380   2.777   1.031 -0.1851 -0.4984  0.1180
  832THF     H613809   4.245   3.114   0.992  0.6292  0.2785  0.5604
  832THF     H713810   4.294   2.971   0.892  0.3136  1.5695 -0.8153
  832THF     C813811   4.129   2.930   1.026 -0.2586 -0.0444  0.5596
  832THF     C913812   4.181   2.820   1.114 -0.4174 -0.1544  0.4206
  832THF    H1013813   4.090   2.890   0.932  2.0033  0.6025 -0.7308
  832THF    H1113814   4.054   2.994   1.073  0.3612 -0.3478  1.9814
  832THF    H1213815   4.140   2.813   1.215 -1.3034 -0.1188  0.0768
  832THF    H1313816   4.153   2.726   1.067  1.2138 -0.0312 -0.8688
  833THF     O113817   3.866   3.434   4.030  0.0760 -0.1779 -0.8778
  833THF     C213818   3.750   3.474   3.974  0.2022  0.2100 -0.2891
  833THF     C313819   3.892   3.299   3.994 -0.2215  0.2202 -0.0313
  833THF     H413820   3.752   3.508   3.871  0.8221 -0.4577 -0.4984
  833THF     H513821   3.721   3.554   4.043  1.8707 -2.1130  3.4224
  833THF     H613822   3.920   3.292   3.889  2.5859 -0.3384  0.6681
  833THF     H713823   3.968   3.249   4.054 -1.4158  0.3955  1.7313
  833THF     C813824   3.755   3.238   4.016 -0.0064 -0.3133  0.5143
  833THF     C913825   3.662   3.350   4.000  0.5115 -0.5594  0.5766
  833THF    H1013826   3.746   3.206   4.120  1.0330 -1.5144  0.2613
  833THF    H1113827   3.729   3.146   3.962 -2.5732 -0.1888  1.4059
  833THF    H1213828   3.613   3.344   3.902  2.4774 -0.9969 -0.4452
  833THF    H1313829   3.596   3.368   4.084  1.2256 -1.1871  1.2868
  834THF     O113830   1.148   1.816   1.864  0.3150 -0.3378 -0.6767
  834THF     C213831   1.106   1.948   1.885 -0.5075  0.3430  0.0718
  834THF     C313832   1.286   1.810   1.898 -0.5102 -0.4363 -0.2329
  834THF     H413833   0.999   1.950   1.906 -0.3025  2.8539  1.2877
  834THF     H513834   1.117   2.018   1.803 -0.7315 -0.7471 -0.9108
  834THF     H613835   1.300   1.718   1.955 -0.9778  0.6243  1.6532
  834THF     H713836   1.350   1.799   1.810  1.3382  0.5789  0.9395
  834THF     C813837   1.313   1.924   1.992 -0.5736 -0.5057 -0.6405
  834THF     C913838   1.176   1.983   2.007 -0.3805 -0.1437 -0.3742
  834THF    H1013839   1.380   2.000   1.952 -2.4824  1.3167 -0.5578
  834THF    H1113840   1.358   1.894   2.087 -0.0775  0.2934 -0.6152
  834THF    H1213841   1.118   1.940   2.088  2.6932 -0.4368  1.8376
  834THF    H1313842   1.178   2.091   2.022  2.0266  0.0139 -1.3294
  835THF     O113843   0.718   1.457   1.174  0.7796  0.5353  1.0269
  835THF     C213844   0.682   1.320   1.172  0.5229 -0.2154  0.3453
  835THF     C313845   0.855   1.460   1.152 -0.2838 -0.6840 -0.3535
  835THF     H413846   0.649   1.301   1.070 -0.9049  3.2378  0.0434
  835THF     H513847   0.592   1.315   1.234  1.3720 -1.1070  1.5574
  835THF     H613848   0.861   1.433   1.046 -1.7755 -3.0776  0.0952
  835THF     H713849   0.896   1.557   1.179 -0.2339 -0.7099 -0.3349
  835THF     C813850   0.906   1.352   1.245 -0.2288  0.1056 -0.5513
  835THF     C913851   0.804   1.245   1.216 -0.3939 -0.0829 -0.2293
  835THF    H1013852   0.917   1.386   1.348 -2.3492  0.8426 -0.5116
  835THF    H1113853   1.008   1.318   1.228 -0.8502 -1.8888 -0.4896
  835THF    H1213854   0.841   1.181   1.136 -1.2279 -1.8078  0.7102
  835THF    H1313855   0.785   1.189   1.307 -0.0299 -0.9471 -0.6771
  836THF     O113856   3.844   4.525   3.337 -0.0787 -0.0645  0.6272
  836THF     C213857   3.785   4.479   3.453  0.0964  0.8641 -0.4033
  836THF     C313858   3.886   4.412   3.262 -0.1452  0.0159  0.6539
  836THF     H413859   3.731   4.562   3.500 -0.1321 -0.4636  1.7801
  836THF     H513860   3.842   4.444   3.539 -1.1251  1.0462  0.5156
  836THF     H613861   3.895   4.436   3.156 -3.2051 -0.7419  0.1191
  836THF     H713862   3.979   4.366   3.296 -0.1469 -1.1307 -0.8141
  836THF     C813863   3.771   4.313   3.279  0.4232  0.6376 -0.7333
  836THF     C913864   3.693   4.364   3.405 -0.2784 -0.0928  0.0692
  836THF    H1013865   3.813   4.215   3.303  0.0865  0.3430 -1.3154
  836THF    H1113866   3.698   4.305   3.199  0.1390  0.6776 -0.4764
  836THF    H1213867   3.590   4.394   3.389 -0.5168 -1.2732 -0.7266
  836THF    H1313868   3.695   4.282   3.478 -1.9281 -0.1329  0.1037
  837THF     O113869   1.200   1.911   2.446  0.4140  0.6121  0.2640
  837THF     C213870   1.077   1.940   2.393 -0.6721  0.0321  0.3048
  837THF     C313871   1.217   1.989   2.562  0.7502 -0.5734 -0.4116
  837THF     H413872   0.997   1.886   2.444  0.1665 -1.4952  0.0456
  837THF     H513873   1.073   1.908   2.289 -0.4484 -0.6415  0.4953
  837THF     H613874   1.178   1.943   2.652 -1.7670  0.8982 -0.6673
  837THF     H713875   1.322   2.012   2.583  0.5010 -0.9938  1.4565
  837THF     C813876   1.136   2.114   2.532  0.4427  0.1590 -0.7396
  837THF     C913877   1.053   2.087   2.405 -0.3352  0.3663 -0.0645
  837THF    H1013878   1.193   2.206   2.536  0.5934  0.0429 -0.1280
  837THF    H1113879   1.079   2.115   2.624 -0.9056 -3.5448 -1.3541
  837THF    H1213880   0.952   2.127   2.405 -0.9291 -0.9058  2.6517
  837THF    H1313881   1.091   2.135   2.315 -1.1759 -0.3701 -0.8303
  838THF     O113882   3.099   5.183   0.523  1.0458 -0.2364  0.5963
  838THF     C213883   3.095   5.128   0.657  0.2855 -0.2844  0.6006
  838THF     C313884   3.216   5.264   0.517 -0.5134  0.2616  0.2718
  838THF     H413885   3.155   5.037   0.662  1.0808  0.2877  1.8084
  838THF     H513886   2.995   5.097   0.686 -1.0986  3.1536  0.0080
  838THF     H613887   3.304   5.201   0.503  0.1599  1.2185  0.0716
  838THF     H713888   3.201   5.327   0.430 -0.7749 -1.8794 -1.3103
  838THF     C813889   3.205   5.336   0.650 -0.4987  0.1657 -0.0615
  838THF     C913890   3.159   5.233   0.752  0.1950  0.0710 -0.4651
  838THF    H1013891   3.132   5.417   0.648  0.5303  1.1897  1.5006
  838THF    H1113892   3.301   5.386   0.665  0.3360 -0.4378 -2.8178
  838THF    H1213893   3.236   5.185   0.812 -0.2574  0.3131  0.3143
  838THF    H1313894   3.084   5.281   0.814  0.6986  0.0608  0.1570
  839THF     O113895   2.696   3.121   0.185 -0.1724 -0.1304 -0.3537
  839THF     C213896   2.673   3.260   0.204  0.1218  0.2197 -0.2142
  839THF     C313897   2.687   3.098   0.040  0.0890  0.2463  0.0296
  839THF     H413898   2.762   3.321   0.188 -0.4589  1.7358  1.9559
  839THF     H513899   2.638   3.289   0.303 -2.4724  1.8108 -1.4752
  839THF     H613900   2.763   3.152  -0.016 -0.7674 -0.0108 -1.4203
  839THF     H713901   2.688   2.994   0.008 -1.2573  0.3142 -0.2880
  839THF     C813902   2.554   3.163   0.016  0.3001 -0.3853  0.3759
  839THF     C913903   2.559   3.289   0.105 -0.1869 -0.2267  0.6456
  839THF    H1013904   2.487   3.089   0.062 -0.8344  0.8597  0.7898
  839THF    H1113905   2.524   3.176  -0.088 -1.7778 -0.0071  0.9727
  839THF    H1213906   2.591   3.374   0.044 -1.0878 -0.1378  0.2928
  839THF    H1313907   2.464   3.306   0.156 -0.2257 -0.2851  0.5919
  840THF     O113908   1.896   5.456   5.253 -0.3418 -0.0022  0.1991
  840THF     C213909   1.802   5.515   5.169  0.6974 -0.5441 -0.4969
  840THF     C313910   1.845   5.464   5.389  0.2257  0.1134  0.1400
  840THF     H413911   1.806   5.500   5.061  0.1486 -3.3199 -0.2183
  840THF     H513912   1.812   5.621   5.189 -0.1236 -0.9843  2.9791
  840THF     H613913   1.889   5.385   5.451 -0.1381 -0.9107 -0.8753
  840THF     H713914   1.888   5.554   5.433  0.6079 -1.2195  2.7060
  840THF     C813915   1.691   5.445   5.371  0.2141  0.0342  0.4684
  840THF     C913916   1.669   5.461   5.226  0.3172  0.6341  0.5713
  840THF    H1013917   1.641   5.522   5.431  1.6213  1.4889 -0.1539
  840THF    H1113918   1.649   5.349   5.402 -0.7480 -0.6186 -2.5170
  840THF    H1213919   1.656   5.362   5.182  0.6464  0.4287  0.9313
  840THF    H1313920   1.583   5.520   5.193 -0.4710  0.8482  2.8399
  841THF     O113921   4.056   5.237   2.615 -0.3702 -0.1966 -0.3300
  841THF     C213922   4.070   5.346   2.539  0.2400  0.6893  0.1112
  841THF     C313923   4.180   5.169   2.627  0.2977 -0.3980 -0.6550
  841THF     H413924   3.985   5.413   2.551  0.0661  0.7663 -1.4175
  841THF     H513925   4.085   5.326   2.433 -0.6753 -2.3810  0.4697
  841THF     H613926   4.176   5.108   2.718 -2.0712 -1.7802 -1.5913
  841THF     H713927   4.182   5.104   2.540  0.5746  1.0525 -1.7659
  841THF     C813928   4.280   5.282   2.618 -0.4613  0.7998 -0.3383
  841THF     C913929   4.202   5.402   2.599  0.6681 -0.1300 -0.4441
  841THF    H1013930   4.345   5.254   2.535 -1.1882 -2.1614 -0.0192
  841THF    H1113931   4.344   5.288   2.707 -0.9249  0.7571  0.0051
  841THF    H1213932   4.185   5.455   2.693 -2.7578 -0.1062 -0.9359
  841THF    H1313933   4.242   5.469   2.523 -0.0916  2.6555  1.4630
  842THF     O113934   3.890   1.269   1.264  0.2728  0.0705 -0.0873
  842THF     C213935   3.922   1.131   1.233  0.9247  1.1676 -0.2514
  842THF     C313936   4.010   1.335   1.298 -0.5917  0.2076 -0.0385
  842THF     H413937   3.837   1.092   1.177  1.3561 -1.1663  0.6008
  842THF     H513938   3.925   1.077   1.328 -1.0889  0.0150 -0.7774
  842THF     H613939   4.016   1.437   1.261  0.4318 -0.1233 -0.8231
  842THF     H713940   4.030   1.341   1.404 -1.0450  1.5086 -0.0150
  842THF     C813941   4.120   1.265   1.214 -0.0060 -0.4877 -0.3271
  842THF     C913942   4.047   1.146   1.153 -0.3027 -0.3060 -0.2612
  842THF    H1013943   4.195   1.242   1.290 -0.9603 -0.6585  0.5914
  842THF    H1113944   4.159   1.336   1.141 -0.1344 -0.4885 -0.3958
  842THF    H1213945   4.020   1.166   1.049 -0.2071 -0.2182 -0.2689
  842THF    H1313946   4.111   1.058   1.143 -2.0726 -1.4063 -3.6724
  843THF     O113947   4.246   1.942   0.067  0.1716  0.3653 -0.2735
  843THF     C213948   4.266   2.059  -0.010 -0.2822 -0.3894 -0.0700
  843THF     C313949   4.108   1.947   0.109  1.0880 -0.4093 -0.2411
  843THF     H413950   4.356   2.054  -0.070  0.1247  1.2779  0.3657
  843THF     H513951   4.289   2.133   0.066  0.0950  0.3419 -0.8881
  843THF     H613952   4.077   1.843   0.120  2.8781 -0.8270  1.2843
  843THF     H713953   4.121   2.010   0.197  3.9106 -0.4395 -0.5456
  843THF     C813954   4.031   2.005  -0.004  0.1731  0.1598 -0.1702
  843THF     C913955   4.132   2.081  -0.086  0.1068  0.3115 -0.0482
  843THF    H1013956   3.959   2.079   0.032 -0.7442  0.1802 -1.9262
  843THF    H1113957   3.985   1.924  -0.061  1.4391  0.3161 -1.4671
  843THF    H1213958   4.142   2.021  -0.176  1.5506  0.9133 -0.3141
  843THF    H1313959   4.109   2.183  -0.117  0.2981  0.0183 -1.2165
  844THF     O113960   0.600   2.452   5.206  0.5204 -0.3277 -0.1753
  844THF     C213961   0.670   2.564   5.239 -0.5162 -0.4927  0.4311
  844THF     C313962   0.605   2.374   5.329  0.1927 -0.0222 -0.5087
  844THF     H413963   0.616   2.619   5.316  0.0430  1.4046 -0.4589
  844THF     H513964   0.686   2.631   5.154 -1.3247 -1.6503 -0.6745
  844THF     H613965   0.538   2.427   5.397  0.3761  1.0009 -1.1117
  844THF     H713966   0.591   2.268   5.310  1.9752 -0.4051  0.1353
  844THF     C813967   0.746   2.395   5.380  0.2783 -0.0299  0.3537
  844THF     C913968   0.797   2.507   5.298 -0.2506  0.0419  0.1733
  844THF    H1013969   0.796   2.299   5.368 -4.9476 -3.0897 -0.2315
  844THF    H1113970   0.744   2.422   5.485 -0.9596 -0.4486  0.4489
  844THF    H1213971   0.859   2.585   5.343  0.2225  0.7337 -1.5953
  844THF    H1313972   0.852   2.468   5.212  0.7252  0.7041  0.4794
  845THF     O113973   4.064   1.621   0.869 -0.1968 -0.1922 -0.2987
  845THF     C213974   4.000   1.523   0.953 -0.3631 -0.3195  0.1072
  845THF     C313975   4.036   1.588   0.736  0.0463 -0.6540  0.0060
  845THF     H413976   3.984   1.563   1.054  2.4543  0.9851  0.1435
  845THF     H513977   4.077   1.447   0.964  0.6871  0.5688 -0.8808
  845THF     H613978   4.046   1.672   0.666  2.3244 -2.0150 -1.4421
  845THF     H713979   4.100   1.511   0.694  0.1277 -0.1844 -0.7602
  845THF     C813980   3.896   1.534   0.734  0.6974 -0.3262  0.5057
  845THF     C913981   3.868   1.494   0.880 -0.2716 -0.2797  0.3723
  845THF    H1013982   3.880   1.447   0.670 -0.6416 -0.1139  0.5133
  845THF    H1113983   3.823   1.612   0.710  2.4612  2.1658  2.6120
  845THF    H1213984   3.781   1.549   0.915  1.4543  1.6658  1.8483
  845THF    H1313985   3.851   1.386   0.883 -4.0724  0.0611 -2.2033
  846THF     O113986   2.089   4.340   5.326 -0.0145 -0.7203  0.0128
  846THF     C213987   2.210   4.372   5.384 -0.8178 -0.1916 -0.5883
  846THF     C313988   2.105   4.220   5.245  0.3459 -0.2973  0.3163
  846THF     H413989   2.218   4.368   5.493  1.8722  0.5075 -0.6950
  846THF     H513990   2.230   4.477   5.365  1.8013 -0.4144  0.5083
  846THF     H613991   2.088   4.139   5.316  0.1953  0.2001  0.8580
  846THF     H713992   2.031   4.220   5.165  0.3478  0.0089  0.3151
  846THF     C813993   2.247   4.234   5.194 -0.7680  0.0043  0.2942
  846THF     C913994   2.312   4.273   5.331 -0.2947  0.2450 -0.1925
  846THF    H1013995   2.268   4.316   5.125  0.4489  0.1114  0.7641
  846THF    H1113996   2.292   4.151   5.139 -0.1361  0.1790  0.5333
  846THF    H1213997   2.331   4.194   5.404  1.5808 -1.4404 -2.3546
  846THF    H1313998   2.407   4.324   5.317 -0.0926 -0.2775 -0.7728
  847THF     O113999   3.850   3.757   5.337 -0.2681 -0.1381  0.7038
  847THF     C214000   3.781   3.734   5.215  0.2833  0.2185 -0.2062
  847THF     C314001   3.837   3.894   5.369  0.4031  0.5476 -0.0771
  847THF     H414002   3.675   3.719   5.233  0.1422  0.8679 -0.4304
  847THF     H514003   3.824   3.646   5.168 -0.7560 -1.4262  1.7902
  847THF     H614004   3.736   3.908   5.407  0.0696 -0.8516 -0.3715
  847THF     H714005   3.894   3.932   5.453 -0.3049  3.5836 -0.8260
  847THF     C814006   3.850   3.965   5.237  0.1832  0.4169 -0.2676
  847THF     C914007   3.798   3.860   5.134 -0.6709  0.3559 -0.0080
  847THF    H1014008   3.958   3.981   5.235  0.1025  1.0942  0.6617
  847THF    H1114009   3.798   4.061   5.237  0.1686  0.4102 -0.4777
  847THF    H1214010   3.705   3.880   5.079 -0.8201  0.1067  0.1539
  847THF    H1314011   3.861   3.839   5.047 -1.2461  1.0190 -0.6037
  848THF     O114012   0.837   3.531   5.087 -0.4123  0.1176 -0.2348
  848THF     C214013   0.930   3.551   4.985  0.6943 -0.8817  0.0011
  848THF     C314014   0.904   3.441   5.180 -0.5575 -0.9761  0.1129
  848THF     H414015   0.954   3.656   4.970 -0.8840 -0.5878 -0.6790
  848THF     H514016   0.878   3.521   4.894 -0.9914  0.7373  0.3793
  848THF     H614017   0.945   3.498   5.263  0.4655  1.7666 -2.1188
  848THF     H714018   0.838   3.366   5.223 -0.0648 -2.7080 -1.9954
  848THF     C814019   1.013   3.372   5.115  0.4282  0.4122  0.5063
  848THF     C914020   1.055   3.465   5.005 -0.3727 -0.5700 -0.0578
  848THF    H1014021   0.978   3.281   5.067 -0.8577  1.9298 -1.6567
  848THF    H1114022   1.092   3.349   5.186 -0.9577  0.8425  2.2580
  848THF    H1214023   1.138   3.531   5.032  1.6543 -1.4372 -3.4980
  848THF    H1314024   1.088   3.421   4.911 -1.2716 -0.0236 -0.6411
  849THF     O114025   5.169   1.489   4.986 -0.6718  0.2770  0.1535
  849THF     C214026   5.283   1.426   5.031  0.8182 -0.3826 -0.3483
  849THF     C314027   5.206   1.624   4.971 -0.1658  0.4633 -0.4275
  849THF     H414028   5.353   1.399   4.952  2.5112  0.7946  0.6846
  849THF     H514029   5.236   1.336   5.070 -0.2876 -0.2358 -1.2996
  849THF     H614030   5.258   1.628   4.875 -0.0266  1.2757 -0.3183
  849THF     H714031   5.109   1.673   4.979 -0.2179  0.0558  2.3493
  849THF     C814032   5.297   1.658   5.087  0.0772 -0.6505  0.2750
  849THF     C914033   5.332   1.521   5.138  0.0263  0.7511 -0.4906
  849THF    H1014034   5.235   1.709   5.161 -1.5099 -1.0533 -0.7331
  849THF    H1114035   5.380   1.722   5.058 -0.6802  0.0190 -0.4495
  849THF    H1214036   5.441   1.523   5.147  0.0623  2.0126 -0.9984
  849THF    H1314037   5.282   1.509   5.234 -0.0630 -1.9382 -0.7928
  850THF     O114038   4.455   4.858   1.546  0.1926  0.0016 -0.2554
  850THF     C214039   4.591   4.895   1.561  0.3846  0.4689  0.1039
  850THF     C314040   4.456   4.723   1.484  0.2316  0.5820  0.0415
  850THF     H414041   4.647   4.843   1.639  0.1229 -1.0179 -0.6619
  850THF     H514042   4.604   5.002   1.577  1.3079  0.1612  1.6440
  850THF     H614043   4.496   4.655   1.559  0.4008 -0.1846 -0.7321
  850THF     H714044   4.361   4.691   1.441  1.2733 -0.6833 -1.4128
  850THF     C814045   4.560   4.737   1.374 -0.1700 -0.4513  0.4847
  850THF     C914046   4.640   4.849   1.428 -0.7004 -0.1106  0.2272
  850THF    H1014047   4.523   4.764   1.275 -0.4791 -2.5239 -0.0075
  850THF    H1114048   4.624   4.649   1.369  0.4228 -0.1607  2.2598
  850THF    H1214049   4.747   4.831   1.418 -0.2003  3.0356 -1.3677
  850THF    H1314050   4.615   4.932   1.361 -1.4178 -1.1766 -0.8662
  851THF     O114051   4.306   3.361   2.443 -0.6556 -0.5820 -0.8302
  851THF     C214052   4.174   3.312   2.423  0.3721  0.1880 -0.1046
  851THF     C314053   4.332   3.357   2.587  0.0111  0.0154  0.4836
  851THF     H414054   4.161   3.265   2.326 -0.8920  1.8026 -0.7450
  851THF     H514055   4.104   3.390   2.452  2.2153  1.4415  1.2180
  851THF     H614056   4.432   3.318   2.606  0.1742 -0.2117 -0.7243
  851THF     H714057   4.324   3.457   2.629  0.3027  0.5075 -0.5916
  851THF     C814058   4.225   3.265   2.650  0.1339 -0.4642  0.2565
  851THF     C914059   4.165   3.204   2.529 -0.1253 -0.4619 -0.4074
  851THF    H1014060   4.143   3.317   2.699 -0.2673 -0.7600 -0.0909
  851THF    H1114061   4.281   3.193   2.710  3.4842 -1.4136 -3.5256
  851THF    H1214062   4.242   3.133   2.498  0.6633  0.3096 -0.2466
  851THF    H1314063   4.071   3.152   2.552  0.1508 -0.6225  0.3906
  852THF     O114064   4.466   1.175   4.404 -0.3484  0.5060  0.0420
  852THF     C214065   4.318   1.177   4.382 -0.2432 -0.6445 -0.5977
  852THF     C314066   4.524   1.257   4.303  0.0480 -0.1134  0.0965
  852THF     H414067   4.265   1.227   4.464 -1.0037  0.8486 -1.9495
  852THF     H514068   4.281   1.075   4.368 -1.2531 -0.3349 -0.3268
  852THF     H614069   4.604   1.312   4.353  0.6369  0.6667 -1.6241
  852THF     H714070   4.561   1.186   4.230  0.6587 -0.3573  0.6392
  852THF     C814071   4.412   1.349   4.258  0.1346 -0.3686  0.4756
  852THF     C914072   4.288   1.246   4.252  0.1212 -0.6845  0.7828
  852THF    H1014073   4.433   1.403   4.166  0.0266  0.8729  1.1660
  852THF    H1114074   4.392   1.424   4.334  0.8965  0.9664 -0.6127
  852THF    H1214075   4.192   1.295   4.240  0.7367  0.1293 -1.4585
  852THF    H1314076   4.304   1.177   4.169  1.5354 -0.2469  0.6576
  853THF     O114077   0.013   0.753   4.477  0.2336  0.4936  0.4028
  853THF     C214078   0.022   0.890   4.514 -0.1556  0.6994 -0.4020
  853THF     C314079   0.135   0.687   4.500  0.3873 -0.5631  0.6249
  853THF     H414080  -0.002   0.894   4.620 -2.5591  0.1838 -0.8758
  853THF     H514081  -0.057   0.953   4.474 -0.2502 -0.7249 -2.6551
  853THF     H614082   0.147   0.661   4.605 -3.2634  0.1636  1.3727
  853THF     H714083   0.144   0.592   4.448 -2.4100  0.1223 -1.3746
  853THF     C814084   0.230   0.794   4.447  0.1604  0.4175 -0.6067
  853THF     C914085   0.171   0.929   4.484  0.9245 -0.0073  0.6286
  853THF    H1014086   0.231   0.789   4.338 -1.6312 -1.6920 -0.5821
  853THF    H1114087   0.333   0.783   4.481  0.4461  1.2114 -1.1745
  853THF    H1214088   0.221   0.975   4.570  0.0077  1.2493  0.5169
  853THF    H1314089   0.191   0.999   4.403 -1.4038 -0.8836 -0.7814
  854THF     O114090   2.619   2.499   4.579  0.1131 -0.9950  0.6075
  854THF     C214091   2.593   2.634   4.539 -0.1722  0.4559 -0.3374
  854THF     C314092   2.755   2.481   4.619  0.6885  0.3521  0.3404
  854THF     H414093   2.485   2.643   4.540 -0.3136 -0.2024  3.2226
  854THF     H514094   2.635   2.640   4.439 -1.1429  1.6519 -0.6959
  854THF     H614095   2.770   2.400   4.691  2.6557  0.5055  0.1641
  854THF     H714096   2.800   2.457   4.523  1.6748 -1.0925  1.1160
  854THF     C814097   2.796   2.616   4.673 -0.3062 -0.1223  0.6675
  854THF     C914098   2.682   2.710   4.639  0.0601  0.0432 -0.2564
  854THF    H1014099   2.888   2.647   4.624  0.8162 -1.4661  1.8383
  854THF    H1114100   2.812   2.606   4.780 -0.5612 -0.8324  0.6417
  854THF    H1214101   2.631   2.737   4.731  0.2728 -2.7344  0.7576
  854THF    H1314102   2.720   2.802   4.594 -0.1815  0.6500  0.7509
  855THF     O114103   2.711   0.708   1.468  0.1475 -0.0475  0.3578
  855THF     C214104   2.730   0.799   1.363 -0.4194  0.0383 -0.6968
  855THF     C314105   2.609   0.732   1.552  0.3073  0.4219  0.3509
  855THF     H414106   2.705   0.757   1.265 -0.3392 -1.4243 -0.1187
  855THF     H514107   2.831   0.839   1.373 -0.6053  0.2654  0.3444
  855THF     H614108   2.524   0.670   1.521  1.2894 -0.5487 -0.4591
  855THF     H714109   2.640   0.708   1.653  1.3012  1.2177  0.2480
  855THF     C814110   2.584   0.874   1.536  0.1493 -0.0372 -0.6038
  855THF     C914111   2.634   0.916   1.401 -0.0259  0.2014 -0.2151
  855THF    H1014112   2.654   0.917   1.608 -1.2643  0.4023  0.5538
  855THF    H1114113   2.487   0.913   1.567  0.1270 -0.4094 -0.2003
  855THF    H1214114   2.568   0.926   1.315 -2.2315 -0.6231  1.2864
  855THF    H1314115   2.679   1.015   1.409 -1.2428  0.6255  3.0628
  856THF     O114116   3.536   2.178   1.297 -0.2429 -0.6192 -0.5103
  856THF     C214117   3.650   2.173   1.370 -0.0330  0.8093 -0.2416
  856THF     C314118   3.425   2.137   1.377  0.0545 -0.2977 -0.6385
  856THF     H414119   3.691   2.273   1.385 -0.7658  1.1627 -0.5382
  856THF     H514120   3.725   2.108   1.325 -1.6424 -1.1029 -0.3016
  856THF     H614121   3.387   2.224   1.431 -0.3359 -0.1496 -1.1417
  856THF     H714122   3.343   2.102   1.314 -1.0661  0.3612  0.4115
  856THF     C814123   3.476   2.044   1.491  0.5611  0.2183  0.3051
  856THF     C914124   3.609   2.117   1.513  0.2401 -0.3276  0.8487
  856THF    H1014125   3.488   1.942   1.452  1.1091 -0.5724  2.4193
  856THF    H1114126   3.411   2.042   1.578  0.3347 -1.0870  0.1261
  856THF    H1214127   3.618   2.189   1.595  1.8104 -0.0277  0.4422
  856THF    H1314128   3.681   2.040   1.540 -2.2778 -3.0317  0.2974
  857THF     O114129   5.366   2.935   2.236 -0.2453 -0.1668  0.2157
  857THF     C214130   5.465   3.005   2.157 -0.1471  0.8961 -0.0810
  857THF     C314131   5.399   2.957   2.371  0.2665 -0.2844 -0.1616
  857THF     H414132   5.447   3.112   2.149  1.8280  1.3435  0.7141
  857THF     H514133   5.473   2.968   2.055  0.3144 -0.9023  0.5739
  857THF     H614134   5.353   3.043   2.420  1.5637  0.3037  0.0813
  857THF     H714135   5.386   2.871   2.438  1.7011 -1.0370 -0.7806
  857THF     C814136   5.555   2.984   2.380  0.4613  0.1068 -0.4012
  857THF     C914137   5.591   2.977   2.235 -0.4881  0.1403 -0.7625
  857THF    H1014138   5.605   2.900   2.429  2.8881  1.4871 -0.3476
  857THF    H1114139   5.593   3.079   2.419  0.2232 -0.1701  0.5347
  857THF    H1214140   5.676   3.042   2.211  1.8418 -1.7740  1.6694
  857THF    H1314141   5.628   2.875   2.224  2.6710  1.2184 -1.2596
  858THF     O114142   0.636   4.513   4.758  0.2908 -0.7001 -0.7010
  858THF     C214143   0.569   4.473   4.640 -0.0398  0.0946  0.0711
  858THF     C314144   0.669   4.394   4.835 -0.0978  0.3665  0.0758
  858THF     H414145   0.647   4.444   4.570 -1.6923 -1.5675 -1.1807
  858THF     H514146   0.497   4.537   4.590 -2.2286 -2.0945  0.2037
  858THF     H614147   0.755   4.345   4.790 -1.9547 -1.0669 -2.1686
  858THF     H714148   0.694   4.405   4.940 -0.1226 -1.0384  0.2483
  858THF     C814149   0.552   4.303   4.813 -0.5809  0.1973 -0.1603
  858THF     C914150   0.491   4.344   4.682  0.2466 -1.1952 -0.4600
  858THF    H1014151   0.483   4.329   4.893 -0.4919  2.1143 -0.6672
  858THF    H1114152   0.587   4.200   4.825  1.7479  1.0367  0.8938
  858THF    H1214153   0.502   4.265   4.607 -1.8350 -2.7379  0.7780
  858THF    H1314154   0.384   4.359   4.695  0.1685 -0.3793 -1.8485
  859THF     O114155   2.349   1.960   3.848  0.2372  0.0893 -0.0260
  859THF     C214156   2.280   1.864   3.929 -1.0889 -0.2153 -0.3705
  859THF     C314157   2.247   2.001   3.757  0.4336  0.8263 -0.3886
  859THF     H414158   2.351   1.842   4.009 -0.2279  1.3338 -0.6667
  859THF     H514159   2.275   1.769   3.875  0.6593 -1.5541  1.6668
  859THF     H614160   2.274   2.098   3.716  0.8686  1.9395  2.3029
  859THF     H714161   2.212   1.929   3.683  2.0267 -2.1595  1.5358
  859THF     C814162   2.134   2.029   3.860  0.0179  0.6109  0.1329
  859THF     C914163   2.143   1.919   3.963 -1.4751 -0.2120  0.1265
  859THF    H1014164   2.037   2.052   3.815 -1.2666  0.5832  2.6751
  859THF    H1114165   2.156   2.123   3.911  1.3150  0.8846 -0.8898
  859THF    H1214166   2.140   1.941   4.070  3.1472 -2.1234  0.8930
  859THF    H1314167   2.079   1.831   3.953  0.4698 -1.8138  0.9518
  860THF     O114168   0.017   3.748   1.389  0.1850 -0.2178 -0.6253
  860THF     C214169  -0.015   3.804   1.264 -0.0277  0.2346  0.5831
  860THF     C314170   0.109   3.646   1.377 -0.4721  0.3124 -0.3500
  860THF     H414171   0.069   3.860   1.224  0.1520  0.6294  1.4728
  860THF     H514172  -0.100   3.872   1.265 -0.7424 -0.6163 -0.3591
  860THF     H614173   0.206   3.682   1.343  0.2894  1.0760  2.3744
  860THF     H714174   0.100   3.584   1.466 -1.8816 -0.4664 -1.0224
  860THF     C814175   0.037   3.572   1.257 -0.1755 -0.6899 -0.3373
  860THF     C914176  -0.042   3.677   1.191  0.4634  1.1861  0.0792
  860THF    H1014177  -0.030   3.496   1.298 -0.5861 -0.4475 -0.5587
  860THF    H1114178   0.113   3.523   1.195  1.5485  1.9810 -0.4762
  860THF    H1214179  -0.012   3.679   1.086 -1.4288  1.2283 -0.5146
  860THF    H1314180  -0.147   3.647   1.184  1.0270 -0.5777 -4.1609
  861THF     O114181   0.313   0.956   3.302  0.3491  0.1557  0.4798
  861THF     C214182   0.258   0.843   3.365 -0.2769  0.3217  0.3046
  861THF     C314183   0.453   0.961   3.339  0.7330 -0.7414 -0.2202
  861THF     H414184   0.254   0.766   3.287 -0.0426 -0.1421  0.7436
  861THF     H514185   0.154   0.865   3.390 -0.2557  2.3617 -1.1656
  861THF     H614186   0.523   0.904   3.279  0.3963 -0.2332 -1.1162
  861THF     H714187   0.491   1.063   3.325 -1.0105  0.2113  1.4274
  861THF     C814188   0.447   0.927   3.486  0.6993 -0.3309  0.1542
  861THF     C914189   0.346   0.816   3.486  0.3662  0.5529 -0.1895
  861THF    H1014190   0.408   1.017   3.533  2.1260  0.3640  0.0635
  861THF    H1114191   0.541   0.892   3.528  1.6314 -0.0095 -1.5528
  861THF    H1214192   0.396   0.720   3.487  1.6529  1.1460  2.3711
  861THF    H1314193   0.286   0.808   3.577 -1.9631 -0.3031 -1.7119
  862THF     O114194   0.313   4.320   4.442  0.4042 -0.4904  0.0659
  862THF     C214195   0.176   4.303   4.485 -0.5993 -0.1037  0.6553
  862THF     C314196   0.319   4.298   4.300 -0.2016  0.5398 -0.5575
  862THF     H414197   0.142   4.390   4.541  1.6427  1.6437 -0.4724
  862THF     H514198   0.152   4.223   4.554 -0.5130 -0.9534 -0.2849
  862THF     H614199   0.407   4.352   4.264  0.6629 -0.4132  0.0604
  862THF     H714200   0.335   4.194   4.272 -0.2527  0.1584  0.7639
  862THF     C814201   0.181   4.349   4.261 -0.3833  0.2780  0.1370
  862THF     C914202   0.090   4.279   4.360 -0.5874 -0.4209  0.5891
  862THF    H1014203   0.138   4.322   4.165  0.9568  0.2901 -0.4854
  862THF    H1114204   0.177   4.457   4.279  0.3431  0.5018 -0.9251
  862THF    H1214205  -0.005   4.330   4.375  0.4077  1.9637 -0.6695
  862THF    H1314206   0.080   4.172   4.344 -0.8232 -0.2984 -0.0763
  863THF     O114207   4.707   0.912   3.233  0.4187 -0.5706 -0.1394
  863THF     C214208   4.821   0.952   3.165 -0.1762  0.2024 -0.0677
  863THF     C314209   4.638   0.837   3.135 -0.5364  0.2580  0.4049
  863THF     H414210   4.877   0.863   3.137  0.1152 -0.6171  2.8034
  863THF     H514211   4.879   1.015   3.233 -1.5460  2.4305 -0.8555
  863THF     H614212   4.657   0.729   3.128 -1.2082  0.0199  1.8444
  863THF     H714213   4.531   0.845   3.154 -0.9155 -0.6993 -1.0955
  863THF     C814214   4.678   0.906   3.002 -0.0018  0.0084  0.1618
  863THF     C914215   4.770   1.021   3.043  0.4718 -0.3300  0.2414
  863THF    H1014216   4.590   0.944   2.949  1.2027  2.0011 -0.5159
  863THF    H1114217   4.737   0.843   2.936  0.4122 -0.0586  0.5926
  863THF    H1214218   4.851   1.045   2.974 -0.7747  2.6418 -0.3396
  863THF    H1314219   4.708   1.108   3.066 -0.0941 -0.7192  0.1930
  864THF     O114220   3.707   3.971   4.805 -0.9602 -0.3869  0.2800
  864THF     C214221   3.603   3.972   4.706 -0.0930  0.2623 -0.1344
  864THF     C314222   3.715   4.088   4.879  0.0195  0.2367 -0.1581
  864THF     H414223   3.517   3.909   4.730  0.3351 -0.1490  0.3610
  864THF     H514224   3.656   3.948   4.614  0.4876  0.1855  0.2144
  864THF     H614225   3.631   4.081   4.948 -1.0505 -0.4762 -1.4780
  864THF     H714226   3.812   4.103   4.926 -0.0764 -0.9626  0.4400
  864THF     C814227   3.681   4.190   4.774 -0.7847 -0.5792 -0.4649
  864THF     C914228   3.570   4.127   4.691  0.1294  0.3401 -0.9881
  864THF    H1014229   3.765   4.190   4.705 -1.5496 -0.7415 -1.4120
  864THF    H1114230   3.669   4.289   4.818  1.6283 -0.2538 -0.4061
  864THF    H1214231   3.470   4.157   4.721 -0.4691 -0.2505 -2.3121
  864THF    H1314232   3.598   4.162   4.592  1.2457 -0.3815 -0.9454
  865THF     O114233   2.491   1.610   2.189  0.2886  0.6547  0.8961
  865THF     C214234   2.356   1.548   2.180 -0.7725 -0.1513 -0.0331
  865THF     C314235   2.501   1.711   2.086 -0.0923 -0.1817  0.3086
  865THF     H414236   2.325   1.490   2.268  0.2167 -0.8919 -0.1479
  865THF     H514237   2.358   1.482   2.094 -0.3425  1.0417 -0.9535
  865THF     H614238   2.558   1.792   2.132 -1.0133  1.0819 -0.7297
  865THF     H714239   2.554   1.675   1.998 -3.0720 -0.1167 -1.6147
  865THF     C814240   2.357   1.750   2.057  0.1277  0.0270  0.0509
  865THF     C914241   2.275   1.677   2.162  0.0905  0.8850 -0.3999
  865THF    H1014242   2.334   1.688   1.970  2.4193 -0.1550 -0.4978
  865THF    H1114243   2.338   1.857   2.044  0.4826  0.1885  0.8206
  865THF    H1214244   2.289   1.733   2.255 -0.6818 -1.8287  1.4808
  865THF    H1314245   2.167   1.662   2.156  0.4741 -2.6673 -0.5139
  866THF     O114246   2.822   1.806   4.164 -0.1008  0.6820 -0.2217
  866THF     C214247   2.870   1.669   4.180 -1.0620 -0.3325  0.3693
  866THF     C314248   2.910   1.890   4.242  0.1628  0.5681 -0.1732
  866THF     H414249   2.823   1.607   4.103  1.0635 -1.2506 -0.2566
  866THF     H514250   2.841   1.633   4.279 -1.6889  0.6785  0.5676
  866THF     H614251   2.905   1.985   4.189 -1.3267 -0.2426 -1.5898
  866THF     H714252   2.880   1.903   4.346  0.9426 -1.2237  0.3185
  866THF     C814253   3.050   1.818   4.226  0.1215  0.3234 -0.9845
  866THF     C914254   3.020   1.681   4.161 -0.1558  0.0251 -0.1933
  866THF    H1014255   3.079   1.804   4.330 -0.5308 -0.6622 -0.9306
  866THF    H1114256   3.131   1.870   4.174  0.0260 -0.8029 -2.3158
  866THF    H1214257   3.040   1.690   4.054 -1.0441  0.1203 -0.3600
  866THF    H1314258   3.078   1.591   4.183  1.6174  0.8322 -1.3187
  867THF     O114259   2.649   2.812   1.648  0.7460 -0.6616  0.6879
  867THF     C214260   2.607   2.871   1.529  0.1658 -0.2582 -0.1724
  867THF     C314261   2.729   2.698   1.618  0.2078 -0.1543  0.1497
  867THF     H414262   2.692   2.913   1.475 -0.3296 -0.5219 -1.1612
  867THF     H514263   2.523   2.939   1.544  0.9561  0.6318  0.3490
  867THF     H614264   2.831   2.732   1.637  0.2660 -0.6548  0.7495
  867THF     H714265   2.700   2.629   1.697  0.3156  1.3877  1.5770
  867THF     C814266   2.687   2.652   1.473  0.8117 -0.2880 -0.2497
  867THF     C914267   2.575   2.753   1.446 -0.3966  0.0775 -0.2331
  867THF    H1014268   2.649   2.549   1.472  0.1962 -0.0699 -0.0672
  867THF    H1114269   2.773   2.643   1.408  1.9474 -0.8256  1.2612
  867THF    H1214270   2.559   2.770   1.340  0.2727  1.9823 -0.0726
  867THF    H1314271   2.488   2.704   1.489 -0.4509  0.7248  0.4304
  868THF     O114272   4.014   4.151   4.084 -0.2200 -0.3025  0.0988
  868THF     C214273   4.138   4.181   4.148 -0.1905  0.1053  0.0912
  868THF     C314274   3.922   4.256   4.124 -0.4555  0.3273 -0.2793
  868THF     H414275   4.224   4.148   4.089  0.6533  1.1332  0.7044
  868THF     H514276   4.146   4.134   4.246 -2.5590 -0.6964 -0.0482
  868THF     H614277   3.883   4.297   4.030  1.3205  2.3732 -0.1777
  868THF     H714278   3.836   4.220   4.181 -0.1037  0.8953  0.6110
  868THF     C814279   4.001   4.370   4.198 -0.1047 -0.0613 -0.3955
  868THF     C914280   4.141   4.335   4.154  0.1599 -0.5512 -0.1976
  868THF    H1014281   3.978   4.366   4.305  2.7672 -1.4018  0.2788
  868THF    H1114282   3.969   4.465   4.156 -0.0207 -0.3563 -1.1502
  868THF    H1214283   4.164   4.366   4.053  0.0829  0.9699  0.2288
  868THF    H1314284   4.215   4.368   4.227 -1.0502  0.7151  0.5127
  869THF     O114285   0.429   0.057   0.434  0.1764  0.6812 -0.0642
  869THF     C214286   0.401   0.154   0.540  0.0491  0.0600  0.4425
  869THF     C314287   0.550  -0.005   0.438 -0.0630  0.3900 -0.1736
  869THF     H414288   0.316   0.143   0.607 -2.7877  2.6533 -2.4054
  869THF     H514289   0.401   0.252   0.492  0.1922 -1.2274 -2.4058
  869THF     H614290   0.531  -0.098   0.491  2.5828  0.4294  1.0069
  869THF     H714291   0.570  -0.022   0.332  0.3349 -0.3465  0.0145
  869THF     C814292   0.630   0.098   0.518  0.2144  0.1940  0.0052
  869THF     C914293   0.532   0.151   0.619  0.2178  0.4465 -0.8591
  869THF    H1014294   0.673   0.165   0.443 -0.8462 -0.6000 -1.3662
  869THF    H1114295   0.706   0.046   0.575  0.3129  0.6397  0.2859
  869THF    H1214296   0.534   0.080   0.701 -2.4924 -0.0302 -1.1318
  869THF    H1314297   0.574   0.250   0.639  0.8565 -0.1853  1.1184
  870THF     O114298   4.501   4.901   0.937  0.8921 -0.0015 -0.3904
  870THF     C214299   4.384   4.915   1.013  0.2655  0.0767  0.2307
  870THF     C314300   4.609   4.964   1.006  0.1939 -0.2861  0.2502
  870THF     H414301   4.389   4.846   1.097  0.8294 -0.2096 -0.0339
  870THF     H514302   4.294   4.894   0.955  1.3698 -2.4504 -0.6747
  870THF     H614303   4.645   4.904   1.089  0.1803  0.6991  0.9872
  870THF     H714304   4.696   4.973   0.942  0.6655 -3.6389  0.2171
  870THF     C814305   4.542   5.100   1.051  0.0767  0.7767 -0.3382
  870THF     C914306   4.390   5.061   1.065  0.1116  0.1321 -0.0635
  870THF    H1014307   4.552   5.174   0.971 -0.0296  0.9692 -0.1741
  870THF    H1114308   4.598   5.141   1.135  0.6784 -0.1121 -0.2943
  870THF    H1214309   4.349   5.080   1.164  0.0169 -1.0515  0.1377
  870THF    H1314310   4.337   5.138   1.010 -0.7966 -0.1806  0.3488
  871THF     O114311   1.974   1.159   4.520  0.0853 -0.2636  0.4774
  871THF     C214312   1.977   1.228   4.392 -0.1076 -0.4287 -0.2230
  871THF     C314313   1.839   1.154   4.559  0.6666 -0.0975 -0.3846
  871THF     H414314   1.981   1.168   4.301 -2.0205 -2.9398  1.2102
  871THF     H514315   2.062   1.295   4.393 -0.5273  0.1318 -0.9742
  871THF     H614316   1.780   1.082   4.502  0.3463 -0.7563  0.7504
  871THF     H714317   1.827   1.120   4.662 -1.5647  0.1187 -0.5274
  871THF     C814318   1.796   1.300   4.530  0.2016  0.6127  0.1716
  871THF     C914319   1.851   1.316   4.386 -0.3623 -0.3606  0.2448
  871THF    H1014320   1.837   1.374   4.598  3.4112 -0.5190 -0.3373
  871THF    H1114321   1.687   1.294   4.530  0.0624 -1.7055 -5.0064
  871THF    H1214322   1.782   1.280   4.310 -0.8392  0.1072  0.4465
  871THF    H1314323   1.866   1.423   4.370  0.6763 -0.6676 -1.0522
  872THF     O114324   1.487   1.284   0.498  0.1553  0.0497  0.4689
  872THF     C214325   1.474   1.398   0.421 -0.2111 -0.5602  0.3641
  872THF     C314326   1.618   1.228   0.479 -0.4490 -0.7554 -0.3106
  872THF     H414327   1.486   1.477   0.495  1.0854  0.7324 -1.1566
  872THF     H514328   1.378   1.397   0.370 -0.9627 -0.4448  1.7394
  872THF     H614329   1.653   1.194   0.576  0.3150  3.6190  1.1851
  872THF     H714330   1.619   1.133   0.425  1.8766 -0.0434 -1.6148
  872THF     C814331   1.697   1.342   0.412  0.3592  0.8035 -0.9245
  872THF     C914332   1.590   1.400   0.325 -1.0000 -0.8891  0.7731
  872THF    H1014333   1.774   1.309   0.342  0.3506 -1.5175  0.0510
  872THF    H1114334   1.740   1.411   0.484 -1.2559  0.4233  0.4747
  872THF    H1214335   1.621   1.498   0.289  3.7449 -2.0024  1.1411
  872THF    H1314336   1.562   1.350   0.233  0.0679  0.7240 -0.4908
  873THF     O114337   1.716   0.316   4.385  0.1191  0.1314  0.1730
  873THF     C214338   1.625   0.310   4.496 -0.3461 -0.0938 -0.3000
  873THF     C314339   1.719   0.443   4.332  0.0013 -0.3226 -1.2654
  873THF     H414340   1.676   0.352   4.583  0.1439  0.3339 -0.7823
  873THF     H514341   1.588   0.211   4.523 -0.5008  0.2633  0.8663
  873THF     H614342   1.803   0.491   4.382  0.8606 -1.8220 -1.2340
  873THF     H714343   1.751   0.432   4.228 -0.1281 -0.6059 -1.2753
  873THF     C814344   1.579   0.509   4.366 -0.1459  0.3075  0.2299
  873THF     C914345   1.510   0.396   4.447 -0.8076 -0.0538 -0.6628
  873THF    H1014346   1.521   0.529   4.276 -0.4926  1.3276  0.6622
  873THF    H1114347   1.588   0.603   4.421  1.2731 -0.6892  1.7946
  873THF    H1214348   1.440   0.438   4.519 -0.7739  1.2649 -1.3760
  873THF    H1314349   1.456   0.326   4.384  1.3494 -3.0497  0.5979
  874THF     O114350   3.573   4.786   1.388 -0.1990  0.7332 -0.5252
  874THF     C214351   3.507   4.695   1.299  0.0263 -0.7119  0.3533
  874THF     C314352   3.652   4.869   1.301  0.4715  0.1089 -0.1544
  874THF     H414353   3.420   4.650   1.346  1.0170  0.2651  3.4276
  874THF     H514354   3.580   4.623   1.263  0.8332 -1.5153  3.3143
  874THF     H614355   3.696   4.959   1.343 -0.9897  0.5884  0.4004
  874THF     H714356   3.729   4.797   1.274  0.6382 -0.0384  0.6763
  874THF     C814357   3.553   4.894   1.187 -0.0624 -0.1394  0.0658
  874THF     C914358   3.452   4.789   1.199 -0.0373  0.0775  0.5383
  874THF    H1014359   3.592   4.889   1.085  2.7660 -0.3314  1.0482
  874THF    H1114360   3.502   4.989   1.197 -0.8217 -0.5527  0.1430
  874THF    H1214361   3.357   4.829   1.234  0.7642  3.1540 -0.5082
  874THF    H1314362   3.442   4.736   1.105 -1.1270  1.1208  0.0441
  875THF     O114363   5.309   4.798   0.205 -0.5073  0.3229  0.3948
  875THF     C214364   5.282   4.656   0.225  0.0689 -0.1233  0.6292
  875THF     C314365   5.199   4.877   0.227  0.3960  0.3423 -0.0912
  875THF     H414366   5.373   4.602   0.254  0.8845  0.7045 -0.3122
  875THF     H514367   5.230   4.611   0.141 -1.2257  0.2192  1.2198
  875THF     H614368   5.246   4.972   0.253 -1.6837  2.6817 -3.9370
  875THF     H714369   5.142   4.887   0.135 -1.5838 -0.9918  0.9154
  875THF     C814370   5.120   4.803   0.327 -0.1665  0.1162  0.1275
  875THF     C914371   5.182   4.664   0.342  0.1341 -0.8272  0.2748
  875THF    H1014372   5.013   4.804   0.307 -0.1665 -0.4310  0.0877
  875THF    H1114373   5.127   4.852   0.424 -0.5496  2.2691 -0.8695
  875THF    H1214374   5.230   4.650   0.439 -1.3000  3.2040  1.7894
  875THF    H1314375   5.103   4.589   0.337 -0.1530 -0.4366 -2.2040
  876THF     O114376   2.047   0.398   0.540 -0.2167  0.6921 -0.0403
  876THF     C214377   2.009   0.531   0.505  0.2985  0.3396  0.3703
  876THF     C314378   2.088   0.323   0.422 -0.5637 -0.5232 -0.7104
  876THF     H414379   2.095   0.598   0.493  0.3985  0.1094 -0.2448
  876THF     H514380   1.941   0.567   0.581 -1.2475 -1.4033 -0.1316
  876THF     H614381   2.189   0.353   0.395 -0.3468 -0.2881  0.3036
  876THF     H714382   2.085   0.214   0.432  0.8893 -0.5377 -0.1649
  876THF     C814383   1.987   0.377   0.320 -0.0397  0.0460  0.4640
  876THF     C914384   1.948   0.516   0.365 -1.0863  0.1553 -0.5729
  876THF    H1014385   1.895   0.320   0.307  0.5603 -1.1041  1.0819
  876THF    H1114386   2.038   0.380   0.224  1.1938 -0.7786  1.0672
  876THF    H1214387   1.969   0.605   0.305 -4.0077  1.4514  0.1235
  876THF    H1314388   1.840   0.518   0.377 -1.1946  1.1083 -1.5493
  877THF     O114389   2.028   0.689   2.588  0.6700  0.5212 -0.1604
  877THF     C214390   1.923   0.705   2.685 -0.2183  0.3372  0.8084
  877THF     C314391   2.087   0.812   2.567  0.0973  0.2805 -0.7280
  877THF     H414392   1.881   0.614   2.727  1.5562 -0.6929  0.4621
  877THF     H514393   1.842   0.736   2.620 -0.2382 -1.3603 -0.0313
  877THF     H614394   2.190   0.807   2.533  1.1925 -1.4290  2.4163
  877THF     H714395   2.018   0.861   2.498 -0.7936 -0.1489 -0.1537
  877THF     C814396   2.075   0.887   2.707  0.2736 -0.0338  0.4801
  877THF     C914397   1.960   0.819   2.779  0.1111  0.2034  0.2260
  877THF    H1014398   2.067   0.995   2.695  3.3405  0.4734  1.9750
  877THF    H1114399   2.169   0.879   2.762  1.9924 -0.2967 -2.2949
  877THF    H1214400   1.982   0.781   2.879 -1.6665 -2.5330 -0.2963
  877THF    H1314401   1.878   0.887   2.803  0.9012  0.4366  2.5869
  878THF     O114402   4.813   4.795   4.703 -0.2227 -0.8920  0.3331
  878THF     C214403   4.951   4.772   4.727 -0.3187  0.0377 -0.1526
  878THF     C314404   4.779   4.730   4.581 -0.1774  0.0954  0.2855
  878THF     H414405   4.967   4.793   4.833 -0.7769  0.5375 -0.1753
  878THF     H514406   5.010   4.830   4.656  0.0867 -0.6468 -0.3792
  878THF     H614407   4.670   4.737   4.577 -0.0495  2.4132 -0.2555
  878THF     H714408   4.803   4.789   4.493 -0.9101 -0.5607 -0.3678
  878THF     C814409   4.852   4.597   4.593  0.3106  0.2382 -0.0396
  878THF     C914410   4.959   4.623   4.700 -0.4670 -0.4727  0.2165
  878THF    H1014411   4.890   4.559   4.499 -0.4423 -2.3233  0.6015
  878THF    H1114412   4.781   4.532   4.646 -0.2960  2.2453  1.7806
  878THF    H1214413   4.941   4.560   4.788  0.9638 -1.4067 -0.1356
  878THF    H1314414   5.056   4.604   4.656 -0.4987  1.1722 -0.6189
  879THF     O114415   4.449   4.056   1.533  0.4460 -0.1688  0.3633
  879THF     C214416   4.436   4.121   1.408  0.3637  0.3137 -0.1895
  879THF     C314417   4.585   4.015   1.554  0.1881  0.2479 -0.4881
  879THF     H414418   4.345   4.181   1.400  0.0665  0.0140  0.8204
  879THF     H514419   4.438   4.058   1.319  0.1858 -0.4052  0.3025
  879THF     H614420   4.605   4.006   1.661  0.9998 -2.1552 -0.7766
  879THF     H714421   4.585   3.918   1.504 -1.9783  0.6593 -1.3907
  879THF     C814422   4.668   4.118   1.466  0.1685  0.0748 -0.8668
  879THF     C914423   4.565   4.206   1.396 -0.5698  0.1358  0.2241
  879THF    H1014424   4.731   4.070   1.391  2.6502  1.7339  0.0119
  879THF    H1114425   4.727   4.176   1.537  0.1414  1.6480 -2.0905
  879THF    H1214426   4.562   4.298   1.455  2.8533  2.9007 -3.3252
  879THF    H1314427   4.592   4.240   1.296  1.1407 -0.1940  0.5530
  880THF     O114428   0.128   4.627   3.861  0.2650  0.1255  0.0695
  880THF     C214429   0.126   4.602   3.995  0.7379  0.2277 -0.2856
  880THF     C314430   0.239   4.705   3.821 -0.0677 -0.5647 -0.7220
  880THF     H414431   0.111   4.495   4.011 -1.7241  0.4962 -0.3177
  880THF     H514432   0.041   4.654   4.039 -0.5938 -1.2982 -0.9199
  880THF     H614433   0.316   4.640   3.779  1.9748  0.8877  0.6001
  880THF     H714434   0.219   4.792   3.759 -0.9231 -1.4564 -1.7443
  880THF     C814435   0.296   4.761   3.948 -0.1277  0.8880  0.0163
  880THF     C914436   0.264   4.641   4.036  0.6928 -0.1018 -0.0700
  880THF    H1014437   0.244   4.853   3.973 -0.2615  0.9416 -0.4460
  880THF    H1114438   0.404   4.775   3.950  0.3853 -2.2453 -0.8403
  880THF    H1214439   0.326   4.552   4.027  0.4626 -0.4700  1.6324
  880THF    H1314440   0.275   4.670   4.141  0.1113  0.8178 -0.2450
  881THF     O114441   3.838   1.460   3.560 -0.5947  0.2154  0.0493
  881THF     C214442   3.753   1.421   3.664  0.2989 -0.3259 -0.3637
  881THF     C314443   3.760   1.535   3.466 -0.5180  0.5772  0.0076
  881THF     H414444   3.772   1.495   3.743 -0.2067 -0.5064 -0.0708
  881THF     H514445   3.788   1.326   3.705  0.3506  0.0856  0.5767
  881THF     H614446   3.735   1.633   3.507  0.1511  0.9137 -0.3534
  881THF     H714447   3.806   1.537   3.367  0.4642  1.5048  0.4575
  881THF     C814448   3.638   1.443   3.460  0.8356 -0.1911  0.3119
  881THF     C914449   3.613   1.431   3.611 -0.1040  0.2167  0.0058
  881THF    H1014450   3.667   1.352   3.408  1.7646 -0.9490  2.0586
  881THF    H1114451   3.552   1.495   3.418  2.3153  3.7068  1.6816
  881THF    H1214452   3.561   1.518   3.650  0.0707 -0.3693  1.5952
  881THF    H1314453   3.553   1.342   3.631 -2.5391  2.0316  1.1852
  882THF     O114454   1.865   2.794   1.855 -0.4529 -0.4943  0.2411
  882THF     C214455   1.835   2.853   1.981  0.1877  1.2728 -0.2369
  882THF     C314456   1.741   2.788   1.784  0.3084  0.6545  0.7049
  882THF     H414457   1.822   2.957   1.953 -0.7213  1.1086 -0.4753
  882THF     H514458   1.903   2.848   2.065  0.3581  0.4979 -0.4124
  882THF     H614459   1.726   2.884   1.735 -2.7404 -0.3924 -0.6822
  882THF     H714460   1.729   2.709   1.710  0.2915  1.5481 -0.2678
  882THF     C814461   1.636   2.759   1.888  0.5233 -0.6661  0.0492
  882THF     C914462   1.703   2.783   2.023 -0.2708 -0.1599  0.1848
  882THF    H1014463   1.599   2.656   1.886 -0.1087 -0.4398 -1.8158
  882THF    H1114464   1.551   2.826   1.877  1.1734  0.9626  3.5008
  882THF    H1214465   1.647   2.846   2.093  0.2683 -0.3124  0.7555
  882THF    H1314466   1.717   2.686   2.070 -0.7471 -0.2879  0.0721
  883THF     O114467   4.629   0.384   3.869 -0.2851 -0.5368 -0.5279
  883THF     C214468   4.655   0.297   3.980 -0.0581  0.1966 -0.7052
  883THF     C314469   4.751   0.463   3.865  0.3461  0.5742 -0.1882
  883THF     H414470   4.714   0.220   3.931  1.4311  0.1436  1.0689
  883THF     H514471   4.559   0.266   4.021 -0.6107  0.0308 -2.0440
  883THF     H614472   4.832   0.418   3.808 -1.7417  0.8727 -3.6813
  883THF     H714473   4.723   0.561   3.824 -1.0788  0.8749  1.3825
  883THF     C814474   4.781   0.487   4.014  0.7039  0.3608 -0.0515
  883THF     C914475   4.745   0.357   4.080  0.3820  1.0364  0.6915
  883THF    H1014476   4.727   0.575   4.050  3.4725  1.6376  1.3187
  883THF    H1114477   4.888   0.502   4.032  0.4439  1.1588  0.9560
  883THF    H1214478   4.824   0.283   4.092 -0.4838 -0.6711 -2.6351
  883THF    H1314479   4.692   0.365   4.175  0.0213 -2.6276  0.9568
  884THF     O114480   3.187   3.574   3.050 -0.2114  0.2069 -0.8085
  884THF     C214481   3.254   3.692   3.095  0.1406 -0.7723  0.1550
  884THF     C314482   3.181   3.585   2.905  0.2346 -0.6547 -0.1705
  884THF     H414483   3.309   3.683   3.189  2.9278  0.3914 -1.2219
  884THF     H514484   3.180   3.772   3.095  0.0758 -0.8061  2.0836
  884THF     H614485   3.162   3.485   2.864  1.3758 -0.1390 -2.0905
  884THF     H714486   3.105   3.659   2.882 -0.7545 -1.0423  1.6918
  884THF     C814487   3.325   3.635   2.874  0.5487 -0.2379  0.4113
  884THF     C914488   3.361   3.722   2.993 -0.3044 -0.4495 -0.2843
  884THF    H1014489   3.340   3.679   2.775 -0.3445 -2.0485 -0.5742
  884THF    H1114490   3.382   3.542   2.878 -0.7540 -1.0561  0.5746
  884THF    H1214491   3.463   3.697   3.023 -0.3476  1.0357  1.2954
  884THF    H1314492   3.365   3.831   2.985 -0.3291 -0.4363 -0.1268
  885THF     O114493   4.052   0.154   0.252 -0.6576 -0.2446  0.2597
  885THF     C214494   4.115   0.087   0.366 -0.0710  0.3920  0.7561
  885THF     C314495   4.154   0.237   0.187  0.9704  0.7108  0.0789
  885THF     H414496   4.177   0.001   0.341  1.0947  1.5952 -0.6638
  885THF     H514497   4.045   0.057   0.443 -0.9954  0.3034 -0.1021
  885THF     H614498   4.170   0.189   0.091 -2.5077  1.7770 -1.1883
  885THF     H714499   4.100   0.329   0.165  0.6510  0.6687  0.6505
  885THF     C814500   4.259   0.250   0.291 -1.3085  0.4168 -0.2579
  885THF     C914501   4.202   0.195   0.417  0.5091 -0.6003  0.0757
  885THF    H1014502   4.294   0.353   0.303  1.3574 -0.6406  2.0610
  885THF    H1114503   4.352   0.201   0.262  0.5750  2.5772  1.7178
  885THF    H1214504   4.278   0.153   0.483 -0.6694 -0.6378  1.4552
  885THF    H1314505   4.136   0.261   0.474  0.3844 -1.6469  1.2042
  886THF     O114506   0.076   2.105   2.011 -0.0956 -0.3917  0.1276
  886THF     C214507   0.209   2.109   2.056  0.2813  0.1487  0.3305
  886THF     C314508   0.080   2.189   1.893  0.1138  0.1019 -0.4089
  886THF     H414509   0.280   2.061   1.989 -0.5850  0.0077 -0.5121
  886THF     H514510   0.219   2.061   2.153  2.1476  0.8215  0.5071
  886THF     H614511   0.122   2.127   1.814 -0.4788 -0.4211 -0.3282
  886THF     H714512  -0.020   2.222   1.864  0.2147  1.0964  0.3361
  886THF     C814513   0.153   2.307   1.947 -0.5386  0.3080  0.0345
  886THF     C914514   0.234   2.253   2.067 -0.6600 -0.4424  0.1676
  886THF    H1014515   0.075   2.372   1.986  0.4331  0.1904  2.3220
  886THF    H1114516   0.218   2.359   1.877 -0.2408  0.6551  0.5575
  886THF    H1214517   0.342   2.264   2.060 -0.8144  0.3260 -1.2641
  886THF    H1314518   0.200   2.294   2.162  1.3192  0.2312  0.6268
  887THF     O114519   3.288   5.085   2.297  0.6780 -0.4402 -0.2378
  887THF     C214520   3.394   5.168   2.315 -0.2601 -0.6462  0.1158
  887THF     C314521   3.165   5.161   2.296  0.2631  0.7013 -0.5286
  887THF     H414522   3.442   5.170   2.217 -0.7566  1.9643 -0.1344
  887THF     H514523   3.470   5.128   2.383  1.2676  2.0822  0.1550
  887THF     H614524   3.120   5.167   2.196  2.5877  2.1275 -1.5554
  887THF     H714525   3.085   5.116   2.354 -0.3734 -1.5763 -2.9801
  887THF     C814526   3.195   5.299   2.355  0.0649  0.0214  0.9062
  887THF     C914527   3.347   5.297   2.380 -0.5716  0.0415 -0.5286
  887THF    H1014528   3.144   5.312   2.450 -0.5156  0.8444  0.5021
  887THF    H1114529   3.166   5.386   2.295  0.7692  0.0610  0.6166
  887THF    H1214530   3.395   5.371   2.317 -1.4153  1.1173  0.0700
  887THF    H1314531   3.363   5.325   2.484 -1.0213  1.2696 -0.7717
  888THF     O114532   0.671   5.386   2.398 -0.2001  0.3377 -0.3720
  888THF     C214533   0.619   5.376   2.271 -0.3930  0.3604 -0.0552
  888THF     C314534   0.810   5.409   2.391 -0.2612 -0.0076 -0.8853
  888THF     H414535   0.511   5.394   2.267 -0.0110  3.4490  0.7729
  888THF     H514536   0.636   5.270   2.250  0.1037  0.4812 -0.2785
  888THF     H614537   0.844   5.457   2.483 -1.9996 -0.4527  0.0283
  888THF     H714538   0.870   5.319   2.378 -1.3712 -1.0422  0.7284
  888THF     C814539   0.822   5.505   2.274  0.7593  0.6997 -0.4854
  888THF     C914540   0.690   5.487   2.197  0.3729  0.2691 -0.1617
  888THF    H1014541   0.910   5.503   2.210  0.3494  0.1503 -1.0539
  888THF    H1114542   0.824   5.608   2.309  0.4436  0.5628 -0.0452
  888THF    H1214543   0.641   5.585   2.199 -1.7422 -0.7161 -0.7308
  888THF    H1314544   0.692   5.457   2.092 -2.0877 -0.5658 -0.0381
  889THF     O114545   3.829   3.605   1.619 -0.3445 -0.1751 -0.0618
  889THF     C214546   3.865   3.736   1.573  0.2669  0.4370 -0.0703
  889THF     C314547   3.896   3.578   1.739  0.6575  0.4721  0.7159
  889THF     H414548   3.775   3.796   1.568  0.9655  1.4314 -1.4226
  889THF     H514549   3.906   3.725   1.472  0.1322  0.0349 -0.0840
  889THF     H614550   3.837   3.526   1.815  0.7161  0.2553  0.6133
  889THF     H714551   3.980   3.511   1.718 -0.3168 -1.1324  1.6657
  889THF     C814552   3.931   3.718   1.796  0.1336  0.5099 -0.3619
  889THF     C914553   3.965   3.788   1.669  0.2091  0.3178 -0.9066
  889THF    H1014554   4.014   3.717   1.867 -0.1030 -1.7941 -0.0270
  889THF    H1114555   3.843   3.761   1.843  0.1634 -1.4267  1.6440
  889THF    H1214556   3.959   3.896   1.682 -3.7482  0.4990 -2.6867
  889THF    H1314557   4.069   3.765   1.649  0.1447 -1.8725  0.9252
  890THF     O114558   1.228   4.618   0.078  0.6626 -0.2231  0.5663
  890THF     C214559   1.221   4.474   0.060 -0.1136 -0.8991 -0.7562
  890THF     C314560   1.090   4.671   0.070  0.5884  0.5425 -0.2518
  890THF     H414561   1.262   4.421   0.146 -1.8287 -1.0695 -0.0043
  890THF     H514562   1.269   4.438  -0.032 -0.8235 -0.1258 -1.4483
  890THF     H614563   1.072   4.762   0.128 -0.2963 -0.4267  1.0426
  890THF     H714564   1.058   4.685  -0.034 -0.4988 -0.6179 -0.1030
  890THF     C814565   1.021   4.543   0.118  0.5634 -0.4709 -0.1510
  890THF     C914566   1.078   4.428   0.047 -0.6063  0.2782 -0.1261
  890THF    H1014567   0.915   4.545   0.092  0.8522 -0.2192 -1.3475
  890THF    H1114568   1.032   4.534   0.226 -0.0746  2.3837  0.2202
  890THF    H1214569   1.066   4.325   0.081  0.7710 -0.9748 -3.0574
  890THF    H1314570   1.047   4.421  -0.057  0.1858  0.7718 -0.3985
  891THF     O114571   3.825   3.097   0.641 -0.2042  0.0925 -0.2222
  891THF     C214572   3.871   3.228   0.619 -0.5721  0.2086 -0.4311
  891THF     C314573   3.892   3.041   0.750 -0.2267 -0.5162 -0.7146
  891THF     H414574   3.803   3.287   0.556  1.1802  0.1771 -2.4713
  891THF     H514575   3.962   3.235   0.560 -0.1007  1.2153  0.4010
  891THF     H614576   3.846   2.952   0.792  2.5671 -2.1655 -0.8575
  891THF     H714577   3.993   3.015   0.716  0.3641 -1.0338  1.3167
  891THF     C814578   3.883   3.159   0.848 -0.6644 -0.5493  0.2022
  891THF     C914579   3.875   3.281   0.759 -0.4815 -0.1286 -0.3033
  891THF    H1014580   3.977   3.186   0.895 -0.4390 -2.0281  0.6581
  891THF    H1114581   3.803   3.163   0.922 -0.3547  0.0582  0.5143
  891THF    H1214582   3.785   3.333   0.793  0.2541  0.7495  0.3475
  891THF    H1314583   3.955   3.353   0.776 -0.8439  0.6417 -1.6994
  892THF     O114584   0.498   1.613   0.573  0.1177 -0.2019 -0.3023
  892THF     C214585   0.594   1.675   0.651  0.7395  0.0571  0.0039
  892THF     C314586   0.436   1.708   0.489 -0.0912 -0.0431  0.3534
  892THF     H414587   0.695   1.681   0.610  1.2303 -0.5527  1.0695
  892THF     H514588   0.612   1.615   0.740 -1.0267 -0.4663  0.0455
  892THF     H614589   0.491   1.709   0.395  0.0079  1.4799  0.4093
  892THF     H714590   0.332   1.681   0.475 -0.1128 -0.6810  1.5703
  892THF     C814591   0.440   1.840   0.560  0.0101  0.7678  0.2376
  892THF     C914592   0.539   1.815   0.678  0.0383  0.2309 -0.0851
  892THF    H1014593   0.342   1.866   0.602 -0.4874 -1.5779  0.6415
  892THF    H1114594   0.470   1.920   0.491 -0.9545  0.1429 -0.9580
  892THF    H1214595   0.616   1.892   0.666  0.3335 -0.1613 -0.7299
  892THF    H1314596   0.489   1.823   0.774 -3.3841 -0.9041 -1.6312
  893THF     O114597   1.285   4.964   1.073  0.5537 -0.6091  0.2708
  893THF     C214598   1.308   4.871   1.171 -0.1985  0.8823 -0.6582
  893THF     C314599   1.409   4.997   1.011  0.2957 -0.0283 -0.2232
  893THF     H414600   1.228   4.797   1.164 -0.0972  0.8482 -1.5136
  893THF     H514601   1.298   4.917   1.269 -0.0311 -0.9142  0.2529
  893THF     H614602   1.389   5.036   0.911 -0.6883 -0.4476 -0.2087
  893THF     H714603   1.461   5.061   1.082 -0.8519 -2.1409  2.7420
  893THF     C814604   1.481   4.860   1.013 -0.4541 -0.2530  0.1101
  893THF     C914605   1.442   4.804   1.151  0.8519  0.1057  0.0832
  893THF    H1014606   1.585   4.887   0.996 -0.5951 -0.7937 -1.8386
  893THF    H1114607   1.444   4.800   0.929  2.3293 -0.0267 -1.3943
  893THF    H1214608   1.429   4.697   1.163 -0.9984  0.4221  1.1749
  893THF    H1314609   1.493   4.842   1.239 -0.4946  0.3376  0.7898
  894THF     O114610   3.894   0.944   1.777  0.3812 -0.4290  0.6108
  894THF     C214611   4.006   1.030   1.769 -0.4881  0.6775  0.1774
  894THF     C314612   3.864   0.885   1.656 -0.3656 -1.3197  0.3112
  894THF     H414613   4.049   1.041   1.868 -0.5290  0.3971  0.2272
  894THF     H514614   3.993   1.122   1.712 -1.3332 -0.3006 -1.2834
  894THF     H614615   3.796   0.801   1.671  1.2595 -2.3861  2.1774
  894THF     H714616   3.807   0.956   1.597  0.2823 -0.5822  0.5653
  894THF     C814617   4.010   0.866   1.597  0.1754  0.1078  0.1763
  894THF     C914618   4.106   0.939   1.700 -0.3913  0.9683 -0.2154
  894THF    H1014619   4.013   0.904   1.496 -2.8038  1.9087  0.6470
  894THF    H1114620   4.033   0.760   1.586 -0.8585 -0.2243  1.0398
  894THF    H1214621   4.152   0.869   1.770  1.5303 -0.2832 -2.5846
  894THF    H1314622   4.191   0.991   1.656 -1.7833  1.0785 -2.9993
  895THF     O114623   4.231   1.272   3.470  0.0931  0.5907  0.7795
  895THF     C214624   4.107   1.319   3.506 -0.4456  0.1002  0.1981
  895THF     C314625   4.226   1.128   3.461  0.1468  0.2635  0.3405
  895THF     H414626   4.091   1.419   3.467  2.8455  1.0561  0.9995
  895THF     H514627   4.099   1.324   3.615 -1.2725  2.9596  0.0709
  895THF     H614628   4.305   1.087   3.397 -0.7986 -0.5917 -0.2960
  895THF     H714629   4.222   1.076   3.556 -1.2659 -0.5290 -0.1310
  895THF     C814630   4.093   1.101   3.386  0.2345 -0.3360  0.5185
  895THF     C914631   4.010   1.213   3.446  0.1039  0.1888  0.5589
  895THF    H1014632   4.061   0.998   3.403 -0.0279 -0.1257  1.3573
  895THF    H1114633   4.110   1.113   3.279  0.2963 -2.1385  0.3020
  895THF    H1214634   3.937   1.255   3.378  1.9168 -0.1019 -1.7186
  895THF    H1314635   3.955   1.171   3.530 -0.2312  2.2165  1.4086
  896THF     O114636   1.010   3.699   4.491  0.3600  0.1143  0.0269
  896THF     C214637   1.097   3.632   4.582  0.0240  0.3961  0.3969
  896THF     C314638   0.983   3.613   4.378 -0.0853 -0.3131 -1.1341
  896THF     H414639   1.093   3.672   4.683 -0.0185  0.7909  0.2418
  896THF     H514640   1.200   3.630   4.548  0.2372 -0.1526  1.0535
  896THF     H614641   0.895   3.653   4.327 -1.3955 -2.9236 -1.0860
  896THF     H714642   1.070   3.605   4.313  2.3389  1.2765  1.7059
  896THF     C814643   0.950   3.486   4.449  0.5647 -0.0096  0.0657
  896THF     C914644   1.052   3.485   4.565  0.7136  0.8968 -0.1036
  896THF    H1014645   0.946   3.393   4.392  2.1426 -0.9543  1.3725
  896THF    H1114646   0.855   3.502   4.500  1.1170  1.2159  0.7562
  896THF    H1214647   1.009   3.438   4.653 -2.2708  2.2684 -0.6876
  896THF    H1314648   1.137   3.429   4.527  0.7382 -0.3373  1.6677
  897THF     O114649   4.238   3.261   4.099 -0.5904 -0.0219  0.0302
  897THF     C214650   4.205   3.379   4.023  0.4133  0.2645 -0.4732
  897THF     C314651   4.367   3.286   4.166 -0.0619 -0.2901  0.3334
  897THF     H414652   4.141   3.442   4.084  0.3517 -1.2096  1.0389
  897THF     H514653   4.158   3.346   3.931 -0.4147  1.7267 -0.6112
  897THF     H614654   4.349   3.334   4.262  0.8808  3.0014 -0.9673
  897THF     H714655   4.404   3.185   4.184  0.6424 -0.3526 -1.2513
  897THF     C814656   4.441   3.355   4.063  0.4352  0.4179  0.2717
  897THF     C914657   4.342   3.445   3.996  0.3700 -0.2581  0.7663
  897THF    H1014658   4.476   3.271   4.004 -0.8651 -1.0755  1.5590
  897THF    H1114659   4.525   3.409   4.106  0.9057 -0.5122  0.5335
  897THF    H1214660   4.344   3.547   4.034  2.5069 -0.1738  0.5089
  897THF    H1314661   4.361   3.451   3.889 -0.1232  1.5307  0.7499
  898THF     O114662   5.478   5.169   1.469 -0.2701 -0.2097 -0.2061
  898THF     C214663   5.435   5.048   1.409 -0.0293 -0.5655  0.2871
  898THF     C314664   5.619   5.185   1.443 -0.0845 -0.0276 -0.7815
  898THF     H414665   5.436   5.060   1.301 -1.4699  2.5697  0.5047
  898THF     H514666   5.345   5.008   1.455 -1.4522  0.6379 -1.3684
  898THF     H614667   5.627   5.242   1.351 -1.2181  1.6321  0.0885
  898THF     H714668   5.668   5.248   1.517 -0.6831 -1.9425  1.3875
  898THF     C814669   5.669   5.044   1.429  0.1427  0.6952 -0.2846
  898THF     C914670   5.546   4.955   1.442  0.2065 -0.4874  0.6089
  898THF    H1014671   5.736   5.012   1.509 -0.7385 -0.4918  0.0086
  898THF    H1114672   5.723   5.043   1.334 -1.2683  1.3525 -1.1237
  898THF    H1214673   5.553   4.870   1.375 -0.6869 -1.3945  1.6441
  898THF    H1314674   5.527   4.909   1.538 -0.5203 -1.6237 -0.0646
  899THF     O114675   4.395   3.209   3.727 -0.7234 -0.3007 -0.0194
  899THF     C214676   4.409   3.295   3.614 -0.0353  0.3497 -0.5743
  899THF     C314677   4.307   3.105   3.674 -0.4243 -0.8130  0.7394
  899THF     H414678   4.485   3.372   3.627  0.0344  0.2859 -0.6031
  899THF     H514679   4.313   3.345   3.604 -0.1576  0.1779 -0.2646
  899THF     H614680   4.317   3.008   3.722 -0.2533 -1.3332 -0.3103
  899THF     H714681   4.203   3.135   3.661 -0.6963 -1.8495  0.4047
  899THF     C814682   4.357   3.077   3.534 -0.6990  0.1376  0.6331
  899THF     C914683   4.407   3.209   3.485  0.1643 -0.8575  0.4583
  899THF    H1014684   4.291   3.039   3.457  0.9658  0.1840 -0.8955
  899THF    H1114685   4.446   3.015   3.547 -1.6333 -0.8498  2.7537
  899THF    H1214686   4.508   3.197   3.445 -0.3873 -1.5627 -0.7967
  899THF    H1314687   4.341   3.244   3.405 -0.0006 -0.6918  0.6673
  900THF     O114688   4.702   5.005   2.675 -0.4144  0.0375 -0.3880
  900THF     C214689   4.603   5.077   2.602  0.5121  0.7515  0.3153
  900THF     C314690   4.688   4.865   2.657  0.0890  1.3577 -0.1758
  900THF     H414691   4.621   5.086   2.494 -0.9243 -2.0264 -0.2415
  900THF     H514692   4.586   5.179   2.636 -2.1447  0.3773  0.2703
  900THF     H614693   4.733   4.843   2.560 -0.5665 -1.8055  0.1381
  900THF     H714694   4.734   4.813   2.741 -3.5804  1.5467  2.2059
  900THF     C814695   4.536   4.843   2.649 -0.3482 -0.2582 -0.7686
  900THF     C914696   4.483   4.987   2.639  0.3955  0.1905  0.5273
  900THF    H1014697   4.497   4.801   2.741 -1.1702 -1.0962 -1.4799
  900THF    H1114698   4.515   4.791   2.555  1.5818 -1.6019 -0.5362
  900THF    H1214699   4.413   4.996   2.556 -0.6260 -2.2030  1.0815
  900THF    H1314700   4.422   5.017   2.724 -0.1904  0.3106  0.0737
  901PF6-    P114701   2.752   0.253   3.483  0.3316  0.1475  0.3401
  901PF6-    F214702   2.652   0.377   3.446 -0.3239  0.3248  0.1100
  901PF6-    F314703   2.853   0.133   3.520  0.2340  0.1019 -0.1198
  901PF6-    F414704   2.819   0.335   3.601  0.3824  0.0795 -0.0970
  901PF6-    F514705   2.683   0.158   3.371  0.1930 -0.4331  0.3528
  901PF6-    F614706   2.857   0.316   3.378 -0.1415 -0.3751 -0.0228
  901PF6-    F714707   2.645   0.196   3.591  0.2463  0.1651 -0.7862
  902PF6-    P114708   1.472   0.812   3.633  0.3094  0.1862 -0.1256
  902PF6-    F214709   1.323   0.756   3.663  0.5570  0.0138 -0.4637
  902PF6-    F314710   1.621   0.862   3.609  0.0753 -0.5561  0.6977
  902PF6-    F414711   1.522   0.656   3.638  0.2106  0.5527  0.1975
  902PF6-    F514712   1.421   0.963   3.633  0.3578 -0.7639  0.0483
  902PF6-    F614713   1.501   0.828   3.788 -0.0437 -0.2971 -0.2437
  902PF6-    F714714   1.450   0.810   3.473 -0.3594  0.3364 -0.1539
  903PF6-    P114715   1.353   2.377   2.045 -0.2986  0.3456  0.1880
  903PF6-    F214716   1.454   2.257   1.995  0.2431  0.1213  0.3891
  903PF6-    F314717   1.253   2.495   2.091  0.0568 -0.1985  0.3419
  903PF6-    F414718   1.458   2.432   2.148  0.3427 -0.1673  0.0785
  903PF6-    F514719   1.246   2.321   1.932  0.3403  0.4472 -0.4664
  903PF6-    F614720   1.292   2.277   2.154 -0.5125 -0.1335  0.1165
  903PF6-    F714721   1.423   2.475   1.935 -0.8879 -0.0871 -0.1366
  904PF6-    P114722   5.200   4.631   3.037 -0.0740  0.3895  0.2600
  904PF6-    F214723   5.280   4.581   3.165 -0.1862  0.1938 -0.2361
  904PF6-    F314724   5.120   4.678   2.898  0.4444  0.3315 -0.2532
  904PF6-    F414725   5.324   4.721   2.991 -0.3621  0.2336 -0.1840
  904PF6-    F514726   5.073   4.549   3.088  0.6321 -0.2334  0.0141
  904PF6-    F614727   5.139   4.762   3.116 -0.3162  0.2114  0.1042
  904PF6-    F714728   5.254   4.508   2.953 -0.0365  0.0988 -0.2760
  905PF6-    P114729   3.600   2.265   0.059  0.2070  0.2667  0.0379
  905PF6-    F214730   3.679   2.377   0.140  0.2622  0.0384  0.4654
  905PF6-    F314731   3.525   2.149  -0.012  0.8590 -0.3644  0.2006
  905PF6-    F414732   3.542   2.363  -0.051 -0.2963  0.1863  0.1466
  905PF6-    F514733   3.656   2.162   0.168 -0.2685 -0.2247  0.1471
  905PF6-    F614734   3.469   2.300   0.156 -0.0253 -0.0156  0.0805
  905PF6-    F714735   3.732   2.235  -0.027  0.4639 -0.3493  0.1520
  906PF6-    P114736   0.259   5.307   2.526  0.0025 -0.2380  0.3855
  906PF6-    F214737   0.406   5.339   2.576 -0.2047  0.1981  0.7679
  906PF6-    F314738   0.116   5.273   2.470  0.0859 -0.0854 -0.4988
  906PF6-    F414739   0.228   5.467   2.506 -0.5230 -0.1642 -0.2187
  906PF6-    F514740   0.292   5.150   2.545  0.0493 -0.2537  0.5117
  906PF6-    F614741   0.207   5.305   2.676  0.0655  0.4161 -0.2302
  906PF6-    F714742   0.309   5.305   2.375  0.3249  0.0103  0.5041
  907PF6-    P114743   4.088   3.926   3.088  0.1058  0.0693 -0.0542
  907PF6-    F214744   4.243   3.939   3.067  0.3438  0.3456 -0.3550
  907PF6-    F314745   3.926   3.919   3.102 -0.5206  0.5864  0.1775
  907PF6-    F414746   4.102   3.770   3.118 -0.1015 -0.0042  0.3745
  907PF6-    F514747   4.070   4.085   3.065 -0.3283  0.2692  0.1270
  907PF6-    F614748   4.072   3.886   2.934  0.0763 -0.0564 -0.1566
  907PF6-    F714749   4.099   3.959   3.246 -0.4185  0.4142  0.3071
  908PF6-    P114750   0.542   1.954   3.364  0.5936 -0.2168 -0.2890
  908PF6-    F214751   0.664   2.037   3.303 -0.2550  0.1724  0.0546
  908PF6-    F314752   0.420   1.872   3.430 -0.0044  0.2048 -0.2828
  908PF6-    F414753   0.436   2.070   3.325 -0.1633  0.1220 -0.4567
  908PF6-    F514754   0.647   1.838   3.407 -0.1817 -0.6861  0.4146
  908PF6-    F614755   0.563   2.021   3.506  0.0103 -0.7040  0.4721
  908PF6-    F714756   0.518   1.883   3.220  0.0860  0.1926 -0.0079
  909PF6-    P114757   4.403   5.343   3.063  0.0586 -0.4445  0.0444
  909PF6-    F214758   4.280   5.382   2.967  0.2543 -0.2247  0.4663
  909PF6-    F314759   4.531   5.302   3.154  0.7674 -0.1087  0.2032
  909PF6-    F414760   4.306   5.242   3.142 -0.0131  0.1380  0.0900
  909PF6-    F514761   4.490   5.449   2.980 -0.1327 -0.4684 -0.1307
  909PF6-    F614762   4.363   5.460   3.168  0.3556 -0.1367 -0.1911
  909PF6-    F714763   4.451   5.231   2.951  0.0157  0.4735 -0.0526
  910PF6-    P114764   0.691   1.869   4.552  0.0416 -0.1241 -0.0815
  910PF6-    F214765   0.831   1.786   4.548  0.4992  0.4168 -0.0793
  910PF6-    F314766   0.552   1.948   4.555  0.4584  0.5587  0.0003
  910PF6-    F414767   0.761   2.001   4.498 -0.5540 -0.2463  0.0766
  910PF6-    F514768   0.613   1.740   4.615  0.0232 -0.6169 -0.0484
  910PF6-    F614769   0.726   1.920   4.700 -0.0849 -0.0552 -0.2216
  910PF6-    F714770   0.664   1.812   4.399 -0.0126 -0.3622  0.5846
  911PF6-    P114771   3.026   4.646   1.039 -0.1713 -0.2384 -0.1328
  911PF6-    F214772   3.097   4.576   0.912  0.2217  0.3004 -0.1509
  911PF6-    F314773   2.956   4.727   1.167 -0.0124 -0.2489  0.2132
  911PF6-    F414774   2.971   4.766   0.948 -0.1416  0.0837 -0.3703
  911PF6-    F514775   3.061   4.520   1.131 -0.0315 -0.0341  0.1539
  911PF6-    F614776   3.165   4.726   1.073  0.3614  0.5143 -0.0632
  911PF6-    F714777   2.885   4.571   1.016 -0.2681 -0.1014  0.1181
  912PF6-    P114778   1.818   2.024   5.022  0.1001  0.1352  0.2567
  912PF6-    F214779   1.872   2.171   4.993 -0.4558 -0.6323 -0.4372
  912PF6-    F314780   1.762   1.877   5.044 -0.3512  0.2982 -0.7826
  912PF6-    F414781   1.677   2.069   4.958 -0.1955  0.3570 -0.4631
  912PF6-    F514782   1.962   1.980   5.078  0.5965  0.1202 -0.3275
  912PF6-    F614783   1.771   2.070   5.174 -0.5254  0.7234 -0.2981
  912PF6-    F714784   1.866   1.979   4.874  0.6777  0.0189 -0.5322
  913PF6-    P114785   4.201   2.672   0.690  0.0536  0.1631 -0.3616
  913PF6-    F214786   4.072   2.643   0.776  0.1617 -0.4332  0.2176
  913PF6-    F314787   4.331   2.712   0.601 -0.3912  0.0046  0.3360
  913PF6-    F414788   4.258   2.521   0.726  0.7840  0.2616  0.5680
  913PF6-    F514789   4.141   2.821   0.664  0.4031  0.0602 -0.2312
  913PF6-    F614790   4.270   2.723   0.827  0.0480  0.2054 -0.4135
  913PF6-    F714791   4.127   2.609   0.562 -0.4589 -0.0834 -0.4989
  914PF6-    P114792   1.701   1.991   4.099  0.8423  0.0402 -0.3156
  914PF6-    F214793   1.573   1.891   4.118  0.0030 -0.4134  0.4798
  914PF6-    F314794   1.831   2.089   4.089  0.0073 -0.3669 -0.0024
  914PF6-    F414795   1.613   2.122   4.121  0.0115  0.3435  0.0926
  914PF6-    F514796   1.798   1.866   4.074  0.3465 -0.4109 -0.5242
  914PF6-    F614797   1.674   1.997   3.938  0.3855 -0.1631  0.7840
  914PF6-    F714798   1.728   1.981   4.257 -0.0179 -0.1417 -0.4170
  915PF6-    P114799   5.409   2.676   5.299 -0.1522 -0.0663 -0.3146
  915PF6-    F214800   5.510   2.773   5.383  0.5125  0.0564  0.1873
  915PF6-    F314801   5.315   2.583   5.211  0.1686  0.2674 -0.1084
  915PF6-    F414802   5.300   2.787   5.299 -0.3636 -0.2010 -0.5300
  915PF6-    F514803   5.516   2.558   5.308 -0.1430  0.0179  0.1123
  915PF6-    F614804   5.334   2.625   5.430  0.3982 -0.1203  0.2132
  915PF6-    F714805   5.476   2.732   5.166 -0.1860  0.2622 -0.4242
  916PF6-    P114806   5.135   0.254   1.959  0.0686  0.1543 -0.0348
  916PF6-    F214807   5.168   0.099   1.987 -0.1689 -0.4802 -0.5270
  916PF6-    F314808   5.108   0.410   1.940 -0.3733 -0.1870 -0.4335
  916PF6-    F414809   4.980   0.220   1.977 -0.2074  0.2285  0.4092
  916PF6-    F514810   5.295   0.277   1.932 -0.3023 -0.0922 -0.5622
  916PF6-    F614811   5.111   0.239   1.800 -0.2303  0.7692  0.3436
  916PF6-    F714812   5.163   0.277   2.121  0.2638 -0.0390  0.4361
  917PF6-    P114813   1.910   1.542   2.337 -0.0385 -0.3844  0.0382
  917PF6-    F214814   1.861   1.593   2.477 -0.3132 -0.2343 -1.0707
  917PF6-    F314815   1.968   1.491   2.194  0.6377 -0.0795  0.2048
  917PF6-    F414816   1.787   1.623   2.262 -0.2486 -0.4254  0.3160
  917PF6-    F514817   2.030   1.470   2.416 -0.1510 -0.0536  0.3935
  917PF6-    F614818   1.815   1.411   2.351 -0.2837  0.4063 -0.1648
  917PF6-    F714819   2.000   1.674   2.321  0.0775  0.6687 -0.1294
  918PF6-    P114820   4.348   1.340   1.680 -0.2622 -0.7187 -0.1984
  918PF6-    F214821   4.350   1.185   1.717 -0.4344  0.3855 -0.3098
  918PF6-    F314822   4.345   1.491   1.637  0.0269 -0.4324  0.2796
  918PF6-    F414823   4.259   1.309   1.549  0.1273  0.4786 -0.3637
  918PF6-    F514824   4.440   1.379   1.807  0.2078 -0.6848 -0.3580
  918PF6-    F614825   4.487   1.314   1.599  0.1055  0.0465  0.3586
  918PF6-    F714826   4.221   1.355   1.775 -0.0530  0.2187  0.0003
  919PF6-    P114827   1.223   3.912   0.353 -0.2267 -0.0335  0.1965
  919PF6-    F214828   1.089   3.980   0.405 -0.4320 -0.0675 -0.3692
  919PF6-    F314829   1.364   3.858   0.298  0.0829 -0.2522  0.1170
  919PF6-    F414830   1.299   4.005   0.454  0.1689 -0.4861  0.1776
  919PF6-    F514831   1.146   3.822   0.248 -0.0477 -0.5329  0.1266
  919PF6-    F614832   1.230   4.030   0.251  0.5377 -0.0588 -0.1971
  919PF6-    F714833   1.219   3.793   0.462  0.3072  0.0741 -0.1808
  920PF6-    P114834   4.091   2.491   4.309  0.0329 -0.0541 -0.0397
  920PF6-    F214835   4.177   2.601   4.239 -0.0178  0.0328  0.2205
  920PF6-    F314836   4.011   2.368   4.373 -0.1060  0.1714 -0.4579
  920PF6-    F414837   4.155   2.394   4.197 -0.1647 -0.6111  0.2506
  920PF6-    F514838   4.033   2.594   4.416 -0.2963 -0.0952 -0.4185
  920PF6-    F614839   3.964   2.518   4.211  0.0004  0.0828  0.6097
  920PF6-    F714840   4.217   2.455   4.408 -0.0394  0.2934  0.1753
  921PF6-    P114841   2.357   1.253   4.075 -0.0093 -0.5730  0.1874
  921PF6-    F214842   2.317   1.114   4.143  0.1779 -0.3154 -0.0049
  921PF6-    F314843   2.396   1.389   4.003  0.3633 -0.3108 -0.3486
  921PF6-    F414844   2.439   1.174   3.962  0.1775  0.7845  1.0459
  921PF6-    F514845   2.266   1.333   4.181 -0.1554  0.0706  0.0463
  921PF6-    F614846   2.482   1.264   4.164 -0.2105  0.2939  0.4789
  921PF6-    F714847   2.220   1.246   3.994  0.0273  0.2466  0.6222
  922PF6-    P114848   4.876   4.157   3.774  0.1613  0.2061  0.3075
  922PF6-    F214849   4.953   4.027   3.734  0.1266  0.2003  0.0379
  922PF6-    F314850   4.803   4.289   3.817 -0.0646 -0.6129 -0.6152
  922PF6-    F414851   4.750   4.078   3.834 -0.1786  0.4100  0.0053
  922PF6-    F514852   4.996   4.236   3.711  0.0094  0.5153  0.3482
  922PF6-    F614853   4.809   4.160   3.625 -0.3627  0.4314 -0.1721
  922PF6-    F714854   4.949   4.151   3.909  0.1430 -0.2193 -0.7964
  923PF6-    P114855   3.814   1.279   4.195 -0.0155  0.3003  0.1533
  923PF6-    F214856   3.919   1.344   4.296 -0.0019  0.2993  0.3292
  923PF6-    F314857   3.702   1.209   4.102 -0.3572 -0.3565  0.5779
  923PF6-    F414858   3.728   1.225   4.320 -0.1286  0.0416  0.6284
  923PF6-    F514859   3.891   1.331   4.065 -0.0812 -0.0585  0.2332
  923PF6-    F614860   3.904   1.145   4.191  0.0722  0.1086  0.4578
  923PF6-    F714861   3.726   1.411   4.202  0.2268 -0.4628 -0.2923
  924PF6-    P114862   2.818   2.820   2.581 -0.4689  0.2102  0.3775
  924PF6-    F214863   2.929   2.754   2.490  0.0482  0.0202 -0.9814
  924PF6-    F314864   2.708   2.895   2.671  0.2039  0.5328 -0.8240
  924PF6-    F414865   2.753   2.676   2.603 -0.0681  0.0439 -0.8148
  924PF6-    F514866   2.890   2.960   2.555 -0.0068 -0.2670 -0.1897
  924PF6-    F614867   2.734   2.840   2.444 -0.1056 -0.2702 -0.0048
  924PF6-    F714868   2.913   2.814   2.708 -0.0269  0.6767 -0.1715
  925PF6-    P114869   3.741   1.678   0.233 -0.1737  0.1476  0.2454
  925PF6-    F214870   3.720   1.522   0.248 -0.5365  0.0086 -0.0105
  925PF6-    F314871   3.764   1.835   0.221 -0.2025  0.3534 -0.1348
  925PF6-    F414872   3.884   1.667   0.301  0.2214  0.2054 -0.6701
  925PF6-    F514873   3.602   1.685   0.160 -0.0642 -0.3499  0.3307
  925PF6-    F614874   3.671   1.697   0.373  0.3457  0.1769 -0.5055
  925PF6-    F714875   3.818   1.660   0.092  0.1726 -0.5074  0.3234
  926PF6-    P114876   2.473   3.453   0.642 -0.0045 -0.3782 -0.5538
  926PF6-    F214877   2.413   3.313   0.693  0.4202 -0.3443  0.2134
  926PF6-    F314878   2.542   3.592   0.591  0.4641  0.7755 -0.1997
  926PF6-    F414879   2.623   3.405   0.686 -0.0312 -0.1729  0.0380
  926PF6-    F514880   2.328   3.508   0.593  0.1724 -0.1522 -0.0100
  926PF6-    F614881   2.455   3.524   0.785  0.0242 -0.1938 -0.6569
  926PF6-    F714882   2.494   3.394   0.493  0.4966 -0.4853 -0.0169
  927PF6-    P114883   4.122   2.962   5.189  0.2249 -0.0543 -0.0019
  927PF6-    F214884   4.023   2.987   5.309  0.2105  0.5970  0.2049
  927PF6-    F314885   4.227   2.940   5.074  0.0229  0.0419 -0.2678
  927PF6-    F414886   4.048   2.826   5.152 -0.3920  0.0015  0.1322
  927PF6-    F514887   4.195   3.102   5.226  0.1195  0.2610  0.4177
  927PF6-    F614888   4.221   2.882   5.291 -0.2487 -0.2195  0.1475
  927PF6-    F714889   4.025   3.038   5.088 -0.3262 -0.1788 -0.4972
  928PF6-    P114890   1.744   1.979   3.184 -0.1012  0.2773  0.0864
  928PF6-    F214891   1.867   1.981   3.285  0.4311 -0.3538  0.0555
  928PF6-    F314892   1.615   1.980   3.087 -0.2657  0.3182 -0.3821
  928PF6-    F414893   1.723   2.142   3.201 -0.1602 -0.0483  0.5658
  928PF6-    F514894   1.759   1.821   3.169  0.0318  0.0221  0.8077
  928PF6-    F614895   1.648   1.960   3.310 -0.2852 -0.3826  0.4453
  928PF6-    F714896   1.844   1.999   3.060  0.1432 -0.2076 -0.3970
  929PF6-    P114897   2.734   5.147   2.297 -0.2522 -0.2462  0.2290
  929PF6-    F214898   2.798   5.185   2.440 -0.2244 -0.2278 -0.0898
  929PF6-    F314899   2.672   5.115   2.159 -0.1227  0.5840 -0.1181
  929PF6-    F414900   2.648   5.031   2.375 -0.0430 -0.3270 -0.0942
  929PF6-    F514901   2.832   5.265   2.221  0.1641 -0.8040 -0.2203
  929PF6-    F614902   2.848   5.041   2.263  0.2731 -0.2944 -0.3530
  929PF6-    F714903   2.619   5.253   2.320  0.4911 -0.6597 -0.1482
  930PF6-    P114904   4.664   0.600   4.916 -0.0634 -0.6466  0.2897
  930PF6-    F214905   4.785   0.655   4.824  0.6980 -0.0287 -0.4923
  930PF6-    F314906   4.540   0.539   5.004 -0.4488  0.2225  0.1944
  930PF6-    F414907   4.732   0.656   5.047  0.0412 -0.0954  0.1983
  930PF6-    F514908   4.591   0.540   4.781  0.4944 -0.0756 -0.3844
  930PF6-    F614909   4.750   0.466   4.925  0.0287  0.1370 -0.2400
  930PF6-    F714910   4.583   0.740   4.897 -0.3230 -0.3514  0.4289
  931PF6-    P114911   2.879   0.697   5.372  0.4106  0.1081 -0.3586
  931PF6-    F214912   2.893   0.708   5.210  0.2410 -0.4582 -0.2393
  931PF6-    F314913   2.873   0.683   5.534 -0.4173  0.1969  0.0577
  931PF6-    F414914   2.946   0.552   5.369  0.3502 -0.0647  0.1503
  931PF6-    F514915   2.816   0.848   5.375 -0.1391  0.1356 -0.2361
  931PF6-    F614916   2.733   0.629   5.357  0.3472 -0.2949 -0.1414
  931PF6-    F714917   3.024   0.762   5.380  0.0559 -0.1238 -0.1106
  932PF6-    P114918   1.399   0.133   0.231  0.1068  0.4306 -0.0457
  932PF6-    F214919   1.350   0.106   0.083  0.3995  0.2704 -0.5511
  932PF6-    F314920   1.445   0.156   0.388 -0.1503  0.2416  0.0298
  932PF6-    F414921   1.244   0.149   0.279 -0.2760  0.2381 -0.5974
  932PF6-    F514922   1.550   0.125   0.186  0.0853 -0.0926  0.4391
  932PF6-    F614923   1.403   0.287   0.199  0.2852 -0.2535  0.5083
  932PF6-    F714924   1.393  -0.026   0.264  0.1198 -0.2140 -0.2565
  933PF6-    P114925   1.712   2.829   4.706 -0.0964 -0.4155 -0.2747
  933PF6-    F214926   1.784   2.935   4.808  0.5325 -0.0001 -0.1066
  933PF6-    F314927   1.635   2.732   4.605  0.0730 -0.3178 -0.4452
  933PF6-    F414928   1.573   2.867   4.777 -0.4152 -0.4496  0.1851
  933PF6-    F514929   1.850   2.800   4.633  0.5095 -0.0920 -0.2673
  933PF6-    F614930   1.741   2.713   4.809  0.2761  0.2058  0.2255
  933PF6-    F714931   1.689   2.945   4.604 -0.1096  0.2572  0.6830
  934PF6-    P114932   5.341   4.234   4.720  0.2375 -0.1980 -0.0853
  934PF6-    F214933   5.302   4.339   4.843  0.2031  0.0103 -0.4682
  934PF6-    F314934   5.374   4.133   4.601 -0.3306  0.2248 -0.3844
  934PF6-    F414935   5.192   4.247   4.667 -0.0546  0.1124  0.3118
  934PF6-    F514936   5.491   4.221   4.781 -0.6525  0.1250  0.0650
  934PF6-    F614937   5.294   4.116   4.819  0.1913  0.1472  0.2323
  934PF6-    F714938   5.386   4.357   4.625 -0.1876 -0.2099 -0.2988
  935PF6-    P114939   1.337   3.222   0.719 -0.1369 -0.0682 -0.0622
  935PF6-    F214940   1.249   3.106   0.649 -0.2370  0.6828  0.4001
  935PF6-    F314941   1.433   3.336   0.779  0.3171  0.0057  0.5360
  935PF6-    F414942   1.348   3.141   0.855 -0.0483 -0.2675  0.1037
  935PF6-    F514943   1.325   3.309   0.585  0.2306  0.0015  0.6013
  935PF6-    F614944   1.205   3.293   0.768  0.1584  0.3794 -0.2870
  935PF6-    F714945   1.470   3.151   0.658  0.5028 -0.3312  0.3838
  936PF6-    P114946   0.324   2.464   3.944 -0.1654  0.0354 -0.1242
  936PF6-    F214947   0.353   2.618   3.966 -0.2409  0.1347 -0.7152
  936PF6-    F314948   0.290   2.308   3.915  0.2224  0.1176 -0.3430
  936PF6-    F414949   0.214   2.459   4.063  0.1891 -0.2381  0.0406
  936PF6-    F514950   0.433   2.459   3.824 -0.2739  0.2415  0.2121
  936PF6-    F614951   0.444   2.425   4.045 -0.1200  0.3645 -0.0870
  936PF6-    F714952   0.210   2.499   3.837  0.1983 -0.7867 -0.1821
  937PF6-    P114953   2.211   3.946   1.512  0.4492  0.4576 -0.2030
  937PF6-    F214954   2.226   3.819   1.616 -0.1157 -0.5124 -0.2229
  937PF6-    F314955   2.192   4.072   1.417  0.0306 -0.3056 -0.5815
  937PF6-    F414956   2.172   4.046   1.630 -0.0779  0.3588 -0.3846
  937PF6-    F514957   2.254   3.858   1.387  0.3694  0.2482  0.1961
  937PF6-    F614958   2.052   3.910   1.497  0.4332  0.2553 -0.5723
  937PF6-    F714959   2.367   3.968   1.525 -0.0101 -0.1258 -0.0046
  938PF6-    P114960   0.731   4.063   4.246  0.1317 -0.4654  0.2630
  938PF6-    F214961   0.738   4.181   4.140  0.3036  0.1935 -0.4269
  938PF6-    F314962   0.733   3.945   4.352  0.2069 -0.0147 -0.0908
  938PF6-    F414963   0.788   4.162   4.362  0.5032 -0.1798  0.0488
  938PF6-    F514964   0.673   3.964   4.136 -0.5264  0.1264 -0.0189
  938PF6-    F614965   0.882   4.028   4.215 -0.0470  0.2297  0.0572
  938PF6-    F714966   0.583   4.107   4.291  0.4403  0.7239  0.0100
  939PF6-    P114967   4.556   1.143   0.793  0.2985 -0.0665  0.1402
  939PF6-    F214968   4.523   1.096   0.646 -0.6097  0.3754 -0.1354
  939PF6-    F314969   4.583   1.204   0.936 -0.5050  0.3733  0.1760
  939PF6-    F414970   4.631   1.274   0.741 -0.4974  0.6836  0.2668
  939PF6-    F514971   4.487   1.014   0.858 -0.2894 -0.2468 -0.4081
  939PF6-    F614972   4.700   1.068   0.793 -0.6473  0.6395 -0.4937
  939PF6-    F714973   4.421   1.227   0.794 -0.0752 -0.2059 -0.4739
  940PF6-    P114974   2.195   4.948   1.293 -0.3215 -0.0338 -0.1661
  940PF6-    F214975   2.103   5.056   1.366  0.1431  0.0314 -0.1385
  940PF6-    F314976   2.281   4.845   1.216 -0.0380  0.1116  0.4164
  940PF6-    F414977   2.271   5.070   1.214 -0.0158  0.0600 -0.6005
  940PF6-    F514978   2.124   4.832   1.377  0.3358  0.1211  0.3880
  940PF6-    F614979   2.091   4.935   1.174  0.4669 -0.6326  0.3486
  940PF6-    F714980   2.306   4.960   1.405 -0.3810 -0.5801  0.1825
  941PF6-    P114981   2.885   0.837   4.642 -0.2353 -0.3171  0.0375
  941PF6-    F214982   2.986   0.963   4.688  0.0340  0.0542  0.2431
  941PF6-    F314983   2.789   0.716   4.599 -0.5165  0.0053  0.2846
  941PF6-    F414984   2.764   0.902   4.725  0.2537  0.0967  0.0417
  941PF6-    F514985   3.001   0.772   4.553 -0.6756 -0.1443 -0.7068
  941PF6-    F614986   2.928   0.749   4.766 -0.8226  0.0445  0.2637
  941PF6-    F714987   2.833   0.923   4.514 -0.4955 -0.5092 -0.4024
  942PF6-    P114988   3.598   0.731   3.446 -0.2773  0.3498  0.1937
  942PF6-    F214989   3.661   0.591   3.414 -0.0415 -0.0163  0.6249
  942PF6-    F314990   3.538   0.880   3.476 -0.6128 -0.4233  0.3251
  942PF6-    F414991   3.509   0.720   3.311 -0.4122 -0.0764 -0.2381
  942PF6-    F514992   3.693   0.742   3.575  0.3536  0.0822 -0.9082
  942PF6-    F614993   3.716   0.795   3.358 -0.2180 -0.1233 -0.5574
  942PF6-    F714994   3.486   0.668   3.542  0.5435  0.2588 -0.0101
  943PF6-    P114995   5.410   4.227   0.332  0.1218 -0.3912 -0.6324
  943PF6-    F214996   5.266   4.192   0.281  0.4200 -0.4885 -0.3811
  943PF6-    F314997   5.559   4.270   0.380 -0.2376  0.3100  0.6153
  943PF6-    F414998   5.435   4.305   0.200  0.0384 -0.2807 -0.2454
  943PF6-    F514999   5.388   4.149   0.475  0.2166 -0.3950  0.5519
  943PF6-    F615000   5.467   4.096   0.268 -0.1811  0.1794  0.2291
  943PF6-    F715001   5.346   4.360   0.401 -0.2586  0.3507 -0.2169
  944PF6-    P115002   4.410   5.412   5.370 -0.1674 -0.2880  0.5704
  944PF6-    F215003   4.488   5.347   5.495  0.2049 -0.4536 -0.2571
  944PF6-    F315004   4.329   5.483   5.248  0.3030 -0.1095  0.4283
  944PF6-    F415005   4.342   5.272   5.334  0.0506 -0.6092  0.2490
  944PF6-    F515006   4.478   5.554   5.396  0.0769  0.3065 -0.1733
  944PF6-    F615007   4.529   5.373   5.272 -0.2658  0.2463  0.1458
  944PF6-    F715008   4.292   5.456   5.466  0.3161  0.6661 -0.0085
  945PF6-    P115009   2.520   5.421   4.387  0.0066  0.2538  0.1162
  945PF6-    F215010   2.586   5.272   4.392  0.2453  0.4041  0.2037
  945PF6-    F315011   2.457   5.568   4.382 -0.0468  0.5285 -0.2656
  945PF6-    F415012   2.429   5.388   4.511 -0.2495  0.1065 -0.3585
  945PF6-    F515013   2.603   5.464   4.255 -0.3909  0.3825 -0.6579
  945PF6-    F615014   2.398   5.367   4.293 -0.4464  0.2662  0.5380
  945PF6-    F715015   2.637   5.479   4.477 -0.5697 -0.0527  0.0449
  946PF6-    P115016   4.300   4.441   1.080 -0.0896 -0.0450  0.1368
  946PF6-    F215017   4.232   4.448   0.937  0.6048 -0.1811 -0.3054
  946PF6-    F315018   4.367   4.438   1.227  0.2633 -0.4001 -0.0704
  946PF6-    F415019   4.397   4.320   1.033  0.1736  0.3336 -0.3120
  946PF6-    F515020   4.202   4.559   1.133  0.0864  0.4246 -0.4104
  946PF6-    F615021   4.193   4.333   1.126 -0.2032 -0.1978  0.0425
  946PF6-    F715022   4.410   4.547   1.031  0.1314  0.0223  0.1842
  947PF6-    P115023   3.207   2.103   5.165 -0.0161 -0.0188 -0.1632
  947PF6-    F215024   3.213   2.263   5.177  0.1169 -0.2102  0.3703
  947PF6-    F315025   3.208   1.946   5.151  0.1227  0.0954 -0.2036
  947PF6-    F415026   3.103   2.119   5.044 -0.3690 -0.1482  0.1173
  947PF6-    F515027   3.302   2.091   5.292 -0.1250 -0.0669  0.5652
  947PF6-    F615028   3.088   2.096   5.273  0.0751 -0.1023 -0.1116
  947PF6-    F715029   3.331   2.109   5.062 -0.1255  0.8847  0.1791
  948PF6-    P115030   0.328   0.599   2.097 -0.2298 -0.2207 -0.0421
  948PF6-    F215031   0.422   0.512   2.196 -0.1815 -0.9710 -0.1470
  948PF6-    F315032   0.231   0.684   2.004  0.7432  0.1011 -0.6643
  948PF6-    F415033   0.236   0.477   2.067 -0.1933 -0.1911  0.8764
  948PF6-    F515034   0.416   0.725   2.134 -0.1919  0.0978 -0.3107
  948PF6-    F615035   0.417   0.566   1.969 -0.0407 -0.0633  0.1422
  948PF6-    F715036   0.231   0.631   2.221  0.5701 -0.3629  0.1981
  949PF6-    P115037   1.267   3.603   2.481 -0.0046  0.0959  0.0275
  949PF6-    F215038   1.310   3.747   2.434 -0.1391 -0.0474 -0.1059
  949PF6-    F315039   1.231   3.452   2.532 -0.1131  0.0516  0.2584
  949PF6-    F415040   1.426   3.567   2.515 -0.2250 -0.5159  0.3874
  949PF6-    F515041   1.118   3.634   2.440 -0.2153 -0.0668 -0.3824
  949PF6-    F615042   1.288   3.549   2.328 -0.0188  0.2631  0.1612
  949PF6-    F715043   1.239   3.656   2.626 -0.0786  0.0274 -0.2265
  950PF6-    P115044   2.762   1.646   1.027  0.4058  0.1979 -0.0137
  950PF6-    F215045   2.723   1.504   0.964  0.2414  0.1699 -0.1067
  950PF6-    F315046   2.813   1.790   1.089  0.4405  0.2887 -0.5214
  950PF6-    F415047   2.824   1.685   0.882  0.4443 -0.3759 -0.3509
  950PF6-    F515048   2.692   1.603   1.162 -0.2189  0.6110 -0.2006
  950PF6-    F615049   2.894   1.578   1.077 -0.7950 -0.7117  0.2312
  950PF6-    F715050   2.624   1.708   0.975 -0.3525 -0.0923  0.5692
  951PF6-    P115051   4.753   1.413   3.843  0.1547 -0.1448  0.1918
  951PF6-    F215052   4.863   1.298   3.861  0.6868  0.2282  0.5061
  951PF6-    F315053   4.640   1.522   3.816 -0.0560  0.4449  0.4160
  951PF6-    F415054   4.763   1.448   3.997  0.1539 -0.6570 -0.1094
  951PF6-    F515055   4.735   1.379   3.689 -0.2489 -0.0809 -0.3247
  951PF6-    F615056   4.640   1.310   3.866 -0.4368 -0.0185 -0.0974
  951PF6-    F715057   4.863   1.522   3.807  0.2663  0.4761  0.4144
  952PF6-    P115058   2.875   0.588   0.824 -0.3136 -0.5101  0.0631
  952PF6-    F215059   3.035   0.562   0.848  0.2452  0.3204  0.0649
  952PF6-    F315060   2.718   0.620   0.793  0.2921 -0.1790 -0.1713
  952PF6-    F415061   2.912   0.725   0.754 -0.1380 -0.1510  0.0940
  952PF6-    F515062   2.844   0.450   0.895 -0.0112 -0.1980  0.4433
  952PF6-    F615063   2.874   0.667   0.970 -0.1834  0.5161  0.6627
  952PF6-    F715064   2.884   0.511   0.689  0.0470 -0.0353 -0.3864
  953PF6-    P115065   3.447   4.125   4.189 -0.1794 -0.5312  0.2296
  953PF6-    F215066   3.331   4.049   4.103  0.3091  0.7420 -0.1511
  953PF6-    F315067   3.566   4.201   4.264 -0.0942 -0.1507  0.0066
  953PF6-    F415068   3.343   4.171   4.300 -0.1341 -0.4002 -0.5666
  953PF6-    F515069   3.560   4.086   4.075  0.6242 -0.3800  0.2932
  953PF6-    F615070   3.412   4.265   4.107 -0.3282  0.7302 -0.0686
  953PF6-    F715071   3.485   3.992   4.270  0.0740 -0.0800 -0.1079
  954PF6-    P115072   0.807   3.250   1.396 -0.1793  0.1202  0.2978
  954PF6-    F215073   0.716   3.132   1.450  0.0384  0.1855  0.3863
  954PF6-    F315074   0.895   3.371   1.340 -0.4234  0.2660 -0.4459
  954PF6-    F415075   0.698   3.357   1.447  0.1964  0.2775 -0.2539
  954PF6-    F515076   0.919   3.147   1.351 -0.1522  0.0805  0.2393
  954PF6-    F615077   0.730   3.236   1.254 -0.1420 -0.4437 -0.2856
  954PF6-    F715078   0.884   3.260   1.537 -0.1578 -0.6986  0.3640
  955PF6-    P115079   3.904   4.430   5.139 -0.0101  0.2041 -0.0081
  955PF6-    F215080   3.979   4.376   5.265  0.3419  0.0500  0.0926
  955PF6-    F315081   3.825   4.485   5.012  0.1770  0.8108  0.5294
  955PF6-    F415082   3.957   4.302   5.059  0.4050  0.3850 -0.2956
  955PF6-    F515083   3.846   4.552   5.224 -0.3575  0.6523 -0.3065
  955PF6-    F615084   4.030   4.522   5.100  0.1087  0.5181  0.1570
  955PF6-    F715085   3.772   4.348   5.175 -0.4251 -0.0558 -0.4452
  956PF6-    P115086   4.478   2.011   5.000 -0.0654  0.4014 -0.0102
  956PF6-    F215087   4.578   1.885   4.973 -0.1171  0.0140  0.0514
  956PF6-    F315088   4.380   2.132   5.022 -0.0316 -0.1696 -0.0453
  956PF6-    F415089   4.365   1.914   5.060  0.0715  0.0967  0.0389
  956PF6-    F515090   4.591   2.106   4.937 -0.0474 -0.8175  0.2845
  956PF6-    F615091   4.418   1.981   4.855  1.0145 -0.0286  0.1670
  956PF6-    F715092   4.542   2.034   5.149  0.1581  0.0406  0.0933
  957PF6-    P115093   2.835   2.078   0.484 -0.0011 -0.4808  0.0243
  957PF6-    F215094   2.689   2.092   0.425  0.2338 -0.3808  0.5559
  957PF6-    F315095   2.988   2.063   0.532  0.1680  0.3938 -0.0602
  957PF6-    F415096   2.802   2.171   0.610 -0.0337 -0.0653  0.4626
  957PF6-    F515097   2.874   1.997   0.348 -0.5580  0.2655 -0.3113
  957PF6-    F615098   2.869   2.214   0.402  0.7960  0.3373  0.3973
  957PF6-    F715099   2.795   1.943   0.557 -0.7114  0.3715 -0.4736
  958PF6-    P115100   2.649   1.097   2.989  0.3603 -0.0281 -0.0833
  958PF6-    F215101   2.604   1.018   3.124  0.0374 -0.7355  0.2059
  958PF6-    F315102   2.694   1.172   2.853  0.0569  0.0034 -0.5982
  958PF6-    F415103   2.576   1.227   3.037  0.3661 -0.1577  0.3513
  958PF6-    F515104   2.726   0.966   2.943 -0.0478  0.6047 -0.6670
  958PF6-    F615105   2.517   1.041   2.914  0.5344 -0.3160 -0.1618
  958PF6-    F715106   2.788   1.152   3.053  0.3924  0.2414  0.3236
  959PF6-    P115107   3.943   3.134   1.950 -0.1345  0.2765  0.0634
  959PF6-    F215108   3.942   2.994   2.028 -0.2111 -0.0588  0.3180
  959PF6-    F315109   3.935   3.278   1.876  0.3241  0.3835 -0.1733
  959PF6-    F415110   4.057   3.192   2.049 -0.3917  0.3606 -0.4348
  959PF6-    F515111   3.836   3.078   1.845  0.3924  0.6579 -0.0579
  959PF6-    F615112   3.825   3.180   2.053 -0.1862 -0.2531  0.3214
  959PF6-    F715113   4.067   3.088   1.859 -0.3529  0.9683  0.1434
  960PF6-    P115114   4.505   0.577   2.747  0.0027  0.2068  0.1365
  960PF6-    F215115   4.410   0.607   2.620 -0.0708 -0.2492  0.0447
  960PF6-    F315116   4.598   0.541   2.871 -0.2104  0.4204 -0.2078
  960PF6-    F415117   4.594   0.486   2.654 -0.2195 -0.1806 -0.0581
  960PF6-    F515118   4.421   0.672   2.840 -0.6489  0.0670 -0.2792
  960PF6-    F615119   4.412   0.456   2.779 -0.2651 -0.7617  0.5469
  960PF6-    F715120   4.592   0.706   2.700 -0.4408 -0.4000 -0.2054
  961PF6-    P115121   4.126   0.901   0.020 -0.1155 -0.1244  0.4513
  961PF6-    F215122   4.022   0.828   0.113  0.1170  0.3123 -0.3540
  961PF6-    F315123   4.228   0.974  -0.078 -0.5957 -0.0204  0.1460
  961PF6-    F415124   4.128   0.778  -0.080 -0.3035  0.0421 -0.5464
  961PF6-    F515125   4.125   1.024   0.126  0.2310  0.0717 -0.5823
  961PF6-    F615126   4.251   0.840   0.099  0.2077  0.0300  0.8360
  961PF6-    F715127   4.006   0.971  -0.055  0.2054  0.1835  0.3024
  962PF6-    P115128   3.609   0.920   0.237 -0.1541 -0.2376 -0.0019
  962PF6-    F215129   3.529   0.860   0.114 -1.1794 -0.1614  0.0069
  962PF6-    F315130   3.694   0.978   0.362  0.2459 -0.4495 -0.1033
  962PF6-    F415131   3.733   0.956   0.138 -0.0900  0.4882 -0.5026
  962PF6-    F515132   3.481   0.889   0.331  0.3837  0.2108  0.5768
  962PF6-    F615133   3.669   0.780   0.265  0.1058  0.2945  0.5489
  962PF6-    F715134   3.546   1.062   0.204 -0.3106  0.1198  0.1268
  963PF6-    P115135   0.143   3.425   2.620 -0.2829 -0.0567 -0.4238
  963PF6-    F215136   0.055   3.492   2.510  0.3751  0.5022 -0.1582
  963PF6-    F315137   0.236   3.362   2.732 -0.0304  0.1270  0.3756
  963PF6-    F415138   0.056   3.288   2.622  0.1102 -0.0550  0.0825
  963PF6-    F515139   0.241   3.559   2.633  0.0265  0.1470  0.3352
  963PF6-    F615140   0.053   3.489   2.742  0.1814 -0.5383  0.2949
  963PF6-    F715141   0.241   3.365   2.506 -0.2379  0.2986  0.0449
  964PF6-    P115142   3.458   5.382   4.344 -0.3494 -0.0858 -0.1922
  964PF6-    F215143   3.571   5.462   4.420 -0.0271  0.2740 -0.3729
  964PF6-    F315144   3.343   5.298   4.264 -0.4267 -0.4440  0.1460
  964PF6-    F415145   3.576   5.301   4.264  0.1890  0.0151  0.2990
  964PF6-    F515146   3.345   5.467   4.419  0.3415 -0.3333 -0.1112
  964PF6-    F615147   3.468   5.494   4.225  0.0012  0.7803  0.0976
  964PF6-    F715148   3.452   5.276   4.464 -0.7471 -0.2591  0.3266
  965PF6-    P115149   0.292   5.480   1.098 -0.0280 -0.2799  0.3304
  965PF6-    F215150   0.299   5.402   1.243 -0.5004 -0.4107 -0.2663
  965PF6-    F315151   0.296   5.555   0.947  0.0404 -0.0588  0.3132
  965PF6-    F415152   0.399   5.589   1.151  0.6319  0.5173 -0.0700
  965PF6-    F515153   0.183   5.377   1.037 -0.1225  0.1221 -0.2723
  965PF6-    F615154   0.179   5.579   1.147  0.1256 -0.0157  0.4522
  965PF6-    F715155   0.413   5.383   1.051 -0.1635 -0.4848  0.3478
  966PF6-    P115156   2.496   3.435   3.459 -0.0966 -0.1554 -0.0265
  966PF6-    F215157   2.441   3.328   3.566 -0.0602  0.4334 -0.4163
  966PF6-    F315158   2.549   3.546   3.359  0.2131  0.0260  0.4349
  966PF6-    F415159   2.430   3.546   3.553 -0.1900  0.6082  0.5168
  966PF6-    F515160   2.568   3.309   3.386  0.1052  0.1403  0.2088
  966PF6-    F615161   2.362   3.413   3.373  0.3909  0.8438  0.0653
  966PF6-    F715162   2.630   3.460   3.544  0.7498  0.2299 -0.4922
  967PF6-    P115163   3.715   2.349   2.343  0.2329  0.2272  0.2773
  967PF6-    F215164   3.611   2.457   2.288 -0.1481 -0.2251 -0.3414
  967PF6-    F315165   3.814   2.236   2.399  0.0838  0.0186 -0.2870
  967PF6-    F415166   3.618   2.328   2.466  0.0121  0.2781  0.0244
  967PF6-    F515167   3.813   2.369   2.219 -0.2000 -0.2528  0.0533
  967PF6-    F615168   3.795   2.464   2.414  0.6032 -0.3556 -0.3733
  967PF6-    F715169   3.630   2.231   2.267 -0.3488 -0.0769  0.0833
  968PF6-    P115170   0.320   5.403   4.821  0.3336 -0.3121 -0.0931
  968PF6-    F215171   0.447   5.361   4.734 -0.0040 -0.0675  0.0838
  968PF6-    F315172   0.195   5.449   4.901  0.2987 -0.0881 -0.5069
  968PF6-    F415173   0.232   5.288   4.742  0.0643  0.2202  0.1633
  968PF6-    F515174   0.406   5.517   4.896  0.3434 -0.0026  0.3224
  968PF6-    F615175   0.280   5.502   4.704  0.0260 -0.0932 -0.6352
  968PF6-    F715176   0.362   5.299   4.936  0.2513 -0.0395  0.2702
  969PF6-    P115177   4.794   5.333   3.946  0.2097 -0.0614 -0.1141
  969PF6-    F215178   4.916   5.371   3.855 -0.3272  0.0209 -0.6759
  969PF6-    F315179   4.676   5.293   4.046  0.5610 -0.2855  0.1338
  969PF6-    F415180   4.787   5.185   3.873 -0.3981 -0.4368  0.0947
  969PF6-    F515181   4.789   5.477   4.011  0.3581  0.2647 -0.3535
  969PF6-    F615182   4.689   5.387   3.830  0.1555  0.4938 -0.0037
  969PF6-    F715183   4.898   5.279   4.058  0.2738 -0.1652 -0.1681
  970PF6-    P115184   5.357   0.485   3.220  0.3947  0.3665 -0.0083
  970PF6-    F215185   5.235   0.420   3.133 -0.0444  0.0356  0.2021
  970PF6-    F315186   5.464   0.555   3.316 -0.1558  0.3415 -0.0019
  970PF6-    F415187   5.238   0.567   3.291  0.1789  0.3102  0.0637
  970PF6-    F515188   5.471   0.401   3.149 -0.1116 -0.1713 -0.2474
  970PF6-    F615189   5.370   0.609   3.118  0.0835  0.0825  0.8449
  970PF6-    F715190   5.337   0.371   3.326  0.0593  0.2472  0.1791
  971PF6-    P115191   3.041   2.416   1.612 -0.3095 -0.0140 -0.3106
  971PF6-    F215192   3.006   2.440   1.769 -0.5198 -0.2413  0.0709
  971PF6-    F315193   3.075   2.400   1.458 -0.2702 -0.5575 -0.6942
  971PF6-    F415194   3.093   2.264   1.647 -0.0375  0.2776  0.1487
  971PF6-    F515195   2.989   2.566   1.581 -0.2494  0.2505  0.0983
  971PF6-    F615196   3.189   2.464   1.638 -0.4782  0.1849  0.6805
  971PF6-    F715197   2.894   2.366   1.582  0.5996 -0.1147 -0.3069
  972PF6-    P115198   2.103   1.417   0.552  0.2918 -0.0940 -0.3719
  972PF6-    F215199   2.052   1.369   0.406 -0.3095 -0.1182 -0.0240
  972PF6-    F315200   2.156   1.461   0.700  0.0065  0.3754  0.7459
  972PF6-    F415201   2.183   1.283   0.560  0.1925  0.2726 -0.4074
  972PF6-    F515202   2.022   1.555   0.548  0.2211 -0.3674  0.5263
  972PF6-    F615203   1.974   1.348   0.624 -0.5679  0.7214 -0.1394
  972PF6-    F715204   2.230   1.489   0.485 -0.4243 -0.0795 -0.6700
  973PF6-    P115205   1.495   4.656   2.377 -0.0205  0.2057 -0.3243
  973PF6-    F215206   1.564   4.594   2.246  0.0821  0.3642 -0.0805
  973PF6-    F315207   1.431   4.718   2.512 -0.1427  0.1385 -0.9508
  973PF6-    F415208   1.372   4.722   2.296 -0.1728  0.3524  0.2120
  973PF6-    F515209   1.609   4.586   2.466 -0.3491  0.0501  0.2891
  973PF6-    F615210   1.587   4.790   2.365 -0.2619 -0.3653 -0.0912
  973PF6-    F715211   1.407   4.519   2.391  0.0656 -0.3295  0.3161
  974PF6-    P115212   1.656   4.616   3.818 -0.0137 -0.1688 -0.0730
  974PF6-    F215213   1.609   4.467   3.853  0.3777 -0.2069  0.2623
  974PF6-    F315214   1.702   4.769   3.792  0.0590  0.1790 -0.0786
  974PF6-    F415215   1.530   4.637   3.722 -0.6468 -0.2900 -0.3170
  974PF6-    F515216   1.790   4.588   3.914  0.3254  0.0697 -0.7577
  974PF6-    F615217   1.734   4.561   3.690  0.0843 -0.1061 -0.1964
  974PF6-    F715218   1.580   4.670   3.947 -0.1867 -0.1989  0.4277
  975PF6-    P115219   5.436   0.788   1.093 -0.1209 -0.4601  0.2823
  975PF6-    F215220   5.486   0.770   1.244  0.3339  0.1853 -0.1919
  975PF6-    F315221   5.394   0.801   0.937 -0.1913  0.3537  0.0871
  975PF6-    F415222   5.531   0.914   1.067 -0.3594 -0.2739 -0.1438
  975PF6-    F515223   5.345   0.658   1.107 -0.3944 -0.3700  0.0185
  975PF6-    F615224   5.317   0.885   1.135  0.0118  0.2917  0.3514
  975PF6-    F715225   5.559   0.696   1.052  0.0675  0.0262  0.1906
  976PF6-    P115226   0.236   2.954   0.614 -0.3452  0.1175  0.3373
  976PF6-    F215227   0.195   3.084   0.687  0.3551  0.3189  0.1845
  976PF6-    F315228   0.275   2.817   0.534 -0.0623  0.1058 -0.2588
  976PF6-    F415229   0.284   2.898   0.760 -0.1363  0.3577  0.3200
  976PF6-    F515230   0.188   3.014   0.474  0.1836  0.2842  0.0303
  976PF6-    F615231   0.382   3.012   0.585  0.5591 -0.0536 -0.5356
  976PF6-    F715232   0.088   2.897   0.633 -0.1272  0.1485  0.0628
  977PF6-    P115233   4.089   3.148   3.211 -0.2005 -0.4744 -0.1758
  977PF6-    F215234   4.072   3.088   3.061  0.1199 -0.5665  0.0072
  977PF6-    F315235   4.100   3.208   3.357 -0.2198  0.0488  0.1472
  977PF6-    F415236   4.052   3.299   3.159  0.7099  0.7333  0.0401
  977PF6-    F515237   4.132   3.001   3.268 -0.1360  0.5080  0.2178
  977PF6-    F615238   4.238   3.181   3.177  0.5319 -0.3299  0.0294
  977PF6-    F715239   3.932   3.119   3.243 -0.1791 -0.0445  0.4094
  978PF6-    P115240   1.115   2.406   0.294 -0.0264  0.1144  0.2877
  978PF6-    F215241   1.138   2.416   0.449 -0.2650  0.0818  0.2729
  978PF6-    F315242   1.097   2.395   0.131  0.5366  0.0406 -0.1340
  978PF6-    F415243   1.212   2.527   0.269 -0.4816 -0.5784  0.4982
  978PF6-    F515244   1.024   2.275   0.316  0.3748  0.0173 -0.1763
  978PF6-    F615245   0.992   2.506   0.302 -0.5521  0.3589  0.3569
  978PF6-    F715246   1.240   2.305   0.289 -0.0815  0.5274  0.3812
  979PF6-    P115247   0.988   4.257   5.126 -0.1295  0.0377  0.1889
  979PF6-    F215248   1.125   4.288   5.198  0.0915  0.2815 -0.1118
  979PF6-    F315249   0.853   4.231   5.049  0.2352  0.3048 -0.5390
  979PF6-    F415250   0.942   4.414   5.161 -0.3005  0.0588 -0.2025
  979PF6-    F515251   1.033   4.110   5.093  0.3179  0.0417 -0.2850
  979PF6-    F615252   0.922   4.209   5.262 -0.1352  0.5919  0.1307
  979PF6-    F715253   1.048   4.306   4.987 -0.0673  0.2345  0.0210
  980PF6-    P115254   1.305   0.831   4.638 -0.5614  0.2496  0.2439
  980PF6-    F215255   1.178   0.736   4.630  0.4532  0.2393 -0.4262
  980PF6-    F315256   1.436   0.928   4.641 -0.0405 -0.8661 -0.1850
  980PF6-    F415257   1.218   0.949   4.572 -0.2736 -0.9850  0.5653
  980PF6-    F515258   1.395   0.720   4.709  0.3324 -0.3993 -0.4916
  980PF6-    F615259   1.352   0.778   4.494  0.4220  0.3023  0.3258
  980PF6-    F715260   1.256   0.894   4.777  0.1627  0.3932 -0.1312
  981PF6-    P115261   4.403   1.895   2.545 -0.2823 -0.2244 -0.3516
  981PF6-    F215262   4.308   1.964   2.660 -0.3390 -0.1680 -0.0001
  981PF6-    F315263   4.495   1.827   2.435  0.5239 -1.1797 -0.6281
  981PF6-    F415264   4.412   1.763   2.640 -0.6560 -0.5156  0.6740
  981PF6-    F515265   4.390   2.026   2.463 -0.4614 -0.0448 -0.2707
  981PF6-    F615266   4.536   1.954   2.615 -0.1880  0.4398  0.2953
  981PF6-    F715267   4.270   1.838   2.478  0.2174 -0.1769  0.1877
  982PF6-    P115268   2.200   2.926   5.218  0.4999 -0.4809 -0.1217
  982PF6-    F215269   2.270   3.020   5.108 -0.5865 -0.2519  0.2931
  982PF6-    F315270   2.131   2.839   5.330 -0.4427  0.3529 -0.3317
  982PF6-    F415271   2.254   2.797   5.143  0.7344  0.3268  0.2481
  982PF6-    F515272   2.151   3.058   5.299 -0.2106 -0.0896  0.5186
  982PF6-    F615273   2.066   2.931   5.129  0.1416 -0.1371  0.2040
  982PF6-    F715274   2.335   2.924   5.310  0.3071 -0.0953  0.0390
  983PF6-    P115275   3.260   2.195   3.259 -0.0105  0.1296  0.1943
  983PF6-    F215276   3.403   2.150   3.215  0.4000 -0.1035  0.2498
  983PF6-    F315277   3.115   2.240   3.311 -0.3379  0.2279  0.4434
  983PF6-    F415278   3.200   2.049   3.227  0.0519  0.8804 -0.0818
  983PF6-    F515279   3.310   2.347   3.290 -0.1673  0.4409  0.5480
  983PF6-    F615280   3.225   2.244   3.109 -0.1453  0.0033  0.1512
  983PF6-    F715281   3.297   2.148   3.409 -0.2007 -0.0938 -0.5597
  984PF6-    P115282   3.166   1.511   2.231  0.1620 -0.1407  0.2863
  984PF6-    F215283   3.029   1.427   2.247  0.0350 -0.0087 -0.1174
  984PF6-    F315284   3.301   1.593   2.224  0.2709 -0.2215 -0.1753
  984PF6-    F415285   3.197   1.484   2.384 -0.0153  0.2039 -0.4633
  984PF6-    F515286   3.126   1.540   2.076 -0.1996 -0.2793 -0.2120
  984PF6-    F615287   3.093   1.649   2.279 -0.1642 -0.1820 -0.4865
  984PF6-    F715288   3.250   1.377   2.201  0.3963  0.2763 -0.3098
  985PF6-    P115289   1.145   0.017   4.602 -0.4645  0.2938  0.0248
  985PF6-    F215290   1.228   0.152   4.593  0.2884  0.1283  0.1500
  985PF6-    F315291   1.062  -0.121   4.608  0.2334 -0.2360  0.4704
  985PF6-    F415292   1.054   0.064   4.478  0.1864  0.2571 -0.4894
  985PF6-    F515293   1.234  -0.023   4.724 -0.1509 -0.1566 -0.2066
  985PF6-    F615294   1.035   0.085   4.700 -0.2370 -0.1859  0.0175
  985PF6-    F715295   1.259  -0.051   4.504  0.1721  0.5899  0.2169
  986PF6-    P115296   4.134   4.828   2.293  0.4267 -0.2879 -0.1657
  986PF6-    F215297   4.212   4.965   2.304  0.1692 -0.1776 -0.2440
  986PF6-    F315298   4.048   4.690   2.276 -0.3522  0.5496  0.3547
  986PF6-    F415299   4.031   4.878   2.407  0.0113  0.1371 -0.0308
  986PF6-    F515300   4.237   4.792   2.178  0.0622  0.0976  0.7151
  986PF6-    F615301   4.235   4.767   2.403 -0.0265 -0.5467 -0.5723
  986PF6-    F715302   4.032   4.888   2.177 -0.2274  0.0747  0.1707
  987PF6-    P115303   1.327   2.748   3.748 -0.5822  0.2259 -0.0645
  987PF6-    F215304   1.281   2.877   3.834  0.2154 -0.0252  0.8153
  987PF6-    F315305   1.373   2.617   3.666  0.3944  0.6472 -0.3360
  987PF6-    F415306   1.369   2.848   3.627 -0.3459 -0.1183 -0.0350
  987PF6-    F515307   1.276   2.653   3.870 -0.2090 -0.0100 -0.5364
  987PF6-    F615308   1.182   2.743   3.683  0.1842  0.1756  0.0406
  987PF6-    F715309   1.475   2.760   3.805  0.3249  0.3979 -0.9393
  988PF6-    P115310   3.861   0.484   2.276  0.0061 -0.2317 -0.0216
  988PF6-    F215311   4.004   0.533   2.339 -0.3713  0.4013 -0.0592
  988PF6-    F315312   3.716   0.442   2.208 -0.1272 -0.6591 -0.4874
  988PF6-    F415313   3.781   0.563   2.383 -0.5348 -0.3461  0.0347
  988PF6-    F515314   3.939   0.397   2.161  0.0767 -0.0088 -0.0489
  988PF6-    F615315   3.852   0.349   2.367 -0.2575  0.4986  0.0959
  988PF6-    F715316   3.864   0.617   2.189  0.4485 -0.2723 -0.5445
  989PF6-    P115317   3.450   3.092   0.255 -0.3405  0.2438 -0.1601
  989PF6-    F215318   3.573   3.067   0.356 -0.2485  0.2038 -0.9493
  989PF6-    F315319   3.338   3.106   0.148  0.3983 -0.6765  0.6685
  989PF6-    F415320   3.562   3.118   0.140  0.7032 -0.3110 -0.4873
  989PF6-    F515321   3.341   3.053   0.368  0.5696  0.0282 -0.0890
  989PF6-    F615322   3.450   3.251   0.288 -0.0642  0.0933  0.4119
  989PF6-    F715323   3.460   2.935   0.215  0.7011 -0.3982  0.6351
  990PF6-    P115324   2.442   4.102   2.855 -0.4381  0.3452  0.1050
  990PF6-    F215325   2.458   4.223   2.955 -0.2985 -0.1220  0.4793
  990PF6-    F315326   2.418   3.981   2.751 -0.1041 -0.1623 -0.1059
  990PF6-    F415327   2.565   4.021   2.910  0.1858  0.0099 -0.5660
  990PF6-    F515328   2.316   4.172   2.787 -0.5730 -0.0745  0.2801
  990PF6-    F615329   2.534   4.176   2.752 -0.0615  0.0159 -0.2098
  990PF6-    F715330   2.343   4.031   2.957  0.0961  0.1524  0.1987
  991PF6-    P115331   3.246   3.644   2.409  0.2560 -0.1504 -0.0008
  991PF6-    F215332   3.142   3.746   2.483 -0.3942 -0.6777  0.1043
  991PF6-    F315333   3.343   3.542   2.333  0.3209  0.0933 -0.8592
  991PF6-    F415334   3.122   3.548   2.382  0.1335  0.3179 -0.3698
  991PF6-    F515335   3.364   3.738   2.437  0.8018 -0.6388  0.2778
  991PF6-    F615336   3.268   3.570   2.547 -0.4296  0.3565 -0.4716
  991PF6-    F715337   3.227   3.719   2.265 -0.2734 -0.6073 -0.1631
  992PF6-    P115338   4.966   3.905   2.008  0.2769  0.2174 -0.1010
  992PF6-    F215339   5.041   3.844   1.879 -0.5871  0.2058  0.1702
  992PF6-    F315340   4.891   3.960   2.137 -0.0363  0.6051  0.2420
  992PF6-    F415341   4.836   3.807   1.985 -0.1745  0.4650  0.1259
  992PF6-    F515342   5.096   3.993   2.044 -0.6918  0.0669 -0.4638
  992PF6-    F615343   4.894   4.013   1.916 -0.0115  0.2336  0.2102
  992PF6-    F715344   5.023   3.787   2.101  0.3042  0.1238 -0.8491
  993PF6-    P115345   1.987   3.916   4.883 -0.1941  0.1138 -0.3690
  993PF6-    F215346   1.877   3.845   4.793  0.1877 -0.2499 -0.3528
  993PF6-    F315347   2.098   3.996   4.972 -0.2503  0.0057  0.1477
  993PF6-    F415348   1.959   3.819   5.009 -0.2243 -0.5580  0.0242
  993PF6-    F515349   2.021   4.003   4.756 -0.3909  0.0167 -0.5183
  993PF6-    F615350   1.868   4.017   4.930  0.2698  0.1187  0.1241
  993PF6-    F715351   2.092   3.802   4.831  0.2855 -0.1018 -0.0639
  994PF6-    P115352   3.269   3.163   3.901 -0.0133 -0.1384 -0.1155
  994PF6-    F215353   3.231   3.317   3.910  0.1091 -0.3598 -0.3594
  994PF6-    F315354   3.318   3.014   3.887  0.4395  0.6151 -0.0140
  994PF6-    F415355   3.216   3.139   4.052  0.3879  0.2385 -0.0922
  994PF6-    F515356   3.322   3.190   3.749  0.2027 -0.0652  1.0364
  994PF6-    F615357   3.412   3.202   3.955 -0.2482  0.1526 -0.4221
  994PF6-    F715358   3.125   3.128   3.838  0.6745 -0.1024 -0.5980
  995PF6-    P115359   4.994   2.648   3.665  0.2765  0.2465  0.0838
  995PF6-    F215360   4.900   2.576   3.774 -0.6372  0.5732  0.3530
  995PF6-    F315361   5.081   2.722   3.551  0.3815  0.2067  0.2173
  995PF6-    F415362   4.964   2.792   3.736 -0.2886  0.6335  0.3066
  995PF6-    F515363   5.030   2.504   3.601  0.2950  0.0321  0.2367
  995PF6-    F615364   4.864   2.656   3.571  0.1253 -0.2999 -0.0099
  995PF6-    F715365   5.131   2.636   3.756  0.4513  0.6645  0.3639
  996PF6-    P115366   0.652   0.792   4.740 -0.0296 -0.2579  0.2021
  996PF6-    F215367   0.658   0.830   4.582 -0.3459  0.2709  0.7788
  996PF6-    F315368   0.641   0.762   4.891  0.2537  0.4553  0.1373
  996PF6-    F415369   0.594   0.941   4.770  0.3127 -0.0232 -0.1827
  996PF6-    F515370   0.713   0.652   4.713 -0.1879 -0.6132 -0.1037
  996PF6-    F615371   0.799   0.857   4.762  0.7517 -0.1746  0.6620
  996PF6-    F715372   0.503   0.739   4.716 -0.9986 -0.5759  0.1647
  997PF6-    P115373   3.658   0.009   0.668 -0.3272 -0.3047 -0.2938
  997PF6-    F215374   3.538   0.117   0.647  0.4321  0.1191  0.5772
  997PF6-    F315375   3.780  -0.101   0.686  0.2413 -0.2045 -0.2434
  997PF6-    F415376   3.649  -0.037   0.512  0.7603 -1.1544  0.4484
  997PF6-    F515377   3.664   0.051   0.814  0.0572 -0.4455  0.0416
  997PF6-    F615378   3.552  -0.097   0.702 -0.1003  0.1860  0.2264
  997PF6-    F715379   3.773   0.115   0.628 -0.1682  0.1570 -0.2186
  998PF6-    P115380   0.543   4.279   0.783  0.2336 -0.7106 -0.0268
  998PF6-    F215381   0.531   4.432   0.736 -0.1670  0.0976 -0.0536
  998PF6-    F315382   0.562   4.125   0.821 -0.3228  0.4825 -0.6061
  998PF6-    F415383   0.383   4.254   0.778  0.1394  0.4472 -0.0987
  998PF6-    F515384   0.700   4.311   0.783  0.0202 -0.1124  0.4696
  998PF6-    F615385   0.529   4.325   0.937  0.0321 -0.2219  0.1835
  998PF6-    F715386   0.552   4.241   0.628 -0.4315  0.1643 -0.4109
  999PF6-    P115387   0.694   3.015   4.717  0.0372 -0.2269 -0.1563
  999PF6-    F215388   0.637   2.889   4.802  0.1853  0.2320 -1.0768
  999PF6-    F315389   0.749   3.143   4.631 -0.1626  0.1628  0.4856
  999PF6-    F415390   0.801   2.923   4.647  0.5467  0.0919  0.3233
  999PF6-    F515391   0.586   3.109   4.786  0.1997  0.5823 -0.2851
  999PF6-    F615392   0.797   3.058   4.838 -0.0984  0.1090  0.2477
  999PF6-    F715393   0.592   2.981   4.599  0.3731 -0.3662  0.2184
 1000PF6-    P115394   0.648   3.000   3.313  0.0985 -0.2281  0.4039
 1000PF6-    F215395   0.675   3.130   3.406  0.2072 -0.0951 -0.0730
 1000PF6-    F315396   0.627   2.871   3.225  0.4833 -0.3749 -0.4268
 1000PF6-    F415397   0.693   3.075   3.182  0.0891 -0.2106  0.5975
 1000PF6-    F515398   0.607   2.915   3.444 -0.0716  0.6565 -0.1045
 1000PF6-    F615399   0.494   3.042   3.279 -0.2450 -0.1867  0.0426
 1000PF6-    F715400   0.796   2.958   3.348 -0.4704 -0.0083  0.3532
 1001Na+     N115401   1.638   3.284   5.381 -0.0887  0.1233  0.4803
 1002Na+     N115402   4.604   3.560   1.754 -0.3793 -0.0411  0.2467
 1003Na+     N115403   4.468   1.475   0.062 -0.0169  0.1868 -0.5629
 1004Na+     N115404   1.965   1.304   3.245 -0.3611  0.0548  0.2344
 1005Na+     N115405   1.666   4.550   4.930  0.6619  0.0386 -0.2750
 1006Na+     N115406   3.756   2.614   1.682  0.1636 -0.5414  0.4007
 1007Na+     N115407   3.958   0.950   0.305  0.3483  0.2148  0.4244
 1008Na+     N115408   5.483   3.065   3.716 -0.3386  0.1125  0.0515
 1009Na+     N115409   0.756   4.786   2.564 -0.1802 -0.0281 -0.2296
 1010Na+     N115410   3.305   2.403   5.351 -0.0391  0.8399  0.0854
 1011Na+     N115411   4.640   2.565   5.260  0.2898 -0.1394 -0.3333
 1012Na+     N115412   4.580   4.713   0.698 -0.7067 -0.4381  0.0057
 1013Na+     N115413   3.616   1.861   2.758  0.2319  0.1050  0.2811
 1014Na+     N115414   4.931   1.406   2.455 -0.4099  0.4769 -0.0407
 1015Na+     N115415   2.844   3.573   3.628  0.1205  0.2495 -0.1111
 1016Na+     N115416   4.242   1.821   4.018  0.1778  0.2566 -0.1994
 1017Na+     N115417   1.451   0.352   1.879 -0.1036  0.1537  0.2417
 1018Na+     N115418   0.303   3.179   5.361 -0.1033 -0.4767 -0.1880
 1019Na+     N115419   3.100   0.978   4.356 -0.1077 -0.1805  0.1247
 1020Na+     N115420   4.826   1.019   1.291  0.7400 -0.0164  0.2261
 1021Na+     N115421   2.978   4.851   1.744  0.1250 -0.5627  0.1652
 1022Na+     N115422   2.417   3.618   5.402  0.5235 -0.1934  0.0985
 1023Na+     N115423   2.421   1.585   0.366  0.1106 -0.2553  0.5868
 1024Na+     N115424   0.538   0.548   1.365  0.3596 -0.3572  0.2460
 1025Na+     N115425   2.345   0.630   4.160  0.1803  0.0562  0.0508
 1026Na+     N115426   1.648   4.169   2.758 -0.4188 -0.0788 -0.3441
 1027Na+     N115427   3.940   4.905   0.232 -0.4321  0.0326 -0.6875
 1028Na+     N115428   1.787   1.842   2.441  0.1747 -0.0450 -0.1598
 1029Na+     N115429   2.555   0.437   2.966  0.1680  0.2201 -0.4476
 1030Na+     N115430   3.253   0.165   4.152 -0.5897  0.0470  0.0020
 1031Na+     N115431   1.920   2.135   1.537  0.0331  0.2528 -0.4627
 1032Na+     N115432   0.950   3.940   4.478  0.0203 -0.1881 -0.5563
 1033Na+     N115433   4.301   5.076   3.299  0.5304  0.4160 -0.1985
 1034Na+     N115434   4.598   3.843   2.491  0.2062  0.5186  0.4156
 1035Na+     N115435   0.940   2.063   3.994 -0.0299  0.1440  0.4662
 1036Na+     N115436   0.518   4.166   0.245  0.1348 -0.1370 -0.7246
 1037Na+     N115437   4.645   0.312   2.492  0.8554  0.0030  0.2074
 1038Na+     N115438   1.652   2.824   3.972  0.5142 -0.0597  0.1080
 1039Na+     N115439   3.497   2.962   2.521 -0.3565  0.0242  0.4161
 1040Na+     N115440   2.099   2.319   4.576 -0.1605 -0.4907  0.5332
 1041Na+     N115441   5.257   0.343   4.461  0.0474  0.4178  0.7393
 1042Na+     N115442   5.229   5.182   2.501 -0.0196  0.3099 -0.1330
 1043Na+     N115443   1.902   3.448   1.034 -0.0177  0.4832 -0.0694
 1044Na+     N115444   4.143   2.841   0.054  0.2640  0.0278 -0.5015
 1045Na+     N115445   3.218   1.385   0.527 -0.3214 -0.2539  0.0486
 1046Na+     N115446   0.041   3.412   1.870 -0.3427 -0.1578  0.7156
 1047Na+     N115447   0.830   2.842   0.781  0.0207 -0.1766  0.0907
 1048Na+     N115448   5.072   0.397   3.366  0.3772  0.4662  0.1573
 1049Na+     N115449   5.099   3.996   3.109  0.1599  0.1736 -0.0262
 1050Na+     N115450   3.400   2.521   0.659  0.2646 -0.1223  0.0364
 1051Na+     N115451   1.011   0.803   4.480 -0.0941 -0.0286 -0.2571
 1052Na+     N115452   1.413   1.502   4.592 -0.1186 -0.0667 -0.0739
 1053Na+     N115453   1.083   2.403   3.146 -0.2436 -0.2906  0.1509
 1054Na+     N115454   4.557   1.750   1.093 -0.3438  0.4435  0.6891
 1055Na+     N115455   0.360   2.513   4.694 -0.0629 -0.5343  0.4955
 1056Na+     N115456   2.834   5.393   1.178  0.1518 -0.1327  0.0607
 1057Na+     N115457   2.249   4.133   3.917  0.3609 -0.0256  0.0963
 1058Na+     N115458   1.135   3.717   1.750 -0.3404  0.0297  0.1246
 1059Na+     N115459   3.876   4.427   1.706  0.5808  0.1856 -0.4463
 1060Na+     N115460   4.006   3.880   3.549  0.0930 -0.4692  0.2331
 1061Na+     N115461   1.060   2.015   5.105  0.1702 -0.1925 -0.3648
 1062Na+     N115462   3.925   3.482   4.708  0.2480 -0.4545 -0.0163
 1063Na+     N115463   0.439   5.275   4.502 -0.6022  0.1720  0.0534
 1064Na+     N115464   3.922   0.428   3.012  0.3271 -0.2289 -0.4568
 1065Na+     N115465   0.981   3.581   0.698 -0.3732  0.2302  0.2357
 1066Na+     N115466   0.856   2.966   3.995 -0.1163  0.8791  0.2375
 1067Na+     N115467   3.813   2.492   3.261 -0.4275  0.2086  0.1024
 1068Na+     N115468   0.124   4.750   5.073  0.3956  0.0816 -0.4204
 1069Na+     N115469   1.814   5.226   4.156  0.1588 -0.0495 -0.0593
 1070Na+     N115470   2.990   1.369   2.467  0.5697 -0.2043 -0.3251
 1071Na+     N115471   3.841   1.792   4.843 -0.3448 -0.3701 -0.2320
 1072Na+     N115472   5.354   2.058   3.483  0.0072 -0.2038  0.0781
 1073Na+     N115473   2.796   1.615   3.512  0.0369  0.2897  0.1710
 1074Na+     N115474   0.038   4.450   3.739 -0.2613 -0.2060  0.0806
 1075Na+     N115475   2.986   3.174   1.901 -0.1427 -0.3512 -0.3871
 1076Na+     N115476   2.688   4.556   0.848 -0.1696  0.7318  0.3379
 1077Na+     N115477   0.787   5.022   0.666 -0.7782 -0.0522  0.3139
 1078Na+     N115478   2.523   0.476   5.438 -0.2560 -0.0927  0.0572
 1079Na+     N115479   4.382   5.369   1.870 -0.2340  0.0890  0.1702
 1080Na+     N115480   3.484   1.936   0.123  0.6338  0.3398 -0.1272
 1081Na+     N115481   4.733   0.499   5.341 -0.0390  0.5731  0.5207
 1082Na+     N115482   2.360   4.435   2.823 -0.2174  0.0044 -0.3922
 1083Na+     N115483   1.792   2.411   5.467  0.2179 -0.0751  0.4416
 1084Na+     N115484   3.475   0.587   0.306  0.0902  0.0112  0.2905
 1085Na+     N115485   5.115   3.553   0.678 -0.3947  0.5076  0.0916
 1086Na+     N115486   2.738   2.456   3.219 -0.1485 -0.0087  0.4132
 1087Na+     N115487   2.557   3.366   2.838 -0.0029  0.2145  0.2818
 1088Na+     N115488   0.065   0.564   2.387 -0.2641  0.0613  0.0877
 1089Na+     N115489   4.659   2.837   4.203 -0.0653  0.4225 -0.2976
 1090Na+     N115490   2.712   1.826   1.657  0.2602  0.0116 -0.2114
 1091Na+     N115491   5.395   0.252   1.693 -0.5224 -0.2693 -0.2220
 1092Na+     N115492   3.166   4.866   4.186 -0.4047  0.0534 -0.5049
 1093Na+     N115493   3.785   1.200   1.925 -0.0427 -0.4035 -0.1263
 1094Na+     N115494   2.687   2.898   0.316  0.1810 -0.5605  0.0617
 1095Na+     N115495   3.506   0.662   5.069  0.1065 -0.4543 -0.0118
 1096Na+     N115496   4.304   0.909   3.753  0.0364  0.1922 -0.2506
 1097Na+     N115497   0.669   2.849   2.580 -0.1983  0.8391 -0.0886
 1098Na+     N115498   2.588   1.061   4.813  0.5735 -0.0934 -0.0781
 1099Na+     N115499   0.992   0.295   5.173 -0.8150  0.0344  0.3253
 1100Na+     N115500   4.023   5.189   4.825 -0.1784 -0.6003  0.2795
   5.50536   5.50536   5.50536
